G1.5cooh-PAMAM in water
52904
    1aaa     N1    1   5.303   5.409   3.480 -0.2302  0.6370 -0.4453
    1aaa     C1    2   5.376   5.387   3.614 -0.4963  0.5662  0.6484
    1aaa     C2    3   5.348   5.487   3.729  0.1804 -0.0188  0.7285
    1aaa     N2    4   5.379   5.432   3.867 -0.3506 -0.5126 -0.1171
    1aaa     C3    5   5.260   5.349   3.916  0.2318 -0.4843  0.6373
    1aaa     C4    6   5.407   5.542   3.968  0.2111 -0.5090 -0.1840
    1aaa     C5    7   5.344   5.302   3.390 -0.0729 -0.4767 -0.2605
    1aaa     C6    8   5.336   5.542   3.408 -0.0742 -0.6344 -0.1387
    1aaa     C7    9   5.287   5.635   4.005  0.1808  0.7186 -0.1216
    1aaa     C8   10   5.324   5.727   4.118 -0.2091  0.1805  0.2886
    1aaa     C9   11   5.264   5.264   4.043  0.3405  0.0733 -0.0066
    1aaa    C10   12   5.387   5.172   4.052  0.8012  0.3706 -0.1957
    1aaa    C11   13   5.309   5.161   3.426 -0.6880  0.0144 -0.1228
    1aaa    C12   14   5.336   5.061   3.314  0.8214 -0.2150  0.5478
    1aaa    C13   15   5.482   5.588   3.406  0.3492 -0.3984 -0.4246
    1aaa    C14   16   5.505   5.720   3.334  0.1314  0.1032 -0.0696
    1aaa     O1   17   5.453   5.152   3.950 -0.9163 -0.0119 -0.2387
    1aaa     O2   18   5.422   5.714   4.183  0.3862  0.6030 -0.4111
    1aaa     O3   19   5.419   5.803   3.323  0.1338 -0.0960 -0.8358
    1aaa     O4   20   5.332   5.094   3.200 -0.1522 -0.0495 -0.2628
    1aaa     H1   21   5.482   5.395   3.588 -0.4942 -1.4081 -0.1124
    1aaa     H2   22   5.364   5.284   3.647  1.0963 -0.1671 -0.8898
    1aaa     H3   23   5.243   5.517   3.734  0.0888 -0.0114 -0.6671
    1aaa     H4   24   5.405   5.579   3.715  1.2312 -0.3814  2.4452
    1aaa     H5   25   5.235   5.278   3.837  1.2470 -0.7239  0.5157
    1aaa     H6   26   5.178   5.420   3.914 -0.3669 -1.1831 -0.7345
    1aaa     H7   27   5.456   5.483   4.046  0.1337 -0.6810 -0.2663
    1aaa     H8   28   5.491   5.601   3.931  0.1459 -1.6193 -2.2423
    1aaa     H9   29   5.304   5.324   3.291  1.3832  0.3392 -0.6967
    1aaa    H10   30   5.452   5.315   3.386 -0.2025  0.5585 -0.7994
    1aaa    H11   31   5.301   5.526   3.306 -1.6081  0.7606  0.1302
    1aaa    H12   32   5.270   5.613   3.458 -1.8385 -2.5043  0.3512
    1aaa    H13   33   5.251   5.690   3.917 -1.9772 -1.9121 -1.0360
    1aaa    H14   34   5.204   5.579   4.050  1.3657 -0.7479  0.2996
    1aaa    H15   35   5.175   5.206   4.071  0.8444  0.0118  1.5704
    1aaa    H16   36   5.269   5.341   4.121 -0.4852  1.3027 -1.1286
    1aaa    H17   37   5.351   5.116   3.517 -0.1349 -2.0982 -1.3532
    1aaa    H18   38   5.202   5.157   3.448 -1.1426  0.8051 -1.9471
    1aaa    H19   39   5.532   5.599   3.503  1.7925 -0.5508 -1.1316
    1aaa    H20   40   5.541   5.511   3.355 -1.2391 -0.7673 -1.7882
    1aaa    H37   41   5.201   5.398   3.491 -0.1514 -0.5331 -0.7316
    1aaa    H38   42   5.459   5.367   3.860  0.3815  0.2549  0.7276
    2bbb     N1   43   5.090   6.120   4.350 -0.7330  0.3383 -0.1100
    2bbb     C1   44   5.193   6.233   4.318  0.3275  0.1897 -0.0623
    2bbb     C2   45   5.094   6.067   4.500 -0.0292  0.3141  0.5628
    2bbb     C3   46   5.138   6.376   4.347 -0.0229 -0.4306 -0.2564
    2bbb     C4   47   5.062   6.426   4.222  0.1965  0.2670  0.6593
    2bbb     C5   48   5.008   5.946   4.530  0.3738  0.1956 -0.8078
    2bbb     C6   49   4.951   5.950   4.673  0.2386 -0.4976 -0.5830
    2bbb     C7   50   5.100   6.005   4.248 -0.1156 -0.0870  0.5565
    2bbb     C8   51   5.226   5.919   4.247 -0.8932 -0.5127  0.0662
    2bbb     N2   52   5.230   5.828   4.135 -0.0389  0.4171  0.2565
    2bbb     O1   53   5.025   6.348   4.138 -0.2522  0.0130 -0.7541
    2bbb     O2   54   4.832   5.985   4.698 -0.6601  0.1980  0.2594
    2bbb     H1   55   5.271   6.215   4.392 -1.3944  1.9649  2.3431
    2bbb     H2   56   5.227   6.220   4.215  1.8103 -0.0506  0.4446
    2bbb     H3   57   5.055   6.151   4.558 -2.0443 -0.6032  0.5888
    2bbb     H4   58   5.198   6.039   4.521  0.0862  1.0879  1.0712
    2bbb     H5   59   5.073   6.393   4.434  2.9296  1.9718  1.7081
    2bbb     H6   60   5.226   6.437   4.370 -0.0079 -1.1884  1.9733
    2bbb     H7   61   5.065   5.853   4.525  0.0509 -0.1671  1.1722
    2bbb     H8   62   4.923   5.939   4.461 -0.2536 -0.2934 -0.0029
    2bbb     H9   63   5.085   6.038   4.145  0.3938  0.6781  0.7186
    2bbb    H10   64   5.009   5.951   4.275 -0.0688 -0.8856 -0.7838
    2bbb    H11   65   5.233   5.852   4.333 -1.1835  0.8495  1.1924
    2bbb    H12   66   5.309   5.988   4.227 -0.8870 -0.6155 -0.2674
    2bbb    H13   67   5.146   5.815   4.080 -0.7737  2.3516  0.8672
    2bbb    H25   68   4.996   6.158   4.331 -0.2144  0.5459 -2.5775
    3bbb     N1   69   5.570   5.108   4.425  0.0167 -0.4813 -0.3794
    3bbb     C1   70   5.677   5.193   4.484 -0.4583  0.5157  0.0943
    3bbb     C2   71   5.524   4.994   4.508 -0.2052 -0.0237  0.4863
    3bbb     C3   72   5.809   5.111   4.512 -0.6353 -0.0415  0.4876
    3bbb     C4   73   5.883   5.148   4.643 -0.3462  0.1311 -0.1388
    3bbb     C5   74   5.439   5.029   4.626  0.0594 -0.0143 -0.8893
    3bbb     C6   75   5.313   5.114   4.587  0.9233 -0.4350 -0.5384
    3bbb     C7   76   5.615   5.055   4.290 -0.2889 -0.2215 -0.3253
    3bbb     C8   77   5.502   5.003   4.202 -0.8146 -0.2088 -0.3656
    3bbb     N2   78   5.413   5.113   4.168 -0.0419 -1.1348 -0.0339
    3bbb     O1   79   5.824   5.189   4.743  0.0406 -0.0595  0.8126
    3bbb     O2   80   5.294   5.148   4.470  0.1699 -0.3923 -0.8416
    3bbb     H1   81   5.701   5.274   4.416 -1.8741 -1.0716 -2.4500
    3bbb     H2   82   5.641   5.232   4.580 -1.4443  0.2748 -0.1650
    3bbb     H3   83   5.610   4.931   4.532 -1.1301 -2.3513 -1.8309
    3bbb     H4   84   5.457   4.944   4.437  1.2731 -0.0239 -0.9820
    3bbb     H5   85   5.798   5.001   4.515  1.5383 -0.2972  3.2276
    3bbb     H6   86   5.877   5.138   4.431  1.5978 -0.9509  1.9544
    3bbb     H7   87   5.495   5.090   4.697 -0.7623 -1.1998  0.8625
    3bbb     H8   88   5.410   4.940   4.684  1.1731  0.6741  0.8126
    3bbb     H9   89   5.690   4.978   4.313 -1.8334 -1.6985 -0.0022
    3bbb    H10   90   5.675   5.129   4.237 -2.3599  0.5510 -1.6687
    3bbb    H11   91   5.448   4.923   4.254 -0.2552 -0.8726 -0.7820
    3bbb    H12   92   5.556   4.971   4.112 -0.5504  0.2481 -0.3723
    3bbb    H13   93   5.366   5.164   4.243  1.4977  2.4684 -1.2822
    3bbb    H25   94   5.486   5.167   4.412 -1.2277 -2.1669 -0.4137
    4bbb     N1   95   5.102   4.669   3.185 -0.7724 -0.1415  0.4620
    4bbb     C1   96   5.094   4.729   3.043  0.0533 -0.3530 -0.0754
    4bbb     C2   97   4.960   4.628   3.225 -0.2575 -0.1675 -0.2610
    4bbb     C3   98   5.025   4.875   3.044 -0.3403 -0.8957 -0.2259
    4bbb     C4   99   4.977   4.920   2.905 -0.1236 -0.0116 -0.2495
    4bbb     C5  100   4.917   4.486   3.184  0.5942 -0.4819  0.0781
    4bbb     C6  101   4.782   4.438   3.245  0.0637 -0.4376 -0.0624
    4bbb     C7  102   5.155   4.778   3.282 -0.0186 -1.0396  0.0712
    4bbb     C8  103   5.304   4.821   3.261 -0.3320  0.3158 -0.0599
    4bbb     N2  104   5.349   4.926   3.352  0.5298 -0.7019  0.2633
    4bbb     O1  105   5.059   4.932   2.818  0.0390  0.1378  0.0523
    4bbb     O2  106   4.703   4.517   3.295 -0.7277  0.3373  0.3890
    4bbb     H1  107   5.193   4.741   2.999 -0.5086 -0.2661 -1.3900
    4bbb     H2  108   5.041   4.659   2.977 -2.5659  1.4539 -0.0464
    4bbb     H3  109   4.890   4.696   3.177 -0.2940 -1.6063 -2.3823
    4bbb     H4  110   4.960   4.637   3.334 -0.5578 -0.5864 -0.2231
    4bbb     H5  111   4.936   4.883   3.107 -0.2126 -1.2774  0.0087
    4bbb     H6  112   5.097   4.949   3.081 -2.6550  1.3492  0.0635
    4bbb     H7  113   4.995   4.414   3.211  0.3114 -0.8364 -0.0278
    4bbb     H8  114   4.906   4.486   3.074 -0.3576 -0.9891  0.1608
    4bbb     H9  115   5.149   4.739   3.384  0.6160  3.0889  1.8992
    4bbb    H10  116   5.090   4.866   3.282  1.1211 -0.1829 -0.9418
    4bbb    H11  117   5.312   4.844   3.154 -0.5708  2.1393  0.2852
    4bbb    H12  118   5.369   4.734   3.272  0.1922  0.4896 -1.5509
    4bbb    H13  119   5.375   4.904   3.447 -1.8879  1.4270  1.5607
    4bbb    H25  120   5.170   4.593   3.173  0.5371  0.9520  0.8318
    5bbb     N1  121   5.795   5.918   2.974 -0.0539 -0.2272 -0.0215
    5bbb     C1  122   5.679   5.908   2.879 -0.1011  0.1400 -0.7096
    5bbb     C2  123   5.913   5.880   2.886 -0.0871  0.3533  0.4111
    5bbb     C3  124   5.673   6.007   2.760  0.2585 -0.2077  0.0512
    5bbb     C4  125   5.555   5.974   2.668  0.8924 -0.2716 -0.0881
    5bbb     C5  126   6.055   5.924   2.939 -0.4612 -0.6176  0.4329
    5bbb     C6  127   6.157   5.904   2.831 -0.1439 -0.7423 -0.3481
    5bbb     C7  128   5.782   5.814   3.088  0.3845  0.3823 -0.4822
    5bbb     C8  129   5.663   5.841   3.182  0.0974  0.1643 -0.4130
    5bbb     N2  130   5.633   5.732   3.279  0.2500 -0.9345 -0.1322
    5bbb     O1  131   5.503   5.864   2.665 -0.1751 -0.1149 -0.1668
    5bbb     O2  132   6.152   5.822   2.739  0.6102 -0.0387  0.7201
    5bbb     H1  133   5.678   5.812   2.827 -0.7671  0.4601 -1.3191
    5bbb     H2  134   5.591   5.908   2.943  1.0771 -0.2991  0.9564
    5bbb     H3  135   5.906   5.932   2.791 -1.3377 -1.6340 -0.6569
    5bbb     H4  136   5.911   5.773   2.866  1.6783  0.2059  0.8477
    5bbb     H5  137   5.668   6.110   2.796  0.5439 -0.2051  0.0859
    5bbb     H6  138   5.769   6.001   2.707  1.4148  0.3794  1.9745
    5bbb     H7  139   6.083   5.861   3.024 -0.0977 -1.2035 -0.1099
    5bbb     H8  140   6.058   6.030   2.966  0.9210 -1.3438  3.6420
    5bbb     H9  141   5.868   5.826   3.153  0.0206  0.4393  0.0001
    5bbb    H10  142   5.771   5.716   3.040 -1.9224  0.2063  0.2532
    5bbb    H11  143   5.570   5.865   3.129 -1.1694 -1.0093  1.1425
    5bbb    H12  144   5.693   5.930   3.239 -0.4183 -0.4918  0.9446
    5bbb    H13  145   5.704   5.663   3.298  0.0181 -1.5154 -1.2873
    5bbb    H25  146   5.807   6.010   3.018  0.3564  0.3310 -1.2442
    6bbb     N1  147   5.137   6.864   4.166 -1.1227  0.0373 -0.4281
    6bbb     C1  148   5.101   7.010   4.151  0.5819  0.4489 -0.2278
    6bbb     C2  149   5.274   6.839   4.103 -0.3128 -0.0741  0.6165
    6bbb     C3  150   4.971   7.061   4.218  0.6062 -0.3229  0.1229
    6bbb     C4  151   4.926   7.207   4.183 -0.5099  0.2023  0.1386
    6bbb     C5  152   5.398   6.892   4.177  0.6442  0.1600 -0.0774
    6bbb     C6  153   5.528   6.870   4.097  0.4463  0.6718  0.4837
    6bbb     C7  154   5.031   6.780   4.093 -0.0861  0.1239 -0.4145
    6bbb     C8  155   5.043   6.631   4.085 -0.1845  0.5128  0.4266
    6bbb     N2  156   5.056   6.562   4.213  0.6416 -0.0981 -0.6253
    6bbb     O1  157   4.978   7.277   4.099 -0.0401 -0.7480 -0.3894
    6bbb     O2  158   5.542   6.773   4.022 -0.1719  0.1197  0.1801
    6bbb     H1  159   5.185   7.074   4.178  0.4680  1.0294 -1.2193
    6bbb     H2  160   5.085   7.021   4.044  0.7118  3.8093 -0.0054
    6bbb     H3  161   5.275   6.889   4.006  0.5483 -0.0057  0.6514
    6bbb     H4  162   5.282   6.733   4.078 -1.7508 -0.1956  0.5573
    6bbb     H5  163   4.885   6.999   4.190  0.6717  0.1840 -1.2889
    6bbb     H6  164   4.989   7.073   4.326  0.4292  0.8572  0.0438
    6bbb     H7  165   5.396   6.851   4.278  1.1510  2.7512  1.0657
    6bbb     H8  166   5.385   6.997   4.205  0.5413 -0.1608  1.1322
    6bbb     H9  167   5.022   6.812   3.989 -2.2999  1.4701  0.1313
    6bbb    H10  168   4.940   6.802   4.148 -0.6082 -0.2062 -1.1355
    6bbb    H11  169   5.124   6.599   4.018 -0.6551 -0.7732  0.4520
    6bbb    H12  170   4.951   6.594   4.038  1.6091 -2.9874 -0.6453
    6bbb    H13  171   5.092   6.616   4.291 -2.1362  2.1103 -0.7130
    6bbb    H25  172   5.129   6.828   4.262 -1.6449  1.0827 -0.0634
    7bbb     N1  173   5.029   6.177   5.055 -0.1829  0.1331 -0.4273
    7bbb     C1  174   4.875   6.213   5.049 -0.6877  0.2867 -0.0821
    7bbb     C2  175   5.113   6.296   5.090 -0.4590 -0.0641 -0.0663
    7bbb     C3  176   4.820   6.254   5.183  1.4531 -0.1432  0.0527
    7bbb     C4  177   4.666   6.271   5.174  0.1629 -0.6312  0.1531
    7bbb     C5  178   5.083   6.432   5.035  0.3536 -0.3816 -0.2529
    7bbb     C6  179   5.189   6.529   5.080 -0.4880 -1.0194 -0.0874
    7bbb     C7  180   5.082   6.115   4.929  0.5001  0.2885 -0.0649
    7bbb     C8  181   5.040   5.968   4.910  0.4166 -0.1156  0.2766
    7bbb     N2  182   5.051   5.929   4.768 -0.3874  0.2342 -0.6857
    7bbb     O1  183   4.609   6.297   5.068  0.1155 -0.4035  0.0873
    7bbb     O2  184   5.303   6.488   5.107  0.5307  0.3382 -0.2862
    7bbb     H1  185   4.852   6.287   4.973 -1.8103 -0.3185 -0.3681
    7bbb     H2  186   4.810   6.130   5.018 -0.3301 -0.3196  0.7329
    7bbb     H3  187   5.216   6.274   5.058  0.0009  3.5746 -1.5358
    7bbb     H4  188   5.111   6.286   5.198 -2.6709  1.0558  0.0339
    7bbb     H5  189   4.833   6.161   5.240 -0.2779 -1.8294 -2.0953
    7bbb     H6  190   4.860   6.344   5.231 -2.7859  1.7865  0.4331
    7bbb     H7  191   4.981   6.459   5.064  0.5471 -0.6887  0.7448
    7bbb     H8  192   5.086   6.440   4.926  0.2994  2.7817 -0.1074
    7bbb     H9  193   5.190   6.111   4.934  0.5960  1.1654 -1.1660
    7bbb    H10  194   5.064   6.177   4.841  1.7244 -0.5041 -0.8886
    7bbb    H11  195   4.936   5.964   4.947  0.1191  2.2896 -0.1690
    7bbb    H12  196   5.097   5.901   4.975  0.4480  1.1050  1.5372
    7bbb    H13  197   5.141   5.897   4.734 -0.1626  0.6356 -0.4775
    7bbb    H25  198   5.034   6.100   5.123 -2.4570 -0.2005 -0.5445
    8bbb     N1  199   6.292   4.991   4.885  0.0781  0.4269  0.1633
    8bbb     C1  200   6.279   5.066   5.020 -0.1297  0.1837 -0.1920
    8bbb     C2  201   6.435   4.949   4.854  0.1586  0.2468 -0.0084
    8bbb     C3  202   6.319   4.987   5.150 -0.0256  1.5232 -0.1817
    8bbb     C4  203   6.264   5.050   5.280 -0.2252 -0.5925 -0.3299
    8bbb     C5  204   6.460   4.813   4.780  0.3495 -0.4254  0.5176
    8bbb     C6  205   6.589   4.751   4.838 -0.1326  0.0152 -0.6676
    8bbb     C7  206   6.228   5.073   4.770 -0.6512 -0.1783  0.2399
    8bbb     C8  207   6.075   5.087   4.785  0.2477 -0.0719 -0.1104
    8bbb     N2  208   6.014   5.111   4.655 -0.1174  0.6704  0.1248
    8bbb     O1  209   6.217   5.164   5.272 -0.4752 -0.2797 -0.4965
    8bbb     O2  210   6.649   4.794   4.936 -0.1157 -0.4019 -0.4430
    8bbb     H1  211   6.345   5.154   5.019 -0.3208  0.3857  1.4817
    8bbb     H2  212   6.178   5.106   5.025 -0.4705 -0.7249  0.3112
    8bbb     H3  213   6.475   4.947   4.955 -3.2688 -1.7631  1.4576
    8bbb     H4  214   6.476   5.029   4.791  0.5601 -1.3329 -1.8466
    8bbb     H5  215   6.271   4.889   5.143  2.4488  0.2561 -0.4895
    8bbb     H6  216   6.426   4.964   5.151 -0.1526  0.2683 -3.0793
    8bbb     H7  217   6.471   4.820   4.671 -1.5245  0.3007  0.3417
    8bbb     H8  218   6.379   4.744   4.802 -0.7717  1.0136  1.0612
    8bbb     H9  219   6.246   5.029   4.672  0.8198  1.0932 -0.1045
    8bbb    H10  220   6.266   5.175   4.761 -1.1154  0.0146  0.4048
    8bbb    H11  221   6.046   5.163   4.859  1.0614  0.0359  0.1048
    8bbb    H12  222   6.040   4.987   4.813 -1.2125  0.3323 -0.4157
    8bbb    H13  223   6.060   5.074   4.573 -1.0142  0.6014 -0.3639
    8bbb    H25  224   6.232   4.907   4.892  1.4110 -0.4489  2.1893
    9bbb     N1  225   4.965   5.124   4.808  0.2480  0.3800  0.7540
    9bbb     C1  226   4.849   5.086   4.717  0.4716  0.4991  0.4683
    9bbb     C2  227   4.917   5.122   4.953  0.1808  0.1482 -0.0958
    9bbb     C3  228   4.780   4.945   4.749  0.4735 -0.2173 -0.6723
    9bbb     C4  229   4.656   4.920   4.666 -0.1738 -0.4333 -0.2600
    9bbb     C5  230   5.025   5.149   5.060  0.4723  0.1384  0.1992
    9bbb     C6  231   4.978   5.167   5.209 -0.1922 -0.1278 -0.2795
    9bbb     C7  232   5.014   5.262   4.766  0.3061  0.2892 -0.2221
    9bbb     C8  233   5.110   5.253   4.650 -0.7630 -0.8102  0.4934
    9bbb     N2  234   5.224   5.161   4.682 -0.1862 -0.1497  0.1127
    9bbb     O1  235   4.538   4.931   4.706 -0.0312 -0.1288  0.5720
    9bbb     O2  236   4.880   5.226   5.238 -0.1099 -0.1049  0.1826
    9bbb     H1  237   4.769   5.160   4.724 -1.6588 -1.5204 -1.0279
    9bbb     H2  238   4.878   5.081   4.612  2.3937 -3.1581  1.0155
    9bbb     H3  239   4.881   5.020   4.968  0.6104 -0.1432 -0.9465
    9bbb     H4  240   4.841   5.197   4.974 -0.0951 -0.3797  0.8552
    9bbb     H5  241   4.850   4.862   4.736  0.8174 -0.3518  1.6426
    9bbb     H6  242   4.748   4.936   4.853 -2.3801 -1.4912 -1.5605
    9bbb     H7  243   5.080   5.241   5.036  2.5992 -1.4149 -1.3186
    9bbb     H8  244   5.099   5.068   5.056  0.4165  0.0574  0.6893
    9bbb     H9  245   5.066   5.310   4.849  1.7940 -2.1763  0.3912
    9bbb    H10  246   4.923   5.319   4.745  1.2911  2.2043  0.4503
    9bbb    H11  247   5.155   5.347   4.617  0.8155 -1.2883  1.1814
    9bbb    H12  248   5.055   5.213   4.564 -0.4434  1.0048 -0.6048
    9bbb    H13  249   5.240   5.133   4.778 -2.6068 -1.3951  0.2246
    9bbb    H25  250   5.039   5.055   4.791  0.0107  0.2377  0.3031
   10bbb     N1  251   4.739   5.206   2.611 -0.3316 -0.4228 -0.0593
   10bbb     C1  252   4.590   5.219   2.626  0.2694  0.7086 -0.2375
   10bbb     C2  253   4.770   5.105   2.494  0.5508  0.1251 -1.0508
   10bbb     C3  254   4.526   5.320   2.726  0.6566  0.2247  0.6435
   10bbb     C4  255   4.381   5.340   2.690 -0.3417  1.0159 -0.2863
   10bbb     C5  256   4.778   5.156   2.348  1.0410  0.0129  0.0047
   10bbb     C6  257   4.643   5.133   2.277 -0.5238  0.1476 -0.7107
   10bbb     C7  258   4.803   5.145   2.737  0.0726 -0.0117  0.0426
   10bbb     C8  259   4.761   4.999   2.774  0.7875 -0.6824 -0.2930
   10bbb     N2  260   4.839   4.948   2.889 -0.7085 -0.1550 -0.3705
   10bbb     O1  261   4.358   5.368   2.576  0.6125 -0.6194 -0.1781
   10bbb     O2  262   4.544   5.085   2.329  0.1113 -0.4492  0.1210
   10bbb     H1  263   4.545   5.234   2.528 -3.1926 -1.4468  0.8417
   10bbb     H2  264   4.545   5.127   2.664 -0.7998  1.5500  0.5510
   10bbb     H3  265   4.686   5.036   2.501 -1.0387  2.0046 -0.7804
   10bbb     H4  266   4.865   5.058   2.519  1.0076  0.9140 -1.2766
   10bbb     H5  267   4.523   5.281   2.829 -1.3413 -1.4639  0.0155
   10bbb     H6  268   4.572   5.419   2.720  0.4032  0.2479 -1.5519
   10bbb     H7  269   4.866   5.106   2.305  1.6718  0.5577  0.6148
   10bbb     H8  270   4.793   5.264   2.349 -0.4409  0.2552 -1.6486
   10bbb     H9  271   4.793   5.213   2.822  0.5363  1.8460 -1.3148
   10bbb    H10  272   4.906   5.126   2.706 -0.5106 -2.3042 -0.7038
   10bbb    H11  273   4.772   4.933   2.687  1.0918 -0.0514 -0.7440
   10bbb    H12  274   4.660   5.001   2.816  1.0506 -1.5846  0.4059
   10bbb    H13  275   4.780   4.944   2.972 -2.1600  2.0843 -1.2020
   10bbb    H25  276   4.784   5.297   2.591  1.3050 -0.8145  1.4829
   11bbb     N1  277   4.732   3.996   3.179  0.3789 -0.2325 -0.4486
   11bbb     C1  278   4.721   3.903   3.058  0.0003  0.1800 -0.9737
   11bbb     C2  279   4.718   3.918   3.309  0.2441 -0.2451  0.4921
   11bbb     C3  280   4.592   3.830   3.027 -0.0777  0.2059  0.0583
   11bbb     C4  281   4.592   3.758   2.897  0.3475 -0.7681  0.4722
   11bbb     C5  282   4.832   3.820   3.337 -0.0330 -0.5554 -0.4604
   11bbb     C6  283   4.977   3.878   3.330 -0.0981  0.8537  0.1260
   11bbb     C7  284   4.618   4.099   3.184  0.1051  0.9640 -0.5656
   11bbb     C8  285   4.641   4.225   3.273 -0.0524  0.8960  0.4166
   11bbb     N2  286   4.769   4.301   3.232  0.7177  0.2053 -0.6392
   11bbb     O1  287   4.694   3.739   2.833  0.4005  0.2595  0.2806
   11bbb     O2  288   4.990   3.995   3.302 -0.5045  0.0007  0.6667
   11bbb     H1  289   4.751   3.968   2.975 -1.5203  2.4626  0.1615
   11bbb     H2  290   4.794   3.822   3.063  0.7315  0.8091 -1.3068
   11bbb     H3  291   4.618   3.874   3.307 -0.0280  0.3805  0.0285
   11bbb     H4  292   4.717   3.999   3.383  0.8032 -1.0477  1.3971
   11bbb     H5  293   4.578   3.760   3.111  1.6788 -0.6273 -0.2998
   11bbb     H6  294   4.504   3.897   3.029  0.3854  0.8190  1.2877
   11bbb     H7  295   4.814   3.745   3.258 -0.6372 -0.7449 -0.1494
   11bbb     H8  296   4.810   3.778   3.435  0.0235 -1.5119 -0.8458
   11bbb     H9  297   4.526   4.050   3.218  1.1964 -1.3191 -0.7524
   11bbb    H10  298   4.603   4.129   3.080  0.5812 -0.8594 -1.1892
   11bbb    H11  299   4.638   4.199   3.379 -0.3834  0.3538  0.2781
   11bbb    H12  300   4.554   4.289   3.255 -1.1034 -0.8993 -1.2459
   11bbb    H13  301   4.835   4.263   3.165 -0.7007  1.1708 -2.6672
   11bbb    H25  302   4.824   4.041   3.187  0.4254 -0.7117  3.0249
   12bbb     N1  303   5.322   6.298   2.495  0.2761  0.2726 -0.5448
   12bbb     C1  304   5.203   6.268   2.591 -0.4767 -0.7129  0.5619
   12bbb     C2  305   5.302   6.413   2.398  0.2245 -0.1733 -0.4617
   12bbb     C3  306   5.155   6.374   2.696  0.4580 -0.0937 -0.6527
   12bbb     C4  307   5.057   6.308   2.795  0.0684 -0.4742  0.3003
   12bbb     C5  308   5.426   6.459   2.322 -0.3288  0.0222  0.0896
   12bbb     C6  309   5.404   6.487   2.170 -0.2549 -0.4357  0.2178
   12bbb     C7  310   5.356   6.163   2.426  0.3597 -1.1919 -0.5308
   12bbb     C8  311   5.389   6.044   2.515  0.2994 -0.1559  0.3356
   12bbb     N2  312   5.514   6.068   2.582 -0.4061 -0.2486  0.2892
   12bbb     O1  313   5.059   6.188   2.814  0.5776  0.6231 -0.4823
   12bbb     O2  314   5.401   6.398   2.087 -0.4436  0.2011  0.0705
   12bbb     H1  315   5.123   6.244   2.520 -0.8154  2.2920 -0.2396
   12bbb     H2  316   5.227   6.178   2.647  0.6381 -2.9160 -3.0754
   12bbb     H3  317   5.244   6.498   2.433  1.1010 -0.2920  1.4038
   12bbb     H4  318   5.236   6.373   2.321  2.2848 -0.2211 -2.3022
   12bbb     H5  319   5.243   6.417   2.746  1.3559 -0.6836 -1.6758
   12bbb     H6  320   5.108   6.465   2.657  1.7025  0.4404 -0.9552
   12bbb     H7  321   5.509   6.388   2.327 -0.5691 -0.3831 -1.4092
   12bbb     H8  322   5.476   6.544   2.369  2.8582 -1.2855 -0.7117
   12bbb     H9  323   5.442   6.182   2.361  0.6264  3.4570  0.8484
   12bbb    H10  324   5.272   6.141   2.359 -1.1583  1.1491  0.4693
   12bbb    H11  325   5.399   5.962   2.443 -1.2929 -0.0678 -0.0330
   12bbb    H12  326   5.305   6.024   2.583  0.5848  1.1644  1.1283
   12bbb    H13  327   5.568   6.151   2.560  1.1223 -1.3154 -0.1695
   12bbb    H25  328   5.398   6.316   2.562 -1.5048 -1.6797  2.1986
   13bbb     N1  329   6.622   6.076   2.714  0.1465 -0.4054  0.4052
   13bbb     C1  330   6.710   6.195   2.754 -0.0962  0.0334 -0.3277
   13bbb     C2  331   6.606   6.057   2.562 -0.7424 -0.4476 -0.0700
   13bbb     C3  332   6.747   6.210   2.902  0.0126 -0.7450 -0.3286
   13bbb     C4  333   6.833   6.336   2.934 -0.2921  0.7418  0.1900
   13bbb     C5  334   6.734   6.027   2.480 -0.3258  0.3276  0.6052
   13bbb     C6  335   6.720   6.056   2.326  0.2400  0.0535 -0.7273
   13bbb     C7  336   6.490   6.087   2.784 -0.3457 -0.5677 -0.0530
   13bbb     C8  337   6.391   5.967   2.767  0.5150  0.1505 -0.2931
   13bbb     N2  338   6.270   5.987   2.849 -0.4049  0.2853 -0.1787
   13bbb     O1  339   6.871   6.417   2.851 -0.1425 -0.4746 -0.3415
   13bbb     O2  340   6.656   6.154   2.291  0.2911  0.2393  0.5510
   13bbb     H1  341   6.809   6.192   2.707  0.1637  0.9285  0.1349
   13bbb     H2  342   6.658   6.285   2.722 -1.2994  0.7414  3.2184
   13bbb     H3  343   6.552   6.149   2.540 -2.0830 -0.2693  3.3222
   13bbb     H4  344   6.536   5.974   2.549 -0.3565 -0.4787 -2.2702
   13bbb     H5  345   6.650   6.214   2.953 -0.4530  1.1250 -1.2596
   13bbb     H6  346   6.802   6.120   2.933 -0.5563 -1.0108 -0.0663
   13bbb     H7  347   6.751   5.920   2.496  0.7708  0.5158  0.7505
   13bbb     H8  348   6.818   6.089   2.512 -1.3177  1.6627  0.7030
   13bbb     H9  349   6.447   6.177   2.741 -1.7234 -1.0920  0.1795
   13bbb    H10  350   6.511   6.103   2.890  0.2186  2.2980 -0.5258
   13bbb    H11  351   6.436   5.869   2.791  0.9173  0.2475 -0.6339
   13bbb    H12  352   6.345   5.969   2.668 -0.9664  0.6177  0.3784
   13bbb    H13  353   6.267   6.057   2.922  0.3161  1.3791 -1.1679
   13bbb    H25  354   6.668   5.991   2.749 -0.0292 -1.0595 -0.8801
   14bbb     N1  355   4.552   7.526   4.344 -0.0285 -0.6145  0.1196
   14bbb     C1  356   4.519   7.557   4.197 -0.2625 -0.4513 -0.0725
   14bbb     C2  357   4.622   7.641   4.408  1.0229 -0.4577  0.0671
   14bbb     C3  358   4.399   7.652   4.161  0.0377  0.6878  0.2065
   14bbb     C4  359   4.366   7.673   4.009 -0.2822  0.4164  0.2361
   14bbb     C5  360   4.660   7.622   4.555  0.3124 -0.0351  0.9843
   14bbb     C6  361   4.537   7.623   4.646 -0.4706 -0.0306 -0.9668
   14bbb     C7  362   4.636   7.397   4.346  0.2359 -0.3214 -0.3081
   14bbb     C8  363   4.762   7.393   4.257 -0.0706 -0.1185 -0.2513
   14bbb     N2  364   4.825   7.257   4.261 -0.0427  0.3185  0.1633
   14bbb     O1  365   4.397   7.590   3.926  0.3753  0.2536 -0.0873
   14bbb     O2  366   4.440   7.548   4.635 -0.2484 -0.1847 -0.3594
   14bbb     H1  367   4.606   7.596   4.144 -0.0840  0.4002  0.8188
   14bbb     H2  368   4.496   7.461   4.149 -0.7325 -0.0975 -0.5634
   14bbb     H3  369   4.553   7.725   4.411 -0.6035 -1.6579 -1.5234
   14bbb     H4  370   4.716   7.656   4.354  1.0981  0.3578  0.4137
   14bbb     H5  371   4.303   7.638   4.212  0.1035 -0.8813 -0.0738
   14bbb     H6  372   4.429   7.753   4.193  0.8288  1.2130 -1.9826
   14bbb     H7  373   4.733   7.694   4.593 -1.4152  2.0473  0.5989
   14bbb     H8  374   4.699   7.521   4.567  0.3109 -0.2827 -0.8628
   14bbb     H9  375   4.565   7.317   4.323  0.3767 -0.2654 -0.9602
   14bbb    H10  376   4.658   7.382   4.451  1.5849  0.0219 -0.5235
   14bbb    H11  377   4.831   7.474   4.284 -1.9548  1.4745 -0.0394
   14bbb    H12  378   4.731   7.417   4.155 -0.1478  0.2295 -0.1448
   14bbb    H13  379   4.783   7.191   4.325  0.0151 -1.2523 -1.3464
   14bbb    H25  380   4.464   7.518   4.399  0.7657  2.4316  2.1053
   15bbb     N1  381   5.996   6.930   4.066  0.2296  0.4376 -0.1345
   15bbb     C1  382   6.080   6.819   4.123 -0.1058  0.3522  0.6987
   15bbb     C2  383   6.032   7.058   4.144 -0.0034  0.4398  0.0722
   15bbb     C3  384   6.082   6.674   4.062  0.5700  0.1852  0.7952
   15bbb     C4  385   6.115   6.556   4.163  0.0196  0.1355 -0.1311
   15bbb     C5  386   6.123   7.162   4.079 -0.0168 -0.7349  0.3986
   15bbb     C6  387   6.270   7.126   4.046  0.3218 -0.1991 -0.3475
   15bbb     C7  388   5.854   6.894   4.098 -0.6961  0.1977  0.0284
   15bbb     C8  389   5.745   6.972   4.030  0.2465 -0.3985  0.3570
   15bbb     N2  390   5.626   6.967   4.116  0.2807 -0.0816  0.1937
   15bbb     O1  391   6.039   6.463   4.176 -0.2818 -0.2273 -0.1356
   15bbb     O2  392   6.315   7.015   4.062  0.1726 -0.8116  0.3411
   15bbb     H1  393   6.184   6.853   4.127 -0.1620  1.3235 -2.9589
   15bbb     H2  394   6.053   6.810   4.229  0.0824 -2.0516  0.6039
   15bbb     H3  395   6.068   7.034   4.244  0.9924 -1.9110 -0.7844
   15bbb     H4  396   5.930   7.092   4.166 -0.9849 -2.2634  0.1570
   15bbb     H5  397   5.981   6.648   4.027  1.0912  0.2073 -0.8120
   15bbb     H6  398   6.146   6.664   3.973 -0.8265 -1.2105 -0.1242
   15bbb     H7  399   6.133   7.246   4.149  4.5321 -0.0882 -0.7629
   15bbb     H8  400   6.073   7.187   3.985  1.5001 -1.0105 -0.5058
   15bbb     H9  401   5.842   6.910   4.205 -0.5462 -1.6450  0.3454
   15bbb    H10  402   5.838   6.788   4.080 -0.3732 -0.1875  1.8312
   15bbb    H11  403   5.729   6.925   3.933  0.5931 -1.2319  0.6946
   15bbb    H12  404   5.770   7.078   4.014 -1.4093  0.0513  0.5787
   15bbb    H13  405   5.601   7.037   4.185  0.1616  2.5706 -2.3377
   15bbb    H25  406   6.008   6.939   3.964  2.0903  1.7434  0.1408
   16bbb     N1  407   4.233   6.333   5.373 -0.2654  0.2062  0.2420
   16bbb     C1  408   4.139   6.227   5.435  0.1802 -1.8156 -0.2104
   16bbb     C2  409   4.167   6.416   5.262  1.0874  0.3052  0.0576
   16bbb     C3  410   4.007   6.290   5.492  0.3144 -0.1774 -0.0923
   16bbb     C4  411   3.885   6.303   5.400 -0.8330 -0.2237 -0.7988
   16bbb     C5  412   4.160   6.347   5.124  0.0951  0.2768  0.1625
   16bbb     C6  413   4.073   6.434   5.027  0.0445 -0.2518  0.3151
   16bbb     C7  414   4.370   6.268   5.329 -0.3099 -0.2798 -0.2090
   16bbb     C8  415   4.498   6.358   5.330  0.4369  0.6084 -0.7325
   16bbb     N2  416   4.616   6.286   5.299  0.7686  0.2860  0.0049
   16bbb     O1  417   3.892   6.282   5.280  0.5138  0.2864  0.7183
   16bbb     O2  418   4.112   6.538   4.987  0.3701  0.3625 -0.1172
   16bbb     H1  419   4.120   6.143   5.368 -0.4983 -2.5392  0.8400
   16bbb     H2  420   4.192   6.189   5.523  0.2165 -0.1587  0.5190
   16bbb     H3  421   4.220   6.509   5.239  1.3222 -0.1300 -1.2417
   16bbb     H4  422   4.067   6.449   5.290  0.5471  0.7783 -2.1762
   16bbb     H5  423   3.970   6.237   5.581  1.3600  2.8234  2.3188
   16bbb     H6  424   4.044   6.389   5.524 -0.2642 -0.0400  0.1612
   16bbb     H7  425   4.112   6.249   5.133 -0.6889  0.7549  1.4911
   16bbb     H8  426   4.261   6.337   5.083 -0.1273  0.9803 -0.5857
   16bbb     H9  427   4.353   6.235   5.226 -0.0701 -0.8399 -0.0742
   16bbb    H10  428   4.387   6.183   5.396  2.1456 -0.8319 -1.3915
   16bbb    H11  429   4.521   6.401   5.428  1.9305 -0.9305 -0.3636
   16bbb    H12  430   4.491   6.439   5.256 -3.6175  0.1242 -1.1029
   16bbb    H13  431   4.667   6.243   5.376 -1.0526  0.1533  1.1852
   16bbb    H25  432   4.250   6.392   5.455  0.1544 -1.2701  1.2602
   17bbb     N1  433   5.314   6.923   5.316  0.4283 -0.6149 -0.2220
   17bbb     C1  434   5.279   6.966   5.463  0.9949  0.0315 -0.8151
   17bbb     C2  435   5.335   7.048   5.234 -0.4480  0.1637 -0.0426
   17bbb     C3  436   5.325   6.880   5.581 -0.6561  0.5072  0.2272
   17bbb     C4  437   5.320   6.949   5.717  0.0587  0.1042 -0.3426
   17bbb     C5  438   5.459   7.141   5.264 -0.0761 -1.0529  0.6979
   17bbb     C6  439   5.442   7.274   5.188  0.8104 -0.3062 -0.6489
   17bbb     C7  440   5.212   6.826   5.261 -0.1552 -0.8845 -0.5246
   17bbb     C8  441   5.239   6.770   5.119  0.2132  0.0443 -0.1517
   17bbb     N2  442   5.152   6.660   5.083  0.1623  0.5814  0.2969
   17bbb     O1  443   5.410   6.961   5.797  0.2141  0.6323 -0.3077
   17bbb     O2  444   5.381   7.370   5.242  0.1051  0.2363 -0.2328
   17bbb     H1  445   5.314   7.066   5.487 -0.2929  0.2893  0.0901
   17bbb     H2  446   5.170   6.971   5.476  1.2174  0.8671  0.8558
   17bbb     H3  447   5.246   7.110   5.223 -0.0825  0.7053  0.0300
   17bbb     H4  448   5.350   7.013   5.132  0.8270 -0.6467  0.3980
   17bbb     H5  449   5.260   6.792   5.586  2.2408 -1.8762 -0.6313
   17bbb     H6  450   5.423   6.829   5.576 -1.2149 -1.0415  2.8594
   17bbb     H7  451   5.556   7.098   5.239 -0.0203 -0.6022  0.1224
   17bbb     H8  452   5.477   7.166   5.369  3.9858 -0.5385  0.0116
   17bbb     H9  453   5.118   6.880   5.270 -0.3723 -1.3267 -0.0868
   17bbb    H10  454   5.206   6.743   5.332  1.1950  0.5531  1.3606
   17bbb    H11  455   5.346   6.746   5.113  0.7794  2.5526 -2.8762
   17bbb    H12  456   5.222   6.851   5.047 -0.0756 -0.8991 -1.1796
   17bbb    H13  457   5.059   6.679   5.048  0.4457  0.3150 -0.6137
   17bbb    H25  458   5.402   6.869   5.314 -0.8979 -2.8777 -2.3203
   18bbb     N1  459   6.481   4.958   5.641  0.6314  0.7776  0.3627
   18bbb     C1  460   6.434   4.882   5.761  0.2972  0.4865  0.0138
   18bbb     C2  461   6.624   5.004   5.660  0.6146  0.3398  0.6250
   18bbb     C3  462   6.490   4.737   5.777 -0.0165  0.0478 -0.1543
   18bbb     C4  463   6.435   4.664   5.908  0.2440 -0.3035  0.5961
   18bbb     C5  464   6.650   5.115   5.768 -0.0431  0.6036 -0.0294
   18bbb     C6  465   6.792   5.173   5.758 -0.2305  0.5561 -0.5428
   18bbb     C7  466   6.389   5.075   5.607  0.4192  0.0176  0.2774
   18bbb     C8  467   6.256   5.029   5.534  0.3651 -0.2738  0.4758
   18bbb     N2  468   6.281   4.977   5.397 -0.1112 -0.1064  0.3817
   18bbb     O1  469   6.466   4.702   6.021  0.4105  0.3677  0.0143
   18bbb     O2  470   6.886   5.110   5.710  0.9250  0.1720  0.7678
   18bbb     H1  471   6.471   4.929   5.852 -0.5641 -2.8279  2.2564
   18bbb     H2  472   6.325   4.891   5.759  0.3535  1.1566 -0.3154
   18bbb     H3  473   6.666   5.038   5.565  2.8141  2.6525  2.2592
   18bbb     H4  474   6.676   4.913   5.689 -0.3410 -0.6029 -0.5291
   18bbb     H5  475   6.475   4.671   5.690 -3.2859  0.1214  0.2382
   18bbb     H6  476   6.597   4.748   5.796 -0.0318 -0.9336  0.5310
   18bbb     H7  477   6.641   5.077   5.870 -2.1198 -3.1299 -1.3805
   18bbb     H8  478   6.573   5.190   5.746 -2.3527 -1.6743 -0.2620
   18bbb     H9  479   6.455   5.122   5.534  2.4311 -1.0850  1.3098
   18bbb    H10  480   6.364   5.146   5.686 -2.0068  0.7344 -1.0215
   18bbb    H11  481   6.203   5.124   5.525  1.2632  0.4367  2.1086
   18bbb    H12  482   6.198   4.958   5.594  0.3776 -0.1113  0.6819
   18bbb    H13  483   6.312   4.884   5.375  0.1863 -0.0651  0.6273
   18bbb    H25  484   6.466   4.896   5.560 -3.5165  1.0314  0.6988
   19bbb     N1  485   6.955   4.453   4.724 -0.1175  0.9318  0.7708
   19bbb     C1  486   7.071   4.521   4.798 -0.1871  0.2393 -0.7161
   19bbb     C2  487   6.998   4.432   4.579  0.0190 -0.1091 -0.6946
   19bbb     C3  488   7.203   4.449   4.799 -0.2928 -0.1157 -0.1276
   19bbb     C4  489   7.305   4.528   4.878 -0.4588 -0.4705  0.6938
   19bbb     C5  490   7.068   4.551   4.500 -0.2471 -0.0504  0.0596
   19bbb     C6  491   7.098   4.496   4.360  0.0347 -0.8058 -0.2546
   19bbb     C7  492   6.834   4.541   4.720  0.4376  0.2953  0.6800
   19bbb     C8  493   6.744   4.554   4.834  0.1659 -0.8137 -0.4825
   19bbb     N2  494   6.622   4.627   4.791 -0.6074  0.1082 -0.3613
   19bbb     O1  495   7.288   4.636   4.930  0.5276  0.3909  0.0591
   19bbb     O2  496   7.017   4.463   4.277  0.1421  0.3029  0.0837
   19bbb     H1  497   7.087   4.615   4.746 -0.1846 -0.7447 -2.5420
   19bbb     H2  498   7.058   4.536   4.906  0.9276  1.2782 -0.7103
   19bbb     H3  499   6.917   4.395   4.516  1.1389  1.2596 -3.0926
   19bbb     H4  500   7.066   4.346   4.582 -0.4732 -0.6233 -2.4863
   19bbb     H5  501   7.195   4.351   4.846 -0.5221 -0.6843 -1.3053
   19bbb     H6  502   7.245   4.436   4.698 -1.3993 -1.3238 -0.4609
   19bbb     H7  503   7.163   4.581   4.546 -0.0226  1.2971 -1.2044
   19bbb     H8  504   7.014   4.646   4.495 -0.1959  0.0109  0.6160
   19bbb     H9  505   6.772   4.521   4.632 -3.1170  3.1617  2.2598
   19bbb    H10  506   6.875   4.639   4.697  1.9294 -0.0186  1.8842
   19bbb    H11  507   6.794   4.623   4.903  1.6048 -0.8890 -1.4278
   19bbb    H12  508   6.721   4.458   4.884 -0.3614  0.0148  0.9328
   19bbb    H13  509   6.557   4.585   4.725 -0.7889  1.6889 -1.2525
   19bbb    H25  510   6.930   4.362   4.766 -0.9497  1.0174  0.4822
   20bbb     N1  511   4.496   4.619   4.526  0.0945 -0.2402  0.2282
   20bbb     C1  512   4.533   4.469   4.497 -0.0502  0.3355 -0.1035
   20bbb     C2  513   4.345   4.644   4.527  0.3837 -0.5262  0.3621
   20bbb     C3  514   4.478   4.351   4.591  0.9367  1.1116  0.1560
   20bbb     C4  515   4.482   4.210   4.518 -0.1943  0.3154 -0.1936
   20bbb     C5  516   4.291   4.629   4.670 -0.3317  0.1057 -0.2041
   20bbb     C6  517   4.157   4.562   4.689 -0.0422 -0.3124  0.5031
   20bbb     C7  518   4.562   4.705   4.414 -0.5059  0.2234  0.0111
   20bbb     C8  519   4.588   4.850   4.437 -0.0893  0.0163  0.7761
   20bbb     N2  520   4.686   4.883   4.533 -0.3726 -0.8843 -0.3062
   20bbb     O1  521   4.541   4.196   4.409 -0.2364  0.8645 -0.5352
   20bbb     O2  522   4.114   4.489   4.602  0.0580  0.0683  0.2952
   20bbb     H1  523   4.508   4.451   4.392 -0.7585  1.0119 -0.0669
   20bbb     H2  524   4.640   4.461   4.513  0.0661 -1.0661 -1.3842
   20bbb     H3  525   4.311   4.562   4.463  1.1892 -0.3708 -0.3018
   20bbb     H4  526   4.324   4.740   4.480  1.0985 -0.5236  0.0315
   20bbb     H5  527   4.518   4.358   4.692 -2.7507 -1.8329  2.1042
   20bbb     H6  528   4.370   4.370   4.596  1.1971  2.8804 -0.3528
   20bbb     H7  529   4.285   4.728   4.717  0.2636 -1.2852  3.0649
   20bbb     H8  530   4.361   4.567   4.727 -0.3568  0.0758 -0.2056
   20bbb     H9  531   4.501   4.696   4.325 -1.0735  1.5604  0.2419
   20bbb    H10  532   4.660   4.664   4.389 -0.3828 -1.1269  2.3917
   20bbb    H11  533   4.489   4.895   4.452 -1.5350 -2.7662  0.2896
   20bbb    H12  534   4.630   4.889   4.344 -0.3181 -2.5274 -0.4886
   20bbb    H13  535   4.785   4.876   4.514  0.3731  2.1934  1.6827
   20bbb    H25  536   4.547   4.650   4.610 -1.5465  1.2735  0.7384
   21bbb     N1  537   4.785   5.105   5.503  0.5057 -0.9272 -0.3568
   21bbb     C1  538   4.696   5.080   5.625  0.2607 -0.1820  0.3952
   21bbb     C2  539   4.731   5.024   5.386 -0.5749  0.0731  0.3720
   21bbb     C3  540   4.649   4.935   5.653 -0.0835 -0.1439 -0.5516
   21bbb     C4  541   4.587   4.929   5.800  0.9579 -0.1418  0.2168
   21bbb     C5  542   4.600   5.067   5.318 -0.3771 -0.1283 -0.1429
   21bbb     C6  543   4.582   5.038   5.173 -0.4011  0.3483 -0.1486
   21bbb     C7  544   4.929   5.083   5.539  0.1241  0.3963 -0.4075
   21bbb     C8  545   5.035   5.146   5.450 -0.0272 -0.0348 -0.0440
   21bbb     N2  546   5.050   5.110   5.313  0.2056 -0.2565 -0.0223
   21bbb     O1  547   4.620   5.007   5.886 -0.0761  0.2290  0.3160
   21bbb     O2  548   4.655   4.961   5.118  0.9851 -0.0573 -0.5727
   21bbb     H1  549   4.739   5.132   5.711 -0.2722  1.8734 -0.5177
   21bbb     H2  550   4.612   5.146   5.603  1.9489  1.7231 -0.6574
   21bbb     H3  551   4.724   4.920   5.419 -2.3869  0.3017  0.8103
   21bbb     H4  552   4.809   5.021   5.309 -0.6958  0.3268  0.2375
   21bbb     H5  553   4.573   4.913   5.577 -0.7120  0.9194 -0.2602
   21bbb     H6  554   4.738   4.872   5.651 -0.7164 -1.1352  0.8553
   21bbb     H7  555   4.585   5.176   5.328  0.6802  0.1823 -1.6358
   21bbb     H8  556   4.515   5.012   5.361  0.6010  0.2623  2.4977
   21bbb     H9  557   4.944   4.976   5.530 -3.7437 -0.3017 -0.1175
   21bbb    H10  558   4.942   5.122   5.640  0.1924  1.1406 -0.6909
   21bbb    H11  559   5.134   5.146   5.499 -1.1389 -2.0804  2.4826
   21bbb    H12  560   5.006   5.251   5.458 -0.2146 -0.1334  0.6456
   21bbb    H13  561   5.133   5.063   5.281  1.0955  1.4495 -0.3467
   21bbb    H25  562   4.772   5.203   5.474 -0.0986  0.1110  2.9882
   22bbb     N1  563   3.927   5.449   2.701  0.5420 -0.1654  0.0318
   22bbb     C1  564   3.894   5.414   2.550 -0.4367 -0.5508  0.3158
   22bbb     C2  565   3.858   5.583   2.735 -0.2204  0.5992  1.2600
   22bbb     C3  566   3.751   5.401   2.520 -0.2869  0.0552  0.7095
   22bbb     C4  567   3.736   5.347   2.375 -0.6375 -0.2092 -0.0335
   22bbb     C5  568   3.854   5.619   2.883  0.1615  0.6268  0.6088
   22bbb     C6  569   3.755   5.729   2.927 -0.0509  0.0591  0.0941
   22bbb     C7  570   4.074   5.455   2.722  0.0311  0.1479  0.5617
   22bbb     C8  571   4.139   5.328   2.778  0.1367 -0.0091 -0.0271
   22bbb     N2  572   4.284   5.336   2.794 -0.6709  0.1800  0.0043
   22bbb     O1  573   3.779   5.238   2.341 -0.0324 -0.7737  0.4150
   22bbb     O2  574   3.663   5.769   2.859  0.4907 -0.0372 -0.2307
   22bbb     H1  575   3.951   5.480   2.484 -0.4129 -1.0955 -0.2147
   22bbb     H2  576   3.951   5.322   2.536  1.3799  0.3165  1.5018
   22bbb     H3  577   3.752   5.572   2.712  0.4791  1.4335 -3.4976
   22bbb     H4  578   3.892   5.659   2.665 -3.1755  1.9412  1.1548
   22bbb     H5  579   3.701   5.332   2.589  0.1978  0.6146  1.6333
   22bbb     H6  580   3.714   5.504   2.528 -3.2840 -0.9387  0.9388
   22bbb     H7  581   3.957   5.630   2.917  1.4456 -2.5135 -1.7936
   22bbb     H8  582   3.829   5.526   2.936  0.0662 -0.0159 -0.5415
   22bbb     H9  583   4.107   5.547   2.772  0.3488 -0.2317  1.0648
   22bbb    H10  584   4.112   5.469   2.620 -0.1394  1.2843  0.6380
   22bbb    H11  585   4.111   5.248   2.708  0.4324  0.6374 -0.9083
   22bbb    H12  586   4.096   5.306   2.876  0.8243 -1.7392 -0.0842
   22bbb    H13  587   4.323   5.331   2.887  0.1244 -0.3156 -0.3478
   22bbb    H25  588   3.891   5.379   2.767  1.3961 -0.7027 -0.0631
   23bbb     N1  589   4.579   5.063   1.783 -0.0383  0.1592 -0.1518
   23bbb     C1  590   4.720   5.001   1.760 -0.1269  0.5933 -0.0687
   23bbb     C2  591   4.537   5.133   1.652 -0.4389 -0.4497 -0.3970
   23bbb     C3  592   4.737   4.869   1.689  0.3340 -0.1842  0.0600
   23bbb     C4  593   4.884   4.836   1.661 -0.4671 -0.1227  0.5035
   23bbb     C5  594   4.384   5.171   1.638  0.1176  0.1809 -1.0255
   23bbb     C6  595   4.342   5.258   1.521  0.0025 -0.3372  0.2266
   23bbb     C7  596   4.583   5.168   1.898  0.0412  0.5386 -0.0950
   23bbb     C8  597   4.559   5.106   2.035 -0.1947 -0.2953 -0.4213
   23bbb     N2  598   4.655   5.157   2.142  0.2673 -0.8894 -0.8241
   23bbb     O1  599   4.974   4.917   1.670 -0.4228 -0.6680 -0.1990
   23bbb     O2  600   4.418   5.280   1.427 -0.2680 -0.4704  0.1009
   23bbb     H1  601   4.785   5.078   1.719  1.4688  0.7306  2.5282
   23bbb     H2  602   4.770   4.991   1.856  0.5987 -0.3331 -0.5247
   23bbb     H3  603   4.557   5.067   1.567 -0.5314 -0.3168 -0.5224
   23bbb     H4  604   4.606   5.217   1.641  0.4951 -1.3679 -2.0977
   23bbb     H5  605   4.708   4.784   1.752  2.6836 -1.1735 -0.1094
   23bbb     H6  606   4.679   4.864   1.595  0.9406 -1.1209 -0.2802
   23bbb     H7  607   4.351   5.234   1.721 -1.5025 -1.0744 -0.6702
   23bbb     H8  608   4.330   5.076   1.647  0.4102  0.1941  2.2242
   23bbb     H9  609   4.511   5.249   1.886 -1.7286 -0.8666  0.6263
   23bbb    H10  610   4.685   5.207   1.904 -0.4014  1.5322  2.0964
   23bbb    H11  611   4.577   4.998   2.036 -2.0974 -0.6469 -0.0435
   23bbb    H12  612   4.453   5.112   2.063 -0.3195 -0.7444 -0.7947
   23bbb    H13  613   4.746   5.189   2.111 -0.2739 -1.5652 -3.3380
   23bbb    H25  614   4.505   4.995   1.803  0.2304  0.0843  0.6629
   24bbb     N1  615   4.246   3.510   2.604  0.2127 -0.3430  0.0074
   24bbb     C1  616   4.274   3.366   2.641 -0.3675 -0.3139  0.4255
   24bbb     C2  617   4.306   3.551   2.467  0.4655  0.2468  0.3426
   24bbb     C3  618   4.243   3.318   2.786  0.5330  0.3699 -0.4707
   24bbb     C4  619   4.103   3.352   2.836 -0.4000  0.2010 -0.1246
   24bbb     C5  620   4.283   3.455   2.342  0.3590  0.4097 -0.9857
   24bbb     C6  621   4.134   3.431   2.307 -0.0287  0.1451 -0.2181
   24bbb     C7  622   4.302   3.594   2.724 -0.4906 -0.4310 -0.0834
   24bbb     C8  623   4.452   3.620   2.735 -0.2607 -0.2334  0.1157
   24bbb     N2  624   4.470   3.706   2.852  0.0012  0.0871  0.0965
   24bbb     O1  625   4.030   3.437   2.786 -0.0608  0.2251  0.0711
   24bbb     O2  626   4.069   3.349   2.365  0.5882  1.0874 -0.1226
   24bbb     H1  627   4.222   3.302   2.570  2.1200 -1.2252 -0.6854
   24bbb     H2  628   4.375   3.352   2.602 -0.4561  0.2061 -0.0057
   24bbb     H3  629   4.413   3.573   2.476  0.4599  1.0274 -1.1177
   24bbb     H4  630   4.249   3.641   2.442 -0.6951 -0.6113 -0.1430
   24bbb     H5  631   4.267   3.212   2.798  1.6699  0.8162  1.6838
   24bbb     H6  632   4.312   3.372   2.852 -0.2290  0.5206  0.2177
   24bbb     H7  633   4.334   3.359   2.358 -0.6686 -0.3000 -1.8882
   24bbb     H8  634   4.317   3.501   2.248 -0.9429  0.9314 -1.2185
   24bbb     H9  635   4.261   3.559   2.818  1.0418 -0.5192  0.5766
   24bbb    H10  636   4.246   3.687   2.715  0.2733  0.1661  1.2200
   24bbb    H11  637   4.499   3.670   2.650  0.0898  0.5563  0.7595
   24bbb    H12  638   4.510   3.528   2.750  1.1321  0.3870 -1.2347
   24bbb    H13  639   4.392   3.725   2.914  0.7228  0.0154  1.0559
   24bbb    H25  640   4.145   3.531   2.597  0.1058 -1.0745 -0.9655
   25bbb     N1  641   5.471   3.775   3.392 -0.1806 -0.0205  0.1504
   25bbb     C1  642   5.572   3.670   3.359  0.0206  0.3053 -0.4268
   25bbb     C2  643   5.498   3.824   3.538  0.2472 -0.3871 -0.5701
   25bbb     C3  644   5.560   3.612   3.214  0.0182 -0.2503 -0.1907
   25bbb     C4  645   5.623   3.481   3.202 -0.4314 -0.0714 -0.0686
   25bbb     C5  646   5.626   3.909   3.562  0.5568 -0.1220 -0.3130
   25bbb     C6  647   5.632   3.941   3.707 -0.5900 -0.1775  0.6480
   25bbb     C7  648   5.322   3.725   3.384  0.1433 -0.4772  0.6362
   25bbb     C8  649   5.224   3.839   3.375  0.6580  0.0299  0.6337
   25bbb     N2  650   5.084   3.792   3.361 -0.2928 -0.5517 -0.1887
   25bbb     O1  651   5.740   3.473   3.166 -0.1780 -0.4413  0.3229
   25bbb     O2  652   5.706   3.889   3.788 -0.0073 -0.4734 -0.2299
   25bbb     H1  653   5.668   3.722   3.362 -0.3977  1.1971 -1.6765
   25bbb     H2  654   5.563   3.593   3.436  1.6348  0.3250 -0.1813
   25bbb     H3  655   5.503   3.744   3.612  1.8682  0.3524  0.1738
   25bbb     H4  656   5.416   3.891   3.562  1.2674  0.9638 -0.7061
   25bbb     H5  657   5.456   3.601   3.181  0.4974 -0.4558 -1.7113
   25bbb     H6  658   5.601   3.683   3.141 -2.2233 -0.5706 -1.8320
   25bbb     H7  659   5.626   4.000   3.502  2.2087 -1.1954 -2.0326
   25bbb     H8  660   5.713   3.849   3.532  0.5146  0.7007 -2.1786
   25bbb     H9  661   5.295   3.672   3.475  0.8480 -0.4656  0.8626
   25bbb    H10  662   5.322   3.664   3.293  1.8088  1.2492 -0.6011
   25bbb    H11  663   5.241   3.907   3.291  1.4698  0.5387  1.1980
   25bbb    H12  664   5.226   3.910   3.458  0.2208 -0.0824  0.7436
   25bbb    H13  665   5.072   3.701   3.402  1.9129 -0.2344  1.3218
   25bbb    H25  666   5.483   3.860   3.334 -3.0314 -0.5213 -1.3496
   26bbb     N1  667   4.606   6.426   2.995  0.0784  0.3099 -0.6011
   26bbb     C1  668   4.516   6.548   3.021  0.3640 -0.2027 -0.3633
   26bbb     C2  669   4.641   6.353   3.124 -0.1840  0.4672 -0.9027
   26bbb     C3  670   4.467   6.613   2.894 -0.1760 -0.1685  0.6003
   26bbb     C4  671   4.360   6.716   2.926  0.5663 -0.0696  0.2296
   26bbb     C5  672   4.524   6.319   3.227 -0.5564  0.3119 -0.1610
   26bbb     C6  673   4.477   6.438   3.305 -0.0532  0.2616 -0.0408
   26bbb     C7  674   4.741   6.457   2.929  0.4054 -0.0276  0.6222
   26bbb     C8  675   4.838   6.341   2.903 -0.5011 -0.2127  0.4798
   26bbb     N2  676   4.969   6.391   2.850  0.0275  0.3595 -0.6862
   26bbb     O1  677   4.365   6.794   3.018 -0.4175  0.4451  0.3485
   26bbb     O2  678   4.555   6.528   3.341  0.4204  0.0626  0.5254
   26bbb     H1  679   4.427   6.514   3.075  0.5397  1.0584  0.7866
   26bbb     H2  680   4.560   6.621   3.089 -2.2320  0.9119  0.2425
   26bbb     H3  681   4.717   6.397   3.188  0.7580 -2.9401  0.5480
   26bbb     H4  682   4.686   6.260   3.088 -2.3682 -0.7319 -0.7727
   26bbb     H5  683   4.547   6.664   2.840  0.0980  0.0957  1.2498
   26bbb     H6  684   4.409   6.542   2.833 -0.9804  0.3293  0.7616
   26bbb     H7  685   4.569   6.244   3.294  1.2038  0.3280 -1.2698
   26bbb     H8  686   4.437   6.272   3.180 -0.0703  0.2388 -1.0079
   26bbb     H9  687   4.785   6.530   2.997 -0.1948  0.8271  0.1143
   26bbb    H10  688   4.729   6.513   2.836  1.6765  0.5375  0.7742
   26bbb    H11  689   4.802   6.274   2.823  0.3878  0.7670 -0.7924
   26bbb    H12  690   4.846   6.278   2.992 -1.7280  0.1482  0.8595
   26bbb    H13  691   4.990   6.490   2.841 -1.2697  0.8628  1.3537
   26bbb    H25  692   4.549   6.363   2.938 -0.8791  1.3703 -0.8446
   27bbb     N1  693   5.325   6.742   1.791  0.4218 -0.3368 -0.7786
   27bbb     C1  694   5.186   6.768   1.726 -0.3043 -0.0648 -0.3965
   27bbb     C2  695   5.407   6.645   1.704 -0.3444  0.4949 -1.2468
   27bbb     C3  696   5.095   6.874   1.795  0.0990 -0.0866 -0.5197
   27bbb     C4  697   5.168   6.990   1.865 -0.6885 -0.0409 -0.9735
   27bbb     C5  698   5.459   6.707   1.573  0.2876 -0.3229  0.3647
   27bbb     C6  699   5.532   6.619   1.480  0.1992 -0.4188  0.5185
   27bbb     C7  700   5.305   6.686   1.925 -0.4202  0.6961 -1.3876
   27bbb     C8  701   5.431   6.687   2.019 -0.7047 -0.0150 -0.7229
   27bbb     N2  702   5.406   6.624   2.147  0.7139 -0.8638 -0.1130
   27bbb     O1  703   5.282   6.983   1.912 -0.0990  0.1159 -0.4336
   27bbb     O2  704   5.478   6.566   1.384 -0.4280  0.0505 -0.1821
   27bbb     H1  705   5.200   6.796   1.621  1.4364 -4.5275 -1.5985
   27bbb     H2  706   5.129   6.675   1.722  0.3469 -0.4516 -1.4665
   27bbb     H3  707   5.487   6.614   1.771 -0.6626  1.6401 -0.2956
   27bbb     H4  708   5.341   6.560   1.688 -0.6634  0.5592 -0.3651
   27bbb     H5  709   5.038   6.912   1.710  1.2362  0.4280 -1.0744
   27bbb     H6  710   5.026   6.839   1.873  0.5236  1.2290  0.4847
   27bbb     H7  711   5.516   6.799   1.590  1.3529 -1.0274  0.7158
   27bbb     H8  712   5.376   6.747   1.513  2.0592  2.5328 -0.3749
   27bbb     H9  713   5.278   6.581   1.910 -1.3480  1.1052 -2.7886
   27bbb    H10  714   5.219   6.737   1.969 -0.4613 -0.5318  0.0499
   27bbb    H11  715   5.466   6.790   2.028 -2.4005  0.6092 -1.0200
   27bbb    H12  716   5.515   6.636   1.969 -0.1169 -0.1846  0.4117
   27bbb    H13  717   5.410   6.688   2.226  2.5227  0.9668 -1.5879
   27bbb    H25  718   5.377   6.831   1.789  0.0478 -0.1117 -0.4874
   28bbb     N1  719   7.162   6.411   3.238 -1.0531 -0.2419  0.5081
   28bbb     C1  720   7.230   6.532   3.168  0.3342 -0.3339 -0.6414
   28bbb     C2  721   7.183   6.268   3.184 -0.0228 -0.1200  0.1590
   28bbb     C3  722   7.385   6.540   3.182 -0.0672 -0.1419  0.3833
   28bbb     C4  723   7.436   6.673   3.132  0.5269 -0.5274  0.4309
   28bbb     C5  724   7.208   6.157   3.288 -0.6673  0.1327  0.0107
   28bbb     C6  725   7.305   6.186   3.400 -0.4130 -0.7404  0.0765
   28bbb     C7  726   7.018   6.437   3.241  0.1754 -0.3993  0.7897
   28bbb     C8  727   6.940   6.472   3.115  0.1687  0.0702 -0.1505
   28bbb     N2  728   6.868   6.350   3.069  0.2469  0.2840 -0.3092
   28bbb     O1  729   7.373   6.772   3.139 -0.0035 -0.0626  0.0043
   28bbb     O2  730   7.354   6.295   3.409  0.3856  0.3668  0.0663
   28bbb     H1  731   7.206   6.542   3.062 -1.7523  0.0391 -0.1809
   28bbb     H2  732   7.195   6.629   3.204  2.5523  0.4554 -0.4521
   28bbb     H3  733   7.270   6.274   3.119  0.6069  2.7121  1.0926
   28bbb     H4  734   7.094   6.239   3.128  0.4164 -1.2484  0.0361
   28bbb     H5  735   7.402   6.521   3.288 -1.2534 -0.2334  0.5628
   28bbb     H6  736   7.419   6.453   3.124 -0.3868  0.2921 -0.4871
   28bbb     H7  737   7.247   6.075   3.226 -1.6444  0.5092 -1.1562
   28bbb     H8  738   7.114   6.124   3.333 -0.2551  0.5615  1.2233
   28bbb     H9  739   7.009   6.518   3.314 -0.4252 -1.3800  1.8492
   28bbb    H10  740   6.982   6.341   3.278  2.1936 -1.6704 -0.3457
   28bbb    H11  741   7.003   6.505   3.032  0.2082  0.2133 -0.0641
   28bbb    H12  742   6.874   6.557   3.138  1.3177  0.5558  1.5684
   28bbb    H13  743   6.842   6.276   3.132 -0.9697  2.6454  2.1511
   28bbb    H25  744   7.196   6.409   3.335  1.4265  0.9659 -0.2691
   29bbb     N1  745   6.634   5.813   1.965 -0.2246 -0.0780  0.2627
   29bbb     C1  746   6.603   5.789   1.816 -0.1024 -0.8903 -0.8764
   29bbb     C2  747   6.536   5.743   2.055 -0.2176 -0.6515  0.7372
   29bbb     C3  748   6.482   5.862   1.753  0.2689 -1.1863  0.2003
   29bbb     C4  749   6.477   5.835   1.603  0.1252  0.0047  0.1745
   29bbb     C5  750   6.544   5.587   2.053 -0.3753  0.2314  0.2752
   29bbb     C6  751   6.490   5.534   2.186  0.0022 -0.4168  0.4115
   29bbb     C7  752   6.644   5.956   2.010 -0.2096  0.3023  0.4692
   29bbb     C8  753   6.776   6.000   2.088  0.3816  0.5314  0.0640
   29bbb     N2  754   6.772   5.969   2.229 -0.8166 -0.1609  0.0248
   29bbb     O1  755   6.514   5.730   1.547 -0.0943 -0.0305 -0.8109
   29bbb     O2  756   6.514   5.590   2.294 -0.0086 -0.1134 -0.4290
   29bbb     H1  757   6.683   5.831   1.756 -2.2599 -0.6932 -3.8809
   29bbb     H2  758   6.595   5.682   1.798  0.7913 -1.4889  1.7691
   29bbb     H3  759   6.431   5.754   2.028  0.7914  1.7234 -2.8333
   29bbb     H4  760   6.548   5.785   2.155 -0.8569 -0.8915  0.9208
   29bbb     H5  761   6.392   5.825   1.805  1.2372 -3.2261  0.5387
   29bbb     H6  762   6.483   5.970   1.769 -2.1330 -1.0356 -0.2607
   29bbb     H7  763   6.650   5.567   2.037 -0.1813  0.2505  1.4424
   29bbb     H8  764   6.490   5.543   1.968  2.1277 -0.0830 -1.2436
   29bbb     H9  765   6.554   5.970   2.070 -0.1217 -1.6059  1.1148
   29bbb    H10  766   6.627   6.023   1.926 -1.7194  0.3691  0.8012
   29bbb    H11  767   6.787   6.109   2.077 -0.5424  0.5324 -0.9596
   29bbb    H12  768   6.862   5.952   2.039  0.1619  0.2140 -0.0070
   29bbb    H13  769   6.829   5.893   2.263  1.7335  2.8223  3.2011
   29bbb    H25  770   6.724   5.767   1.984  1.3901  1.2106 -3.4113
   30bbb     N1  771   4.225   8.026   3.683 -0.0995  0.0960 -0.2185
   30bbb     C1  772   4.102   7.969   3.602 -0.1824  0.0777  0.3132
   30bbb     C2  773   4.352   8.003   3.609 -0.2150  0.2186 -0.1710
   30bbb     C3  774   3.961   8.003   3.644 -0.1936  0.1306 -0.0790
   30bbb     C4  775   3.849   7.920   3.567 -0.5736  0.2779  0.1783
   30bbb     C5  776   4.463   8.112   3.646  0.2400 -0.1656  0.4059
   30bbb     C6  777   4.600   8.072   3.600  0.1375  0.9754  0.3020
   30bbb     C7  778   4.240   7.973   3.826 -0.1393 -0.5163 -0.6646
   30bbb     C8  779   4.250   7.822   3.845 -0.5424  0.3296 -0.0450
   30bbb     N2  780   4.297   7.789   3.977 -0.0723 -0.2060  0.1436
   30bbb     O1  781   3.862   7.811   3.514  0.3402 -0.3863  0.5194
   30bbb     O2  782   4.615   7.958   3.549  0.5515  0.2220 -0.0634
   30bbb     H1  783   4.114   7.993   3.496 -0.4757 -0.8716  0.0521
   30bbb     H2  784   4.110   7.860   3.603  1.5948  0.1719  0.1499
   30bbb     H3  785   4.330   8.016   3.503 -1.2503  0.6380  0.0832
   30bbb     H4  786   4.395   7.903   3.623  0.8038  0.8920  1.9059
   30bbb     H5  787   3.949   8.004   3.753 -0.0569  0.3542 -0.0666
   30bbb     H6  788   3.970   8.105   3.607  1.7311 -0.4625 -1.4141
   30bbb     H7  789   4.474   8.119   3.755  2.4094  0.6056  0.1913
   30bbb     H8  790   4.431   8.211   3.609 -1.4480 -0.1487  1.7621
   30bbb     H9  791   4.161   8.015   3.889  0.9230  0.8281 -0.1763
   30bbb    H10  792   4.326   8.021   3.873 -0.5985 -0.8301  0.5233
   30bbb    H11  793   4.328   7.788   3.775 -2.3654 -1.3166 -1.3862
   30bbb    H12  794   4.166   7.757   3.819 -1.3890  1.1309  0.6542
   30bbb    H13  795   4.253   7.832   4.058 -0.6223 -3.1268  1.5333
   30bbb    H25  796   4.206   8.127   3.684  0.7370  0.2906 -1.6590
   31bbb     N1  797   4.306   7.808   5.034  0.1175 -0.1246 -0.0177
   31bbb     C1  798   4.349   7.809   5.180 -0.1458 -0.0272 -0.3191
   31bbb     C2  799   4.177   7.732   5.010 -0.5704  0.2089 -0.5349
   31bbb     C3  800   4.257   7.886   5.278 -0.4966  0.1525  0.3121
   31bbb     C4  801   4.308   7.866   5.418 -0.7879 -0.5793 -0.5068
   31bbb     C5  802   4.177   7.572   5.028 -0.3024  0.5491 -0.4008
   31bbb     C6  803   4.214   7.485   4.909 -0.6453  0.5953 -0.0380
   31bbb     C7  804   4.418   7.761   4.943 -0.0009  0.4108 -0.2944
   31bbb     C8  805   4.404   7.786   4.788  0.0266 -0.2277  0.2037
   31bbb     N2  806   4.530   7.740   4.721 -0.1480  0.9439  0.8698
   31bbb     O1  807   4.427   7.874   5.438 -0.3861  0.2767  0.1578
   31bbb     O2  808   4.198   7.516   4.795 -0.2217 -0.3468  0.1187
   31bbb     H1  809   4.345   7.709   5.223 -0.6431  0.6178  1.1934
   31bbb     H2  810   4.447   7.855   5.181 -1.0005  1.9121  1.2451
   31bbb     H3  811   4.152   7.755   4.907  1.9883  0.9461 -1.0498
   31bbb     H4  812   4.103   7.774   5.078 -1.4117  0.5910 -1.6748
   31bbb     H5  813   4.257   7.993   5.253  0.3892  0.0502 -0.1835
   31bbb     H6  814   4.154   7.850   5.275 -0.4765  0.0022  1.0930
   31bbb     H7  815   4.079   7.543   5.068  0.1882  0.6057  0.8628
   31bbb     H8  816   4.246   7.544   5.107 -0.5986 -0.0906 -0.3652
   31bbb     H9  817   4.430   7.653   4.954 -0.1699  0.2618 -1.4528
   31bbb    H10  818   4.506   7.815   4.976  0.5420 -0.5215 -0.1715
   31bbb    H11  819   4.400   7.893   4.767 -1.5544 -0.4006 -0.5545
   31bbb    H12  820   4.320   7.730   4.745  0.8601 -1.4317  0.1017
   31bbb    H13  821   4.603   7.808   4.704 -0.1682  0.7228 -0.0996
   31bbb    H25  822   4.281   7.900   4.995  0.7977  0.0558 -0.0490
   32bbb     N1  823   6.430   6.690   4.430  0.2260 -0.2464  0.1683
   32bbb     C1  824   6.549   6.592   4.423  0.2344 -0.0875  0.9652
   32bbb     C2  825   6.457   6.793   4.535 -0.1070  0.1648 -0.6144
   32bbb     C3  826   6.590   6.507   4.549 -0.1853 -0.2151 -0.2214
   32bbb     C4  827   6.725   6.450   4.529  0.1943 -0.5437  0.2989
   32bbb     C5  828   6.425   6.944   4.495  1.0437  0.1365  0.4998
   32bbb     C6  829   6.276   6.979   4.465 -0.6875 -0.8650  0.0261
   32bbb     C7  830   6.308   6.612   4.471 -0.5236 -0.2102  0.5932
   32bbb     C8  831   6.257   6.511   4.367  0.0178  0.5608  0.7548
   32bbb     N2  832   6.231   6.569   4.230 -0.0083 -0.4346 -0.0680
   32bbb     O1  833   6.806   6.493   4.451 -0.5750 -0.4669  0.1498
   32bbb     O2  834   6.206   6.911   4.399  0.4461  0.2999  0.1300
   32bbb     H1  835   6.531   6.519   4.344  1.9678  0.2778  0.1810
   32bbb     H2  836   6.631   6.653   4.386 -0.8261  0.2389 -0.9905
   32bbb     H3  837   6.564   6.783   4.551 -0.1238 -0.6621 -0.9330
   32bbb     H4  838   6.407   6.768   4.629 -1.0280  2.4279 -0.4441
   32bbb     H5  839   6.588   6.566   4.642  3.9256 -0.5798  0.2854
   32bbb     H6  840   6.521   6.423   4.562  0.9180 -1.5742 -2.5527
   32bbb     H7  841   6.484   6.979   4.409  0.6416 -0.2070  0.0815
   32bbb     H8  842   6.464   7.007   4.576  1.1551 -0.6593  1.0807
   32bbb     H9  843   6.230   6.687   4.491 -0.4696  0.3006 -1.0050
   32bbb    H10  844   6.342   6.566   4.564 -2.4164 -2.9981  0.0118
   32bbb    H11  845   6.162   6.467   4.401  0.1634  0.1811  0.6810
   32bbb    H12  846   6.327   6.428   4.355 -1.1224 -0.4420  0.8352
   32bbb    H13  847   6.294   6.646   4.212  1.7609 -1.8354 -0.1841
   32bbb    H25  848   6.418   6.720   4.332  1.8441 -1.2155 -0.3611
   33bbb     N1  849   6.467   7.364   3.739 -0.0939 -0.6263 -0.0787
   33bbb     C1  850   6.513   7.354   3.587 -0.0118  0.2131  0.2661
   33bbb     C2  851   6.520   7.495   3.803 -0.3053 -0.3562 -0.3162
   33bbb     C3  852   6.665   7.385   3.554  0.5490 -0.3364 -0.3870
   33bbb     C4  853   6.711   7.355   3.411 -1.2300  0.8355  0.5460
   33bbb     C5  854   6.486   7.633   3.740 -0.3119 -0.0369  0.5838
   33bbb     C6  855   6.508   7.750   3.831  0.0302 -0.3283 -0.2195
   33bbb     C7  856   6.509   7.234   3.804 -0.1752  1.1250  0.0629
   33bbb     C8  857   6.494   7.215   3.956 -0.6526  0.0656 -0.9884
   33bbb     N2  858   6.353   7.231   4.000  0.3558  0.1774 -0.0641
   33bbb     O1  859   6.633   7.323   3.320 -0.3331  0.2391  0.1571
   33bbb     O2  860   6.581   7.743   3.930 -0.4662 -0.3316 -0.2035
   33bbb     H1  861   6.488   7.254   3.551 -4.3894  2.4433 -4.1106
   33bbb     H2  862   6.451   7.422   3.528  1.0369  0.5644 -0.4676
   33bbb     H3  863   6.628   7.481   3.806 -0.2456 -0.1619 -1.2105
   33bbb     H4  864   6.466   7.501   3.898  0.3030  0.9442 -0.0389
   33bbb     H5  865   6.684   7.489   3.584  1.5367  0.4480 -3.4487
   33bbb     H6  866   6.743   7.343   3.619 -0.5437 -3.4764 -0.9235
   33bbb     H7  867   6.381   7.628   3.707 -0.0799 -2.0773 -0.0390
   33bbb     H8  868   6.532   7.644   3.641 -1.2518 -2.2758 -0.1888
   33bbb     H9  869   6.607   7.204   3.768 -0.8424 -1.1295  0.0012
   33bbb    H10  870   6.449   7.162   3.748 -1.3458  1.6536  0.5761
   33bbb    H11  871   6.558   7.291   4.003 -1.1013  0.4280 -0.9505
   33bbb    H12  872   6.536   7.118   3.987 -2.0449 -0.1092  0.4944
   33bbb    H13  873   6.300   7.317   3.989 -0.0548  0.7305  4.2828
   33bbb    H25  874   6.364   7.374   3.738 -0.2305 -1.7161 -2.2780
   34bbb     N1  875   3.408   6.392   5.511  0.0415 -0.7564 -1.3235
   34bbb     C1  876   3.362   6.255   5.567  0.0762  0.0700 -0.0328
   34bbb     C2  877   3.366   6.419   5.364 -0.6754  0.6091  1.0319
   34bbb     C3  878   3.361   6.232   5.717  0.0952  0.0486 -0.1497
   34bbb     C4  879   3.293   6.103   5.761  0.7396  0.1668 -0.0034
   34bbb     C5  880   3.217   6.451   5.350 -0.0449 -0.0340  0.1709
   34bbb     C6  881   3.176   6.492   5.206  0.3248 -0.3104 -0.1476
   34bbb     C7  882   3.556   6.419   5.533 -0.4152  0.6077  0.0422
   34bbb     C8  883   3.645   6.354   5.425 -0.0059 -0.3072 -0.1735
   34bbb     N2  884   3.784   6.358   5.472  0.1969 -0.6246  0.0420
   34bbb     O1  885   3.199   6.068   5.695  0.9590  0.1307 -0.3135
   34bbb     O2  886   3.264   6.501   5.121 -0.0269 -0.0972 -0.6232
   34bbb     H1  887   3.262   6.234   5.527  0.4996 -0.1817 -0.9810
   34bbb     H2  888   3.426   6.181   5.520  0.5599 -0.5663  1.5645
   34bbb     H3  889   3.379   6.331   5.301 -0.6622  1.3485 -0.0297
   34bbb     H4  890   3.426   6.501   5.323 -3.0265  0.5304 -3.0246
   34bbb     H5  891   3.461   6.228   5.761 -0.0878 -0.3331  0.2433
   34bbb     H6  892   3.316   6.318   5.768 -2.5329 -1.0585 -0.4349
   34bbb     H7  893   3.187   6.522   5.428 -1.9191 -0.5595 -0.0237
   34bbb     H8  894   3.166   6.356   5.370 -0.0598 -0.1402 -0.3553
   34bbb     H9  895   3.587   6.390   5.633 -0.9020 -1.6179 -0.3832
   34bbb    H10  896   3.562   6.528   5.525 -2.4235  0.6482 -1.9481
   34bbb    H11  897   3.629   6.410   5.332 -1.7161  0.0265  0.2940
   34bbb    H12  898   3.621   6.249   5.405 -1.1323 -0.4283  1.5869
   34bbb    H13  899   3.801   6.378   5.569 -2.0392 -0.6738  0.5048
   34bbb    H25  900   3.356   6.468   5.556  1.7422  0.6418 -1.6198
   35bbb     N1  901   3.908   6.453   4.699  0.0757 -0.1508 -0.1932
   35bbb     C1  902   3.844   6.580   4.641  0.3271 -0.0045  0.6904
   35bbb     C2  903   3.929   6.354   4.587 -0.0832 -0.5833 -0.0404
   35bbb     C3  904   3.947   6.653   4.553  0.0794 -0.5581 -0.0703
   35bbb     C4  905   3.889   6.781   4.493  0.0113 -0.0163  0.5505
   35bbb     C5  906   4.030   6.241   4.618 -0.1275  0.8574  0.0440
   35bbb     C6  907   4.157   6.301   4.677  0.4036 -0.0938 -0.2178
   35bbb     C7  908   3.814   6.396   4.802 -0.1409 -0.7082 -0.0954
   35bbb     C8  909   3.841   6.461   4.943 -0.0715  1.2287  0.4524
   35bbb     N2  910   3.950   6.382   5.001  0.1409  0.1690  0.0649
   35bbb     O1  911   3.892   6.889   4.550  0.6773 -0.7288 -0.0355
   35bbb     O2  912   4.195   6.418   4.669 -0.1910 -0.3725 -0.2700
   35bbb     H1  913   3.758   6.553   4.579  1.1483 -1.8183  0.2788
   35bbb     H2  914   3.811   6.644   4.723  0.3184 -0.1971  0.8379
   35bbb     H3  915   3.964   6.414   4.503 -0.2831  0.7811  0.8229
   35bbb     H4  916   3.836   6.301   4.564 -0.3119 -0.1054 -0.2185
   35bbb     H5  917   4.031   6.676   4.620  1.9861  0.7258 -2.7275
   35bbb     H6  918   3.993   6.586   4.480 -1.0740 -2.0779  0.5306
   35bbb     H7  919   4.057   6.192   4.524 -1.6470  0.2824 -0.1105
   35bbb     H8  920   3.998   6.173   4.698 -4.1224  2.8789  0.3861
   35bbb     H9  921   3.819   6.287   4.802  0.0623 -0.7058  0.6537
   35bbb    H10  922   3.713   6.414   4.765 -0.1215  0.0136  0.1762
   35bbb    H11  923   3.756   6.457   5.011 -0.1900  0.4998  0.2712
   35bbb    H12  924   3.870   6.567   4.939 -2.0385  1.7664 -2.3119
   35bbb    H13  925   3.921   6.299   5.051 -2.0222 -0.5906 -2.1979
   35bbb    H25  926   3.997   6.489   4.735 -1.9162  2.0479  2.9373
   36bbb     N1  927   4.985   7.061   6.054  0.0282  0.0430 -0.1872
   36bbb     C1  928   5.090   7.078   6.164  0.6603 -0.6653  0.3046
   36bbb     C2  929   4.871   6.968   6.095  0.4706  0.0556  0.4451
   36bbb     C3  930   5.051   7.163   6.288  0.5744  0.0312  0.2075
   36bbb     C4  931   5.143   7.127   6.409  0.0077  0.3669 -0.6388
   36bbb     C5  932   4.729   6.984   6.039  0.1794 -0.1453  0.5284
   36bbb     C6  933   4.654   7.106   6.096  0.2047  0.4398 -0.1621
   36bbb     C7  934   5.048   6.994   5.936  0.4806  1.1536 -0.3874
   36bbb     C8  935   5.159   7.077   5.864 -0.9264  0.0133  0.1015
   36bbb     N2  936   5.199   7.018   5.733  0.1045 -0.1307 -0.3878
   36bbb     O1  937   5.244   7.054   6.401  0.4622  0.7270 -0.0727
   36bbb     O2  938   4.653   7.131   6.215  0.7416  0.3442 -0.0240
   36bbb     H1  939   5.134   6.985   6.201 -0.3468 -1.3169 -0.1006
   36bbb     H2  940   5.178   7.129   6.122  3.0934 -0.3000  5.1033
   36bbb     H3  941   4.874   6.968   6.204  1.4642  1.2448  0.4348
   36bbb     H4  942   4.905   6.868   6.070 -0.4816  0.1348 -1.3305
   36bbb     H5  943   5.062   7.269   6.262 -0.0449  0.3512  1.2067
   36bbb     H6  944   4.948   7.151   6.322  0.0616  0.3648 -1.1478
   36bbb     H7  945   4.672   6.895   6.068 -1.0054  0.0310 -1.1273
   36bbb     H8  946   4.731   6.985   5.929 -0.5431 -0.3031  0.5105
   36bbb     H9  947   4.962   6.980   5.871  0.7954 -0.4338 -0.5222
   36bbb    H10  948   5.100   6.904   5.972 -0.5604  0.1457 -1.3477
   36bbb    H11  949   5.250   7.079   5.925 -0.0361 -1.3417 -1.1124
   36bbb    H12  950   5.128   7.180   5.844  0.2691  0.0496 -1.7945
   36bbb    H13  951   5.133   7.012   5.656  1.1131 -1.5530 -1.1816
   36bbb    H25  952   4.944   7.150   6.025 -0.3123 -0.7556 -2.3601
   37bbb     N1  953   5.649   7.544   5.064 -0.1292  0.0600 -0.0750
   37bbb     C1  954   5.632   7.697   5.050 -0.2410 -0.4553  0.3011
   37bbb     C2  955   5.799   7.513   5.075  0.2619 -0.0331  0.0712
   37bbb     C3  956   5.499   7.765   5.075  0.0232  0.2838  0.3665
   37bbb     C4  957   5.451   7.758   5.215  0.7102 -0.3143 -0.4153
   37bbb     C5  958   5.861   7.514   5.222 -0.3408  0.4450  0.6787
   37bbb     C6  959   5.809   7.410   5.317  0.5202 -0.6060  0.3300
   37bbb     C7  960   5.590   7.489   4.941 -0.1409 -0.0391 -0.0190
   37bbb     C8  961   5.466   7.396   4.978  0.4125  0.2791 -0.2809
   37bbb     N2  962   5.494   7.289   5.067 -0.1225  0.5175  0.8471
   37bbb     O1  963   5.529   7.740   5.307  0.1792 -0.0228  0.1275
   37bbb     O2  964   5.693   7.377   5.317  0.1969  0.1558 -0.5231
   37bbb     H1  965   5.700   7.734   5.127 -0.9760  0.3931  0.5489
   37bbb     H2  966   5.672   7.719   4.951  0.5426  0.1395  0.7381
   37bbb     H3  967   5.839   7.590   5.008 -0.7882  0.9226  0.4968
   37bbb     H4  968   5.819   7.417   5.028  2.1674  0.7353 -0.7816
   37bbb     H5  969   5.500   7.871   5.045  1.4940  0.0479 -0.4887
   37bbb     H6  970   5.420   7.729   5.008  0.4240 -1.4066  0.7726
   37bbb     H7  971   5.837   7.607   5.274  1.6904  0.7077  1.2141
   37bbb     H8  972   5.970   7.507   5.222 -0.2187  2.0058  0.0192
   37bbb     H9  973   5.668   7.444   4.879 -1.0659 -1.6474 -0.0836
   37bbb    H10  974   5.557   7.577   4.887 -0.9933 -0.2582  0.1339
   37bbb    H11  975   5.434   7.356   4.881  3.5660 -2.1017 -0.5251
   37bbb    H12  976   5.383   7.453   5.021  1.2339  0.8363  0.6431
   37bbb    H13  977   5.555   7.219   5.025  1.4107  1.6379  1.1159
   37bbb    H25  978   5.595   7.504   5.142 -1.6063  1.0354 -0.5677
   38bbb     N1  979   6.200   4.273   5.892  0.2850 -0.2520  0.1387
   38bbb     C1  980   6.095   4.326   5.989  0.0465 -0.1171  0.3956
   38bbb     C2  981   6.183   4.128   5.870 -1.1581 -1.1287  0.2352
   38bbb     C3  982   5.944   4.322   5.942 -0.3384  0.9531 -0.1553
   38bbb     C4  983   5.927   4.383   5.799  0.1855  0.3167  0.5545
   38bbb     C5  984   6.295   4.051   5.798 -0.0126  0.4495 -0.2449
   38bbb     C6  985   6.245   3.908   5.762 -0.2762 -0.2824 -0.0109
   38bbb     C7  986   6.338   4.299   5.951 -0.1137  0.6730  0.2189
   38bbb     C8  987   6.378   4.443   6.000  0.3061  0.9489 -0.1070
   38bbb     N2  988   6.361   4.549   5.897 -0.3963  0.1206  0.0057
   38bbb     O1  989   6.022   4.416   5.730  0.2504 -0.4308 -0.1262
   38bbb     O2  990   6.141   3.875   5.712 -0.2272  0.0103 -0.1899
   38bbb     H1  991   6.109   4.303   6.094 -0.5010  0.5753  0.6303
   38bbb     H2  992   6.109   4.435   5.988  0.3663 -0.1156 -2.3266
   38bbb     H3  993   6.092   4.112   5.812 -1.1983 -1.0618  0.2806
   38bbb     H4  994   6.166   4.095   5.972  1.2074 -1.5239  0.5633
   38bbb     H5  995   5.912   4.218   5.938 -0.4269  1.0116 -1.0535
   38bbb     H6  996   5.868   4.365   6.008 -2.2302  1.7823 -2.6977
   38bbb     H7  997   6.379   4.042   5.867 -0.7949  1.4130  0.8693
   38bbb     H8  998   6.333   4.101   5.708  0.1632 -0.0370 -0.4455
   38bbb     H9  999   6.411   4.270   5.875  1.3861 -0.3481  2.0010
   38bbb    H10 1000   6.354   4.228   6.031 -0.0126  0.0492 -0.3485
   38bbb    H11 1001   6.487   4.438   6.014  0.4535 -2.6389 -1.5235
   38bbb    H12 1002   6.324   4.467   6.092 -0.6979  1.1320 -0.7265
   38bbb    H13 1003   6.338   4.522   5.802  0.6634  1.0808 -0.5467
   38bbb    H25 1004   6.208   4.325   5.803  0.4675  0.9759  0.8406
   39bbb     N1 1005   6.975   5.264   6.039  0.2267  0.5599  0.5811
   39bbb     C1 1006   6.940   5.398   6.097 -0.6089 -0.1684  0.7361
   39bbb     C2 1007   7.057   5.171   6.126 -0.2401  0.1025  0.6811
   39bbb     C3 1008   6.890   5.415   6.244 -0.7813 -1.0563 -0.1615
   39bbb     C4 1009   6.855   5.557   6.292 -0.0908  0.3144  0.4068
   39bbb     C5 1010   7.084   5.024   6.083  0.1313 -0.1186  0.3063
   39bbb     C6 1011   6.955   4.946   6.084 -1.1557  0.8811  0.1031
   39bbb     C7 1012   7.032   5.292   5.900 -0.3751 -0.3013 -0.1785
   39bbb     C8 1013   6.944   5.364   5.789 -0.4148 -0.0210 -0.5759
   39bbb     N2 1014   6.811   5.306   5.782  0.0150 -0.1068 -0.3046
   39bbb     O1 1015   6.793   5.634   6.215 -0.6183  0.4995 -0.3805
   39bbb     O2 1016   6.894   4.903   5.983 -0.6883  0.3609 -0.3934
   39bbb     H1 1017   7.031   5.457   6.084 -0.4189 -0.6896 -0.4787
   39bbb     H2 1018   6.871   5.441   6.024 -0.3179 -1.8942 -0.6273
   39bbb     H3 1019   7.006   5.175   6.222  0.3999  1.2751  1.0028
   39bbb     H4 1020   7.156   5.218   6.137  0.0660 -0.3717  0.0030
   39bbb     H5 1021   6.804   5.348   6.259 -1.9072  0.4905  0.6078
   39bbb     H6 1022   6.976   5.383   6.304 -0.3505 -0.0973 -0.2495
   39bbb     H7 1023   7.164   4.973   6.139  2.1949  1.0119 -1.4545
   39bbb     H8 1024   7.119   5.032   5.979 -1.2314  0.9226 -0.1040
   39bbb     H9 1025   7.070   5.196   5.865  0.1783  0.1842 -0.9407
   39bbb    H10 1026   7.122   5.355   5.908 -0.0075 -0.9702  1.4432
   39bbb    H11 1027   6.996   5.360   5.693  2.0543  0.5275  0.6394
   39bbb    H12 1028   6.940   5.471   5.811  2.3975  0.2991 -1.2024
   39bbb    H13 1029   6.731   5.362   5.808  0.5092  1.3018 -1.6244
   39bbb    H25 1030   6.884   5.218   6.019  0.3530  0.8474 -0.8033
   40bbb     N1 1031   7.778   4.441   5.061 -0.4772 -0.0157  0.7679
   40bbb     C1 1032   7.899   4.370   4.990  0.0010 -0.4272 -0.6132
   40bbb     C2 1033   7.757   4.376   5.199 -0.1720  0.0651 -0.0518
   40bbb     C3 1034   8.042   4.387   5.052 -0.4360  0.5883 -0.0479
   40bbb     C4 1035   8.114   4.250   5.059 -0.5774  0.6560 -0.2170
   40bbb     C5 1036   7.718   4.227   5.203  0.3795 -0.0850  0.2891
   40bbb     C6 1037   7.833   4.130   5.210  0.4448  0.1879 -0.2624
   40bbb     C7 1038   7.663   4.434   4.964  0.4082 -0.3875  0.2060
   40bbb     C8 1039   7.528   4.509   4.991  0.4087  0.4141  0.6946
   40bbb     N2 1040   7.424   4.460   4.900  0.5436 -0.0201  0.5175
   40bbb     O1 1041   8.065   4.149   5.008 -0.3768  0.3531  0.3573
   40bbb     O2 1042   7.919   4.137   5.295 -0.1679 -0.0632 -0.3059
   40bbb     H1 1043   7.878   4.262   4.994 -0.1523 -0.3627  1.0237
   40bbb     H2 1044   7.900   4.401   4.886  0.8071 -0.7671 -0.7081
   40bbb     H3 1045   7.677   4.441   5.237  3.7648  4.1084  2.2920
   40bbb     H4 1046   7.841   4.400   5.265 -1.7666  0.5045  1.9256
   40bbb     H5 1047   8.093   4.458   4.985 -1.8826  1.0564 -0.6991
   40bbb     H6 1048   8.049   4.427   5.154 -1.6895  0.4439  0.1072
   40bbb     H7 1049   7.649   4.205   5.121 -1.7183 -0.4031  2.0467
   40bbb     H8 1050   7.660   4.211   5.295 -1.7367  2.7108 -0.4317
   40bbb     H9 1051   7.644   4.330   4.938 -0.2603  0.3871 -2.7801
   40bbb    H10 1052   7.698   4.480   4.872 -0.2277  2.6224  1.3697
   40bbb    H11 1053   7.548   4.613   4.962  0.4234  0.4303  0.7643
   40bbb    H12 1054   7.490   4.500   5.094  1.3557 -1.2164  0.9470
   40bbb    H13 1055   7.433   4.375   4.845 -1.1718  0.4746 -0.6251
   40bbb    H25 1056   7.795   4.542   5.076 -3.0480  0.5565  0.2971
   41bbb     N1 1057   7.231   4.620   4.064  0.4776  0.1668  0.1742
   41bbb     C1 1058   7.140   4.533   3.968  0.4466  0.3964  0.9308
   41bbb     C2 1059   7.280   4.741   3.992  0.2627  0.3024  0.2637
   41bbb     C3 1060   6.996   4.583   3.927 -1.1773 -0.6513 -0.2010
   41bbb     C4 1061   6.906   4.473   3.885  0.1750 -0.2983 -0.8179
   41bbb     C5 1062   7.392   4.714   3.884  0.0484  0.9818 -0.1799
   41bbb     C6 1063   7.428   4.853   3.826 -0.2167 -0.5556 -0.2208
   41bbb     C7 1064   7.339   4.531   4.118 -0.9361  0.2953 -0.4933
   41bbb     C8 1065   7.288   4.423   4.215  0.0570 -0.6452 -0.1709
   41bbb     N2 1066   7.234   4.482   4.337  0.0687  0.2731  0.0670
   41bbb     O1 1067   6.938   4.363   3.844 -0.0858  0.0144  0.2325
   41bbb     O2 1068   7.344   4.919   3.767  0.2721 -0.2624  0.6413
   41bbb     H1 1069   7.190   4.491   3.880 -1.2946 -1.8769  0.9614
   41bbb     H2 1070   7.117   4.448   4.031  1.5082 -0.3723  0.3259
   41bbb     H3 1071   7.315   4.813   4.066 -0.9145 -0.1364  1.2639
   41bbb     H4 1072   7.191   4.791   3.955 -0.6127  0.0133  1.9186
   41bbb     H5 1073   6.950   4.627   4.016 -0.7977 -0.0424 -0.2961
   41bbb     H6 1074   7.000   4.655   3.844 -1.7862  0.5570  0.7985
   41bbb     H7 1075   7.356   4.648   3.804 -0.3415  0.2142  0.6144
   41bbb     H8 1076   7.479   4.669   3.933 -0.9526 -2.2618 -1.1300
   41bbb     H9 1077   7.405   4.604   4.166 -2.8186  1.6012  0.2457
   41bbb    H10 1078   7.393   4.492   4.032 -1.4905  1.3793 -1.3578
   41bbb    H11 1079   7.379   4.365   4.236  0.9636 -0.0637 -2.2046
   41bbb    H12 1080   7.220   4.354   4.165  0.3995  0.4218 -2.2281
   41bbb    H13 1081   7.303   4.496   4.410  0.2379 -1.6222  0.3004
   41bbb    H25 1082   7.175   4.652   4.145 -1.8412  1.5944 -1.8699
   42bbb     N1 1083   4.303   3.747   4.619  0.1122 -0.1694 -0.3174
   42bbb     C1 1084   4.254   3.679   4.744 -0.0999 -0.4461 -1.4032
   42bbb     C2 1085   4.393   3.650   4.544 -0.5988  0.1188  0.6840
   42bbb     C3 1086   4.130   3.758   4.799  0.0189 -0.1086 -0.3354
   42bbb     C4 1087   4.070   3.690   4.924  0.2746  0.1848 -0.6078
   42bbb     C5 1088   4.321   3.550   4.449  0.0550  0.5565  0.6359
   42bbb     C6 1089   4.250   3.617   4.332 -0.1237 -0.4687 -0.3556
   42bbb     C7 1090   4.385   3.869   4.647 -0.1684 -0.6440 -0.3647
   42bbb     C8 1091   4.417   3.965   4.527 -0.3098  0.0777 -0.0082
   42bbb     N2 1092   4.437   4.105   4.582  0.5863  0.7935 -0.0136
   42bbb     O1 1093   4.100   3.575   4.952  0.0486  0.1277  0.4264
   42bbb     O2 1094   4.243   3.738   4.336  0.6342 -0.4008 -0.5627
   42bbb     H1 1095   4.213   3.578   4.737 -0.5957 -0.6708  2.6176
   42bbb     H2 1096   4.334   3.680   4.819 -1.7845 -1.1458  0.5026
   42bbb     H3 1097   4.452   3.592   4.615  1.2016 -1.4686 -1.9512
   42bbb     H4 1098   4.468   3.711   4.494 -1.5589  1.1276  0.4323
   42bbb     H5 1099   4.167   3.855   4.834 -1.3986  0.6566 -0.8506
   42bbb     H6 1100   4.048   3.766   4.726  0.2078  0.5619 -0.4780
   42bbb     H7 1101   4.247   3.493   4.507 -0.7004 -0.5188 -1.2809
   42bbb     H8 1102   4.383   3.472   4.403 -2.2517 -0.5810 -0.7277
   42bbb     H9 1103   4.472   3.825   4.697  1.3641  1.5258 -0.9742
   42bbb    H10 1104   4.333   3.927   4.723 -0.0833 -1.6848  0.5078
   42bbb    H11 1105   4.339   3.973   4.451 -0.5020 -2.5296 -0.1699
   42bbb    H12 1106   4.510   3.924   4.487  0.0693  0.0161  0.9077
   42bbb    H13 1107   4.415   4.118   4.680  0.1055  1.5879 -0.2261
   42bbb    H25 1108   4.221   3.775   4.564  1.2123  1.4162 -1.1938
   43bbb     N1 1109   3.762   4.565   5.020 -0.2906 -0.0723  0.3094
   43bbb     C1 1110   3.680   4.448   4.957  0.2269 -0.1786 -0.0282
   43bbb     C2 1111   3.717   4.705   4.979  0.3985 -0.4931 -0.4817
   43bbb     C3 1112   3.533   4.439   4.993 -0.2452  0.2613 -0.0699
   43bbb     C4 1113   3.461   4.317   4.944 -0.0259 -0.4245 -0.4303
   43bbb     C5 1114   3.794   4.828   5.031  0.6147 -0.0193 -0.3872
   43bbb     C6 1115   3.734   4.966   4.991  0.1759 -0.1448 -0.0225
   43bbb     C7 1116   3.915   4.542   4.992  0.0789  0.1925 -0.1792
   43bbb     C8 1117   3.953   4.535   4.837  0.4453  0.1941 -0.2868
   43bbb     N2 1118   4.089   4.594   4.805 -0.2976 -0.3821 -0.4048
   43bbb     O1 1119   3.515   4.235   4.874 -1.0063  0.4505 -0.3880
   43bbb     O2 1120   3.778   5.034   4.899  0.1134  0.3762  1.1697
   43bbb     H1 1121   3.680   4.464   4.849 -1.5940  2.7121  0.2728
   43bbb     H2 1122   3.714   4.349   4.987 -0.9971 -0.6329 -0.0934
   43bbb     H3 1123   3.612   4.714   5.006  0.5159  2.4573 -0.6205
   43bbb     H4 1124   3.720   4.693   4.871 -1.2677  0.5125 -0.6730
   43bbb     H5 1125   3.522   4.452   5.102  1.5142 -1.0951  0.3116
   43bbb     H6 1126   3.484   4.525   4.947  0.7769  1.3027  0.7295
   43bbb     H7 1127   3.891   4.836   4.981  0.2591  2.1314 -0.8398
   43bbb     H8 1128   3.808   4.823   5.140 -0.8356  0.2867 -0.1673
   43bbb     H9 1129   3.936   4.442   5.030 -2.4642  0.1087  1.1837
   43bbb    H10 1130   3.975   4.607   5.057  0.3315 -0.2709  0.0632
   43bbb    H11 1131   3.872   4.585   4.784 -1.7396 -2.1520  0.6196
   43bbb    H12 1132   3.954   4.430   4.806  0.0202 -0.3670  1.4614
   43bbb    H13 1133   4.145   4.646   4.872  0.6976  0.1959 -1.6523
   43bbb    H25 1134   3.755   4.572   5.123 -1.9750  0.5328  0.1807
   44bbb     N1 1135   4.220   4.672   6.055 -0.3544  0.0864 -0.1656
   44bbb     C1 1136   4.128   4.552   6.024 -0.5017 -0.5386 -0.1251
   44bbb     C2 1137   4.140   4.805   6.080 -0.5482 -0.3995  0.4537
   44bbb     C3 1138   4.190   4.415   5.979 -0.7608  0.7748 -0.1663
   44bbb     C4 1139   4.101   4.290   5.980  0.2525 -0.4095  0.2011
   44bbb     C5 1140   4.031   4.799   6.184  0.3509  0.2786 -0.1526
   44bbb     C6 1141   3.966   4.927   6.206  0.2426 -0.6707 -0.0823
   44bbb     C7 1142   4.321   4.690   5.944 -0.2632  0.4457  0.3382
   44bbb     C8 1143   4.435   4.796   5.957 -0.5518 -0.1279 -0.3594
   44bbb     N2 1144   4.502   4.822   5.831 -0.7128  0.3603  0.0223
   44bbb     O1 1145   3.985   4.295   6.018 -0.1973  0.5376  0.4053
   44bbb     O2 1146   4.030   5.029   6.231  0.6232  0.1644 -0.3233
   44bbb     H1 1147   4.073   4.526   6.115 -0.3099 -4.7094 -1.0072
   44bbb     H2 1148   4.052   4.582   5.953 -2.3931 -0.5777  1.7951
   44bbb     H3 1149   4.107   4.841   5.982 -0.5672  1.5037  1.1350
   44bbb     H4 1150   4.222   4.870   6.111  0.3018 -1.2854  0.1509
   44bbb     H5 1151   4.231   4.433   5.879  0.5632  2.2387  0.5795
   44bbb     H6 1152   4.282   4.392   6.036 -1.6265  0.2733  1.0808
   44bbb     H7 1153   4.070   4.759   6.278  0.3830 -2.8454 -1.3843
   44bbb     H8 1154   3.965   4.723   6.140  1.3002 -0.4553 -0.3428
   44bbb     H9 1155   4.265   4.717   5.854  1.5112  4.5074  0.2522
   44bbb    H10 1156   4.363   4.590   5.929  0.1383  0.9642 -2.4881
   44bbb    H11 1157   4.513   4.765   6.028 -0.6891  1.1388  0.3691
   44bbb    H12 1158   4.394   4.894   5.983 -0.3756 -0.1078 -0.1578
   44bbb    H13 1159   4.473   4.769   5.749 -1.1896  1.0814 -0.2893
   44bbb    H25 1160   4.272   4.644   6.139 -2.4198  0.3231  1.2441
   45bbb     N1 1161   4.353   5.232   4.760 -1.0265  0.3935  1.2605
   45bbb     C1 1162   4.276   5.111   4.700  0.0512  0.9096 -0.2025
   45bbb     C2 1163   4.483   5.251   4.678  0.4851  0.5523  0.1550
   45bbb     C3 1164   4.125   5.104   4.736  0.2350 -0.3977 -0.2435
   45bbb     C4 1165   4.063   4.981   4.662  0.1410 -0.1680 -0.5961
   45bbb     C5 1166   4.550   5.385   4.697  0.0889 -0.7009 -0.0064
   45bbb     C6 1167   4.639   5.402   4.816  0.5246  0.8840 -0.7260
   45bbb     C7 1168   4.385   5.211   4.908  0.5686  0.2082  0.1698
   45bbb     C8 1169   4.476   5.097   4.956 -0.0718  0.2454 -1.0101
   45bbb     N2 1170   4.485   5.097   5.104  0.1519  0.2481  0.1206
   45bbb     O1 1171   4.132   4.917   4.589 -0.4118  0.8507 -0.5631
   45bbb     O2 1172   4.698   5.310   4.867  0.4106 -0.1888  0.1880
   45bbb     H1 1173   4.289   5.105   4.592 -0.7877  0.9317 -0.3062
   45bbb     H2 1174   4.321   5.021   4.743  0.5376  1.1911 -0.1180
   45bbb     H3 1175   4.449   5.247   4.574 -0.3000  1.8858  0.3327
   45bbb     H4 1176   4.560   5.178   4.702  1.2522  1.1159 -0.5369
   45bbb     H5 1177   4.119   5.070   4.840 -1.2892 -2.8691 -1.0681
   45bbb     H6 1178   4.071   5.195   4.706  1.3762 -0.1216 -1.5362
   45bbb     H7 1179   4.480   5.470   4.693  0.0839 -0.7374 -1.0683
   45bbb     H8 1180   4.604   5.397   4.602 -0.5910  1.6967 -0.1710
   45bbb     H9 1181   4.289   5.207   4.958  1.1333 -1.0085  1.1934
   45bbb    H10 1182   4.424   5.309   4.938 -2.2824  1.1530  1.1346
   45bbb    H11 1183   4.577   5.094   4.913 -0.3935 -0.6286 -1.7345
   45bbb    H12 1184   4.435   4.998   4.934  2.8276 -0.9652 -1.4679
   45bbb    H13 1185   4.420   5.155   5.155  0.4553 -0.4016  1.2795
   45bbb    H25 1186   4.293   5.315   4.751 -0.8915  0.3083 -0.9493
   46bbb     N1 1187   3.387   5.538   2.174  0.6431 -0.1193 -0.6304
   46bbb     C1 1188   3.300   5.414   2.224  0.1961  0.4922  0.4854
   46bbb     C2 1189   3.321   5.654   2.103 -0.7571  0.3360 -0.4074
   46bbb     C3 1190   3.209   5.346   2.111 -0.6115 -0.5705  0.2186
   46bbb     C4 1191   3.096   5.254   2.167 -0.0763  0.4238  0.3781
   46bbb     C5 1192   3.204   5.714   2.181  0.2448 -0.6176  0.0083
   46bbb     C6 1193   3.168   5.851   2.117  0.1059  0.0136 -0.3718
   46bbb     C7 1194   3.504   5.494   2.099 -0.4747  0.3071 -0.2444
   46bbb     C8 1195   3.607   5.386   2.158  0.2416 -0.2225 -0.6739
   46bbb     N2 1196   3.656   5.426   2.297  0.4323 -0.6419  0.1947
   46bbb     O1 1197   2.983   5.295   2.192 -0.0812 -0.2741  0.2281
   46bbb     O2 1198   3.254   5.934   2.088 -0.0183 -0.4301  0.1260
   46bbb     H1 1199   3.367   5.339   2.265 -0.9251  0.4232  2.2722
   46bbb     H2 1200   3.246   5.451   2.312  0.9015 -0.0456  1.1537
   46bbb     H3 1201   3.293   5.609   2.008  0.7190 -2.7460  0.4700
   46bbb     H4 1202   3.406   5.720   2.091 -0.8991  0.4857 -0.5901
   46bbb     H5 1203   3.168   5.422   2.042 -0.0241 -0.8554 -0.4587
   46bbb     H6 1204   3.263   5.280   2.042 -1.6645 -1.1003 -0.1272
   46bbb     H7 1205   3.224   5.732   2.287 -3.5138 -2.7637  1.2691
   46bbb     H8 1206   3.116   5.648   2.188 -0.7202  0.6573  0.4681
   46bbb     H9 1207   3.567   5.584   2.090  1.0391 -0.6815  0.1185
   46bbb    H10 1208   3.476   5.470   1.996 -1.0097  1.0515 -0.2780
   46bbb    H11 1209   3.691   5.371   2.089  1.6978  1.0480  0.7585
   46bbb    H12 1210   3.557   5.289   2.173 -0.5433  0.2329 -0.2915
   46bbb    H13 1211   3.621   5.515   2.329 -1.9745 -1.0360 -1.0751
   46bbb    H25 1212   3.424   5.573   2.263  0.9415 -0.3746 -0.6521
   47bbb     N1 1213   3.482   5.894   3.272  0.3707  0.2284  0.3377
   47bbb     C1 1214   3.575   5.963   3.374 -0.0177  0.5032  0.7480
   47bbb     C2 1215   3.383   5.803   3.338  0.0539 -0.1352 -0.3070
   47bbb     C3 1216   3.496   6.033   3.484 -0.0748  0.1790  0.4270
   47bbb     C4 1217   3.416   6.156   3.433  0.3387 -0.0397  0.0826
   47bbb     C5 1218   3.297   5.703   3.247  0.6035  0.0898  0.3566
   47bbb     C6 1219   3.211   5.766   3.134  0.0938  0.8504 -0.0058
   47bbb     C7 1220   3.565   5.809   3.177 -0.0872  0.1002  0.3437
   47bbb     C8 1221   3.688   5.883   3.116 -0.1583  0.1002 -0.8267
   47bbb     N2 1222   3.780   5.789   3.049 -0.1286  0.0750  0.0781
   47bbb     O1 1223   3.390   6.176   3.314  0.0265  0.2859  0.2742
   47bbb     O2 1224   3.257   5.858   3.068 -0.3715 -0.4106  0.0901
   47bbb     H1 1225   3.625   5.884   3.432  0.1531 -0.8483 -1.1318
   47bbb     H2 1226   3.639   6.031   3.317  0.1001 -1.4363 -1.6223
   47bbb     H3 1227   3.308   5.848   3.403  0.1588  0.8313 -0.8290
   47bbb     H4 1228   3.446   5.733   3.392 -2.1931 -3.3359 -1.4790
   47bbb     H5 1229   3.423   5.974   3.541 -0.1642  0.1032  0.2353
   47bbb     H6 1230   3.570   6.071   3.555  0.3573  1.2115 -0.5327
   47bbb     H7 1231   3.232   5.640   3.309  0.1223 -0.1320 -0.3565
   47bbb     H8 1232   3.357   5.620   3.207 -2.2886 -1.0360 -2.0266
   47bbb     H9 1233   3.499   5.781   3.095  0.6105 -0.5943  0.0115
   47bbb    H10 1234   3.587   5.715   3.227 -1.1632 -0.9682 -1.0914
   47bbb    H11 1235   3.738   5.924   3.204 -0.6327 -0.0007 -0.5072
   47bbb    H12 1236   3.659   5.973   3.060 -0.3094  0.5505 -0.0303
   47bbb    H13 1237   3.861   5.752   3.098 -0.5353 -0.7530  0.1434
   47bbb    H25 1238   3.429   5.958   3.211  0.0403 -0.7634 -0.4529
   48bbb     N1 1239   4.987   4.623   1.361 -0.4867  0.3854  0.1661
   48bbb     C1 1240   5.012   4.534   1.233 -0.3949  0.2161  0.0833
   48bbb     C2 1241   5.072   4.743   1.335 -0.6850 -0.7230 -0.3262
   48bbb     C3 1242   5.004   4.381   1.240  0.8835 -0.7083 -0.0323
   48bbb     C4 1243   4.861   4.342   1.233 -0.0187 -0.7762 -0.0997
   48bbb     C5 1244   5.038   4.847   1.222  0.4395 -0.3161 -0.3138
   48bbb     C6 1245   5.099   4.985   1.233  0.1577 -0.2844  0.6103
   48bbb     C7 1246   5.028   4.550   1.489  0.5465  0.0010 -0.5752
   48bbb     C8 1247   5.040   4.641   1.616 -0.0260  0.1325  0.2089
   48bbb     N2 1248   4.907   4.704   1.631 -0.6467  0.4376 -0.7931
   48bbb     O1 1249   4.775   4.383   1.307 -0.6173 -0.2295  0.6887
   48bbb     O2 1250   5.151   5.025   1.333 -0.1292  0.3109 -0.4997
   48bbb     H1 1251   4.959   4.574   1.147  1.8415  1.6280 -0.7415
   48bbb     H2 1252   5.114   4.562   1.207 -0.7265  0.6132 -0.8130
   48bbb     H3 1253   5.170   4.702   1.310 -0.1559 -0.4070  1.1049
   48bbb     H4 1254   5.072   4.797   1.430 -3.1554  0.3889 -0.8826
   48bbb     H5 1255   5.053   4.339   1.152  1.0063  0.4491 -0.5306
   48bbb     H6 1256   5.057   4.347   1.329  2.6342  2.0282  0.0864
   48bbb     H7 1257   4.929   4.864   1.223  0.0301 -2.6213 -0.8106
   48bbb     H8 1258   5.078   4.812   1.127  0.3814 -1.2468 -0.0069
   48bbb     H9 1259   5.124   4.502   1.471  0.2387 -0.4804 -0.9906
   48bbb    H10 1260   4.956   4.469   1.504  0.4598 -0.0508 -1.2480
   48bbb    H11 1261   5.121   4.714   1.601 -1.2768  1.8281  1.3054
   48bbb    H12 1262   5.058   4.593   1.713 -0.8258  1.3109  0.9728
   48bbb    H13 1263   4.833   4.637   1.649 -1.4102  1.9360  2.4056
   48bbb    H25 1264   4.885   4.630   1.374 -0.7045 -4.2373  3.4904
   49bbb     N1 1265   3.948   5.504   1.318  0.3110  0.0798  0.2979
   49bbb     C1 1266   3.798   5.515   1.349 -0.4148 -0.0255 -0.0236
   49bbb     C2 1267   3.970   5.428   1.190  0.2233 -0.0348 -0.9037
   49bbb     C3 1268   3.727   5.633   1.291  0.1223  0.0286  0.4007
   49bbb     C4 1269   3.641   5.611   1.170 -0.4651  0.4365  0.4508
   49bbb     C5 1270   4.066   5.488   1.083 -0.2449  0.4719 -0.4576
   49bbb     C6 1271   4.028   5.450   0.942  0.4195 -0.3302  0.7228
   49bbb     C7 1272   4.002   5.421   1.430 -0.6134  0.0170 -0.1533
   49bbb     C8 1273   4.156   5.398   1.415  0.4204 -0.0962  0.4615
   49bbb     N2 1274   4.215   5.317   1.522 -0.4525  0.1848  0.3226
   49bbb     O1 1275   3.670   5.527   1.086 -0.0983  0.2457  0.2807
   49bbb     O2 1276   3.980   5.340   0.915  0.5571 -0.3821 -0.0855
   49bbb     H1 1277   3.754   5.417   1.329  0.3624 -0.6889  1.2929
   49bbb     H2 1278   3.794   5.534   1.457  0.4116  0.6564 -0.1040
   49bbb     H3 1279   3.871   5.414   1.146  0.2242 -0.8102 -0.6813
   49bbb     H4 1280   3.993   5.323   1.210  1.4554  0.3659 -0.1327
   49bbb     H5 1281   3.662   5.668   1.372 -1.2060  1.0906 -1.0467
   49bbb     H6 1282   3.785   5.724   1.270 -0.0484  0.1224  0.3263
   49bbb     H7 1283   4.168   5.456   1.105 -0.4818  0.3350  0.5023
   49bbb     H8 1284   4.060   5.598   1.083  2.3639  0.6742  0.3747
   49bbb     H9 1285   3.956   5.322   1.426  1.4967 -1.1742  2.1660
   49bbb    H10 1286   3.976   5.474   1.521  1.1160 -2.1917  1.7523
   49bbb    H11 1287   4.205   5.495   1.405 -2.3787  1.3368 -0.3989
   49bbb    H12 1288   4.181   5.347   1.321 -2.2030 -1.8702  0.6118
   49bbb    H13 1289   4.164   5.304   1.609 -0.4323 -1.2373  0.1525
   49bbb    H25 1290   3.993   5.596   1.304  0.5068 -0.1542 -0.6790
   50bbb     N1 1291   3.700   3.195   3.037  0.0839 -0.2797  0.8565
   50bbb     C1 1292   3.696   3.289   3.158  0.6056  0.0454  0.8015
   50bbb     C2 1293   3.630   3.054   3.054  0.0984 -0.5342  0.2968
   50bbb     C3 1294   3.557   3.341   3.204  0.1600 -0.0113  0.5462
   50bbb     C4 1295   3.530   3.479   3.148 -0.0945  1.1884  0.6021
   50bbb     C5 1296   3.605   2.986   2.919 -0.1377  0.1309 -0.4465
   50bbb     C6 1297   3.540   2.849   2.938 -0.1611  0.3032  0.8927
   50bbb     C7 1298   3.845   3.187   2.990 -0.0275 -0.2841 -0.5090
   50bbb     C8 1299   3.939   3.308   3.015  0.1786  0.6105 -0.0892
   50bbb     N2 1300   4.067   3.292   2.947 -0.2112 -0.1344 -0.1614
   50bbb     O1 1301   3.617   3.554   3.107  0.0583  0.0875 -0.4729
   50bbb     O2 1302   3.568   2.776   3.029  0.5361  0.4801 -0.2744
   50bbb     H1 1303   3.753   3.247   3.241  1.5895 -0.4438 -0.1031
   50bbb     H2 1304   3.753   3.380   3.138  0.4047 -0.0284 -0.1446
   50bbb     H3 1305   3.531   3.054   3.101 -0.0356 -1.8991  0.0556
   50bbb     H4 1306   3.700   2.988   3.105 -0.8064 -1.5110  0.3130
   50bbb     H5 1307   3.480   3.263   3.193  0.9471 -0.6194 -0.9784
   50bbb     H6 1308   3.546   3.362   3.311 -0.6239  3.2680 -0.0794
   50bbb     H7 1309   3.692   2.966   2.856  0.2366 -0.0892  0.1230
   50bbb     H8 1310   3.536   3.044   2.858 -2.1915 -1.1676  0.5399
   50bbb     H9 1311   3.832   3.181   2.882  0.1269 -2.9022 -0.4490
   50bbb    H10 1312   3.890   3.092   3.022 -0.3291 -0.7064 -1.3003
   50bbb    H11 1313   3.957   3.319   3.123 -1.9360  0.4189  0.3376
   50bbb    H12 1314   3.889   3.398   2.977 -1.2900 -0.3824 -0.5821
   50bbb    H13 1315   4.135   3.228   2.985 -0.2833 -0.2096 -0.1597
   50bbb    H25 1316   3.653   3.253   2.966  1.1488  1.5892  1.6294
   51bbb     N1 1317   3.966   3.493   1.929  0.0535 -0.3459  0.6208
   51bbb     C1 1318   3.979   3.576   1.799  0.2694  0.4490 -0.0195
   51bbb     C2 1319   3.912   3.349   1.915  0.8319 -0.5263  0.5022
   51bbb     C3 1320   4.028   3.503   1.670 -0.2885  0.1085 -0.3302
   51bbb     C4 1321   4.091   3.593   1.562  1.0087  1.4317  0.5087
   51bbb     C5 1322   3.752   3.333   1.900  0.1935 -0.0968 -0.1535
   51bbb     C6 1323   3.719   3.188   1.852 -0.1210 -0.9221 -0.0647
   51bbb     C7 1324   3.895   3.575   2.036 -0.4965 -0.0561 -0.2398
   51bbb     C8 1325   3.930   3.517   2.178  0.4247  0.0641 -0.5078
   51bbb     N2 1326   4.080   3.510   2.200  0.8886 -0.2454 -0.6453
   51bbb     O1 1327   4.102   3.715   1.569  0.7997  0.2794 -0.0573
   51bbb     O2 1328   3.805   3.114   1.816 -0.1128  0.0562 -0.3165
   51bbb     H1 1329   3.887   3.628   1.772 -0.5181 -0.9245 -0.0591
   51bbb     H2 1330   4.063   3.640   1.825  1.8658 -2.1878  1.6678
   51bbb     H3 1331   3.949   3.291   2.000  3.6619 -1.5839 -1.3071
   51bbb     H4 1332   3.963   3.312   1.826 -0.7775  0.0713 -0.7029
   51bbb     H5 1333   4.104   3.427   1.692 -0.0836  0.4765  0.2594
   51bbb     H6 1334   3.949   3.442   1.624 -0.2398 -0.6057  0.5117
   51bbb     H7 1335   3.718   3.403   1.823 -0.9730 -0.3867  0.0833
   51bbb     H8 1336   3.694   3.359   1.989  0.4730  2.4442 -0.6494
   51bbb     H9 1337   3.786   3.580   2.029 -0.7214 -0.8422  1.8991
   51bbb    H10 1338   3.940   3.673   2.016  1.7712 -1.2540 -1.4139
   51bbb    H11 1339   3.888   3.419   2.204  1.6705 -0.2663  0.3751
   51bbb    H12 1340   3.884   3.587   2.249  0.0178 -0.4009 -0.3061
   51bbb    H13 1341   4.138   3.578   2.154  1.7711  0.6228  1.5762
   51bbb    H25 1342   4.065   3.482   1.957  0.5651 -0.8795 -1.3066
   52bbb     N1 1343   5.647   3.011   3.277 -0.2809 -0.5939 -0.0752
   52bbb     C1 1344   5.656   2.953   3.415  0.3265 -0.0230 -0.4425
   52bbb     C2 1345   5.765   2.963   3.188 -0.4337  0.4284 -0.1559
   52bbb     C3 1346   5.529   2.963   3.504  0.3512 -0.1635 -0.7850
   52bbb     C4 1347   5.548   2.942   3.651 -0.4945 -0.9680 -0.6576
   52bbb     C5 1348   5.759   2.977   3.038  0.4332  0.6767 -0.0365
   52bbb     C6 1349   5.631   2.937   2.976  0.7521  0.4259  0.8992
   52bbb     C7 1350   5.644   3.160   3.284 -0.1431 -0.2204  0.0521
   52bbb     C8 1351   5.583   3.229   3.161 -0.2011  0.3417 -0.3709
   52bbb     N2 1352   5.541   3.368   3.199 -0.1617 -0.1465  0.4186
   52bbb     O1 1353   5.662   2.926   3.700 -0.1618 -0.4249 -0.1219
   52bbb     O2 1354   5.533   2.888   3.032  0.0837  0.4365 -0.5772
   52bbb     H1 1355   5.677   2.846   3.410 -3.7531 -1.0040  0.1495
   52bbb     H2 1356   5.739   2.999   3.468 -1.4680  2.1848  0.6128
   52bbb     H3 1357   5.786   2.856   3.202  0.4717 -0.0203 -3.9407
   52bbb     H4 1358   5.858   3.014   3.213 -1.1674  1.6484  0.1685
   52bbb     H5 1359   5.480   3.061   3.494 -1.8604 -1.1166 -0.0814
   52bbb     H6 1360   5.455   2.890   3.470 -1.5547  0.6793  1.2333
   52bbb     H7 1361   5.828   2.906   2.991  0.0999 -0.9861  1.8715
   52bbb     H8 1362   5.780   3.082   3.012  0.6221  0.2324 -1.8267
   52bbb     H9 1363   5.746   3.197   3.297  0.1918 -2.0230  3.5134
   52bbb    H10 1364   5.592   3.189   3.375  1.1954 -0.9010  1.0787
   52bbb    H11 1365   5.497   3.172   3.124 -2.4204  3.3666 -0.2624
   52bbb    H12 1366   5.666   3.223   3.090  0.5088  0.6840  0.4090
   52bbb    H13 1367   5.448   3.388   3.235 -1.1467 -2.5180 -0.6099
   52bbb    H25 1368   5.557   2.990   3.231  0.1111 -0.7908 -0.7635
   53bbb     N1 1369   5.780   4.200   3.855 -0.2492  0.0211  0.5553
   53bbb     C1 1370   5.911   4.240   3.930  0.2749 -0.8032  0.4987
   53bbb     C2 1371   5.729   4.314   3.770  0.4205 -0.4231  0.3338
   53bbb     C3 1372   5.999   4.119   3.977  0.3813  0.3930  0.5291
   53bbb     C4 1373   6.039   4.025   3.864 -0.3514 -0.0024  0.3665
   53bbb     C5 1374   5.808   4.374   3.656 -0.0795 -0.5310 -1.1040
   53bbb     C6 1375   5.828   4.276   3.545 -0.4388 -0.0417 -0.4151
   53bbb     C7 1376   5.666   4.151   3.944 -0.3900  0.2155  0.5452
   53bbb     C8 1377   5.537   4.102   3.883  0.9140  0.2506  0.3261
   53bbb     N2 1378   5.554   4.048   3.745  0.5258  0.4815 -0.0211
   53bbb     O1 1379   6.042   4.050   3.743 -0.3035  0.1547 -0.0829
   53bbb     O2 1380   5.809   4.156   3.556  0.2148 -0.0027  0.5902
   53bbb     H1 1381   5.967   4.306   3.863 -1.1545  2.2340  2.0523
   53bbb     H2 1382   5.885   4.305   4.014 -0.0178 -0.2084 -0.0378
   53bbb     H3 1383   5.711   4.392   3.843  0.1631 -1.5461  1.5128
   53bbb     H4 1384   5.635   4.285   3.721 -0.8520  1.5597  1.4776
   53bbb     H5 1385   6.093   4.147   4.027  0.2009 -0.1157  1.1610
   53bbb     H6 1386   5.932   4.072   4.050 -1.1151 -0.0471 -1.0510
   53bbb     H7 1387   5.908   4.388   3.699 -0.2719  1.1856 -1.1150
   53bbb     H8 1388   5.764   4.468   3.620 -2.2083 -0.0536  2.2764
   53bbb     H9 1389   5.645   4.234   4.012  0.8339  0.6395  0.4333
   53bbb    H10 1390   5.714   4.075   4.007 -1.5476 -0.2168  0.9328
   53bbb    H11 1391   5.468   4.188   3.884 -0.3102 -0.7008  1.6586
   53bbb    H12 1392   5.493   4.023   3.945  1.4015  1.7012  2.6290
   53bbb    H13 1393   5.508   4.101   3.672  1.4979  2.0784  0.4862
   53bbb    H25 1394   5.802   4.128   3.785 -0.6593  0.9645 -0.5787
   54bbb     N1 1395   4.023   6.980   2.663  0.1746  0.2958 -0.0123
   54bbb     C1 1396   3.954   6.958   2.523 -0.1727 -0.5810 -0.7946
   54bbb     C2 1397   4.103   7.116   2.673 -0.3860  0.0760  0.5995
   54bbb     C3 1398   3.804   6.912   2.540 -0.2933 -0.0496  0.3166
   54bbb     C4 1399   3.717   6.934   2.419  0.2302 -0.2835  0.7491
   54bbb     C5 1400   4.025   7.240   2.639  0.0403 -0.3929 -0.2750
   54bbb     C6 1401   4.090   7.366   2.690  0.3135  0.0876 -0.4333
   54bbb     C7 1402   4.111   6.864   2.690  0.0770 -0.3512  0.5149
   54bbb     C8 1403   4.172   6.846   2.827  0.4513  0.7858 -0.0990
   54bbb     N2 1404   4.269   6.739   2.829  0.0873  0.0397 -0.4729
   54bbb     O1 1405   3.762   6.990   2.320  0.4706 -0.1045  0.0290
   54bbb     O2 1406   4.053   7.415   2.802 -0.0264 -0.1058 -0.0589
   54bbb     H1 1407   3.952   7.059   2.479  0.9002 -0.3271 -0.2807
   54bbb     H2 1408   4.016   6.889   2.466  2.3974  0.8901  0.0795
   54bbb     H3 1409   4.195   7.105   2.616 -0.1525  1.3925  0.6999
   54bbb     H4 1410   4.130   7.120   2.779  1.7204  1.3483  0.0623
   54bbb     H5 1411   3.809   6.803   2.550 -0.6349 -0.1139 -0.1965
   54bbb     H6 1412   3.752   6.957   2.626  1.9653  0.7593  1.3237
   54bbb     H7 1413   3.920   7.234   2.669 -0.4845 -1.3189 -2.1555
   54bbb     H8 1414   4.025   7.254   2.530 -2.2051 -0.1193 -0.2752
   54bbb     H9 1415   4.192   6.871   2.618  1.2116  3.2171  1.9254
   54bbb    H10 1416   4.055   6.775   2.662  1.7686 -1.1595 -0.4302
   54bbb    H11 1417   4.088   6.830   2.896  1.0952 -0.6783  0.3711
   54bbb    H12 1418   4.229   6.935   2.857  0.5301  0.6725  0.0905
   54bbb    H13 1419   4.282   6.693   2.739 -1.4419  1.5862 -1.5597
   54bbb    H25 1420   3.953   6.972   2.737  2.3560  1.2303  2.3007
   55bbb     N1 1421   4.129   6.633   3.261  0.3131 -0.1752  0.6512
   55bbb     C1 1422   4.104   6.766   3.190 -0.4887 -0.2668 -0.5003
   55bbb     C2 1423   3.995   6.575   3.315  0.1427 -0.3716 -0.8385
   55bbb     C3 1424   4.010   6.876   3.257  0.8687  0.3485  0.3498
   55bbb     C4 1425   4.008   7.013   3.181 -0.7401 -0.1216  0.2131
   55bbb     C5 1426   3.896   6.545   3.196 -0.0790 -0.3747 -0.4006
   55bbb     C6 1427   3.774   6.469   3.238 -0.1201  0.0732  0.5832
   55bbb     C7 1428   4.228   6.662   3.377 -0.0313  0.7751 -1.0953
   55bbb     C8 1429   4.288   6.527   3.442 -0.1283 -0.5924 -0.0462
   55bbb     N2 1430   4.349   6.442   3.339 -0.0036 -0.0309  0.2244
   55bbb     O1 1431   4.083   7.026   3.087 -0.6899  0.3264 -0.1626
   55bbb     O2 1432   3.779   6.392   3.328 -0.6467 -0.3639 -0.9149
   55bbb     H1 1433   4.199   6.815   3.171 -0.3450 -0.3062  0.0877
   55bbb     H2 1434   4.064   6.738   3.093 -1.0569 -0.5029 -0.2041
   55bbb     H3 1435   3.949   6.637   3.392  2.4211 -1.2654  1.3826
   55bbb     H4 1436   4.024   6.480   3.362  1.6222  0.9967  1.1733
   55bbb     H5 1437   3.909   6.835   3.267  0.5222  0.6163 -1.6627
   55bbb     H6 1438   4.052   6.902   3.355 -1.0847 -0.8779  1.5727
   55bbb     H7 1439   3.944   6.500   3.108  0.5047  2.3402 -1.5972
   55bbb     H8 1440   3.856   6.640   3.158 -1.5229 -1.3291 -1.3643
   55bbb     H9 1441   4.177   6.723   3.452 -0.6959  1.1516 -1.8271
   55bbb    H10 1442   4.314   6.716   3.337 -0.5343  3.0219  0.6354
   55bbb    H11 1443   4.214   6.472   3.502 -0.2780 -1.2179 -0.7817
   55bbb    H12 1444   4.364   6.571   3.507 -1.1386  0.5033  0.4225
   55bbb    H13 1445   4.290   6.372   3.296 -1.6435  2.1899 -1.4174
   55bbb    H25 1446   4.170   6.560   3.201  0.7795 -1.4077  2.4015
   56bbb     N1 1447   5.126   7.478   1.858 -0.1812  0.0798 -0.2049
   56bbb     C1 1448   5.158   7.530   1.997  0.3238 -0.1046 -0.0308
   56bbb     C2 1449   5.045   7.574   1.766  0.1564  0.4241  0.6601
   56bbb     C3 1450   5.038   7.591   2.081  0.0060 -0.3899 -0.5080
   56bbb     C4 1451   5.064   7.718   2.159  0.7311 -0.0811 -0.6693
   56bbb     C5 1452   5.118   7.712   1.737 -0.1464  0.3729 -0.2016
   56bbb     C6 1453   5.053   7.786   1.617 -0.6628  0.7041 -0.3911
   56bbb     C7 1454   5.060   7.344   1.873  0.5337  0.2377 -0.6189
   56bbb     C8 1455   5.141   7.226   1.925  0.7525 -0.2179  0.3588
   56bbb     N2 1456   5.092   7.105   1.871 -0.2327 -0.0243  0.3203
   56bbb     O1 1457   5.146   7.803   2.138  0.1152  0.3418  0.0929
   56bbb     O2 1458   5.086   7.758   1.504  0.0271 -0.0350  0.0192
   56bbb     H1 1459   5.213   7.454   2.052  0.4573  0.8517  1.2098
   56bbb     H2 1460   5.238   7.602   1.983 -1.3093  2.0807  1.1722
   56bbb     H3 1461   4.944   7.594   1.802 -0.4879  0.9461 -1.3094
   56bbb     H4 1462   5.017   7.511   1.680 -1.4517 -0.8728  2.0651
   56bbb     H5 1463   4.955   7.618   2.015 -0.2151  0.0665 -0.0495
   56bbb     H6 1464   5.002   7.511   2.148  1.1522 -0.9038 -0.4851
   56bbb     H7 1465   5.214   7.679   1.695  0.6916 -0.2679  2.0850
   56bbb     H8 1466   5.130   7.770   1.829 -2.9601  0.2829  0.3085
   56bbb     H9 1467   5.022   7.322   1.773  0.9487  2.4274 -1.3157
   56bbb    H10 1468   4.981   7.357   1.947 -0.0586  1.9943 -1.4949
   56bbb    H11 1469   5.145   7.227   2.034 -1.3645 -1.7736  0.5285
   56bbb    H12 1470   5.244   7.238   1.889  0.5721 -0.3689 -0.2194
   56bbb    H13 1471   4.997   7.096   1.839 -0.4704 -0.0607  1.0105
   56bbb    H25 1472   5.217   7.451   1.819  0.5405 -0.4689  1.7590
   57bbb     N1 1473   5.807   6.750   1.277  0.4630 -0.7146  0.7467
   57bbb     C1 1474   5.752   6.688   1.147  0.1743  0.3081 -0.5418
   57bbb     C2 1475   5.904   6.861   1.250  0.6887  0.4861  0.6901
   57bbb     C3 1476   5.660   6.777   1.065 -0.8770  0.2038 -0.3409
   57bbb     C4 1477   5.531   6.797   1.143 -0.3687 -0.3359 -0.2220
   57bbb     C5 1478   5.863   6.997   1.304 -0.2654  0.4631 -0.2931
   57bbb     C6 1479   5.841   7.003   1.449  0.1567 -0.7280 -0.0493
   57bbb     C7 1480   5.869   6.640   1.355  0.7097  0.6300  0.1050
   57bbb     C8 1481   5.766   6.541   1.424  0.3446 -0.6501 -0.4106
   57bbb     N2 1482   5.666   6.609   1.502  0.0966 -0.0925 -0.3169
   57bbb     O1 1483   5.528   6.820   1.263 -0.1649  0.7516 -0.3628
   57bbb     O2 1484   5.760   6.931   1.502 -0.0815 -0.4886  0.1704
   57bbb     H1 1485   5.832   6.645   1.087 -0.7169 -0.1772 -1.4077
   57bbb     H2 1486   5.700   6.598   1.179  1.4146  0.0150  0.7443
   57bbb     H3 1487   5.921   6.872   1.143 -0.1553 -0.2773  0.4666
   57bbb     H4 1488   5.998   6.833   1.298  1.0119  3.0538  1.6878
   57bbb     H5 1489   5.708   6.871   1.037 -0.2621  0.0802  0.2845
   57bbb     H6 1490   5.646   6.731   0.966  1.8760 -1.3761 -0.0860
   57bbb     H7 1491   5.763   7.015   1.263 -0.6262  0.3020  0.4828
   57bbb     H8 1492   5.933   7.075   1.272  0.3424  0.5356  1.1419
   57bbb     H9 1493   5.930   6.689   1.431 -1.3709 -0.1904  2.4711
   57bbb    H10 1494   5.933   6.583   1.288 -1.9037 -1.5258 -0.7623
   57bbb    H11 1495   5.836   6.477   1.479  3.3117  0.8087 -2.2249
   57bbb    H12 1496   5.709   6.475   1.358 -2.5553  0.7185  0.5815
   57bbb    H13 1497   5.694   6.659   1.585 -1.7912 -0.0230  0.3207
   57bbb    H25 1498   5.729   6.790   1.331 -0.5151 -2.0621  0.3820
   58bbb     N1 1499   7.768   6.743   2.792  0.3752 -0.4916  0.5452
   58bbb     C1 1500   7.760   6.770   2.642  0.4092 -0.7231 -0.3890
   58bbb     C2 1501   7.803   6.594   2.810  0.4273 -0.1292  0.3312
   58bbb     C3 1502   7.663   6.685   2.553 -0.3044 -0.6912 -0.5452
   58bbb     C4 1503   7.648   6.744   2.417 -0.0064  0.5983  0.0793
   58bbb     C5 1504   7.921   6.538   2.726 -0.0580  0.0160 -0.0724
   58bbb     C6 1505   7.953   6.397   2.764 -0.3119  0.0228 -0.0812
   58bbb     C7 1506   7.633   6.773   2.865  0.1118 -0.6603 -0.2942
   58bbb     C8 1507   7.643   6.780   3.023  0.5208  0.0512 -0.8601
   58bbb     N2 1508   7.569   6.676   3.086  0.1301 -0.1409  0.2027
   58bbb     O1 1509   7.719   6.710   2.318 -0.1392  0.3067 -0.2814
   58bbb     O2 1510   7.888   6.329   2.838  0.8942 -0.5709 -0.5124
   58bbb     H1 1511   7.726   6.873   2.649 -0.0060 -0.8406 -0.6164
   58bbb     H2 1512   7.861   6.781   2.602 -0.4627  1.9414 -2.1284
   58bbb     H3 1513   7.709   6.542   2.792  0.3586 -0.1633  0.7934
   58bbb     H4 1514   7.819   6.579   2.917 -0.0148  1.5787  0.6716
   58bbb     H5 1515   7.701   6.583   2.544 -0.7096 -0.8387 -0.6095
   58bbb     H6 1516   7.566   6.677   2.605 -0.3131  1.4396 -0.1530
   58bbb     H7 1517   8.001   6.609   2.751 -0.4698  0.2340  0.6706
   58bbb     H8 1518   7.903   6.548   2.618  0.3191  0.1117 -0.1270
   58bbb     H9 1519   7.555   6.701   2.838 -1.7252  0.5137  1.5344
   58bbb    H10 1520   7.596   6.871   2.832  0.2155  0.2860  2.1726
   58bbb    H11 1521   7.597   6.868   3.071 -0.1023 -0.3205 -0.7587
   58bbb    H12 1522   7.748   6.769   3.054 -0.3513 -0.1250  2.3777
   58bbb    H13 1523   7.602   6.581   3.070  2.3778  0.5691  0.4085
   58bbb    H25 1524   7.839   6.805   2.834 -0.9238 -2.0738  5.8452
   59bbb     N1 1525   7.629   6.076   3.741  0.3350 -0.5239  0.0388
   59bbb     C1 1526   7.626   6.221   3.788 -0.2035  0.0187  0.1712
   59bbb     C2 1527   7.771   6.035   3.731  0.1579  0.1288  0.5199
   59bbb     C3 1528   7.593   6.237   3.945  0.4462  0.2950  0.5977
   59bbb     C4 1529   7.572   6.385   3.992 -0.0090  0.1013  0.3336
   59bbb     C5 1530   7.794   5.888   3.692 -0.1511 -0.1635  0.7565
   59bbb     C6 1531   7.946   5.847   3.690  0.1623  0.1331  0.1392
   59bbb     C7 1532   7.558   6.069   3.606 -0.1528 -0.0318  0.7123
   59bbb     C8 1533   7.404   6.097   3.609 -0.2104 -0.0284 -0.0367
   59bbb     N2 1534   7.334   6.076   3.482 -0.0638 -0.3227  0.4004
   59bbb     O1 1535   7.676   6.434   4.031 -0.1164  0.0553 -1.1331
   59bbb     O2 1536   8.009   5.788   3.778  0.2967 -0.2211 -0.3603
   59bbb     H1 1537   7.719   6.271   3.762 -0.3680  0.9839  1.3465
   59bbb     H2 1538   7.548   6.270   3.729  0.2505 -1.0567 -1.3948
   59bbb     H3 1539   7.818   6.057   3.827  2.0042 -2.2591  0.2579
   59bbb     H4 1540   7.814   6.103   3.656  1.0801 -2.5669 -1.5751
   59bbb     H5 1541   7.505   6.176   3.969  0.0143  0.7403  0.1576
   59bbb     H6 1542   7.680   6.194   3.997 -0.3679  0.2116  1.9369
   59bbb     H7 1543   7.757   5.856   3.594 -0.8708  0.9344  0.6475
   59bbb     H8 1544   7.743   5.825   3.766  0.3307 -0.2621  1.0109
   59bbb     H9 1545   7.580   5.969   3.568  1.2391  0.4981  0.0629
   59bbb    H10 1546   7.618   6.135   3.543  0.1594 -0.8419  0.1273
   59bbb    H11 1547   7.402   6.201   3.646  2.9809 -0.0559  0.4865
   59bbb    H12 1548   7.355   6.035   3.685  1.5754  0.0825  1.2759
   59bbb    H13 1549   7.310   5.984   3.448  1.1073 -0.8233  0.8571
   59bbb    H25 1550   7.582   6.019   3.813  1.6473 -0.1485  1.2505
   60bbb     N1 1551   6.461   5.844   1.236 -0.1940  0.0423  0.1428
   60bbb     C1 1552   6.594   5.914   1.272  0.6824  0.5708 -0.3204
   60bbb     C2 1553   6.444   5.813   1.084 -0.0386 -0.2092  0.5208
   60bbb     C3 1554   6.708   5.805   1.278 -0.6260  0.3404  0.2363
   60bbb     C4 1555   6.845   5.872   1.316 -0.2774 -0.1617 -0.2934
   60bbb     C5 1556   6.310   5.737   1.035  0.4217 -0.1061 -0.3279
   60bbb     C6 1557   6.269   5.621   1.121  0.0564 -0.7384  1.2114
   60bbb     C7 1558   6.350   5.938   1.284  0.1744  0.0991  0.2322
   60bbb     C8 1559   6.300   5.903   1.426  0.0954 -0.2236  0.0299
   60bbb     N2 1560   6.401   5.934   1.533 -0.3945 -0.0338  0.0245
   60bbb     O1 1561   6.850   5.964   1.392  0.1258  0.1054  0.3983
   60bbb     O2 1562   6.335   5.587   1.218  0.0006  0.0301 -0.7357
   60bbb     H1 1563   6.623   5.977   1.188  2.3255 -1.1205 -1.0978
   60bbb     H2 1564   6.594   5.960   1.371  2.0888 -1.0633  0.4825
   60bbb     H3 1565   6.531   5.754   1.055  0.8846 -0.3831  3.3186
   60bbb     H4 1566   6.463   5.908   1.033 -0.4809 -1.0863 -1.3301
   60bbb     H5 1567   6.683   5.723   1.347 -1.7597  0.7078  0.2837
   60bbb     H6 1568   6.724   5.756   1.182  1.1282 -2.1114  1.6457
   60bbb     H7 1569   6.323   5.707   0.931  2.1128  0.2906 -0.2610
   60bbb     H8 1570   6.225   5.806   1.045 -0.2711 -1.0740  0.7845
   60bbb     H9 1571   6.260   5.922   1.224  0.0736 -1.0979  0.6809
   60bbb    H10 1572   6.383   6.042   1.289  0.7230 -0.0905  0.5330
   60bbb    H11 1573   6.273   5.797   1.427  1.1304 -0.4998  0.8258
   60bbb    H12 1574   6.219   5.969   1.459 -1.4730 -2.1729  0.2207
   60bbb    H13 1575   6.371   6.015   1.586  0.3179  1.2002 -1.3898
   60bbb    H25 1576   6.447   5.754   1.284 -0.4841 -0.3266 -0.6076
   61bbb     N1 1577   6.487   5.107   2.416  0.3303 -0.4653 -0.4416
   61bbb     C1 1578   6.361   5.105   2.502  0.2565  0.5889  1.6737
   61bbb     C2 1579   6.613   5.142   2.498  0.5752 -0.2323  0.3615
   61bbb     C3 1580   6.250   5.006   2.448  0.3955 -1.0810  0.3207
   61bbb     C4 1581   6.284   4.865   2.460 -0.7292  0.7210 -0.8067
   61bbb     C5 1582   6.651   5.036   2.606  0.9188 -0.8418  0.0723
   61bbb     C6 1583   6.581   5.063   2.737  0.0160  0.4767  0.2194
   61bbb     C7 1584   6.477   5.192   2.290 -1.2247  0.5946 -0.0075
   61bbb     C8 1585   6.410   5.328   2.305 -0.0558 -0.3919  0.5919
   61bbb     N2 1586   6.421   5.413   2.183  0.5398  0.3214 -0.1378
   61bbb     O1 1587   6.382   4.824   2.519 -0.3078  0.2703 -1.0152
   61bbb     O2 1588   6.570   5.172   2.787  0.0888  0.4071  0.6396
   61bbb     H1 1589   6.385   5.079   2.605 -1.1349 -1.3768  1.5455
   61bbb     H2 1590   6.317   5.205   2.507 -0.5765  0.1859  2.4434
   61bbb     H3 1591   6.611   5.240   2.545  1.3160 -0.4203  0.8082
   61bbb     H4 1592   6.700   5.154   2.434  1.3594  1.1223  1.6166
   61bbb     H5 1593   6.161   5.009   2.512 -1.1756 -2.1901 -1.7001
   61bbb     H6 1594   6.216   5.032   2.347  1.0642 -2.4192 -0.2678
   61bbb     H7 1595   6.759   5.051   2.621  1.1362 -0.3557 -1.7412
   61bbb     H8 1596   6.646   4.931   2.576 -1.9736 -0.7998  0.1703
   61bbb     H9 1597   6.433   5.123   2.217  1.0352 -1.0018  0.0148
   61bbb    H10 1598   6.580   5.211   2.258 -1.2152  0.5965  0.0242
   61bbb    H11 1599   6.455   5.380   2.390 -0.6606  2.7167 -0.8461
   61bbb    H12 1600   6.305   5.314   2.334 -0.2789 -3.7274 -1.3599
   61bbb    H13 1601   6.409   5.365   2.095 -2.3590  0.8381 -0.1217
   61bbb    H25 1602   6.503   5.012   2.381 -0.5027 -1.1824  1.0509
   62ccc     N1 1603   3.734   7.996   3.553  0.5013 -0.1154 -0.0088
   62ccc     H1 1604   3.725   8.078   3.612 -0.7687 -1.4711  1.7877
   62ccc     C1 1605   3.632   7.976   3.448 -0.7504 -0.7496 -0.0243
   62ccc     H2 1606   3.609   8.073   3.403 -0.0497 -0.1988  0.7712
   62ccc     C2 1607   3.500   7.912   3.500 -0.2391 -0.2896 -0.2530
   62ccc     H3 1608   3.679   7.926   3.362 -1.3919  0.5845 -1.1742
   62ccc     H4 1609   3.436   7.912   3.412 -1.1147  2.1244  0.2882
   62ccc     H5 1610   3.449   7.980   3.569  0.9065 -0.8501  1.2122
   62ccc     N2 1611   3.502   7.781   3.571  0.4425  0.2203  0.3271
   62ccc     C3 1612   3.566   7.683   3.473 -0.3743 -1.0111  0.1551
   62ccc     C4 1613   3.367   7.728   3.621 -0.1498  0.1504  0.5591
   62ccc     H6 1614   3.303   7.719   3.533  1.3515 -1.2177 -0.4383
   62ccc     C5 1615   3.291   7.802   3.736 -0.1297 -0.2215 -0.1101
   62ccc     H7 1616   3.379   7.626   3.659 -1.3269  0.3869  1.6410
   62ccc     H8 1617   3.299   7.911   3.732 -3.1114  0.1466  1.2534
   62ccc     H9 1618   3.331   7.761   3.829 -1.9251 -1.3677  0.2010
   62ccc     C6 1619   3.140   7.778   3.714  0.4056  0.2848 -0.3024
   62ccc     O1 1620   3.068   7.885   3.757 -0.1787  0.0263 -0.7528
   62ccc     O2 1621   3.087   7.681   3.675  0.1128 -0.0624 -0.1249
   62ccc    H10 1622   3.640   7.738   3.414  1.3813 -2.1201  1.2241
   62ccc    H11 1623   3.489   7.659   3.399 -0.4671 -0.1920 -0.0246
   62ccc     C7 1624   3.628   7.560   3.534  0.0809 -0.5452 -0.4718
   62ccc    H12 1625   3.545   7.489   3.548  1.3026 -1.9248  0.1066
   62ccc    H13 1626   3.676   7.590   3.627  0.7591 -1.2495 -0.5784
   62ccc     C8 1627   3.733   7.489   3.452 -0.9470 -0.5706 -0.4057
   62ccc     O3 1628   3.763   7.525   3.345 -0.5670 -0.2678  0.0449
   62ccc     O4 1629   3.799   7.395   3.516  0.2735  0.2034  0.0136
   62ccc    H14 1630   3.135   7.952   3.780  1.0054 -1.7631  1.4041
   62ccc    H15 1631   3.768   7.380   3.607  1.9459  1.7752  0.9238
   62ccc    H16 1632   3.568   7.786   3.650  1.5308  1.5133 -0.6240
   63ccc     N1 1633   4.710   8.148   3.632 -0.0472 -0.2875  0.2399
   63ccc     H1 1634   4.684   8.240   3.665  1.0003  0.7473 -1.6450
   63ccc     C1 1635   4.854   8.118   3.608 -0.6961 -0.2564  0.2777
   63ccc     H2 1636   4.860   8.042   3.530 -0.0828 -1.2673  1.2667
   63ccc     C2 1637   4.917   8.063   3.737 -0.1818  0.3358  0.0664
   63ccc     H3 1638   4.906   8.208   3.574  1.7006 -1.4852  0.4357
   63ccc     H4 1639   4.894   8.140   3.811 -0.2140 -0.1647  0.5890
   63ccc     H5 1640   5.026   8.055   3.733 -0.2725 -0.8907 -0.2838
   63ccc     N2 1641   4.864   7.927   3.789  0.7785  0.2381 -0.3648
   63ccc     C3 1642   4.948   7.883   3.910 -0.1845 -0.1159 -0.6252
   63ccc     C4 1643   4.873   7.825   3.667 -0.0951 -0.1491 -0.0951
   63ccc     H6 1644   4.806   7.856   3.587 -0.8286 -0.9100  0.2077
   63ccc     C5 1645   4.824   7.688   3.701  0.8627  0.0323 -0.1263
   63ccc     H7 1646   4.975   7.835   3.628 -0.1307  2.5173  0.2831
   63ccc     H8 1647   4.886   7.636   3.776  0.2808 -2.2174 -1.1397
   63ccc     H9 1648   4.833   7.626   3.611  0.8157 -1.3718  0.8132
   63ccc     C6 1649   4.671   7.684   3.741  0.2259  0.0598 -0.5106
   63ccc     O1 1650   4.626   7.560   3.763 -0.5415 -0.1187  0.2014
   63ccc     O2 1651   4.614   7.776   3.798  0.9051  0.2275  0.2616
   63ccc    H10 1652   5.048   7.926   3.906  0.3018 -0.8430  1.8358
   63ccc    H11 1653   4.964   7.775   3.900 -0.2229 -0.0464 -1.4564
   63ccc     C7 1654   4.880   7.919   4.044  0.6886  0.1228 -0.0665
   63ccc    H12 1655   4.779   7.878   4.059  0.6166  0.2450 -0.2198
   63ccc    H13 1656   4.868   8.027   4.060 -1.4845 -0.3684  2.5352
   63ccc     C8 1657   4.949   7.863   4.164  0.3224  0.7222  0.5179
   63ccc     O3 1658   5.044   7.785   4.166 -0.9665 -0.0603 -0.2811
   63ccc     O4 1659   4.878   7.883   4.276  0.3943 -0.4468 -0.8812
   63ccc    H14 1660   4.546   7.583   3.814  0.1162  0.6102  0.9334
   63ccc    H15 1661   4.902   7.821   4.347  1.2479 -0.3406 -1.0646
   63ccc    H16 1662   4.767   7.952   3.814  0.9396  0.3418  0.1754
   64ccc     N1 1663   4.226   7.838   5.524 -0.0493  0.2154 -0.3620
   64ccc     H1 1664   4.130   7.823   5.496 -0.1554  2.7052 -1.5395
   64ccc     C1 1665   4.277   7.788   5.651  0.1019 -0.3506 -0.0117
   64ccc     H2 1666   4.276   7.678   5.656 -2.5868 -0.3653  1.9922
   64ccc     C2 1667   4.194   7.855   5.767 -0.2013  0.5243 -1.0180
   64ccc     H3 1668   4.379   7.821   5.672 -0.6763  1.4820  1.1153
   64ccc     H4 1669   4.199   7.804   5.863 -0.4415  1.6324 -0.3907
   64ccc     H5 1670   4.091   7.832   5.740  0.1157 -4.5731  0.9656
   64ccc     N2 1671   4.222   8.009   5.788 -0.0288 -0.8438 -0.9892
   64ccc     C3 1672   4.352   8.031   5.861 -0.1635 -0.5123 -0.1015
   64ccc     C4 1673   4.107   8.066   5.877  0.4898 -0.3676  0.1998
   64ccc     H6 1674   4.014   8.012   5.857 -0.2991  0.8317  0.5191
   64ccc     C5 1675   4.072   8.220   5.861  0.1212 -0.1584  0.6085
   64ccc     H7 1676   4.146   8.042   5.976  2.1996 -1.8396 -0.7534
   64ccc     H8 1677   4.009   8.230   5.771  1.7615 -0.1223 -0.5821
   64ccc     H9 1678   4.155   8.288   5.838 -0.3537 -0.2973 -1.7881
   64ccc     C6 1679   3.982   8.270   5.974  0.0819 -0.0245 -0.0163
   64ccc     O1 1680   3.977   8.405   5.975 -0.4689 -0.1543  0.8859
   64ccc     O2 1681   3.919   8.193   6.040  0.2085  0.2376 -0.2349
   64ccc    H10 1682   4.386   7.930   5.888 -0.4267 -0.2010  1.5086
   64ccc    H11 1683   4.328   8.072   5.960 -0.0623 -0.4614 -0.0977
   64ccc     C7 1684   4.456   8.106   5.783 -0.1994 -0.2964  0.1006
   64ccc    H12 1685   4.410   8.194   5.738  2.0399  0.4304 -0.8766
   64ccc    H13 1686   4.492   8.043   5.701  0.6910  1.0945 -0.6101
   64ccc     C8 1687   4.579   8.147   5.864  0.1839 -0.5772 -0.1074
   64ccc     O3 1688   4.668   8.071   5.897 -0.0682 -0.0019  0.6560
   64ccc     O4 1689   4.546   8.244   5.947  0.0378 -0.9706  0.4489
   64ccc    H14 1690   3.919   8.423   6.051 -2.0107  1.0171 -0.4849
   64ccc    H15 1691   4.630   8.260   5.992  0.1458  0.5482 -0.2370
   64ccc    H16 1692   4.215   8.067   5.702 -3.9579  1.0936  0.3906
   65ccc     N1 1693   4.281   7.367   4.935 -0.0524 -0.0344 -0.9770
   65ccc     H1 1694   4.281   7.334   5.031 -1.7677  0.6081 -0.7276
   65ccc     C1 1695   4.335   7.272   4.835 -0.4134  0.0255  0.6339
   65ccc     H2 1696   4.353   7.325   4.741  1.2750 -0.2466  0.7684
   65ccc     C2 1697   4.250   7.144   4.811 -0.1245 -0.1573 -0.0066
   65ccc     H3 1698   4.437   7.243   4.864 -0.1488  0.9390  0.6553
   65ccc     H4 1699   4.248   7.098   4.910 -0.2124 -0.1569 -0.0085
   65ccc     H5 1700   4.300   7.081   4.738 -1.0432 -1.2971  0.3164
   65ccc     N2 1701   4.105   7.163   4.763  0.0361  0.0110 -0.1409
   65ccc     C3 1702   4.037   7.026   4.778  0.0569  0.4176  0.0375
   65ccc     C4 1703   4.099   7.216   4.621 -0.0188 -0.0793  0.0981
   65ccc     H6 1704   4.177   7.291   4.613  0.2940 -0.4637 -0.4624
   65ccc     C5 1705   3.965   7.269   4.577 -0.0558 -0.3406  0.6869
   65ccc     H7 1706   4.125   7.131   4.559 -1.1789 -0.7307  0.4711
   65ccc     H8 1707   3.964   7.375   4.604  0.5031 -0.1417 -0.0329
   65ccc     H9 1708   3.881   7.230   4.636 -0.6851  2.6124  1.8919
   65ccc     C6 1709   3.934   7.250   4.424  0.9191  0.0909 -0.4755
   65ccc     O1 1710   3.812   7.291   4.389 -0.2744  0.0127  0.3515
   65ccc     O2 1711   4.006   7.184   4.350  0.1158  0.4743  0.7352
   65ccc    H10 1712   4.080   6.956   4.706  2.1266  1.9040 -0.2849
   65ccc    H11 1713   3.934   7.047   4.747 -0.2620 -0.2118  0.6474
   65ccc     C7 1714   4.031   6.973   4.924 -0.1086  0.0795  0.2597
   65ccc    H12 1715   4.009   7.056   4.992 -2.1020  0.2639 -0.5386
   65ccc    H13 1716   4.130   6.945   4.961  0.6529  1.4448 -0.6557
   65ccc     C8 1717   3.921   6.864   4.941 -0.2731 -0.2234 -0.1529
   65ccc     O3 1718   3.841   6.824   4.858 -0.1959 -0.4457 -0.3770
   65ccc     O4 1719   3.921   6.815   5.067 -0.8338 -0.0560 -0.6448
   65ccc    H14 1720   3.814   7.250   4.300 -0.2691  1.3177 -0.2691
   65ccc    H15 1721   3.982   6.865   5.125 -0.7720  0.3244 -1.0340
   65ccc    H16 1722   4.057   7.239   4.813 -0.2753 -0.2214 -0.0848
   66ccc     N1 1723   6.740   6.324   4.593  0.0191 -0.6821 -0.3638
   66ccc     H1 1724   6.663   6.296   4.652 -1.2899  1.3457 -1.0231
   66ccc     C1 1725   6.860   6.240   4.571  0.5002  1.0041  0.4558
   66ccc     H2 1726   6.932   6.287   4.502 -1.7787  0.0996 -2.7893
   66ccc     C2 1727   6.818   6.106   4.500 -0.3953  0.0567  0.3197
   66ccc     H3 1728   6.905   6.212   4.667 -1.7252 -3.6300  0.4322
   66ccc     H4 1729   6.739   6.057   4.557  1.3109 -2.2969  0.8233
   66ccc     H5 1730   6.905   6.040   4.500 -0.5566 -0.1729  1.5834
   66ccc     N2 1731   6.778   6.123   4.354 -0.4414  0.0710 -0.1568
   66ccc     C3 1732   6.762   5.982   4.297  0.3725  0.2333 -0.5099
   66ccc     C4 1733   6.883   6.203   4.269  0.3982  0.5340  0.7764
   66ccc     H6 1734   6.850   6.220   4.166 -1.9035 -1.1144  1.1599
   66ccc     C5 1735   7.030   6.158   4.273  0.4373 -0.3337  0.0213
   66ccc     H7 1736   6.887   6.300   4.318  1.1349  0.5059  0.7876
   66ccc     H8 1737   7.038   6.062   4.221 -0.1284 -0.3391 -0.0582
   66ccc     H9 1738   7.064   6.143   4.376 -0.6038  2.1247  0.8018
   66ccc     C6 1739   7.126   6.243   4.200 -0.0625  0.2951 -0.4173
   66ccc     O1 1740   7.189   6.339   4.272 -0.6307  0.1713  0.3399
   66ccc     O2 1741   7.137   6.233   4.080 -0.4379 -0.5052  0.1204
   66ccc    H10 1742   6.852   5.926   4.321  0.9723  2.0600  1.8191
   66ccc    H11 1743   6.752   5.996   4.189 -0.1616  0.5883 -0.4226
   66ccc     C7 1744   6.631   5.903   4.337  0.4592 -0.0318  0.7316
   66ccc    H12 1745   6.539   5.943   4.291  0.1794 -2.1055 -0.6246
   66ccc    H13 1746   6.614   5.892   4.445  1.7780 -3.2499  0.7118
   66ccc     C8 1747   6.636   5.762   4.290 -0.1372 -0.2530 -0.0598
   66ccc     O3 1748   6.734   5.714   4.252 -0.8581 -0.0605 -0.1292
   66ccc     O4 1749   6.528   5.688   4.310  0.5192  0.1934  0.5946
   66ccc    H14 1750   7.185   6.311   4.365  3.4429  0.2592  0.7313
   66ccc    H15 1751   6.479   5.743   4.374 -0.3825 -0.5769  0.5911
   66ccc    H16 1752   6.687   6.172   4.349 -0.2520  0.3578 -1.0339
   67ccc     N1 1753   6.231   7.091   4.524 -0.1128 -0.5398 -0.9700
   67ccc     H1 1754   6.288   7.145   4.587  0.8292  0.4196 -2.5762
   67ccc     C1 1755   6.092   7.139   4.509  0.8970  0.3921  0.0117
   67ccc     H2 1756   6.093   7.248   4.493 -0.9325  0.2059 -1.7043
   67ccc     C2 1757   5.998   7.120   4.628  0.8113  0.2149 -0.2003
   67ccc     H3 1758   6.040   7.089   4.426 -2.5297  1.8312  1.1173
   67ccc     H4 1759   5.900   7.138   4.585 -0.2565 -1.1862  1.5113
   67ccc     H5 1760   6.018   7.194   4.706 -0.9942  0.5641 -0.0324
   67ccc     N2 1761   5.979   6.981   4.695 -0.5018  0.7625  0.8543
   67ccc     C3 1762   5.919   6.882   4.586  0.0377  0.5782  0.1413
   67ccc     C4 1763   5.889   6.990   4.821  0.4168 -0.3495  0.7479
   67ccc     H6 1764   5.804   7.049   4.786  0.9590 -0.4478 -0.8445
   67ccc     C5 1765   5.949   7.045   4.949  0.1626  0.1903 -0.2044
   67ccc     H7 1766   5.846   6.891   4.833  1.3417 -0.5251  3.0863
   67ccc     H8 1767   6.031   7.113   4.927  0.2406 -0.7026 -3.0939
   67ccc     H9 1768   5.996   6.957   4.996  2.4053  0.9865 -0.8354
   67ccc     C6 1769   5.859   7.117   5.047  0.4650 -0.0615 -0.4502
   67ccc     O1 1770   5.933   7.155   5.152  0.6584  0.1053 -0.1040
   67ccc     O2 1771   5.747   7.165   5.029 -0.3636  0.0692 -0.0625
   67ccc    H10 1772   5.972   6.894   4.491 -2.6536 -1.5339 -1.7779
   67ccc    H11 1773   5.819   6.919   4.561  0.1763  0.7587 -0.1596
   67ccc     C7 1774   5.908   6.734   4.622  0.0366  0.4737  0.1419
   67ccc    H12 1775   5.808   6.720   4.665 -0.3169  0.3380 -0.7154
   67ccc    H13 1776   5.982   6.700   4.696  0.8260  0.0398 -0.8272
   67ccc     C8 1777   5.913   6.645   4.498 -0.0197  0.0408 -0.1154
   67ccc     O3 1778   5.934   6.687   4.389  0.0051  0.2474 -0.2947
   67ccc     O4 1779   5.896   6.516   4.532 -0.2712  0.0956  0.4848
   67ccc    H14 1780   6.023   7.126   5.129  0.9912  1.1163 -0.1185
   67ccc    H15 1781   5.896   6.506   4.629 -1.3336 -1.9839  0.3197
   67ccc    H16 1782   6.069   6.944   4.728 -0.6550  1.0352  1.5860
   68ccc     N1 1783   6.846   7.365   3.388 -0.4844 -0.2622 -0.6215
   68ccc     H1 1784   6.885   7.424   3.462 -3.3008  0.8656  0.0795
   68ccc     C1 1785   6.922   7.336   3.268  0.1379 -0.3719  0.2168
   68ccc     H2 1786   6.859   7.278   3.199 -2.0406  1.6658  0.3869
   68ccc     C2 1787   7.054   7.271   3.305 -0.6131  0.1991 -0.3837
   68ccc     H3 1788   6.942   7.435   3.225  1.5598 -0.2619  1.0940
   68ccc     H4 1789   7.115   7.351   3.348  0.3372 -1.6596  1.9312
   68ccc     H5 1790   7.112   7.245   3.217  2.6572 -0.1616  1.6886
   68ccc     N2 1791   7.043   7.161   3.411  0.4657 -0.0529 -0.0927
   68ccc     C3 1792   7.178   7.133   3.472  0.5458 -0.1132 -0.4478
   68ccc     C4 1793   6.979   7.036   3.345 -0.2661 -1.0260 -0.2808
   68ccc     H6 1794   6.962   6.967   3.428  0.1037 -0.5352  0.2167
   68ccc     C5 1795   7.059   6.974   3.231  0.2003 -0.1442  0.4056
   68ccc     H7 1796   6.878   7.065   3.317 -0.3076  0.3752  1.1699
   68ccc     H8 1797   7.165   6.970   3.259  0.5983  4.1346  0.1656
   68ccc     H9 1798   7.052   7.039   3.144  2.8642 -0.4650 -0.1275
   68ccc     C6 1799   7.011   6.841   3.182 -0.4213  0.0379  0.0873
   68ccc     O1 1800   7.081   6.780   3.084 -0.2192 -0.2511 -0.0521
   68ccc     O2 1801   6.926   6.782   3.248 -0.6149  0.2224 -0.3557
   68ccc    H10 1802   7.247   7.142   3.388 -0.4591 -2.3525 -1.6045
   68ccc    H11 1803   7.173   7.030   3.509 -1.4154 -0.5679 -1.8297
   68ccc     C7 1804   7.226   7.233   3.583  0.9444  0.8071  0.4313
   68ccc    H12 1805   7.137   7.264   3.640  1.7502  0.1625  2.0698
   68ccc    H13 1806   7.246   7.330   3.535 -1.1499 -0.4904 -3.5315
   68ccc     C8 1807   7.331   7.189   3.680  0.0382  0.3523 -0.0316
   68ccc     O3 1808   7.395   7.087   3.675 -0.7194  0.7214  0.2356
   68ccc     O4 1809   7.334   7.254   3.794  0.2691  0.1826 -0.2729
   68ccc    H14 1810   7.127   6.848   3.031  0.6564 -1.2718 -0.6402
   68ccc    H15 1811   7.409   7.214   3.841 -1.5035 -2.0976  0.8320
   68ccc    H16 1812   6.981   7.186   3.490  1.6867  1.0274  0.5711
   69ccc     N1 1813   6.420   7.852   3.804  0.8041  0.2658 -0.2999
   69ccc     H1 1814   6.363   7.841   3.721  1.9977 -1.3288 -0.9520
   69ccc     C1 1815   6.389   7.965   3.893  0.2523  0.4769 -0.1140
   69ccc     H2 1816   6.280   7.980   3.903  0.2600 -0.1179  1.0201
   69ccc     C2 1817   6.451   8.098   3.848 -0.7651 -0.3133  0.5116
   69ccc     H3 1818   6.427   7.934   3.991  1.3594  1.1789 -0.3102
   69ccc     H4 1819   6.556   8.100   3.878 -0.4339 -0.3688 -0.6108
   69ccc     H5 1820   6.421   8.179   3.915  1.4449  1.2297 -0.2310
   69ccc     N2 1821   6.428   8.142   3.706 -0.0886 -0.4022  0.1459
   69ccc     C3 1822   6.508   8.268   3.680  0.2139 -0.0010 -0.1143
   69ccc     C4 1823   6.281   8.160   3.676 -0.5218  0.9543  0.1866
   69ccc     H6 1824   6.267   8.180   3.570  2.7072  0.7591 -0.3781
   69ccc     C5 1825   6.199   8.257   3.766  0.4251 -0.1868 -0.0524
   69ccc     H7 1826   6.231   8.064   3.686 -0.1659  0.4934 -2.0145
   69ccc     H8 1827   6.226   8.363   3.758 -0.8803  0.0625 -2.1522
   69ccc     H9 1828   6.211   8.242   3.874 -1.4491 -1.9825 -0.0462
   69ccc     C6 1829   6.047   8.252   3.738 -0.9219  0.4179  0.3838
   69ccc     O1 1830   5.968   8.350   3.782 -0.2810 -0.2181  0.3823
   69ccc     O2 1831   6.001   8.156   3.680  0.1221 -0.3888  0.2821
   69ccc    H10 1832   6.602   8.250   3.733 -0.2508 -0.1223  0.6882
   69ccc    H11 1833   6.448   8.344   3.730 -2.3505 -1.9607  0.0360
   69ccc     C7 1834   6.524   8.302   3.530 -0.2854 -0.6180 -0.2838
   69ccc    H12 1835   6.430   8.277   3.479  0.1977  0.6054 -1.8671
   69ccc    H13 1836   6.610   8.253   3.485  0.6096  2.0134 -1.6503
   69ccc     C8 1837   6.532   8.454   3.507 -0.5499 -0.0592  0.4007
   69ccc     O3 1838   6.532   8.531   3.597 -0.5803 -0.2444 -0.7159
   69ccc     O4 1839   6.468   8.489   3.395  0.1665 -0.1740  0.1424
   69ccc    H14 1840   6.031   8.404   3.834  1.6573 -1.1238 -0.8997
   69ccc    H15 1841   6.473   8.415   3.333  0.9707 -0.4169  0.4843
   69ccc    H16 1842   6.469   8.061   3.656 -1.8427 -1.6521  0.6371
   70ccc     N1 1843   3.328   6.031   5.867  0.1401 -0.0287 -0.3229
   70ccc     H1 1844   3.410   6.061   5.918 -0.2484  0.2688  0.1361
   70ccc     C1 1845   3.256   5.913   5.923 -0.2308 -0.1853 -0.4873
   70ccc     H2 1846   3.182   5.946   5.997  0.4682 -0.7470  0.4755
   70ccc     C2 1847   3.355   5.818   5.982  0.1238 -0.5145  0.2911
   70ccc     H3 1848   3.200   5.853   5.850  0.9140 -1.6441 -0.2014
   70ccc     H4 1849   3.311   5.776   6.072  0.1150 -0.1258  0.4677
   70ccc     H5 1850   3.452   5.862   6.002 -0.7924  0.4751  2.9348
   70ccc     N2 1851   3.392   5.705   5.886 -0.1635 -0.1744  0.0372
   70ccc     C3 1852   3.474   5.597   5.953 -0.4275  0.8796  0.0354
   70ccc     C4 1853   3.457   5.742   5.751  0.1789 -0.1379  0.0090
   70ccc     H6 1854   3.456   5.652   5.689 -1.1940 -2.1933  2.8099
   70ccc     C5 1855   3.599   5.804   5.758 -0.0259 -0.2405 -0.3882
   70ccc     H7 1856   3.394   5.818   5.703  0.4670 -1.1786 -2.1359
   70ccc     H8 1857   3.671   5.721   5.764 -1.1701 -1.1767  0.7124
   70ccc     H9 1858   3.613   5.868   5.845 -1.4828 -2.6088  1.7041
   70ccc     C6 1859   3.641   5.892   5.640  0.4239  0.6017 -0.0383
   70ccc     O1 1860   3.635   5.831   5.520  0.5287  0.1178 -0.5883
   70ccc     O2 1861   3.621   6.008   5.644 -0.9210 -0.2557  0.0908
   70ccc    H10 1862   3.575   5.635   5.968  0.5640 -1.6154  0.0986
   70ccc    H11 1863   3.471   5.515   5.882 -1.4467 -0.4441  1.5360
   70ccc     C7 1864   3.420   5.554   6.091  0.3051 -0.3989  0.7190
   70ccc    H12 1865   3.311   5.541   6.087 -0.0524  2.2494  0.0600
   70ccc    H13 1866   3.445   5.630   6.166 -2.3510  2.5556 -1.1355
   70ccc     C8 1867   3.479   5.416   6.140 -0.3388 -0.0712  1.1170
   70ccc     O3 1868   3.500   5.324   6.057  0.2039 -0.0452  0.2477
   70ccc     O4 1869   3.544   5.418   6.253  0.4670  0.0873  0.0643
   70ccc    H14 1870   3.651   5.908   5.463 -1.5220  1.3891  0.4440
   70ccc    H15 1871   3.504   5.495   6.297 -0.6943  0.9133 -2.2547
   70ccc    H16 1872   3.301   5.661   5.867 -0.5174  1.0423 -1.2638
   71ccc     N1 1873   3.043   6.508   5.193  0.0316  0.1759  0.2068
   71ccc     H1 1874   2.990   6.473   5.272  0.1294  0.4886  0.4116
   71ccc     C1 1875   2.972   6.571   5.083  0.4423 -0.5668 -0.3836
   71ccc     H2 1876   2.884   6.629   5.114  1.5215  0.7330  0.3584
   71ccc     C2 1877   2.928   6.470   4.972  0.3738  0.1248 -0.4861
   71ccc     H3 1878   3.045   6.637   5.035  0.1379 -0.2490 -0.4106
   71ccc     H4 1879   2.875   6.532   4.898  0.6610  0.9899  0.0141
   71ccc     H5 1880   2.853   6.401   5.011  2.0278 -3.1539 -2.7087
   71ccc     N2 1881   3.038   6.395   4.899 -0.6878 -0.2911  0.0777
   71ccc     C3 1882   3.156   6.483   4.840  0.5224 -0.0944 -0.9914
   71ccc     C4 1883   2.966   6.311   4.797 -0.0606 -0.2384  0.0696
   71ccc     H6 1884   2.916   6.378   4.728  0.6609 -0.4680 -0.7025
   71ccc     C5 1885   2.864   6.206   4.852 -1.1112 -0.7213  0.4286
   71ccc     H7 1886   3.035   6.248   4.740 -1.1054 -2.4115  1.0861
   71ccc     H8 1887   2.834   6.218   4.957  1.3572  1.5007  0.9737
   71ccc     H9 1888   2.921   6.113   4.848  2.5801  1.4067 -0.5260
   71ccc     C6 1889   2.752   6.197   4.750 -0.7357 -1.0218  0.3721
   71ccc     O1 1890   2.657   6.110   4.779  0.5130  0.7559 -0.2287
   71ccc     O2 1891   2.729   6.285   4.666  0.0308  0.1017  0.2680
   71ccc    H10 1892   3.224   6.419   4.784  0.9044 -0.6773  0.1252
   71ccc    H11 1893   3.207   6.542   4.916 -1.5639  0.3595  0.1516
   71ccc     C7 1894   3.108   6.590   4.741  0.4800  0.1983  0.4058
   71ccc    H12 1895   3.042   6.669   4.780  1.6327  1.9670 -1.0577
   71ccc    H13 1896   3.045   6.552   4.660 -0.8591 -0.6812  1.8004
   71ccc     C8 1897   3.227   6.669   4.692 -0.3317  0.9079  0.5456
   71ccc     O3 1898   3.341   6.623   4.699  0.4538  0.1216 -0.2697
   71ccc     O4 1899   3.199   6.788   4.633  0.0834  0.5798 -0.4627
   71ccc    H14 1900   2.696   6.061   4.853  1.7025  0.8701 -0.7650
   71ccc    H15 1901   3.104   6.801   4.649  0.2278 -0.7014  1.8833
   71ccc    H16 1902   3.086   6.336   4.969  1.3439  0.1871 -0.8433
   72ccc     N1 1903   3.819   6.770   4.378 -0.1403  0.1854  0.0916
   72ccc     H1 1904   3.813   6.685   4.323 -1.1775 -0.2678  0.8620
   72ccc     C1 1905   3.787   6.893   4.293 -0.0929  0.1132 -0.1364
   72ccc     H2 1906   3.834   6.978   4.344 -0.9399  1.6930 -1.8788
   72ccc     C2 1907   3.637   6.914   4.282  0.1277  0.3700  0.1469
   72ccc     H3 1908   3.831   6.875   4.193  3.6276 -2.0380  1.6592
   72ccc     H4 1909   3.605   6.837   4.211 -0.0423 -1.0639  1.7201
   72ccc     H5 1910   3.614   7.016   4.252  1.6516  1.1290  1.4389
   72ccc     N2 1911   3.557   6.880   4.409  0.0945 -0.1754  0.6580
   72ccc     C3 1912   3.407   6.874   4.383  0.3164  0.4242  0.4004
   72ccc     C4 1913   3.593   6.978   4.526  0.6007  0.2438  0.2265
   72ccc     H6 1914   3.701   6.991   4.534  0.4044  2.5425 -0.0394
   72ccc     C5 1915   3.534   6.932   4.659  0.4149  0.1158 -0.0830
   72ccc     H7 1916   3.549   7.074   4.496  2.3098  0.4447 -1.8151
   72ccc     H8 1917   3.558   6.825   4.670 -1.5907 -0.4568 -0.7855
   72ccc     H9 1918   3.425   6.942   4.667  0.5433  0.9854  0.7577
   72ccc     C6 1919   3.596   6.998   4.776  0.2361  0.7811  0.7207
   72ccc     O1 1920   3.542   6.960   4.896 -0.2407 -0.2699 -0.3006
   72ccc     O2 1921   3.686   7.082   4.774 -0.0253  0.7270  0.0364
   72ccc    H10 1922   3.350   6.843   4.470 -0.7537  1.1471 -0.0216
   72ccc    H11 1923   3.393   6.791   4.314 -0.0923 -1.1197  2.2848
   72ccc     C7 1924   3.348   7.006   4.321 -0.6504  0.7922  0.1018
   72ccc    H12 1925   3.392   7.018   4.221  0.8757 -1.3607  0.4421
   72ccc    H13 1926   3.359   7.095   4.384  0.1488 -0.6019  2.0225
   72ccc     C8 1927   3.201   6.988   4.297  0.0236 -0.2730 -0.1781
   72ccc     O3 1928   3.152   6.882   4.272 -0.6306  0.0252 -0.2118
   72ccc     O4 1929   3.124   7.097   4.306  0.3281  0.5376 -1.3848
   72ccc    H14 1930   3.579   7.028   4.954 -2.4251 -1.1260  2.3068
   72ccc    H15 1931   3.040   7.054   4.330  1.3858 -0.2452  1.2706
   72ccc    H16 1932   3.591   6.786   4.436  1.7297 -0.3478 -1.7087
   73ccc     N1 1933   4.228   6.215   4.759  0.2797 -0.1393 -0.5551
   73ccc     H1 1934   4.199   6.119   4.769 -0.4943 -0.1905 -2.7063
   73ccc     C1 1935   4.352   6.267   4.833  0.7696  0.0462 -0.0431
   73ccc     H2 1936   4.341   6.373   4.862  0.5880  0.3067 -1.0172
   73ccc     C2 1937   4.480   6.258   4.749 -0.6183  0.0828 -0.1391
   73ccc     H3 1938   4.366   6.202   4.920  0.5739 -3.0091 -2.1299
   73ccc     H4 1939   4.567   6.252   4.814 -0.4737  1.8627 -0.1089
   73ccc     H5 1940   4.495   6.351   4.694 -0.6756 -0.1750 -0.5981
   73ccc     N2 1941   4.490   6.149   4.638 -0.1171  0.6827 -0.5976
   73ccc     C3 1942   4.473   6.011   4.704  0.1213 -0.2094  0.4200
   73ccc     C4 1943   4.619   6.166   4.559 -0.4680  0.5577  0.7220
   73ccc     H6 1944   4.706   6.142   4.620  0.1366  0.9991  0.0625
   73ccc     C5 1945   4.634   6.305   4.490 -0.0930 -0.8791 -0.2551
   73ccc     H7 1946   4.623   6.085   4.486 -0.7191  0.6571  0.5975
   73ccc     H8 1947   4.647   6.376   4.572 -2.2733 -1.3308  0.5527
   73ccc     H9 1948   4.541   6.330   4.438  0.0318  1.1210  0.3966
   73ccc     C6 1949   4.742   6.329   4.394 -0.2051  0.2873  0.4214
   73ccc     O1 1950   4.775   6.456   4.371 -0.6647 -0.1357  0.6068
   73ccc     O2 1951   4.816   6.237   4.372  0.2298  0.0587 -0.1796
   73ccc    H10 1952   4.403   6.017   4.788  1.6870  2.8060  1.6689
   73ccc    H11 1953   4.571   5.996   4.750  0.6067 -0.3886 -0.6345
   73ccc     C7 1954   4.440   5.908   4.597 -0.0471 -0.0728 -0.3196
   73ccc    H12 1955   4.513   5.907   4.515  0.3426  2.5198 -0.0960
   73ccc    H13 1956   4.347   5.945   4.553  0.3755  1.2061 -0.1781
   73ccc     C8 1957   4.418   5.763   4.655  0.6501 -0.3979  0.4331
   73ccc     O3 1958   4.457   5.726   4.761 -0.6740  0.2079  0.1135
   73ccc     O4 1959   4.362   5.682   4.565  0.4760  0.2837 -0.3701
   73ccc    H14 1960   4.701   6.513   4.401 -1.5179 -0.0539 -1.4884
   73ccc    H15 1961   4.351   5.732   4.482 -1.2166  1.3243  0.4298
   73ccc    H16 1962   4.409   6.160   4.576 -0.2961 -0.4622 -0.5842
   74ccc     N1 1963   5.081   7.157   6.532 -0.4332 -0.1862  0.8266
   74ccc     H1 1964   5.006   7.224   6.519  0.2927  0.2045 -1.8837
   74ccc     C1 1965   5.071   7.050   6.629  0.0720 -0.1331  0.6584
   74ccc     H2 1966   5.037   6.957   6.582 -1.5791 -0.0532  1.6145
   74ccc     C2 1967   4.963   7.095   6.728  0.0685  0.3304  0.1455
   74ccc     H3 1968   5.161   7.030   6.688  0.9272 -1.1799 -0.9337
   74ccc     H4 1969   4.996   7.188   6.773  0.0851  0.3092  0.1758
   74ccc     H5 1970   4.960   7.013   6.800  0.6529 -0.8996 -1.1569
   74ccc     N2 1971   4.819   7.113   6.684  0.1140  0.6764  0.1791
   74ccc     C3 1972   4.718   7.154   6.789 -0.4771 -0.2926 -0.0136
   74ccc     C4 1973   4.775   6.981   6.615 -0.0323  0.7089  0.3201
   74ccc     H6 1974   4.840   6.971   6.528  0.8642  1.2843  0.8965
   74ccc     C5 1975   4.625   6.982   6.564 -0.0037 -0.6240 -0.0146
   74ccc     H7 1976   4.801   6.894   6.675 -2.8818  0.9421  2.0914
   74ccc     H8 1977   4.605   7.059   6.489  0.1410 -1.8070 -1.3208
   74ccc     H9 1978   4.563   6.999   6.653  1.2360  0.5058  0.6656
   74ccc     C6 1979   4.593   6.840   6.512  0.2114 -1.1960 -0.3840
   74ccc     O1 1980   4.604   6.745   6.606  0.4874  0.6397  0.3391
   74ccc     O2 1981   4.579   6.818   6.393  0.1370 -0.2508  0.3094
   74ccc    H10 1982   4.619   7.163   6.745 -0.6599 -0.3466  0.3776
   74ccc    H11 1983   4.740   7.256   6.820 -0.4769 -0.1264 -0.5569
   74ccc     C7 1984   4.706   7.071   6.919  0.1343  0.6055  0.5679
   74ccc    H12 1985   4.800   7.086   6.974  0.1661 -1.0014  0.9814
   74ccc    H13 1986   4.697   6.963   6.904  0.0312  0.5438  1.0758
   74ccc     C8 1987   4.591   7.105   7.003 -0.2107 -0.7053 -0.2969
   74ccc     O3 1988   4.500   7.180   6.967  0.2445  0.0337  0.6617
   74ccc     O4 1989   4.603   7.054   7.132 -0.4920 -0.1023  0.8564
   74ccc    H14 1990   4.594   6.665   6.553 -0.9719  2.1394 -1.7835
   74ccc    H15 1991   4.663   6.978   7.119  1.1674  1.2363  0.2242
   74ccc    H16 1992   4.809   7.182   6.608  0.3304 -0.7121 -1.1506
   75ccc     N1 1993   4.569   7.170   6.008  0.3146  0.4246 -0.0473
   75ccc     H1 1994   4.576   7.137   5.913  3.3717  0.7496 -0.0239
   75ccc     C1 1995   4.468   7.273   6.051  0.1168  0.3761  0.5103
   75ccc     H2 1996   4.507   7.308   6.147  3.7792  1.2203 -1.1091
   75ccc     C2 1997   4.315   7.225   6.062 -0.1816 -0.0857 -0.5703
   75ccc     H3 1998   4.480   7.351   5.975 -2.9575  0.5309  0.0630
   75ccc     H4 1999   4.282   7.188   5.966 -0.0738  0.5791 -0.8722
   75ccc     H5 2000   4.253   7.313   6.082  0.5787  0.6445 -1.3546
   75ccc     N2 2001   4.289   7.119   6.168 -0.0039 -0.0898  0.5453
   75ccc     C3 2002   4.328   7.157   6.306 -0.4603  0.6318 -0.1362
   75ccc     C4 2003   4.340   6.980   6.127  0.2272 -0.6751 -0.6944
   75ccc     H6 2004   4.323   6.981   6.020 -2.4544 -0.6107 -0.3227
   75ccc     C5 2005   4.280   6.856   6.189 -0.4957  0.2917  0.1640
   75ccc     H7 2006   4.447   6.973   6.151 -0.1587  0.7663  1.8201
   75ccc     H8 2007   4.175   6.838   6.163 -1.0340  0.9550  1.7546
   75ccc     H9 2008   4.274   6.857   6.298 -0.4197  0.6853  0.1665
   75ccc     C6 2009   4.366   6.732   6.160 -0.1826 -0.1477  0.1949
   75ccc     O1 2010   4.321   6.622   6.214  0.2117 -0.2606  0.0636
   75ccc     O2 2011   4.468   6.727   6.096 -0.0934 -0.9613 -0.4357
   75ccc    H10 2012   4.436   7.168   6.296 -0.7083  2.9504 -0.7674
   75ccc    H11 2013   4.313   7.076   6.377  1.7630  0.9235  0.7579
   75ccc     C7 2014   4.270   7.281   6.373  0.1951  0.0267 -0.0270
   75ccc    H12 2015   4.161   7.277   6.383  0.1049  1.7589 -0.0088
   75ccc    H13 2016   4.282   7.370   6.309 -0.6662 -1.7427 -2.8330
   75ccc     C8 2017   4.335   7.322   6.501  0.3094  0.7765 -0.1028
   75ccc     O3 2018   4.418   7.251   6.558 -0.2540  0.9449  0.7331
   75ccc     O4 2019   4.320   7.443   6.549 -0.4004 -0.3231 -0.2165
   75ccc    H14 2020   4.235   6.646   6.252  0.3278  0.1355  0.0785
   75ccc    H15 2021   4.346   7.421   6.640 -0.8709  0.5235  0.1350
   75ccc    H16 2022   4.187   7.111   6.165  0.1069 -2.2876  0.7164
   76ccc     N1 2023   5.323   7.745   5.247  0.1569  0.0373 -0.2778
   76ccc     H1 2024   5.254   7.774   5.180  0.4325 -1.0905 -1.0805
   76ccc     C1 2025   5.276   7.683   5.374 -0.8006  0.0562 -0.7526
   76ccc     H2 2026   5.328   7.587   5.382 -2.6805 -0.9883 -0.4020
   76ccc     C2 2027   5.124   7.657   5.375  0.1353  0.2164  0.1384
   76ccc     H3 2028   5.297   7.738   5.466 -2.2076  0.5179 -0.6832
   76ccc     H4 2029   5.076   7.753   5.356  2.1145  1.0958 -0.7797
   76ccc     H5 2030   5.084   7.628   5.472 -1.4909 -0.0226 -0.5827
   76ccc     N2 2031   5.050   7.563   5.277 -0.2803  0.3042  0.9827
   76ccc     C3 2032   4.911   7.624   5.260 -0.3150  0.3453  0.0029
   76ccc     C4 2033   5.042   7.410   5.323  0.2868  0.2666  0.5247
   76ccc     H6 2034   4.977   7.359   5.251  1.1342  0.7992 -0.6477
   76ccc     C5 2035   4.971   7.373   5.458 -0.1970  0.6952 -0.0984
   76ccc     H7 2036   5.142   7.371   5.309 -0.4941 -0.7851 -3.5297
   76ccc     H8 2037   4.864   7.397   5.450 -0.7108 -1.5569 -0.8091
   76ccc     H9 2038   5.015   7.428   5.543  0.2180 -0.5947  0.5490
   76ccc     C6 2039   4.990   7.219   5.488  0.4133  0.3112  0.0353
   76ccc     O1 2040   4.955   7.172   5.612 -0.6619  0.1511  0.0968
   76ccc     O2 2041   5.063   7.144   5.428  0.0625 -0.3289  0.4880
   76ccc    H10 2042   4.920   7.732   5.244 -1.6180  0.3009 -1.2573
   76ccc    H11 2043   4.845   7.613   5.346 -2.4080 -0.5602 -1.6276
   76ccc     C7 2044   4.828   7.564   5.138 -0.9391  0.5947 -0.4537
   76ccc    H12 2045   4.830   7.454   5.138  1.2648  0.5767  0.1906
   76ccc    H13 2046   4.867   7.593   5.040 -3.2934 -0.5907 -1.8275
   76ccc     C8 2047   4.688   7.625   5.147  0.7532 -0.4939 -0.0674
   76ccc     O3 2048   4.650   7.700   5.240 -0.1963  0.0158  0.2733
   76ccc     O4 2049   4.589   7.547   5.092 -0.4091 -0.4499  0.3026
   76ccc    H14 2050   4.885   7.237   5.629  0.4404  1.1286  1.0628
   76ccc    H15 2051   4.629   7.488   5.025 -0.3066  1.8548 -1.7926
   76ccc    H16 2052   5.094   7.562   5.184 -1.5951  1.2500  0.3314
   77ccc     N1 2053   5.908   7.370   5.409  0.3236 -0.1616  0.4853
   77ccc     H1 2054   6.003   7.402   5.392  0.0540  1.0659  1.1275
   77ccc     C1 2055   5.880   7.250   5.495 -0.6651 -0.0407  0.1683
   77ccc     H2 2056   5.794   7.195   5.454 -2.0524  1.6849  0.6488
   77ccc     C2 2057   5.855   7.294   5.642  0.6815  0.0543 -0.1331
   77ccc     H3 2058   5.974   7.194   5.486 -0.6261  0.0175  0.2153
   77ccc     H4 2059   5.947   7.349   5.660  1.3992 -0.9037 -0.7306
   77ccc     H5 2060   5.845   7.218   5.719  1.1969 -0.1671 -0.2798
   77ccc     N2 2061   5.740   7.398   5.662 -0.7105  0.3520 -0.4105
   77ccc     C3 2062   5.730   7.463   5.805 -0.4531 -0.1896  0.2219
   77ccc     C4 2063   5.609   7.324   5.626 -0.6527  0.3902  0.6400
   77ccc     H6 2064   5.617   7.277   5.528 -0.3297  0.1624  0.7741
   77ccc     C5 2065   5.488   7.421   5.619  0.7502  0.8952  0.3035
   77ccc     H7 2066   5.595   7.240   5.694 -0.2021 -0.8312 -0.7208
   77ccc     H8 2067   5.492   7.478   5.525  1.4292  1.1219  0.4594
   77ccc     H9 2068   5.490   7.488   5.707  1.8420 -1.5386  2.2506
   77ccc     C6 2069   5.357   7.351   5.629 -0.5821 -0.9052 -0.1277
   77ccc     O1 2070   5.320   7.329   5.757  0.1178 -0.4496 -0.6087
   77ccc     O2 2071   5.307   7.282   5.547 -0.5013  0.2632  0.0114
   77ccc    H10 2072   5.637   7.520   5.815 -1.3231 -1.8652  2.8920
   77ccc    H11 2073   5.809   7.536   5.823 -0.1874 -0.6755  1.1018
   77ccc     C7 2074   5.717   7.357   5.920  0.0040  0.5428  0.3611
   77ccc    H12 2075   5.656   7.271   5.888 -1.0942 -0.4176  4.4080
   77ccc    H13 2076   5.653   7.389   6.003 -1.0949 -1.2309  0.2476
   77ccc     C8 2077   5.848   7.295   5.973 -0.8843 -0.1617 -0.4200
   77ccc     O3 2078   5.950   7.273   5.908  0.5498 -0.0081  0.3037
   77ccc     O4 2079   5.833   7.216   6.081 -0.2466  0.5405  0.2142
   77ccc    H14 2080   5.351   7.402   5.813  1.0396  0.3053 -2.0315
   77ccc    H15 2081   5.746   7.233   6.121 -0.1824  0.9295  0.1900
   77ccc    H16 2082   5.757   7.473   5.593  0.3091  0.1478 -0.4002
   78ccc     N1 2083   5.796   4.389   5.754 -0.0470  0.5938 -0.1116
   78ccc     H1 2084   5.729   4.359   5.823  1.7072  2.4102  2.5705
   78ccc     C1 2085   5.758   4.457   5.635  0.3279 -0.0494  0.8070
   78ccc     H2 2086   5.672   4.516   5.669  1.1237  1.7326 -0.0798
   78ccc     C2 2087   5.732   4.368   5.502 -0.1668 -0.0941  0.2590
   78ccc     H3 2088   5.828   4.538   5.609  2.4149 -1.7884  0.8230
   78ccc     H4 2089   5.700   4.443   5.429 -3.0101 -0.8502  0.6096
   78ccc     H5 2090   5.645   4.305   5.521  0.6198 -1.4265 -0.3974
   78ccc     N2 2091   5.854   4.292   5.432  0.4449  0.0987  0.0465
   78ccc     C3 2092   5.889   4.171   5.512  0.4221  0.1192 -0.2749
   78ccc     C4 2093   5.985   4.377   5.418  0.5096 -0.5956  0.5403
   78ccc     H6 2094   6.026   4.397   5.518  1.0838  1.2824 -0.0315
   78ccc     C5 2095   5.966   4.518   5.344 -0.0942  0.4379  0.1877
   78ccc     H7 2096   6.065   4.326   5.365  1.3564 -0.8325  1.9762
   78ccc     H8 2097   5.870   4.563   5.371 -0.0024  0.3881  0.5905
   78ccc     H9 2098   5.961   4.491   5.237 -1.3580 -0.7425  0.5076
   78ccc     C6 2099   6.074   4.622   5.364  0.4039  0.6778  0.0299
   78ccc     O1 2100   6.152   4.635   5.257  0.5915  0.4070 -0.1348
   78ccc     O2 2101   6.072   4.700   5.454 -0.5845  0.1979 -0.7241
   78ccc    H10 2102   5.914   4.208   5.611 -3.0471 -0.0158  0.7811
   78ccc    H11 2103   5.984   4.135   5.471  0.6771  1.1701 -0.6487
   78ccc     C7 2104   5.776   4.064   5.531  0.1297  0.3681 -0.6773
   78ccc    H12 2105   5.774   4.012   5.434  1.1608  0.0535 -0.5345
   78ccc    H13 2106   5.676   4.102   5.555 -0.9284 -2.5747  0.1215
   78ccc     C8 2107   5.816   3.965   5.638  0.7116  0.4925 -0.8379
   78ccc     O3 2108   5.865   4.002   5.745  0.0377 -0.2451  0.7527
   78ccc     O4 2109   5.843   3.840   5.596 -0.1404 -0.2205  0.7068
   78ccc    H14 2110   6.130   4.556   5.206  0.9464  0.4925 -0.4195
   78ccc    H15 2111   5.901   3.809   5.667  0.4336 -0.1514  0.2694
   78ccc    H16 2112   5.822   4.265   5.338 -0.4262  3.7851 -0.8574
   79ccc     N1 2113   6.337   3.806   5.785  0.2459  0.3263  0.6788
   79ccc     H1 2114   6.425   3.831   5.829  1.1887 -2.2086  0.4572
   79ccc     C1 2115   6.275   3.670   5.815  0.6134 -0.3178  0.2564
   79ccc     H2 2116   6.317   3.636   5.910  0.7786 -1.8196 -0.3305
   79ccc     C2 2117   6.317   3.552   5.723  0.6457 -0.4940  0.2385
   79ccc     H3 2118   6.170   3.681   5.843  0.8312  4.2622 -0.0193
   79ccc     H4 2119   6.273   3.458   5.756  0.6759 -1.0238 -1.1560
   79ccc     H5 2120   6.426   3.551   5.725  0.6533  0.1839  2.3123
   79ccc     N2 2121   6.266   3.557   5.578  0.5452  0.3909 -0.0536
   79ccc     C3 2122   6.332   3.444   5.502 -0.2272 -0.5973  0.2849
   79ccc     C4 2123   6.294   3.692   5.515 -0.5184 -0.0780  0.0684
   79ccc     H6 2124   6.245   3.768   5.577 -1.9670 -2.4010  1.9435
   79ccc     C5 2125   6.232   3.719   5.378  0.0996  0.4054  0.2279
   79ccc     H7 2126   6.399   3.719   5.525 -1.3680  3.9881 -0.0472
   79ccc     H8 2127   6.148   3.656   5.347  0.7823 -1.9830  2.7923
   79ccc     H9 2128   6.308   3.687   5.306  0.8851 -0.0757  1.2380
   79ccc     C6 2129   6.208   3.866   5.352  0.5192  0.0986  0.3367
   79ccc     O1 2130   6.108   3.889   5.268 -0.2903 -0.8904 -1.2995
   79ccc     O2 2131   6.243   3.949   5.434 -0.5274  0.0168 -0.6614
   79ccc    H10 2132   6.434   3.419   5.534  0.2649 -0.0136 -0.7796
   79ccc    H11 2133   6.351   3.488   5.405  2.0161  0.0277  0.9321
   79ccc     C7 2134   6.246   3.312   5.487  0.4525  0.2538 -0.4360
   79ccc    H12 2135   6.152   3.335   5.435  1.9281  1.0126 -2.9646
   79ccc    H13 2136   6.221   3.273   5.586  1.6823  2.3484  0.7651
   79ccc     C8 2137   6.310   3.208   5.408  0.2183 -0.0199  0.0106
   79ccc     O3 2138   6.420   3.222   5.355  0.4284 -0.9274  0.9438
   79ccc     O4 2139   6.234   3.098   5.390  0.4145 -0.1046 -0.2202
   79ccc    H14 2140   6.070   3.806   5.234  0.2585 -0.7412 -2.3181
   79ccc    H15 2141   6.157   3.124   5.443  1.3178  1.2724  0.4835
   79ccc    H16 2142   6.164   3.541   5.584  0.8512 -1.2168  4.5291
   80ccc     N1 2143   6.894   5.593   6.422  0.3682  0.3584 -0.4694
   80ccc     H1 2144   6.945   5.517   6.465  0.2755  0.1863 -0.6612
   80ccc     C1 2145   6.823   5.690   6.500  0.3777  0.0456  0.7640
   80ccc     H2 2146   6.752   5.745   6.436 -0.5617 -1.4119  0.5012
   80ccc     C2 2147   6.917   5.797   6.559  0.6034 -0.2641 -0.4197
   80ccc     H3 2148   6.766   5.640   6.579  0.1851 -0.7735  0.1198
   80ccc     H4 2149   6.970   5.744   6.639 -0.0924  0.7567  0.7515
   80ccc     H5 2150   6.865   5.884   6.598  0.8678 -1.0885  1.9220
   80ccc     N2 2151   7.020   5.856   6.457 -0.5750  0.0029 -0.2586
   80ccc     C3 2152   7.119   5.958   6.523  0.5355  0.3201  0.1219
   80ccc     C4 2153   6.954   5.925   6.334 -0.7602 -0.7590  0.3460
   80ccc     H6 2154   6.861   5.869   6.322 -0.4065 -1.6005  1.3516
   80ccc     C5 2155   7.036   5.919   6.205 -0.2706 -0.0998  0.0306
   80ccc     H7 2156   6.942   6.031   6.354 -0.5687 -0.6386 -0.1869
   80ccc     H8 2157   7.059   5.814   6.185 -1.4384 -0.4442  0.4324
   80ccc     H9 2158   7.135   5.965   6.213 -1.0382  1.4746  1.0449
   80ccc     C6 2159   6.957   5.968   6.085  0.5667 -0.0210  0.2424
   80ccc     O1 2160   7.035   6.002   5.985 -0.3047 -0.1056 -0.4351
   80ccc     O2 2161   6.841   5.943   6.067 -0.8161  0.5373 -1.1221
   80ccc    H10 2162   7.052   6.040   6.547 -3.3131 -2.2194 -1.0280
   80ccc    H11 2163   7.187   5.998   6.447 -0.9026  1.2335 -0.7193
   80ccc     C7 2164   7.202   5.907   6.643  0.3570 -0.0867 -0.1267
   80ccc    H12 2165   7.257   5.815   6.621  2.0143  0.5030  1.2825
   80ccc    H13 2166   7.127   5.903   6.724 -0.3050 -3.1494 -0.7893
   80ccc     C8 2167   7.305   6.015   6.677 -0.5849 -0.0503  0.1797
   80ccc     O3 2168   7.317   6.124   6.627  0.5736  0.0908  0.2677
   80ccc     O4 2169   7.357   5.992   6.796 -0.3734 -0.0309 -0.1308
   80ccc    H14 2170   6.969   6.025   5.917 -0.0027  2.8742  0.1785
   80ccc    H15 2171   7.340   5.901   6.826  0.2959  1.1474  4.6149
   80ccc    H16 2172   7.080   5.777   6.427  1.1484 -0.1929  3.1942
   81ccc     N1 2173   6.900   4.929   6.207  0.2643 -0.0431  0.0223
   81ccc     H1 2174   6.954   4.972   6.280  0.9869  0.4934 -0.8033
   81ccc     C1 2175   6.762   4.870   6.229 -0.6278 -0.3400  0.2139
   81ccc     H2 2176   6.731   4.902   6.330  1.3937  1.9310  0.2054
   81ccc     C2 2177   6.752   4.715   6.213 -0.1646 -0.3143  0.3051
   81ccc     H3 2178   6.687   4.913   6.161 -1.6875  0.5234  1.8365
   81ccc     H4 2179   6.820   4.693   6.130 -0.1440  4.0200 -1.0837
   81ccc     H5 2180   6.653   4.678   6.186  0.0454 -0.9908  0.4453
   81ccc     N2 2181   6.791   4.628   6.334  0.2566 -0.4138  0.1675
   81ccc     C3 2182   6.947   4.633   6.343  0.2766 -0.5866  0.5465
   81ccc     C4 2183   6.736   4.483   6.303 -0.7958  0.0272 -0.0993
   81ccc     H6 2184   6.752   4.455   6.199 -0.0365  1.8872 -0.5229
   81ccc     C5 2185   6.592   4.442   6.355 -1.0740 -1.1866  0.4996
   81ccc     H7 2186   6.796   4.410   6.358 -0.6468  1.7992  2.2645
   81ccc     H8 2187   6.522   4.497   6.292 -0.8139 -2.3765 -0.8754
   81ccc     H9 2188   6.579   4.446   6.464  1.5295  0.1187  0.8507
   81ccc     C6 2189   6.575   4.301   6.313 -0.1372 -0.5164  0.3112
   81ccc     O1 2190   6.629   4.219   6.391 -0.1566  0.1280 -0.8908
   81ccc     O2 2191   6.478   4.272   6.248 -0.0335  0.1486 -0.1855
   81ccc    H10 2192   6.969   4.740   6.332  0.2889 -0.6622 -0.1992
   81ccc    H11 2193   6.988   4.573   6.263 -5.2237 -2.3246 -1.4651
   81ccc     C7 2194   7.004   4.593   6.475  0.5420 -0.4224  0.1877
   81ccc    H12 2195   7.108   4.573   6.446  0.4459 -1.9455  0.7635
   81ccc    H13 2196   6.958   4.501   6.515 -1.4316 -0.0255 -1.0216
   81ccc     C8 2197   6.997   4.692   6.595 -0.2405 -0.0318 -0.0256
   81ccc     O3 2198   6.924   4.791   6.585 -0.2106  0.1154  0.2253
   81ccc     O4 2199   7.083   4.679   6.694  0.9393 -0.3319  0.2066
   81ccc    H14 2200   6.593   4.132   6.368  3.0346 -1.6180  0.0820
   81ccc    H15 2201   7.141   4.608   6.663  0.9178  0.0206 -0.6920
   81ccc    H16 2202   6.762   4.673   6.422  2.2232  2.2999 -0.4420
   82ccc     N1 2203   8.232   4.254   5.129  0.3715 -0.0275  0.5911
   82ccc     H1 2204   8.258   4.334   5.185  1.3110  1.1410 -1.4188
   82ccc     C1 2205   8.308   4.132   5.160  0.0398  0.1935 -0.0717
   82ccc     H2 2206   8.235   4.062   5.205 -2.2537  2.3916 -0.1600
   82ccc     C2 2207   8.413   4.148   5.275 -0.7004  0.6770  0.5680
   82ccc     H3 2208   8.356   4.085   5.073 -1.0884 -0.9751 -0.1068
   82ccc     H4 2209   8.391   4.074   5.352 -1.0041  1.0953  0.8850
   82ccc     H5 2210   8.406   4.240   5.333  0.3845  2.0703 -1.3924
   82ccc     N2 2211   8.556   4.120   5.236  0.1607 -0.0707  0.9192
   82ccc     C3 2212   8.640   4.095   5.361 -0.7301 -0.2837 -0.7329
   82ccc     C4 2213   8.618   4.233   5.155  0.0993 -0.2529  0.6373
   82ccc     H6 2214   8.544   4.277   5.087  0.2892 -0.7174  0.1177
   82ccc     C5 2215   8.743   4.183   5.078 -0.6720 -0.7958  0.5646
   82ccc     H7 2216   8.645   4.309   5.228 -0.7235 -0.6816  1.4121
   82ccc     H8 2217   8.713   4.124   4.990  0.4688  1.1879 -1.2440
   82ccc     H9 2218   8.815   4.127   5.138 -1.5157 -2.6665 -0.0941
   82ccc     C6 2219   8.817   4.308   5.021  0.1139  0.0374  0.2343
   82ccc     O1 2220   8.941   4.286   4.982 -0.0671 -0.2489 -0.3583
   82ccc     O2 2221   8.785   4.424   5.047 -0.2413 -0.0927  0.2349
   82ccc    H10 2222   8.608   4.159   5.443 -0.4994 -0.4420 -0.5159
   82ccc    H11 2223   8.743   4.114   5.332 -0.3895 -0.8422  0.0764
   82ccc     C7 2224   8.640   3.952   5.415 -0.0965  0.6209 -0.4375
   82ccc    H12 2225   8.685   3.875   5.350  0.0359 -0.5970  1.0484
   82ccc    H13 2226   8.540   3.917   5.440  0.1264  1.7492  2.3517
   82ccc     C8 2227   8.715   3.937   5.547 -0.3467 -0.0857 -0.3669
   82ccc     O3 2228   8.721   4.018   5.637  0.1313 -0.7116  0.7293
   82ccc     O4 2229   8.791   3.826   5.557 -0.2323 -0.4869  1.0807
   82ccc    H14 2230   8.988   4.370   4.993 -2.5852  1.1191  0.9947
   82ccc    H15 2231   8.823   3.828   5.649  0.2683  2.2176  0.9272
   82ccc    H16 2232   8.557   4.036   5.176 -2.8582 -0.9371  1.9186
   83ccc     N1 2233   7.832   4.025   5.127  0.4798 -0.1534 -0.1877
   83ccc     H1 2234   7.759   4.018   5.058  0.3641 -0.4792 -0.0356
   83ccc     C1 2235   7.912   3.904   5.148 -0.0810  0.1937  0.1304
   83ccc     H2 2236   8.020   3.923   5.152 -0.5563  3.5478  0.6520
   83ccc     C2 2237   7.877   3.807   5.033 -0.0269 -0.0547 -0.6950
   83ccc     H3 2238   7.887   3.854   5.242  1.5959 -2.9792 -0.9908
   83ccc     H4 2239   7.772   3.778   5.039  0.4275 -2.0174 -1.5694
   83ccc     H5 2240   7.943   3.720   5.037 -0.3569 -0.2599  0.4187
   83ccc     N2 2241   7.886   3.857   4.890 -0.3472 -0.2006  0.0021
   83ccc     C3 2242   7.839   3.745   4.803 -0.0374 -0.1820 -0.0941
   83ccc     C4 2243   8.021   3.900   4.842 -0.1185 -0.9075  0.4834
   83ccc     H6 2244   8.073   3.930   4.933  3.2979 -2.2339 -0.8481
   83ccc     C5 2245   8.030   4.007   4.730 -0.0561 -0.5808 -0.2034
   83ccc     H7 2246   8.067   3.814   4.792  0.4962 -0.8575  0.9449
   83ccc     H8 2247   7.978   4.103   4.744  1.4639  0.4293 -1.1802
   83ccc     H9 2248   7.997   3.958   4.638  1.4364 -2.7303  0.3196
   83ccc     C6 2249   8.180   4.042   4.706  0.3798 -0.9525 -0.6533
   83ccc     O1 2250   8.202   4.110   4.595  0.6974 -0.0799  0.3991
   83ccc     O2 2251   8.267   4.009   4.785 -0.5304  0.0609  0.0459
   83ccc    H10 2252   7.864   3.643   4.833  0.3830 -0.0595 -0.0182
   83ccc    H11 2253   7.886   3.766   4.707  0.9097  1.2561  0.6633
   83ccc     C7 2254   7.688   3.752   4.781 -0.0670  0.7584  1.0397
   83ccc    H12 2255   7.663   3.854   4.749 -1.2410  0.5362  1.2297
   83ccc    H13 2256   7.633   3.732   4.874  0.4029 -2.8548  0.6956
   83ccc     C8 2257   7.642   3.654   4.672  0.1367 -0.2755  0.4207
   83ccc     O3 2258   7.714   3.620   4.582 -0.3430 -0.2404  0.2563
   83ccc     O4 2259   7.525   3.585   4.684  0.2511  0.2488 -0.0097
   83ccc    H14 2260   8.118   4.117   4.545  1.8747  0.4355 -1.6450
   83ccc    H15 2261   7.463   3.644   4.731  0.8804 -0.6178  2.0203
   83ccc    H16 2262   7.820   3.936   4.887  0.2308  0.3166  0.5664
   84ccc     N1 2263   6.773   4.501   3.893 -0.2297 -0.6630 -0.6876
   84ccc     H1 2264   6.747   4.599   3.900 -0.8977 -0.8578 -0.2842
   84ccc     C1 2265   6.662   4.415   3.920 -0.0656 -0.1770 -0.3347
   84ccc     H2 2266   6.700   4.314   3.942  2.0645  0.6925  0.1378
   84ccc     C2 2267   6.577   4.408   3.791  0.1187  0.3525  0.5132
   84ccc     H3 2268   6.606   4.467   3.999  2.2348  3.5483 -0.9203
   84ccc     H4 2269   6.517   4.499   3.792 -0.9684 -0.2804  3.2479
   84ccc     H5 2270   6.501   4.329   3.793 -1.0022  1.3673 -0.3379
   84ccc     N2 2271   6.653   4.406   3.656  0.3432 -0.1734 -0.2105
   84ccc     C3 2272   6.557   4.453   3.547 -1.0264  0.6300  0.3175
   84ccc     C4 2273   6.702   4.262   3.634 -0.3810  0.1170  0.1806
   84ccc     H6 2274   6.760   4.243   3.724 -0.9145  0.7602  0.6654
   84ccc     C5 2275   6.796   4.244   3.521  0.5792 -0.0705  0.5036
   84ccc     H7 2276   6.614   4.197   3.638 -1.4340  1.5408  0.8404
   84ccc     H8 2277   6.875   4.320   3.530 -0.2136  0.9558 -0.7785
   84ccc     H9 2278   6.737   4.250   3.429 -0.7590 -1.1153  1.2533
   84ccc     C6 2279   6.868   4.110   3.524  0.3147  0.2356  0.3078
   84ccc     O1 2280   6.958   4.094   3.425  0.3425 -0.4356  0.2038
   84ccc     O2 2281   6.842   4.018   3.599  0.1983 -0.6133 -0.1458
   84ccc    H10 2282   6.483   4.376   3.526 -0.4571 -0.2550  1.4534
   84ccc    H11 2283   6.613   4.456   3.454 -0.5137  0.7034  0.6212
   84ccc     C7 2284   6.482   4.588   3.560  0.3747  0.0460  0.0127
   84ccc    H12 2285   6.559   4.662   3.586  0.6912 -0.2778  0.0070
   84ccc    H13 2286   6.410   4.578   3.643  1.3257 -0.6469  0.7843
   84ccc     C8 2287   6.410   4.630   3.433 -0.0542 -0.3222 -0.2312
   84ccc     O3 2288   6.393   4.547   3.344  0.2082  0.7571  0.6065
   84ccc     O4 2289   6.395   4.764   3.413  0.3002 -0.3490  0.0010
   84ccc    H14 2290   6.962   4.182   3.384 -0.7922 -0.6732 -0.4633
   84ccc    H15 2291   6.419   4.804   3.499 -1.5054  2.1463 -0.5627
   84ccc    H16 2292   6.733   4.470   3.664  2.3867 -2.5909  0.1775
   85ccc     N1 2293   7.547   4.907   3.862 -0.1248 -0.1220 -0.7851
   85ccc     H1 2294   7.611   4.849   3.916  0.0212  1.5135  0.9028
   85ccc     C1 2295   7.600   5.022   3.782 -0.3940  0.0024 -0.3593
   85ccc     H2 2296   7.513   5.082   3.753 -1.9060 -1.9904 -0.2098
   85ccc     C2 2297   7.685   4.983   3.662  0.1185 -0.0297  0.0481
   85ccc     H3 2298   7.657   5.083   3.852  0.6199 -1.0064 -0.2661
   85ccc     H4 2299   7.723   5.079   3.624 -1.1924  0.3257 -0.4214
   85ccc     H5 2300   7.616   4.934   3.592 -2.7419  2.9811  0.5030
   85ccc     N2 2301   7.798   4.886   3.690 -0.0742 -0.2969 -0.5204
   85ccc     C3 2302   7.929   4.960   3.662 -0.7269 -0.3387  0.5640
   85ccc     C4 2303   7.780   4.758   3.613  0.1746 -0.1843 -0.0744
   85ccc     H6 2304   7.710   4.687   3.657 -0.5737  1.0881  0.8502
   85ccc     C5 2305   7.897   4.666   3.609 -0.5057  0.2647  0.2891
   85ccc     H7 2306   7.749   4.774   3.510  2.2686 -0.4690 -0.7929
   85ccc     H8 2307   7.927   4.648   3.713  0.5331  1.2334  0.1754
   85ccc     H9 2308   7.987   4.709   3.564  0.2322  1.3534  2.6347
   85ccc     C6 2309   7.855   4.537   3.531 -0.0392 -0.1270  0.2554
   85ccc     O1 2310   7.953   4.450   3.529 -0.7220 -0.6102  0.0495
   85ccc     O2 2311   7.752   4.523   3.462 -0.4498  0.2455 -0.2256
   85ccc    H10 2312   8.008   4.886   3.677 -0.2981 -0.0033 -0.0185
   85ccc    H11 2313   7.950   5.032   3.742 -2.9989 -1.3080  2.1330
   85ccc     C7 2314   7.956   5.016   3.515 -0.0559 -0.1194  0.3531
   85ccc    H12 2315   7.875   5.086   3.491 -0.0973 -0.3107 -0.0773
   85ccc    H13 2316   7.955   4.934   3.442 -2.3529 -0.9535  1.2483
   85ccc     C8 2317   8.080   5.092   3.510 -0.1524 -0.2329 -0.1183
   85ccc     O3 2318   8.155   5.117   3.606  0.3145 -0.3685  0.1620
   85ccc     O4 2319   8.118   5.124   3.381 -0.0137  0.0675 -0.7902
   85ccc    H14 2320   7.923   4.368   3.487 -0.5970 -0.3439 -0.5692
   85ccc    H15 2321   8.186   5.190   3.404 -0.5712  0.1656  0.7149
   85ccc    H16 2322   7.787   4.857   3.788  0.0099  0.0641 -0.4036
   86ccc     N1 2323   3.974   3.753   5.000 -0.4997  0.1693  0.9750
   86ccc     H1 2324   3.935   3.841   4.972 -0.1049  0.0946  0.1742
   86ccc     C1 2325   3.902   3.683   5.101  0.0423  0.7679 -0.1337
   86ccc     H2 2326   3.848   3.602   5.050 -0.2356 -0.5978  2.2024
   86ccc     C2 2327   3.796   3.773   5.170  0.5213 -0.6550 -0.2408
   86ccc     H3 2328   3.976   3.642   5.170  0.8484  0.9481 -0.8655
   86ccc     H4 2329   3.714   3.809   5.107 -0.4985 -0.2164  1.2847
   86ccc     H5 2330   3.857   3.852   5.213 -1.3682  0.1879  1.0063
   86ccc     N2 2331   3.735   3.694   5.284  0.0496  0.2445 -0.1830
   86ccc     C3 2332   3.635   3.590   5.238  0.1353 -0.0657  0.0577
   86ccc     C4 2333   3.673   3.794   5.381 -0.2932  0.2180 -0.0430
   86ccc     H6 2334   3.604   3.855   5.322  0.4823  3.1234  1.8553
   86ccc     C5 2335   3.780   3.883   5.451 -0.4346  0.3364  0.1325
   86ccc     H7 2336   3.620   3.742   5.461  2.0815 -2.5220 -0.0935
   86ccc     H8 2337   3.835   3.945   5.380 -0.3003  0.6130  0.4744
   86ccc     H9 2338   3.847   3.808   5.497 -1.0843 -1.1644 -1.2917
   86ccc     C6 2339   3.723   3.970   5.559  0.6983  0.4564  0.6339
   86ccc     O1 2340   3.817   4.032   5.634 -0.0562 -0.0652  0.4192
   86ccc     O2 2341   3.612   4.006   5.579  0.5403 -0.7408  0.5077
   86ccc    H10 2342   3.688   3.528   5.166  1.7359  0.4569  0.7203
   86ccc    H11 2343   3.551   3.644   5.193  2.2230  2.4760 -1.0929
   86ccc     C7 2344   3.586   3.499   5.342  0.0230  0.4163  0.1155
   86ccc    H12 2345   3.513   3.549   5.407  0.3513 -0.5284  1.2432
   86ccc    H13 2346   3.666   3.462   5.408  0.1089  0.3773 -0.0106
   86ccc     C8 2347   3.515   3.382   5.287 -0.1523 -0.0322  0.5178
   86ccc     O3 2348   3.417   3.385   5.211  0.6916 -0.2069 -0.2749
   86ccc     O4 2349   3.547   3.263   5.340  0.0488  0.0875  0.5051
   86ccc    H14 2350   3.768   4.101   5.683  0.0636  0.2955  0.0431
   86ccc    H15 2351   3.623   3.285   5.397  1.4835 -1.0292 -0.8886
   86ccc    H16 2352   3.808   3.644   5.337 -1.2136 -0.5678  0.8448
   87ccc     N1 2353   4.202   3.540   4.240  0.2191 -0.5190  0.0635
   87ccc     H1 2354   4.215   3.440   4.247 -1.4364 -0.8071 -0.6888
   87ccc     C1 2355   4.106   3.576   4.137 -0.2244 -0.6502 -0.0767
   87ccc     H2 2356   4.017   3.513   4.145 -1.8943  1.4322 -1.0802
   87ccc     C2 2357   4.162   3.567   3.995  0.2788  0.5585  1.1383
   87ccc     H3 2358   4.077   3.677   4.170 -2.0127 -1.0876 -0.1877
   87ccc     H4 2359   4.078   3.611   3.941 -0.5918 -0.2119  1.8241
   87ccc     H5 2360   4.154   3.462   3.967 -0.0876  0.8429  0.1196
   87ccc     N2 2361   4.301   3.623   3.974 -0.0843  0.0450 -0.0648
   87ccc     C3 2362   4.287   3.776   3.987  0.0807 -0.3354 -0.2351
   87ccc     C4 2363   4.352   3.585   3.828 -0.1014  0.4483  0.1714
   87ccc     H6 2364   4.281   3.604   3.748  1.2681 -0.4581 -1.3388
   87ccc     C5 2365   4.388   3.432   3.818 -0.0169 -0.2381 -0.2482
   87ccc     H7 2366   4.443   3.640   3.802 -0.1011  0.2247 -0.3137
   87ccc     H8 2367   4.307   3.360   3.831  0.9047 -0.7794  3.8815
   87ccc     H9 2368   4.451   3.412   3.906 -2.0333 -0.0667  1.2977
   87ccc     C6 2369   4.455   3.405   3.682 -0.4917  0.6897  0.2974
   87ccc     O1 2370   4.583   3.430   3.658 -0.1435  0.1949 -0.7825
   87ccc     O2 2371   4.389   3.364   3.587  0.7566  0.6275  0.4114
   87ccc    H10 2372   4.229   3.801   4.076  0.8910 -0.8977  0.4562
   87ccc    H11 2373   4.225   3.814   3.906  1.0153 -1.6232 -1.6165
   87ccc     C7 2374   4.426   3.836   3.995 -0.4089  0.7094 -0.3121
   87ccc    H12 2375   4.488   3.832   3.905  0.1787  1.1031  0.0660
   87ccc    H13 2376   4.475   3.777   4.073  0.8598  0.8036 -1.0163
   87ccc     C8 2377   4.422   3.981   4.056 -0.0100  0.4339  0.2971
   87ccc     O3 2378   4.315   4.043   4.064 -0.6387 -0.4420  0.4541
   87ccc     O4 2379   4.537   4.020   4.101 -0.1280  0.0832 -0.0605
   87ccc    H14 2380   4.613   3.474   3.739 -2.3037 -1.3491  0.9568
   87ccc    H15 2381   4.609   3.959   4.080 -0.0630  0.3633 -0.6706
   87ccc    H16 2382   4.352   3.569   4.045 -2.4110  0.7598  2.3341
   88ccc     N1 2383   3.335   4.303   4.998  0.4571 -0.1011 -0.0926
   88ccc     H1 2384   3.299   4.378   5.055  0.9330  1.1039 -1.3279
   88ccc     C1 2385   3.237   4.206   4.943 -0.0821 -0.9345 -0.2071
   88ccc     H2 2386   3.146   4.264   4.924  0.1097  0.3783  2.3163
   88ccc     C2 2387   3.215   4.084   5.040  0.6383  0.3548 -0.3502
   88ccc     H3 2388   3.270   4.169   4.845  0.6975  0.4608 -0.5043
   88ccc     H4 2389   3.306   4.026   5.029  0.0426 -0.4693 -1.0663
   88ccc     H5 2390   3.130   4.023   5.009  0.0965  1.3941 -0.9752
   88ccc     N2 2391   3.200   4.116   5.188  0.4139 -0.3276  0.0837
   88ccc     C3 2392   3.265   4.014   5.275  0.5972 -0.3647 -0.1032
   88ccc     C4 2393   3.054   4.150   5.221 -0.1043  0.9617  0.2233
   88ccc     H6 2394   3.012   4.212   5.142 -0.2714 -0.2848 -0.7019
   88ccc     C5 2395   3.041   4.213   5.357 -0.6375  0.3117 -0.2168
   88ccc     H7 2396   2.999   4.056   5.229 -0.5582  1.0652 -1.4407
   88ccc     H8 2397   3.088   4.311   5.368 -0.0124  0.5540 -3.6934
   88ccc     H9 2398   3.080   4.143   5.431 -2.0242 -0.4086 -0.1321
   88ccc     C6 2399   2.898   4.237   5.396  0.3158  0.4263 -0.2585
   88ccc     O1 2400   2.881   4.250   5.527  0.5080 -0.2403 -0.7492
   88ccc     O2 2401   2.797   4.226   5.328 -1.0562 -0.0236 -0.0719
   88ccc    H10 2402   3.266   4.050   5.379  1.5988  0.3603 -0.3499
   88ccc    H11 2403   3.371   4.009   5.252  0.9540 -0.9541  1.5312
   88ccc     C7 2404   3.194   3.875   5.274  0.3205 -0.3973 -0.1688
   88ccc    H12 2405   3.170   3.848   5.170 -2.6957 -0.7736  0.5411
   88ccc    H13 2406   3.102   3.866   5.332  1.8881 -2.1032  2.2625
   88ccc     C8 2407   3.293   3.769   5.325 -0.0886 -0.1919 -0.4953
   88ccc     O3 2408   3.384   3.787   5.408 -0.2984  0.1152  0.7900
   88ccc     O4 2409   3.284   3.657   5.262 -0.4934 -0.3126 -0.0799
   88ccc    H14 2410   2.784   4.258   5.530  0.2115 -2.8727  2.7234
   88ccc    H15 2411   3.218   3.671   5.192 -1.1251 -2.7010 -0.0405
   88ccc    H16 2412   3.257   4.202   5.195 -0.8880  0.7352 -1.7143
   89ccc     N1 2413   3.633   5.006   5.068  0.8042  0.1550  0.3995
   89ccc     H1 2414   3.593   4.946   5.139 -2.2887 -0.7100 -1.8719
   89ccc     C1 2415   3.552   5.127   5.034 -0.5107  0.2427 -0.4077
   89ccc     H2 2416   3.590   5.167   4.939 -0.4942 -0.6765 -0.7985
   89ccc     C2 2417   3.560   5.228   5.149 -0.5465 -0.0842 -0.2648
   89ccc     H3 2418   3.450   5.089   5.020 -0.1235 -0.4232 -1.5882
   89ccc     H4 2419   3.512   5.184   5.236  0.2229  1.1968  0.8459
   89ccc     H5 2420   3.515   5.321   5.116  3.3389  1.9410 -0.4177
   89ccc     N2 2421   3.701   5.263   5.197  0.9601  0.1962  0.1330
   89ccc     C3 2422   3.690   5.367   5.313 -0.4983  0.1920 -0.2398
   89ccc     C4 2423   3.774   5.321   5.077 -0.1011 -0.2328 -0.6274
   89ccc     H6 2424   3.779   5.243   5.001 -2.2856  1.0424 -2.2028
   89ccc     C5 2425   3.915   5.391   5.097 -0.0705  0.2554  1.0258
   89ccc     H7 2426   3.704   5.394   5.037  1.5394  0.3855 -2.5484
   89ccc     H8 2427   3.917   5.443   5.194 -1.5452 -0.3064  1.3907
   89ccc     H9 2428   3.922   5.470   5.021  0.7925 -1.9706 -1.3762
   89ccc     C6 2429   4.036   5.293   5.091  0.4882 -0.2756 -0.0729
   89ccc     O1 2430   4.154   5.337   5.130  0.3895 -0.4427 -0.7536
   89ccc     O2 2431   4.030   5.180   5.044  0.1654 -0.3903  0.4164
   89ccc    H10 2432   3.650   5.462   5.280 -0.9615 -0.1130 -0.5680
   89ccc    H11 2433   3.792   5.384   5.350  0.1343 -1.6569 -0.9728
   89ccc     C7 2434   3.627   5.328   5.441  0.1335  0.2580 -0.3939
   89ccc    H12 2435   3.664   5.233   5.481  0.8476  0.1620 -1.2521
   89ccc    H13 2436   3.517   5.330   5.437  0.1407 -0.6121 -1.3385
   89ccc     C8 2437   3.663   5.419   5.558 -0.3230 -0.2706 -0.8147
   89ccc     O3 2438   3.753   5.502   5.562 -0.1025  1.0162  0.1138
   89ccc     O4 2439   3.580   5.412   5.656  0.0518  0.2861  0.3139
   89ccc    H14 2440   4.151   5.429   5.163  1.4417 -1.7155  3.5492
   89ccc    H15 2441   3.544   5.322   5.650  0.6838 -0.1086  2.0181
   89ccc    H16 2442   3.753   5.178   5.224  0.1978  0.3354  2.2603
   90ccc     N1 2443   4.147   4.174   5.919 -0.2818 -0.1149 -0.6866
   90ccc     H1 2444   4.243   4.170   5.888 -0.4531  2.4967 -1.7999
   90ccc     C1 2445   4.056   4.067   5.860  0.0428 -0.0353  0.7597
   90ccc     H2 2446   3.964   4.112   5.822  1.2947 -0.1770 -2.7681
   90ccc     C2 2447   4.036   3.938   5.947  0.1973 -0.2530  0.3658
   90ccc     H3 2448   4.108   4.032   5.770  1.1722 -1.5522  1.9419
   90ccc     H4 2449   4.129   3.882   5.956  1.0544  1.3070  1.5671
   90ccc     H5 2450   3.963   3.866   5.908  2.3920 -0.1114 -4.8546
   90ccc     N2 2451   3.998   3.973   6.085 -0.1654  0.4924  0.0740
   90ccc     C3 2452   3.986   3.841   6.168 -0.0168  0.2755  0.1839
   90ccc     C4 2453   3.861   4.042   6.095 -0.4001 -0.7325 -0.2366
   90ccc     H6 2454   3.858   4.113   6.013  0.0768  1.1973  1.3587
   90ccc     C5 2455   3.839   4.110   6.235 -0.2326 -0.3944  0.0252
   90ccc     H7 2456   3.782   3.969   6.078 -0.9102 -0.2354 -0.0355
   90ccc     H8 2457   3.896   4.203   6.252 -1.7558  0.4371  0.8318
   90ccc     H9 2458   3.866   4.052   6.324  0.9278  1.7277  1.1507
   90ccc     C6 2459   3.692   4.148   6.246 -0.3292  0.4237 -0.5506
   90ccc     O1 2460   3.655   4.246   6.169 -0.1003  0.1571  0.3551
   90ccc     O2 2461   3.611   4.087   6.312 -0.4474 -0.4022 -0.5726
   90ccc    H10 2462   3.915   3.779   6.114  2.3553 -1.7572 -0.8273
   90ccc    H11 2463   3.936   3.873   6.260 -1.2522  1.1867 -0.7700
   90ccc     C7 2464   4.122   3.776   6.207 -0.5406 -0.5999 -0.4057
   90ccc    H12 2465   4.176   3.842   6.277  0.4567 -0.8566 -0.9111
   90ccc    H13 2466   4.194   3.776   6.124 -0.4761  0.7801 -0.3738
   90ccc     C8 2467   4.099   3.640   6.268 -0.1821 -0.0632  0.0177
   90ccc     O3 2468   4.074   3.540   6.207  0.8036  0.1151 -0.3558
   90ccc     O4 2469   4.095   3.656   6.403  0.2893 -0.4932 -0.0532
   90ccc    H14 2470   3.559   4.239   6.184 -0.1986 -1.9732 -0.9601
   90ccc    H15 2471   4.092   3.749   6.431 -0.4941 -1.0622  1.9610
   90ccc    H16 2472   4.070   4.031   6.131  0.7664 -2.1145  2.1669
   91ccc     N1 2473   3.828   4.934   6.187  0.0253 -0.8684 -0.0611
   91ccc     H1 2474   3.793   4.855   6.135  1.5174 -1.2458 -0.5399
   91ccc     C1 2475   3.744   5.062   6.186  0.5278  0.6914  0.5672
   91ccc     H2 2476   3.803   5.145   6.146  0.1930  1.2250  1.1591
   91ccc     C2 2477   3.697   5.098   6.325  0.0272  0.2682  0.1861
   91ccc     H3 2478   3.662   5.051   6.114  1.1819 -2.2732  0.1182
   91ccc     H4 2479   3.661   5.200   6.312  1.2965  0.6065 -0.9286
   91ccc     H5 2480   3.786   5.090   6.388  0.3714  0.6467 -0.2452
   91ccc     N2 2481   3.590   5.005   6.392 -0.3260  0.0399  0.0039
   91ccc     C3 2482   3.476   4.971   6.298  0.3343 -0.3646  0.5488
   91ccc     C4 2483   3.534   5.072   6.517  0.5805 -0.0132 -0.7924
   91ccc     H6 2484   3.602   5.148   6.555 -1.2482  2.9821 -3.0297
   91ccc     C5 2485   3.487   4.971   6.626 -0.2988 -0.5663 -0.6363
   91ccc     H7 2486   3.446   5.128   6.485  0.9737  2.0115  1.4277
   91ccc     H8 2487   3.563   4.895   6.648  1.0121  0.8380 -0.1241
   91ccc     H9 2488   3.399   4.924   6.579 -1.6797  0.2921  1.0046
   91ccc     C6 2489   3.447   5.041   6.758  0.3202  0.0781  0.3009
   91ccc     O1 2490   3.536   5.027   6.864 -0.0357  0.2859  0.4877
   91ccc     O2 2491   3.345   5.106   6.780 -0.4887  0.2460  0.5442
   91ccc    H10 2492   3.465   5.059   6.234  3.6856 -1.3359 -1.6492
   91ccc    H11 2493   3.389   4.959   6.362  0.1929  0.1490  0.4519
   91ccc     C7 2494   3.479   4.843   6.218  0.7271  0.0844  0.3614
   91ccc    H12 2495   3.481   4.762   6.292  0.1756  0.5540  0.8942
   91ccc    H13 2496   3.576   4.833   6.167  1.1171 -0.9495  1.2593
   91ccc     C8 2497   3.363   4.811   6.125  0.6210 -0.3114 -0.0759
   91ccc     O3 2498   3.269   4.878   6.093  0.3601 -0.5473 -0.2151
   91ccc     O4 2499   3.350   4.678   6.097  0.1987  0.1423  0.3158
   91ccc    H14 2500   3.615   4.997   6.815 -1.9026 -3.4697 -0.6251
   91ccc    H15 2501   3.438   4.641   6.116  0.7244  0.5208 -1.2485
   91ccc    H16 2502   3.640   4.919   6.419  0.6076  1.6135  3.9056
   92ccc     N1 2503   3.931   4.947   4.690  0.4478 -0.3693  0.2736
   92ccc     H1 2504   3.877   5.005   4.753 -0.2707 -1.6642  0.8970
   92ccc     C1 2505   3.870   4.829   4.646  0.3637  0.1031  0.0855
   92ccc     H2 2506   3.953   4.758   4.633  1.7831  1.8796 -0.9888
   92ccc     C2 2507   3.796   4.846   4.511  0.1047  0.6874 -0.3972
   92ccc     H3 2508   3.803   4.795   4.726  0.3377  0.5487  0.2547
   92ccc     H4 2509   3.756   4.750   4.480 -1.5586  0.9696  0.7523
   92ccc     H5 2510   3.880   4.863   4.442  0.1463 -0.7706 -0.7422
   92ccc     N2 2511   3.680   4.956   4.504 -1.0643  0.2676  0.1773
   92ccc     C3 2512   3.563   4.918   4.599 -0.3678 -0.2525 -0.0118
   92ccc     C4 2513   3.621   4.959   4.365  0.4445 -0.0706  0.1640
   92ccc     H6 2514   3.593   4.856   4.345 -0.4532 -0.4806  3.0734
   92ccc     C5 2515   3.720   5.018   4.260  0.4205  0.4723  0.0579
   92ccc     H7 2516   3.538   5.029   4.378 -0.6381 -1.3491  0.2874
   92ccc     H8 2517   3.818   4.977   4.289 -1.1635 -0.9888  4.0961
   92ccc     H9 2518   3.716   5.127   4.273  1.6423  0.4470  0.8732
   92ccc     C6 2519   3.667   4.985   4.118 -0.0545  0.4851  0.0084
   92ccc     O1 2520   3.692   5.084   4.030  0.9264  0.3623 -0.2415
   92ccc     O2 2521   3.576   4.910   4.096  0.1079  0.8617  0.3496
   92ccc    H10 2522   3.598   4.899   4.700  0.0721 -1.1482 -0.3231
   92ccc    H11 2523   3.516   4.826   4.562 -2.3921  1.8422 -3.1378
   92ccc     C7 2524   3.439   5.010   4.606  0.3023 -0.2766  0.2332
   92ccc    H12 2525   3.390   5.006   4.508  1.7332 -1.0454 -0.4693
   92ccc    H13 2526   3.462   5.113   4.633  1.6123 -0.1371 -1.3095
   92ccc     C8 2527   3.339   4.971   4.709 -0.4702 -0.1188  0.0450
   92ccc     O3 2528   3.372   4.920   4.812  0.3674 -0.0234 -0.0137
   92ccc     O4 2529   3.209   4.999   4.680  0.0121 -0.2920  1.0076
   92ccc    H14 2530   3.743   5.155   4.072 -1.6767  1.1456  1.9468
   92ccc    H15 2531   3.162   4.991   4.765 -0.8751 -0.7240  0.4879
   92ccc    H16 2532   3.714   5.048   4.535 -0.3342  1.0001 -2.4740
   93ccc     N1 2533   4.659   5.531   4.858 -0.2187  0.3610  0.1156
   93ccc     H1 2534   4.597   5.597   4.813 -1.9972 -1.1011  0.3058
   93ccc     C1 2535   4.778   5.571   4.928  0.1361  0.1218  0.4022
   93ccc     H2 2536   4.860   5.511   4.887  1.0221  1.8919 -0.5073
   93ccc     C2 2537   4.771   5.559   5.084 -0.0906 -0.0819  0.3155
   93ccc     H3 2538   4.800   5.674   4.897  0.4068  0.1355  0.6357
   93ccc     H4 2539   4.856   5.617   5.119 -0.3116  0.6536 -0.3510
   93ccc     H5 2540   4.780   5.453   5.110 -0.7961 -0.3713 -0.5698
   93ccc     N2 2541   4.658   5.628   5.159  0.1121 -0.1134 -0.4870
   93ccc     C3 2542   4.629   5.764   5.100  0.8464 -0.0208 -0.3372
   93ccc     C4 2543   4.703   5.638   5.308  0.2269  0.0005 -0.0129
   93ccc     H6 2544   4.796   5.695   5.306  1.1765 -1.1291  3.7906
   93ccc     C5 2545   4.735   5.507   5.374 -0.0713 -0.0124 -0.5544
   93ccc     H7 2546   4.630   5.695   5.366 -0.8676 -2.0324  0.7042
   93ccc     H8 2547   4.835   5.466   5.357 -0.3589 -0.3448 -1.5218
   93ccc     H9 2548   4.657   5.435   5.349 -1.5029  1.7452 -1.3874
   93ccc     C6 2549   4.726   5.509   5.528  0.8963 -0.2943 -0.5203
   93ccc     O1 2550   4.776   5.399   5.583 -0.4750  0.5640 -0.3866
   93ccc     O2 2551   4.711   5.609   5.596 -0.0007  0.2580 -0.1944
   93ccc    H10 2552   4.654   5.766   4.994  0.5167  1.8425 -0.4015
   93ccc    H11 2553   4.699   5.830   5.150  1.1086 -0.2846 -0.3550
   93ccc     C7 2554   4.480   5.807   5.124  0.3318 -0.3947 -0.3758
   93ccc    H12 2555   4.443   5.799   5.227 -2.5156  2.3418 -1.0021
   93ccc    H13 2556   4.419   5.753   5.051  1.9606 -2.0012 -0.6015
   93ccc     C8 2557   4.465   5.956   5.070 -0.2940 -0.2915  0.0403
   93ccc     O3 2558   4.537   6.004   4.979  0.2357  0.0768  0.5331
   93ccc     O4 2559   4.351   6.019   5.105 -0.4028  0.2089  0.2003
   93ccc    H14 2560   4.772   5.419   5.678 -0.8661 -1.4394  0.0544
   93ccc    H15 2561   4.312   5.959   5.172  1.3493  0.4631  1.4943
   93ccc    H16 2562   4.570   5.575   5.164  0.0246  0.1268  1.8218
   94ccc     N1 2563   3.135   5.127   2.199 -0.4758 -0.1539  0.2909
   94ccc     H1 2564   3.232   5.107   2.177 -1.1402 -1.2861 -1.9047
   94ccc     C1 2565   3.053   5.030   2.275 -0.5697 -0.5141 -0.1749
   94ccc     H2 2566   3.120   4.959   2.326  0.0373 -0.7983 -1.3430
   94ccc     C2 2567   2.955   4.952   2.181 -0.4317  0.0109  0.5440
   94ccc     H3 2568   3.005   5.087   2.356  0.3843 -0.6066  0.4731
   94ccc     H4 2569   2.891   5.022   2.128 -0.3368  0.3439  0.8633
   94ccc     H5 2570   2.891   4.899   2.253 -0.0358 -2.0170 -0.5335
   94ccc     N2 2571   3.026   4.851   2.088  0.2478  0.6875  0.5979
   94ccc     C3 2572   2.922   4.816   1.979 -0.3541 -0.1777  0.2580
   94ccc     C4 2573   3.063   4.730   2.168 -0.1090  0.0608 -0.3834
   94ccc     H6 2574   3.067   4.764   2.272  0.3446  0.1024 -0.4127
   94ccc     C5 2575   3.202   4.668   2.135  0.1210  0.5201  0.4202
   94ccc     H7 2576   2.991   4.649   2.158 -0.8165  0.7785 -1.3104
   94ccc     H8 2577   3.223   4.659   2.028  0.2722 -0.6632  0.5361
   94ccc     H9 2578   3.210   4.563   2.167 -0.0618  0.7541  1.2362
   94ccc     C6 2579   3.324   4.736   2.183 -0.0556  0.4864  0.5187
   94ccc     O1 2580   3.435   4.654   2.188 -0.6048  0.5892  0.0430
   94ccc     O2 2581   3.319   4.845   2.235  0.3804  0.5408 -0.1453
   94ccc    H10 2582   2.881   4.908   1.937  2.3844  0.5719 -0.9943
   94ccc    H11 2583   2.845   4.757   2.029  0.9459 -1.3560  0.9630
   94ccc     C7 2584   2.971   4.735   1.854  0.2861 -0.2099 -0.0639
   94ccc    H12 2585   2.978   4.630   1.886 -0.4170 -0.2095  0.1162
   94ccc    H13 2586   3.070   4.774   1.828  0.1936 -0.1475 -0.3149
   94ccc     C8 2587   2.876   4.750   1.739  0.4085  0.4596  0.2214
   94ccc     O3 2588   2.759   4.781   1.757  0.7383  0.0503 -0.4075
   94ccc     O4 2589   2.918   4.728   1.617 -1.1144  0.0151  0.3218
   94ccc    H14 2590   3.410   4.567   2.154  0.0086 -0.5299  2.2874
   94ccc    H15 2591   3.010   4.694   1.621 -0.9843  0.2881 -0.2235
   94ccc    H16 2592   3.108   4.891   2.040  0.9604 -0.4063  0.8720
   95ccc     N1 2593   3.035   5.872   2.089 -0.0552  0.0692  0.1993
   95ccc     H1 2594   2.978   5.788   2.094  0.1400  0.0152  2.6115
   95ccc     C1 2595   2.992   5.988   2.012  0.3651  0.9361  0.1088
   95ccc     H2 2596   2.891   6.006   2.050 -1.3642 -4.0831 -1.2906
   95ccc     C2 2597   2.989   5.961   1.855  0.3192  0.0211 -0.1598
   95ccc     H3 2598   3.049   6.079   2.034  0.2840  0.4485  2.6013
   95ccc     H4 2599   2.923   5.879   1.828  0.2475  0.0805 -0.1681
   95ccc     H5 2600   3.090   5.934   1.825  1.2245 -0.3196  2.9136
   95ccc     N2 2601   2.951   6.082   1.759 -0.7334  0.3342 -0.5171
   95ccc     C3 2602   2.935   6.018   1.621  0.2769 -0.3456  0.8026
   95ccc     C4 2603   3.061   6.183   1.758  0.5287 -0.2999  0.1316
   95ccc     H6 2604   3.078   6.207   1.863 -2.8125  0.4560  0.5892
   95ccc     C5 2605   3.009   6.309   1.682  0.3012 -0.0627 -0.1859
   95ccc     H7 2606   3.150   6.139   1.712  0.0677  0.5749 -1.7154
   95ccc     H8 2607   2.907   6.336   1.712  0.7027 -1.3800  2.7995
   95ccc     H9 2608   3.015   6.299   1.573 -1.2801  1.6051 -0.4719
   95ccc     C6 2609   3.096   6.425   1.717 -0.2839 -0.0877 -0.1308
   95ccc     O1 2610   3.105   6.516   1.622  0.0053  0.2531 -0.6468
   95ccc     O2 2611   3.175   6.424   1.803 -0.6342 -0.0965 -0.0777
   95ccc    H10 2612   3.023   5.955   1.609 -0.8511 -1.6102 -1.6116
   95ccc    H11 2613   2.952   6.089   1.540 -0.5146  0.3771  1.2532
   95ccc     C7 2614   2.799   5.936   1.603  0.1440  0.1145 -0.7144
   95ccc    H12 2615   2.708   5.998   1.600  0.2902  0.3115 -1.5248
   95ccc    H13 2616   2.785   5.859   1.679  0.7321  0.1186 -0.6009
   95ccc     C8 2617   2.795   5.877   1.464  0.5923 -0.2602  0.5146
   95ccc     O3 2618   2.819   5.759   1.443 -0.0479 -0.2148  0.3148
   95ccc     O4 2619   2.763   5.962   1.358 -0.3339  0.4847 -0.1405
   95ccc    H14 2620   3.029   6.493   1.566  0.2797 -2.6258 -0.0316
   95ccc    H15 2621   2.755   6.055   1.386 -1.2888  0.0468  1.1240
   95ccc    H16 2622   2.861   6.120   1.792 -0.3545  0.7173  0.1022
   96ccc     N1 2623   3.377   6.239   3.535  0.1432  0.0849  0.2284
   96ccc     H1 2624   3.403   6.207   3.627  0.8301 -0.9027 -0.2940
   96ccc     C1 2625   3.294   6.355   3.521 -0.3819 -0.3380  0.9883
   96ccc     H2 2626   3.298   6.394   3.419  0.1501 -1.7195  0.4479
   96ccc     C2 2627   3.314   6.465   3.627 -0.3579 -0.1988  0.0026
   96ccc     H3 2628   3.190   6.323   3.536 -0.9428  2.0026  2.5319
   96ccc     H4 2629   3.258   6.556   3.603 -0.6387 -0.2247  0.5418
   96ccc     H5 2630   3.420   6.487   3.641 -0.0461 -1.4042 -0.3612
   96ccc     N2 2631   3.269   6.435   3.773 -0.1629 -0.1268 -0.1320
   96ccc     C3 2632   3.129   6.388   3.791 -0.6032  0.2126 -0.3831
   96ccc     C4 2633   3.294   6.554   3.870  0.0254 -0.5706 -0.4501
   96ccc     H6 2634   3.229   6.641   3.860 -0.3739 -0.6367  1.1751
   96ccc     C5 2635   3.449   6.587   3.876  0.0678 -0.4822 -0.7461
   96ccc     H7 2636   3.273   6.520   3.972  0.6584  0.6894  0.1181
   96ccc     H8 2637   3.484   6.619   3.777  0.9477 -0.7489 -0.5338
   96ccc     H9 2638   3.513   6.504   3.910 -0.0688 -0.1828  0.2834
   96ccc     C6 2639   3.474   6.693   3.990 -0.4220  0.2221  0.0676
   96ccc     O1 2640   3.607   6.722   4.027  0.7895 -0.4691 -0.2780
   96ccc     O2 2641   3.383   6.756   4.044 -0.1798  0.7719  0.6286
   96ccc    H10 2642   3.124   6.354   3.894  0.6457 -0.4547 -0.5138
   96ccc    H11 2643   3.110   6.298   3.731  0.1708 -1.2985  1.5481
   96ccc     C7 2644   3.023   6.493   3.769  0.3450  0.4231 -0.6456
   96ccc    H12 2645   3.032   6.546   3.674  0.5323  0.8849 -0.3755
   96ccc    H13 2646   3.032   6.566   3.851  2.1618 -2.0148  1.5006
   96ccc     C8 2647   2.878   6.428   3.779 -0.0770  0.7505 -0.0523
   96ccc     O3 2648   2.846   6.311   3.795  0.1057  0.0151 -0.2534
   96ccc     O4 2649   2.775   6.510   3.750 -0.5674 -0.1467  0.7720
   96ccc    H14 2650   3.656   6.685   3.952  0.2716  0.0357 -0.8726
   96ccc    H15 2651   2.814   6.598   3.731 -1.0559  0.1571  1.1409
   96ccc    H16 2652   3.331   6.358   3.800  1.3939  0.8587 -0.7374
   97ccc     N1 2653   3.078   5.714   3.103 -0.5832 -0.4208 -0.2260
   97ccc     H1 2654   3.043   5.649   3.172 -1.5515 -0.2221 -0.5077
   97ccc     C1 2655   2.980   5.786   3.017 -0.0966 -0.1054  0.2438
   97ccc     H2 2656   2.885   5.738   3.042 -0.5715  1.0124  0.6128
   97ccc     C2 2657   3.007   5.767   2.869  0.6370  0.6478  0.2019
   97ccc     H3 2658   2.978   5.891   3.050  0.6024  0.4003 -1.2376
   97ccc     H4 2659   3.095   5.821   2.833 -1.1778  2.7327 -1.3914
   97ccc     H5 2660   2.920   5.813   2.822 -0.0383  0.1269  0.9270
   97ccc     N2 2661   3.016   5.625   2.813  0.1250 -0.4983  0.5144
   97ccc     C3 2662   3.157   5.562   2.831  0.3510 -0.4833 -0.4916
   97ccc     C4 2663   2.973   5.635   2.664 -0.3208 -0.1643  0.1580
   97ccc     H6 2664   2.885   5.698   2.660 -0.2503 -0.0905 -2.8374
   97ccc     C5 2665   2.952   5.502   2.593 -0.2399  0.0816 -0.4035
   97ccc     H7 2666   3.057   5.686   2.615 -0.2223 -0.6445 -0.1840
   97ccc     H8 2667   2.867   5.522   2.527 -2.1748  0.5899  2.1062
   97ccc     H9 2668   2.929   5.426   2.668  0.3468 -0.0968 -0.3970
   97ccc     C6 2669   3.074   5.454   2.511  1.0297  0.4234 -0.3057
   97ccc     O1 2670   3.070   5.318   2.482 -0.8310 -0.7141 -0.7949
   97ccc     O2 2671   3.164   5.526   2.473  0.1007 -0.3947  0.0067
   97ccc    H10 2672   3.155   5.466   2.778 -1.6703 -2.0519  2.1200
   97ccc    H11 2673   3.148   5.535   2.937 -0.8057  1.9022  0.0963
   97ccc     C7 2674   3.281   5.647   2.787  0.1125 -0.3531 -0.0618
   97ccc    H12 2675   3.279   5.748   2.830  0.8102 -0.6311  0.6529
   97ccc    H13 2676   3.283   5.670   2.680 -1.3209  0.5411  0.0728
   97ccc     C8 2677   3.407   5.589   2.834 -0.1515  0.1991 -0.0438
   97ccc     O3 2678   3.444   5.575   2.951 -0.2044  0.1594 -0.6093
   97ccc     O4 2679   3.466   5.520   2.742 -0.0626  0.3198  0.2076
   97ccc    H14 2680   2.981   5.289   2.510 -0.1112 -0.0582  2.6918
   97ccc    H15 2681   3.509   5.461   2.807  0.3413  0.6796  0.2738
   97ccc    H16 2682   2.946   5.572   2.867 -1.0239  0.7749  0.3434
   98ccc     N1 2683   4.824   4.264   1.132 -0.2706 -0.2709 -0.0360
   98ccc     H1 2684   4.896   4.225   1.073 -0.9527  0.7097 -1.5758
   98ccc     C1 2685   4.684   4.261   1.079 -0.4662 -0.0289 -0.0879
   98ccc     H2 2686   4.616   4.236   1.161  1.3600 -1.2479  1.1422
   98ccc     C2 2687   4.675   4.150   0.975  0.6778 -0.5039 -0.9027
   98ccc     H3 2688   4.671   4.360   1.032  0.9309 -1.4667 -3.9405
   98ccc     H4 2689   4.751   4.175   0.900 -0.2606  2.1068 -1.0770
   98ccc     H5 2690   4.581   4.162   0.921  0.3549  0.9409 -0.0645
   98ccc     N2 2691   4.690   4.007   1.032  0.4412 -0.0963 -0.7076
   98ccc     C3 2692   4.686   3.903   0.917  0.4162  0.0724 -0.7959
   98ccc     C4 2693   4.569   3.967   1.122  0.5038 -0.6787  0.2972
   98ccc     H6 2694   4.504   4.052   1.143 -1.9303 -2.6247  1.1678
   98ccc     C5 2695   4.609   3.893   1.255  0.7184 -0.6536  0.0573
   98ccc     H7 2696   4.495   3.920   1.056 -0.6344 -0.0402  1.0838
   98ccc     H8 2697   4.685   3.945   1.313  0.4334  1.5345 -1.3993
   98ccc     H9 2698   4.642   3.794   1.223 -3.1832 -2.3145  0.6155
   98ccc     C6 2699   4.485   3.873   1.342 -0.0363  0.2000 -0.0985
   98ccc     O1 2700   4.505   3.790   1.446 -0.6301 -0.1194 -0.3363
   98ccc     O2 2701   4.378   3.924   1.317 -0.2768 -0.5634  0.4101
   98ccc    H10 2702   4.598   3.931   0.859  0.7314  1.5144 -0.6345
   98ccc    H11 2703   4.668   3.806   0.963 -0.0235  0.5056 -0.0212
   98ccc     C7 2704   4.810   3.903   0.836 -0.7007  0.4191  0.1119
   98ccc    H12 2705   4.827   3.801   0.799 -2.9062 -0.0529  0.2430
   98ccc    H13 2706   4.897   3.918   0.901  0.3663 -2.1236 -0.5905
   98ccc     C8 2707   4.805   3.999   0.716  0.3055  0.2575 -0.1362
   98ccc     O3 2708   4.709   4.062   0.679 -0.3979  0.3964 -0.1640
   98ccc     O4 2709   4.914   4.036   0.656 -0.5967  0.4674  0.0420
   98ccc    H14 2710   4.601   3.785   1.458 -0.5144 -3.1027 -1.5981
   98ccc    H15 2711   4.882   4.100   0.589 -0.7366 -0.7960 -1.1511
   98ccc    H16 2712   4.773   3.998   1.093 -0.8208 -0.5854  1.0285
   99ccc     N1 2713   5.078   5.060   1.113  0.4640 -0.7204  0.6017
   99ccc     H1 2714   5.038   5.014   1.033 -1.0183  0.7024  0.4745
   99ccc     C1 2715   5.116   5.206   1.103 -0.3329  0.2665 -0.4914
   99ccc     H2 2716   5.041   5.257   1.041 -1.2458  1.6338  1.6110
   99ccc     C2 2717   5.258   5.228   1.050 -0.2579 -0.8043  0.3965
   99ccc     H3 2718   5.116   5.242   1.207 -0.4287 -1.7589  0.2650
   99ccc     H4 2719   5.263   5.335   1.028 -0.7200 -0.8402  0.1112
   99ccc     H5 2720   5.261   5.172   0.956  1.3081  1.3224 -0.9216
   99ccc     N2 2721   5.378   5.191   1.133 -0.5019  0.3278  1.0961
   99ccc     C3 2722   5.385   5.253   1.268 -0.2851 -1.2090  0.6484
   99ccc     C4 2723   5.511   5.212   1.060 -0.1361 -0.5779 -0.3267
   99ccc     H6 2724   5.531   5.318   1.044  0.1931 -0.7206 -0.9414
   99ccc     C5 2725   5.528   5.158   0.918  0.6744  0.2027 -0.0718
   99ccc     H7 2726   5.591   5.163   1.116  0.5177 -0.6549 -1.2896
   99ccc     H8 2727   5.452   5.202   0.851  0.4455  0.6609  0.4792
   99ccc     H9 2728   5.508   5.051   0.925 -2.5802  0.4904 -2.6604
   99ccc     C6 2729   5.655   5.185   0.840 -0.7625  0.1538  0.3390
   99ccc     O1 2730   5.650   5.138   0.712 -0.6396  0.3282 -0.2110
   99ccc     O2 2731   5.736   5.272   0.875 -0.4229  0.4476  0.2930
   99ccc    H10 2732   5.280   5.250   1.296  0.0900 -0.6126  2.1786
   99ccc    H11 2733   5.411   5.359   1.259 -2.4404 -0.7134 -0.5430
   99ccc     C7 2734   5.477   5.194   1.375  0.3065  0.0925  0.9459
   99ccc    H12 2735   5.577   5.220   1.340  0.0754 -1.8216 -1.4689
   99ccc    H13 2736   5.477   5.085   1.363 -1.8246  0.2717 -1.6881
   99ccc     C8 2737   5.440   5.234   1.521 -0.1308 -0.7939  0.8436
   99ccc     O3 2738   5.340   5.301   1.542  0.0833  0.0017  0.0789
   99ccc     O4 2739   5.504   5.170   1.618 -0.6931  0.0169 -0.0308
   99ccc    H14 2740   5.706   5.195   0.657 -1.8634 -1.3706 -3.4793
   99ccc    H15 2741   5.575   5.117   1.579 -1.4368 -1.1345  0.1456
   99ccc    H16 2742   5.363   5.092   1.158 -2.9894  0.4151  0.2018
  100ccc     N1 2743   3.524   5.682   1.172 -0.1199 -0.4126  0.4968
  100ccc     H1 2744   3.516   5.740   1.254 -1.5795 -0.3414  0.3291
  100ccc     C1 2745   3.413   5.664   1.080 -0.9683 -0.0755 -0.6247
  100ccc     H2 2746   3.433   5.574   1.020 -0.3116  0.1424 -0.7334
  100ccc     C2 2747   3.403   5.786   0.987  0.2529 -0.7282  0.3623
  100ccc     H3 2748   3.318   5.653   1.134 -0.5629  1.2550  0.3876
  100ccc     H4 2749   3.325   5.753   0.917  0.3648  0.5981 -0.4139
  100ccc     H5 2750   3.491   5.796   0.923 -0.2983  1.1276 -0.1605
  100ccc     N2 2751   3.378   5.926   1.041  0.1334 -0.6856  0.8862
  100ccc     C3 2752   3.266   5.928   1.157 -0.3250  0.0711  0.4707
  100ccc     C4 2753   3.349   6.036   0.933 -0.4379  0.3097  0.3786
  100ccc     H6 2754   3.332   5.988   0.837 -1.4329 -1.3951  1.3426
  100ccc     C5 2755   3.460   6.137   0.906  0.1677  0.2234  0.0020
  100ccc     H7 2756   3.260   6.092   0.961 -1.0119 -0.2676 -0.2566
  100ccc     H8 2757   3.552   6.087   0.873  1.4768  2.9803 -0.7880
  100ccc     H9 2758   3.494   6.196   0.992 -0.1480 -0.2623  0.4683
  100ccc     C6 2759   3.420   6.234   0.793 -0.9310 -0.2827 -0.4982
  100ccc     O1 2760   3.518   6.251   0.702 -0.1917 -0.0271  0.3870
  100ccc     O2 2761   3.345   6.324   0.823  0.2435 -0.7936  0.0002
  100ccc    H10 2762   3.286   5.840   1.218  0.6084 -0.8614 -1.1093
  100ccc    H11 2763   3.167   5.928   1.112 -0.4765 -0.9090  0.7883
  100ccc     C7 2764   3.272   6.052   1.252 -0.5971 -0.0981  0.1042
  100ccc    H12 2765   3.277   6.143   1.191  2.7238 -0.1734  0.1081
  100ccc    H13 2766   3.365   6.055   1.308 -0.6993  0.7015  0.2391
  100ccc     C8 2767   3.156   6.076   1.341 -0.1331  0.2275 -0.4911
  100ccc     O3 2768   3.063   6.000   1.362 -0.1396  0.3412 -0.2407
  100ccc     O4 2769   3.137   6.206   1.379 -0.3663  0.3600 -0.1202
  100ccc    H14 2770   3.488   6.339   0.674  0.8917  0.1824 -0.1555
  100ccc    H15 2771   3.212   6.263   1.355 -0.6610  1.0359  0.5356
  100ccc    H16 2772   3.467   5.960   1.080 -0.7657  2.0620  0.7246
  101ccc     N1 2773   4.036   5.539   0.839 -0.0032  0.8059 -0.0413
  101ccc     H1 2774   4.073   5.632   0.851  0.8437  0.5248 -0.4005
  101ccc     C1 2775   4.002   5.501   0.702  0.7387 -0.3864 -0.6320
  101ccc     H2 2776   4.036   5.397   0.696  1.9259 -0.2316  2.0289
  101ccc     C2 2777   4.089   5.588   0.607  0.4589 -0.4260  0.4541
  101ccc     H3 2778   3.894   5.496   0.686  0.7001 -2.9990  0.0299
  101ccc     H4 2779   4.107   5.534   0.514  0.5644  0.4703 -0.0629
  101ccc     H5 2780   4.187   5.618   0.645  0.9405 -1.4597  0.0528
  101ccc     N2 2781   4.026   5.724   0.575  0.3142 -0.4272  0.4088
  101ccc     C3 2782   3.892   5.709   0.505 -0.1648 -0.4191 -0.0172
  101ccc     C4 2783   4.120   5.808   0.485  0.3351  0.0454 -0.0057
  101ccc     H6 2784   4.139   5.748   0.396 -1.0181 -0.9684  0.3425
  101ccc     C5 2785   4.248   5.857   0.558 -0.5405  0.0577 -0.1978
  101ccc     H7 2786   4.056   5.892   0.456 -0.7410 -1.1494 -1.2883
  101ccc     H8 2787   4.306   5.770   0.592 -1.3128 -1.1639 -1.8431
  101ccc     H9 2788   4.217   5.919   0.643  0.0740  0.8761 -0.5550
  101ccc     C6 2789   4.348   5.933   0.475  0.4909 -0.1593 -0.2156
  101ccc     O1 2790   4.443   6.007   0.540 -0.0345 -0.2548  0.4697
  101ccc     O2 2791   4.342   5.938   0.355  0.3529  0.2528 -0.1794
  101ccc    H10 2792   3.860   5.808   0.472 -0.2160 -0.6570 -0.6891
  101ccc    H11 2793   3.823   5.677   0.584  1.7753 -1.8365  1.1910
  101ccc     C7 2794   3.893   5.619   0.379 -0.0925  0.3400  0.5610
  101ccc    H12 2795   3.917   5.515   0.403 -0.0979  0.1211 -0.3387
  101ccc    H13 2796   3.959   5.665   0.305 -1.4294  0.0223 -0.9087
  101ccc     C8 2797   3.758   5.618   0.308  0.4264  1.0168 -0.9576
  101ccc     O3 2798   3.706   5.521   0.254 -0.0001  0.1357  0.5678
  101ccc     O4 2799   3.713   5.742   0.281  0.7259  0.1961  0.4151
  101ccc    H14 2800   4.444   5.975   0.632  0.1850 -0.4911  0.3865
  101ccc    H15 2801   3.618   5.726   0.277  0.6555  0.4309  1.0397
  101ccc    H16 2802   4.014   5.774   0.664  0.6903 -0.1645  0.3129
  102ccc     N1 2803   3.402   3.520   3.148 -0.2556  0.1973 -0.8403
  102ccc     H1 2804   3.327   3.454   3.165  0.1788  0.2893  1.8555
  102ccc     C1 2805   3.361   3.659   3.133  0.1358  0.4548  0.7599
  102ccc     H2 2806   3.284   3.688   3.207 -1.1254  1.8562 -1.0044
  102ccc     C2 2807   3.294   3.681   2.992 -0.2840  0.6209  0.2194
  102ccc     H3 2808   3.451   3.720   3.147  1.4700 -1.2003 -0.3395
  102ccc     H4 2809   3.306   3.786   2.968  2.7136  0.4063  0.4305
  102ccc     H5 2810   3.190   3.648   3.001  0.5412 -1.5156  3.5824
  102ccc     N2 2811   3.354   3.604   2.867  0.0035 -0.1973 -0.1125
  102ccc     C3 2812   3.487   3.679   2.832 -0.4710 -0.6176 -0.0266
  102ccc     C4 2813   3.251   3.610   2.746 -0.3106  0.4948  0.5056
  102ccc     H6 2814   3.200   3.706   2.732 -1.2695  0.1396  1.4326
  102ccc     C5 2815   3.134   3.511   2.773  0.0359 -0.4015 -0.4495
  102ccc     H7 2816   3.299   3.580   2.653 -0.0517  0.3145  0.6981
  102ccc     H8 2817   3.099   3.517   2.877 -0.5932  1.1931 -0.7259
  102ccc     H9 2818   3.180   3.412   2.758 -2.2698 -1.7775  0.9645
  102ccc     C6 2819   3.020   3.514   2.684  0.4298  0.1241 -0.1224
  102ccc     O1 2820   2.907   3.484   2.754  0.3676  0.1843  0.2402
  102ccc     O2 2821   3.020   3.587   2.588 -0.1332 -0.5536  0.1777
  102ccc    H10 2822   3.550   3.667   2.920 -2.0359  0.3836  1.3044
  102ccc    H11 2823   3.469   3.787   2.828  2.5751 -0.0635 -1.9720
  102ccc     C7 2824   3.555   3.630   2.702 -0.0475  0.0590 -0.3329
  102ccc    H12 2825   3.632   3.708   2.695 -1.8673  1.8091 -2.6567
  102ccc    H13 2826   3.494   3.640   2.612  0.2763 -0.5208 -0.6183
  102ccc     C8 2827   3.642   3.510   2.714  0.0930 -0.2668 -0.3090
  102ccc     O3 2828   3.663   3.438   2.810  0.0031 -0.1052 -0.2800
  102ccc     O4 2829   3.712   3.484   2.603  0.1412 -0.3470 -0.5291
  102ccc    H14 2830   2.828   3.503   2.701 -0.3276 -1.0686  0.7885
  102ccc    H15 2831   3.746   3.395   2.623 -0.7538 -0.6316 -0.2218
  102ccc    H16 2832   3.376   3.506   2.891 -1.0623 -0.1722  1.1414
  103ccc     N1 2833   3.447   2.820   2.852  0.0130  0.0797  0.5129
  103ccc     H1 2834   3.423   2.897   2.791  2.1233  0.3122 -0.1172
  103ccc     C1 2835   3.417   2.685   2.807 -0.4775  0.0408  0.1844
  103ccc     H2 2836   3.384   2.699   2.704  0.4372  1.1353  0.0184
  103ccc     C2 2837   3.311   2.621   2.889  0.1665  0.1606  0.4972
  103ccc     H3 2838   3.506   2.625   2.828 -0.7579 -0.4857 -0.1220
  103ccc     H4 2839   3.353   2.556   2.966  1.1439  0.5533  0.3025
  103ccc     H5 2840   3.255   2.560   2.817  2.6711 -0.1067 -1.3618
  103ccc     N2 2841   3.206   2.703   2.961  0.1454  0.1588  0.5044
  103ccc     C3 2842   3.095   2.619   3.017 -0.4633  0.3527 -0.5084
  103ccc     C4 2843   3.144   2.802   2.863 -0.1097 -0.7811  0.9186
  103ccc     H6 2844   3.085   2.866   2.929 -1.2092 -2.7319  1.8937
  103ccc     C5 2845   3.054   2.751   2.748 -0.0343 -0.3729  0.2979
  103ccc     H7 2846   3.223   2.862   2.817 -0.4343 -0.2102  1.0907
  103ccc     H8 2847   2.957   2.712   2.782 -0.5293  0.5128 -0.0577
  103ccc     H9 2848   3.110   2.671   2.697 -1.5305 -1.5137  0.3833
  103ccc     C6 2849   3.019   2.859   2.643  0.6818  0.0885  0.3788
  103ccc     O1 2850   2.950   2.811   2.543 -0.1253 -0.7172 -0.2884
  103ccc     O2 2851   3.035   2.982   2.651 -0.0184  0.6317  0.3346
  103ccc    H10 2852   3.062   2.547   2.942 -2.9051 -0.3192  1.1074
  103ccc    H11 2853   3.015   2.691   3.035 -0.0022  0.7966 -0.1996
  103ccc     C7 2854   3.152   2.554   3.149 -0.3834 -0.3895 -0.5787
  103ccc    H12 2855   3.177   2.635   3.218 -0.3298 -0.8441 -0.0590
  103ccc    H13 2856   3.238   2.489   3.130 -0.3791 -1.0502  1.4510
  103ccc     C8 2857   3.054   2.461   3.214  0.7230 -0.1682  0.5499
  103ccc     O3 2858   3.057   2.342   3.192 -0.2202  0.1793 -0.0451
  103ccc     O4 2859   2.937   2.514   3.259 -0.1624  0.1998  0.1771
  103ccc    H14 2860   2.921   2.889   2.494  0.7400  0.2566  0.6968
  103ccc    H15 2861   2.911   2.429   3.299  2.3139 -0.3759  0.7737
  103ccc    H16 2862   3.260   2.749   3.036  1.8158 -1.0496  0.1003
  104ccc     N1 2863   4.122   3.519   1.453  0.5120  0.3876 -0.2546
  104ccc     H1 2864   4.115   3.419   1.469  0.4782  0.4119 -0.1148
  104ccc     C1 2865   4.185   3.562   1.325  0.2570  0.0046 -0.2688
  104ccc     H2 2866   4.244   3.653   1.341 -1.3708  0.7045  2.4228
  104ccc     C2 2867   4.076   3.607   1.220  0.4837  0.3719  0.1581
  104ccc     H3 2868   4.253   3.484   1.289 -0.5293 -0.8084 -0.0295
  104ccc     H4 2869   4.008   3.522   1.220 -1.7599  2.0247  2.4739
  104ccc     H5 2870   4.129   3.620   1.125 -0.0360  0.4560 -0.1238
  104ccc     N2 2871   3.986   3.733   1.255 -0.4752  0.9805 -0.5950
  104ccc     C3 2872   3.902   3.772   1.137 -0.2759  0.1556 -0.1958
  104ccc     C4 2873   4.072   3.855   1.296  0.7202  0.1602  0.7215
  104ccc     H6 2874   4.154   3.824   1.360  2.2192  1.7562 -0.3116
  104ccc     C5 2875   3.991   3.964   1.364  0.2312  0.5101  0.2088
  104ccc     H7 2876   4.132   3.899   1.215  0.3098 -1.5104 -0.5543
  104ccc     H8 2877   3.935   3.903   1.437  0.5595 -0.9964 -0.7533
  104ccc     H9 2878   3.922   4.007   1.291 -0.7762  0.7696  1.2745
  104ccc     C6 2879   4.064   4.077   1.437 -0.1696 -0.6158 -0.1611
  104ccc     O1 2880   3.999   4.194   1.450 -0.3835 -0.0610  0.1050
  104ccc     O2 2881   4.184   4.063   1.458 -0.3327 -0.0678 -0.7629
  104ccc    H10 2882   3.896   3.685   1.071  1.7529  0.3572 -0.6885
  104ccc    H11 2883   3.950   3.848   1.076 -0.8464  1.4142  0.8689
  104ccc     C7 2884   3.759   3.813   1.174  0.0826 -0.3262  0.1127
  104ccc    H12 2885   3.753   3.917   1.208  0.7701  0.3282 -1.6672
  104ccc    H13 2886   3.709   3.752   1.250  0.6939  1.7715  2.3375
  104ccc     C8 2887   3.672   3.810   1.049  0.3635 -1.0226  0.4113
  104ccc     O3 2888   3.608   3.899   0.993 -0.0757  0.0897  0.3064
  104ccc     O4 2889   3.671   3.685   0.995 -0.3404  0.0344 -0.0751
  104ccc    H14 2890   3.906   4.169   1.436 -0.0627 -0.1886 -2.1950
  104ccc    H15 2891   3.616   3.695   0.915  2.0236 -0.0504 -1.8352
  104ccc    H16 2892   3.930   3.699   1.334  1.4305 -2.1929 -0.4469
  105ccc     N1 2893   3.587   3.149   1.865 -0.4522  0.4159  1.1202
  105ccc     H1 2894   3.515   3.203   1.912 -1.6588  1.1026 -1.3455
  105ccc     C1 2895   3.552   3.008   1.832  0.2546 -0.9088  0.1219
  105ccc     H2 2896   3.451   2.996   1.790  0.8344 -3.4016 -0.7431
  105ccc     C2 2897   3.538   2.913   1.954  0.0331 -0.3140  0.3428
  105ccc     H3 2898   3.624   2.960   1.763 -1.6701 -2.3849 -0.9671
  105ccc     H4 2899   3.502   2.815   1.922  0.8007 -0.4864 -0.0097
  105ccc     H5 2900   3.466   2.966   2.016  1.0528  1.0211  0.4430
  105ccc     N2 2901   3.665   2.902   2.041  0.0458 -0.3592  0.1996
  105ccc     C3 2902   3.777   2.839   1.956  0.0881  0.6194  0.2581
  105ccc     C4 2903   3.637   2.824   2.174 -0.9508 -0.7576 -0.5532
  105ccc     H6 2904   3.582   2.733   2.149 -0.5804 -0.8420 -1.0783
  105ccc     C5 2905   3.549   2.901   2.273  0.2577  0.3729 -0.4457
  105ccc     H7 2906   3.728   2.795   2.227  0.0229  2.3354 -0.3187
  105ccc     H8 2907   3.451   2.926   2.230  1.1094  0.9998 -2.0908
  105ccc     H9 2908   3.596   2.996   2.300  2.2479  0.1006 -2.6138
  105ccc     C6 2909   3.525   2.820   2.400 -0.2754  1.0994 -0.4435
  105ccc     O1 2910   3.471   2.891   2.495 -0.6603 -0.4040  0.1374
  105ccc     O2 2911   3.561   2.702   2.420  0.6794 -0.0625  0.0566
  105ccc    H10 2912   3.793   2.903   1.869 -2.3596  1.3508  0.2741
  105ccc    H11 2913   3.752   2.737   1.928  1.1741  0.0133  1.3895
  105ccc     C7 2914   3.912   2.854   2.030  0.3681 -0.1152  0.4555
  105ccc    H12 2915   3.904   2.829   2.136 -0.0868  1.8586  0.9263
  105ccc    H13 2916   3.938   2.960   2.028 -2.8982  0.7803  0.1877
  105ccc     C8 2917   4.027   2.782   1.963 -0.1808  0.3290 -0.1072
  105ccc     O3 2918   4.065   2.800   1.850 -0.1433 -0.8441  0.0806
  105ccc     O4 2919   4.102   2.709   2.050 -0.0154 -0.2769 -0.4678
  105ccc    H14 2920   3.457   2.983   2.466  0.6334 -0.2160  0.0502
  105ccc    H15 2921   4.175   2.682   1.991  2.0527  2.8870  0.4047
  105ccc    H16 2922   3.697   2.997   2.062 -0.5685 -0.2399  0.6209
  106ccc     N1 2923   5.436   2.945   3.725  0.3648  1.3434 -0.2513
  106ccc     H1 2924   5.351   2.946   3.670  0.4895  2.1122 -0.4354
  106ccc     C1 2925   5.441   2.995   3.858 -0.2158  0.2228 -0.2034
  106ccc     H2 2926   5.536   3.048   3.870 -0.7173  1.2097 -0.5321
  106ccc     C2 2927   5.424   2.877   3.952 -0.1705 -0.5803  0.0277
  106ccc     H3 2928   5.356   3.064   3.863 -0.9972 -0.7771  0.7336
  106ccc     H4 2929   5.349   2.811   3.907 -0.7390 -0.7027  1.1265
  106ccc     H5 2930   5.388   2.905   4.051  0.8200  0.1362  0.1986
  106ccc     N2 2931   5.557   2.797   3.956  0.2623  0.2703  0.2752
  106ccc     C3 2932   5.526   2.655   4.000 -0.1034  0.5194 -0.2572
  106ccc     C4 2933   5.656   2.856   4.052 -0.1046  0.0802  0.6080
  106ccc     H6 2934   5.664   2.963   4.032 -0.5193 -0.0588 -0.3483
  106ccc     C5 2935   5.804   2.789   4.041  0.7710 -0.8301 -0.4733
  106ccc     H7 2936   5.621   2.861   4.156 -1.3469 -0.1510  0.2210
  106ccc     H8 2937   5.820   2.764   3.936 -0.2368 -1.2783 -0.5346
  106ccc     H9 2938   5.793   2.692   4.092  1.3139 -1.3910 -1.3931
  106ccc     C6 2939   5.907   2.865   4.113  0.3237 -0.7259 -0.7009
  106ccc     O1 2940   6.020   2.802   4.135  0.0026  0.4187  0.0509
  106ccc     O2 2941   5.902   2.984   4.143  0.6100 -0.0006  0.0763
  106ccc    H10 2942   5.473   2.665   4.095  0.2982  3.2708 -0.2438
  106ccc    H11 2943   5.625   2.613   4.017 -0.7153 -1.0307 -0.2981
  106ccc     C7 2944   5.439   2.573   3.905 -0.0849  0.2467 -0.0131
  106ccc    H12 2945   5.484   2.571   3.805 -0.8458  0.3996 -0.3704
  106ccc    H13 2946   5.335   2.608   3.906 -0.8029 -1.7830  0.1812
  106ccc     C8 2947   5.438   2.423   3.957  0.0335  0.6222  0.8686
  106ccc     O3 2948   5.500   2.388   4.052  0.3023  0.3391  0.2559
  106ccc     O4 2949   5.359   2.333   3.892  0.0156  0.3688  0.2066
  106ccc    H14 2950   6.074   2.872   4.175  0.6535  0.9691 -1.6872
  106ccc    H15 2951   5.331   2.384   3.814  1.6490 -0.2068 -0.8106
  106ccc    H16 2952   5.598   2.787   3.862 -1.3100 -0.6519 -0.3418
  107ccc     N1 2953   5.634   2.965   2.840 -0.2069  0.6291 -0.3396
  107ccc     H1 2954   5.711   3.019   2.804  0.8704 -0.9203 -0.4817
  107ccc     C1 2955   5.522   2.958   2.748  0.0498 -0.1190 -0.1664
  107ccc     H2 2956   5.426   2.927   2.791 -0.1025  0.7658  0.1559
  107ccc     C2 2957   5.549   2.858   2.637  0.4231  0.0748 -0.8320
  107ccc     H3 2958   5.505   3.050   2.690 -1.3734  0.8388  1.6541
  107ccc     H4 2959   5.623   2.898   2.567  2.0825  1.8715  1.7995
  107ccc     H5 2960   5.463   2.843   2.571 -0.6360 -0.2609  0.5765
  107ccc     N2 2961   5.596   2.722   2.673 -0.4323  0.0359  0.1039
  107ccc     C3 2962   5.752   2.714   2.690  0.0432 -0.3186  0.1735
  107ccc     C4 2963   5.554   2.622   2.561  0.3778 -0.9084  0.3642
  107ccc     H6 2964   5.451   2.641   2.530  0.4041 -0.1829  0.7066
  107ccc     C5 2965   5.551   2.473   2.607  0.4681  0.3605 -0.0691
  107ccc     H7 2966   5.612   2.642   2.471 -1.3344  0.3224 -0.5143
  107ccc     H8 2967   5.482   2.454   2.691  1.3284 -0.6998  0.4366
  107ccc     H9 2968   5.644   2.443   2.657  0.1809  3.2217  2.4414
  107ccc     C6 2969   5.529   2.372   2.485 -0.3842 -0.1411 -0.3236
  107ccc     O1 2970   5.558   2.247   2.515  0.2691  0.1322 -0.1647
  107ccc     O2 2971   5.520   2.404   2.369 -0.7465  0.2664  0.1717
  107ccc    H10 2972   5.782   2.627   2.748  1.8906 -0.6219 -1.1332
  107ccc    H11 2973   5.785   2.799   2.749  0.3150 -0.7881  0.7055
  107ccc     C7 2974   5.831   2.710   2.560 -0.6348 -0.0975  0.0135
  107ccc    H12 2975   5.794   2.789   2.493 -1.0542 -0.9051 -0.7266
  107ccc    H13 2976   5.832   2.614   2.507  0.0764 -0.6044  0.9128
  107ccc     C8 2977   5.977   2.756   2.582  0.5896 -0.0531  0.3979
  107ccc     O3 2978   6.031   2.797   2.686  0.4540  0.1852  0.7118
  107ccc     O4 2979   6.055   2.725   2.480 -0.3706 -0.0035  0.0310
  107ccc    H14 2980   5.557   2.206   2.427  0.9439 -0.4352  0.0894
  107ccc    H15 2981   6.003   2.716   2.399 -0.0138  0.0569 -0.2082
  107ccc    H16 2982   5.550   2.697   2.761 -0.7628  1.1344  0.2624
  108ccc     N1 2983   6.072   3.903   3.916  0.9206  0.3322  0.4470
  108ccc     H1 2984   6.058   3.894   4.016  1.5728  2.1831  0.7303
  108ccc     C1 2985   6.084   3.790   3.833 -0.1609 -0.8669 -0.2121
  108ccc     H2 2986   5.999   3.776   3.766 -0.3314 -0.7846 -0.0143
  108ccc     C2 2987   6.085   3.665   3.916  0.3158 -0.0559  0.1155
  108ccc     H3 2988   6.176   3.800   3.774 -0.6375  0.2069 -0.8112
  108ccc     H4 2989   6.001   3.685   3.983  0.9667  0.4911  0.7800
  108ccc     H5 2990   6.174   3.659   3.979 -0.6936 -1.8513  1.4929
  108ccc     N2 2991   6.080   3.537   3.838  0.2569  0.6431 -0.3651
  108ccc     C3 2992   5.953   3.523   3.751 -0.1312  0.4618  0.3306
  108ccc     C4 2993   6.092   3.420   3.927 -0.2525  0.6331  0.2692
  108ccc     H6 2994   6.162   3.439   4.009 -0.5188  2.7019  0.0764
  108ccc     C5 2995   6.144   3.286   3.851  0.9219  0.3683  0.5234
  108ccc     H7 2996   5.993   3.405   3.968  0.3536  0.5742  1.7776
  108ccc     H8 2997   6.238   3.308   3.800  0.1356 -2.9624 -2.8089
  108ccc     H9 2998   6.079   3.258   3.767  1.4395  1.3604 -0.2201
  108ccc     C6 2999   6.164   3.171   3.944 -0.0434  0.3225  0.4074
  108ccc     O1 3000   6.202   3.054   3.885  1.0824  0.3346 -0.1620
  108ccc     O2 3001   6.183   3.180   4.067  0.4834  0.2288 -0.0804
  108ccc    H10 3002   5.938   3.420   3.719  1.2363  0.5809 -0.7521
  108ccc    H11 3003   5.969   3.578   3.658  3.7208  1.7569  1.5665
  108ccc     C7 3004   5.821   3.564   3.820 -0.2513 -0.0076  0.0293
  108ccc    H12 3005   5.824   3.662   3.868  0.9553 -0.7129  1.4539
  108ccc    H13 3006   5.806   3.491   3.900  3.0397 -1.4604 -0.5352
  108ccc     C8 3007   5.701   3.560   3.722  0.0541 -0.5546  0.6356
  108ccc     O3 3008   5.714   3.557   3.598  0.2227  0.2323  0.1645
  108ccc     O4 3009   5.582   3.599   3.768  0.3659 -0.1927  0.9950
  108ccc    H14 3010   6.199   3.065   3.788 -0.7740 -1.4622 -0.3687
  108ccc    H15 3011   5.594   3.594   3.864  4.0566  2.1669  0.8654
  108ccc    H16 3012   6.170   3.538   3.788  1.0988  1.6374  1.0898
  109ccc     N1 3013   5.874   4.329   3.423  0.1822  0.1022 -0.5296
  109ccc     H1 3014   5.894   4.428   3.424 -1.1402  0.4081  1.8479
  109ccc     C1 3015   5.873   4.246   3.299 -0.0453 -0.7180 -0.4635
  109ccc     H2 3016   5.810   4.157   3.312 -1.8813  0.7473  1.5261
  109ccc     C2 3017   6.013   4.202   3.254  0.1101 -0.1842  0.0434
  109ccc     H3 3018   5.826   4.312   3.225 -1.0575  0.2230  0.9522
  109ccc     H4 3019   6.069   4.287   3.213 -1.4220  1.6290  1.5431
  109ccc     H5 3020   5.997   4.122   3.181  1.6313 -0.5457  0.0738
  109ccc     N2 3021   6.098   4.135   3.361 -0.4857 -0.0004 -0.5578
  109ccc     C3 3022   6.244   4.104   3.304 -0.6032 -0.1836 -0.7579
  109ccc     C4 3023   6.040   4.010   3.422  0.3267  0.5749  0.8206
  109ccc     H6 3024   6.095   3.971   3.507 -0.0849 -1.3538  0.2490
  109ccc     C5 3025   6.026   3.882   3.329  0.2861  0.0658 -0.3793
  109ccc     H7 3026   5.939   4.029   3.459 -0.1010 -0.0401 -0.0069
  109ccc     H8 3027   6.127   3.859   3.290  2.3887  0.8851  3.9966
  109ccc     H9 3028   5.958   3.912   3.248  0.2384  1.1189  0.0399
  109ccc     C6 3029   5.966   3.765   3.403 -0.6854 -0.1040  0.0267
  109ccc     O1 3030   5.947   3.663   3.317  0.2976 -0.3511  0.1322
  109ccc     O2 3031   5.954   3.753   3.525  0.1070  0.3174 -0.0165
  109ccc    H10 3032   6.239   4.055   3.207  1.3493  0.5018 -1.2428
  109ccc    H11 3033   6.309   4.048   3.371  0.1318  1.1659 -0.2924
  109ccc     C7 3034   6.315   4.239   3.275  0.1375  0.0035  0.1580
  109ccc    H12 3035   6.304   4.293   3.370  1.7242 -2.4766  1.8656
  109ccc    H13 3036   6.277   4.294   3.188 -0.1467 -1.0571 -0.4041
  109ccc     C8 3037   6.465   4.202   3.256  0.3313  0.0735  1.1395
  109ccc     O3 3038   6.525   4.093   3.262 -0.3275  0.0742 -0.6445
  109ccc     O4 3039   6.531   4.309   3.216 -0.8952 -0.1135 -0.2044
  109ccc    H14 3040   5.966   3.699   3.229  1.4210 -0.7334  0.2046
  109ccc    H15 3041   6.616   4.274   3.184 -1.6093 -0.4866 -1.7857
  109ccc    H16 3042   6.114   4.205   3.435 -2.6131 -1.2021  1.1475
  110ccc     N1 3043   3.598   6.867   2.425  0.3727 -0.4193 -0.1840
  110ccc     H1 3044   3.565   6.825   2.511 -3.4666 -1.0111 -1.7507
  110ccc     C1 3045   3.523   6.839   2.303  0.3081  0.1197 -0.0134
  110ccc     H2 3046   3.587   6.795   2.226 -1.4494 -1.4322 -0.6472
  110ccc     C2 3047   3.454   6.964   2.242  0.4191 -0.5103 -0.4880
  110ccc     H3 3048   3.438   6.775   2.328 -0.0705  1.3771  2.3313
  110ccc     H4 3049   3.382   6.923   2.171 -1.1322 -0.1454  0.8107
  110ccc     H5 3050   3.527   7.025   2.188  0.1807 -0.1046 -0.3595
  110ccc     N2 3051   3.367   7.044   2.338 -0.1786  0.0171 -0.2563
  110ccc     C3 3052   3.261   6.957   2.410 -0.5045  0.7681 -0.4389
  110ccc     C4 3053   3.322   7.163   2.254  0.9384 -0.0065  0.3285
  110ccc     H6 3054   3.262   7.232   2.313 -0.6094  0.9986 -2.2390
  110ccc     C5 3055   3.236   7.135   2.131 -0.1894 -0.2723 -1.0004
  110ccc     H7 3056   3.413   7.211   2.216  0.1328  2.0220  0.8329
  110ccc     H8 3057   3.145   7.082   2.161 -2.3120  3.3777 -0.3975
  110ccc     H9 3058   3.280   7.070   2.054 -2.2047 -1.9962 -0.7941
  110ccc     C6 3059   3.192   7.264   2.061  0.5091 -0.5714  0.0324
  110ccc     O1 3060   3.090   7.250   1.984  0.4654 -0.3022  0.2565
  110ccc     O2 3061   3.246   7.370   2.076  0.5501  0.3531  0.2629
  110ccc    H10 3062   3.293   6.855   2.427 -0.7152  0.6102 -0.9646
  110ccc    H11 3063   3.171   6.942   2.349 -0.6671 -0.2784  0.0416
  110ccc     C7 3064   3.221   7.000   2.551  0.0242  0.6198  0.5917
  110ccc    H12 3065   3.312   7.036   2.601  1.6973 -1.5826 -0.6963
  110ccc    H13 3066   3.187   6.911   2.607 -0.4306  1.1271  1.1378
  110ccc     C8 3067   3.093   7.090   2.554 -0.4171  0.7615 -0.1714
  110ccc     O3 3068   3.023   7.103   2.458 -0.0046  0.1150  0.1180
  110ccc     O4 3069   3.100   7.188   2.645 -0.4823 -0.1431 -0.1410
  110ccc    H14 3070   3.086   7.153   1.972  2.0274 -0.2231 -1.4850
  110ccc    H15 3071   3.175   7.163   2.702  0.0970  0.9911 -0.3696
  110ccc    H16 3072   3.427   7.089   2.409  1.0331  1.4164 -2.0727
  111ccc     N1 3073   4.192   7.425   2.618  0.1235  0.0208  0.1234
  111ccc     H1 3074   4.228   7.375   2.538  1.5030  0.1767  0.6189
  111ccc     C1 3075   4.232   7.566   2.638 -0.3365  0.7211 -0.3297
  111ccc     H2 3076   4.150   7.634   2.613 -2.8014 -2.0250 -0.2932
  111ccc     C2 3077   4.357   7.602   2.546 -0.5298  0.5499  0.0035
  111ccc     H3 3078   4.262   7.589   2.741  0.1609 -0.2806 -0.2311
  111ccc     H4 3079   4.396   7.703   2.556 -1.6998  1.2014 -1.5772
  111ccc     H5 3080   4.323   7.584   2.444 -1.8574  1.7065  0.1951
  111ccc     N2 3081   4.477   7.509   2.574  0.4372 -0.1862 -0.1555
  111ccc     C3 3082   4.534   7.534   2.711  0.1328 -0.0167  0.0354
  111ccc     C4 3083   4.582   7.527   2.463  0.3542  0.4044  0.5201
  111ccc     H6 3084   4.615   7.630   2.451 -0.0474  0.2499 -2.8646
  111ccc     C5 3085   4.534   7.473   2.322 -0.0326  0.0053 -0.6309
  111ccc     H7 3086   4.669   7.465   2.490 -0.0311 -0.9977 -1.2809
  111ccc     H8 3087   4.447   7.536   2.301 -0.8158 -0.8511 -0.0133
  111ccc     H9 3088   4.509   7.367   2.315 -0.3318  0.0343 -0.0631
  111ccc     C6 3089   4.647   7.501   2.222  0.1102  0.0637 -0.4241
  111ccc     O1 3090   4.611   7.480   2.095  0.8015 -0.2810 -0.2338
  111ccc     O2 3091   4.753   7.564   2.252  0.1821 -0.1797  0.2972
  111ccc    H10 3092   4.448   7.535   2.778 -0.8065 -1.8026 -1.0759
  111ccc    H11 3093   4.580   7.633   2.712  3.0273 -1.2604  0.5135
  111ccc     C7 3094   4.640   7.434   2.761 -0.3849 -0.0846 -0.8466
  111ccc    H12 3095   4.740   7.439   2.717  0.9374  0.3807  1.9690
  111ccc    H13 3096   4.602   7.336   2.729 -0.2690  1.3460 -6.1300
  111ccc     C8 3097   4.668   7.437   2.916 -0.0941  0.8618  0.5736
  111ccc     O3 3098   4.580   7.445   3.000  0.3080  0.6753 -0.2403
  111ccc     O4 3099   4.786   7.493   2.941  0.8383 -0.4442 -0.1371
  111ccc    H14 3100   4.521   7.444   2.099  1.2449 -1.3559  2.8550
  111ccc    H15 3101   4.772   7.526   3.031 -0.7851 -0.8336 -0.2190
  111ccc    H16 3102   4.450   7.410   2.571 -0.9178  0.0663  1.8711
  112ccc     N1 3103   3.927   7.113   3.217  0.1056  0.0347 -0.1391
  112ccc     H1 3104   3.885   7.100   3.308  1.3144  0.2932  0.4753
  112ccc     C1 3105   3.928   7.249   3.143  0.6258 -0.7708  0.3479
  112ccc     H2 3106   3.965   7.238   3.041  0.3493 -2.2114  0.3747
  112ccc     C2 3107   4.013   7.348   3.223 -0.5352 -0.4922 -0.8893
  112ccc     H3 3108   3.826   7.289   3.142  0.7846 -0.3367  0.6843
  112ccc     H4 3109   3.960   7.351   3.318  0.2652  1.7471 -0.4353
  112ccc     H5 3110   4.004   7.452   3.189 -1.5642 -0.4506 -0.5081
  112ccc     N2 3111   4.159   7.332   3.249  0.1642 -0.1820  0.0874
  112ccc     C3 3112   4.225   7.444   3.326  0.2330 -0.5183 -0.3835
  112ccc     C4 3113   4.236   7.307   3.118 -0.1355 -0.8096 -0.0272
  112ccc     H6 3114   4.169   7.265   3.042 -0.7751 -1.1240  0.6983
  112ccc     C5 3115   4.351   7.210   3.133  0.0726 -0.1552 -0.4877
  112ccc     H7 3116   4.275   7.406   3.095  1.2658 -0.3106  3.8274
  112ccc     H8 3117   4.312   7.121   3.184 -0.7543  0.0021 -0.8486
  112ccc     H9 3118   4.427   7.246   3.204  0.7678 -3.5065  0.6981
  112ccc     C6 3119   4.412   7.160   3.005  0.1098  0.5394  0.9408
  112ccc     O1 3120   4.526   7.091   3.024 -0.0751  0.0091  0.1726
  112ccc     O2 3121   4.362   7.178   2.894 -0.1587 -0.2368  0.0199
  112ccc    H10 3122   4.226   7.534   3.265  0.2234 -1.3498 -1.6582
  112ccc    H11 3123   4.328   7.424   3.353 -0.0307 -0.1012  0.9958
  112ccc     C7 3124   4.146   7.477   3.456 -0.4939 -0.4669  0.0018
  112ccc    H12 3125   4.161   7.398   3.531 -0.5446  1.5855  2.2728
  112ccc    H13 3126   4.037   7.482   3.441 -0.6222  1.5641  1.3342
  112ccc     C8 3127   4.185   7.612   3.512  0.1469  0.4146 -0.1071
  112ccc     O3 3128   4.180   7.707   3.437 -0.0141  0.6216  0.4948
  112ccc     O4 3129   4.275   7.608   3.609  0.0913 -1.0061  0.6107
  112ccc    H14 3130   4.555   7.066   2.935  1.9591  1.7157  0.2759
  112ccc    H15 3131   4.289   7.514   3.630  0.6467 -1.5303 -1.7531
  112ccc    H16 3132   4.162   7.252   3.314 -1.1934 -0.7263 -0.4749
  113ccc     N1 3133   3.660   6.489   3.171  0.4923  0.0299  0.1850
  113ccc     H1 3134   3.661   6.555   3.094 -2.6516 -1.3791 -1.2416
  113ccc     C1 3135   3.528   6.417   3.189  0.0133 -0.2446  0.9873
  113ccc     H2 3136   3.543   6.309   3.202 -1.8973 -0.7574 -0.6016
  113ccc     C2 3137   3.430   6.466   3.087  0.0131  0.5130 -0.8979
  113ccc     H3 3138   3.483   6.450   3.284  1.9564 -0.2468  1.9547
  113ccc     H4 3139   3.409   6.572   3.095  0.9312  0.6312  0.0952
  113ccc     H5 3140   3.335   6.417   3.108  2.0064 -2.8908  1.1006
  113ccc     N2 3141   3.473   6.440   2.944  0.0395  0.2545 -0.2183
  113ccc     C3 3142   3.371   6.519   2.849  0.0668 -0.1361 -0.2929
  113ccc     C4 3143   3.483   6.287   2.916  0.4562  0.3659 -0.4967
  113ccc     H6 3144   3.524   6.267   2.817 -2.3503 -0.3518 -1.6256
  113ccc     C5 3145   3.345   6.215   2.919 -0.1110  0.2067 -0.2479
  113ccc     H7 3146   3.553   6.233   2.980 -0.3832  0.8769  0.8940
  113ccc     H8 3147   3.265   6.278   2.879  0.7587  1.5355  0.0617
  113ccc     H9 3148   3.318   6.189   3.022 -1.6233  0.5205 -0.5464
  113ccc     C6 3149   3.350   6.088   2.837  0.5865  0.5466  0.1198
  113ccc     O1 3150   3.228   6.023   2.827 -0.0145  0.3738 -0.1320
  113ccc     O2 3151   3.442   6.052   2.766 -0.6378  0.7263 -0.7203
  113ccc    H10 3152   3.389   6.623   2.876 -2.0246 -0.1541  1.4518
  113ccc    H11 3153   3.270   6.503   2.886  0.4077 -0.8614  0.3543
  113ccc     C7 3154   3.383   6.495   2.699 -0.7512 -0.5698 -0.2656
  113ccc    H12 3155   3.352   6.394   2.671 -0.7414 -0.5797 -0.2410
  113ccc    H13 3156   3.491   6.506   2.681 -0.9678  0.4047 -1.0935
  113ccc     C8 3157   3.324   6.617   2.633  0.0889  0.8716 -0.1417
  113ccc     O3 3158   3.397   6.681   2.560  0.6350  0.7570  0.0995
  113ccc     O4 3159   3.187   6.616   2.626 -0.1503 -0.4409  0.0358
  113ccc    H14 3160   3.184   6.063   2.904 -0.1564  0.4848 -0.2707
  113ccc    H15 3161   3.152   6.549   2.688  0.5495 -1.5642 -0.7362
  113ccc    H16 3162   3.560   6.494   2.929 -0.1575  0.6131 -0.0911
  114ccc     N1 3163   4.979   7.729   2.272 -0.0799 -0.0627  0.4685
  114ccc     H1 3164   4.907   7.657   2.275  1.9335 -2.1626  2.2451
  114ccc     C1 3165   4.999   7.816   2.388 -0.3015 -0.0518 -0.7483
  114ccc     H2 3166   5.026   7.749   2.471 -0.0834 -0.2568 -0.9853
  114ccc     C2 3167   4.879   7.903   2.431  0.5190 -0.8204 -0.0407
  114ccc     H3 3168   5.084   7.883   2.370  0.7256 -1.2340 -0.4125
  114ccc     H4 3169   4.879   7.932   2.536  1.0682 -0.0752 -0.2397
  114ccc     H5 3170   4.779   7.860   2.423 -0.8894  1.6701  2.4463
  114ccc     N2 3171   4.863   8.041   2.358  0.2127  0.1100  0.0845
  114ccc     C3 3172   4.733   8.104   2.394  0.5090 -0.1140  0.0462
  114ccc     C4 3173   4.876   8.025   2.208 -0.4445 -0.0503 -0.2005
  114ccc     H6 3174   4.900   8.125   2.171  0.7717  0.0961  0.9240
  114ccc     C5 3175   4.757   7.953   2.130 -0.0628  0.2794 -0.2877
  114ccc     H7 3176   4.963   7.960   2.194 -1.1731 -1.1930  0.4229
  114ccc     H8 3177   4.678   8.025   2.105 -0.9872 -0.9035 -0.8692
  114ccc     H9 3178   4.707   7.881   2.195  1.9852  0.2160  1.2987
  114ccc     C6 3179   4.808   7.876   2.006  0.0571 -0.4383  0.1847
  114ccc     O1 3180   4.735   7.777   1.951 -0.1220  0.7231 -0.3912
  114ccc     O2 3181   4.915   7.897   1.963 -0.0212 -0.1022  0.0608
  114ccc    H10 3182   4.657   8.028   2.379 -1.2147  0.9406  2.6829
  114ccc    H11 3183   4.730   8.189   2.326  0.8780 -1.7523 -2.1348
  114ccc     C7 3184   4.739   8.147   2.541 -0.4231 -0.0672 -0.3992
  114ccc    H12 3185   4.822   8.218   2.551  1.2524 -1.6559 -2.1526
  114ccc    H13 3186   4.762   8.068   2.614  3.3465  1.7970  0.6639
  114ccc     C8 3187   4.611   8.221   2.588 -0.9527 -0.3696 -0.1925
  114ccc     O3 3188   4.506   8.212   2.526  0.2135 -0.0299 -0.8367
  114ccc     O4 3189   4.632   8.334   2.661  0.7687  0.3673  0.3751
  114ccc    H14 3190   4.647   7.794   1.989  0.2149 -1.2935  1.4929
  114ccc    H15 3191   4.544   8.374   2.666  0.0979 -0.7069 -1.8291
  114ccc    H16 3192   4.935   8.104   2.395  0.0341 -0.5069  1.5312
  115ccc     N1 3193   4.971   7.881   1.660  0.6484 -0.0671  0.5146
  115ccc     H1 3194   4.958   7.891   1.760 -0.1616 -2.4120  0.6887
  115ccc     C1 3195   4.878   7.969   1.576 -0.7711  0.2536  0.3618
  115ccc     H2 3196   4.891   8.067   1.625 -1.0255 -0.2326  1.4410
  115ccc     C2 3197   4.734   7.918   1.568  0.2070  0.7084 -0.1669
  115ccc     H3 3198   4.920   7.984   1.476  0.6450 -1.5085  0.6354
  115ccc     H4 3199   4.668   7.987   1.516  0.7884  1.3094 -0.1199
  115ccc     H5 3200   4.700   7.915   1.671  2.1512 -0.7650  0.4981
  115ccc     N2 3201   4.703   7.771   1.515  0.6191 -0.3725  1.0493
  115ccc     C3 3202   4.774   7.746   1.382 -0.0225 -0.5500 -0.0242
  115ccc     C4 3203   4.551   7.765   1.498  0.0406  0.0269  0.3605
  115ccc     H6 3204   4.514   7.793   1.596 -0.3912 -0.5637  0.3726
  115ccc     C5 3205   4.490   7.638   1.436  0.5698  0.7266  0.3946
  115ccc     H7 3206   4.514   7.851   1.442  0.6314 -0.9196 -1.5885
  115ccc     H8 3207   4.506   7.547   1.495  1.6528 -1.6919 -3.2443
  115ccc     H9 3208   4.527   7.618   1.334 -0.7873  0.8655 -0.1445
  115ccc     C6 3209   4.340   7.646   1.423  0.0167 -0.3546 -0.7594
  115ccc     O1 3210   4.301   7.711   1.317  0.8015 -0.0150 -0.9374
  115ccc     O2 3211   4.265   7.663   1.519 -0.0702 -0.1206 -0.7346
  115ccc    H10 3212   4.869   7.800   1.386  0.4140 -1.2169 -0.9107
  115ccc    H11 3213   4.718   7.784   1.296  0.1080  0.6525  0.3977
  115ccc     C7 3214   4.811   7.606   1.352  0.3753 -0.4693  0.2256
  115ccc    H12 3215   4.727   7.559   1.300 -0.1237  1.2532 -0.5919
  115ccc    H13 3216   4.834   7.551   1.445 -1.7872 -1.7313  0.0665
  115ccc     C8 3217   4.922   7.595   1.249  0.1738  0.5290 -0.2684
  115ccc     O3 3218   4.948   7.660   1.151 -0.2050 -0.3603  0.2976
  115ccc     O4 3219   5.022   7.527   1.303 -0.0218 -0.0631  0.9139
  115ccc    H14 3220   4.213   7.736   1.350  1.3265  0.5190  0.1091
  115ccc    H15 3221   5.072   7.518   1.221 -2.7587  2.4761 -1.2728
  115ccc    H16 3222   4.722   7.698   1.585  1.1794 -1.9446 -0.6556
  116ccc     N1 3223   5.422   6.817   1.066  0.1015  0.0541  0.0560
  116ccc     H1 3224   5.437   6.806   0.967 -0.9123  2.4306 -0.4236
  116ccc     C1 3225   5.285   6.811   1.114  0.3889 -0.7312  0.4499
  116ccc     H2 3226   5.229   6.736   1.057 -0.6380  0.7937 -0.6549
  116ccc     C2 3227   5.213   6.948   1.112 -0.0610  0.0041 -0.1750
  116ccc     H3 3228   5.283   6.771   1.216  1.1633 -2.5229 -0.2012
  116ccc     H4 3229   5.125   6.948   1.176 -0.7791  1.6688 -1.0809
  116ccc     H5 3230   5.176   6.984   1.016 -0.8744 -1.6923 -0.5444
  116ccc     N2 3231   5.296   7.064   1.179 -0.0436  0.1414  0.4841
  116ccc     C3 3232   5.311   7.041   1.326 -0.3225 -0.9323  0.5124
  116ccc     C4 3233   5.234   7.201   1.166 -0.0213 -0.2936 -0.0661
  116ccc     H6 3234   5.140   7.198   1.221  0.6855 -2.3924  1.1192
  116ccc     C5 3235   5.203   7.233   1.018 -0.1153  0.2902  0.5487
  116ccc     H7 3236   5.304   7.275   1.206  0.7526 -0.1309 -1.6355
  116ccc     H8 3237   5.132   7.162   0.975 -0.3635  0.6800  0.3086
  116ccc     H9 3238   5.301   7.219   0.970 -0.7864  0.2823 -0.8579
  116ccc     C6 3239   5.158   7.379   1.004  0.1625 -0.0590 -0.1555
  116ccc     O1 3240   5.154   7.404   0.872 -0.2813 -0.4215 -0.3803
  116ccc     O2 3241   5.182   7.467   1.086  0.1142  0.1519  0.1492
  116ccc    H10 3242   5.315   6.934   1.343 -2.2155 -1.2182 -0.6474
  116ccc    H11 3243   5.215   7.064   1.371 -1.7851 -1.8705 -1.9344
  116ccc     C7 3244   5.421   7.114   1.401 -0.3410  0.1132  0.1852
  116ccc    H12 3245   5.422   7.223   1.388 -0.6062  0.2302  1.0443
  116ccc    H13 3246   5.513   7.076   1.356 -1.0744 -0.2309 -1.0570
  116ccc     C8 3247   5.428   7.087   1.545 -0.4887 -0.2098  0.7269
  116ccc     O3 3248   5.333   7.046   1.607 -0.1225 -0.3293 -0.6484
  116ccc     O4 3249   5.543   7.120   1.593  0.1863 -0.0720  0.3011
  116ccc    H14 3250   5.110   7.329   0.829  0.3938 -0.9424 -0.1661
  116ccc    H15 3251   5.541   7.092   1.687 -1.0567  0.5761  0.4889
  116ccc    H16 3252   5.391   7.059   1.139 -0.4955  1.8459 -0.9221
  117ccc     N1 3253   5.912   7.106   1.504  0.6441 -0.2676  0.2962
  117ccc     H1 3254   5.974   7.162   1.446  3.4188 -3.1598  0.1436
  117ccc     C1 3255   5.865   7.171   1.625  0.0964  0.0589  0.8450
  117ccc     H2 3256   5.844   7.276   1.599  0.2041 -0.0350  0.3838
  117ccc     C2 3257   5.972   7.152   1.730 -0.8838  0.0752 -0.5901
  117ccc     H3 3258   5.767   7.137   1.659 -0.7605  2.6470  1.2377
  117ccc     H4 3259   5.923   7.204   1.812  0.0849 -0.1381  0.1362
  117ccc     H5 3260   6.056   7.208   1.691 -0.0959  0.0205  0.9521
  117ccc     N2 3261   6.020   7.011   1.759 -0.2664  0.0114  0.0000
  117ccc     C3 3262   5.908   6.930   1.821 -0.1407 -0.1101 -0.2297
  117ccc     C4 3263   6.142   7.006   1.847  0.5926  0.2896 -0.2312
  117ccc     H6 3264   6.131   7.053   1.945 -0.8353  0.0065 -0.2272
  117ccc     C5 3265   6.270   7.066   1.785 -0.1816  0.4618  0.7674
  117ccc     H7 3266   6.153   6.902   1.877 -0.1517  0.9310  2.5611
  117ccc     H8 3267   6.262   7.175   1.775 -1.0094  0.4939  1.6170
  117ccc     H9 3268   6.287   7.018   1.687  1.0406 -0.8163  1.5727
  117ccc     C6 3269   6.389   7.033   1.870  0.1405 -0.5796  0.4014
  117ccc     O1 3270   6.411   6.907   1.879  0.4435 -0.1355  0.0892
  117ccc     O2 3271   6.464   7.116   1.910 -0.6844  0.3515 -0.4668
  117ccc    H10 3272   5.818   6.940   1.760 -0.9065  0.9998  1.0401
  117ccc    H11 3273   5.892   6.958   1.925 -1.6352 -1.1103 -0.1512
  117ccc     C7 3274   5.947   6.774   1.820  0.4309 -0.7346  0.6667
  117ccc    H12 3275   5.997   6.732   1.908 -0.7703 -2.1506  0.7160
  117ccc    H13 3276   6.008   6.766   1.730 -1.8268  1.9199 -1.2851
  117ccc     C8 3277   5.817   6.689   1.791 -0.5822 -0.0051  0.4021
  117ccc     O3 3278   5.701   6.729   1.779 -0.5052 -0.8319  0.2122
  117ccc     O4 3279   5.847   6.556   1.782 -0.5922  0.0205  0.3540
  117ccc    H14 3280   6.489   6.903   1.936  0.4642 -1.8271 -0.0041
  117ccc    H15 3281   5.941   6.552   1.807 -0.3832  1.6459 -0.0406
  117ccc    H16 3282   6.047   6.970   1.668  2.5478  0.4889  0.5505
  118ccc     N1 3283   7.552   6.836   2.399 -0.0516 -0.0067  0.8639
  118ccc     H1 3284   7.495   6.859   2.479  0.1372 -1.0527  1.3054
  118ccc     C1 3285   7.516   6.890   2.262  0.2859 -0.1535 -0.6531
  118ccc     H2 3286   7.607   6.934   2.219  1.0025 -0.3780  0.5875
  118ccc     C2 3287   7.393   6.988   2.262 -0.1391  0.2510 -0.3282
  118ccc     H3 3288   7.489   6.805   2.198 -2.9998  0.8172 -0.7273
  118ccc     H4 3289   7.301   6.936   2.287 -1.2656  1.9486 -0.7772
  118ccc     H5 3290   7.378   7.025   2.160 -0.6173  0.3471 -0.2251
  118ccc     N2 3291   7.406   7.115   2.355  0.1534  0.4422 -0.0663
  118ccc     C3 3292   7.265   7.189   2.347 -0.3294  0.0442 -0.1732
  118ccc     C4 3293   7.530   7.195   2.320  0.2648 -0.4233  0.1460
  118ccc     H6 3294   7.607   7.129   2.281 -0.3999 -0.7330 -0.6732
  118ccc     C5 3295   7.587   7.276   2.445  0.1014 -0.2715  0.8702
  118ccc     H7 3296   7.508   7.276   2.250  1.5002  0.4179  0.7058
  118ccc     H8 3297   7.511   7.350   2.473 -0.3573  0.6121 -2.3090
  118ccc     H9 3298   7.676   7.327   2.407 -1.4575  1.6656 -0.3861
  118ccc     C6 3299   7.620   7.190   2.571 -1.0583 -0.6110  0.6317
  118ccc     O1 3300   7.653   7.272   2.672  0.2572  0.5924  0.1958
  118ccc     O2 3301   7.638   7.070   2.579 -0.6130  0.3041 -0.1091
  118ccc    H10 3302   7.257   7.228   2.245  0.2412  0.7891  0.0576
  118ccc    H11 3303   7.255   7.277   2.410 -1.2261 -0.6716  0.7132
  118ccc     C7 3304   7.139   7.115   2.393 -0.0109 -0.2203  0.1019
  118ccc    H12 3305   7.160   7.064   2.488 -0.0903 -1.8002 -0.6798
  118ccc    H13 3306   7.116   7.031   2.326 -1.0362 -0.4280  0.7075
  118ccc     C8 3307   7.015   7.205   2.400 -0.3644 -0.1991 -0.6326
  118ccc     O3 3308   7.022   7.324   2.381 -0.2056  0.5135  0.7343
  118ccc     O4 3309   6.903   7.135   2.394 -0.1664  0.1871 -0.1679
  118ccc    H14 3310   7.633   7.364   2.650  0.2535  0.3768 -0.7383
  118ccc    H15 3311   6.834   7.201   2.380 -0.9899 -0.4709  0.7002
  118ccc    H16 3312   7.410   7.074   2.449  0.3480 -1.3695 -0.8198
  119ccc     N1 3313   8.061   6.345   2.700 -0.3434  0.8308  0.4363
  119ccc     H1 3314   8.109   6.405   2.634  2.1762 -0.9516  0.5302
  119ccc     C1 3315   8.117   6.210   2.723 -1.1472  0.7262  0.3688
  119ccc     H2 3316   8.108   6.179   2.828  1.0466 -1.5701 -0.0329
  119ccc     C2 3317   8.262   6.197   2.672  0.2376  0.6492 -0.3147
  119ccc     H3 3318   8.060   6.144   2.657 -0.6170  3.1867 -2.7733
  119ccc     H4 3319   8.271   6.196   2.563 -0.5176 -0.9207 -0.3891
  119ccc     H5 3320   8.295   6.096   2.697  0.4647  0.5627 -0.9580
  119ccc     N2 3321   8.352   6.297   2.741 -0.1165  0.0639 -0.4458
  119ccc     C3 3322   8.474   6.323   2.657 -0.2173  0.3040 -0.1782
  119ccc     C4 3323   8.404   6.244   2.875  0.0984 -0.3425  0.1596
  119ccc     H6 3324   8.409   6.135   2.875  0.0209 -0.3468 -0.4299
  119ccc     C5 3325   8.327   6.298   3.000 -0.7631  0.3819  0.4805
  119ccc     H7 3326   8.508   6.277   2.882 -0.1249  0.3769  0.1827
  119ccc     H8 3327   8.221   6.271   2.997 -0.4756 -0.8080 -1.6148
  119ccc     H9 3328   8.341   6.407   3.004 -0.8774  0.3949  0.5145
  119ccc     C6 3329   8.387   6.241   3.127 -0.1399 -0.5849  0.1819
  119ccc     O1 3330   8.475   6.317   3.187  0.1694  0.2157 -0.3464
  119ccc     O2 3331   8.361   6.129   3.169 -0.0178  0.5602 -0.2166
  119ccc    H10 3332   8.539   6.394   2.708 -0.3446  0.5443 -0.3492
  119ccc    H11 3333   8.442   6.368   2.562 -1.8303 -0.6993 -0.1436
  119ccc     C7 3334   8.566   6.205   2.629  0.3499  0.1113  0.1221
  119ccc    H12 3335   8.498   6.128   2.589 -1.3724  0.7143  1.7256
  119ccc    H13 3336   8.612   6.167   2.721 -1.9493 -1.1282  0.8330
  119ccc     C8 3337   8.667   6.245   2.518 -0.4183 -1.0453  0.0063
  119ccc     O3 3338   8.709   6.357   2.501  0.2800  0.0204  0.2988
  119ccc     O4 3339   8.675   6.154   2.419  0.3883  0.6617 -0.0256
  119ccc    H14 3340   8.501   6.394   3.134  1.0950  1.9881  2.4908
  119ccc    H15 3341   8.756   6.184   2.376  0.6570 -0.1152 -0.0783
  119ccc    H16 3342   8.300   6.385   2.758  0.8460  0.1714  2.5711
  120ccc     N1 3343   7.457   6.451   3.976  0.1353 -0.0746  0.0924
  120ccc     H1 3344   7.387   6.390   3.936  0.7643 -1.6382  1.2567
  120ccc     C1 3345   7.421   6.557   4.068  0.7820 -0.9488 -0.0622
  120ccc     H2 3346   7.348   6.526   4.143 -0.1274 -0.1406 -0.6010
  120ccc     C2 3347   7.371   6.674   3.988 -0.1385 -0.3109  0.5568
  120ccc     H3 3348   7.508   6.591   4.126 -1.6176  1.5769  2.3506
  120ccc     H4 3349   7.357   6.765   4.047  2.5348 -0.3091  1.2811
  120ccc     H5 3350   7.272   6.646   3.951  0.6847 -1.3160 -0.9726
  120ccc     N2 3351   7.464   6.723   3.870  0.8983 -0.6405  0.1441
  120ccc     C3 3352   7.553   6.829   3.914 -0.1453 -0.6345 -0.2680
  120ccc     C4 3353   7.377   6.768   3.745 -0.4000  0.4399  0.7862
  120ccc     H6 3354   7.309   6.847   3.778  1.2835  1.4631  1.9785
  120ccc     C5 3355   7.299   6.645   3.681  0.2743 -0.6438  0.6795
  120ccc     H7 3356   7.434   6.809   3.662  0.1620 -2.3700 -0.3277
  120ccc     H8 3357   7.220   6.613   3.750  0.3911 -1.2249  0.5506
  120ccc     H9 3358   7.361   6.559   3.649 -0.5318 -1.5587  1.5194
  120ccc     C6 3359   7.235   6.700   3.549 -0.5790  0.1543 -0.3112
  120ccc     O1 3360   7.167   6.608   3.478  0.4386 -0.3565  0.0591
  120ccc     O2 3361   7.282   6.802   3.497 -0.1890 -0.0221  0.2035
  120ccc    H10 3362   7.498   6.910   3.964  0.7445  0.3093 -0.7739
  120ccc    H11 3363   7.595   6.870   3.823 -0.4214  0.4160  0.0617
  120ccc     C7 3364   7.661   6.797   4.017 -0.1804  0.6851 -0.0525
  120ccc    H12 3365   7.669   6.692   4.047 -0.2398  0.4291 -0.8864
  120ccc    H13 3366   7.632   6.848   4.109 -4.6911 -0.5867 -0.5511
  120ccc     C8 3367   7.803   6.848   3.964 -0.0210  0.4622  0.3277
  120ccc     O3 3368   7.817   6.892   3.855 -0.0595 -0.0306 -0.0843
  120ccc     O4 3369   7.902   6.846   4.052 -0.1562  0.6532 -0.6387
  120ccc    H14 3370   7.132   6.539   3.538 -2.3724 -0.2537 -1.2823
  120ccc    H15 3371   7.863   6.807   4.132 -0.3723  2.6199  0.2814
  120ccc    H16 3372   7.516   6.637   3.846 -0.1540 -1.0344 -0.8310
  121ccc     N1 3373   8.012   5.883   3.577  0.4344 -0.2194  0.2171
  121ccc     H1 3374   7.958   5.937   3.510  0.4070  0.6272  0.9061
  121ccc     C1 3375   8.156   5.888   3.567  0.7039 -0.0322  0.3631
  121ccc     H2 3376   8.199   5.975   3.618 -0.0162 -0.8438  2.4361
  121ccc     C2 3377   8.205   5.896   3.422  0.1364 -0.3434 -0.4199
  121ccc     H3 3378   8.207   5.803   3.614  1.0860 -0.0647 -0.0935
  121ccc     H4 3379   8.314   5.905   3.426  0.1932 -1.2866  2.4745
  121ccc     H5 3380   8.159   5.984   3.378 -0.9297 -0.1114  1.1070
  121ccc     N2 3381   8.179   5.776   3.336  0.2716  0.2588  0.0709
  121ccc     C3 3382   8.258   5.655   3.394 -0.5891  0.0311  0.3779
  121ccc     C4 3383   8.207   5.806   3.194 -0.3053  0.2301  0.1708
  121ccc     H6 3384   8.313   5.829   3.182 -0.2780 -0.4465 -0.9529
  121ccc     C5 3385   8.114   5.911   3.127 -0.2512  0.6534 -0.1804
  121ccc     H7 3386   8.210   5.712   3.139 -0.5161 -0.2533  0.9749
  121ccc     H8 3387   8.142   6.014   3.154  0.4753 -0.0494  1.9119
  121ccc     H9 3388   8.009   5.912   3.161 -0.3856  1.1641 -0.5912
  121ccc     C6 3389   8.123   5.918   2.973 -0.1898 -0.7283 -0.0653
  121ccc     O1 3390   8.040   5.841   2.903  0.3932 -0.4513  0.8627
  121ccc     O2 3391   8.198   5.998   2.921 -0.5446 -0.5236 -0.3957
  121ccc    H10 3392   8.235   5.645   3.500  1.2886 -1.3805  0.6892
  121ccc    H11 3393   8.364   5.664   3.368 -0.7757 -0.2604 -0.5216
  121ccc     C7 3394   8.219   5.521   3.330  0.1530 -0.2043  0.5625
  121ccc    H12 3395   8.213   5.519   3.221  2.2190 -0.8170  0.4111
  121ccc    H13 3396   8.114   5.502   3.355 -0.7013  2.4334 -0.7023
  121ccc     C8 3397   8.316   5.409   3.374  0.0781 -0.5670  0.9970
  121ccc     O3 3398   8.293   5.331   3.460  0.2291  0.0202 -0.5014
  121ccc     O4 3399   8.419   5.388   3.290 -0.3601  0.8676 -0.1739
  121ccc    H14 3400   7.981   5.806   2.971 -1.1183  1.3695  0.5502
  121ccc    H15 3401   8.431   5.461   3.226 -1.2283  0.2376 -1.0967
  121ccc    H16 3402   8.078   5.761   3.353  0.5860  1.2655  3.6865
  122ccc     N1 3403   6.963   5.824   1.264 -0.5800 -0.0325  0.2618
  122ccc     H1 3404   6.961   5.741   1.206 -0.0239  0.5683 -0.6382
  122ccc     C1 3405   7.098   5.871   1.293 -0.5141  0.2675  0.4899
  122ccc     H2 3406   7.101   5.981   1.290  0.3871  0.2244 -1.7763
  122ccc     C2 3407   7.195   5.821   1.181 -1.1518 -0.3373 -0.3564
  122ccc     H3 3408   7.124   5.826   1.390 -0.0640  1.8445  1.1344
  122ccc     H4 3409   7.183   5.713   1.172 -0.9930 -0.5301  1.3575
  122ccc     H5 3410   7.294   5.847   1.218 -1.0451  0.8157 -1.3692
  122ccc     N2 3411   7.174   5.891   1.052 -0.0228 -0.4068  0.4495
  122ccc     C3 3412   7.216   5.797   0.942  0.6376 -0.7443  0.6222
  122ccc     C4 3413   7.252   6.022   1.052  0.0871 -0.0159  0.0224
  122ccc     H6 3414   7.253   6.056   1.156  0.2846 -0.0552  0.0324
  122ccc     C5 3415   7.195   6.137   0.959 -0.0098 -0.4064  0.1031
  122ccc     H7 3416   7.352   6.000   1.016 -0.2468  0.1537 -1.0396
  122ccc     H8 3417   7.088   6.136   0.935 -0.2534 -0.3553  1.1523
  122ccc     H9 3418   7.254   6.146   0.867  0.8696 -2.2872  0.4252
  122ccc     C6 3419   7.195   6.279   1.024  0.0368 -0.2635  0.4874
  122ccc     O1 3420   7.315   6.344   1.017 -0.6366 -0.2314 -0.4121
  122ccc     O2 3421   7.098   6.324   1.084  0.0986  0.1553 -0.2508
  122ccc    H10 3422   7.176   5.701   0.974  0.2552 -0.7626  0.0905
  122ccc    H11 3423   7.324   5.800   0.928  0.6319  0.9644  0.6626
  122ccc     C7 3424   7.154   5.837   0.808 -0.4774 -0.6211 -0.6004
  122ccc    H12 3425   7.128   5.944   0.799 -1.8990 -0.8862 -0.0174
  122ccc    H13 3426   7.057   5.785   0.805  0.5231 -2.5268 -0.9120
  122ccc     C8 3427   7.239   5.787   0.690 -0.2058 -0.6053  0.0848
  122ccc     O3 3428   7.241   5.664   0.663 -0.3819 -0.4832 -0.2211
  122ccc     O4 3429   7.331   5.869   0.643 -0.3236 -0.6809 -0.2554
  122ccc    H14 3430   7.291   6.435   1.042 -0.7684 -0.4817  0.4102
  122ccc    H15 3431   7.379   5.810   0.583 -0.3789 -0.1930 -0.7842
  122ccc    H16 3432   7.074   5.913   1.038 -0.2786 -2.1322 -0.8189
  123ccc     N1 3433   6.160   5.556   1.062  0.1349 -0.3036 -0.0073
  123ccc     H1 3434   6.120   5.603   0.982 -0.2972  0.2410  0.5193
  123ccc     C1 3435   6.093   5.443   1.129  0.6281  0.1681  0.5145
  123ccc     H2 3436   6.159   5.392   1.200  0.2187 -2.1881 -0.6937
  123ccc     C2 3437   6.040   5.344   1.020 -0.3274  0.0406  0.0281
  123ccc     H3 3438   6.005   5.483   1.180  0.2658 -0.1684  0.1601
  123ccc     H4 3439   5.999   5.397   0.933 -0.1588  2.5677  1.3739
  123ccc     H5 3440   5.964   5.281   1.065  0.6148 -1.4786 -0.4405
  123ccc     N2 3441   6.150   5.250   0.962  0.1896 -0.4252 -0.0611
  123ccc     C3 3442   6.088   5.154   0.851  0.0195 -0.9742  0.3971
  123ccc     C4 3443   6.225   5.167   1.059  0.2052  0.4654 -0.3606
  123ccc     H6 3444   6.258   5.235   1.138 -0.0100  0.8550 -0.6054
  123ccc     C5 3445   6.345   5.076   1.008 -0.9502  0.0276  0.4063
  123ccc     H7 3446   6.142   5.106   1.097  0.2577  0.4417 -0.2815
  123ccc     H8 3447   6.345   5.027   0.910  0.8596 -1.3942  1.0681
  123ccc     H9 3448   6.345   4.984   1.068  0.2691 -0.5861 -0.4929
  123ccc     C6 3449   6.475   5.151   1.039 -0.4967 -0.1431  0.9202
  123ccc     O1 3450   6.586   5.082   1.010 -0.1230  0.4496 -0.0257
  123ccc     O2 3451   6.469   5.262   1.088 -0.1496 -0.3535 -0.7312
  123ccc    H10 3452   5.981   5.146   0.870 -0.1834  0.3209 -0.0678
  123ccc    H11 3453   6.125   5.053   0.862 -0.3130 -1.2552 -0.8912
  123ccc     C7 3454   6.115   5.206   0.705  0.1972 -0.0020 -0.5753
  123ccc    H12 3455   6.223   5.198   0.688  0.0674  0.9571 -1.9770
  123ccc    H13 3456   6.094   5.314   0.703  1.5310  0.2909  0.2328
  123ccc     C8 3457   6.042   5.134   0.599  0.4126  1.1471 -0.3607
  123ccc     O3 3458   5.954   5.048   0.608  0.0310  0.7412  0.0422
  123ccc     O4 3459   6.066   5.175   0.474 -0.1692 -0.3339 -0.3983
  123ccc    H14 3460   6.645   5.158   1.020 -1.3383  1.3240  0.7231
  123ccc    H15 3461   6.134   5.244   0.485 -2.0103  1.6894 -1.0877
  123ccc    H16 3462   6.216   5.310   0.911  1.4209 -3.4137 -2.2365
  124ccc     N1 3463   6.191   4.782   2.390 -1.4168 -0.2243 -0.4465
  124ccc     H1 3464   6.141   4.839   2.323  1.1167  2.1635 -0.4943
  124ccc     C1 3465   6.186   4.634   2.394  0.3660  0.1747 -0.2078
  124ccc     H2 3466   6.281   4.598   2.353  1.2818  0.9121  1.1780
  124ccc     C2 3467   6.072   4.560   2.325  0.0308  0.0564 -0.2541
  124ccc     H3 3468   6.185   4.611   2.501  0.9455  1.0251 -0.0088
  124ccc     H4 3469   5.991   4.593   2.392  1.2492 -0.0561  1.3322
  124ccc     H5 3470   6.068   4.451   2.331  1.4181  0.0359  0.5103
  124ccc     N2 3471   6.045   4.606   2.180  0.2645  0.6549 -0.2668
  124ccc     C3 3472   5.894   4.590   2.145  0.3407  0.8813 -0.2434
  124ccc     C4 3473   6.138   4.526   2.076  0.0516 -0.1709  0.2951
  124ccc     H6 3474   6.238   4.534   2.120  0.1722  1.3499 -0.1960
  124ccc     C5 3475   6.135   4.580   1.932 -0.5772  0.8679  0.4307
  124ccc     H7 3476   6.110   4.421   2.080 -0.5728 -0.0197 -0.0902
  124ccc     H8 3477   6.168   4.684   1.928  1.4464  0.2315 -0.3569
  124ccc     H9 3478   6.035   4.584   1.887  0.6019  1.3703 -2.3051
  124ccc     C6 3479   6.215   4.504   1.835 -0.0598  0.4511 -0.4671
  124ccc     O1 3480   6.163   4.506   1.714  0.1319  0.0978 -0.2073
  124ccc     O2 3481   6.280   4.412   1.872  0.2265 -0.0228 -0.5703
  124ccc    H10 3482   5.856   4.490   2.167 -0.8183  1.6292  1.2931
  124ccc    H11 3483   5.880   4.603   2.037 -1.0390 -0.8796 -0.3279
  124ccc     C7 3484   5.798   4.692   2.212 -0.2452  0.4138 -0.3490
  124ccc    H12 3485   5.827   4.790   2.171  2.0693 -0.3275 -0.6150
  124ccc    H13 3486   5.808   4.692   2.321  0.2778  4.8034 -0.2342
  124ccc     C8 3487   5.658   4.648   2.181 -0.5169  0.6755 -0.4672
  124ccc     O3 3488   5.626   4.532   2.163  0.3690 -0.5513  0.3312
  124ccc     O4 3489   5.582   4.740   2.120 -0.2766  0.2092 -0.4886
  124ccc    H14 3490   6.136   4.598   1.702  0.5037  0.2034 -0.2444
  124ccc    H15 3491   5.501   4.686   2.111  0.3809 -0.9910  0.5137
  124ccc    H16 3492   6.068   4.706   2.173  0.0178  0.6378 -1.5202
  125ccc     N1 3493   6.514   4.953   2.784 -0.2824  0.4124 -0.4213
  125ccc     H1 3494   6.536   4.865   2.738  3.6052  2.0833 -2.2607
  125ccc     C1 3495   6.411   4.960   2.892 -0.3532 -0.3523 -0.4819
  125ccc     H2 3496   6.379   5.061   2.920 -1.2989 -0.9928  0.8273
  125ccc     C2 3497   6.454   4.896   3.030  0.1112 -0.0206  0.3372
  125ccc     H3 3498   6.319   4.908   2.862 -1.0131  0.1385  0.6197
  125ccc     H4 3499   6.377   4.920   3.103 -1.5160 -0.6435 -1.1258
  125ccc     H5 3500   6.548   4.940   3.065 -0.3493  1.2915  0.0021
  125ccc     N2 3501   6.466   4.744   3.025  0.3955 -0.2744 -0.0104
  125ccc     C3 3502   6.322   4.693   3.031 -0.1135  0.7296  0.4797
  125ccc     C4 3503   6.554   4.695   3.139  0.6134  0.3398 -0.1949
  125ccc     H6 3504   6.512   4.738   3.230  0.2115  0.9134 -0.6475
  125ccc     C5 3505   6.705   4.729   3.132 -0.6778  0.4222  0.1427
  125ccc     H7 3506   6.541   4.587   3.153  0.3319  0.3589 -0.2967
  125ccc     H8 3507   6.727   4.831   3.099 -0.2927  0.5509  0.7629
  125ccc     H9 3508   6.751   4.661   3.059  1.4623  0.6761  1.1847
  125ccc     C6 3509   6.773   4.696   3.260 -0.0073  0.2462 -0.3633
  125ccc     O1 3510   6.906   4.720   3.262  0.2002  0.7027 -0.2559
  125ccc     O2 3511   6.716   4.657   3.363  0.5892  0.9463 -0.6216
  125ccc    H10 3512   6.248   4.766   2.995 -1.0206  0.4795  1.7733
  125ccc    H11 3513   6.294   4.674   3.135  1.9855 -2.3896  0.5812
  125ccc     C7 3514   6.308   4.554   2.952  0.0406 -0.8876 -0.6938
  125ccc    H12 3515   6.372   4.487   3.011 -2.2520 -1.6336  1.0537
  125ccc    H13 3516   6.345   4.552   2.849  0.5568 -1.7912 -0.5052
  125ccc     C8 3517   6.165   4.504   2.954  0.4344  0.4905  0.0041
  125ccc     O3 3518   6.116   4.419   3.026  0.6287  0.7839  0.1332
  125ccc     O4 3519   6.099   4.542   2.843 -0.0933 -0.0333  0.1346
  125ccc    H14 3520   6.947   4.750   3.179  1.4000  0.3622  0.1895
  125ccc    H15 3521   6.019   4.487   2.842  0.3217 -0.6620  0.4153
  125ccc    H16 3522   6.518   4.715   2.941  0.4372  0.6283 -0.3015
  126SOL     OW 3523   3.423   3.068   0.830 -0.0641 -0.4172  0.1201
  126SOL    HW1 3524   3.408   3.078   0.736  0.2061 -0.4512  0.0717
  126SOL    HW2 3525   3.365   3.132   0.871 -0.6947 -0.8832 -0.0362
  127SOL     OW 3526   6.264   0.935   4.878 -0.2298  0.0751 -0.4067
  127SOL    HW1 3527   6.311   1.009   4.915  0.3277  0.2612 -1.4639
  127SOL    HW2 3528   6.258   0.954   4.784  1.0209 -1.7788 -0.9265
  128SOL     OW 3529   5.516   5.469   6.417  0.0415 -0.1310 -0.3023
  128SOL    HW1 3530   5.448   5.508   6.471  0.1324 -0.2153 -0.1290
  128SOL    HW2 3531   5.520   5.377   6.443  1.2628  0.1964  0.7630
  129SOL     OW 3532   3.291   6.011   7.260  0.1426 -0.1366  0.2148
  129SOL    HW1 3533   3.267   5.923   7.288  0.0537 -0.0454  0.4270
  129SOL    HW2 3534   3.257   6.068   7.328 -3.8800  0.4940 -2.0399
  130SOL     OW 3535   6.697   7.643   6.672 -0.2432 -0.4642 -0.2178
  130SOL    HW1 3536   6.677   7.568   6.617 -0.8010 -1.1775  0.9330
  130SOL    HW2 3537   6.618   7.698   6.667 -0.5010 -0.7841  0.2714
  131SOL     OW 3538   2.034   3.105   4.787  0.7137  0.2315  0.9111
  131SOL    HW1 3539   2.005   3.026   4.831 -1.4982  1.7459  2.3492
  131SOL    HW2 3540   2.119   3.124   4.826  1.2734 -1.3563  0.5603
  132SOL     OW 3541   6.206   4.498   7.633 -0.0062  1.0390 -0.2592
  132SOL    HW1 3542   6.192   4.430   7.699 -0.4523  0.3504 -1.0460
  132SOL    HW2 3543   6.267   4.460   7.571 -0.7856  1.0887 -1.0781
  133SOL     OW 3544   0.276   1.482   3.406 -0.5658 -0.1696  0.1642
  133SOL    HW1 3545   0.311   1.433   3.332  1.1047  2.2560 -0.7745
  133SOL    HW2 3546   0.237   1.560   3.366  1.6466  1.9351  1.8116
  134SOL     OW 3547   0.620   0.886   7.819  0.0158  0.2812  0.8300
  134SOL    HW1 3548   0.536   0.873   7.864 -0.5575 -0.3805 -0.3841
  134SOL    HW2 3549   0.655   0.967   7.857 -0.9296  0.2992  1.7132
  135SOL     OW 3550   2.635   0.026   6.004 -0.8392  0.7292 -0.0404
  135SOL    HW1 3551   2.701   0.011   5.937 -1.2400 -1.7936  0.0172
  135SOL    HW2 3552   2.653  -0.040   6.071 -2.7920  0.6066  0.4461
  136SOL     OW 3553   0.252   4.893   2.955 -0.3117 -0.3187 -0.2031
  136SOL    HW1 3554   0.215   4.870   2.869 -1.0229  0.7693 -0.2052
  136SOL    HW2 3555   0.335   4.846   2.958 -0.8150 -1.3083 -0.9947
  137SOL     OW 3556   2.154   0.355   4.446 -0.0170 -0.2536 -0.0925
  137SOL    HW1 3557   2.179   0.345   4.355 -2.1740  0.3270 -0.8182
  137SOL    HW2 3558   2.104   0.437   4.449 -1.3058 -1.0209  1.2622
  138SOL     OW 3559   5.612   3.704   6.418  0.3340 -0.0497  0.3610
  138SOL    HW1 3560   5.615   3.613   6.446  0.8554 -0.0180  0.4118
  138SOL    HW2 3561   5.696   3.720   6.375  0.3599  0.4773  0.5906
  139SOL     OW 3562   1.642   2.886   4.912  0.0915 -0.5441 -0.3030
  139SOL    HW1 3563   1.648   2.898   4.818  0.1631 -1.0087 -0.3638
  139SOL    HW2 3564   1.705   2.948   4.949 -0.2015 -0.1026 -0.5381
  140SOL     OW 3565   3.918   0.659   8.020 -0.2870  0.1113  0.0337
  140SOL    HW1 3566   3.979   0.589   7.998  0.9069  0.0028  3.2439
  140SOL    HW2 3567   3.849   0.616   8.069 -0.4877  0.9295  0.4903
  141SOL     OW 3568   6.801   6.416   7.441  0.1397 -0.8870  0.0479
  141SOL    HW1 3569   6.760   6.442   7.523  0.6499 -2.3871  0.8039
  141SOL    HW2 3570   6.886   6.459   7.442 -0.7718  1.1077 -0.8918
  142SOL     OW 3571   5.773   6.033   3.694 -0.1579 -0.1102  0.1457
  142SOL    HW1 3572   5.800   6.070   3.610  2.6218  0.7157  1.2659
  142SOL    HW2 3573   5.689   5.991   3.677 -0.5177  1.5108 -2.6125
  143SOL     OW 3574   7.778   0.174   3.717 -0.2991 -0.2614 -0.3592
  143SOL    HW1 3575   7.794   0.141   3.805 -1.5381  0.1338  0.0398
  143SOL    HW2 3576   7.799   0.101   3.659 -0.7788 -0.9863  0.3560
  144SOL     OW 3577   2.286   0.269   6.538  0.6756  1.0239  0.1755
  144SOL    HW1 3578   2.305   0.209   6.466  2.3828 -0.2388  1.5895
  144SOL    HW2 3579   2.244   0.344   6.497  2.1910  0.6423 -2.2373
  145SOL     OW 3580   4.977   6.718   6.603 -0.5035  0.3684  0.0352
  145SOL    HW1 3581   4.976   6.689   6.512 -2.1750  1.2116 -0.2537
  145SOL    HW2 3582   4.893   6.689   6.638 -0.3621  1.0442  0.9703
  146SOL     OW 3583   6.225   3.726   2.624  0.4361  0.5080  0.6491
  146SOL    HW1 3584   6.290   3.670   2.581 -0.1391  0.1006  0.3081
  146SOL    HW2 3585   6.241   3.813   2.588  2.1916  0.8715  2.1296
  147SOL     OW 3586   3.022   1.031   3.700 -0.7743  0.0937 -0.3662
  147SOL    HW1 3587   2.974   0.978   3.764  0.2227 -0.5026 -0.0903
  147SOL    HW2 3588   2.985   1.119   3.710  0.6014  0.4684  2.3753
  148SOL     OW 3589   3.212   3.363   0.309 -0.2366 -0.1785 -0.3640
  148SOL    HW1 3590   3.283   3.315   0.266 -0.0112 -0.8253  0.7051
  148SOL    HW2 3591   3.256   3.416   0.376 -0.5599  0.9941 -1.0457
  149SOL     OW 3592   0.539   5.697   2.129 -0.1059  0.1013  0.4215
  149SOL    HW1 3593   0.563   5.761   2.196  0.1727  1.1408 -0.6236
  149SOL    HW2 3594   0.607   5.630   2.135  0.1990  0.4372  0.8577
  150SOL     OW 3595   8.091   4.746   6.422  0.1330 -0.7189  0.4573
  150SOL    HW1 3596   8.146   4.759   6.499 -0.0908 -1.5173  0.7556
  150SOL    HW2 3597   8.135   4.676   6.373 -0.3261 -0.9886  0.4263
  151SOL     OW 3598   0.895   0.654   5.593 -0.3804 -0.0399 -0.4553
  151SOL    HW1 3599   0.939   0.620   5.671  0.1687 -0.5120 -0.9533
  151SOL    HW2 3600   0.847   0.580   5.558 -0.5582  0.1466 -0.6096
  152SOL     OW 3601   1.409   4.225   4.475  0.3195  0.2399  0.1336
  152SOL    HW1 3602   1.356   4.208   4.396  0.6835 -0.6110  0.0584
  152SOL    HW2 3603   1.451   4.309   4.458 -0.9132  0.8880  0.1450
  153SOL     OW 3604   8.002   3.035   0.491 -0.2433 -0.4408  0.0128
  153SOL    HW1 3605   8.092   3.028   0.461  0.1194  2.9879 -0.0651
  153SOL    HW2 3606   7.950   3.037   0.411 -0.0897  0.3762 -0.0730
  154SOL     OW 3607   4.071   4.464   3.203 -0.4938  0.1806 -0.2904
  154SOL    HW1 3608   4.011   4.502   3.268 -0.8174 -0.2300 -0.3413
  154SOL    HW2 3609   4.114   4.539   3.163  0.6397  0.3994  1.2751
  155SOL     OW 3610   1.946   2.231   5.851  0.0580 -0.3869 -0.1201
  155SOL    HW1 3611   1.895   2.160   5.889 -0.4498 -0.5244 -1.0424
  155SOL    HW2 3612   1.955   2.208   5.758 -0.3148  0.8561 -0.4871
  156SOL     OW 3613   5.859   0.513   3.046 -0.8250 -0.2898  0.2097
  156SOL    HW1 3614   5.861   0.576   2.974 -0.0464 -0.2628  0.2481
  156SOL    HW2 3615   5.927   0.543   3.106 -1.0589 -0.6611  0.6646
  157SOL     OW 3616   3.274   2.184   5.190  0.2288  0.8551 -0.0137
  157SOL    HW1 3617   3.222   2.109   5.163  1.8659 -1.0192  1.7132
  157SOL    HW2 3618   3.246   2.204   5.279  2.1035  0.0271  0.8229
  158SOL     OW 3619   0.412   5.318   1.846 -0.2077 -0.1948 -0.1840
  158SOL    HW1 3620   0.477   5.332   1.777  0.7380 -0.7532  0.5732
  158SOL    HW2 3621   0.368   5.403   1.855  0.6109  0.2770 -0.5171
  159SOL     OW 3622   3.423   5.133   2.379 -0.2889  0.1155  0.4870
  159SOL    HW1 3623   3.358   5.082   2.428 -1.3586  1.7102  0.8128
  159SOL    HW2 3624   3.428   5.216   2.426 -0.2115  1.1344 -1.2438
  160SOL     OW 3625   5.127   3.235   6.837  0.4641  0.6348 -0.0524
  160SOL    HW1 3626   5.123   3.192   6.751  1.5650 -1.0584  0.6800
  160SOL    HW2 3627   5.160   3.323   6.819  1.0906  0.1600 -1.3333
  161SOL     OW 3628   3.067   1.151   0.824 -0.6984  0.2111 -0.0513
  161SOL    HW1 3629   3.010   1.075   0.820  0.0627 -0.3200 -1.5019
  161SOL    HW2 3630   3.155   1.115   0.839 -0.5376  0.9228  0.8110
  162SOL     OW 3631   0.754   3.646   7.422 -0.7038 -0.0790 -0.3409
  162SOL    HW1 3632   0.798   3.577   7.373 -1.3341  0.6540 -2.0218
  162SOL    HW2 3633   0.661   3.637   7.399 -1.5873 -1.5973  3.1054
  163SOL     OW 3634   1.963   1.219   6.143 -0.0177  0.4046  0.4577
  163SOL    HW1 3635   1.924   1.262   6.067  0.9923  0.1202 -0.2419
  163SOL    HW2 3636   1.957   1.126   6.124 -1.8309  0.1941  1.7850
  164SOL     OW 3637   1.014   0.006   6.676 -0.1511  0.5046 -0.2142
  164SOL    HW1 3638   0.975  -0.082   6.674 -0.3410  0.5985 -0.7308
  164SOL    HW2 3639   0.943   0.064   6.702  0.4812  0.2592  2.3315
  165SOL     OW 3640   1.248   1.111   6.870 -0.5197  0.1516  0.2178
  165SOL    HW1 3641   1.209   1.198   6.863 -1.4296 -0.3149 -0.6838
  165SOL    HW2 3642   1.177   1.050   6.848 -0.0654 -0.8652  1.4122
  166SOL     OW 3643   3.234   1.043   5.863  0.5914  0.3410  0.5830
  166SOL    HW1 3644   3.207   1.085   5.782  1.3284 -0.4416 -0.0926
  166SOL    HW2 3645   3.152   1.020   5.907  0.1479  2.6952  1.1345
  167SOL     OW 3646   0.054   1.183   5.432  0.0573  0.2503 -0.0379
  167SOL    HW1 3647   0.008   1.255   5.476  2.3203  1.3574  0.7276
  167SOL    HW2 3648   0.083   1.127   5.504 -0.0359 -0.3643 -0.4794
  168SOL     OW 3649   0.206   5.711   1.394 -0.6452 -0.7997  0.5701
  168SOL    HW1 3650   0.240   5.725   1.483  0.0696 -0.1625  0.2075
  168SOL    HW2 3651   0.268   5.651   1.354 -0.3969 -0.2816  0.1700
  169SOL     OW 3652   3.570   1.071   7.771 -0.2621  0.1079 -0.6111
  169SOL    HW1 3653   3.598   1.146   7.823 -0.7550 -0.5969  0.7223
  169SOL    HW2 3654   3.628   1.072   7.695  1.8034  0.0572  0.8848
  170SOL     OW 3655   0.350   4.043   0.044 -0.4296  0.4078  0.2871
  170SOL    HW1 3656   0.291   4.118   0.047 -1.3119 -0.2412 -0.3322
  170SOL    HW2 3657   0.292   3.967   0.043  0.4699 -0.3527  2.1085
  171SOL     OW 3658   7.274   0.877   1.949 -0.2199 -0.1076 -0.0096
  171SOL    HW1 3659   7.356   0.911   1.984 -1.8178  2.6081  1.4263
  171SOL    HW2 3660   7.268   0.914   1.861 -0.9057  1.6743  0.7349
  172SOL     OW 3661   0.611   6.709   4.447 -0.3388 -0.2605 -0.0930
  172SOL    HW1 3662   0.613   6.717   4.352 -0.8310  0.5428 -0.0409
  172SOL    HW2 3663   0.525   6.673   4.467 -0.6206  0.4988  0.1028
  173SOL     OW 3664   5.828   7.734   2.986  0.4584 -0.5101  0.9764
  173SOL    HW1 3665   5.754   7.726   3.046  0.2336 -0.7501  0.6651
  173SOL    HW2 3666   5.833   7.650   2.942 -1.0021  0.4673 -1.2423
  174SOL     OW 3667   3.311   4.286   4.606  0.0935 -0.1075 -0.3192
  174SOL    HW1 3668   3.229   4.310   4.564 -0.5921  0.3348  1.2252
  174SOL    HW2 3669   3.346   4.368   4.640 -1.1963 -0.8350  3.1129
  175SOL     OW 3670   7.481   0.325   6.494 -0.5074  0.0077  0.7778
  175SOL    HW1 3671   7.557   0.269   6.509 -0.9050 -0.2344  2.0447
  175SOL    HW2 3672   7.425   0.273   6.436  0.8013  0.7002 -1.2044
  176SOL     OW 3673   2.957   1.212   5.332 -0.3328 -0.6365  0.2456
  176SOL    HW1 3674   2.899   1.282   5.301  0.8731  0.6654  0.8460
  176SOL    HW2 3675   2.898   1.151   5.378 -1.3713  0.1063 -0.0628
  177SOL     OW 3676   6.866   2.487   4.480 -0.1558 -0.9407  0.3590
  177SOL    HW1 3677   6.901   2.414   4.429 -2.2719 -0.7470 -1.5080
  177SOL    HW2 3678   6.861   2.560   4.418 -1.2573 -0.2071  1.2722
  178SOL     OW 3679   5.508   1.855   0.951 -0.0148  0.5256  0.0008
  178SOL    HW1 3680   5.467   1.769   0.949  0.7211  0.1030  1.5855
  178SOL    HW2 3681   5.576   1.848   1.018  0.6504  2.0840 -0.4630
  179SOL     OW 3682   6.287   0.980   0.292  0.0815 -0.2591 -0.3423
  179SOL    HW1 3683   6.259   1.072   0.297 -3.0876 -1.0756 -0.9397
  179SOL    HW2 3684   6.339   0.967   0.372 -0.8603  1.6202  0.6624
  180SOL     OW 3685   7.692   2.340   2.791  0.2557 -0.6990 -0.1395
  180SOL    HW1 3686   7.727   2.318   2.877  0.6550  1.2165  0.2370
  180SOL    HW2 3687   7.768   2.365   2.739 -0.0289 -1.4322 -0.9309
  181SOL     OW 3688   0.012   4.072   7.515 -0.1221 -0.1725 -0.4880
  181SOL    HW1 3689   0.051   4.088   7.601 -0.9391 -0.3560 -0.0741
  181SOL    HW2 3690   0.086   4.071   7.455  0.2937  2.1164 -0.1112
  182SOL     OW 3691   7.848   1.007   4.766 -0.0784  0.2460  0.4781
  182SOL    HW1 3692   7.780   1.074   4.764 -0.5786 -0.2122 -2.4311
  182SOL    HW2 3693   7.911   1.035   4.701  1.2716 -0.6146  1.3692
  183SOL     OW 3694   2.238   4.034   6.459  0.4942  0.6422  0.1636
  183SOL    HW1 3695   2.222   3.986   6.540  2.3364 -0.2670  0.0522
  183SOL    HW2 3696   2.213   3.973   6.390  2.4940 -0.1231  0.0298
  184SOL     OW 3697   1.195   7.031   4.434 -0.3219 -0.4005  0.2067
  184SOL    HW1 3698   1.235   7.057   4.351 -1.4265 -0.2517 -0.3001
  184SOL    HW2 3699   1.266   6.990   4.484  0.1982 -1.1466 -1.1004
  185SOL     OW 3700   5.045   1.853   1.118 -0.1174  0.4453  0.1675
  185SOL    HW1 3701   4.966   1.830   1.069 -2.2228 -0.7610  3.7422
  185SOL    HW2 3702   5.021   1.930   1.169  0.5046 -0.6290  2.2104
  186SOL     OW 3703   4.473   5.445   0.698 -0.5474  0.1903  0.4623
  186SOL    HW1 3704   4.482   5.383   0.626  0.0222 -0.6188  1.1965
  186SOL    HW2 3705   4.534   5.412   0.765 -0.7989  1.1173  1.1691
  187SOL     OW 3706   2.873   4.496   0.602 -0.0123 -0.0061 -0.6590
  187SOL    HW1 3707   2.893   4.575   0.552 -3.2475  0.3578 -1.5756
  187SOL    HW2 3708   2.846   4.432   0.537  1.4444 -1.5563  0.1814
  188SOL     OW 3709   2.374   2.455   6.433 -0.0554  0.1183  0.3006
  188SOL    HW1 3710   2.342   2.369   6.460 -1.9231  1.3074  2.2046
  188SOL    HW2 3711   2.294   2.507   6.420  0.9832  1.3373 -1.7574
  189SOL     OW 3712   4.229   6.525   7.136 -0.5653 -0.0485  0.0284
  189SOL    HW1 3713   4.303   6.582   7.155  0.0607 -1.1677  1.0360
  189SOL    HW2 3714   4.249   6.487   7.050 -0.4203  0.3307 -0.1080
  190SOL     OW 3715   0.095   6.838   6.396  0.0710 -0.2024 -0.3794
  190SOL    HW1 3716   0.154   6.842   6.320  1.7969 -0.9082  0.8521
  190SOL    HW2 3717   0.154   6.832   6.471 -1.5977  0.2402  1.0181
  191SOL     OW 3718   4.902   2.952   6.967  0.1316 -0.4498 -0.3076
  191SOL    HW1 3719   4.975   2.894   6.991 -0.3603 -1.1377 -0.4455
  191SOL    HW2 3720   4.853   2.903   6.901 -0.8854 -0.3126  0.3307
  192SOL     OW 3721   6.161   0.773   1.350 -0.5813 -0.3274 -0.2131
  192SOL    HW1 3722   6.121   0.847   1.304 -0.5191 -0.5021 -0.5544
  192SOL    HW2 3723   6.246   0.806   1.379 -0.3766 -0.3833 -0.7275
  193SOL     OW 3724   3.833   5.856   1.041 -0.3499 -0.2058  0.0684
  193SOL    HW1 3725   3.794   5.839   0.955 -0.3531 -0.9826  0.2149
  193SOL    HW2 3726   3.863   5.947   1.036 -1.2303  0.0697 -0.4127
  194SOL     OW 3727   0.789   0.700   3.623 -0.0690 -0.0462 -0.2888
  194SOL    HW1 3728   0.871   0.658   3.651 -0.4993 -1.0392 -0.4821
  194SOL    HW2 3729   0.763   0.753   3.699  1.8456  2.0376 -0.9657
  195SOL     OW 3730   1.346   1.815   7.586  0.2430  0.3222  0.4201
  195SOL    HW1 3731   1.289   1.832   7.511 -2.1577 -1.6371  1.6747
  195SOL    HW2 3732   1.391   1.734   7.563 -0.1429 -0.0281  0.9013
  196SOL     OW 3733   2.036   3.761   6.017  0.2005  0.2785  0.0737
  196SOL    HW1 3734   1.959   3.810   6.044 -1.0668  0.4610 -3.3880
  196SOL    HW2 3735   2.092   3.826   5.975  0.6594 -0.4435 -0.4447
  197SOL     OW 3736   3.027   0.143   4.897  0.1249 -0.3717 -0.4040
  197SOL    HW1 3737   3.034   0.090   4.818 -0.5865 -1.9790  0.5710
  197SOL    HW2 3738   2.965   0.096   4.953  0.2091  0.9918  0.9130
  198SOL     OW 3739   3.865   2.794   6.318  0.1364 -0.6762  0.6603
  198SOL    HW1 3740   3.890   2.820   6.407  0.0257  1.7887  0.0544
  198SOL    HW2 3741   3.922   2.845   6.261 -0.8633 -1.0135 -0.6953
  199SOL     OW 3742   2.028   7.014   6.211  0.5147  0.4190  0.4370
  199SOL    HW1 3743   2.044   7.059   6.294  0.6318 -1.4409  1.4654
  199SOL    HW2 3744   1.932   7.018   6.200  0.2319 -1.2922  1.8713
  200SOL     OW 3745   6.090   0.742   0.516 -0.6718 -0.3208 -0.1030
  200SOL    HW1 3746   6.049   0.691   0.586 -0.4005 -0.4309 -0.0220
  200SOL    HW2 3747   6.184   0.741   0.538 -0.8235  1.7050  0.8963
  201SOL     OW 3748   0.897   5.571   0.911 -0.9050  0.1209 -0.5524
  201SOL    HW1 3749   0.826   5.534   0.859 -0.1741 -1.9013 -0.2181
  201SOL    HW2 3750   0.860   5.578   0.999 -0.3690 -2.2401 -0.0638
  202SOL     OW 3751   7.097   6.868   3.861 -0.6601  0.2562  0.4564
  202SOL    HW1 3752   7.061   6.799   3.917  1.3433 -0.6798  0.6668
  202SOL    HW2 3753   7.142   6.927   3.922  1.6593 -0.8447 -0.0695
  203SOL     OW 3754   3.020   1.022   4.827  0.1060  0.4312  0.1126
  203SOL    HW1 3755   3.015   1.090   4.894  2.7688  3.3509 -2.3556
  203SOL    HW2 3756   3.072   0.952   4.868  0.1169  1.2997  1.6475
  204SOL     OW 3757   7.663   4.778   4.256 -0.0060 -1.3793 -0.1260
  204SOL    HW1 3758   7.695   4.689   4.242  1.5890 -0.7285 -0.9580
  204SOL    HW2 3759   7.717   4.813   4.327  2.5412  0.3072 -2.6703
  205SOL     OW 3760   2.506   3.952   5.454  0.5731 -0.1126 -0.7467
  205SOL    HW1 3761   2.439   4.016   5.479 -0.6384 -1.2085 -1.0897
  205SOL    HW2 3762   2.548   3.991   5.378  0.3105  0.5925 -0.5392
  206SOL     OW 3763   6.182   7.455   3.976 -0.1596 -0.5955  0.3720
  206SOL    HW1 3764   6.178   7.464   3.881 -1.1948 -2.0801  0.2481
  206SOL    HW2 3765   6.098   7.489   4.007  0.5311  0.7566  0.8805
  207SOL     OW 3766   1.764   4.566   2.944  0.0711 -0.0005  0.2576
  207SOL    HW1 3767   1.858   4.556   2.962  0.6419  1.0566 -1.7649
  207SOL    HW2 3768   1.753   4.530   2.856 -2.0392 -2.7742  1.5184
  208SOL     OW 3769   4.236   3.774   0.524 -0.3842  0.2660 -0.3549
  208SOL    HW1 3770   4.207   3.795   0.435 -0.3419  2.7207  0.1487
  208SOL    HW2 3771   4.179   3.824   0.581  0.3046 -0.4122  0.9791
  209SOL     OW 3772   2.497   3.232   7.496  0.1989 -0.4729  0.2067
  209SOL    HW1 3773   2.475   3.231   7.589 -1.0851  1.2583 -0.0285
  209SOL    HW2 3774   2.483   3.142   7.467 -1.5714 -0.5607  1.2244
  210SOL     OW 3775   6.849   5.005   7.931 -0.5046  1.0098 -0.0065
  210SOL    HW1 3776   6.902   5.081   7.959  0.8856  0.0052  0.2053
  210SOL    HW2 3777   6.802   5.036   7.854 -0.6846  2.3732  0.6164
  211SOL     OW 3778   4.333   5.388   1.932  0.3226  0.3397  0.1381
  211SOL    HW1 3779   4.244   5.421   1.923  0.6245  0.5730 -3.6519
  211SOL    HW2 3780   4.388   5.453   1.887  1.9001 -1.4437 -0.6867
  212SOL     OW 3781   6.539   6.895   0.074 -0.0540  0.1478 -0.0871
  212SOL    HW1 3782   6.505   6.975   0.114 -2.1833  1.1034 -3.3483
  212SOL    HW2 3783   6.473   6.829   0.091  0.7981 -0.4544  0.9969
  213SOL     OW 3784   4.460   0.441   2.342 -0.0988 -0.2412  0.1854
  213SOL    HW1 3785   4.473   0.529   2.306  0.8710 -0.8226 -0.9705
  213SOL    HW2 3786   4.544   0.421   2.384 -0.2444 -0.6863  0.2612
  214SOL     OW 3787   0.239   6.971   0.435 -0.1343 -0.1562 -0.1523
  214SOL    HW1 3788   0.223   6.938   0.523  1.7608  0.8177  0.6196
  214SOL    HW2 3789   0.162   7.024   0.415 -0.7301 -0.6549  0.7818
  215SOL     OW 3790   7.644   0.071   5.032  0.4007  0.2550 -0.2081
  215SOL    HW1 3791   7.572   0.111   4.984  0.0370 -0.7472 -0.5185
  215SOL    HW2 3792   7.608  -0.011   5.066  0.2532  1.4661  2.8764
  216SOL     OW 3793   7.252   6.864   0.196 -0.2920  0.1644  0.1007
  216SOL    HW1 3794   7.255   6.885   0.289  3.0385  1.6092 -0.1683
  216SOL    HW2 3795   7.183   6.920   0.161 -1.5660 -0.3657  1.6583
  217SOL     OW 3796   4.633   4.770   3.047  0.5420  0.2988  0.2120
  217SOL    HW1 3797   4.594   4.769   2.959  0.6699 -1.4433  0.1408
  217SOL    HW2 3798   4.577   4.830   3.097 -2.3646 -2.1116  0.1265
  218SOL     OW 3799   1.568   7.676   2.592 -0.5804 -0.6922 -0.5780
  218SOL    HW1 3800   1.553   7.583   2.579 -1.5738 -0.7575  0.8026
  218SOL    HW2 3801   1.663   7.686   2.590 -0.4437 -1.8390 -0.1327
  219SOL     OW 3802   7.390   6.377   5.586  0.2676  0.2455 -0.3789
  219SOL    HW1 3803   7.418   6.434   5.658  2.2504 -0.5630 -0.4527
  219SOL    HW2 3804   7.386   6.290   5.625 -2.2604  0.2847 -0.3901
  220SOL     OW 3805   7.281   0.380   0.498  0.3789  0.5378  0.1196
  220SOL    HW1 3806   7.294   0.311   0.564  0.9201  0.2700 -0.2623
  220SOL    HW2 3807   7.322   0.346   0.419  0.1414  1.0590 -0.2363
  221SOL     OW 3808   5.863   3.458   2.088 -0.6100 -0.0907  0.0513
  221SOL    HW1 3809   5.928   3.439   2.021 -0.3757 -1.3914  0.5994
  221SOL    HW2 3810   5.907   3.436   2.170 -1.1314  0.7748  0.5742
  222SOL     OW 3811   2.392   6.063   6.083 -0.4084 -0.0255  0.5494
  222SOL    HW1 3812   2.448   5.993   6.051 -0.8673 -0.6137  1.0239
  222SOL    HW2 3813   2.361   6.107   6.003  0.4451  0.0947  0.2738
  223SOL     OW 3814   1.449   0.092   5.909  0.3350 -0.0237 -0.2682
  223SOL    HW1 3815   1.509   0.110   5.836 -1.3994 -1.3398 -2.1458
  223SOL    HW2 3816   1.364   0.124   5.878 -0.3787 -0.2444  1.3722
  224SOL     OW 3817   7.386   6.520   7.179 -0.0031 -0.1854 -0.2443
  224SOL    HW1 3818   7.462   6.576   7.167 -0.6890  1.0407  0.8135
  224SOL    HW2 3819   7.314   6.567   7.138 -0.8856  0.5249  1.9360
  225SOL     OW 3820   6.576   4.199   4.180 -0.4423  0.1262 -0.7791
  225SOL    HW1 3821   6.640   4.266   4.202  0.8667 -0.9907 -1.0931
  225SOL    HW2 3822   6.578   4.137   4.253 -2.9137  1.2579  0.3693
  226SOL     OW 3823   0.433   3.162   7.639  0.1770 -0.1709  0.1208
  226SOL    HW1 3824   0.418   3.216   7.717  0.7988  1.0183 -0.5523
  226SOL    HW2 3825   0.511   3.199   7.599 -0.5914 -0.2191 -1.5143
  227SOL     OW 3826   0.579   6.059   7.197 -0.1902 -0.1541  0.3832
  227SOL    HW1 3827   0.588   5.964   7.196 -0.3623 -0.1741 -1.1129
  227SOL    HW2 3828   0.587   6.083   7.290  0.9360 -1.5070  0.6704
  228SOL     OW 3829   7.207   2.354   7.116 -0.1684 -0.0245  0.2349
  228SOL    HW1 3830   7.266   2.278   7.108  0.5004  0.6076 -1.4709
  228SOL    HW2 3831   7.122   2.316   7.138  0.4388 -1.1460  0.7323
  229SOL     OW 3832   5.799   2.349   4.857  0.0919 -0.0520  0.0246
  229SOL    HW1 3833   5.784   2.256   4.872 -0.9122  0.1637  0.4257
  229SOL    HW2 3834   5.730   2.393   4.906  1.7422  1.0088  1.5410
  230SOL     OW 3835   5.201   2.424   8.000 -0.0146 -0.5537  0.3685
  230SOL    HW1 3836   5.169   2.468   7.921 -0.4739  0.3291  1.0270
  230SOL    HW2 3837   5.183   2.331   7.984 -1.5082 -0.2421  0.0548
  231SOL     OW 3838   7.561   7.895   4.789  0.1548  0.0737 -0.2417
  231SOL    HW1 3839   7.471   7.920   4.809  0.2759  0.1307  0.2345
  231SOL    HW2 3840   7.564   7.801   4.806 -0.4684 -0.4499 -2.6277
  232SOL     OW 3841   6.327   0.628   3.564  0.5054 -0.4468  0.4719
  232SOL    HW1 3842   6.418   0.597   3.570  0.4581 -0.3826  1.7572
  232SOL    HW2 3843   6.334   0.712   3.517  1.7587  1.8647  4.2730
  233SOL     OW 3844   4.240   5.396   7.525 -0.4131 -0.3011  0.1179
  233SOL    HW1 3845   4.285   5.477   7.502 -1.3389 -0.2964 -1.8847
  233SOL    HW2 3846   4.226   5.402   7.619 -0.3710  1.8130  0.0293
  234SOL     OW 3847   6.654   3.493   5.687 -0.3970 -0.1235 -0.1521
  234SOL    HW1 3848   6.664   3.564   5.624  1.2156 -1.0800 -1.0259
  234SOL    HW2 3849   6.713   3.516   5.759 -0.1820 -0.3771 -0.2473
  235SOL     OW 3850   2.035   1.011   7.335  0.3940 -0.5660 -0.3028
  235SOL    HW1 3851   1.997   1.029   7.249 -0.0048  0.2509  0.0342
  235SOL    HW2 3852   2.129   1.023   7.322  0.2740  0.2814 -0.4617
  236SOL     OW 3853   6.690   0.990   2.470  0.5209  0.9144 -0.3437
  236SOL    HW1 3854   6.683   0.945   2.554  1.4106  0.8977 -0.2711
  236SOL    HW2 3855   6.751   1.062   2.486 -1.1487  2.4061 -0.3592
  237SOL     OW 3856   0.634   2.755   1.251  0.2062 -0.2249 -0.9610
  237SOL    HW1 3857   0.666   2.792   1.169 -0.1250  2.2155 -0.0862
  237SOL    HW2 3858   0.578   2.682   1.224  0.7505  0.0026 -2.8558
  238SOL     OW 3859   6.344   3.217   4.461  0.3448  0.4193 -0.3995
  238SOL    HW1 3860   6.404   3.145   4.443  0.2784  0.2401  0.0970
  238SOL    HW2 3861   6.267   3.176   4.499  0.5124  0.8025  0.3679
  239SOL     OW 3862   7.477   7.494   1.273  0.4450  0.1115 -0.1807
  239SOL    HW1 3863   7.471   7.447   1.356 -0.2041 -1.1823 -0.9153
  239SOL    HW2 3864   7.467   7.425   1.206 -1.1148  1.3533 -1.3082
  240SOL     OW 3865   3.555   8.028   2.800  0.0567  0.0809 -0.0887
  240SOL    HW1 3866   3.646   8.026   2.771  0.2394 -0.4992  0.4825
  240SOL    HW2 3867   3.535   8.120   2.815  0.1985  0.3144 -1.2747
  241SOL     OW 3868   2.817   3.513   5.304  0.1887  0.5018  0.3972
  241SOL    HW1 3869   2.759   3.477   5.371 -0.8964  2.4986  0.6048
  241SOL    HW2 3870   2.804   3.608   5.309  1.9395  0.8781 -0.9782
  242SOL     OW 3871   4.786   5.353   6.375  0.1746 -0.2610  0.3326
  242SOL    HW1 3872   4.804   5.325   6.285 -1.0050  3.3660 -1.1991
  242SOL    HW2 3873   4.692   5.342   6.385  0.3320 -0.8769  1.2763
  243SOL     OW 3874   1.443   5.076   4.346 -0.2971 -0.2383 -0.3286
  243SOL    HW1 3875   1.474   4.998   4.392  0.1047  0.2155  0.1813
  243SOL    HW2 3876   1.391   5.124   4.412 -1.2377 -0.4854 -0.8778
  244SOL     OW 3877   4.438   4.316   0.655 -0.5044  0.1906 -0.1258
  244SOL    HW1 3878   4.463   4.373   0.728 -0.0198 -0.3338  0.1196
  244SOL    HW2 3879   4.501   4.336   0.586  1.7832 -2.3341  1.0627
  245SOL     OW 3880   1.461   4.750   3.921 -0.4088 -0.8359 -0.0219
  245SOL    HW1 3881   1.408   4.828   3.935  0.3875 -0.5341  1.5432
  245SOL    HW2 3882   1.402   4.677   3.943 -0.3725 -0.5344  1.1373
  246SOL     OW 3883   1.887   6.975   7.743 -0.1387  0.2764  0.4452
  246SOL    HW1 3884   1.946   6.919   7.692 -0.9907  0.7995 -1.2066
  246SOL    HW2 3885   1.945   7.037   7.787  0.6409 -0.1553  0.0540
  247SOL     OW 3886   3.591   7.772   3.167 -0.0655  0.9667  0.4305
  247SOL    HW1 3887   3.530   7.845   3.169 -1.0992  0.1404  0.1433
  247SOL    HW2 3888   3.537   7.697   3.142  1.2577  0.3976 -0.8832
  248SOL     OW 3889   6.710   1.549   7.913 -0.1619  0.2964 -0.1112
  248SOL    HW1 3890   6.644   1.519   7.976 -0.5755 -0.5415 -0.9127
  248SOL    HW2 3891   6.677   1.518   7.828  0.6742  0.8986 -0.6649
  249SOL     OW 3892   5.224   7.942   6.317 -0.0449 -0.8308 -0.5526
  249SOL    HW1 3893   5.262   7.980   6.238  1.7596 -2.3139 -0.4596
  249SOL    HW2 3894   5.290   7.880   6.349 -1.3252 -1.3337  1.3219
  250SOL     OW 3895   3.345   0.066   0.837 -0.0745 -0.0347  0.1413
  250SOL    HW1 3896   3.352   0.156   0.869  0.0377 -0.2106  0.6170
  250SOL    HW2 3897   3.292   0.021   0.902  1.2420 -0.7182  0.7879
  251SOL     OW 3898   3.448   7.518   3.114 -0.0285  0.0501 -0.0683
  251SOL    HW1 3899   3.352   7.510   3.117 -0.0169 -0.0828 -0.0237
  251SOL    HW2 3900   3.479   7.442   3.163  0.0833  0.7906  1.0390
  252SOL     OW 3901   0.239   0.738   5.523 -0.6342 -0.2307 -0.2592
  252SOL    HW1 3902   0.280   0.785   5.595 -1.0940  0.4641 -0.4400
  252SOL    HW2 3903   0.211   0.655   5.561 -2.9323  1.0244  0.9816
  253SOL     OW 3904   0.373   2.539   1.956 -0.4019 -0.2624 -0.4948
  253SOL    HW1 3905   0.387   2.632   1.943 -1.8358  0.2232  1.1236
  253SOL    HW2 3906   0.281   2.532   1.982  0.0293 -1.9849  0.7212
  254SOL     OW 3907   5.265   3.866   6.941  0.3385 -0.0857  0.3566
  254SOL    HW1 3908   5.214   3.788   6.962  0.7331 -0.7415 -0.9849
  254SOL    HW2 3909   5.229   3.897   6.858  2.0637 -0.5678 -0.6293
  255SOL     OW 3910   3.457   3.056   0.533  0.4852  0.4214 -0.2177
  255SOL    HW1 3911   3.370   3.020   0.515  0.8706 -0.8518  0.3640
  255SOL    HW2 3912   3.449   3.149   0.511 -0.7502  0.1398 -1.0735
  256SOL     OW 3913   2.599   1.864   7.119  0.5359  0.1738  0.6341
  256SOL    HW1 3914   2.533   1.921   7.159 -1.5637  0.7287 -3.1720
  256SOL    HW2 3915   2.549   1.796   7.074  2.4402  0.5290 -2.3337
  257SOL     OW 3916   0.707   7.534   7.831 -0.1384  0.6958  0.1218
  257SOL    HW1 3917   0.644   7.462   7.820 -2.2740  2.4119  0.3304
  257SOL    HW2 3918   0.730   7.532   7.923  0.6111 -0.2899 -0.0655
  258SOL     OW 3919   0.121   4.904   1.037 -0.4816  0.0511 -0.1452
  258SOL    HW1 3920   0.060   4.969   1.071  0.1496  0.7998 -0.4367
  258SOL    HW2 3921   0.067   4.850   0.979 -1.1952 -0.2245  0.7412
  259SOL     OW 3922   6.740   1.060   2.202 -0.0601  0.1925  0.0926
  259SOL    HW1 3923   6.704   1.027   2.285 -0.4580  0.3643 -0.0117
  259SOL    HW2 3924   6.833   1.075   2.221 -0.3916  1.3743  0.8560
  260SOL     OW 3925   5.987   7.700   7.368 -0.0950 -0.3623  0.2273
  260SOL    HW1 3926   5.903   7.669   7.337 -0.4656 -0.6699  1.4732
  260SOL    HW2 3927   6.026   7.626   7.414  1.0109 -0.3252 -0.6029
  261SOL     OW 3928   0.213   7.578   5.230 -0.4738 -0.3309 -0.2874
  261SOL    HW1 3929   0.296   7.584   5.182 -0.2452  1.7041  0.2612
  261SOL    HW2 3930   0.148   7.554   5.163  0.0673  1.0973 -1.3777
  262SOL     OW 3931   0.572   6.787   4.187  0.0877  0.1772 -0.1071
  262SOL    HW1 3932   0.490   6.744   4.163  0.6749  0.4520 -2.9837
  262SOL    HW2 3933   0.546   6.878   4.206 -0.2894  0.2867 -1.0825
  263SOL     OW 3934   7.046   6.872   2.155  0.3343 -0.8577  0.1495
  263SOL    HW1 3935   7.081   6.958   2.133 -1.8823  0.1235  0.1479
  263SOL    HW2 3936   6.959   6.870   2.115  0.5147 -3.3273 -0.2908
  264SOL     OW 3937   1.550   3.886   1.813 -0.1980  0.5724  0.5838
  264SOL    HW1 3938   1.567   3.807   1.863  2.2735  0.1411 -0.7944
  264SOL    HW2 3939   1.477   3.863   1.755  0.4764 -0.7046  0.2223
  265SOL     OW 3940   4.237   2.439   4.593  0.0550  0.4017  0.7072
  265SOL    HW1 3941   4.229   2.378   4.520 -3.1778  0.4637  0.8340
  265SOL    HW2 3942   4.233   2.385   4.672  1.3751  0.4946  0.8505
  266SOL     OW 3943   3.704   0.335   1.912 -0.0382  0.0604 -0.0530
  266SOL    HW1 3944   3.769   0.400   1.938  0.9517 -1.7105  2.2400
  266SOL    HW2 3945   3.753   0.254   1.900 -1.5322 -0.8344 -0.5054
  267SOL     OW 3946   0.770   7.977   6.964  0.2731 -0.2215  0.3265
  267SOL    HW1 3947   0.781   7.989   6.870 -1.2712 -0.2544  0.1181
  267SOL    HW2 3948   0.690   7.926   6.973  1.3410 -1.7667  1.6125
  268SOL     OW 3949   6.897   2.311   7.897 -0.3677 -0.2640  0.2970
  268SOL    HW1 3950   6.913   2.380   7.833  0.5219 -1.9742 -1.4357
  268SOL    HW2 3951   6.869   2.357   7.976  0.8576  2.0893 -0.5535
  269SOL     OW 3952   4.985   0.841   2.552 -0.0116  0.6451 -0.3341
  269SOL    HW1 3953   4.964   0.834   2.645 -0.7621  0.8681 -0.4786
  269SOL    HW2 3954   5.049   0.912   2.548  1.3031 -0.4555  0.1831
  270SOL     OW 3955   2.859   6.236   6.953  0.3287 -0.2751 -0.2229
  270SOL    HW1 3956   2.855   6.152   6.999 -1.8092 -0.3039 -0.3828
  270SOL    HW2 3957   2.952   6.259   6.954  1.0772 -2.8906 -0.6313
  271SOL     OW 3958   2.508   6.931   4.798  0.3667  0.6170  0.4116
  271SOL    HW1 3959   2.440   6.922   4.730  0.9325 -0.1459 -0.0745
  271SOL    HW2 3960   2.460   6.937   4.880 -0.2940  0.0355  0.0748
  272SOL     OW 3961   0.803   3.499   3.451 -0.2520  0.2797 -0.0300
  272SOL    HW1 3962   0.745   3.433   3.412 -0.4903 -0.2666  1.2133
  272SOL    HW2 3963   0.775   3.504   3.542  2.1943 -0.5929  0.8315
  273SOL     OW 3964   3.847   5.431   5.956 -0.3085 -0.1287 -1.0167
  273SOL    HW1 3965   3.909   5.485   5.906  2.4368 -1.8498  0.2431
  273SOL    HW2 3966   3.848   5.470   6.044  0.5913 -1.3041 -0.4767
  274SOL     OW 3967   7.254   6.444   1.425  0.0118  0.4365 -0.0963
  274SOL    HW1 3968   7.218   6.504   1.491  0.8677  1.3909 -0.4624
  274SOL    HW2 3969   7.345   6.431   1.453 -0.1038 -0.5284 -0.1457
  275SOL     OW 3970   0.833   2.685   1.467 -0.2287  0.6676  0.5092
  275SOL    HW1 3971   0.874   2.605   1.501  0.1859  0.6896  0.0622
  275SOL    HW2 3972   0.751   2.655   1.429  0.3027  0.3282 -0.3940
  276SOL     OW 3973   1.069   5.856   7.425  0.1572  0.6529  0.3010
  276SOL    HW1 3974   1.045   5.873   7.516 -1.8229 -0.6254  0.0801
  276SOL    HW2 3975   1.014   5.916   7.374  1.2882  1.3966 -0.0903
  277SOL     OW 3976   5.349   6.477   7.249  0.3426 -0.9774  0.0015
  277SOL    HW1 3977   5.253   6.474   7.258  0.3102  0.7892  0.7129
  277SOL    HW2 3978   5.369   6.414   7.180 -1.6131  0.5448 -2.1018
  278SOL     OW 3979   0.838   3.169   5.269  0.2172  0.0205 -0.4153
  278SOL    HW1 3980   0.887   3.095   5.305 -0.3242  0.4008  1.2068
  278SOL    HW2 3981   0.867   3.176   5.178  0.4951 -1.9927 -0.5180
  279SOL     OW 3982   6.676   6.194   6.215 -0.6027 -0.2880  0.1531
  279SOL    HW1 3983   6.747   6.236   6.165 -1.1107  0.3234 -0.0707
  279SOL    HW2 3984   6.598   6.246   6.194 -1.1839 -1.1371  0.1556
  280SOL     OW 3985   5.310   1.741   5.822  0.0062 -0.5575  0.1672
  280SOL    HW1 3986   5.401   1.752   5.849 -0.1256  1.6229 -0.1158
  280SOL    HW2 3987   5.259   1.753   5.902 -0.0842 -0.9258  0.1679
  281SOL     OW 3988   6.698   3.656   5.467  0.0913  0.2588 -0.1112
  281SOL    HW1 3989   6.781   3.695   5.438 -1.0342  1.8688 -1.3213
  281SOL    HW2 3990   6.675   3.594   5.398  1.0107 -1.3805  0.9811
  282SOL     OW 3991   4.188   7.696   0.965 -0.0556  0.4704 -0.7064
  282SOL    HW1 3992   4.210   7.603   0.955 -1.2838  0.1530 -0.6234
  282SOL    HW2 3993   4.141   7.700   1.049  0.8482  1.3387 -0.2265
  283SOL     OW 3994   1.786   3.452   7.581 -0.3585  0.2635 -0.0435
  283SOL    HW1 3995   1.814   3.418   7.666  1.3490 -2.1131 -1.4403
  283SOL    HW2 3996   1.855   3.515   7.558 -0.8018  0.8794  0.2730
  284SOL     OW 3997   2.479   5.310   3.388  0.0237  0.4458 -0.1155
  284SOL    HW1 3998   2.486   5.244   3.457  1.6760  1.5067  0.7878
  284SOL    HW2 3999   2.414   5.372   3.421 -0.6042 -0.0448 -0.4036
  285SOL     OW 4000   4.152   1.197   2.238 -0.6931  0.1676  0.1985
  285SOL    HW1 4001   4.165   1.287   2.209  1.5539 -0.3560 -0.6392
  285SOL    HW2 4002   4.170   1.144   2.160  2.2127 -1.1299  1.5787
  286SOL     OW 4003   6.997   2.874   2.804  0.1595 -0.4820  0.5963
  286SOL    HW1 4004   7.017   2.875   2.710  0.2282 -0.6163  0.6085
  286SOL    HW2 4005   6.998   2.781   2.827  2.5199 -0.3737  1.2220
  287SOL     OW 4006   5.009   5.413   6.521  0.2970 -0.0151  0.7147
  287SOL    HW1 4007   5.001   5.497   6.566  0.5392  0.6238 -0.3932
  287SOL    HW2 4008   4.924   5.400   6.479  0.1325 -0.5147  1.1909
  288SOL     OW 4009   1.778   2.416   0.256 -0.0375  0.5488  0.0278
  288SOL    HW1 4010   1.745   2.485   0.314  1.0563 -1.7950  3.7586
  288SOL    HW2 4011   1.699   2.375   0.221 -0.8382  0.9658  1.2627
  289SOL     OW 4012   0.437   1.764   6.779  0.3375 -0.0091 -0.1761
  289SOL    HW1 4013   0.428   1.794   6.689 -1.5716 -0.4312 -0.1703
  289SOL    HW2 4014   0.512   1.704   6.777 -0.1579 -0.6175 -1.6573
  290SOL     OW 4015   4.336   2.447   7.841 -0.0263  0.6019  0.1547
  290SOL    HW1 4016   4.314   2.357   7.862  0.1685  0.9350  1.9344
  290SOL    HW2 4017   4.261   2.498   7.871 -1.3539  0.8990 -3.1995
  291SOL     OW 4018   3.519   7.099   7.804 -0.3321 -0.2875  0.1914
  291SOL    HW1 4019   3.612   7.121   7.792  0.1550 -1.7658  0.9878
  291SOL    HW2 4020   3.501   7.123   7.895 -0.2735 -1.4652  0.5291
  292SOL     OW 4021   7.462   5.166   1.122  0.1060 -0.1818 -0.7717
  292SOL    HW1 4022   7.533   5.151   1.184  0.5654  0.1964 -1.1913
  292SOL    HW2 4023   7.504   5.162   1.036 -0.2185  0.8523 -0.9955
  293SOL     OW 4024   2.910   7.341   3.656 -0.7337 -0.3970 -0.2283
  293SOL    HW1 4025   3.002   7.364   3.649 -0.8911 -0.0742 -1.3827
  293SOL    HW2 4026   2.904   7.289   3.736  0.2631  0.4475  0.4199
  294SOL     OW 4027   6.187   7.890   5.122  0.1635  0.4328 -0.2294
  294SOL    HW1 4028   6.227   7.824   5.178 -0.0037  0.4372 -0.1073
  294SOL    HW2 4029   6.257   7.954   5.108  0.0614  0.6851  0.3723
  295SOL     OW 4030   3.955   5.800   4.591 -0.0805  0.4533 -0.2624
  295SOL    HW1 4031   3.951   5.734   4.660  0.9794  1.9589  1.2998
  295SOL    HW2 4032   3.863   5.821   4.573 -0.4167 -1.1033 -0.4934
  296SOL     OW 4033   2.890   2.640   0.891 -0.4632 -0.4754  0.8289
  296SOL    HW1 4034   2.861   2.682   0.972 -0.6270 -0.3519  0.7081
  296SOL    HW2 4035   2.830   2.673   0.824  1.1959  1.4308  0.1742
  297SOL     OW 4036   0.834   1.331   6.246 -0.3936 -0.6174  0.6850
  297SOL    HW1 4037   0.865   1.401   6.189 -0.0996 -0.7536  0.6752
  297SOL    HW2 4038   0.769   1.284   6.194 -2.0244  0.8020  1.3447
  298SOL     OW 4039   7.104   1.230   0.026  0.1174 -0.5622 -0.2583
  298SOL    HW1 4040   7.023   1.272  -0.003  0.5060  0.4319  0.0279
  298SOL    HW2 4041   7.132   1.281   0.102  1.0206 -0.8677 -0.3655
  299SOL     OW 4042   2.484   1.945   1.714 -0.3590 -0.4202 -0.1862
  299SOL    HW1 4043   2.399   1.973   1.748 -1.9313 -2.1344 -2.3987
  299SOL    HW2 4044   2.509   2.014   1.652  1.3643  1.5075  2.4325
  300SOL     OW 4045   7.021   7.848   0.693  0.2609 -0.6264  0.6619
  300SOL    HW1 4046   6.954   7.801   0.644  1.5388 -0.7968 -1.0179
  300SOL    HW2 4047   7.021   7.807   0.779 -0.7244 -1.6542  0.1947
  301SOL     OW 4048   0.940   0.700   6.590 -0.2613 -0.1222 -0.9464
  301SOL    HW1 4049   0.854   0.726   6.621 -0.4339  0.0466 -1.5519
  301SOL    HW2 4050   0.938   0.604   6.591  0.2272 -0.1453  0.8705
  302SOL     OW 4051   1.781   7.923   6.806  0.1688  0.0303  0.0453
  302SOL    HW1 4052   1.761   7.894   6.895  1.5296  0.3042  0.4526
  302SOL    HW2 4053   1.695   7.932   6.764 -0.4207 -1.8972  0.7415
  303SOL     OW 4054   7.449   3.611   2.128 -0.2761 -0.4711 -0.2789
  303SOL    HW1 4055   7.375   3.568   2.171 -1.0661  0.3642 -0.7552
  303SOL    HW2 4056   7.513   3.542   2.114  0.3572 -0.6705  2.8910
  304SOL     OW 4057   5.631   1.333   4.372  0.3452  0.2778 -0.4360
  304SOL    HW1 4058   5.559   1.392   4.349 -2.2959 -2.0823  1.1210
  304SOL    HW2 4059   5.628   1.328   4.468  2.5379 -0.0375 -0.3330
  305SOL     OW 4060   0.660   2.145   5.721 -0.4583 -0.0738  0.3923
  305SOL    HW1 4061   0.720   2.075   5.693  0.3166  0.9081 -0.5287
  305SOL    HW2 4062   0.701   2.225   5.688 -1.9512  0.7021  0.3379
  306SOL     OW 4063   7.879   0.880   7.688  0.5125  0.3422  0.0760
  306SOL    HW1 4064   7.939   0.933   7.637  0.5287  0.6791  0.4413
  306SOL    HW2 4065   7.796   0.929   7.686  0.1900 -0.2154 -0.5907
  307SOL     OW 4066   5.162   0.895   0.308  0.2992  0.0419 -0.1325
  307SOL    HW1 4067   5.212   0.946   0.245 -1.4646  0.5764 -1.1660
  307SOL    HW2 4068   5.083   0.946   0.324 -0.4978 -1.3178  0.4988
  308SOL     OW 4069   2.635   6.742   0.593 -0.3865 -0.3916  0.0803
  308SOL    HW1 4070   2.627   6.792   0.675  2.0982  0.2827 -0.0238
  308SOL    HW2 4071   2.621   6.807   0.524 -3.1694 -1.0860 -0.1295
  309SOL     OW 4072   3.212   5.012   1.921  0.3341  0.7592 -0.5230
  309SOL    HW1 4073   3.216   5.044   1.831 -0.5672  2.6415  0.0501
  309SOL    HW2 4074   3.299   5.032   1.957  0.0755  1.7977 -0.4400
  310SOL     OW 4075   4.908   4.787   5.255 -0.4510  0.2349 -0.0250
  310SOL    HW1 4076   4.976   4.725   5.284 -0.6388  0.0183 -0.0409
  310SOL    HW2 4077   4.904   4.774   5.160 -0.3876  0.3799 -0.0484
  311SOL     OW 4078   3.638   5.731   1.721  0.7142  0.0367 -0.5759
  311SOL    HW1 4079   3.683   5.801   1.674  0.1754  0.8561  0.1008
  311SOL    HW2 4080   3.545   5.748   1.706  0.5440  0.0900  0.4646
  312SOL     OW 4081   0.644   6.782   0.658 -0.1675  0.0449  0.6783
  312SOL    HW1 4082   0.691   6.832   0.591  2.6064 -2.3562  0.5817
  312SOL    HW2 4083   0.599   6.847   0.711  0.3592  2.2814 -1.4532
  313SOL     OW 4084   7.073   6.913   4.598  0.3915  0.0333 -0.2748
  313SOL    HW1 4085   7.153   6.901   4.649 -0.1500  0.3862  0.6777
  313SOL    HW2 4086   7.040   6.998   4.626 -1.0682 -0.7276  0.3824
  314SOL     OW 4087   5.473   4.693   5.705  0.0978 -0.6590 -0.0444
  314SOL    HW1 4088   5.390   4.649   5.723 -0.2715  0.1977  0.3991
  314SOL    HW2 4089   5.448   4.783   5.685  0.7883 -0.7607 -1.4975
  315SOL     OW 4090   0.784   7.501   0.014  0.3356 -0.0910 -0.2407
  315SOL    HW1 4091   0.810   7.428   0.069 -0.5227  1.2723  2.1170
  315SOL    HW2 4092   0.860   7.559   0.013 -0.4209  1.0254  1.6260
  316SOL     OW 4093   1.745   2.502   7.206  0.6316  0.0258 -0.6529
  316SOL    HW1 4094   1.785   2.560   7.142 -0.6426  1.2596 -0.4086
  316SOL    HW2 4095   1.807   2.430   7.217  2.0662  1.1113 -1.3177
  317SOL     OW 4096   6.430   4.665   2.043  0.3384  0.0975 -0.1642
  317SOL    HW1 4097   6.491   4.594   2.023  0.3700  0.1902 -0.4033
  317SOL    HW2 4098   6.400   4.695   1.957  0.0507  0.1346 -0.0519
  318SOL     OW 4099   4.820   7.754   2.735 -0.6616  0.1653  0.4685
  318SOL    HW1 4100   4.800   7.731   2.825 -1.5376 -0.1191  0.2120
  318SOL    HW2 4101   4.914   7.735   2.725 -0.3540  1.0078  1.5474
  319SOL     OW 4102   4.387   6.572   1.375 -0.1877 -0.6571  0.4364
  319SOL    HW1 4103   4.388   6.639   1.443 -2.2899 -0.9411  0.8163
  319SOL    HW2 4104   4.345   6.496   1.417  0.1034 -1.4468 -0.6547
  320SOL     OW 4105   7.120   3.870   1.726 -0.5774  0.2916  0.4675
  320SOL    HW1 4106   7.123   3.793   1.783 -0.3971  0.9740  1.4105
  320SOL    HW2 4107   7.204   3.915   1.742 -0.3858  0.3295 -0.5810
  321SOL     OW 4108   6.213   0.314   0.304  0.1251 -0.9686 -0.1485
  321SOL    HW1 4109   6.190   0.313   0.211 -0.4474  0.1352 -0.0371
  321SOL    HW2 4110   6.151   0.375   0.343  1.2289 -0.3858  0.7312
  322SOL     OW 4111   1.908   5.041   5.936  0.6713 -0.1224  0.1270
  322SOL    HW1 4112   1.815   5.057   5.922  1.4755  2.6356 -3.7253
  322SOL    HW2 4113   1.931   4.975   5.870  1.5762 -0.2656  0.5648
  323SOL     OW 4114   0.485   6.910   2.057  0.2207  0.0990 -0.4471
  323SOL    HW1 4115   0.447   6.975   1.998 -0.3724 -0.4911 -0.7247
  323SOL    HW2 4116   0.551   6.865   2.003 -0.1177 -0.2448 -0.5758
  324SOL     OW 4117   3.686   7.643   5.129 -0.4641  0.8887 -0.3209
  324SOL    HW1 4118   3.742   7.709   5.170 -0.2867  0.5186  0.0383
  324SOL    HW2 4119   3.654   7.685   5.050 -0.9220  1.6682  0.2610
  325SOL     OW 4120   3.198   4.417   5.955  0.4164  0.3017  0.3073
  325SOL    HW1 4121   3.216   4.511   5.954  1.6413  0.0894  0.6464
  325SOL    HW2 4122   3.161   4.401   6.042  1.0764  0.3305  0.5997
  326SOL     OW 4123   6.315   6.264   1.294  0.2910 -0.1683 -0.3520
  326SOL    HW1 4124   6.225   6.294   1.280  1.5656  4.0928 -0.7241
  326SOL    HW2 4125   6.339   6.299   1.380  2.0429  0.1405 -0.9249
  327SOL     OW 4126   6.454   5.289   4.864  0.8557 -0.1108 -0.1116
  327SOL    HW1 4127   6.534   5.307   4.914  1.1430 -2.0667  0.2258
  327SOL    HW2 4128   6.485   5.264   4.777  0.6214 -0.6383 -0.0488
  328SOL     OW 4129   1.469   3.886   4.845  0.0570 -0.3943 -0.3581
  328SOL    HW1 4130   1.524   3.825   4.894  0.6341  0.5698  0.2165
  328SOL    HW2 4131   1.393   3.900   4.901 -0.1197 -0.6465 -0.5316
  329SOL     OW 4132   6.835   2.581   5.122 -0.0068 -0.1482  0.1747
  329SOL    HW1 4133   6.754   2.624   5.151 -0.0631  0.2309 -0.5380
  329SOL    HW2 4134   6.898   2.602   5.191 -1.4633 -3.9137  3.0076
  330SOL     OW 4135   1.470   5.487   2.611  0.1486 -0.1193 -0.4800
  330SOL    HW1 4136   1.500   5.578   2.620 -0.8929  0.2155 -0.2029
  330SOL    HW2 4137   1.483   5.450   2.698 -0.1889  0.0162 -0.3688
  331SOL     OW 4138   5.225   3.365   6.145 -0.0314 -0.0234 -0.3432
  331SOL    HW1 4139   5.288   3.331   6.082  0.0476 -0.6917  0.0996
  331SOL    HW2 4140   5.201   3.290   6.198 -1.3505  0.1754 -0.6281
  332SOL     OW 4141   7.280   2.513   7.784 -0.2665 -0.2978 -0.2289
  332SOL    HW1 4142   7.359   2.546   7.741 -1.6746  0.4331 -2.3878
  332SOL    HW2 4143   7.262   2.577   7.852  1.1829 -0.6816  0.5627
  333SOL     OW 4144   7.607   6.078   1.335  0.2852  0.3570  0.2382
  333SOL    HW1 4145   7.669   6.151   1.342  0.1544  0.7631 -1.8667
  333SOL    HW2 4146   7.569   6.089   1.247  0.5149 -2.4512 -0.2971
  334SOL     OW 4147   6.366   2.731   2.566  0.1592  0.1632 -0.0943
  334SOL    HW1 4148   6.304   2.669   2.604 -0.1697  0.1045 -0.7115
  334SOL    HW2 4149   6.344   2.815   2.607  0.5259 -0.0900  0.6499
  335SOL     OW 4150   2.892   4.934   3.296  0.2404  0.2773  0.3675
  335SOL    HW1 4151   2.839   4.855   3.286  0.9250 -0.0343 -0.9535
  335SOL    HW2 4152   2.892   4.974   3.209 -0.6000  2.0783  1.1479
  336SOL     OW 4153   5.470   6.801   3.033 -0.1914  0.0558  0.0606
  336SOL    HW1 4154   5.451   6.841   2.949 -0.6182 -0.4952 -0.1063
  336SOL    HW2 4155   5.516   6.869   3.082 -0.7118  0.6677 -0.2972
  337SOL     OW 4156   0.658   4.792   3.695  0.4038 -0.2941 -0.0378
  337SOL    HW1 4157   0.628   4.770   3.607 -0.0110 -2.4843  0.5903
  337SOL    HW2 4158   0.701   4.877   3.685 -0.3980 -0.0685 -2.1673
  338SOL     OW 4159   7.019   1.903   5.880 -0.2862 -0.4012 -0.2482
  338SOL    HW1 4160   7.015   1.949   5.795  0.9391  0.4009  0.1106
  338SOL    HW2 4161   7.087   1.837   5.868 -0.3037 -0.4668  0.0275
  339SOL     OW 4162   4.081   7.879   4.500  0.0055  0.1341  0.0230
  339SOL    HW1 4163   4.149   7.927   4.547  1.2608  0.0711 -1.6341
  339SOL    HW2 4164   4.015   7.861   4.566  0.8536  1.5833  1.3438
  340SOL     OW 4165   6.333   7.085   6.696  0.6142  0.0965 -0.7231
  340SOL    HW1 4166   6.342   7.167   6.647  0.6398 -0.1187 -1.0820
  340SOL    HW2 4167   6.417   7.075   6.741  0.2170  0.8335  0.2167
  341SOL     OW 4168   1.627   3.213   1.448 -0.0845 -0.3722 -0.4103
  341SOL    HW1 4169   1.533   3.224   1.436 -0.7219 -3.7902  0.4415
  341SOL    HW2 4170   1.651   3.144   1.386  2.1309  1.0823 -1.2968
  342SOL     OW 4171   0.333   2.099   5.754  0.4289 -0.1610  0.3200
  342SOL    HW1 4172   0.405   2.140   5.804  1.4892  0.5938 -1.7174
  342SOL    HW2 4173   0.339   2.006   5.777 -0.6124  0.4003  3.3233
  343SOL     OW 4174   0.625   5.250   3.600 -0.2135  0.0098 -0.1009
  343SOL    HW1 4175   0.645   5.332   3.555  0.2548  0.0652  0.2024
  343SOL    HW2 4176   0.596   5.191   3.530  1.2533 -0.1546 -0.6058
  344SOL     OW 4177   5.164   4.556   3.565  0.0766 -0.4811 -0.6402
  344SOL    HW1 4178   5.183   4.491   3.633  1.7175  0.9892  0.3859
  344SOL    HW2 4179   5.221   4.532   3.492  2.0775  0.7950  0.4250
  345SOL     OW 4180   5.281   5.881   6.763 -0.7252  0.2711 -0.0300
  345SOL    HW1 4181   5.321   5.879   6.675 -0.7913 -1.1078 -0.0434
  345SOL    HW2 4182   5.335   5.943   6.812  0.2366 -0.0775 -0.6220
  346SOL     OW 4183   2.706   7.051   3.673 -0.3911  0.1607  0.4432
  346SOL    HW1 4184   2.779   7.055   3.735  0.4213 -1.0066 -0.3883
  346SOL    HW2 4185   2.628   7.048   3.729  0.1685  1.4987  1.3458
  347SOL     OW 4186   6.139   0.507   3.717 -0.1690 -0.1279 -0.6636
  347SOL    HW1 4187   6.169   0.534   3.804  0.3156 -1.1037 -0.5156
  347SOL    HW2 4188   6.193   0.558   3.656  1.3026 -1.3101 -0.3987
  348SOL     OW 4189   6.965   2.001   4.551  0.0207 -0.5945  0.0236
  348SOL    HW1 4190   6.935   2.088   4.578  2.2468  0.1849  0.1689
  348SOL    HW2 4191   6.908   1.979   4.476  0.3809  1.6878 -1.0096
  349SOL     OW 4192   3.696   4.341   2.138  0.0234 -0.5089 -0.6408
  349SOL    HW1 4193   3.665   4.251   2.130  0.1159 -0.4825 -1.3780
  349SOL    HW2 4194   3.717   4.368   2.048  0.5024  0.0666 -0.3705
  350SOL     OW 4195   2.671   8.094   1.737  0.3276  0.0504 -0.1666
  350SOL    HW1 4196   2.722   8.029   1.786  0.4972  0.2062 -0.1335
  350SOL    HW2 4197   2.622   8.142   1.804 -2.5758 -2.3170 -0.3826
  351SOL     OW 4198   6.330   4.948   4.083  0.2399 -0.0216  0.4151
  351SOL    HW1 4199   6.381   4.942   4.164  0.6150 -2.1236  0.0810
  351SOL    HW2 4200   6.330   4.859   4.049 -2.3802  0.2130 -0.3965
  352SOL     OW 4201   5.687   2.980   4.487 -0.1743  0.5222  0.0018
  352SOL    HW1 4202   5.667   2.916   4.417  1.7678 -0.1412 -0.0146
  352SOL    HW2 4203   5.743   2.932   4.547 -1.5991  1.1683  1.9566
  353SOL     OW 4204   7.829   7.089   0.988  0.0911 -0.3010  0.1595
  353SOL    HW1 4205   7.910   7.055   0.951 -0.9600 -1.2907 -1.3623
  353SOL    HW2 4206   7.816   7.173   0.944 -0.6625 -1.0407 -1.1254
  354SOL     OW 4207   6.568   2.432   6.753  0.4016  0.3940  0.0939
  354SOL    HW1 4208   6.587   2.483   6.675  0.8150 -0.7967 -0.6192
  354SOL    HW2 4209   6.607   2.346   6.735 -0.4134 -0.2228  1.1651
  355SOL     OW 4210   5.683   0.800   4.531 -0.2726 -0.5209  0.5270
  355SOL    HW1 4211   5.598   0.805   4.487  0.5812  1.4971 -1.0842
  355SOL    HW2 4212   5.716   0.890   4.528  1.9921 -1.2824  0.9743
  356SOL     OW 4213   1.994   0.951   6.065 -0.0937 -0.7833 -0.2311
  356SOL    HW1 4214   1.899   0.942   6.056 -0.1028 -0.0528 -0.9035
  356SOL    HW2 4215   2.020   0.872   6.113 -1.2030 -0.3822  1.1085
  357SOL     OW 4216   3.512   3.685   0.344  0.2061  0.5330 -0.0905
  357SOL    HW1 4217   3.446   3.754   0.349  0.6066  0.8582  1.0047
  357SOL    HW2 4218   3.520   3.666   0.250  1.7843  3.6425 -0.7006
  358SOL     OW 4219   7.268   1.153   5.193  0.3219 -0.0100 -0.0202
  358SOL    HW1 4220   7.205   1.175   5.124 -1.9270 -0.8160  1.6393
  358SOL    HW2 4221   7.224   1.087   5.246  3.4574 -2.2215  0.0842
  359SOL     OW 4222   6.822   5.185   0.452  0.0337 -0.4023  0.0463
  359SOL    HW1 4223   6.783   5.156   0.534 -0.9363 -0.0012 -0.2565
  359SOL    HW2 4224   6.825   5.107   0.397  1.5533 -0.8876  0.7642
  360SOL     OW 4225   5.341   6.248   7.055 -0.3585  0.5252 -0.9434
  360SOL    HW1 4226   5.324   6.189   7.128  1.6263  1.0950  0.0379
  360SOL    HW2 4227   5.385   6.195   6.989  0.5086  0.6651 -0.4838
  361SOL     OW 4228   0.387   2.692   3.357  0.2931 -0.0188  0.1279
  361SOL    HW1 4229   0.385   2.614   3.413 -0.6494  0.3579  0.6537
  361SOL    HW2 4230   0.467   2.684   3.307 -0.4497 -2.0164 -0.8326
  362SOL     OW 4231   5.797   8.080   4.302  0.4819 -0.3977 -0.0177
  362SOL    HW1 4232   5.827   7.989   4.311 -1.1426 -0.9696 -0.0782
  362SOL    HW2 4233   5.796   8.113   4.391 -2.5301 -1.6934  0.5284
  363SOL     OW 4234   1.630   1.157   4.738  0.0861 -0.0141 -0.3917
  363SOL    HW1 4235   1.655   1.201   4.656  0.8709 -0.3355 -0.3306
  363SOL    HW2 4236   1.534   1.159   4.737  0.0915  1.9861 -0.2218
  364SOL     OW 4237   2.534   4.979   1.216 -0.2212  0.6301 -0.0564
  364SOL    HW1 4238   2.522   5.071   1.241  0.4513  1.3770 -2.2523
  364SOL    HW2 4239   2.625   4.960   1.238  0.6097  1.5258 -2.3557
  365SOL     OW 4240   7.089   2.947   6.431  0.1201 -0.3495 -0.3363
  365SOL    HW1 4241   7.052   3.010   6.369  1.2557  0.3167 -0.3669
  365SOL    HW2 4242   7.176   2.927   6.395 -0.4014 -2.3495 -0.6114
  366SOL     OW 4243   6.332   1.628   0.516  0.3035 -0.2724  0.4685
  366SOL    HW1 4244   6.240   1.656   0.509 -0.0470 -1.4697  0.0003
  366SOL    HW2 4245   6.332   1.540   0.480  1.4830 -0.6381  1.3409
  367SOL     OW 4246   7.850   5.987   0.784 -0.3554  0.5309 -0.5170
  367SOL    HW1 4247   7.762   5.957   0.809  0.5059 -0.6145  1.4122
  367SOL    HW2 4248   7.863   5.953   0.696 -1.1824 -0.8483 -0.1397
  368SOL     OW 4249   4.054   3.418   4.673 -0.0764 -0.1993 -0.7220
  368SOL    HW1 4250   3.974   3.414   4.725 -0.2694  0.8803 -0.9218
  368SOL    HW2 4251   4.108   3.346   4.706 -0.9401 -0.6628 -0.2864
  369SOL     OW 4252   3.899   5.046   5.291 -0.0484 -0.3479  0.0392
  369SOL    HW1 4253   3.861   4.997   5.363 -0.1551  0.8239  0.7999
  369SOL    HW2 4254   3.959   5.108   5.332  1.5215 -1.0886 -1.0296
  370SOL     OW 4255   2.770   4.896   4.831 -0.0057  0.1894 -0.2683
  370SOL    HW1 4256   2.723   4.975   4.857  0.3923  0.6154 -0.8209
  370SOL    HW2 4257   2.742   4.881   4.740 -0.1866 -0.3892 -0.1258
  371SOL     OW 4258   6.656   4.969   3.768 -0.0834  0.1096  0.2680
  371SOL    HW1 4259   6.716   4.967   3.693  0.5160  0.1829  0.7400
  371SOL    HW2 4260   6.573   4.937   3.732  0.3151 -0.2946 -0.3252
  372SOL     OW 4261   6.419   6.304   2.446 -0.1801  0.9379  0.2025
  372SOL    HW1 4262   6.494   6.351   2.481  0.7562 -0.1707 -0.2510
  372SOL    HW2 4263   6.394   6.353   2.368 -0.0558  1.4252  0.4685
  373SOL     OW 4264   6.698   3.844   1.326  0.6322  0.5568  0.1500
  373SOL    HW1 4265   6.616   3.859   1.278  1.1577  1.1933 -0.5617
  373SOL    HW2 4266   6.681   3.765   1.378 -0.7260  1.1638  0.6753
  374SOL     OW 4267   7.046   7.521   7.456  0.0523 -0.1679  0.0525
  374SOL    HW1 4268   7.068   7.571   7.535  1.9673  0.0795 -0.6033
  374SOL    HW2 4269   7.126   7.475   7.432 -1.2313 -2.4238 -0.2473
  375SOL     OW 4270   5.077   5.384   3.642 -0.1262 -0.3710  0.4733
  375SOL    HW1 4271   4.990   5.403   3.608 -0.8547  0.2429  2.5324
  375SOL    HW2 4272   5.061   5.336   3.723  1.5253 -1.8896 -0.0232
  376SOL     OW 4273   7.687   5.701   1.446 -0.0169  0.8350 -0.1969
  376SOL    HW1 4274   7.732   5.617   1.442 -1.2868  0.0808  0.5076
  376SOL    HW2 4275   7.624   5.698   1.374  0.0095  1.2222 -0.2366
  377SOL     OW 4276   1.389   4.537   2.861  0.6977  0.1523 -0.0201
  377SOL    HW1 4277   1.344   4.500   2.937 -0.6045 -0.5037 -1.0736
  377SOL    HW2 4278   1.321   4.583   2.813  1.5844  0.8800 -0.6177
  378SOL     OW 4279   1.229   2.210   2.424 -0.1420 -0.6473 -0.5833
  378SOL    HW1 4280   1.177   2.132   2.442  0.3306 -0.6707  0.8432
  378SOL    HW2 4281   1.315   2.190   2.462 -0.0061  0.5386 -0.2250
  379SOL     OW 4282   0.372   3.187   4.172 -0.3990 -0.3118 -0.3542
  379SOL    HW1 4283   0.402   3.164   4.260 -1.1977 -0.0573 -0.0069
  379SOL    HW2 4284   0.451   3.186   4.119  0.6169  2.1915  0.9033
  380SOL     OW 4285   7.067   2.650   6.294  0.5341  0.2525  0.7623
  380SOL    HW1 4286   6.990   2.705   6.308  0.6476  0.6333 -0.0631
  380SOL    HW2 4287   7.123   2.668   6.369 -0.7726 -1.0979  2.1495
  381SOL     OW 4288   2.129   6.161   5.203  0.3495 -0.0295  0.2715
  381SOL    HW1 4289   2.069   6.235   5.208  0.2746  0.3585 -3.4163
  381SOL    HW2 4290   2.207   6.190   5.250 -0.8944  0.9541  1.8394
  382SOL     OW 4291   2.690   0.253   7.741  0.4646  0.0120 -0.4403
  382SOL    HW1 4292   2.625   0.323   7.742 -0.4144 -0.6491  2.7135
  382SOL    HW2 4293   2.773   0.295   7.763  0.0973  0.2046  0.6165
  383SOL     OW 4294   7.717   7.680   3.518 -0.5685 -0.3047 -0.3873
  383SOL    HW1 4295   7.797   7.662   3.469  1.2221  1.1779  1.7603
  383SOL    HW2 4296   7.716   7.776   3.527 -2.2744 -0.3416  0.1400
  384SOL     OW 4297   7.796   3.049   3.643 -0.5465  0.2574 -0.4013
  384SOL    HW1 4298   7.885   3.078   3.624 -0.3219  0.3290  0.7046
  384SOL    HW2 4299   7.750   3.056   3.559  0.3182  0.8319 -0.8419
  385SOL     OW 4300   4.409   6.982   1.370 -0.4021 -0.5697  0.1871
  385SOL    HW1 4301   4.438   7.072   1.378  1.4215 -1.2328  2.2533
  385SOL    HW2 4302   4.483   6.935   1.332 -0.8089 -1.3994  0.3724
  386SOL     OW 4303   6.814   4.438   1.452  0.3728 -0.1083  0.1498
  386SOL    HW1 4304   6.750   4.451   1.381 -1.0990  1.4736  1.6428
  386SOL    HW2 4305   6.889   4.491   1.426 -0.6424  1.4824  0.2671
  387SOL     OW 4306   5.972   3.429   4.220  0.2969 -0.1007  0.4971
  387SOL    HW1 4307   5.961   3.337   4.246  0.5580 -0.2882 -0.0459
  387SOL    HW2 4308   5.884   3.467   4.227  0.4936  0.1025  2.5476
  388SOL     OW 4309   5.150   3.814   0.737  0.0621  0.1064 -0.0570
  388SOL    HW1 4310   5.128   3.726   0.707  1.5304 -0.0491 -0.7643
  388SOL    HW2 4311   5.124   3.872   0.665 -2.0738  0.4498  0.9001
  389SOL     OW 4312   0.480   6.317   4.562  0.6446  0.6378  0.5245
  389SOL    HW1 4313   0.575   6.325   4.574  0.6394 -1.0649  2.0937
  389SOL    HW2 4314   0.469   6.238   4.510  0.0407 -0.2573  1.9670
  390SOL     OW 4315   2.211   1.170   6.237  0.3637 -0.3517 -0.9183
  390SOL    HW1 4316   2.212   1.126   6.322  1.7906  0.9453 -0.2068
  390SOL    HW2 4317   2.119   1.187   6.219 -0.0145 -1.3805 -0.0366
  391SOL     OW 4318   1.030   6.423   2.142 -0.2293  0.2330 -0.7384
  391SOL    HW1 4319   1.039   6.517   2.123 -2.1203  0.5498 -0.2268
  391SOL    HW2 4320   0.949   6.416   2.192 -0.4408 -1.7688 -1.2894
  392SOL     OW 4321   7.004   6.357   7.867 -0.0466  0.4142  0.2897
  392SOL    HW1 4322   7.079   6.380   7.922  0.1929  0.1469  0.0772
  392SOL    HW2 4323   7.018   6.265   7.843 -0.9758  0.0468  1.0996
  393SOL     OW 4324   7.366   7.718   0.061 -1.0521 -0.0689  0.0165
  393SOL    HW1 4325   7.337   7.802   0.096  0.3570 -0.1242  1.4794
  393SOL    HW2 4326   7.319   7.653   0.113 -0.6712 -0.1576  0.2606
  394SOL     OW 4327   0.449   6.873   5.828 -0.7285 -0.2881 -0.1318
  394SOL    HW1 4328   0.445   6.779   5.810  1.2198 -0.2348 -1.0423
  394SOL    HW2 4329   0.508   6.908   5.761 -1.0419  1.5274  0.4809
  395SOL     OW 4330   2.567   2.357   4.746  0.4031  0.0471  0.6017
  395SOL    HW1 4331   2.657   2.370   4.715  0.0380  1.6145  0.1158
  395SOL    HW2 4332   2.514   2.415   4.692 -0.7347  0.1256  1.7451
  396SOL     OW 4333   3.802   1.153   0.878 -0.3163 -0.0945  0.0840
  396SOL    HW1 4334   3.868   1.113   0.822 -0.3677  1.2707 -0.9987
  396SOL    HW2 4335   3.772   1.082   0.935  1.7765 -0.8240  0.3343
  397SOL     OW 4336   3.706   8.031   7.526  0.0520 -0.0098  0.4537
  397SOL    HW1 4337   3.721   7.992   7.613 -1.2041 -0.1199  0.6354
  397SOL    HW2 4338   3.786   8.081   7.508 -0.2193  1.1795  2.2965
  398SOL     OW 4339   6.429   1.734   6.597  0.5203 -0.5862  0.0457
  398SOL    HW1 4340   6.356   1.763   6.542  1.3437  0.8528 -0.3323
  398SOL    HW2 4341   6.506   1.744   6.541  1.2319 -0.3213  1.0550
  399SOL     OW 4342   1.927   5.433   7.075  0.2441  0.4393 -0.0377
  399SOL    HW1 4343   1.926   5.526   7.098 -0.4396  1.1052 -2.4513
  399SOL    HW2 4344   1.839   5.417   7.039  0.1256 -1.3240  0.9625
  400SOL     OW 4345   1.354   2.175   7.204 -0.2723  0.0533 -0.1093
  400SOL    HW1 4346   1.344   2.242   7.271 -0.9541 -0.4833  0.3353
  400SOL    HW2 4347   1.335   2.220   7.122 -1.1109  0.3150  0.2265
  401SOL     OW 4348   1.061   5.281   0.609 -0.0480 -0.3793 -0.3802
  401SOL    HW1 4349   1.140   5.298   0.660  0.4611 -1.4987 -0.7553
  401SOL    HW2 4350   1.007   5.227   0.666 -1.0114  1.1961  0.2557
  402SOL     OW 4351   4.077   4.164   4.468 -0.3324 -0.5133  0.2436
  402SOL    HW1 4352   4.080   4.125   4.380 -2.7804  1.6874 -0.9638
  402SOL    HW2 4353   4.131   4.243   4.461  1.2128 -1.4019  1.4355
  403SOL     OW 4354   7.353   0.284   1.028 -0.0752 -0.0826  0.2073
  403SOL    HW1 4355   7.394   0.254   1.110  1.1898 -0.5321 -0.5566
  403SOL    HW2 4356   7.284   0.221   1.012  0.5676 -0.8080  0.2248
  404SOL     OW 4357   5.278   5.707   2.579  0.3769 -0.2371 -0.2575
  404SOL    HW1 4358   5.300   5.652   2.654 -1.3069 -0.3500  0.1875
  404SOL    HW2 4359   5.361   5.747   2.553  1.1034 -0.7369  1.2273
  405SOL     OW 4360   4.977   3.870   2.947 -0.2983 -0.1499  0.0578
  405SOL    HW1 4361   4.948   3.785   2.983 -2.4983  0.9012  0.9748
  405SOL    HW2 4362   5.008   3.849   2.859 -1.6010 -1.8170 -0.0591
  406SOL     OW 4363   7.760   0.979   3.137 -0.5345  0.1534 -0.3804
  406SOL    HW1 4364   7.835   0.919   3.133 -0.9505 -0.3339 -0.9927
  406SOL    HW2 4365   7.786   1.044   3.202  1.1073  0.9156 -1.7004
  407SOL     OW 4366   4.696   2.218   0.261 -0.1093 -0.5086 -0.3091
  407SOL    HW1 4367   4.667   2.309   0.269 -0.6975 -0.7048 -0.1937
  407SOL    HW2 4368   4.726   2.210   0.171 -0.1684 -0.2348 -0.3530
  408SOL     OW 4369   2.896   4.585   4.374 -0.4243  0.1918 -0.4143
  408SOL    HW1 4370   2.860   4.580   4.286 -0.6133 -0.3446 -0.3125
  408SOL    HW2 4371   2.940   4.670   4.378 -2.2732  1.2028 -0.3192
  409SOL     OW 4372   4.497   7.928   2.881  0.3176  0.0764 -0.1729
  409SOL    HW1 4373   4.443   8.006   2.866 -0.4591 -0.4638 -0.2641
  409SOL    HW2 4374   4.434   7.860   2.905  1.1706 -0.0167  1.9902
  410SOL     OW 4375   6.847   3.557   7.433  0.4075 -0.0559  0.5889
  410SOL    HW1 4376   6.769   3.599   7.396 -1.1684 -1.9682  1.5268
  410SOL    HW2 4377   6.913   3.625   7.433  0.1273  0.5931 -4.2346
  411SOL     OW 4378   1.883   5.411   5.174 -0.0496  0.4263  0.0179
  411SOL    HW1 4379   1.921   5.378   5.255 -3.2180 -2.2791  0.6034
  411SOL    HW2 4380   1.860   5.502   5.194 -0.6219 -0.1302  2.1557
  412SOL     OW 4381   4.381   5.072   7.251 -0.0629  0.3957  0.2641
  412SOL    HW1 4382   4.397   5.102   7.340  0.9513 -0.8393  0.5236
  412SOL    HW2 4383   4.360   5.152   7.202  0.2090  1.1976  1.4231
  413SOL     OW 4384   6.387   6.380   3.850 -0.6138 -0.2699 -0.5194
  413SOL    HW1 4385   6.321   6.318   3.819 -0.7257 -0.4362  0.0510
  413SOL    HW2 4386   6.461   6.325   3.877 -0.5838 -0.1336 -0.3226
  414SOL     OW 4387   3.286   2.128   7.479 -0.6530  0.2810  0.2315
  414SOL    HW1 4388   3.380   2.128   7.499 -0.2092  3.7592 -1.2067
  414SOL    HW2 4389   3.245   2.170   7.555 -0.9591 -0.3559  0.4288
  415SOL     OW 4390   1.178   5.484   4.803  0.0937 -0.5832 -0.1539
  415SOL    HW1 4391   1.234   5.561   4.814  0.1797 -0.8444  1.6413
  415SOL    HW2 4392   1.234   5.418   4.762  0.2483  0.0420 -0.9720
  416SOL     OW 4393   0.768   1.007   6.569  0.6009  0.2353  0.0075
  416SOL    HW1 4394   0.691   1.033   6.519  1.2430  1.2679 -0.4947
  416SOL    HW2 4395   0.748   0.919   6.602 -0.8849  0.6092  0.1368
  417SOL     OW 4396   3.096   0.136   4.203  0.0988 -0.5265 -0.1622
  417SOL    HW1 4397   3.181   0.126   4.245 -0.0633  0.6217  0.4805
  417SOL    HW2 4398   3.111   0.200   4.133 -0.2173 -0.3731 -0.0912
  418SOL     OW 4399   7.697   1.811   0.860 -0.9430  0.3284  0.4807
  418SOL    HW1 4400   7.698   1.890   0.914  0.7829  0.6559  0.0485
  418SOL    HW2 4401   7.758   1.831   0.788  2.0160 -2.4199  1.9644
  419SOL     OW 4402   6.965   1.230   6.636 -0.1906  0.1738  0.1565
  419SOL    HW1 4403   6.997   1.153   6.683 -1.4529 -0.4528  0.0152
  419SOL    HW2 4404   7.009   1.226   6.551 -0.1911 -0.3429  0.1799
  420SOL     OW 4405   6.708   6.927   4.696  0.2601  0.4844  0.2895
  420SOL    HW1 4406   6.747   7.009   4.667 -0.9971  1.1588  0.4451
  420SOL    HW2 4407   6.782   6.866   4.702  0.8392  0.6794 -2.8588
  421SOL     OW 4408   2.603   7.712   0.302 -0.4526  0.0534  0.2251
  421SOL    HW1 4409   2.517   7.695   0.341 -0.1159 -1.0396  0.5522
  421SOL    HW2 4410   2.593   7.793   0.252 -1.5526  0.1579  0.6110
  422SOL     OW 4411   1.382   2.010   7.765  0.3816 -0.4476  0.6442
  422SOL    HW1 4412   1.358   1.946   7.699 -0.0320 -1.2434  1.5315
  422SOL    HW2 4413   1.346   2.093   7.733 -2.5151 -1.3533  1.2785
  423SOL     OW 4414   7.137   7.380   2.730 -0.1029  0.6995 -0.8104
  423SOL    HW1 4415   7.182   7.464   2.718 -0.6565  1.0892 -0.2406
  423SOL    HW2 4416   7.056   7.390   2.679 -0.4784  0.7712 -0.2159
  424SOL     OW 4417   3.407   7.976   2.463 -0.3107 -0.2841  0.0169
  424SOL    HW1 4418   3.347   7.910   2.497  0.1167 -0.4875  0.3834
  424SOL    HW2 4419   3.378   8.058   2.503  0.3984 -0.5715  1.1688
  425SOL     OW 4420   1.994   3.679   1.358 -0.7261  0.2596  0.3686
  425SOL    HW1 4421   1.999   3.660   1.452  1.2719 -0.6633  0.1187
  425SOL    HW2 4422   1.928   3.619   1.325 -1.4282  0.5695  1.1727
  426SOL     OW 4423   5.555   5.144   0.342  0.0024 -0.5062 -0.1377
  426SOL    HW1 4424   5.579   5.197   0.267  0.4163 -1.9159 -1.0328
  426SOL    HW2 4425   5.621   5.075   0.345 -1.6551 -2.1805 -0.2714
  427SOL     OW 4426   6.234   7.816   3.141  0.0567 -0.6200 -0.0584
  427SOL    HW1 4427   6.270   7.882   3.201 -0.5850 -1.4103  1.2419
  427SOL    HW2 4428   6.153   7.855   3.109 -0.2144 -0.6633  0.5470
  428SOL     OW 4429   7.491   4.154   7.560 -0.5410 -0.2682 -0.5046
  428SOL    HW1 4430   7.520   4.167   7.469 -0.6448  0.2873 -0.4632
  428SOL    HW2 4431   7.546   4.214   7.611 -1.1795  0.1820 -0.3247
  429SOL     OW 4432   1.474   5.531   0.281  0.4647 -0.6504 -0.4191
  429SOL    HW1 4433   1.513   5.616   0.301 -0.4376 -0.3671  0.1803
  429SOL    HW2 4434   1.456   5.533   0.187  1.9545 -0.8270 -0.7395
  430SOL     OW 4435   0.501   3.512   6.909 -0.1573  0.1773 -0.7183
  430SOL    HW1 4436   0.542   3.425   6.910  1.7387  1.0243  0.2022
  430SOL    HW2 4437   0.441   3.511   6.983 -0.0578 -0.3018 -0.6362
  431SOL     OW 4438   2.183   0.685   2.833 -0.6970  0.0673 -0.4857
  431SOL    HW1 4439   2.161   0.739   2.908  0.5419  0.1893 -0.2004
  431SOL    HW2 4440   2.246   0.736   2.783 -1.2794 -0.1374 -1.4704
  432SOL     OW 4441   6.277   1.233   6.392 -0.2166  0.1021 -0.2609
  432SOL    HW1 4442   6.238   1.239   6.306 -0.2937 -1.4124 -0.3503
  432SOL    HW2 4443   6.252   1.147   6.425  0.9770  0.0818  0.6893
  433SOL     OW 4444   3.299   4.049   1.981 -0.1956  0.0080  0.6472
  433SOL    HW1 4445   3.240   3.974   1.971 -0.4615  0.2746  0.1295
  433SOL    HW2 4446   3.258   4.118   1.928  0.4392  0.2791  0.5018
  434SOL     OW 4447   4.467   4.857   8.011  0.3068  0.6356 -0.1074
  434SOL    HW1 4448   4.445   4.804   7.934 -0.3113 -0.4738  0.8064
  434SOL    HW2 4449   4.491   4.943   7.975 -0.0708  0.1722 -1.5205
  435SOL     OW 4450   2.820   2.986   4.741  0.2487  0.5915 -0.0475
  435SOL    HW1 4451   2.742   2.931   4.738 -0.7474  2.0061 -2.0474
  435SOL    HW2 4452   2.821   3.021   4.830 -0.1234 -1.1240  0.6734
  436SOL     OW 4453   4.469   2.534   2.133  0.0881  0.4348 -0.0098
  436SOL    HW1 4454   4.388   2.583   2.148 -0.1850  0.2994 -0.9975
  436SOL    HW2 4455   4.539   2.595   2.158 -0.2967  0.7398  0.3377
  437SOL     OW 4456   3.043   2.806   4.319 -0.4157 -0.4755  0.0796
  437SOL    HW1 4457   3.046   2.831   4.411 -0.0630  0.2615 -0.1250
  437SOL    HW2 4458   3.010   2.716   4.320  1.0920 -1.0459  1.0256
  438SOL     OW 4459   1.247   2.776   7.578  0.3961  0.4608 -0.6491
  438SOL    HW1 4460   1.332   2.776   7.534  0.5650 -0.1534 -0.3350
  438SOL    HW2 4461   1.208   2.692   7.556  0.7836 -0.1690  0.9041
  439SOL     OW 4462   1.784   4.127   3.907 -0.2480 -0.7680  0.7591
  439SOL    HW1 4463   1.877   4.150   3.903 -0.2797 -0.5867  1.0065
  439SOL    HW2 4464   1.750   4.179   3.981 -1.1856  1.4888 -1.1380
  440SOL     OW 4465   5.279   8.000   3.883 -0.0354  0.6803  0.7448
  440SOL    HW1 4466   5.370   8.005   3.914  0.0000  0.5296  0.6639
  440SOL    HW2 4467   5.285   8.012   3.788 -0.0469  0.1161  0.6700
  441SOL     OW 4468   6.413   5.473   1.736  0.5221  0.3447  0.8440
  441SOL    HW1 4469   6.398   5.464   1.642  2.1951 -1.6444  0.6802
  441SOL    HW2 4470   6.346   5.534   1.766  0.1514  1.3007 -1.6803
  442SOL     OW 4471   2.679   6.328   2.123 -0.5826  0.2534  0.0584
  442SOL    HW1 4472   2.591   6.342   2.158 -1.2164 -0.0068 -1.3659
  442SOL    HW2 4473   2.728   6.406   2.149 -1.2303  0.4111  0.8448
  443SOL     OW 4474   0.911   2.451   8.006  0.2528  0.5297 -0.1176
  443SOL    HW1 4475   0.829   2.438   7.959  0.0068  2.2606 -0.2162
  443SOL    HW2 4476   0.898   2.404   8.089 -0.0148 -0.9512 -0.9511
  444SOL     OW 4477   5.495   0.698   1.723  0.0811 -0.1777  0.3546
  444SOL    HW1 4478   5.424   0.755   1.693  0.3117 -0.0520  0.0472
  444SOL    HW2 4479   5.451   0.618   1.754 -0.1517 -0.3377 -0.3845
  445SOL     OW 4480   3.295   1.446   6.484  0.0440  0.1192  0.1855
  445SOL    HW1 4481   3.252   1.426   6.400 -1.1978  1.3556  0.4757
  445SOL    HW2 4482   3.382   1.407   6.476 -0.5308 -1.0154 -1.1154
  446SOL     OW 4483   5.941   7.877   3.835  0.0952  0.1054 -0.2011
  446SOL    HW1 4484   5.994   7.904   3.910 -0.7569  1.9487 -0.2246
  446SOL    HW2 4485   5.964   7.938   3.765 -0.8490 -0.0916 -0.7065
  447SOL     OW 4486   0.107   1.187   7.841 -0.1688  0.0387 -0.0557
  447SOL    HW1 4487   0.185   1.134   7.824 -0.8959 -0.7565 -1.0178
  447SOL    HW2 4488   0.090   1.174   7.935  0.5463 -0.1884  0.0508
  448SOL     OW 4489   3.141   1.600   3.982  0.1185  0.2326  0.2660
  448SOL    HW1 4490   3.076   1.571   4.045  1.0138 -0.7035  0.7833
  448SOL    HW2 4491   3.106   1.573   3.897 -0.2929 -0.0154  0.5091
  449SOL     OW 4492   7.710   5.568   6.558 -0.1481 -0.5417  0.3460
  449SOL    HW1 4493   7.753   5.484   6.568 -0.7669 -0.7826  1.0698
  449SOL    HW2 4494   7.745   5.622   6.630  0.2602 -0.1718 -0.1232
  450SOL     OW 4495   4.110   1.674   1.866 -0.0032 -0.4776  0.0875
  450SOL    HW1 4496   4.184   1.702   1.921  0.9884 -2.2357 -0.2932
  450SOL    HW2 4497   4.149   1.662   1.779 -1.4153  1.6211 -0.9309
  451SOL     OW 4498   2.780   0.854   4.191  0.2118  0.2604 -0.4099
  451SOL    HW1 4499   2.748   0.943   4.173  0.3928  0.8012  1.6402
  451SOL    HW2 4500   2.709   0.797   4.164 -1.1949  1.2473  1.0325
  452SOL     OW 4501   4.890   1.032   0.164  0.2527  0.1920  0.1096
  452SOL    HW1 4502   4.845   0.956   0.202  0.8800  0.2709  1.0293
  452SOL    HW2 4503   4.925   1.079   0.239 -0.9331  1.9359 -0.3587
  453SOL     OW 4504   1.999   4.867   0.378  0.2506 -0.4434 -0.2077
  453SOL    HW1 4505   1.964   4.879   0.290 -3.0331 -1.0723  0.8681
  453SOL    HW2 4506   2.028   4.776   0.381  0.4990 -0.3800 -0.6604
  454SOL     OW 4507   2.594   7.517   0.871 -0.1049 -0.4138 -0.3899
  454SOL    HW1 4508   2.626   7.479   0.953  1.4464 -1.0713 -1.2555
  454SOL    HW2 4509   2.637   7.466   0.803 -1.0272  0.4044 -1.6226
  455SOL     OW 4510   7.498   6.663   7.494 -0.0697 -0.4945 -0.0226
  455SOL    HW1 4511   7.466   6.719   7.565  0.9240 -1.5074  1.2638
  455SOL    HW2 4512   7.423   6.656   7.435 -1.4765 -0.8721  1.7083
  456SOL     OW 4513   3.481   5.370   3.396 -0.4397  0.1837  0.2570
  456SOL    HW1 4514   3.500   5.450   3.444  0.0330 -0.0526  0.4682
  456SOL    HW2 4515   3.411   5.328   3.446 -0.1935  0.1116  0.5414
  457SOL     OW 4516   3.583   1.301   3.979 -0.1664  0.3244 -0.2167
  457SOL    HW1 4517   3.546   1.241   3.914  0.4611 -0.5246  0.1926
  457SOL    HW2 4518   3.513   1.364   3.995 -0.6505  0.0181 -1.0476
  458SOL     OW 4519   3.659   2.539   5.611 -0.0673  0.1066  0.3434
  458SOL    HW1 4520   3.733   2.486   5.581  0.0932  1.0012 -0.8883
  458SOL    HW2 4521   3.626   2.492   5.688  1.1072 -0.8739  0.2759
  459SOL     OW 4522   3.509   4.498   1.566 -0.6622 -0.0163 -0.4283
  459SOL    HW1 4523   3.436   4.464   1.515 -1.2425  1.5592 -0.7087
  459SOL    HW2 4524   3.513   4.591   1.544 -0.8377  0.7177  2.2507
  460SOL     OW 4525   6.015   4.548   4.043 -0.7794 -0.6456 -0.4244
  460SOL    HW1 4526   5.934   4.533   4.092 -0.1694  0.4360  0.9873
  460SOL    HW2 4527   6.079   4.573   4.109  0.7007 -1.3517 -1.5323
  461SOL     OW 4528   1.511   5.900   5.700 -0.2206  0.2856 -0.2794
  461SOL    HW1 4529   1.455   5.977   5.694  0.1471  0.5491 -0.3068
  461SOL    HW2 4530   1.518   5.883   5.794  0.1548  0.6154 -0.2498
  462SOL     OW 4531   3.512   2.126   4.197 -0.0586 -0.1178 -0.3459
  462SOL    HW1 4532   3.592   2.120   4.144 -1.2675 -0.7251 -2.2190
  462SOL    HW2 4533   3.469   2.041   4.185 -0.1714 -0.4740  2.0894
  463SOL     OW 4534   2.080   1.889   1.908 -0.0453  0.1817  0.5067
  463SOL    HW1 4535   2.007   1.940   1.942  0.6990 -0.6362  3.6784
  463SOL    HW2 4536   2.043   1.839   1.836 -2.3976  0.4417  1.4514
  464SOL     OW 4537   5.642   0.676   5.676  0.5138 -0.2785  0.0909
  464SOL    HW1 4538   5.682   0.616   5.738  1.2633  0.6995  0.5858
  464SOL    HW2 4539   5.612   0.749   5.731 -1.0903 -0.5318 -0.3866
  465SOL     OW 4540   6.156   6.386   2.707 -0.1488 -0.0166 -0.0481
  465SOL    HW1 4541   6.197   6.469   2.683 -2.4039  0.7742 -1.5557
  465SOL    HW2 4542   6.164   6.332   2.628 -1.4979 -0.0141 -0.2060
  466SOL     OW 4543   0.882   1.623   0.892  0.2453 -0.0671 -0.5670
  466SOL    HW1 4544   0.875   1.684   0.818  0.5226  0.2438 -0.3378
  466SOL    HW2 4545   0.865   1.537   0.854  0.6592  0.0614 -1.0449
  467SOL     OW 4546   0.991   2.228   6.921 -0.4313 -0.1963  0.1696
  467SOL    HW1 4547   1.057   2.296   6.930 -0.8119  0.3041 -0.6226
  467SOL    HW2 4548   1.001   2.173   6.998  2.2438 -1.3116 -0.8679
  468SOL     OW 4549   0.556   0.682   2.379  0.1309 -0.1284  0.0261
  468SOL    HW1 4550   0.568   0.696   2.472 -2.4893 -1.6881  0.6968
  468SOL    HW2 4551   0.589   0.594   2.363 -1.1797 -0.6305 -0.0680
  469SOL     OW 4552   7.426   2.023   0.583  0.1342  0.4053  0.0599
  469SOL    HW1 4553   7.517   2.033   0.611  0.0201  0.7837  0.2952
  469SOL    HW2 4554   7.377   2.009   0.664 -0.5776  4.0876  0.4318
  470SOL     OW 4555   2.758   6.250   7.994  0.1287  0.3283  0.3261
  470SOL    HW1 4556   2.835   6.216   7.949 -1.0380  0.6901 -2.0889
  470SOL    HW2 4557   2.753   6.342   7.968 -0.6691  0.5287  1.1166
  471SOL     OW 4558   4.504   4.587   1.817  0.6481  0.0053  0.0856
  471SOL    HW1 4559   4.430   4.532   1.844  1.3148  0.3626  3.0600
  471SOL    HW2 4560   4.481   4.618   1.730 -2.7415  0.1154  0.8845
  472SOL     OW 4561   1.160   2.505   7.604  0.2155 -0.1375 -0.3384
  472SOL    HW1 4562   1.074   2.464   7.606 -0.2061  0.6610 -1.3766
  472SOL    HW2 4563   1.196   2.489   7.692 -1.5129  0.6554  0.5714
  473SOL     OW 4564   5.085   1.173   2.393 -0.1713  0.5993  0.5972
  473SOL    HW1 4565   4.998   1.177   2.353  0.2487 -0.9276 -0.5868
  473SOL    HW2 4566   5.146   1.178   2.319  0.6509 -1.5338  1.0301
  474SOL     OW 4567   0.491   2.825   2.496 -0.0467 -0.2768  0.1808
  474SOL    HW1 4568   0.470   2.915   2.472 -1.0743 -0.8606 -1.2389
  474SOL    HW2 4569   0.479   2.822   2.591  0.6962  1.2442  0.3450
  475SOL     OW 4570   2.575   7.515   0.539 -0.0152 -0.5460 -0.6494
  475SOL    HW1 4571   2.615   7.565   0.468 -0.5278  0.6733 -0.1013
  475SOL    HW2 4572   2.548   7.581   0.602 -0.2052 -1.5668  0.3591
  476SOL     OW 4573   1.166   4.690   6.238 -0.1461  0.4026 -0.0594
  476SOL    HW1 4574   1.152   4.763   6.178 -0.9033  1.0952  0.9311
  476SOL    HW2 4575   1.249   4.651   6.210 -0.6032  0.5499 -1.6980
  477SOL     OW 4576   0.154   6.576   2.811 -0.0111  0.1014  0.4193
  477SOL    HW1 4577   0.223   6.638   2.835 -0.8302  0.3573  2.3427
  477SOL    HW2 4578   0.102   6.567   2.891  0.2361 -3.3330  0.3170
  478SOL     OW 4579   0.505   7.374   1.359 -0.3879  0.0030  0.5082
  478SOL    HW1 4580   0.545   7.460   1.344  0.0565 -0.5754 -2.1968
  478SOL    HW2 4581   0.414   7.394   1.383 -0.1083  1.2231  0.6292
  479SOL     OW 4582   8.029   6.948   1.306  0.2649  0.3893  0.0244
  479SOL    HW1 4583   8.125   6.938   1.304  0.1543 -0.7460 -0.0252
  479SOL    HW2 4584   8.014   7.018   1.370  1.1168  0.4345  0.1903
  480SOL     OW 4585   2.320   2.931   7.796  0.2106  0.0199  0.6755
  480SOL    HW1 4586   2.338   2.840   7.821 -0.9298 -0.4329 -0.0511
  480SOL    HW2 4587   2.225   2.938   7.799 -0.0237  0.0667 -2.8053
  481SOL     OW 4588   5.562   2.810   8.071  0.7814 -0.5109 -0.2960
  481SOL    HW1 4589   5.654   2.786   8.063  0.0641 -2.9615 -2.6151
  481SOL    HW2 4590   5.515   2.743   8.021 -2.1785  1.3314 -0.2262
  482SOL     OW 4591   4.626   6.223   1.315 -0.0684 -0.2739  0.0661
  482SOL    HW1 4592   4.601   6.137   1.348 -1.8535  0.3126  0.3455
  482SOL    HW2 4593   4.669   6.266   1.389  2.9900 -1.6699 -0.7217
  483SOL     OW 4594   6.179   6.732   6.821  0.1762 -0.1045  0.1911
  483SOL    HW1 4595   6.184   6.638   6.838 -1.1242 -0.1357  0.4542
  483SOL    HW2 4596   6.150   6.740   6.730  0.3668  0.0461  0.1419
  484SOL     OW 4597   5.299   1.312   0.797 -0.3402  0.1524  0.1310
  484SOL    HW1 4598   5.371   1.358   0.841 -0.5251 -0.0948  0.7012
  484SOL    HW2 4599   5.220   1.349   0.836 -0.4916 -0.6691  0.6241
  485SOL     OW 4600   0.291   1.987   0.913 -0.1916 -0.4040  0.4359
  485SOL    HW1 4601   0.222   2.018   0.855 -1.5231 -1.7403  1.2434
  485SOL    HW2 4602   0.295   2.051   0.983  0.6130  0.5845 -0.4671
  486SOL     OW 4603   5.308   2.865   2.415 -1.2814  0.4540  0.3509
  486SOL    HW1 4604   5.393   2.887   2.376 -1.9341  0.4978 -1.1149
  486SOL    HW2 4605   5.245   2.878   2.344 -2.3400 -0.9751  0.9803
  487SOL     OW 4606   1.735   1.536   0.490  0.4746  0.5157 -0.4806
  487SOL    HW1 4607   1.721   1.508   0.580  2.3022  2.8239  0.6356
  487SOL    HW2 4608   1.768   1.458   0.446  1.2712 -0.2267  1.3207
  488SOL     OW 4609   5.394   6.623   3.219  0.0835  0.3201 -0.8455
  488SOL    HW1 4610   5.431   6.681   3.152 -0.3029  0.0186 -1.3304
  488SOL    HW2 4611   5.367   6.545   3.170  0.6890 -0.3199 -0.1877
  489SOL     OW 4612   7.638   0.217   0.024 -0.1278  0.3271 -0.6329
  489SOL    HW1 4613   7.734   0.217   0.028 -0.1155 -0.4991 -0.6529
  489SOL    HW2 4614   7.619   0.198  -0.068 -0.2874 -1.4635 -0.2631
  490SOL     OW 4615   2.566   0.659   5.229  0.3475 -0.0781  0.0505
  490SOL    HW1 4616   2.549   0.687   5.319 -0.1102  0.4078 -0.1799
  490SOL    HW2 4617   2.634   0.718   5.198  0.9055 -0.6047  0.2536
  491SOL     OW 4618   1.253   0.307   6.914  0.5560 -0.3051 -0.3148
  491SOL    HW1 4619   1.244   0.366   6.840 -2.3744  0.2563  0.3597
  491SOL    HW2 4620   1.347   0.304   6.932  1.1724  0.8116 -2.9834
  492SOL     OW 4621   5.646   4.974   6.984 -0.0845 -0.1197 -0.2444
  492SOL    HW1 4622   5.654   4.898   7.041  1.2925 -0.1800 -0.4646
  492SOL    HW2 4623   5.552   4.985   6.970 -0.2964 -2.0581 -0.5832
  493SOL     OW 4624   8.065   0.050   6.907 -0.2453  0.5904 -0.0600
  493SOL    HW1 4625   8.085   0.072   6.816 -1.2582  0.5050 -0.3232
  493SOL    HW2 4626   8.001   0.117   6.934 -0.7496 -0.0013  0.2389
  494SOL     OW 4627   6.592   5.430   3.620 -0.0955 -0.5923  0.0561
  494SOL    HW1 4628   6.555   5.438   3.708 -0.2229  0.5097 -0.0923
  494SOL    HW2 4629   6.551   5.352   3.584  0.9277 -1.8353  1.4469
  495SOL     OW 4630   2.967   7.555   6.951 -0.4428  0.4434 -0.0619
  495SOL    HW1 4631   2.923   7.509   6.879 -0.1860  0.2290 -0.0851
  495SOL    HW2 4632   2.908   7.546   7.026 -0.8691  0.9549 -0.3283
  496SOL     OW 4633   4.704   4.574   2.725  0.5289 -0.6976  0.1764
  496SOL    HW1 4634   4.689   4.567   2.631  0.7071 -0.5058  0.1346
  496SOL    HW2 4635   4.654   4.651   2.751  1.0032 -0.3733  0.1296
  497SOL     OW 4636   1.903   2.853   6.727 -0.7276 -0.7153  0.5376
  497SOL    HW1 4637   1.997   2.841   6.736 -0.4240  1.0646  0.0664
  497SOL    HW2 4638   1.893   2.909   6.650 -2.1509 -0.5337  0.8253
  498SOL     OW 4639   7.428   2.880   2.561 -0.3419  0.0903 -0.2120
  498SOL    HW1 4640   7.512   2.837   2.544 -1.6076 -2.0933 -1.4605
  498SOL    HW2 4641   7.411   2.864   2.654 -0.6849 -2.0923 -0.5983
  499SOL     OW 4642   6.906   1.313   7.937 -0.5297 -0.1866 -0.0453
  499SOL    HW1 4643   6.875   1.403   7.933 -0.5151 -0.1235  0.9450
  499SOL    HW2 4644   6.862   1.269   7.865 -0.1715  0.7200 -0.8403
  500SOL     OW 4645   0.592   7.582   4.259 -0.6679  0.1224  0.6894
  500SOL    HW1 4646   0.538   7.660   4.275 -0.4633  0.1672  1.1839
  500SOL    HW2 4647   0.675   7.618   4.227 -0.1312  0.1849  2.1119
  501SOL     OW 4648   1.732   0.435   2.175 -0.5008  0.2826  0.4580
  501SOL    HW1 4649   1.770   0.523   2.172  0.8280 -0.2722 -0.4755
  501SOL    HW2 4650   1.701   0.425   2.264 -0.9970  1.8116  0.4997
  502SOL     OW 4651   2.449   6.890   7.766 -0.0598 -0.0043 -0.0123
  502SOL    HW1 4652   2.529   6.846   7.737  0.6596  0.1206  1.6817
  502SOL    HW2 4653   2.388   6.819   7.787 -0.0798 -0.1145 -0.4353
  503SOL     OW 4654   1.876   6.033   2.944 -0.0432 -0.1182 -0.1456
  503SOL    HW1 4655   1.824   6.101   2.900  0.9430  0.6628 -0.1334
  503SOL    HW2 4656   1.916   6.078   3.018  0.3151 -0.8179  0.0943
  504SOL     OW 4657   2.835   2.436   2.621 -0.3126 -0.8612  0.6162
  504SOL    HW1 4658   2.878   2.432   2.536  0.7476 -0.5968  1.1331
  504SOL    HW2 4659   2.782   2.515   2.618 -0.5854 -1.0546  0.0751
  505SOL     OW 4660   2.709   1.893   4.944 -0.0982  0.1321 -0.2991
  505SOL    HW1 4661   2.660   1.930   4.871  0.6629  0.5017 -0.6365
  505SOL    HW2 4662   2.676   1.938   5.021  0.0956  0.7816 -0.5886
  506SOL     OW 4663   2.244   0.955   6.936 -0.3097 -0.0352 -0.1028
  506SOL    HW1 4664   2.200   0.894   6.875  0.3819 -0.9574  0.2927
  506SOL    HW2 4665   2.306   0.900   6.984  0.8036  1.1022 -0.1745
  507SOL     OW 4666   3.123   7.278   1.314  0.2448  0.0414 -0.1594
  507SOL    HW1 4667   3.042   7.262   1.266  0.2881 -0.5799 -0.0393
  507SOL    HW2 4668   3.105   7.356   1.366 -0.9730 -1.1686  1.3498
  508SOL     OW 4669   2.911   1.019   0.497  0.0008 -0.2940 -0.0042
  508SOL    HW1 4670   2.943   0.953   0.558  0.7076  0.2027  0.1718
  508SOL    HW2 4671   2.989   1.066   0.469 -0.6056  1.3607  0.9278
  509SOL     OW 4672   5.121   0.444   6.225 -0.0552 -0.0622 -0.2890
  509SOL    HW1 4673   5.098   0.366   6.173 -0.0784 -1.4443  1.6701
  509SOL    HW2 4674   5.198   0.480   6.181 -0.0761 -1.1748 -1.2867
  510SOL     OW 4675   4.464   0.766   5.990 -0.0484  0.1562  0.0446
  510SOL    HW1 4676   4.407   0.705   6.038 -1.3514  1.3454  0.0837
  510SOL    HW2 4677   4.452   0.849   6.035  1.4839  0.5141 -0.1835
  511SOL     OW 4678   3.103   1.317   1.162  0.3089  0.2332  0.6883
  511SOL    HW1 4679   3.082   1.378   1.092  1.8338 -0.1481 -0.1520
  511SOL    HW2 4680   3.140   1.372   1.231  0.0510  0.4545  0.6519
  512SOL     OW 4681   7.162   7.656   6.243  0.5337 -0.2212 -0.1809
  512SOL    HW1 4682   7.200   7.676   6.329  0.6191  0.0478 -0.2788
  512SOL    HW2 4683   7.092   7.593   6.262  0.6054 -0.2277  0.0763
  513SOL     OW 4684   0.288   5.390   0.138 -0.3270  0.0425  0.0878
  513SOL    HW1 4685   0.326   5.390   0.050 -1.2989  2.7737 -0.4167
  513SOL    HW2 4686   0.364   5.394   0.197  0.3075 -1.0058 -0.6371
  514SOL     OW 4687   6.784   1.816   7.737 -0.5475 -0.3341  0.3530
  514SOL    HW1 4688   6.837   1.867   7.798  0.3953 -0.0428 -0.6711
  514SOL    HW2 4689   6.713   1.781   7.791  1.5923 -2.1833  2.1857
  515SOL     OW 4690   2.798   1.445   4.781  0.7422 -0.6072 -0.1275
  515SOL    HW1 4691   2.827   1.375   4.840 -1.5789 -0.9735  0.6838
  515SOL    HW2 4692   2.793   1.522   4.838 -0.4852 -0.7161 -0.0730
  516SOL     OW 4693   5.837   4.386   4.371 -0.1164 -0.1016 -0.2131
  516SOL    HW1 4694   5.922   4.428   4.360 -0.5012  0.5453 -0.7794
  516SOL    HW2 4695   5.789   4.442   4.431  0.5694 -1.5688  1.8421
  517SOL     OW 4696   6.885   2.002   7.930 -0.3252 -0.1636 -0.6050
  517SOL    HW1 4697   6.898   1.981   8.023  0.3556  0.5510 -0.5337
  517SOL    HW2 4698   6.855   2.093   7.930 -1.6897 -0.5760 -1.0134
  518SOL     OW 4699   1.545   7.213   5.070 -0.1028 -0.0122 -0.3439
  518SOL    HW1 4700   1.565   7.203   4.977 -0.8687 -1.4652 -0.3865
  518SOL    HW2 4701   1.629   7.206   5.113  0.0519 -1.4465 -0.8153
  519SOL     OW 4702   2.945   1.144   2.374 -0.3610 -0.2802 -0.4229
  519SOL    HW1 4703   2.867   1.125   2.321  0.3880 -1.0497 -1.3055
  519SOL    HW2 4704   2.979   1.057   2.397  0.0489  0.0518  0.2390
  520SOL     OW 4705   1.467   6.544   7.469 -0.0315  0.1503  0.2325
  520SOL    HW1 4706   1.438   6.454   7.451  0.7494 -0.0862  0.1103
  520SOL    HW2 4707   1.554   6.533   7.507 -0.4466  0.7947  1.4006
  521SOL     OW 4708   8.019   2.236   7.066 -0.4014 -0.2375  0.0555
  521SOL    HW1 4709   8.048   2.325   7.084 -0.3069 -0.5843  1.8683
  521SOL    HW2 4710   7.944   2.246   7.007  0.0206  0.9907 -0.2871
  522SOL     OW 4711   4.338   5.668   2.426  0.0776 -0.1121 -0.3401
  522SOL    HW1 4712   4.250   5.664   2.389 -0.0074  0.6727 -0.2442
  522SOL    HW2 4713   4.358   5.578   2.452 -0.0613 -0.6014 -1.8238
  523SOL     OW 4714   6.867   4.117   0.182  0.1713  0.1015 -0.1867
  523SOL    HW1 4715   6.860   4.086   0.092 -1.1679  0.0652 -0.0940
  523SOL    HW2 4716   6.786   4.088   0.224  0.5593  0.5339  0.9005
  524SOL     OW 4717   0.259   0.236   4.252  0.5271 -0.6375  0.3768
  524SOL    HW1 4718   0.333   0.296   4.248 -0.1138  0.2481  1.2955
  524SOL    HW2 4719   0.227   0.230   4.162  0.9871 -0.1138  0.1765
  525SOL     OW 4720   0.428   5.755   5.575 -0.0881  0.0725  0.8328
  525SOL    HW1 4721   0.419   5.814   5.500 -1.1614  1.6837  2.1674
  525SOL    HW2 4722   0.488   5.800   5.634  1.6145 -1.6691  0.5560
  526SOL     OW 4723   4.359   5.566   0.354 -0.1903 -0.3340 -0.2226
  526SOL    HW1 4724   4.351   5.487   0.302  0.7346  0.0931 -1.0466
  526SOL    HW2 4725   4.443   5.558   0.399 -1.0169 -0.7395  1.3094
  527SOL     OW 4726   0.141   4.501   1.270 -0.6174  0.1256 -0.2851
  527SOL    HW1 4727   0.106   4.445   1.201  0.2337  0.1223 -0.7270
  527SOL    HW2 4728   0.166   4.441   1.340  0.5342 -0.0808 -0.8644
  528SOL     OW 4729   1.782   4.524   0.464  0.4367  0.0373  0.0504
  528SOL    HW1 4730   1.775   4.611   0.424  0.4472  0.3192  0.6498
  528SOL    HW2 4731   1.705   4.476   0.431  0.4508  0.2593 -0.3108
  529SOL     OW 4732   2.078   4.130   6.824  0.4314 -0.3671  0.4205
  529SOL    HW1 4733   2.076   4.103   6.916 -0.6222  1.5108  1.0126
  529SOL    HW2 4734   2.120   4.216   6.826 -2.1998  1.0417 -0.3992
  530SOL     OW 4735   2.515   0.018   2.655 -0.0123 -0.3278  0.2842
  530SOL    HW1 4736   2.483  -0.063   2.614 -1.0847  0.5697 -0.7027
  530SOL    HW2 4737   2.582   0.050   2.595  0.3869 -0.4566  0.6580
  531SOL     OW 4738   4.817   0.846   1.363  0.7664 -0.2341  0.0728
  531SOL    HW1 4739   4.840   0.931   1.325 -0.7774 -0.2676 -1.0555
  531SOL    HW2 4740   4.755   0.867   1.433  0.8557 -0.3874  0.1967
  532SOL     OW 4741   1.367   6.810   5.818 -0.5705 -0.2997  0.5659
  532SOL    HW1 4742   1.294   6.815   5.756 -0.9330 -0.2987  0.9883
  532SOL    HW2 4743   1.344   6.871   5.888  0.8736  1.3683 -0.3423
  533SOL     OW 4744   4.792   2.030   5.703  0.2748 -0.5474  0.8740
  533SOL    HW1 4745   4.759   2.117   5.726  1.3326 -0.2429  1.2844
  533SOL    HW2 4746   4.714   1.975   5.696 -0.5911  0.8016 -1.0756
  534SOL     OW 4747   7.228   5.370   8.073  0.2063 -0.4893  0.2583
  534SOL    HW1 4748   7.280   5.436   8.027  2.6769 -2.9156 -0.6707
  534SOL    HW2 4749   7.190   5.418   8.147  1.3553  2.0802 -0.6689
  535SOL     OW 4750   3.287   7.394   0.710  0.2678 -0.1111 -0.0239
  535SOL    HW1 4751   3.207   7.413   0.759 -0.6281  0.3125 -1.5521
  535SOL    HW2 4752   3.331   7.479   0.702  0.3377 -0.1512 -0.0666
  536SOL     OW 4753   1.415   6.285   7.411  0.2664 -0.5262  0.1053
  536SOL    HW1 4754   1.351   6.323   7.351  0.6997  1.2315  0.7019
  536SOL    HW2 4755   1.368   6.213   7.454 -1.3729  0.7817  0.6072
  537SOL     OW 4756   8.084   5.210   3.915  0.2727 -0.1497 -0.3247
  537SOL    HW1 4757   8.163   5.264   3.924  0.2873 -0.2771  0.3761
  537SOL    HW2 4758   8.118   5.121   3.906  0.2991  0.0430 -2.6787
  538SOL     OW 4759   2.910   3.613   5.888 -0.5052  0.4579 -0.0224
  538SOL    HW1 4760   2.882   3.621   5.979  1.7063  0.1294  0.7610
  538SOL    HW2 4761   2.955   3.528   5.884 -1.5042 -0.0434 -1.7234
  539SOL     OW 4762   2.819   1.476   5.311  0.5327 -0.0990 -0.1694
  539SOL    HW1 4763   2.854   1.511   5.228  3.6943  1.2497  1.5492
  539SOL    HW2 4764   2.829   1.548   5.373  0.1278 -1.7180  1.8464
  540SOL     OW 4765   6.261   2.211   6.738 -0.3161  0.3968 -0.4579
  540SOL    HW1 4766   6.324   2.140   6.738  0.9507  1.4848 -0.9140
  540SOL    HW2 4767   6.274   2.255   6.822 -1.4305 -0.1794  0.0330
  541SOL     OW 4768   5.862   1.483   5.133 -0.0893 -0.6762  0.4336
  541SOL    HW1 4769   5.907   1.449   5.209  1.1296  3.0985  1.6002
  541SOL    HW2 4770   5.780   1.519   5.167 -0.8689 -1.4251 -0.5613
  542SOL     OW 4771   7.462   2.720   7.790 -0.1783 -0.6368 -0.0962
  542SOL    HW1 4772   7.543   2.723   7.739 -0.0504  0.1810  0.1321
  542SOL    HW2 4773   7.470   2.794   7.851 -1.3459 -0.1934 -0.4687
  543SOL     OW 4774   1.277   5.620   1.430 -0.1460 -0.1762 -0.6455
  543SOL    HW1 4775   1.296   5.667   1.349  1.2977 -0.4045 -0.4602
  543SOL    HW2 4776   1.356   5.631   1.483 -0.6904 -0.8687  0.3338
  544SOL     OW 4777   1.913   6.893   5.884  0.4330  0.2955 -0.3206
  544SOL    HW1 4778   1.840   6.830   5.882  0.9422 -0.3588  0.7273
  544SOL    HW2 4779   1.937   6.905   5.792  1.4295 -2.3605 -0.4791
  545SOL     OW 4780   0.667   5.983   2.911 -0.1288  0.0331 -0.2419
  545SOL    HW1 4781   0.750   5.964   2.954  0.7801  0.6393 -1.6690
  545SOL    HW2 4782   0.641   6.069   2.945  1.0858  0.9673 -1.5694
  546SOL     OW 4783   4.651   4.624   6.444  0.3901 -0.3775  0.0762
  546SOL    HW1 4784   4.659   4.647   6.351  1.4387 -1.8012 -0.2317
  546SOL    HW2 4785   4.621   4.704   6.487  1.0450  0.6510 -1.3117
  547SOL     OW 4786   2.271   1.905   1.107  0.1885 -0.1314  0.3267
  547SOL    HW1 4787   2.193   1.849   1.108  0.1129 -0.0260  0.5852
  547SOL    HW2 4788   2.333   1.860   1.050  0.0225 -0.3333  0.3053
  548SOL     OW 4789   1.409   7.854   2.717  0.3666 -0.2052  0.0823
  548SOL    HW1 4790   1.447   7.767   2.706 -0.7871 -0.7059 -0.1251
  548SOL    HW2 4791   1.482   7.914   2.702  1.8269 -1.1353  2.8365
  549SOL     OW 4792   0.019   2.716   6.775  0.2640 -0.1749  0.2214
  549SOL    HW1 4793   0.042   2.789   6.718  1.2882 -1.2121 -0.7362
  549SOL    HW2 4794  -0.066   2.740   6.812  0.0218  0.9509 -0.9977
  550SOL     OW 4795   2.856   5.914   3.689  0.1524 -0.3824  0.4638
  550SOL    HW1 4796   2.878   5.847   3.755  1.6410  2.0035  2.5766
  550SOL    HW2 4797   2.844   5.865   3.608  1.9330 -3.1397  1.7244
  551SOL     OW 4798   3.257   0.859   5.077 -0.2773 -0.3522 -0.0882
  551SOL    HW1 4799   3.326   0.902   5.026  1.4555 -0.4609  2.0103
  551SOL    HW2 4800   3.231   0.783   5.024  0.0278  0.5813 -1.6460
  552SOL     OW 4801   6.968   3.850   0.753  0.3515  0.1363 -0.0871
  552SOL    HW1 4802   6.879   3.825   0.778 -0.2837  1.3705 -0.9909
  552SOL    HW2 4803   7.007   3.884   0.834  0.4499 -1.5236  0.6035
  553SOL     OW 4804   7.704   4.222   1.559  0.1374  0.1054 -0.0132
  553SOL    HW1 4805   7.759   4.217   1.637  1.0735  1.7421 -0.5185
  553SOL    HW2 4806   7.744   4.160   1.498 -0.9259 -1.6021  0.9411
  554SOL     OW 4807   0.439   7.169   6.516 -0.0997 -0.9546  0.3050
  554SOL    HW1 4808   0.490   7.194   6.439 -1.0704  0.7250  0.1686
  554SOL    HW2 4809   0.501   7.173   6.589 -0.1822  2.0587  0.3034
  555SOL     OW 4810   1.156   2.142   0.274  0.2952 -0.7685 -0.2565
  555SOL    HW1 4811   1.152   2.048   0.256 -2.2134 -1.4758  3.1151
  555SOL    HW2 4812   1.065   2.167   0.289  0.9898  2.0492 -0.2027
  556SOL     OW 4813   6.298   2.273   2.167 -0.2877  0.5242 -0.2178
  556SOL    HW1 4814   6.387   2.273   2.202  0.1140  0.0974 -1.1976
  556SOL    HW2 4815   6.245   2.315   2.235  0.2850 -1.0768  1.3057
  557SOL     OW 4816   2.129   1.222   2.218  0.2381 -0.1226  0.0490
  557SOL    HW1 4817   2.147   1.234   2.125 -1.5821 -0.9168 -0.4627
  557SOL    HW2 4818   2.213   1.197   2.256  1.3603  1.7516 -1.0660
  558SOL     OW 4819   6.948   6.451   1.689  0.1436  0.2240 -0.3855
  558SOL    HW1 4820   6.980   6.495   1.768 -2.6123 -0.1546  1.0628
  558SOL    HW2 4821   6.950   6.519   1.621 -0.6215  1.6099  0.9088
  559SOL     OW 4822   0.275   6.262   2.331  0.0245  0.2694 -0.0541
  559SOL    HW1 4823   0.188   6.301   2.341  0.4634  0.7329  3.0832
  559SOL    HW2 4824   0.260   6.168   2.343 -0.0469  0.3871  0.8959
  560SOL     OW 4825   5.129   7.887   5.567  0.0194 -0.7154  0.0346
  560SOL    HW1 4826   5.096   7.867   5.654 -0.7041  2.1244  0.5063
  560SOL    HW2 4827   5.200   7.949   5.582 -0.2762  0.0112 -1.4033
  561SOL     OW 4828   1.903   6.870   0.931  0.4463 -0.3406  0.4137
  561SOL    HW1 4829   1.905   6.786   0.884  0.6030 -0.2465  0.2525
  561SOL    HW2 4830   1.995   6.893   0.942  0.3864  0.3916 -0.5762
  562SOL     OW 4831   5.506   2.831   1.495 -0.4384 -0.1917 -0.4308
  562SOL    HW1 4832   5.438   2.897   1.501  0.0840  0.4491 -1.2884
  562SOL    HW2 4833   5.465   2.758   1.448 -1.2176 -0.7783  1.1089
  563SOL     OW 4834   0.189   6.298   4.242 -0.4333 -1.1906 -0.7456
  563SOL    HW1 4835   0.137   6.255   4.311 -1.1650  0.6941 -0.0566
  563SOL    HW2 4836   0.140   6.378   4.222  1.3898 -0.1529 -1.2374
  564SOL     OW 4837   6.869   6.720   1.319 -0.1056 -0.1653  0.2085
  564SOL    HW1 4838   6.950   6.763   1.346 -0.2887  1.2762 -1.3699
  564SOL    HW2 4839   6.823   6.702   1.400  0.4230  1.8007  0.9989
  565SOL     OW 4840   6.668   1.388   5.412  0.5335 -0.3602  0.3123
  565SOL    HW1 4841   6.619   1.327   5.467 -2.1623  0.8120 -0.6463
  565SOL    HW2 4842   6.669   1.469   5.462  1.6194 -0.3668  0.3305
  566SOL     OW 4843   1.229   7.811   6.440 -0.1917  0.1803 -0.3906
  566SOL    HW1 4844   1.169   7.850   6.377 -0.7145 -0.8712 -0.5775
  566SOL    HW2 4845   1.313   7.807   6.394 -0.6398 -0.8733 -1.1729
  567SOL     OW 4846   4.538   5.747   2.575  0.2030 -0.2461 -0.1006
  567SOL    HW1 4847   4.607   5.794   2.530  0.2275  0.6230  0.8194
  567SOL    HW2 4848   4.473   5.728   2.507 -0.7023  2.7570 -0.2203
  568SOL     OW 4849   2.217   2.179   5.915 -0.1079 -0.2818  0.1941
  568SOL    HW1 4850   2.134   2.204   5.956 -0.1226 -1.1431  0.7133
  568SOL    HW2 4851   2.249   2.106   5.968  1.7658  1.0205  0.9658
  569SOL     OW 4852   7.024   6.674   0.085  0.2648  0.1720 -0.3802
  569SOL    HW1 4853   6.998   6.765   0.077  2.3160  0.8094 -0.3939
  569SOL    HW2 4854   7.074   6.656   0.005  0.4529 -0.7541 -0.0690
  570SOL     OW 4855   5.895   3.527   2.832 -0.0836  0.4549 -0.1315
  570SOL    HW1 4856   5.910   3.599   2.771 -1.5559  1.8027  1.0153
  570SOL    HW2 4857   5.804   3.501   2.818  0.6243 -1.8002 -1.0866
  571SOL     OW 4858   7.559   1.420   6.887  0.1119  0.0900 -0.1937
  571SOL    HW1 4859   7.496   1.351   6.871  0.5567  0.1589 -2.6128
  571SOL    HW2 4860   7.637   1.374   6.919 -0.9328 -0.0289  2.4048
  572SOL     OW 4861   8.029   2.557   5.974 -0.6070 -0.1669  0.3468
  572SOL    HW1 4862   8.122   2.572   5.995 -0.4515 -0.5677 -0.0421
  572SOL    HW2 4863   7.998   2.500   6.044 -0.0961 -1.4804 -0.4512
  573SOL     OW 4864   7.739   0.324   0.787 -0.1227 -0.1442 -0.4678
  573SOL    HW1 4865   7.756   0.241   0.742 -1.0635 -1.1025  0.8651
  573SOL    HW2 4866   7.703   0.298   0.871  2.0220  1.5647  1.0801
  574SOL     OW 4867   1.514   5.177   0.560 -0.4204  0.5585 -0.1904
  574SOL    HW1 4868   1.459   5.125   0.501 -0.8479  1.2905 -0.4484
  574SOL    HW2 4869   1.601   5.137   0.553 -0.7720 -0.2010 -0.2821
  575SOL     OW 4870   2.247   6.179   6.299  0.0290  0.2875  0.6707
  575SOL    HW1 4871   2.304   6.125   6.355 -0.8963 -0.5337  0.8520
  575SOL    HW2 4872   2.272   6.156   6.210 -0.4119 -0.5196  0.7477
  576SOL     OW 4873   1.938   4.403   5.690  0.3734 -0.1722 -0.1681
  576SOL    HW1 4874   1.886   4.427   5.767 -0.3603 -2.0732 -0.0253
  576SOL    HW2 4875   2.007   4.469   5.687  0.1054  0.2805  1.8099
  577SOL     OW 4876   6.906   0.724   7.837 -0.0372  0.1437  0.5244
  577SOL    HW1 4877   6.981   0.781   7.853 -1.7622  2.4169  1.0185
  577SOL    HW2 4878   6.907   0.709   7.742  1.2607 -0.2399  0.5803
  578SOL     OW 4879   3.304   2.358   6.593  0.0884  0.1952  0.1038
  578SOL    HW1 4880   3.360   2.332   6.519 -1.8369 -1.9253 -0.7287
  578SOL    HW2 4881   3.322   2.293   6.660  0.1963  0.8135  0.6857
  579SOL     OW 4882   1.308   7.448   6.612  0.0306 -0.0326  0.4680
  579SOL    HW1 4883   1.365   7.469   6.686  1.0175  2.6713 -0.9290
  579SOL    HW2 4884   1.223   7.485   6.636  0.4306  1.1234  0.1766
  580SOL     OW 4885   7.027   2.440   1.718  0.4286  0.1611  0.0065
  580SOL    HW1 4886   6.958   2.385   1.754 -1.5163  1.7179 -1.1003
  580SOL    HW2 4887   7.108   2.397   1.744 -0.9350 -2.1279  0.8148
  581SOL     OW 4888   3.260   6.870   2.858  0.1765  0.0385 -0.4524
  581SOL    HW1 4889   3.177   6.827   2.879 -0.3685  0.8666 -0.8364
  581SOL    HW2 4890   3.284   6.916   2.938  1.3077 -1.7834  0.3086
  582SOL     OW 4891   6.765   2.124   3.065  0.5883 -0.2003  0.6267
  582SOL    HW1 4892   6.795   2.176   2.990  0.2463 -0.8312  0.0367
  582SOL    HW2 4893   6.762   2.034   3.032 -2.6973 -0.1164  0.3810
  583SOL     OW 4894   1.209   7.852   2.899  0.1578 -0.6135  0.3134
  583SOL    HW1 4895   1.256   7.809   2.970  0.2298 -1.9122 -0.4802
  583SOL    HW2 4896   1.273   7.860   2.828  0.0796  0.6231  0.3638
  584SOL     OW 4897   3.399   1.271   7.006 -0.3188  0.1483 -0.1006
  584SOL    HW1 4898   3.386   1.331   6.933  3.3904 -0.5971 -1.6194
  584SOL    HW2 4899   3.427   1.189   6.965  1.0977 -0.5581  2.0703
  585SOL     OW 4900   1.414   0.736   1.184 -0.3202 -0.1735  0.3784
  585SOL    HW1 4901   1.494   0.771   1.223 -0.3254  0.3882 -0.0847
  585SOL    HW2 4902   1.430   0.742   1.090 -0.4157 -1.2381  0.2898
  586SOL     OW 4903   2.702   2.582   2.928 -0.2969 -0.2802 -0.2263
  586SOL    HW1 4904   2.710   2.599   2.834 -2.9527 -0.6005 -0.6031
  586SOL    HW2 4905   2.754   2.651   2.970  1.2768 -0.3688 -1.8909
  587SOL     OW 4906   2.276   1.391   3.110 -0.5062  0.0642  0.0783
  587SOL    HW1 4907   2.185   1.419   3.124 -0.8752 -0.3517 -1.3504
  587SOL    HW2 4908   2.270   1.321   3.045  0.8987  0.5180 -0.5771
  588SOL     OW 4909   0.260   0.013   5.681 -0.0979 -0.1582  0.3706
  588SOL    HW1 4910   0.228  -0.073   5.652 -0.1491 -0.5136  1.4382
  588SOL    HW2 4911   0.195   0.075   5.648 -0.8281 -0.6789  0.8025
  589SOL     OW 4912   6.182   4.656   5.694  0.0718 -0.0523 -0.5717
  589SOL    HW1 4913   6.156   4.569   5.667 -2.3683  0.6101 -0.5647
  589SOL    HW2 4914   6.144   4.714   5.629  2.1897  1.0287 -0.9509
  590SOL     OW 4915   7.146   0.493   0.010  0.1742 -0.3156  0.3942
  590SOL    HW1 4916   7.071   0.453   0.054  1.2124 -0.8226  1.7925
  590SOL    HW2 4917   7.195   0.536   0.080 -0.3718  2.6914 -0.9108
  591SOL     OW 4918   5.253   7.045   3.458 -0.3056  0.0127  0.4543
  591SOL    HW1 4919   5.258   6.950   3.448 -0.5016  0.1491 -1.1597
  591SOL    HW2 4920   5.343   7.076   3.443  0.0361  0.0111  2.2657
  592SOL     OW 4921   1.128   1.036   4.138 -0.1861 -0.1979  0.5134
  592SOL    HW1 4922   1.112   1.122   4.099  1.5192  1.0784  2.4235
  592SOL    HW2 4923   1.107   0.974   4.068 -1.4143  1.7301 -0.9582
  593SOL     OW 4924   5.762   5.673   1.430 -0.2213  0.0912 -0.3578
  593SOL    HW1 4925   5.805   5.665   1.515  0.6053  0.6916 -0.7109
  593SOL    HW2 4926   5.748   5.767   1.420 -0.5008  0.0012 -0.7974
  594SOL     OW 4927   3.825   6.496   6.693  0.2687  0.0465 -0.1541
  594SOL    HW1 4928   3.815   6.409   6.733  0.6695 -0.2336 -0.6434
  594SOL    HW2 4929   3.736   6.522   6.669 -0.0278  0.3913  1.2509
  595SOL     OW 4930   6.235   3.449   2.845 -0.2679 -0.0758  0.3465
  595SOL    HW1 4931   6.172   3.424   2.777 -0.1702 -1.5585  0.7565
  595SOL    HW2 4932   6.320   3.428   2.808  0.1314  2.8425 -0.5887
  596SOL     OW 4933   1.203   0.153   5.833 -0.0161  0.5770 -0.4837
  596SOL    HW1 4934   1.139   0.154   5.904 -1.2389  1.1765 -1.5349
  596SOL    HW2 4935   1.186   0.070   5.787  2.8582 -1.3882  1.6352
  597SOL     OW 4936   1.946   1.289   5.724 -0.6493  0.0160 -0.1906
  597SOL    HW1 4937   2.001   1.216   5.696 -0.1787 -0.1869  1.1913
  597SOL    HW2 4938   1.990   1.367   5.689  1.3423 -0.0188  1.9637
  598SOL     OW 4939   2.675   1.027   5.183  0.5530 -0.2993  0.4996
  598SOL    HW1 4940   2.695   0.940   5.148 -0.3304  0.1339 -1.1902
  598SOL    HW2 4941   2.580   1.036   5.174  0.6053  0.7543  0.8137
  599SOL     OW 4942   4.791   1.563   6.565 -0.2223 -0.3652 -0.1183
  599SOL    HW1 4943   4.863   1.501   6.549  0.3768  0.2329  0.2083
  599SOL    HW2 4944   4.797   1.624   6.491 -0.9736 -0.8353 -0.5781
  600SOL     OW 4945   5.968   5.760   4.355 -0.1839  0.0345  0.4396
  600SOL    HW1 4946   5.898   5.782   4.418  0.9815  0.6859  1.5465
  600SOL    HW2 4947   6.004   5.678   4.388 -0.5125 -0.3847 -0.2235
  601SOL     OW 4948   2.464   1.058   5.464 -0.2244 -0.3911  0.5142
  601SOL    HW1 4949   2.398   1.067   5.532  0.0820 -0.4925  0.8249
  601SOL    HW2 4950   2.524   1.131   5.478 -0.5658  0.0220 -0.1051
  602SOL     OW 4951   1.196   4.494   0.643  0.1178  0.2027  0.4239
  602SOL    HW1 4952   1.193   4.483   0.738 -0.4693 -3.1014  0.1593
  602SOL    HW2 4953   1.209   4.588   0.629  0.1193  0.7938  3.7352
  603SOL     OW 4954   4.753   3.558   2.417  0.1892  0.2456  0.7191
  603SOL    HW1 4955   4.695   3.573   2.343  0.5825  4.2481  1.0143
  603SOL    HW2 4956   4.700   3.508   2.479 -1.3839 -0.0215 -0.7731
  604SOL     OW 4957   0.818   3.032   3.372  0.3809 -0.1416 -0.4950
  604SOL    HW1 4958   0.738   2.998   3.333  0.2687 -0.3839 -0.0671
  604SOL    HW2 4959   0.884   3.022   3.303 -0.1185  0.7960 -1.1187
  605SOL     OW 4960   3.897   4.061   7.485 -0.4829 -0.4748 -0.1772
  605SOL    HW1 4961   3.889   4.156   7.473 -0.8746 -0.3565  0.9514
  605SOL    HW2 4962   3.838   4.024   7.419  0.1141  0.0353 -1.0214
  606SOL     OW 4963   7.429   8.072   6.154  0.1507  0.1075 -0.1973
  606SOL    HW1 4964   7.434   7.977   6.165  0.7927  0.1140 -0.3753
  606SOL    HW2 4965   7.407   8.084   6.062 -1.5068  0.1132  0.1791
  607SOL     OW 4966   5.512   3.417   7.164 -0.4036 -0.2642 -0.5940
  607SOL    HW1 4967   5.483   3.408   7.254 -0.4360 -1.2249 -0.6848
  607SOL    HW2 4968   5.433   3.439   7.114 -0.6516 -1.0925 -0.5800
  608SOL     OW 4969   7.148   5.167   2.174  0.3843 -0.5513 -0.2314
  608SOL    HW1 4970   7.098   5.089   2.201  0.5068 -0.6888 -0.3976
  608SOL    HW2 4971   7.166   5.213   2.256 -1.1246  0.1849 -0.2884
  609SOL     OW 4972   5.857   0.080   4.570 -0.0638 -0.0472 -0.0447
  609SOL    HW1 4973   5.938   0.038   4.599  1.3180  2.0822 -0.5709
  609SOL    HW2 4974   5.811   0.104   4.651  0.4188 -0.1951  0.2727
  610SOL     OW 4975   4.961   6.811   0.065 -0.0801  0.1234  0.2910
  610SOL    HW1 4976   4.915   6.734   0.032  2.1590 -0.6705 -1.1974
  610SOL    HW2 4977   4.907   6.885   0.036 -0.4861 -0.7597 -1.3789
  611SOL     OW 4978   4.692   2.479   0.174  0.0143  0.0594 -0.1529
  611SOL    HW1 4979   4.609   2.522   0.197  0.6993  2.0160 -1.1303
  611SOL    HW2 4980   4.693   2.478   0.078 -0.1478 -2.6316 -0.2015
  612SOL     OW 4981   0.251   3.928   7.184 -0.0440 -0.0059 -0.4452
  612SOL    HW1 4982   0.194   3.854   7.207 -3.3389  1.7432 -2.1734
  612SOL    HW2 4983   0.273   3.913   7.092  1.6786 -0.2140 -0.0245
  613SOL     OW 4984   1.538   3.363   3.928 -0.4596 -0.0110 -0.3573
  613SOL    HW1 4985   1.542   3.424   3.855  0.0146 -0.7910 -1.0024
  613SOL    HW2 4986   1.622   3.376   3.973  0.0986 -0.8955 -1.1015
  614SOL     OW 4987   6.133   1.979   4.569 -0.0122  0.6606  0.6837
  614SOL    HW1 4988   6.106   1.926   4.493 -2.2794  1.2472  1.0155
  614SOL    HW2 4989   6.197   1.924   4.615  0.3493 -0.2844 -0.8799
  615SOL     OW 4990   0.815   5.756   1.940 -0.0143 -0.1259  0.0880
  615SOL    HW1 4991   0.840   5.780   2.029  1.4256  0.6582 -0.4934
  615SOL    HW2 4992   0.799   5.661   1.945 -0.5627  0.0097  1.2922
  616SOL     OW 4993   7.620   3.242   6.015 -0.5757  0.5656  0.1262
  616SOL    HW1 4994   7.668   3.159   6.017  0.7187  1.2947  1.4799
  616SOL    HW2 4995   7.656   3.289   5.940 -0.3644  0.4171  0.1339
  617SOL     OW 4996   2.876   7.571   3.881  0.3753  0.3667 -0.4569
  617SOL    HW1 4997   2.862   7.551   3.788 -0.2442  0.1164 -0.3166
  617SOL    HW2 4998   2.859   7.665   3.889 -0.7123  0.1759 -0.3973
  618SOL     OW 4999   2.235   3.872   2.122 -0.2631  0.3517 -0.0249
  618SOL    HW1 5000   2.180   3.831   2.189 -0.7261  0.5664 -0.2698
  618SOL    HW2 5001   2.325   3.846   2.145 -0.5447 -0.7925 -0.1719
  619SOL     OW 5002   2.032   0.312   0.960  0.1464 -0.0366 -0.6074
  619SOL    HW1 5003   2.025   0.276   1.048  2.3059  0.3506 -0.2143
  619SOL    HW2 5004   1.942   0.336   0.937 -0.4762 -0.1117  1.4980
  620SOL     OW 5005   3.215   0.728   3.380 -0.4607  0.6919  0.5822
  620SOL    HW1 5006   3.298   0.775   3.369  0.6244 -1.3030 -0.2491
  620SOL    HW2 5007   3.187   0.748   3.469 -0.6567  3.7401 -0.0368
  621SOL     OW 5008   6.592   4.940   1.741  0.4528  0.0648 -0.0742
  621SOL    HW1 5009   6.573   5.027   1.706  0.3956  0.0684 -0.0352
  621SOL    HW2 5010   6.670   4.912   1.695 -0.1891 -0.3476 -0.9362
  622SOL     OW 5011   0.496   1.467   1.020 -0.5475  0.2714 -0.2855
  622SOL    HW1 5012   0.513   1.385   0.973 -0.4494 -0.0508  0.3080
  622SOL    HW2 5013   0.515   1.536   0.956 -1.9309 -0.1738 -1.2387
  623SOL     OW 5014   7.998   6.133   6.153 -0.4186  0.3384  0.3039
  623SOL    HW1 5015   7.969   6.050   6.117 -3.4291  0.6757  1.6236
  623SOL    HW2 5016   8.017   6.114   6.245  3.0139  0.3452 -0.2903
  624SOL     OW 5017   1.641   1.183   0.023 -0.2414  0.3827 -0.0213
  624SOL    HW1 5018   1.583   1.138   0.085  0.4464  0.2276  0.5177
  624SOL    HW2 5019   1.659   1.118  -0.045 -0.2987  0.2718  0.0690
  625SOL     OW 5020   4.803   0.445   0.376 -0.1909 -0.6855 -0.2514
  625SOL    HW1 5021   4.885   0.423   0.332  0.1116 -1.0231  0.4519
  625SOL    HW2 5022   4.741   0.378   0.347 -0.1651 -0.5369 -0.6456
  626SOL     OW 5023   1.505   6.442   8.053  0.0062  0.0592  0.0407
  626SOL    HW1 5024   1.470   6.531   8.041 -0.2487  0.0695  0.8463
  626SOL    HW2 5025   1.600   6.453   8.046 -0.0330  0.3672 -0.0252
  627SOL     OW 5026   6.720   6.531   5.688 -0.2746 -0.1668 -0.1334
  627SOL    HW1 5027   6.635   6.501   5.655 -0.2859  0.9966 -1.2693
  627SOL    HW2 5028   6.700   6.611   5.736  0.2427  0.6578 -1.2295
  628SOL     OW 5029   7.350   0.121   4.704 -0.4314 -0.3222 -0.4500
  628SOL    HW1 5030   7.365   0.043   4.651  0.6884 -0.7768  0.4745
  628SOL    HW2 5031   7.299   0.089   4.779 -1.0038  0.0806 -0.6627
  629SOL     OW 5032   1.864   7.554   5.919  0.0714  0.1374  0.2791
  629SOL    HW1 5033   1.850   7.620   5.852 -1.2474 -1.2075 -0.8158
  629SOL    HW2 5034   1.838   7.597   6.001  0.3367  1.3190 -0.2388
  630SOL     OW 5035   7.031   5.325   6.627 -0.0440  0.1110 -0.0907
  630SOL    HW1 5036   7.031   5.281   6.712  2.8915 -0.7726 -0.4277
  630SOL    HW2 5037   7.051   5.417   6.647 -0.1144  0.0513  0.2445
  631SOL     OW 5038   4.657   7.295   1.860  0.7439 -0.0868  0.0628
  631SOL    HW1 5039   4.672   7.338   1.944 -0.2141 -1.6420  1.0766
  631SOL    HW2 5040   4.600   7.221   1.881 -0.8070  0.3841 -2.1883
  632SOL     OW 5041   1.149   5.206   7.518  0.3014  0.2637  0.4718
  632SOL    HW1 5042   1.194   5.224   7.601  0.0171  1.0983  0.4555
  632SOL    HW2 5043   1.210   5.236   7.451  0.9184 -1.2465  0.3243
  633SOL     OW 5044   6.681   6.451   7.089 -0.2123  0.0896  0.1005
  633SOL    HW1 5045   6.591   6.469   7.112  0.2322 -0.0618  2.0768
  633SOL    HW2 5046   6.732   6.521   7.130  0.7861 -1.2448  1.2246
  634SOL     OW 5047   1.297   6.712   5.429  0.0751 -0.5623 -0.0598
  634SOL    HW1 5048   1.221   6.696   5.486 -0.7358 -1.9488 -1.4632
  634SOL    HW2 5049   1.359   6.758   5.485 -2.1127  1.4398  0.9221
  635SOL     OW 5050   3.520   2.405   6.766 -0.1574  0.2477 -0.4826
  635SOL    HW1 5051   3.587   2.371   6.707 -0.6445 -0.2939 -0.7347
  635SOL    HW2 5052   3.505   2.334   6.828  2.4981  1.8157  2.2129
  636SOL     OW 5053   0.420   6.444   3.644 -0.2099  0.3358  0.1477
  636SOL    HW1 5054   0.487   6.377   3.638  0.1748  0.8272 -1.7703
  636SOL    HW2 5055   0.413   6.464   3.737 -1.1352 -3.0968  0.9476
  637SOL     OW 5056   4.335   2.864   7.248 -0.3112  0.7171  0.2736
  637SOL    HW1 5057   4.354   2.784   7.297 -0.2808  0.7437  0.3059
  637SOL    HW2 5058   4.399   2.865   7.177  1.0318  1.7124  1.4091
  638SOL     OW 5059   6.993   7.752   4.045  0.2598  0.1194  0.3233
  638SOL    HW1 5060   7.024   7.841   4.060  0.3877  0.4634 -1.6547
  638SOL    HW2 5061   7.047   7.697   4.102 -0.2532  1.3253  2.0539
  639SOL     OW 5062   5.442   6.312   5.756  0.9056  0.1507 -0.2920
  639SOL    HW1 5063   5.450   6.227   5.713  1.5246 -0.3438  0.7659
  639SOL    HW2 5064   5.348   6.330   5.759  0.8373  0.2233 -1.8533
  640SOL     OW 5065   6.570   7.615   4.550 -0.1873 -0.1936  0.2327
  640SOL    HW1 5066   6.580   7.520   4.541 -1.2583 -0.2773 -0.2416
  640SOL    HW2 5067   6.658   7.650   4.539  0.0660 -1.0610 -0.6012
  641SOL     OW 5068   0.723   1.660   1.159  0.3377  0.5844  0.2574
  641SOL    HW1 5069   0.746   1.633   1.248 -1.6550  0.6585  0.8564
  641SOL    HW2 5070   0.749   1.587   1.103 -1.4539 -1.0185  1.3663
  642SOL     OW 5071   2.934   4.523   7.542  0.3258 -0.4495 -0.0662
  642SOL    HW1 5072   2.983   4.491   7.466 -0.4304 -0.0910 -0.7154
  642SOL    HW2 5073   2.948   4.618   7.542  1.1780 -0.5542  0.8703
  643SOL     OW 5074   4.791   2.922   2.343 -0.4952 -0.4148  0.1135
  643SOL    HW1 5075   4.795   2.957   2.432 -0.0643  1.7459 -0.7087
  643SOL    HW2 5076   4.864   2.963   2.297 -0.1037 -2.2441 -1.0225
  644SOL     OW 5077   6.812   5.730   4.568  0.0904  0.3113  0.0258
  644SOL    HW1 5078   6.876   5.721   4.639  0.9780  0.2372 -0.7658
  644SOL    HW2 5079   6.727   5.728   4.612  0.4545 -2.8538  0.8585
  645SOL     OW 5080   0.826   4.875   7.211 -0.1347  0.3986  0.3869
  645SOL    HW1 5081   0.812   4.822   7.290 -2.0950  0.6250  0.2286
  645SOL    HW2 5082   0.826   4.812   7.139 -0.1237  0.3846  0.3988
  646SOL     OW 5083   2.663   2.342   3.088 -0.3126 -0.3700 -0.1853
  646SOL    HW1 5084   2.580   2.350   3.135  0.2163  1.7254  0.4931
  646SOL    HW2 5085   2.674   2.426   3.043  1.9297 -0.1623  0.6159
  647SOL     OW 5086   0.432   7.836   0.635  0.4847  0.1444  0.0028
  647SOL    HW1 5087   0.524   7.828   0.610  0.6479 -1.5315  0.9869
  647SOL    HW2 5088   0.402   7.746   0.643 -1.2351  0.6761 -0.2442
  648SOL     OW 5089   0.588   7.227   6.256 -0.3801  0.0462  0.1234
  648SOL    HW1 5090   0.679   7.202   6.271 -0.2389  1.4672  1.8678
  648SOL    HW2 5091   0.585   7.320   6.275 -1.3506  1.0634 -4.0500
  649SOL     OW 5092   0.765   3.273   8.006 -0.0021 -0.4154 -0.2279
  649SOL    HW1 5093   0.807   3.237   8.084 -1.1727 -0.0309  0.6036
  649SOL    HW2 5094   0.697   3.210   7.984 -0.0322 -0.2473 -0.6213
  650SOL     OW 5095   5.646   8.092   2.472 -0.2070  0.3492 -0.4421
  650SOL    HW1 5096   5.565   8.042   2.461  0.1343 -0.3913  0.2753
  650SOL    HW2 5097   5.616   8.180   2.497 -0.8175 -0.4781  2.0244
  651SOL     OW 5098   1.839   7.739   2.588  0.4126 -0.2752 -0.1849
  651SOL    HW1 5099   1.893   7.728   2.666 -0.9243  1.0580  0.9945
  651SOL    HW2 5100   1.863   7.824   2.552 -0.3262 -0.0091 -0.0831
  652SOL     OW 5101   2.882   1.039   6.390  0.3864 -0.5633  0.2142
  652SOL    HW1 5102   2.794   1.004   6.381  0.1262 -0.0220  0.5853
  652SOL    HW2 5103   2.908   1.016   6.479 -0.1707  1.0003  0.8174
  653SOL     OW 5104   7.082   7.866   2.249 -0.2007  0.2995 -0.2626
  653SOL    HW1 5105   7.010   7.897   2.304  1.5261  0.2123  2.2109
  653SOL    HW2 5106   7.104   7.780   2.285  0.3146 -0.2427 -1.8103
  654SOL     OW 5107   7.651   1.511   6.140  0.9932 -0.0356  0.3670
  654SOL    HW1 5108   7.621   1.532   6.051 -2.0372 -0.0132  1.2705
  654SOL    HW2 5109   7.640   1.593   6.189  1.3420 -0.3987  1.0667
  655SOL     OW 5110   0.400   1.351   0.636  0.6197 -0.1967  0.2014
  655SOL    HW1 5111   0.339   1.371   0.708  0.6127 -3.1517  1.1618
  655SOL    HW2 5112   0.486   1.371   0.672  0.5519 -0.8792  0.7724
  656SOL     OW 5113   3.898   7.234   5.149  0.0922  0.1435 -0.1356
  656SOL    HW1 5114   3.860   7.303   5.204  0.1429 -0.2045  0.3361
  656SOL    HW2 5115   3.984   7.217   5.187  0.4912  0.5217 -0.8575
  657SOL     OW 5116   7.676   5.980   5.561 -0.5157 -0.0542  0.0475
  657SOL    HW1 5117   7.645   5.973   5.471 -0.0225  0.0463 -0.1379
  657SOL    HW2 5118   7.655   6.070   5.587  0.3429  0.2812 -0.3654
  658SOL     OW 5119   2.914   2.891   5.690 -0.4892  0.3866  0.3973
  658SOL    HW1 5120   2.933   2.853   5.604 -0.1933 -2.3642  1.5615
  658SOL    HW2 5121   2.993   2.940   5.712  0.9819 -1.8545  0.5278
  659SOL     OW 5122   2.685   2.101   4.218 -0.7417 -0.1037 -0.1043
  659SOL    HW1 5123   2.770   2.083   4.178 -0.6604  1.0458 -0.4793
  659SOL    HW2 5124   2.633   2.022   4.200 -0.3536 -0.0589 -1.5169
  660SOL     OW 5125   6.460   2.706   1.923  0.3202  0.0370 -0.0822
  660SOL    HW1 5126   6.388   2.766   1.907 -1.1771 -1.1891  1.5611
  660SOL    HW2 5127   6.538   2.755   1.899 -1.0036  1.5964 -1.4738
  661SOL     OW 5128   3.682   6.005   0.593  0.0079 -0.4893  0.0567
  661SOL    HW1 5129   3.624   6.077   0.616 -2.5679 -2.2165 -0.6181
  661SOL    HW2 5130   3.720   6.029   0.508  1.1970  1.1235  0.9904
  662SOL     OW 5131   3.422   5.372   2.505  0.1709  0.8835 -0.2774
  662SOL    HW1 5132   3.424   5.467   2.511  0.7465  0.7962  3.1246
  662SOL    HW2 5133   3.362   5.345   2.575  0.9549 -1.2753 -0.3539
  663SOL     OW 5134   0.442   2.666   6.334  0.2190 -0.2149  0.2072
  663SOL    HW1 5135   0.421   2.727   6.405  1.3013 -0.0058  0.3684
  663SOL    HW2 5136   0.410   2.581   6.365 -1.0148  0.2038  0.1179
  664SOL     OW 5137   6.331   3.437   0.475  0.8286  0.2862 -0.5022
  664SOL    HW1 5138   6.333   3.437   0.571  0.4223  1.7734 -0.4764
  664SOL    HW2 5139   6.421   3.415   0.449  0.7754 -0.8659  0.1916
  665SOL     OW 5140   2.493   4.877   4.566  0.2523  0.0635 -0.5740
  665SOL    HW1 5141   2.456   4.835   4.489  0.7924  1.3099 -1.5461
  665SOL    HW2 5142   2.562   4.818   4.595  1.6571  0.6630 -2.5005
  666SOL     OW 5143   1.959   5.127   7.841  0.3601  0.0856 -0.0430
  666SOL    HW1 5144   1.973   5.191   7.771 -1.5919 -0.4698 -1.0087
  666SOL    HW2 5145   1.971   5.042   7.797 -1.6358 -0.2890  0.0579
  667SOL     OW 5146   7.502   1.629   7.072 -0.4194  0.5751  0.6241
  667SOL    HW1 5147   7.511   1.559   7.008  0.5710  2.0132 -0.9005
  667SOL    HW2 5148   7.408   1.633   7.090 -0.8925  0.7766 -1.5722
  668SOL     OW 5149   5.137   1.953   4.862 -0.0955  0.2335  0.2915
  668SOL    HW1 5150   5.198   1.997   4.921  1.3427 -1.6745  0.3124
  668SOL    HW2 5151   5.193   1.904   4.802 -1.5804 -1.2731  0.0652
  669SOL     OW 5152   3.826   5.008   2.515  0.3798  0.5681 -0.2452
  669SOL    HW1 5153   3.780   5.082   2.475 -0.9295 -1.0904 -2.0260
  669SOL    HW2 5154   3.758   4.942   2.529  1.7984 -1.0666 -0.6580
  670SOL     OW 5155   2.221   5.932   6.908 -0.2607 -0.5464  0.4122
  670SOL    HW1 5156   2.188   5.842   6.912  2.1403 -1.5731 -0.8082
  670SOL    HW2 5157   2.201   5.962   6.819 -1.1719  0.2212  0.8539
  671SOL     OW 5158   2.514   5.674   3.765 -0.1345  0.7218  0.0439
  671SOL    HW1 5159   2.459   5.619   3.709 -1.5956  1.7016  0.4663
  671SOL    HW2 5160   2.546   5.743   3.707  0.6014  0.2070 -0.1790
  672SOL     OW 5161   0.328   0.550   4.128 -0.0966  0.3834 -0.1991
  672SOL    HW1 5162   0.242   0.568   4.167 -0.1009 -2.1046  1.1787
  672SOL    HW2 5163   0.325   0.592   4.042 -2.4678  0.8621  0.0396
  673SOL     OW 5164   7.272   7.880   6.371 -0.2190  0.4469  0.2004
  673SOL    HW1 5165   7.233   7.949   6.425  1.4693  0.2924  1.7137
  673SOL    HW2 5166   7.200   7.848   6.317 -1.2347  2.8192  0.0269
  674SOL     OW 5167   2.162   1.196   5.141 -0.5147 -0.4077 -0.2564
  674SOL    HW1 5168   2.073   1.183   5.107  0.0231 -0.8997 -1.5359
  674SOL    HW2 5169   2.149   1.243   5.223 -1.9583 -0.4387 -0.4328
  675SOL     OW 5170   2.930   5.026   5.180 -0.3037 -0.4819 -0.2475
  675SOL    HW1 5171   2.880   5.075   5.115 -0.8704 -0.8051 -0.0572
  675SOL    HW2 5172   2.908   5.067   5.263 -0.2341 -0.6117 -0.1643
  676SOL     OW 5173   3.013   6.903   7.374  0.5495 -0.2769 -0.3815
  676SOL    HW1 5174   3.030   6.809   7.375 -0.1100 -0.4637 -2.2510
  676SOL    HW2 5175   2.941   6.915   7.436 -1.0321 -1.4239 -1.8941
  677SOL     OW 5176   8.060   0.760   7.266 -0.5378  0.8573  0.2342
  677SOL    HW1 5177   8.030   0.844   7.300 -0.2623  2.0742 -2.2651
  677SOL    HW2 5178   8.143   0.780   7.223  0.1521 -0.9651  0.6347
  678SOL     OW 5179   2.740   4.951   7.371  0.0678 -0.1628  0.0035
  678SOL    HW1 5180   2.767   4.994   7.290 -1.0299  0.1132 -0.2361
  678SOL    HW2 5181   2.809   4.973   7.434  0.3071  0.6554 -0.5278
  679SOL     OW 5182   0.235   5.193   4.872 -0.0407  0.5108 -0.0794
  679SOL    HW1 5183   0.196   5.230   4.793 -1.2702  1.8878  1.1053
  679SOL    HW2 5184   0.325   5.224   4.872  0.1225  0.0912 -1.1580
  680SOL     OW 5185   4.328   4.988   6.900 -0.1623  0.1961  0.2292
  680SOL    HW1 5186   4.403   4.956   6.951 -0.4642  0.8861  1.1275
  680SOL    HW2 5187   4.269   4.912   6.895 -0.9757  0.6039  2.5469
  681SOL     OW 5188   5.980   4.085   0.790  0.5487 -0.4723 -0.0844
  681SOL    HW1 5189   5.979   4.175   0.823 -0.9501 -0.8810  1.0969
  681SOL    HW2 5190   5.899   4.078   0.739  0.7619 -1.1041 -0.3434
  682SOL     OW 5191   2.981   1.161   3.252  0.4012 -0.5254  0.5349
  682SOL    HW1 5192   2.899   1.178   3.299 -0.1604 -2.5529  0.3620
  682SOL    HW2 5193   3.045   1.220   3.293 -1.0940  1.0290  0.7335
  683SOL     OW 5194   5.024   6.114   2.044  0.0360  0.1216  0.7023
  683SOL    HW1 5195   5.037   6.022   2.069 -0.8475 -0.2125  0.0014
  683SOL    HW2 5196   5.110   6.143   2.014  0.3261 -0.4779  0.9220
  684SOL     OW 5197   4.458   7.532   1.851  0.2722 -0.0072 -0.2410
  684SOL    HW1 5198   4.402   7.465   1.813  0.4968  0.2653 -1.0803
  684SOL    HW2 5199   4.399   7.585   1.904 -0.0142 -0.5137 -0.0499
  685SOL     OW 5200   2.779   1.172   2.153 -0.2208  0.2950  0.2719
  685SOL    HW1 5201   2.825   1.256   2.157  0.6781 -0.1788  0.0456
  685SOL    HW2 5202   2.698   1.192   2.107  0.5636  0.7954 -0.9310
  686SOL     OW 5203   0.829   4.964   1.553 -0.1957 -0.0534 -0.4465
  686SOL    HW1 5204   0.864   5.052   1.565 -3.3363  1.4599 -1.4270
  686SOL    HW2 5205   0.860   4.937   1.467 -0.8500  0.9719 -1.0206
  687SOL     OW 5206   1.509   0.192   3.477  0.7014 -0.3145  0.3009
  687SOL    HW1 5207   1.578   0.239   3.429  0.4037 -0.3371 -0.1523
  687SOL    HW2 5208   1.544   0.184   3.566  1.8914 -1.5274 -0.2433
  688SOL     OW 5209   3.016   2.441   7.110 -0.0074 -0.2676  0.1291
  688SOL    HW1 5210   3.100   2.487   7.110 -0.2832  0.4134  2.6569
  688SOL    HW2 5211   3.013   2.397   7.195 -1.2880 -2.1140 -0.7956
  689SOL     OW 5212   6.752   7.161   0.957 -0.0951 -0.6763  0.2231
  689SOL    HW1 5213   6.667   7.156   1.000 -0.6595  2.2162 -0.3526
  689SOL    HW2 5214   6.767   7.073   0.921 -2.6558 -1.3390  0.6214
  690SOL     OW 5215   2.062   5.332   4.151  0.3751 -0.7852 -0.0550
  690SOL    HW1 5216   2.029   5.364   4.235 -0.2039  0.1648 -0.6157
  690SOL    HW2 5217   1.983   5.310   4.102  0.6231  0.0439 -0.8606
  691SOL     OW 5218   7.657   6.552   3.703  0.7234  0.4535 -0.6062
  691SOL    HW1 5219   7.663   6.594   3.617  2.1559 -0.7562 -1.1372
  691SOL    HW2 5220   7.743   6.563   3.742  1.1763 -1.9397 -0.7750
  692SOL     OW 5221   4.471   5.980   0.062  0.4413 -0.1428 -0.0359
  692SOL    HW1 5222   4.403   6.048   0.065  0.3391 -0.2585  0.2962
  692SOL    HW2 5223   4.424   5.898   0.076  0.6152 -0.2467 -0.0565
  693SOL     OW 5224   1.993   4.649   1.326 -0.0167  0.1304  0.5290
  693SOL    HW1 5225   1.948   4.694   1.254  1.8469  0.5245 -0.4643
  693SOL    HW2 5226   1.968   4.557   1.317 -0.0769  0.2306 -0.4277
  694SOL     OW 5227   6.697   6.112   0.994 -0.4548  0.1017 -0.4411
  694SOL    HW1 5228   6.660   6.181   1.049 -0.3466  0.1409 -0.4167
  694SOL    HW2 5229   6.672   6.135   0.905  1.8608  1.6762 -0.7678
  695SOL     OW 5230   5.314   3.664   0.344  0.4413 -0.0581 -0.2380
  695SOL    HW1 5231   5.252   3.617   0.287  1.4182  0.2880 -1.6344
  695SOL    HW2 5232   5.315   3.613   0.425 -0.2746 -1.1167 -0.8691
  696SOL     OW 5233   6.441   3.014   0.183  0.2548 -0.2787 -0.1422
  696SOL    HW1 5234   6.421   2.950   0.116  0.7580 -0.6817  0.0837
  696SOL    HW2 5235   6.441   3.098   0.137  1.0713 -0.5991 -0.7502
  697SOL     OW 5236   6.479   3.551   6.521  0.2009 -0.1160  0.4142
  697SOL    HW1 5237   6.404   3.604   6.494  1.9030  2.7318  0.8433
  697SOL    HW2 5238   6.479   3.477   6.461 -1.5431  1.0810 -1.1697
  698SOL     OW 5239   0.625   7.582   2.659  0.5326  0.5289 -0.3904
  698SOL    HW1 5240   0.588   7.618   2.740 -0.9850  0.1632 -0.8845
  698SOL    HW2 5241   0.609   7.488   2.665  1.6774  0.3172 -0.4989
  699SOL     OW 5242   4.511   1.320   0.802  0.3550  0.4930 -0.3891
  699SOL    HW1 5243   4.437   1.326   0.862 -1.0832 -1.1027 -1.8914
  699SOL    HW2 5244   4.535   1.411   0.785 -2.6166  1.1985 -1.4190
  700SOL     OW 5245   6.871   1.955   0.109 -0.2338 -0.2751 -0.0527
  700SOL    HW1 5246   6.800   1.981   0.168  2.0757  0.1056  2.8327
  700SOL    HW2 5247   6.860   1.861   0.098 -1.7053 -0.0667 -0.4632
  701SOL     OW 5248   1.608   5.660   6.748 -0.0715 -0.4625  0.0172
  701SOL    HW1 5249   1.691   5.693   6.783  0.3338 -3.1383  1.8978
  701SOL    HW2 5250   1.543   5.726   6.772  1.5093  2.1089 -2.2224
  702SOL     OW 5251   6.270   2.060   5.741 -0.1965 -0.1142  0.6346
  702SOL    HW1 5252   6.306   2.128   5.797 -0.7541  1.8921 -1.3315
  702SOL    HW2 5253   6.181   2.089   5.721  0.1717 -0.3996 -1.7599
  703SOL     OW 5254   6.737   3.874   0.973 -0.1513 -0.4193  0.0155
  703SOL    HW1 5255   6.648   3.910   0.971  0.1088  0.4069  1.8205
  703SOL    HW2 5256   6.777   3.913   1.051  1.4716 -1.5578 -0.2101
  704SOL     OW 5257   5.289   0.680   6.662  0.2884 -0.4503 -0.1452
  704SOL    HW1 5258   5.224   0.618   6.628 -0.8001 -0.0146  1.0575
  704SOL    HW2 5259   5.245   0.765   6.659  1.2098  0.0278 -0.3162
  705SOL     OW 5260   0.765   4.032   2.230 -0.0939 -0.1633 -0.0083
  705SOL    HW1 5261   0.795   3.941   2.236 -1.9078 -0.7714  0.3150
  705SOL    HW2 5262   0.821   4.071   2.163  1.7385 -1.0688  0.9005
  706SOL     OW 5263   0.561   2.321   3.337 -0.4964  0.1654 -0.3288
  706SOL    HW1 5264   0.506   2.248   3.309  1.0803 -1.1364 -0.2043
  706SOL    HW2 5265   0.571   2.375   3.259  1.9895 -2.2062 -1.8564
  707SOL     OW 5266   4.052   4.209   3.523 -0.2508 -0.3340  0.0811
  707SOL    HW1 5267   4.042   4.130   3.576 -0.6104 -0.3838 -0.0573
  707SOL    HW2 5268   3.966   4.250   3.525 -0.4484 -0.6606 -0.9721
  708SOL     OW 5269   4.606   4.121   6.652 -0.5127  0.4243 -0.0347
  708SOL    HW1 5270   4.620   4.105   6.558 -2.6433 -1.0508 -0.1704
  708SOL    HW2 5271   4.589   4.215   6.658 -0.1285  0.5761 -1.0824
  709SOL     OW 5272   1.548   3.173   3.335  0.3999 -0.0856  0.5730
  709SOL    HW1 5273   1.565   3.196   3.426 -2.1422  1.5530  0.7545
  709SOL    HW2 5274   1.547   3.258   3.289  0.2038 -0.7483 -0.6917
  710SOL     OW 5275   7.310   0.375   1.773  0.4143 -0.5995 -0.5937
  710SOL    HW1 5276   7.390   0.372   1.825 -0.8605 -0.6031  1.4744
  710SOL    HW2 5277   7.288   0.283   1.759  1.7285 -0.6373 -2.8236
  711SOL     OW 5278   6.697   6.545   6.780 -0.2343  0.7343  0.4665
  711SOL    HW1 5279   6.708   6.478   6.847 -1.4478 -0.1092 -0.1482
  711SOL    HW2 5280   6.711   6.627   6.826  2.6588  0.0882  0.9734
  712SOL     OW 5281   1.181   0.436   0.429  0.4116 -0.1663  0.2211
  712SOL    HW1 5282   1.092   0.411   0.457  1.1772 -1.9979  1.2041
  712SOL    HW2 5283   1.214   0.490   0.500 -0.1531  1.1626 -0.4952
  713SOL     OW 5284   1.113   4.571   4.711 -0.2733  0.0021 -0.7195
  713SOL    HW1 5285   1.190   4.551   4.658  0.3288 -1.7817  0.7058
  713SOL    HW2 5286   1.101   4.665   4.702  0.4829 -0.0676 -3.0406
  714SOL     OW 5287   6.753   5.765   5.082 -0.3870  0.2666  0.3806
  714SOL    HW1 5288   6.762   5.775   5.177 -1.3652  1.4185  0.3914
  714SOL    HW2 5289   6.771   5.853   5.048  0.4834 -0.2660 -0.5529
  715SOL     OW 5290   5.394   1.536   4.548 -0.7654 -0.0745 -0.3059
  715SOL    HW1 5291   5.437   1.509   4.467  1.2169 -0.9562  0.9435
  715SOL    HW2 5292   5.330   1.467   4.566 -0.2203 -0.6210 -0.4224
  716SOL     OW 5293   7.679   1.244   5.873 -0.1107  0.2345 -0.0919
  716SOL    HW1 5294   7.586   1.267   5.883 -0.1324 -0.6651  2.3421
  716SOL    HW2 5295   7.678   1.160   5.828 -0.5130 -0.0691  0.4715
  717SOL     OW 5296   4.734   0.407   7.356  0.2288  0.1578 -0.3308
  717SOL    HW1 5297   4.741   0.318   7.323 -1.0034  0.0429 -0.3562
  717SOL    HW2 5298   4.646   0.435   7.330 -0.6369  0.2562  2.4018
  718SOL     OW 5299   0.966   7.532   0.922 -0.7152 -0.1742 -0.6126
  718SOL    HW1 5300   0.930   7.607   0.873 -0.8592  0.0439 -0.1846
  718SOL    HW2 5301   0.941   7.456   0.871  0.5312  0.1446 -1.7297
  719SOL     OW 5302   5.279   5.201   7.598  0.4195  0.0992 -0.0994
  719SOL    HW1 5303   5.197   5.151   7.603  0.7483 -0.3637  2.2437
  719SOL    HW2 5304   5.286   5.241   7.685  2.4302  0.5155 -0.4197
  720SOL     OW 5305   7.154   7.695   3.147 -0.2065  0.3075  0.4739
  720SOL    HW1 5306   7.177   7.604   3.127 -1.9369  0.1520 -1.0802
  720SOL    HW2 5307   7.177   7.743   3.068 -0.8912  0.8988  0.6238
  721SOL     OW 5308   2.502   7.891   1.191 -0.2025  0.3350 -0.4342
  721SOL    HW1 5309   2.439   7.864   1.258 -0.8221  0.9954 -0.7401
  721SOL    HW2 5310   2.586   7.894   1.237 -0.7953  1.9177  0.6335
  722SOL     OW 5311   3.230   7.843   7.515 -0.4311 -0.3701 -0.4404
  722SOL    HW1 5312   3.165   7.895   7.467 -1.8630 -2.1850 -0.5911
  722SOL    HW2 5313   3.249   7.894   7.593 -3.8872 -0.7390  0.8243
  723SOL     OW 5314   2.665   7.625   1.928 -0.3098 -0.3272  0.0431
  723SOL    HW1 5315   2.665   7.691   1.859  1.6410 -0.2322  0.1005
  723SOL    HW2 5316   2.616   7.665   1.999 -0.6519  0.3500 -0.5542
  724SOL     OW 5317   3.259   5.989   8.070  0.3931  0.5620  0.0236
  724SOL    HW1 5318   3.215   5.927   8.011  2.8619 -1.6601  0.3463
  724SOL    HW2 5319   3.276   6.066   8.015 -0.0717 -0.2372 -1.2935
  725SOL     OW 5320   2.703   3.559   2.590 -0.0372 -0.0485  0.0884
  725SOL    HW1 5321   2.630   3.499   2.575  0.3269 -0.2590 -0.9297
  725SOL    HW2 5322   2.663   3.646   2.592 -0.3956 -0.2137  0.1780
  726SOL     OW 5323   0.035   5.844   7.667 -0.6674 -0.2753  0.0381
  726SOL    HW1 5324  -0.009   5.883   7.743 -0.0344  0.5430 -0.0059
  726SOL    HW2 5325   0.015   5.903   7.595 -1.2166 -1.0209 -0.4436
  727SOL     OW 5326   0.097   2.093   8.042 -0.2833  0.0711  0.0739
  727SOL    HW1 5327   0.055   2.179   8.046  0.1208  0.3041 -0.5083
  727SOL    HW2 5328   0.039   2.040   7.988  1.2722  1.0925 -2.8576
  728SOL     OW 5329   1.226   0.122   7.289 -0.6783 -0.3210 -0.5714
  728SOL    HW1 5330   1.321   0.126   7.300 -0.8101 -0.9701  1.0808
  728SOL    HW2 5331   1.214   0.081   7.203  0.5002  1.1144 -1.4769
  729SOL     OW 5332   2.871   1.471   7.720  0.2647  0.1624  0.1340
  729SOL    HW1 5333   2.793   1.526   7.708  1.1858  1.2585 -1.1426
  729SOL    HW2 5334   2.917   1.478   7.636  1.5141 -0.8296  0.7177
  730SOL     OW 5335   7.222   3.330   6.087  0.7895 -0.3223 -0.1453
  730SOL    HW1 5336   7.188   3.384   6.016  0.2673  0.3213  0.5920
  730SOL    HW2 5337   7.311   3.361   6.100  1.1981 -1.0274 -1.0853
  731SOL     OW 5338   0.807   6.739   3.101  0.1080  0.1143  0.1571
  731SOL    HW1 5339   0.856   6.813   3.136 -0.2804  0.6951 -0.4994
  731SOL    HW2 5340   0.787   6.685   3.177  0.5928  0.5660  0.6098
  732SOL     OW 5341   4.073   6.501   7.853  0.1281  0.3146 -0.4278
  732SOL    HW1 5342   4.130   6.473   7.781  0.7110 -0.0669  0.1822
  732SOL    HW2 5343   4.043   6.588   7.826  0.0832  0.0495 -1.2847
  733SOL     OW 5344   4.684   0.326   3.037  0.0322 -0.1123 -0.2218
  733SOL    HW1 5345   4.613   0.293   2.981 -0.0593  1.5496 -1.1565
  733SOL    HW2 5346   4.707   0.411   2.998 -0.1895  1.2435  2.3991
  734SOL     OW 5347   0.049   0.311   4.856 -0.3511  0.0661  0.1710
  734SOL    HW1 5348   0.082   0.221   4.850  0.1588  0.2227  0.6299
  734SOL    HW2 5349  -0.046   0.300   4.861 -0.4066 -0.3792 -1.2318
  735SOL     OW 5350   6.970   7.451   5.949  0.0491 -0.0363  0.0295
  735SOL    HW1 5351   6.912   7.454   6.025  0.3880 -0.9883  0.3437
  735SOL    HW2 5352   6.971   7.359   5.924  3.6175 -0.6513  1.8074
  736SOL     OW 5353   7.101   3.940   5.907 -0.5988 -0.1013 -0.6300
  736SOL    HW1 5354   7.027   3.999   5.923  0.5689  1.3538 -0.3843
  736SOL    HW2 5355   7.098   3.922   5.813 -0.5610  0.9588 -0.8479
  737SOL     OW 5356   2.040   5.099   5.315  0.6180 -0.3143  0.1674
  737SOL    HW1 5357   2.114   5.116   5.373 -0.4120  1.2436  1.1202
  737SOL    HW2 5358   1.963   5.124   5.366 -0.4440 -0.2820 -1.3668
  738SOL     OW 5359   4.667   5.715   2.826 -0.1867 -0.3311 -0.2762
  738SOL    HW1 5360   4.594   5.729   2.887 -0.4106  0.9319 -0.7994
  738SOL    HW2 5361   4.628   5.725   2.739  0.6001  0.3667 -0.5645
  739SOL     OW 5362   6.163   1.592   4.763  0.4023  0.3434 -0.0855
  739SOL    HW1 5363   6.151   1.498   4.747  2.2829 -0.1575  1.1020
  739SOL    HW2 5364   6.120   1.608   4.847  3.2174 -0.3563  1.6196
  740SOL     OW 5365   6.065   4.594   6.577 -0.1498  0.4011 -0.2917
  740SOL    HW1 5366   6.103   4.669   6.531 -0.9601 -0.0593 -1.7536
  740SOL    HW2 5367   5.984   4.628   6.614  0.1544  0.5823  0.2284
  741SOL     OW 5368   2.348   3.962   6.115  0.3238  0.5319  0.4598
  741SOL    HW1 5369   2.395   3.939   6.195  0.8914  2.9235  0.8887
  741SOL    HW2 5370   2.374   4.052   6.097  0.3634  0.0081 -2.5657
  742SOL     OW 5371   3.984   3.713   7.397 -0.2679  0.1995 -0.2703
  742SOL    HW1 5372   3.948   3.769   7.328 -1.4258 -0.6035 -0.3571
  742SOL    HW2 5373   3.998   3.628   7.354 -2.5910 -0.8185  0.8235
  743SOL     OW 5374   0.676   6.813   7.710  0.2545  0.3513  0.7576
  743SOL    HW1 5375   0.757   6.775   7.744  1.0535  0.1401 -1.2800
  743SOL    HW2 5376   0.607   6.756   7.743  1.0792 -0.4730  1.1128
  744SOL     OW 5377   0.776   6.743   3.970  0.0687  0.1499  0.0072
  744SOL    HW1 5378   0.722   6.693   3.908  0.1733 -0.9491  0.7814
  744SOL    HW2 5379   0.715   6.771   4.038  0.5584 -1.8991  1.3881
  745SOL     OW 5380   2.062   4.434   2.072 -0.1334  0.2395 -0.1437
  745SOL    HW1 5381   2.078   4.339   2.074 -1.3282  0.0281  0.3480
  745SOL    HW2 5382   2.107   4.468   2.149  1.3654  0.2814 -0.9921
  746SOL     OW 5383   0.215   1.524   5.321  0.2884  0.2717  0.2129
  746SOL    HW1 5384   0.291   1.574   5.292 -0.0960 -0.4475 -2.3405
  746SOL    HW2 5385   0.217   1.444   5.269 -1.9115  0.0079  0.4049
  747SOL     OW 5386   0.489   0.025   5.473 -0.2179 -0.0300 -0.7336
  747SOL    HW1 5387   0.418   0.089   5.480 -0.8189 -0.7090 -0.5212
  747SOL    HW2 5388   0.538   0.053   5.395 -1.0182  0.1533 -1.1882
  748SOL     OW 5389   3.800   3.777   7.613  0.1989 -0.3558 -0.3569
  748SOL    HW1 5390   3.842   3.705   7.567  1.4274  0.4463 -0.5357
  748SOL    HW2 5391   3.843   3.780   7.699 -1.2370 -1.0804  0.4173
  749SOL     OW 5392   5.392   7.751   7.562  0.0044  0.7720  0.5739
  749SOL    HW1 5393   5.358   7.819   7.504 -2.3046 -0.1312  0.7912
  749SOL    HW2 5394   5.319   7.729   7.620  0.3990 -2.3684  0.0706
  750SOL     OW 5395   3.679   2.776   0.715  0.3911 -0.6380  0.5703
  750SOL    HW1 5396   3.640   2.711   0.773 -0.7265  0.1573  0.7554
  750SOL    HW2 5397   3.759   2.803   0.759 -0.1166 -0.5076  1.4503
  751SOL     OW 5398   4.821   2.350   0.645  0.6505  0.2206  0.6012
  751SOL    HW1 5399   4.794   2.261   0.624 -1.1237  0.4470  1.6933
  751SOL    HW2 5400   4.778   2.370   0.728  1.7665  1.7758  0.8587
  752SOL     OW 5401   4.233   6.333   1.210 -0.0033 -0.3952 -0.3911
  752SOL    HW1 5402   4.261   6.329   1.301 -0.2285 -1.8202 -0.3660
  752SOL    HW2 5403   4.313   6.356   1.161  0.2938 -0.4203  0.0769
  753SOL     OW 5404   4.944   0.734   4.812  0.2797  0.6815  0.1899
  753SOL    HW1 5405   5.001   0.770   4.744  2.0714 -1.9891  0.1123
  753SOL    HW2 5406   5.004   0.686   4.870 -1.7070 -0.9422  1.0129
  754SOL     OW 5407   2.546   0.844   4.398  0.1562  0.2183 -0.3482
  754SOL    HW1 5408   2.502   0.896   4.331 -2.3427 -0.3029  0.7990
  754SOL    HW2 5409   2.569   0.763   4.354 -1.3453 -0.0672 -0.6471
  755SOL     OW 5410   6.716   2.712   5.807 -0.3378  0.0043 -0.1358
  755SOL    HW1 5411   6.704   2.637   5.866 -0.2928  0.0570 -0.0609
  755SOL    HW2 5412   6.680   2.682   5.724  1.0747 -0.6655 -0.5420
  756SOL     OW 5413   6.208   2.767   4.978 -0.4892 -0.6260 -0.1003
  756SOL    HW1 5414   6.290   2.815   4.992 -1.4917  0.8972  0.7427
  756SOL    HW2 5415   6.167   2.764   5.065 -0.8061 -2.4071 -0.2746
  757SOL     OW 5416   2.779   4.333   0.427 -0.6588  0.3033  0.0203
  757SOL    HW1 5417   2.797   4.246   0.392  2.2452  1.2016 -0.9605
  757SOL    HW2 5418   2.767   4.388   0.349 -1.1310  1.0444  0.6035
  758SOL     OW 5419   4.071   2.177   2.993  0.3594 -0.0420  0.3225
  758SOL    HW1 5420   4.091   2.101   3.046  0.9004 -0.3103 -0.2501
  758SOL    HW2 5421   4.096   2.151   2.904 -1.6299 -0.0466 -0.2859
  759SOL     OW 5422   4.211   6.743   6.744  0.0784  0.0275 -0.2588
  759SOL    HW1 5423   4.151   6.816   6.758  1.3421  1.0403  0.0327
  759SOL    HW2 5424   4.242   6.720   6.831 -1.0022 -1.5055 -0.2369
  760SOL     OW 5425   4.756   1.700   3.059 -0.3842  0.2428 -0.4462
  760SOL    HW1 5426   4.694   1.749   3.112 -0.8052 -1.3689  0.6119
  760SOL    HW2 5427   4.781   1.625   3.113  0.7886 -0.3406 -1.7193
  761SOL     OW 5428   2.252   1.788   3.467 -0.2404  0.6074 -0.3056
  761SOL    HW1 5429   2.185   1.842   3.509 -0.6894 -0.7100  0.7403
  761SOL    HW2 5430   2.214   1.700   3.466  0.0941  0.4295 -2.7921
  762SOL     OW 5431   0.421   5.248   3.062  0.0538  0.0452 -0.5643
  762SOL    HW1 5432   0.467   5.291   3.134  0.5399 -1.5060  0.0954
  762SOL    HW2 5433   0.435   5.306   2.987  1.3381  0.6547  0.1083
  763SOL     OW 5434   3.205   2.216   4.285  0.0059  0.4247 -0.0403
  763SOL    HW1 5435   3.233   2.269   4.211 -1.5639  0.8619 -0.3612
  763SOL    HW2 5436   3.164   2.139   4.245 -0.7050  0.5845  0.3599
  764SOL     OW 5437   3.337   1.564   0.577  0.1168  0.1093 -0.4667
  764SOL    HW1 5438   3.359   1.657   0.573  4.0725 -0.6702 -0.8719
  764SOL    HW2 5439   3.276   1.552   0.504 -1.4251  2.5105  0.2957
  765SOL     OW 5440   1.128   3.980   2.321 -0.8477 -0.0718  0.2442
  765SOL    HW1 5441   1.117   3.925   2.243 -2.0590 -0.7879  0.8848
  765SOL    HW2 5442   1.177   4.056   2.290 -0.0820 -0.9944 -0.9096
  766SOL     OW 5443   4.399   3.855   0.091  0.5330  0.8203 -0.3084
  766SOL    HW1 5444   4.459   3.781   0.081  1.1345  1.4805 -1.7020
  766SOL    HW2 5445   4.453   3.933   0.079 -0.2990  1.4808  0.0963
  767SOL     OW 5446   5.793   7.647   5.516  0.2632 -0.2861  0.1892
  767SOL    HW1 5447   5.846   7.721   5.547  0.6110 -0.3848 -0.1540
  767SOL    HW2 5448   5.703   7.674   5.531  0.3028  0.9349 -1.4410
  768SOL     OW 5449   2.047   6.445   3.643  0.2622  0.0907 -0.2218
  768SOL    HW1 5450   2.020   6.486   3.725 -0.4179  2.2102 -1.3998
  768SOL    HW2 5451   1.964   6.419   3.601  0.4921  0.3534 -0.8505
  769SOL     OW 5452   5.934   5.926   2.483  0.1540  0.5877  0.1268
  769SOL    HW1 5453   6.011   5.908   2.428  0.1474  0.5923  0.1164
  769SOL    HW2 5454   5.969   5.980   2.555  0.1113  0.8119 -0.0202
  770SOL     OW 5455   3.296   0.225   4.900  0.3761 -0.1609  0.3183
  770SOL    HW1 5456   3.330   0.293   4.958 -1.0969 -0.3781  1.5018
  770SOL    HW2 5457   3.201   0.232   4.908  0.1786 -1.9971  0.0334
  771SOL     OW 5458   2.535   0.054   6.833 -0.1465  0.2267 -0.4284
  771SOL    HW1 5459   2.497   0.012   6.756 -1.2240 -1.3562  0.8923
  771SOL    HW2 5460   2.483   0.021   6.907  2.5268 -0.5465  1.2930
  772SOL     OW 5461   3.802   4.800   7.972 -0.1247  0.0924  0.2287
  772SOL    HW1 5462   3.741   4.745   7.923 -1.9047  0.9832  1.3269
  772SOL    HW2 5463   3.878   4.744   7.987 -1.0533 -1.3894 -0.3952
  773SOL     OW 5464   0.236   5.048   7.962  0.7239 -0.2669  0.5294
  773SOL    HW1 5465   0.287   5.068   8.041  0.3522 -0.3088  0.7837
  773SOL    HW2 5466   0.157   5.004   7.995  0.9714 -1.0687  0.0605
  774SOL     OW 5467   0.155   4.861   3.431  0.0701  0.2037  0.5482
  774SOL    HW1 5468   0.230   4.819   3.388 -0.5527 -0.1744 -0.2020
  774SOL    HW2 5469   0.081   4.839   3.376 -0.5622  0.7902  1.1437
  775SOL     OW 5470   5.635   5.912   1.136  0.1556 -0.0192  0.4381
  775SOL    HW1 5471   5.558   5.954   1.099  0.9804  0.3237 -0.9259
  775SOL    HW2 5472   5.639   5.946   1.226  0.3991  2.2956 -0.3809
  776SOL     OW 5473   3.753   6.612   1.396 -0.0606 -0.0279  0.1911
  776SOL    HW1 5474   3.740   6.687   1.454 -0.0461 -0.1492  0.3519
  776SOL    HW2 5475   3.689   6.624   1.326  1.1534  1.1136 -0.7712
  777SOL     OW 5476   2.895   2.223   0.669  0.1139  0.3686 -0.3525
  777SOL    HW1 5477   2.928   2.303   0.708  1.1938  0.2214 -0.9407
  777SOL    HW2 5478   2.965   2.192   0.612 -0.6361 -0.5053 -0.8455
  778SOL     OW 5479   5.193   6.408   1.809 -0.2274 -0.3618 -0.0077
  778SOL    HW1 5480   5.113   6.457   1.830 -0.7289 -0.4655 -1.5138
  778SOL    HW2 5481   5.190   6.332   1.866 -0.5419  0.2912  0.8604
  779SOL     OW 5482   6.463   1.784   4.464  0.3689  0.5026 -0.1416
  779SOL    HW1 5483   6.409   1.792   4.543  1.0586  3.3241  0.1583
  779SOL    HW2 5484   6.519   1.862   4.466 -1.0767  1.9586 -4.5578
  780SOL     OW 5485   2.141   5.299   1.723  0.0093 -0.5043  0.0082
  780SOL    HW1 5486   2.159   5.305   1.630 -1.6407  0.1237 -0.3086
  780SOL    HW2 5487   2.215   5.344   1.765  0.2594  0.1085 -1.0513
  781SOL     OW 5488   2.772   2.582   7.117  0.8622 -0.1702  0.7653
  781SOL    HW1 5489   2.861   2.575   7.150  0.7367 -0.7287  1.0075
  781SOL    HW2 5490   2.760   2.502   7.066  1.1492  0.8087 -0.8926
  782SOL     OW 5491   1.713   1.742   0.313  0.0897  0.4830  0.5872
  782SOL    HW1 5492   1.710   1.670   0.375  0.6868  0.2165  0.3150
  782SOL    HW2 5493   1.642   1.800   0.340  0.4621  0.4712  1.6302
  783SOL     OW 5494   1.337   7.529   3.456 -0.1811  0.1942  0.5979
  783SOL    HW1 5495   1.287   7.511   3.536 -0.3670 -0.2984  0.3770
  783SOL    HW2 5496   1.290   7.600   3.413 -1.1713 -0.8164 -0.0198
  784SOL     OW 5497   3.756   4.273   1.164 -0.3406  0.1171  0.8311
  784SOL    HW1 5498   3.724   4.209   1.228 -0.5245 -0.0883  0.5343
  784SOL    HW2 5499   3.683   4.284   1.103 -0.0011 -0.0329  0.3940
  785SOL     OW 5500   6.076   7.784   6.695 -0.4238  0.3723  0.1884
  785SOL    HW1 5501   6.129   7.731   6.754  1.4880  0.3059 -1.4577
  785SOL    HW2 5502   5.994   7.735   6.686  0.0199 -0.6089  1.2262
  786SOL     OW 5503   3.037   1.842   4.033 -0.2059  0.1997 -0.2618
  786SOL    HW1 5504   3.094   1.767   4.017 -2.7446 -1.5435 -1.8391
  786SOL    HW2 5505   3.030   1.886   3.949  0.4387  1.6588  0.4099
  787SOL     OW 5506   0.284   1.025   1.232 -0.2253  0.1424 -0.9871
  787SOL    HW1 5507   0.299   1.061   1.144 -1.0726 -0.7216 -1.4996
  787SOL    HW2 5508   0.294   0.931   1.222  0.6108  0.1036  0.0571
  788SOL     OW 5509   5.967   2.828   5.128 -0.4682  0.1708  0.7403
  788SOL    HW1 5510   5.970   2.743   5.085 -1.0405  1.7231 -2.7065
  788SOL    HW2 5511   6.010   2.814   5.213 -1.0226 -3.6025  0.5648
  789SOL     OW 5512   7.035   1.491   3.992 -0.0209 -0.4281 -0.5642
  789SOL    HW1 5513   7.004   1.563   3.936 -0.2446 -0.4793 -0.5088
  789SOL    HW2 5514   6.961   1.473   4.050  0.5130  0.2063  0.3407
  790SOL     OW 5515   2.228   0.418   0.824 -0.9702  0.2332 -0.7469
  790SOL    HW1 5516   2.159   0.382   0.880 -0.0243  0.4256  0.5766
  790SOL    HW2 5517   2.181   0.466   0.756 -2.1536 -0.1291 -0.2121
  791SOL     OW 5518   6.277   3.969   7.893 -0.1451 -0.0454 -0.1270
  791SOL    HW1 5519   6.303   4.056   7.863  1.0034 -0.9701 -2.0159
  791SOL    HW2 5520   6.230   3.985   7.975  0.0524  2.3305 -0.3986
  792SOL     OW 5521   6.317   2.204   4.426  0.7388  0.1381  0.0655
  792SOL    HW1 5522   6.321   2.213   4.521 -0.6740  0.5753  0.1143
  792SOL    HW2 5523   6.406   2.221   4.396  0.9515  1.2246  1.2286
  793SOL     OW 5524   2.077   5.451   4.985  0.0716 -0.4203  0.0443
  793SOL    HW1 5525   2.003   5.437   5.044  0.5832 -1.4014  0.4777
  793SOL    HW2 5526   2.086   5.367   4.939  0.8867 -0.2992 -0.0248
  794SOL     OW 5527   1.368   6.251   5.626 -0.1896 -0.3209  0.3327
  794SOL    HW1 5528   1.300   6.279   5.564  0.4935 -0.7335 -0.6242
  794SOL    HW2 5529   1.336   6.168   5.661 -0.5731 -0.0918  0.5417
  795SOL     OW 5530   4.564   3.104   7.770  0.4496  0.1430 -0.3010
  795SOL    HW1 5531   4.480   3.091   7.727  0.5624 -0.8187 -0.2445
  795SOL    HW2 5532   4.598   3.016   7.785  1.4225  0.5162 -0.2248
  796SOL     OW 5533   1.394   4.397   8.033  0.0127  0.1983  0.4042
  796SOL    HW1 5534   1.337   4.330   7.996  1.2153 -1.3976  1.3016
  796SOL    HW2 5535   1.409   4.458   7.961 -0.6330 -0.8219 -0.6365
  797SOL     OW 5536   3.898   0.622   3.826  0.7093  0.7439 -0.0029
  797SOL    HW1 5537   3.840   0.547   3.817  2.1672 -0.2364 -1.8013
  797SOL    HW2 5538   3.902   0.638   3.920 -3.0456  1.4060  0.2341
  798SOL     OW 5539   2.190   6.470   1.329  0.0503 -0.2837  0.0893
  798SOL    HW1 5540   2.115   6.453   1.386  0.7281 -0.1321  1.0508
  798SOL    HW2 5541   2.163   6.436   1.244 -0.1730 -2.5296  0.9771
  799SOL     OW 5542   3.349   6.075   4.130  0.3626 -0.6819  0.0656
  799SOL    HW1 5543   3.328   5.991   4.091 -0.0060  0.2289 -1.7859
  799SOL    HW2 5544   3.434   6.062   4.172  0.4918 -1.8684 -0.5331
  800SOL     OW 5545   7.976   7.732   5.221  0.2073  0.0760 -0.1214
  800SOL    HW1 5546   7.979   7.738   5.126  0.2729 -1.4335 -0.2445
  800SOL    HW2 5547   7.884   7.713   5.241  0.2235  0.2360  0.1057
  801SOL     OW 5548   1.305   2.363   7.007 -0.0036  0.1447 -0.2891
  801SOL    HW1 5549   1.230   2.416   6.983 -1.0722 -1.5893 -0.9653
  801SOL    HW2 5550   1.367   2.376   6.935 -0.2723  0.4223 -0.4731
  802SOL     OW 5551   2.342   6.544   7.386  0.1241 -0.2743  0.4115
  802SOL    HW1 5552   2.299   6.474   7.337 -0.6625  1.3095 -1.2837
  802SOL    HW2 5553   2.423   6.561   7.336  0.2808  0.0640  0.7819
  803SOL     OW 5554   4.646   1.647   2.787 -0.6315 -0.3318 -0.2073
  803SOL    HW1 5555   4.703   1.695   2.727 -1.2945 -0.7378 -1.1949
  803SOL    HW2 5556   4.695   1.642   2.869  1.4185 -1.9240 -1.4430
  804SOL     OW 5557   3.148   6.572   1.251 -0.2523  0.1403 -0.1427
  804SOL    HW1 5558   3.149   6.651   1.305 -0.1793 -0.1379  0.2728
  804SOL    HW2 5559   3.057   6.544   1.252 -0.2766  0.2174 -0.2839
  805SOL     OW 5560   4.634   3.371   3.334  0.6217 -0.4193  0.4601
  805SOL    HW1 5561   4.587   3.431   3.393  1.3727 -0.4840  1.1374
  805SOL    HW2 5562   4.651   3.423   3.256 -1.9694 -0.8496 -0.4956
  806SOL     OW 5563   2.828   5.519   7.866  0.2680 -0.3891 -0.2979
  806SOL    HW1 5564   2.893   5.556   7.806  0.1932 -0.6771 -0.5606
  806SOL    HW2 5565   2.752   5.577   7.857  0.5093 -0.0104  0.0617
  807SOL     OW 5566   3.648   7.637   1.659 -0.0689  0.8437  0.1352
  807SOL    HW1 5567   3.582   7.688   1.704 -0.1957 -0.7384  1.8426
  807SOL    HW2 5568   3.599   7.575   1.606  0.0648  0.5978  0.2991
  808SOL     OW 5569   6.802   3.025   2.946 -0.1369 -0.4256  0.3187
  808SOL    HW1 5570   6.839   2.966   2.881 -0.5830 -0.5132  0.1359
  808SOL    HW2 5571   6.807   3.111   2.905  1.7148 -0.1166  1.1058
  809SOL     OW 5572   6.049   0.904   8.067 -0.0297 -0.1417  0.2393
  809SOL    HW1 5573   6.012   0.991   8.079 -0.9397 -0.6330  1.1648
  809SOL    HW2 5574   6.019   0.854   8.143  0.4160 -1.2833 -0.3049
  810SOL     OW 5575   5.879   2.115   7.900 -0.1028  0.3438 -0.1768
  810SOL    HW1 5576   5.943   2.045   7.905 -0.4279  0.0663  0.2435
  810SOL    HW2 5577   5.794   2.070   7.901 -0.3387  0.7751  1.2536
  811SOL     OW 5578   5.569   4.594   1.758 -0.7894  0.3174 -0.1687
  811SOL    HW1 5579   5.504   4.533   1.723 -1.1281 -0.3285  1.4801
  811SOL    HW2 5580   5.517   4.665   1.795 -0.4643  0.7212 -0.4849
  812SOL     OW 5581   1.057   6.477   7.074 -0.4664 -0.2131 -0.1746
  812SOL    HW1 5582   1.111   6.470   6.995 -0.4100  1.1345 -0.2826
  812SOL    HW2 5583   1.109   6.437   7.143 -0.1152 -0.5662 -0.6401
  813SOL     OW 5584   1.143   3.638   4.256 -0.5069 -0.3022  0.4662
  813SOL    HW1 5585   1.092   3.684   4.323  3.5007  0.4883  3.3220
  813SOL    HW2 5586   1.148   3.547   4.286 -0.2884 -0.3939  0.1698
  814SOL     OW 5587   0.326   3.755   4.550  0.6403 -0.9039 -0.0557
  814SOL    HW1 5588   0.308   3.845   4.521  1.9454 -1.0489 -1.3967
  814SOL    HW2 5589   0.361   3.766   4.639  0.2758 -0.1439  0.0077
  815SOL     OW 5590   2.951   1.835   7.367 -0.5899  0.6502 -0.4162
  815SOL    HW1 5591   3.033   1.785   7.366  0.3565  2.0936  0.8630
  815SOL    HW2 5592   2.928   1.846   7.274  1.9006  2.1108 -0.9611
  816SOL     OW 5593   0.946   7.007   0.355 -0.2975 -0.5907  0.2010
  816SOL    HW1 5594   0.992   6.982   0.435  1.9749  0.2242 -0.7523
  816SOL    HW2 5595   0.967   6.938   0.292 -0.1018 -0.0542 -0.3379
  817SOL     OW 5596   6.773   7.918   5.484 -0.1106 -0.2652  0.4246
  817SOL    HW1 5597   6.762   8.007   5.518 -0.0363  0.1457 -0.5876
  817SOL    HW2 5598   6.772   7.863   5.562 -0.0956  0.6239  1.0782
  818SOL     OW 5599   3.520   4.992   1.344  0.2433 -0.3179 -0.4371
  818SOL    HW1 5600   3.604   4.968   1.306  1.0320  0.5732  0.6611
  818SOL    HW2 5601   3.524   5.088   1.355 -1.4339 -0.0762 -1.5511
  819SOL     OW 5602   4.770   6.060   0.682  0.3585  0.3647  0.3709
  819SOL    HW1 5603   4.759   5.969   0.707  0.8403  0.5988  1.4911
  819SOL    HW2 5604   4.747   6.110   0.761  1.2024  1.1623  0.1305
  820SOL     OW 5605   5.442   4.949   5.933  0.0796  0.2411  0.1529
  820SOL    HW1 5606   5.354   4.966   5.967  0.0756 -0.3030  0.4193
  820SOL    HW2 5607   5.446   4.854   5.922  0.7860  0.2198  0.5531
  821SOL     OW 5608   6.406   2.481   1.765  0.1870  0.5717 -0.1320
  821SOL    HW1 5609   6.418   2.534   1.844  0.4297 -1.1634  1.0546
  821SOL    HW2 5610   6.495   2.469   1.731  0.3685 -0.6480  0.7120
  822SOL     OW 5611   0.430   0.838   4.248 -0.0617  0.0011  0.4440
  822SOL    HW1 5612   0.371   0.765   4.269  1.4444 -2.1799 -2.1369
  822SOL    HW2 5613   0.386   0.884   4.176  0.4812 -0.4570 -0.1911
  823SOL     OW 5614   1.765   7.937   4.795  0.1656 -0.4562  0.1210
  823SOL    HW1 5615   1.773   7.844   4.813  0.0541 -0.4236  0.3542
  823SOL    HW2 5616   1.716   7.972   4.871 -0.6276 -0.3727 -0.4127
  824SOL     OW 5617   5.107   2.473   2.059 -0.3972 -0.7862  0.6310
  824SOL    HW1 5618   5.142   2.466   1.970 -1.9748  1.4285 -0.2485
  824SOL    HW2 5619   5.183   2.457   2.116  1.2986  0.4772 -1.1490
  825SOL     OW 5620   5.876   4.136   6.226 -0.5819  0.1377  0.0290
  825SOL    HW1 5621   5.971   4.149   6.234 -0.5764  0.6874 -0.7902
  825SOL    HW2 5622   5.852   4.088   6.305  0.3048  0.4089  0.4816
  826SOL     OW 5623   1.328   4.106   0.598  0.0931 -0.3525 -0.6811
  826SOL    HW1 5624   1.275   4.115   0.677  0.0757  1.1988 -0.8425
  826SOL    HW2 5625   1.418   4.120   0.628  0.1465 -0.3825 -0.8272
  827SOL     OW 5626   2.030   0.472   0.623  0.1480  0.3593  0.6557
  827SOL    HW1 5627   1.949   0.458   0.574  1.2060 -0.1267 -1.0321
  827SOL    HW2 5628   2.087   0.520   0.563  1.4859 -0.2191  1.4096
  828SOL     OW 5629   2.068   6.410   2.686 -0.1348  1.0323 -0.3311
  828SOL    HW1 5630   2.010   6.415   2.610 -0.2599 -1.1061 -0.4548
  828SOL    HW2 5631   2.025   6.462   2.753 -1.4442  0.7215 -0.8963
  829SOL     OW 5632   1.013   1.344   7.727  0.0855  0.3883 -0.0956
  829SOL    HW1 5633   1.015   1.288   7.649 -0.7556  1.6315 -1.0812
  829SOL    HW2 5634   1.105   1.364   7.745  0.2566  1.9631 -2.2677
  830SOL     OW 5635   3.160   4.186   1.575  0.2042 -0.0312  0.1766
  830SOL    HW1 5636   3.204   4.138   1.505  1.2930 -0.6351  1.2308
  830SOL    HW2 5637   3.147   4.121   1.644 -0.2214  0.7025  0.8063
  831SOL     OW 5638   1.261   2.326   3.181  0.2641 -0.6672  0.7841
  831SOL    HW1 5639   1.298   2.330   3.093 -0.4222  0.2424  0.5219
  831SOL    HW2 5640   1.322   2.272   3.231 -0.0004 -2.2885 -0.5679
  832SOL     OW 5641   2.056   0.776   7.822 -0.0241 -0.1836 -0.0461
  832SOL    HW1 5642   2.106   0.832   7.763  0.7050 -0.1135  0.6321
  832SOL    HW2 5643   2.121   0.737   7.880 -0.6521 -0.8375  0.2373
  833SOL     OW 5644   2.305   2.607   7.931 -0.3484 -0.0349 -0.5300
  833SOL    HW1 5645   2.345   2.638   8.012 -0.6180  1.9885 -1.1126
  833SOL    HW2 5646   2.378   2.593   7.871 -0.2983  2.1338 -1.0863
  834SOL     OW 5647   0.766   2.021   0.324  0.0573 -0.3667  0.7854
  834SOL    HW1 5648   0.748   2.074   0.402  2.2937  0.6796  0.6664
  834SOL    HW2 5649   0.688   2.031   0.270 -0.6943  0.5698  1.9914
  835SOL     OW 5650   7.239   1.046   3.952 -0.2557 -0.2446  0.0038
  835SOL    HW1 5651   7.161   1.029   3.899 -0.8589 -0.1945  0.8654
  835SOL    HW2 5652   7.238   1.141   3.966  0.2035 -0.1826 -0.3370
  836SOL     OW 5653   3.032   7.131   4.697 -0.2036  0.6286  0.0467
  836SOL    HW1 5654   2.983   7.101   4.620  0.0605 -1.6409  0.6756
  836SOL    HW2 5655   3.022   7.060   4.761  1.2516  1.5350  1.3654
  837SOL     OW 5656   1.954   4.215   0.250  0.2797  0.8768 -0.5602
  837SOL    HW1 5657   1.990   4.139   0.204  0.9118  0.8002  0.0517
  837SOL    HW2 5658   2.018   4.284   0.238  0.3998  0.8905  0.1026
  838SOL     OW 5659   0.417   2.808   0.300  0.1910  0.1371  0.3819
  838SOL    HW1 5660   0.427   2.775   0.389  2.0440  0.4872  0.3405
  838SOL    HW2 5661   0.502   2.791   0.258 -0.6636 -0.1013 -1.3454
  839SOL     OW 5662   5.220   1.710   4.247 -0.6221 -0.0830 -0.2168
  839SOL    HW1 5663   5.171   1.691   4.327  0.3984 -1.3728  0.1364
  839SOL    HW2 5664   5.159   1.690   4.176 -1.7939  1.7888  0.1897
  840SOL     OW 5665   5.468   4.307   2.403 -0.2537  0.2049 -0.1639
  840SOL    HW1 5666   5.436   4.323   2.315 -0.2825  0.3008 -0.1358
  840SOL    HW2 5667   5.395   4.330   2.460 -1.1946 -2.3795 -0.2213
  841SOL     OW 5668   4.310   4.165   7.905  0.2892 -0.1703  0.0463
  841SOL    HW1 5669   4.269   4.162   7.991  0.0184 -0.8547 -0.1064
  841SOL    HW2 5670   4.287   4.082   7.864  0.4480  0.1370 -0.6739
  842SOL     OW 5671   7.337   2.433   1.776  0.0809 -0.1145  0.2600
  842SOL    HW1 5672   7.424   2.473   1.771  0.9065 -1.5888  1.8213
  842SOL    HW2 5673   7.319   2.403   1.688  1.2546  0.0052 -0.0403
  843SOL     OW 5674   2.820   5.913   6.275  0.1652 -0.5568 -0.2062
  843SOL    HW1 5675   2.891   5.949   6.328  0.1149  0.4312 -0.7918
  843SOL    HW2 5676   2.863   5.882   6.195  0.1360 -1.3639  0.0760
  844SOL     OW 5677   2.417   5.004   0.459 -0.0470 -0.3333  0.2575
  844SOL    HW1 5678   2.467   5.075   0.499  2.5685 -2.1447  0.4485
  844SOL    HW2 5679   2.390   5.039   0.374  2.2031  0.5509 -0.1672
  845SOL     OW 5680   7.521   6.007   1.853 -0.3277  0.0263 -0.1375
  845SOL    HW1 5681   7.548   5.919   1.828 -1.5464 -0.4568  0.1635
  845SOL    HW2 5682   7.460   5.994   1.926 -0.2694  1.1355  0.1302
  846SOL     OW 5683   5.291   4.866   7.700  0.3496  0.1007  0.4333
  846SOL    HW1 5684   5.306   4.777   7.667  0.4779 -0.1032  1.0257
  846SOL    HW2 5685   5.378   4.899   7.721  0.2347  0.0421  1.0231
  847SOL     OW 5686   7.186   5.682   7.666  0.0930  0.2724 -0.4862
  847SOL    HW1 5687   7.136   5.729   7.733  1.8431 -0.0066  1.1083
  847SOL    HW2 5688   7.252   5.745   7.637  0.2173 -0.0601 -0.9390
  848SOL     OW 5689   0.098   2.887   1.558 -0.1036 -0.3039  0.0445
  848SOL    HW1 5690   0.165   2.955   1.551 -1.0349  0.7884  1.2323
  848SOL    HW2 5691   0.147   2.808   1.581  0.7741  0.5220  1.1245
  849SOL     OW 5692   4.444   6.568   5.811 -0.3196 -0.1470 -0.6934
  849SOL    HW1 5693   4.422   6.496   5.870  0.6176 -0.7548 -1.0606
  849SOL    HW2 5694   4.411   6.646   5.855 -2.4309 -0.8867 -0.8347
  850SOL     OW 5695   2.418   5.307   7.535  0.5360  0.1548  0.1073
  850SOL    HW1 5696   2.361   5.376   7.569  1.5746  0.9324  0.2994
  850SOL    HW2 5697   2.358   5.243   7.496 -0.4250  1.3885 -0.4964
  851SOL     OW 5698   1.701   2.767   6.907 -0.3061  0.2101  0.6434
  851SOL    HW1 5699   1.752   2.791   6.985 -0.2058  1.2280  0.2754
  851SOL    HW2 5700   1.757   2.792   6.834 -0.5607 -0.3928  0.2364
  852SOL     OW 5701   7.940   4.189   0.937 -0.1085  0.0991  0.3944
  852SOL    HW1 5702   7.924   4.210   0.845 -0.3106  1.7470  0.7792
  852SOL    HW2 5703   7.967   4.097   0.936  2.3160  0.7345 -1.5745
  853SOL     OW 5704   4.700   0.658   5.806  0.5573  0.3645 -0.2599
  853SOL    HW1 5705   4.693   0.564   5.792 -1.0475  0.4376 -0.1377
  853SOL    HW2 5706   4.655   0.673   5.889 -0.0565  1.3493 -0.7534
  854SOL     OW 5707   0.449   7.198   5.679 -0.2467 -0.2200 -0.3006
  854SOL    HW1 5708   0.382   7.131   5.686 -1.5446  0.9689 -0.8400
  854SOL    HW2 5709   0.483   7.189   5.589  0.3586 -0.8325 -0.0219
  855SOL     OW 5710   2.840   0.926   6.770 -0.9770 -0.6024  0.2823
  855SOL    HW1 5711   2.750   0.895   6.776 -1.4025  0.7078  0.9689
  855SOL    HW2 5712   2.832   1.018   6.745  0.1225 -0.0674  1.8031
  856SOL     OW 5713   3.634   5.013   2.257 -0.0234 -0.1966  0.1847
  856SOL    HW1 5714   3.707   5.072   2.272  0.1760 -0.0354 -1.3007
  856SOL    HW2 5715   3.558   5.058   2.295  0.2441  0.7278 -0.3497
  857SOL     OW 5716   3.205   0.671   6.221 -0.2406 -0.8829 -0.3487
  857SOL    HW1 5717   3.113   0.682   6.242 -0.2366  1.0103 -1.1735
  857SOL    HW2 5718   3.235   0.601   6.279 -2.1546 -1.4595 -0.0144
  858SOL     OW 5719   2.489   0.548   2.432  0.3045 -0.2277  0.0799
  858SOL    HW1 5720   2.450   0.461   2.421  1.2104 -0.5464 -0.7313
  858SOL    HW2 5721   2.419   0.609   2.408 -1.1406 -0.6076  2.9965
  859SOL     OW 5722   7.177   4.063   7.652  0.2955 -0.1558 -0.0309
  859SOL    HW1 5723   7.097   4.117   7.655  0.4287  0.2231 -2.0222
  859SOL    HW2 5724   7.241   4.113   7.702 -0.3180  0.2169  0.4071
  860SOL     OW 5725   6.378   7.618   2.652 -0.2693  0.0725  0.3934
  860SOL    HW1 5726   6.414   7.534   2.681 -1.3449 -0.1716  1.0615
  860SOL    HW2 5727   6.318   7.644   2.722  0.6661  1.8116  0.5878
  861SOL     OW 5728   7.979   3.322   5.884 -0.2276  0.0804  0.2338
  861SOL    HW1 5729   7.936   3.394   5.929 -0.4284  1.4269 -1.9809
  861SOL    HW2 5730   7.912   3.285   5.827  0.0728 -1.4189  0.7996
  862SOL     OW 5731   2.417   2.475   4.522 -0.0198 -0.1636  0.4052
  862SOL    HW1 5732   2.373   2.546   4.475 -0.2248 -0.9240 -0.6095
  862SOL    HW2 5733   2.462   2.426   4.453 -0.7325 -1.6032  0.9322
  863SOL     OW 5734   5.520   7.730   0.945  0.2279 -0.0482 -0.2536
  863SOL    HW1 5735   5.518   7.782   1.025 -1.9318 -0.8723  0.2789
  863SOL    HW2 5736   5.534   7.795   0.875 -1.4649  1.1922  0.4780
  864SOL     OW 5737   7.365   6.771   4.268 -0.1982 -0.3271 -0.4282
  864SOL    HW1 5738   7.287   6.822   4.291 -1.3031 -1.9776 -0.3560
  864SOL    HW2 5739   7.411   6.758   4.351 -0.0279  0.3530 -0.4132
  865SOL     OW 5740   1.351   2.929   4.442  0.7326 -0.1174 -0.4921
  865SOL    HW1 5741   1.351   2.859   4.507 -0.0559  1.0314  0.8018
  865SOL    HW2 5742   1.298   2.895   4.369 -0.0238 -0.7121  0.3135
  866SOL     OW 5743   1.672   0.238   5.357 -0.0874 -0.3599 -0.4143
  866SOL    HW1 5744   1.731   0.313   5.363  0.2016 -0.6799  1.1209
  866SOL    HW2 5745   1.596   0.262   5.409 -1.1528 -0.1417 -1.9967
  867SOL     OW 5746   4.447   2.866   1.049  0.8341 -0.0209  0.1994
  867SOL    HW1 5747   4.424   2.793   1.106  0.0266  0.9734  1.1880
  867SOL    HW2 5748   4.363   2.908   1.029  0.9166 -1.0813 -2.8176
  868SOL     OW 5749   6.599   3.383   5.982 -0.0276  0.4252  0.1639
  868SOL    HW1 5750   6.690   3.358   6.001  0.9815  3.0334 -0.6958
  868SOL    HW2 5751   6.601   3.478   5.978 -2.7727  0.5483 -0.2495
  869SOL     OW 5752   4.038   7.581   2.280  0.2095 -0.6109  0.2396
  869SOL    HW1 5753   3.962   7.630   2.310 -1.6881 -3.1591 -0.0543
  869SOL    HW2 5754   4.043   7.600   2.186  0.6514  0.4331  0.4660
  870SOL     OW 5755   0.350   0.748   7.492  0.5163 -0.0719 -0.1357
  870SOL    HW1 5756   0.278   0.740   7.554  0.2579 -3.5803 -0.6540
  870SOL    HW2 5757   0.308   0.742   7.406  1.2377  0.2635 -0.5199
  871SOL     OW 5758   1.700   2.372   7.855 -0.2188  0.0442  0.2991
  871SOL    HW1 5759   1.629   2.418   7.900 -2.1557 -1.3731 -1.1057
  871SOL    HW2 5760   1.684   2.279   7.874  1.0333 -0.3406 -0.4062
  872SOL     OW 5761   0.298   4.716   7.557  0.2769 -0.2246  0.3015
  872SOL    HW1 5762   0.217   4.755   7.589 -1.1388 -1.8465 -1.0325
  872SOL    HW2 5763   0.361   4.788   7.554 -2.0234  1.8773 -1.6095
  873SOL     OW 5764   6.082   3.038   7.655 -0.0325  0.3790 -0.2423
  873SOL    HW1 5765   5.990   3.057   7.637  0.0113  1.3545  0.4634
  873SOL    HW2 5766   6.127   3.120   7.639  0.6961 -0.0484 -0.4119
  874SOL     OW 5767   3.180   4.596   5.661  0.6649 -0.5538  0.4213
  874SOL    HW1 5768   3.108   4.651   5.693  0.6702  0.4056 -1.1035
  874SOL    HW2 5769   3.243   4.659   5.626  2.4311 -1.3575  1.9768
  875SOL     OW 5770   6.616   4.635   2.443 -0.4632  0.3468  0.0057
  875SOL    HW1 5771   6.534   4.681   2.460 -0.4293  0.4466 -0.0967
  875SOL    HW2 5772   6.612   4.556   2.497  0.4113  1.4914  1.8501
  876SOL     OW 5773   5.833   4.896   7.398  0.0651 -0.6225  0.5092
  876SOL    HW1 5774   5.758   4.838   7.389 -0.8044  0.2909  1.6506
  876SOL    HW2 5775   5.869   4.875   7.484  0.3239 -0.1450  0.5201
  877SOL     OW 5776   0.880   5.790   2.190 -0.1140 -0.0985  0.0071
  877SOL    HW1 5777   0.950   5.752   2.243 -0.6683 -1.2471 -0.0333
  877SOL    HW2 5778   0.809   5.807   2.253 -0.3819 -0.4622 -0.1903
  878SOL     OW 5779   5.479   0.280   5.310 -0.2590  0.0060 -0.1486
  878SOL    HW1 5780   5.464   0.190   5.279  1.3832 -0.5589  0.5333
  878SOL    HW2 5781   5.404   0.329   5.279 -0.5607 -1.3304 -1.7012
  879SOL     OW 5782   4.361   7.052   3.663 -0.2701  0.4792 -0.1364
  879SOL    HW1 5783   4.437   7.024   3.612  0.5914  1.7330  0.4021
  879SOL    HW2 5784   4.309   6.972   3.674  1.7588 -0.8197  0.8285
  880SOL     OW 5785   1.852   2.805   1.448 -0.5196  0.4255  0.4092
  880SOL    HW1 5786   1.851   2.709   1.446 -1.8490  0.3971 -1.8205
  880SOL    HW2 5787   1.762   2.830   1.468 -0.4547  1.1659 -0.1529
  881SOL     OW 5788   5.397   2.306   7.106  0.1366 -0.2572  0.8015
  881SOL    HW1 5789   5.374   2.340   7.192 -0.0437  0.5831  0.4343
  881SOL    HW2 5790   5.356   2.368   7.045  2.4219  0.6619  0.1083
  882SOL     OW 5791   7.786   4.742   3.943  0.2844  0.1862 -0.4823
  882SOL    HW1 5792   7.838   4.765   4.020  0.3876  0.0065 -0.4978
  882SOL    HW2 5793   7.804   4.649   3.929 -0.7519 -0.1237  0.0782
  883SOL     OW 5794   5.728   0.870   4.119 -0.5497  0.0401  0.3023
  883SOL    HW1 5795   5.701   0.839   4.033  0.9932 -0.2777 -0.0890
  883SOL    HW2 5796   5.650   0.915   4.154 -1.1536  0.2820 -1.2854
  884SOL     OW 5797   7.335   7.631   1.724  0.4071  0.3069 -0.1172
  884SOL    HW1 5798   7.313   7.705   1.668 -0.1908  1.0192  1.0088
  884SOL    HW2 5799   7.252   7.585   1.737  0.1194  1.2173  1.6313
  885SOL     OW 5800   3.174   6.517   6.365  0.0572 -0.6885  0.1597
  885SOL    HW1 5801   3.253   6.559   6.330 -0.6672  1.3370  0.8092
  885SOL    HW2 5802   3.195   6.500   6.457 -0.6521  1.0783  0.6961
  886SOL     OW 5803   1.483   3.283   1.098  0.5826  0.0026 -0.0496
  886SOL    HW1 5804   1.560   3.257   1.047 -0.4145  0.4152 -1.8396
  886SOL    HW2 5805   1.472   3.376   1.079 -0.6439 -0.1672 -0.2416
  887SOL     OW 5806   1.800   5.484   0.843 -0.1782 -0.0364 -0.3875
  887SOL    HW1 5807   1.838   5.401   0.872 -0.6688  0.2562  1.1762
  887SOL    HW2 5808   1.844   5.503   0.759  1.6533 -0.6913  0.3806
  888SOL     OW 5809   5.245   0.600   0.606 -0.6523 -0.2305  0.5240
  888SOL    HW1 5810   5.164   0.601   0.554 -1.0427  2.5832  1.0191
  888SOL    HW2 5811   5.248   0.512   0.644 -2.1685 -1.2194 -1.4521
  889SOL     OW 5812   3.622   3.222   5.953  0.1340  0.0532 -0.4148
  889SOL    HW1 5813   3.686   3.287   5.928  0.5020  0.5132  1.5467
  889SOL    HW2 5814   3.664   3.138   5.935  0.8628  0.3543 -0.1166
  890SOL     OW 5815   3.627   6.715   5.744  0.0584 -0.2645 -0.1296
  890SOL    HW1 5816   3.663   6.682   5.827  1.1287  2.5800  0.6819
  890SOL    HW2 5817   3.689   6.687   5.678  0.6563 -0.3291  0.4447
  891SOL     OW 5818   4.892   4.836   2.219  0.1255  0.6402  0.2023
  891SOL    HW1 5819   4.824   4.816   2.155  1.9058 -0.8906 -1.2993
  891SOL    HW2 5820   4.924   4.751   2.248  1.3098  1.3197  0.9812
  892SOL     OW 5821   0.797   4.065   7.812 -0.1920  0.0489  0.1846
  892SOL    HW1 5822   0.749   4.144   7.836 -0.7510 -0.0455 -0.5663
  892SOL    HW2 5823   0.729   4.003   7.786  0.2903 -0.3701 -0.1021
  893SOL     OW 5824   7.510   3.992   6.632 -0.0528  0.1842  0.3085
  893SOL    HW1 5825   7.511   3.927   6.702  0.8046  0.0907  0.2177
  893SOL    HW2 5826   7.557   3.951   6.560 -0.6648  0.3974 -0.2239
  894SOL     OW 5827   5.870   5.291   8.088 -0.1156 -0.1943 -0.3093
  894SOL    HW1 5828   5.960   5.267   8.065  0.2870  1.0544 -0.1371
  894SOL    HW2 5829   5.825   5.297   8.005  1.0608  3.2583 -0.8650
  895SOL     OW 5830   5.752   1.344   3.557 -0.7161 -0.0919 -0.5658
  895SOL    HW1 5831   5.778   1.429   3.520  1.2582 -0.5193 -0.3027
  895SOL    HW2 5832   5.746   1.361   3.651 -2.4789  0.2330 -0.7152
  896SOL     OW 5833   6.345   2.999   1.860 -0.4189  0.0883 -0.1182
  896SOL    HW1 5834   6.377   2.988   1.950 -1.5012 -0.5935  0.2080
  896SOL    HW2 5835   6.256   2.963   1.862 -2.0647  3.7120 -0.4847
  897SOL     OW 5836   5.709   2.035   6.577  0.0384  0.5455  0.5655
  897SOL    HW1 5837   5.720   1.975   6.503  1.9775  2.3596 -0.7442
  897SOL    HW2 5838   5.631   2.086   6.555 -0.6862 -0.3728  0.9150
  898SOL     OW 5839   1.771   6.045   4.462  0.0758 -0.6290 -0.0884
  898SOL    HW1 5840   1.711   5.980   4.425  0.8428 -1.3266 -0.1261
  898SOL    HW2 5841   1.769   6.117   4.399 -0.8249 -0.5728 -0.0182
  899SOL     OW 5842   5.649   3.683   7.671  0.2636 -0.2733  0.2080
  899SOL    HW1 5843   5.677   3.767   7.707 -0.1172 -0.0944  0.0922
  899SOL    HW2 5844   5.568   3.703   7.624  0.9036 -0.4487 -0.9948
  900SOL     OW 5845   2.430   6.531   7.820  0.1936  0.5810 -0.0068
  900SOL    HW1 5846   2.422   6.550   7.913  1.9463  0.6750  0.1655
  900SOL    HW2 5847   2.361   6.468   7.802 -0.7504  1.2416  1.1417
  901SOL     OW 5848   4.585   2.506   6.337 -0.0967  0.1620  0.0390
  901SOL    HW1 5849   4.614   2.415   6.326 -1.6288 -0.2232 -1.2862
  901SOL    HW2 5850   4.514   2.515   6.274  0.1285  2.3522  0.0459
  902SOL     OW 5851   2.202   1.037   1.399  0.2075  0.2733 -0.2084
  902SOL    HW1 5852   2.224   1.130   1.388 -1.5948  0.9658  1.4867
  902SOL    HW2 5853   2.172   1.009   1.313  0.0809  1.4647 -0.5754
  903SOL     OW 5854   5.332   5.958   2.905  0.3439 -0.2979 -0.0993
  903SOL    HW1 5855   5.376   5.873   2.910 -0.9380 -0.9406  0.7795
  903SOL    HW2 5856   5.239   5.937   2.907  0.0057  1.1487  0.9216
  904SOL     OW 5857   5.692   0.264   1.475 -0.1018  0.1811 -0.1641
  904SOL    HW1 5858   5.610   0.216   1.490 -1.2899  1.6340 -1.6281
  904SOL    HW2 5859   5.664   0.353   1.456  1.8333  0.6710 -0.9386
  905SOL     OW 5860   5.082   5.415   4.314 -0.7530  0.2528  0.2254
  905SOL    HW1 5861   5.029   5.434   4.236 -2.2252  1.0802  1.3575
  905SOL    HW2 5862   5.091   5.320   4.314 -2.6351  0.0180  0.1805
  906SOL     OW 5863   6.726   0.335   3.027  0.0293 -0.0541  0.1892
  906SOL    HW1 5864   6.761   0.313   2.940 -0.7604 -0.9322  0.0800
  906SOL    HW2 5865   6.646   0.384   3.009  0.7816  1.3177  0.4420
  907SOL     OW 5866   5.925   3.251   1.639  0.5969 -0.5979 -0.4766
  907SOL    HW1 5867   5.931   3.230   1.545  0.5313  1.2403 -0.9340
  907SOL    HW2 5868   5.832   3.260   1.655  0.3895 -3.4311  0.4329
  908SOL     OW 5869   3.023   2.226   1.981 -0.8212  0.2762  0.2680
  908SOL    HW1 5870   2.961   2.285   2.025  0.7374  2.2872 -0.0926
  908SOL    HW2 5871   3.071   2.186   2.053  0.9084  2.6566  0.5569
  909SOL     OW 5872   3.521   4.123   1.287  0.1374  0.0673  0.0944
  909SOL    HW1 5873   3.444   4.114   1.343 -0.1087 -0.8289 -0.3749
  909SOL    HW2 5874   3.507   4.062   1.215  0.9079  0.4880 -0.4371
  910SOL     OW 5875   2.920   0.016   2.119  0.7043  0.4625  0.8592
  910SOL    HW1 5876   2.878  -0.067   2.099  2.7250 -0.8443  1.7719
  910SOL    HW2 5877   2.902   0.071   2.042 -2.9866  0.2134  1.4005
  911SOL     OW 5878   5.364   0.302   5.882 -0.2255 -0.0559 -0.6791
  911SOL    HW1 5879   5.382   0.385   5.925 -0.1727  0.2663 -1.3095
  911SOL    HW2 5880   5.411   0.237   5.934 -1.9645  0.0073  1.0829
  912SOL     OW 5881   6.973   7.119   1.314  0.1138 -0.6732 -0.7128
  912SOL    HW1 5882   6.942   7.209   1.300 -1.0964 -1.0910 -0.8940
  912SOL    HW2 5883   7.052   7.112   1.261  0.6264  0.4838 -0.1504
  913SOL     OW 5884   2.675   2.651   2.633 -0.8633 -0.1530  0.3400
  913SOL    HW1 5885   2.670   2.691   2.546 -0.7634 -0.1900  0.3172
  913SOL    HW2 5886   2.588   2.666   2.671 -0.9736 -0.3165  0.1564
  914SOL     OW 5887   7.538   0.085   1.200 -0.0973  0.1914 -0.3247
  914SOL    HW1 5888   7.631   0.063   1.197 -0.1033 -0.1261  1.1036
  914SOL    HW2 5889   7.501   0.042   1.123  0.8267 -0.2178 -0.5555
  915SOL     OW 5890   2.187   1.946   7.192 -0.3291  0.4224  0.6336
  915SOL    HW1 5891   2.178   1.885   7.265  0.2277  0.1339  0.4683
  915SOL    HW2 5892   2.138   1.905   7.120  0.6889 -0.2452  0.2826
  916SOL     OW 5893   0.044   2.365   8.043 -0.2650  0.3895 -0.0834
  916SOL    HW1 5894   0.066   2.407   8.126  2.2654 -0.4816 -0.2419
  916SOL    HW2 5895  -0.017   2.426   8.001  0.4256  2.1021  1.2828
  917SOL     OW 5896   5.769   2.487   3.856 -0.0645  0.1942  0.7331
  917SOL    HW1 5897   5.865   2.480   3.858  0.2244  0.5740 -3.3061
  917SOL    HW2 5898   5.743   2.428   3.786 -2.4714  2.2698 -0.2577
  918SOL     OW 5899   6.690   1.425   0.689 -0.0318  0.3148 -0.0350
  918SOL    HW1 5900   6.674   1.348   0.744 -1.4288  0.5639 -0.0481
  918SOL    HW2 5901   6.683   1.499   0.749  2.2451  0.4204  0.1629
  919SOL     OW 5902   3.569   4.314   0.986 -0.5953 -0.2701  0.5498
  919SOL    HW1 5903   3.549   4.406   0.967 -0.3646  0.2623  2.6392
  919SOL    HW2 5904   3.505   4.265   0.934 -0.8802  1.0538 -0.4225
  920SOL     OW 5905   3.194   1.818   1.754  0.3326 -0.4612 -0.0285
  920SOL    HW1 5906   3.105   1.808   1.720 -0.1146  0.6480  0.7543
  920SOL    HW2 5907   3.195   1.906   1.791  1.2226 -1.1003  1.5561
  921SOL     OW 5908   3.704   3.434   7.474  0.4150  0.0166  0.0721
  921SOL    HW1 5909   3.763   3.449   7.400 -0.2700 -0.3277 -0.5674
  921SOL    HW2 5910   3.687   3.340   7.472 -2.2983  0.4273 -1.5129
  922SOL     OW 5911   3.396   3.010   3.914 -0.0363 -0.1426  0.1546
  922SOL    HW1 5912   3.343   3.073   3.963 -1.8030  0.5439 -2.4371
  922SOL    HW2 5913   3.334   2.941   3.889  1.0316 -0.9772 -0.2821
  923SOL     OW 5914   1.340   3.896   4.433 -0.4972  0.1093 -0.1008
  923SOL    HW1 5915   1.309   3.942   4.511  1.5657  0.5204  0.5154
  923SOL    HW2 5916   1.348   3.804   4.461 -1.9549 -0.1750 -0.5320
  924SOL     OW 5917   5.069   4.176   7.224 -0.5810  0.0015 -0.2423
  924SOL    HW1 5918   5.048   4.150   7.134  0.2255  1.2597 -0.8139
  924SOL    HW2 5919   5.159   4.145   7.237 -0.1393  1.1671 -0.4215
  925SOL     OW 5920   1.370   5.811   1.821  0.0949 -0.0737 -0.3095
  925SOL    HW1 5921   1.380   5.767   1.906 -0.9815 -0.7040 -0.4841
  925SOL    HW2 5922   1.286   5.856   1.827 -0.1985 -0.4826 -1.1863
  926SOL     OW 5923   5.993   7.014   6.288 -0.5220 -0.5193 -0.2601
  926SOL    HW1 5924   5.899   7.012   6.270 -0.3156  1.3922 -1.8079
  926SOL    HW2 5925   6.003   7.074   6.362 -0.4470  0.0241 -0.7074
  927SOL     OW 5926   1.340   3.907   5.924  0.2078 -0.4831 -0.4969
  927SOL    HW1 5927   1.341   3.821   5.882  0.1411 -0.0349 -1.4562
  927SOL    HW2 5928   1.296   3.893   6.007  1.2289 -1.6016 -0.1245
  928SOL     OW 5929   0.835   3.332   1.430  0.0302 -0.3613 -0.4711
  928SOL    HW1 5930   0.794   3.284   1.502  2.7964 -1.2629  0.6426
  928SOL    HW2 5931   0.821   3.424   1.452  0.9406 -0.6158  1.3773
  929SOL     OW 5932   4.154   1.921   6.531 -0.2597 -0.4643  0.1165
  929SOL    HW1 5933   4.177   1.857   6.463  0.6100  0.3884 -0.4070
  929SOL    HW2 5934   4.215   1.903   6.603  2.0662  1.6575 -1.1881
  930SOL     OW 5935   4.395   0.226   1.088  0.7221  0.0294  0.0660
  930SOL    HW1 5936   4.314   0.232   1.038  0.7138 -0.1584  0.0576
  930SOL    HW2 5937   4.454   0.175   1.032  0.5767 -0.5410  0.4280
  931SOL     OW 5938   2.532   1.479   3.047 -0.4996  0.1244  0.5979
  931SOL    HW1 5939   2.437   1.471   3.033 -0.5746  2.1358 -0.5584
  931SOL    HW2 5940   2.553   1.565   3.011  1.8852 -0.5295  0.3021
  932SOL     OW 5941   4.663   4.745   2.059 -0.1331 -0.1084 -0.4031
  932SOL    HW1 5942   4.588   4.760   2.116 -0.7136 -1.5192 -0.7581
  932SOL    HW2 5943   4.624   4.718   1.975  0.7609 -1.5900 -0.3768
  933SOL     OW 5944   7.950   4.442   7.751 -0.1021  0.3620 -0.0989
  933SOL    HW1 5945   7.927   4.391   7.829 -0.5708 -0.7919 -0.9790
  933SOL    HW2 5946   8.031   4.402   7.719  0.6983  1.5230  0.3828
  934SOL     OW 5947   2.853   6.292   0.831 -0.1312 -0.1736 -0.0484
  934SOL    HW1 5948   2.931   6.343   0.810 -1.1787  1.3611 -0.3801
  934SOL    HW2 5949   2.794   6.307   0.758 -1.2507 -0.2096  0.8170
  935SOL     OW 5950   3.739   5.176   1.155  0.2202 -0.2695  0.6145
  935SOL    HW1 5951   3.671   5.198   1.219 -0.9350 -0.1307 -0.6278
  935SOL    HW2 5952   3.725   5.237   1.083  1.0664 -0.8728 -0.0803
  936SOL     OW 5953   5.900   5.589   1.651  0.1700 -0.0344  0.3234
  936SOL    HW1 5954   5.861   5.655   1.709 -0.5450  0.5401 -0.7742
  936SOL    HW2 5955   5.911   5.512   1.707 -3.0182 -0.3952  0.6122
  937SOL     OW 5956   0.291   4.886   6.440  0.3070  0.3845  0.1037
  937SOL    HW1 5957   0.374   4.932   6.431 -0.1678  0.9518 -1.8476
  937SOL    HW2 5958   0.277   4.844   6.355 -1.0259 -0.3463  0.6508
  938SOL     OW 5959   6.508   5.761   0.406 -0.0657  0.3618 -0.5501
  938SOL    HW1 5960   6.453   5.807   0.343  1.0861  1.6076 -0.6836
  938SOL    HW2 5961   6.487   5.800   0.490  0.1884  0.4500 -0.5251
  939SOL     OW 5962   1.431   0.751   0.104 -0.3669  0.2503 -0.2770
  939SOL    HW1 5963   1.490   0.683   0.071 -0.6083 -0.1906  0.1902
  939SOL    HW2 5964   1.346   0.706   0.114 -0.3261  0.4030  0.8196
  940SOL     OW 5965   1.825   7.691   3.893  0.1093  0.0961 -0.2576
  940SOL    HW1 5966   1.871   7.752   3.950 -0.7760 -0.8284  1.5267
  940SOL    HW2 5967   1.884   7.615   3.887  0.4273  0.3970 -1.0135
  941SOL     OW 5968   0.579   0.118   1.987  0.4554 -0.1276 -0.0140
  941SOL    HW1 5969   0.652   0.085   1.934  0.1206 -0.2959 -0.3723
  941SOL    HW2 5970   0.553   0.043   2.040  2.4648  0.6989  2.3242
  942SOL     OW 5971   1.641   0.971   0.965  0.1143 -0.6273  0.0733
  942SOL    HW1 5972   1.673   0.995   0.878 -0.2534  0.1635  0.1497
  942SOL    HW2 5973   1.718   0.937   1.010  0.3816 -0.7238 -0.4522
  943SOL     OW 5974   6.799   1.108   3.756  0.7636 -0.2383  0.8038
  943SOL    HW1 5975   6.716   1.060   3.749  0.5551  0.2087  0.0490
  943SOL    HW2 5976   6.778   1.185   3.809  0.8103 -0.3744  1.0187
  944SOL     OW 5977   5.151   4.394   3.802  0.1271 -0.0133  0.2645
  944SOL    HW1 5978   5.126   4.319   3.856  0.8452 -0.5254 -0.0925
  944SOL    HW2 5979   5.108   4.469   3.843  0.1596 -0.4877  1.1892
  945SOL     OW 5980   8.046   1.578   0.288  0.4046  0.6258  0.2191
  945SOL    HW1 5981   8.010   1.528   0.215 -0.4598  2.6512 -0.8185
  945SOL    HW2 5982   8.122   1.623   0.251  0.9079  0.4549  1.0122
  946SOL     OW 5983   3.593   2.774   4.078  0.5611  0.1958 -0.2609
  946SOL    HW1 5984   3.550   2.756   3.995  0.0903 -1.1411  0.2366
  946SOL    HW2 5985   3.640   2.856   4.065 -0.8421  0.8532 -1.3283
  947SOL     OW 5986   1.573   7.476   1.249 -0.0484  0.5501 -0.3665
  947SOL    HW1 5987   1.549   7.563   1.279  0.6654  0.5067  0.3603
  947SOL    HW2 5988   1.546   7.474   1.157  0.0625  1.5873 -0.4321
  948SOL     OW 5989   4.527   3.538   4.148 -0.0536 -0.0485  0.0132
  948SOL    HW1 5990   4.608   3.488   4.139 -0.7588 -1.0834 -0.8906
  948SOL    HW2 5991   4.545   3.601   4.218  0.8085 -1.7224  1.3853
  949SOL     OW 5992   6.174   3.045   0.314 -0.4374 -0.2011  0.5161
  949SOL    HW1 5993   6.143   3.010   0.230  1.4057  1.6391 -1.0128
  949SOL    HW2 5994   6.267   3.060   0.302 -0.2574  0.8279  2.6666
  950SOL     OW 5995   2.569   2.791   4.326  0.2767 -0.3021  0.3713
  950SOL    HW1 5996   2.566   2.886   4.337 -1.5393  0.0405 -2.2150
  950SOL    HW2 5997   2.626   2.777   4.251 -2.4643 -0.8104 -1.8041
  951SOL     OW 5998   0.292   7.054   6.713  0.5909  0.2255 -0.3616
  951SOL    HW1 5999   0.315   7.122   6.649 -2.2719  0.9864 -0.7217
  951SOL    HW2 6000   0.310   6.972   6.668  1.3590  0.7273 -1.0148
  952SOL     OW 6001   6.449   7.862   1.341  0.0164 -0.5326 -0.4298
  952SOL    HW1 6002   6.454   7.785   1.284  1.0217 -0.4746 -0.4397
  952SOL    HW2 6003   6.380   7.916   1.303 -0.0954 -1.0242 -0.9345
  953SOL     OW 6004   2.032   5.232   6.922 -0.0104  0.6826  0.0746
  953SOL    HW1 6005   2.015   5.313   6.970 -0.2774  1.2020 -0.8572
  953SOL    HW2 6006   1.966   5.171   6.954  0.3035  0.7754  0.9128
  954SOL     OW 6007   7.412   7.634   7.017  0.3992 -0.2514 -0.1929
  954SOL    HW1 6008   7.502   7.646   6.987  0.7849  2.1006  1.5431
  954SOL    HW2 6009   7.360   7.690   6.960 -0.0774 -1.8587 -1.4054
  955SOL     OW 6010   1.224   7.998   2.250  0.5404  0.3212 -0.7488
  955SOL    HW1 6011   1.177   7.968   2.172  0.5387 -0.4964 -0.4445
  955SOL    HW2 6012   1.312   8.018   2.219  0.6839 -0.4731 -0.8752
  956SOL     OW 6013   6.380   1.647   7.616 -0.3175 -0.3519  0.1142
  956SOL    HW1 6014   6.392   1.741   7.606 -0.4763 -0.3114  0.2894
  956SOL    HW2 6015   6.468   1.613   7.632 -0.4062 -0.0675  1.3461
  957SOL     OW 6016   5.901   7.123   2.776  0.1082 -0.1134  0.1228
  957SOL    HW1 6017   5.907   7.145   2.683 -0.9776 -0.6901 -0.1090
  957SOL    HW2 6018   5.990   7.097   2.800  0.0852 -1.6475 -1.2228
  958SOL     OW 6019   6.104   4.237   1.594  0.3504 -0.2361  0.0169
  958SOL    HW1 6020   6.104   4.153   1.639  0.4698 -0.2835 -0.0698
  958SOL    HW2 6021   6.082   4.301   1.661  0.1842 -0.3457  0.0670
  959SOL     OW 6022   5.649   6.225   1.338 -0.3103  0.0604  0.2908
  959SOL    HW1 6023   5.629   6.231   1.244  0.1464 -0.1117  0.1778
  959SOL    HW2 6024   5.564   6.232   1.381 -0.3703  1.7883 -0.0499
  960SOL     OW 6025   5.676   7.010   2.063  0.2412  0.8141 -0.3823
  960SOL    HW1 6026   5.749   6.967   2.106 -1.6604 -2.1244  0.1995
  960SOL    HW2 6027   5.632   7.059   2.132  0.1555  0.3389 -0.0912
  961SOL     OW 6028   1.064   3.310   3.358  0.6592  0.0363 -0.4206
  961SOL    HW1 6029   1.060   3.229   3.307  0.2404 -1.1623  1.3818
  961SOL    HW2 6030   0.973   3.337   3.368  0.3241 -1.6483  2.3793
  962SOL     OW 6031   7.675   1.705   6.315 -0.2117 -0.3957 -0.0770
  962SOL    HW1 6032   7.671   1.797   6.290  0.4441 -0.5277 -0.7315
  962SOL    HW2 6033   7.609   1.695   6.383  0.0357  0.6639  0.3411
  963SOL     OW 6034   6.993   2.708   5.741 -0.0834  0.2760 -0.5667
  963SOL    HW1 6035   7.015   2.742   5.827  2.0496 -0.1187 -0.9018
  963SOL    HW2 6036   6.899   2.689   5.746  0.1327 -0.5169  1.9366
  964SOL     OW 6037   6.576   6.956   7.138  0.3884  0.6759 -0.3949
  964SOL    HW1 6038   6.642   6.887   7.147  0.4365  0.8949  1.2140
  964SOL    HW2 6039   6.616   7.034   7.177  0.1437  1.5063 -1.7347
  965SOL     OW 6040   0.439   0.266   4.579  0.2538  0.5952 -0.1363
  965SOL    HW1 6041   0.360   0.295   4.623  1.2068  1.2098  1.2512
  965SOL    HW2 6042   0.445   0.321   4.500 -0.6340  0.6083 -0.1972
  966SOL     OW 6043   1.200   0.380   7.198  0.0502 -0.0884  0.1273
  966SOL    HW1 6044   1.206   0.412   7.288 -0.4173  1.0528 -0.2411
  966SOL    HW2 6045   1.210   0.285   7.206  3.4977  0.2243  1.0568
  967SOL     OW 6046   0.923   6.799   1.542  0.1605  0.7043 -0.0119
  967SOL    HW1 6047   0.842   6.749   1.535  0.1707  0.7017 -0.1080
  967SOL    HW2 6048   0.898   6.889   1.522  0.3405  0.5668 -0.8685
  968SOL     OW 6049   6.740   3.765   0.142 -0.4276  0.0233  0.1912
  968SOL    HW1 6050   6.737   3.757   0.238 -0.6119  0.2113  0.2021
  968SOL    HW2 6051   6.651   3.791   0.118 -0.4429 -0.2530 -0.0539
  969SOL     OW 6052   6.730   4.072   1.480 -0.9305 -0.6987 -0.6330
  969SOL    HW1 6053   6.769   3.993   1.442  1.0289  0.2765 -0.8040
  969SOL    HW2 6054   6.704   4.125   1.404  0.0276 -0.1438 -0.5913
  970SOL     OW 6055   1.682   1.178   0.439  0.3585 -0.3818 -0.0836
  970SOL    HW1 6056   1.659   1.252   0.382  2.1891 -0.7699 -1.4386
  970SOL    HW2 6057   1.693   1.104   0.379  0.8869 -1.1654  0.9507
  971SOL     OW 6058   3.344   3.890   0.318  0.4551 -0.1063  0.1814
  971SOL    HW1 6059   3.256   3.872   0.350 -0.4106 -2.3437 -2.9132
  971SOL    HW2 6060   3.331   3.924   0.229  2.6922 -0.0198 -0.1705
  972SOL     OW 6061   8.088   2.150   4.007 -0.3210  0.1823 -0.1066
  972SOL    HW1 6062   8.062   2.118   4.094 -0.3195 -0.8805 -0.4796
  972SOL    HW2 6063   8.119   2.072   3.962 -3.4331 -0.0069 -2.2440
  973SOL     OW 6064   7.628   0.663   2.689  0.4169 -0.1668  0.4139
  973SOL    HW1 6065   7.546   0.708   2.669  1.4344  1.6734  0.1871
  973SOL    HW2 6066   7.663   0.638   2.604  1.8910  2.4585  0.1498
  974SOL     OW 6067   0.790   5.698   4.763 -0.2129 -0.5165 -0.1085
  974SOL    HW1 6068   0.816   5.790   4.765  1.0459 -0.8625  0.5844
  974SOL    HW2 6069   0.694   5.700   4.772 -0.1612  0.7034  0.4018
  975SOL     OW 6070   1.848   7.292   5.746  0.0314  0.0932 -0.2323
  975SOL    HW1 6071   1.862   7.381   5.778  1.9811  0.5971 -2.2369
  975SOL    HW2 6072   1.880   7.235   5.816  0.0454  1.0016  0.5118
  976SOL     OW 6073   2.751   7.364   6.367 -0.4657 -0.2798 -0.2556
  976SOL    HW1 6074   2.672   7.405   6.400  0.8831  0.8309  1.8235
  976SOL    HW2 6075   2.793   7.326   6.444  2.4354  1.6986 -0.6715
  977SOL     OW 6076   0.684   4.210   1.350 -0.1530  0.5503 -0.1042
  977SOL    HW1 6077   0.770   4.205   1.307  0.4701 -0.0463  1.1546
  977SOL    HW2 6078   0.688   4.145   1.419 -1.8002  0.2171 -0.2794
  978SOL     OW 6079   0.991   2.547   1.073  0.5423  0.1764  0.3353
  978SOL    HW1 6080   0.928   2.597   1.021 -1.2008 -0.8255  1.3846
  978SOL    HW2 6081   1.024   2.480   1.014  0.9136  0.9446 -0.3390
  979SOL     OW 6082   2.673   7.371   4.719 -0.0650  0.0825 -0.1878
  979SOL    HW1 6083   2.648   7.326   4.638  1.8582  0.6111 -1.1194
  979SOL    HW2 6084   2.680   7.301   4.784 -2.4180 -0.2582 -0.2126
  980SOL     OW 6085   7.952   7.430   4.824 -0.2012 -0.1939  0.1639
  980SOL    HW1 6086   8.019   7.458   4.762 -1.1733  1.2511 -0.2777
  980SOL    HW2 6087   8.001   7.397   4.899  1.0130  1.2614  0.0600
  981SOL     OW 6088   6.565   6.287   4.279  0.0994  0.4246  0.3593
  981SOL    HW1 6089   6.578   6.372   4.238  3.7432 -0.4421 -0.5679
  981SOL    HW2 6090   6.477   6.261   4.251 -0.2513  2.8772 -1.1541
  982SOL     OW 6091   7.188   0.130   4.947  0.3300  0.0933  0.3399
  982SOL    HW1 6092   7.212   0.218   4.919  0.7604  0.1808  0.9769
  982SOL    HW2 6093   7.107   0.111   4.899  2.0492 -0.5514 -2.5697
  983SOL     OW 6094   4.045   2.812   5.013  0.2092  0.3213  0.1491
  983SOL    HW1 6095   3.987   2.782   4.943 -0.6436  0.1254  0.9131
  983SOL    HW2 6096   4.023   2.904   5.025 -0.5293  0.0581  0.9644
  984SOL     OW 6097   2.017   7.437   3.388 -0.3006  0.0762  0.1758
  984SOL    HW1 6098   1.927   7.414   3.367 -0.4748  1.9038 -1.3061
  984SOL    HW2 6099   2.010   7.494   3.465 -0.3421 -0.2437  0.4124
  985SOL     OW 6100   2.400   8.023   7.081  0.3266  0.7642  0.3094
  985SOL    HW1 6101   2.337   7.971   7.031  3.2866 -0.7349 -2.2330
  985SOL    HW2 6102   2.427   7.966   7.152  1.2380 -0.0286 -0.6281
  986SOL     OW 6103   1.644   4.187   1.051  0.0371 -0.2868  0.1355
  986SOL    HW1 6104   1.569   4.129   1.062 -1.5767  1.2808 -1.8491
  986SOL    HW2 6105   1.714   4.129   1.018 -0.8927 -1.4349  0.1167
  987SOL     OW 6106   4.231   4.250   6.447 -0.4533  0.5231 -0.7844
  987SOL    HW1 6107   4.183   4.271   6.528  1.1819 -1.4456  0.7960
  987SOL    HW2 6108   4.278   4.331   6.426  1.2347  0.3236  1.8395
  988SOL     OW 6109   3.943   5.391   1.993 -0.6633 -0.3111 -0.3379
  988SOL    HW1 6110   3.939   5.319   1.931  2.3817 -1.4421  0.6086
  988SOL    HW2 6111   4.003   5.454   1.952  0.4408 -0.5332  0.8803
  989SOL     OW 6112   3.583   4.480   5.378  0.0622  0.0841  0.2824
  989SOL    HW1 6113   3.564   4.565   5.337 -0.0850  0.0825  0.3451
  989SOL    HW2 6114   3.659   4.447   5.331 -0.2659 -0.0416 -0.1651
  990SOL     OW 6115   0.519   7.832   4.382  0.2777  0.0609 -0.1363
  990SOL    HW1 6116   0.450   7.882   4.339 -1.0087 -0.7439  0.8978
  990SOL    HW2 6117   0.598   7.884   4.369 -0.7936  1.8146 -0.0385
  991SOL     OW 6118   2.797   6.003   5.514  0.3646 -0.2352  0.6018
  991SOL    HW1 6119   2.805   5.930   5.575  1.2208 -1.0463 -0.4457
  991SOL    HW2 6120   2.721   6.053   5.545 -0.2457 -1.5763  1.3231
  992SOL     OW 6121   7.348   7.717   3.670 -0.0315  0.2423  0.0307
  992SOL    HW1 6122   7.397   7.798   3.654  2.0593 -0.5125  2.0176
  992SOL    HW2 6123   7.304   7.698   3.587  3.4143  0.8011 -2.1052
  993SOL     OW 6124   2.066   5.665   1.823 -0.1611 -0.0574  0.3381
  993SOL    HW1 6125   2.145   5.612   1.833  0.5422  0.8482 -0.3749
  993SOL    HW2 6126   2.002   5.605   1.784 -0.0450 -0.9654  1.4640
  994SOL     OW 6127   1.515   4.872   6.380  0.2482  0.2361  0.1131
  994SOL    HW1 6128   1.506   4.934   6.308 -2.8618  1.0221  1.0448
  994SOL    HW2 6129   1.488   4.788   6.342  1.7253 -0.0471 -0.3976
  995SOL     OW 6130   2.834   2.536   5.686  0.2099  0.3627  0.0076
  995SOL    HW1 6131   2.770   2.601   5.657 -1.1588 -0.9393  0.0165
  995SOL    HW2 6132   2.911   2.587   5.711 -0.7729  1.9494 -0.1308
  996SOL     OW 6133   5.934   3.299   7.155 -0.2896  0.4305 -0.1506
  996SOL    HW1 6134   5.857   3.302   7.212 -1.1029 -2.7940 -0.8422
  996SOL    HW2 6135   5.914   3.359   7.084 -0.5654  2.2759  1.4127
  997SOL     OW 6136   7.410   0.311   3.484  0.0641 -0.1901  0.0602
  997SOL    HW1 6137   7.476   0.253   3.446  0.2638  0.2719 -0.3002
  997SOL    HW2 6138   7.447   0.338   3.568  0.4875  0.3404 -0.2942
  998SOL     OW 6139   0.395   6.114   3.545 -0.3077  0.1335  0.1004
  998SOL    HW1 6140   0.374   6.025   3.574 -2.1651  0.6724  0.5719
  998SOL    HW2 6141   0.460   6.144   3.608  0.1997 -0.8068  0.0518
  999SOL     OW 6142   4.739   3.771   6.583  0.5086 -0.5193  0.2180
  999SOL    HW1 6143   4.792   3.723   6.646  0.4191 -0.9807 -0.0526
  999SOL    HW2 6144   4.664   3.715   6.566 -0.4028  0.4077  1.0712
 1000SOL     OW 6145   6.511   1.752   5.748 -0.3517 -0.2344 -0.5071
 1000SOL    HW1 6146   6.461   1.747   5.830  0.2636  0.7623 -0.0432
 1000SOL    HW2 6147   6.473   1.828   5.702 -2.0080 -1.9233 -2.0913
 1001SOL     OW 6148   7.008   1.482   5.991  0.1260  0.3189  0.1991
 1001SOL    HW1 6149   7.005   1.408   6.052  0.4109  0.6525  0.6302
 1001SOL    HW2 6150   7.012   1.442   5.904 -1.3733 -0.1511  0.3350
 1002SOL     OW 6151   3.822   1.825   3.701 -0.1407 -0.2083  0.7147
 1002SOL    HW1 6152   3.823   1.800   3.793  0.9135 -0.3393  0.6803
 1002SOL    HW2 6153   3.737   1.796   3.669 -1.2190  1.3345  2.0299
 1003SOL     OW 6154   8.046   2.867   7.122 -0.2925 -0.0219  0.1954
 1003SOL    HW1 6155   8.027   2.954   7.159 -0.5438 -1.1846  3.0322
 1003SOL    HW2 6156   8.141   2.862   7.119 -0.2165  1.1226 -2.2019
 1004SOL     OW 6157   7.113   1.655   3.033  0.3086  0.9009  0.0778
 1004SOL    HW1 6158   7.200   1.664   3.071  0.2154  0.8373  0.3100
 1004SOL    HW2 6159   7.128   1.637   2.940  0.5585  0.1560  0.2598
 1005SOL     OW 6160   2.573   1.559   3.473 -0.6109 -0.2859 -0.0328
 1005SOL    HW1 6161   2.502   1.505   3.437  0.7378 -1.8174 -0.5132
 1005SOL    HW2 6162   2.642   1.554   3.407  0.2211  0.5904  0.7467
 1006SOL     OW 6163   6.260   5.151   1.521  0.4705  0.4392 -0.1995
 1006SOL    HW1 6164   6.231   5.079   1.465  2.2235  0.2936 -0.9753
 1006SOL    HW2 6165   6.248   5.118   1.610 -0.7128  0.0037 -0.5012
 1007SOL     OW 6166   5.040   1.520   5.428 -0.2420 -0.1897 -0.1097
 1007SOL    HW1 6167   5.122   1.542   5.471 -0.2603  0.4839 -0.4072
 1007SOL    HW2 6168   5.021   1.596   5.372 -1.4236 -0.0267  0.4881
 1008SOL     OW 6169   1.845   3.606   5.575  0.3400 -0.4098 -0.5518
 1008SOL    HW1 6170   1.783   3.572   5.511 -0.3348  0.3476 -0.3159
 1008SOL    HW2 6171   1.804   3.587   5.660  0.8541 -0.7017 -0.3660
 1009SOL     OW 6172   0.792   1.546   7.677  0.1538 -0.4431 -0.0030
 1009SOL    HW1 6173   0.829   1.478   7.733  0.0506  0.4265  1.1706
 1009SOL    HW2 6174   0.863   1.610   7.666 -0.8102  1.1143  2.0651
 1010SOL     OW 6175   0.642   2.666   2.902 -0.0871 -0.2025 -0.3271
 1010SOL    HW1 6176   0.572   2.650   2.838 -0.1581  0.6030 -0.4618
 1010SOL    HW2 6177   0.674   2.754   2.881  1.6028 -0.9046 -0.8442
 1011SOL     OW 6178   0.234   6.044   7.848 -0.0702 -0.7092  0.2587
 1011SOL    HW1 6179   0.306   6.064   7.788  0.1880 -0.0532  0.7765
 1011SOL    HW2 6180   0.204   6.130   7.879 -1.5413 -0.9294 -0.4812
 1012SOL     OW 6181   4.592   1.216   7.172 -0.0170  0.2203  0.3132
 1012SOL    HW1 6182   4.599   1.304   7.137  1.1254  0.5130  1.2212
 1012SOL    HW2 6183   4.539   1.168   7.108  2.8649  0.3854 -2.4412
 1013SOL     OW 6184   0.831   7.888   5.583  0.2224 -0.2460  0.1751
 1013SOL    HW1 6185   0.902   7.825   5.566  1.0227  0.9048 -0.9730
 1013SOL    HW2 6186   0.850   7.961   5.524 -1.8463  0.1695 -0.0335
 1014SOL     OW 6187   4.824   7.544   0.750  0.3178 -0.1499  0.6153
 1014SOL    HW1 6188   4.837   7.471   0.689 -1.1504 -1.2594  1.5722
 1014SOL    HW2 6189   4.835   7.505   0.836 -2.6767  0.2163  1.2418
 1015SOL     OW 6190   2.867   5.574   2.151 -0.7864 -0.5511 -0.2847
 1015SOL    HW1 6191   2.796   5.591   2.212  0.8239  2.3417  1.0187
 1015SOL    HW2 6192   2.902   5.488   2.176 -0.0844  0.5817  3.1243
 1016SOL     OW 6193   6.866   4.715   2.747 -0.3710  0.6535  0.3704
 1016SOL    HW1 6194   6.933   4.666   2.699  0.1818  0.9587  0.8133
 1016SOL    HW2 6195   6.911   4.743   2.827 -1.7410 -1.3505  1.9335
 1017SOL     OW 6196   1.887   1.733   3.655  0.0225  0.1223  0.2107
 1017SOL    HW1 6197   1.865   1.689   3.738  0.2805  1.0184  0.7726
 1017SOL    HW2 6198   1.834   1.687   3.589 -0.2204 -0.5817  0.8710
 1018SOL     OW 6199   1.832   7.008   5.009 -0.1756  0.5119  0.6556
 1018SOL    HW1 6200   1.828   6.938   5.074  0.2635 -0.2957 -0.1676
 1018SOL    HW2 6201   1.770   6.980   4.941  2.5695 -0.9503 -1.4357
 1019SOL     OW 6202   7.869   2.712   3.322 -0.2129 -0.0611  0.0596
 1019SOL    HW1 6203   7.896   2.713   3.414 -0.4378 -0.7636  0.1385
 1019SOL    HW2 6204   7.937   2.659   3.278 -0.1071  0.2701 -0.1759
 1020SOL     OW 6205   5.191   5.608   3.051  0.3215  0.6912 -0.6745
 1020SOL    HW1 6206   5.159   5.666   3.120 -0.5119 -1.1765  0.5928
 1020SOL    HW2 6207   5.112   5.576   3.007  0.6931 -0.2457 -0.6849
 1021SOL     OW 6208   2.672   3.773   0.051 -0.1292  0.0104  0.3167
 1021SOL    HW1 6209   2.580   3.798   0.041  0.1852  1.6992  1.1922
 1021SOL    HW2 6210   2.670   3.681   0.079 -1.5408  0.0104  0.2536
 1022SOL     OW 6211   3.506   7.859   0.360  0.9759  0.0200 -0.0387
 1022SOL    HW1 6212   3.575   7.922   0.384 -0.3855  1.4344  0.3122
 1022SOL    HW2 6213   3.452   7.906   0.296 -0.8673 -0.2376  1.2632
 1023SOL     OW 6214   7.693   6.891   1.421  0.1517  0.0314 -0.4274
 1023SOL    HW1 6215   7.749   6.881   1.344 -0.9028  0.7337 -1.3219
 1023SOL    HW2 6216   7.655   6.804   1.434  1.1511 -0.3662 -0.0151
 1024SOL     OW 6217   2.675   6.158   7.315  0.0819  0.2777  0.1412
 1024SOL    HW1 6218   2.647   6.080   7.266  2.6582 -1.6557  1.4686
 1024SOL    HW2 6219   2.608   6.171   7.381  0.4320 -2.0341  1.0538
 1025SOL     OW 6220   2.199   1.119   0.245 -0.0650 -0.1109 -0.1359
 1025SOL    HW1 6221   2.273   1.136   0.187  0.9645 -1.2524  0.7717
 1025SOL    HW2 6222   2.122   1.149   0.197  1.0717  2.0572 -0.6976
 1026SOL     OW 6223   8.039   2.241   0.572  0.8082  0.0215 -0.7458
 1026SOL    HW1 6224   8.081   2.160   0.600  1.0578  0.3435 -0.1738
 1026SOL    HW2 6225   7.952   2.214   0.542  0.7360 -0.4041 -0.1614
 1027SOL     OW 6226   4.802   6.811   1.486 -0.2734 -0.0032  0.2126
 1027SOL    HW1 6227   4.768   6.798   1.398 -0.3410 -1.5316  0.4386
 1027SOL    HW2 6228   4.744   6.760   1.542  1.0280 -0.8124  0.8687
 1028SOL     OW 6229   0.436   0.389   5.862 -0.7916  0.2626  0.1616
 1028SOL    HW1 6230   0.393   0.411   5.945  0.2523 -0.5219  0.9360
 1028SOL    HW2 6231   0.365   0.355   5.807 -1.5526  1.0726  0.6069
 1029SOL     OW 6232   0.491   1.020   3.902 -0.1413  0.2281  1.0665
 1029SOL    HW1 6233   0.490   1.106   3.946  0.4858  1.3470 -0.9912
 1029SOL    HW2 6234   0.401   0.988   3.912 -1.4522  2.7993 -1.1444
 1030SOL     OW 6235   1.890   6.194   3.813  0.0376 -0.2986  0.4493
 1030SOL    HW1 6236   1.916   6.127   3.876  0.4319 -0.1077  0.4984
 1030SOL    HW2 6237   1.931   6.275   3.846  1.0867 -0.3797 -0.5684
 1031SOL     OW 6238   1.989   2.816   5.491  0.1428 -0.1998  0.0713
 1031SOL    HW1 6239   2.081   2.827   5.469  0.3178 -1.2035  0.2696
 1031SOL    HW2 6240   1.983   2.728   5.528 -1.1528 -0.7674 -1.3550
 1032SOL     OW 6241   3.270   7.912   0.173  0.4574 -0.2728  0.3212
 1032SOL    HW1 6242   3.268   7.821   0.143 -0.5725  0.0324 -0.5759
 1032SOL    HW2 6243   3.215   7.913   0.252  0.6802 -0.4716  0.4808
 1033SOL     OW 6244   6.739   0.437   2.473 -0.0287  0.1256 -0.4543
 1033SOL    HW1 6245   6.816   0.470   2.427  1.0957 -0.4412  0.9307
 1033SOL    HW2 6246   6.667   0.492   2.443  0.9746  0.8875 -1.5427
 1034SOL     OW 6247   0.530   1.123   5.643 -0.1316  0.2014 -0.0034
 1034SOL    HW1 6248   0.492   1.194   5.695 -0.3324 -0.8407  1.3382
 1034SOL    HW2 6249   0.505   1.143   5.553 -2.2866  0.5515  0.6159
 1035SOL     OW 6250   6.807   7.789   3.690 -0.2132 -0.0464 -0.7412
 1035SOL    HW1 6251   6.790   7.829   3.775  0.4844 -1.6453  0.2038
 1035SOL    HW2 6252   6.869   7.847   3.647 -0.2707  0.5800  0.0103
 1036SOL     OW 6253   1.557   0.186   4.378 -0.0096  0.2232 -0.4918
 1036SOL    HW1 6254   1.465   0.175   4.400  0.3978 -0.2880  1.1609
 1036SOL    HW2 6255   1.599   0.106   4.411  1.2912  1.3527  0.7353
 1037SOL     OW 6256   5.026   2.256   4.748  0.6670  0.0250  0.4528
 1037SOL    HW1 6257   5.057   2.205   4.674 -0.0064  0.0027  0.1762
 1037SOL    HW2 6258   4.956   2.310   4.712  0.1895 -0.1358  1.1100
 1038SOL     OW 6259   1.932   5.335   1.918 -0.1864  0.1755  0.1459
 1038SOL    HW1 6260   1.855   5.308   1.869 -0.8662  0.1339  1.2191
 1038SOL    HW2 6261   2.005   5.319   1.858 -0.8506 -1.2893 -0.3107
 1039SOL     OW 6262   1.811   0.738   1.838 -0.0298  0.0209  0.5443
 1039SOL    HW1 6263   1.865   0.673   1.792 -1.3707 -0.2413 -0.7328
 1039SOL    HW2 6264   1.874   0.793   1.884  1.5729  1.0674 -2.6094
 1040SOL     OW 6265   0.809   0.597   3.319 -0.6013  0.1472  0.0669
 1040SOL    HW1 6266   0.764   0.648   3.386 -0.8780  0.3865 -0.2950
 1040SOL    HW2 6267   0.901   0.606   3.340 -0.5657  1.6251 -0.5429
 1041SOL     OW 6268   0.727   0.609   4.034 -0.1646 -0.1483  0.4099
 1041SOL    HW1 6269   0.723   0.653   4.120  1.1674 -0.3225  0.5792
 1041SOL    HW2 6270   0.795   0.543   4.044 -1.6057 -1.7643 -0.0887
 1042SOL     OW 6271   5.674   3.252   3.632 -0.7585  0.5610  0.4484
 1042SOL    HW1 6272   5.753   3.215   3.592 -0.1635  0.3053  1.8011
 1042SOL    HW2 6273   5.698   3.267   3.724 -2.8534 -1.3631  1.4242
 1043SOL     OW 6274   3.958   0.535   4.111 -0.0307 -0.2558  0.0839
 1043SOL    HW1 6275   3.895   0.557   4.180  1.1277 -0.3546  1.1950
 1043SOL    HW2 6276   4.005   0.460   4.145 -1.0576 -1.8910 -1.8615
 1044SOL     OW 6277   0.249   4.799   6.188 -0.1497  0.5132  0.5185
 1044SOL    HW1 6278   0.302   4.856   6.131  0.1377  0.6114  0.8793
 1044SOL    HW2 6279   0.217   4.731   6.130  0.8724  0.1131  0.4048
 1045SOL     OW 6280   6.639   4.447   2.936 -0.1159  0.7773  1.3333
 1045SOL    HW1 6281   6.612   4.357   2.951 -0.8787  0.8773  0.6355
 1045SOL    HW2 6282   6.735   4.444   2.935 -0.1136  0.1470  2.2596
 1046SOL     OW 6283   6.110   7.934   2.408 -0.4153 -0.3260 -0.0231
 1046SOL    HW1 6284   6.031   7.939   2.462  0.0824  0.8249  0.6269
 1046SOL    HW2 6285   6.164   8.006   2.438  1.7441 -2.1950  0.8889
 1047SOL     OW 6286   0.856   1.788   1.433  0.3872 -0.2768  0.3587
 1047SOL    HW1 6287   0.824   1.850   1.368  0.4580 -1.0341 -0.4315
 1047SOL    HW2 6288   0.807   1.807   1.512  0.3227  0.6913  0.0953
 1048SOL     OW 6289   5.170   5.364   2.064 -0.5068 -0.6813  0.2094
 1048SOL    HW1 6290   5.237   5.428   2.037  0.5824 -1.4081  1.1085
 1048SOL    HW2 6291   5.185   5.288   2.007 -0.7092 -0.7689  0.2712
 1049SOL     OW 6292   4.285   0.739   6.745 -0.7442  0.8213  0.5717
 1049SOL    HW1 6293   4.276   0.786   6.663  0.0353  1.0116  0.5910
 1049SOL    HW2 6294   4.379   0.729   6.757 -0.8480  0.8112  1.4503
 1050SOL     OW 6295   7.781   1.163   0.158  0.2369  0.1287  0.0822
 1050SOL    HW1 6296   7.754   1.221   0.086 -1.0983  3.0650  2.6807
 1050SOL    HW2 6297   7.699   1.138   0.200  0.9378 -2.2212  0.1513
 1051SOL     OW 6298   5.893   4.377   6.990 -0.2761 -0.5032  0.2696
 1051SOL    HW1 6299   5.931   4.289   6.981 -2.0523 -1.4624  1.5841
 1051SOL    HW2 6300   5.828   4.383   6.920 -0.0808 -0.1825  0.1133
 1052SOL     OW 6301   0.633   6.516   0.644 -0.2384 -0.1513  0.5711
 1052SOL    HW1 6302   0.628   6.611   0.652  0.1187 -0.1038  0.2814
 1052SOL    HW2 6303   0.727   6.498   0.632 -0.0823 -0.6744  2.3200
 1053SOL     OW 6304   2.945   6.983   6.346  0.1677 -0.4638 -0.6043
 1053SOL    HW1 6305   2.863   6.982   6.297 -0.7526  1.2011  0.7855
 1053SOL    HW2 6306   2.966   7.076   6.354  0.7065 -0.7293  1.4279
 1054SOL     OW 6307   3.018   6.092   3.580  0.0112  0.4504 -0.3971
 1054SOL    HW1 6308   2.950   6.029   3.602 -0.7586  1.8862  1.5253
 1054SOL    HW2 6309   3.088   6.075   3.643  0.4457  0.5277 -0.8514
 1055SOL     OW 6310   2.410   3.222   4.210 -0.2669 -0.0178 -0.7659
 1055SOL    HW1 6311   2.323   3.185   4.194 -0.3495 -0.5728  0.8729
 1055SOL    HW2 6312   2.397   3.317   4.208 -1.0112 -0.1010 -0.0298
 1056SOL     OW 6313   3.448   4.660   4.034  0.5341  0.4176 -0.7103
 1056SOL    HW1 6314   3.497   4.739   4.059  0.2180  0.3863  0.0292
 1056SOL    HW2 6315   3.420   4.622   4.117 -0.8530  0.4890 -1.1285
 1057SOL     OW 6316   6.469   4.254   7.396 -0.2579  0.2586  0.5401
 1057SOL    HW1 6317   6.440   4.163   7.401  0.8245 -0.2809 -1.7702
 1057SOL    HW2 6318   6.548   4.252   7.343 -2.5533  2.9221 -3.6262
 1058SOL     OW 6319   1.298   0.796   7.640  0.6835  0.0688  0.4124
 1058SOL    HW1 6320   1.274   0.739   7.713  0.6448 -0.5215 -0.0571
 1058SOL    HW2 6321   1.280   0.744   7.562 -3.8828  2.2694 -0.3164
 1059SOL     OW 6322   6.618   2.877   2.631  0.2385  0.1379  0.6391
 1059SOL    HW1 6323   6.627   2.817   2.705 -0.8615 -0.4098  0.3654
 1059SOL    HW2 6324   6.648   2.825   2.555  1.1460  0.6173  0.6596
 1060SOL     OW 6325   0.296   1.149   3.419 -0.0371 -0.1696  0.4402
 1060SOL    HW1 6326   0.246   1.074   3.452  0.0310  0.4360  2.0316
 1060SOL    HW2 6327   0.347   1.178   3.495 -0.4872  1.8220  0.0151
 1061SOL     OW 6328   3.704   1.566   3.589 -0.0003  0.4541 -0.2316
 1061SOL    HW1 6329   3.657   1.638   3.547  2.4787  1.4831 -1.5055
 1061SOL    HW2 6330   3.679   1.488   3.539 -1.4365  0.6932  0.0868
 1062SOL     OW 6331   1.017   4.480   4.957 -0.4148  0.0759 -0.3834
 1062SOL    HW1 6332   1.078   4.528   5.013 -2.5532  3.1332 -0.4522
 1062SOL    HW2 6333   1.042   4.504   4.868 -0.5190 -0.2379 -0.4994
 1063SOL     OW 6334   7.746   2.655   1.071 -0.4194  0.2220 -0.3261
 1063SOL    HW1 6335   7.771   2.737   1.113 -0.6215  0.6591 -1.0387
 1063SOL    HW2 6336   7.692   2.682   0.996 -3.4919 -0.6691  1.3846
 1064SOL     OW 6337   2.939   6.537   4.351  0.3236 -0.1451 -0.1035
 1064SOL    HW1 6338   2.960   6.469   4.415 -0.0634  0.5630  0.7994
 1064SOL    HW2 6339   2.851   6.567   4.377  0.5292  0.7510 -0.4265
 1065SOL     OW 6340   0.200   1.545   1.631  0.1144 -0.1966  0.2941
 1065SOL    HW1 6341   0.240   1.464   1.663 -1.6609 -1.2432  0.0000
 1065SOL    HW2 6342   0.160   1.520   1.547  3.7804  2.1937 -2.4677
 1066SOL     OW 6343   5.554   3.740   2.258 -0.3868  0.1576  0.5782
 1066SOL    HW1 6344   5.593   3.703   2.179  1.9236  0.7539  1.3785
 1066SOL    HW2 6345   5.474   3.689   2.271  1.5387 -3.2076  0.4723
 1067SOL     OW 6346   1.282   6.035   6.875 -0.2006  0.2484  0.3941
 1067SOL    HW1 6347   1.250   6.122   6.849 -0.9415 -0.2204 -0.3216
 1067SOL    HW2 6348   1.321   5.999   6.795 -2.7626 -1.3328 -0.2789
 1068SOL     OW 6349   2.296   5.046   4.711  0.5169 -0.2945 -0.1299
 1068SOL    HW1 6350   2.372   5.006   4.670 -0.7278 -3.6150  0.4594
 1068SOL    HW2 6351   2.305   5.023   4.804 -0.1545  1.0874  0.2966
 1069SOL     OW 6352   0.587   3.218   2.657  0.8875  0.6046 -0.4319
 1069SOL    HW1 6353   0.654   3.245   2.593  0.6515  0.1320 -0.8881
 1069SOL    HW2 6354   0.635   3.164   2.720  0.6031 -1.5119 -1.9192
 1070SOL     OW 6355   2.999   7.512   6.511 -0.3006 -0.2238  0.1269
 1070SOL    HW1 6356   2.935   7.577   6.482 -0.8209 -0.9422 -0.3792
 1070SOL    HW2 6357   3.077   7.529   6.459  0.0439  0.8493  0.9575
 1071SOL     OW 6358   2.510   1.573   7.409  0.2774 -0.5958  0.9466
 1071SOL    HW1 6359   2.588   1.618   7.443  0.1536 -0.6390  1.2921
 1071SOL    HW2 6360   2.509   1.594   7.316  0.2402  0.1006  1.0983
 1072SOL     OW 6361   0.965   4.025   3.537 -0.1850  0.1721  0.0595
 1072SOL    HW1 6362   0.920   3.940   3.544 -1.3983  0.4911 -2.4349
 1072SOL    HW2 6363   0.903   4.087   3.574  0.0080  0.1535  0.4152
 1073SOL     OW 6364   3.755   0.688   7.122  0.2835 -0.8587  0.1688
 1073SOL    HW1 6365   3.798   0.689   7.036 -0.0373  0.2294  0.0074
 1073SOL    HW2 6366   3.826   0.692   7.185  0.4746 -0.4427 -0.0715
 1074SOL     OW 6367   2.940   2.353   1.524  0.6146 -0.2202 -0.2596
 1074SOL    HW1 6368   2.891   2.303   1.459 -1.9623 -0.2868  1.6154
 1074SOL    HW2 6369   2.922   2.445   1.503 -1.1280 -0.2474  0.9100
 1075SOL     OW 6370   3.961   3.015   0.648 -0.4450  0.4722  0.3287
 1075SOL    HW1 6371   3.870   3.042   0.656  0.0718  2.3764  0.3160
 1075SOL    HW2 6372   3.976   2.956   0.722 -1.0348  2.0992  1.7847
 1076SOL     OW 6373   1.354   6.619   3.867 -0.6456  0.5112 -0.0727
 1076SOL    HW1 6374   1.267   6.605   3.905 -1.6751  0.3060 -2.3837
 1076SOL    HW2 6375   1.340   6.682   3.798  1.2343  1.1205  0.0609
 1077SOL     OW 6376   2.069   0.306   5.415  0.2790 -0.6718 -0.0953
 1077SOL    HW1 6377   2.121   0.377   5.378 -2.4097  1.1519 -0.6630
 1077SOL    HW2 6378   2.035   0.341   5.497 -1.4073 -1.0816 -0.5737
 1078SOL     OW 6379   3.705   1.921   3.053 -0.4164  0.5351  0.2759
 1078SOL    HW1 6380   3.644   1.941   3.123 -0.6571  0.6784  0.0269
 1078SOL    HW2 6381   3.649   1.909   2.975 -0.2047 -0.1484  0.2198
 1079SOL     OW 6382   4.101   2.773   1.101 -0.0847  0.4564  0.5714
 1079SOL    HW1 6383   4.128   2.855   1.060 -0.3403  1.9671  3.1494
 1079SOL    HW2 6384   4.048   2.729   1.035  1.7928  1.3148 -1.6394
 1080SOL     OW 6385   5.254   6.376   6.507  0.5576 -0.0665 -0.3454
 1080SOL    HW1 6386   5.307   6.336   6.576  0.7831 -1.5028 -1.2977
 1080SOL    HW2 6387   5.165   6.345   6.525  0.0544  1.9366  0.9586
 1081SOL     OW 6388   1.250   3.769   3.439  0.2026 -0.2063  0.0477
 1081SOL    HW1 6389   1.165   3.739   3.406  0.4579 -0.0772 -0.7731
 1081SOL    HW2 6390   1.301   3.690   3.454 -0.0431 -0.2813  0.4914
 1082SOL     OW 6391   6.586   4.044   0.247 -0.1245 -0.4380  0.0539
 1082SOL    HW1 6392   6.537   3.984   0.191 -2.6498  0.1532  1.4347
 1082SOL    HW2 6393   6.518   4.088   0.298  1.8877  0.8702  1.7404
 1083SOL     OW 6394   4.228   7.302   2.358  0.4169  0.4760  0.2667
 1083SOL    HW1 6395   4.222   7.215   2.317 -1.1691  0.0465  1.3100
 1083SOL    HW2 6396   4.156   7.351   2.320  0.5061  0.9069  0.6506
 1084SOL     OW 6397   3.900   2.290   2.381 -0.1860 -0.1559  0.7808
 1084SOL    HW1 6398   3.852   2.368   2.355 -1.1682 -0.3405  1.9344
 1084SOL    HW2 6399   3.928   2.307   2.470  0.6598 -0.6398  0.6219
 1085SOL     OW 6400   7.535   3.223   7.690 -0.1505 -0.2194 -0.0916
 1085SOL    HW1 6401   7.466   3.260   7.745  0.2329  1.5749 -0.7450
 1085SOL    HW2 6402   7.490   3.193   7.611 -0.3225 -0.0563 -0.0551
 1086SOL     OW 6403   3.521   5.326   7.741 -0.2383  0.3899 -0.2147
 1086SOL    HW1 6404   3.503   5.395   7.805 -0.3393  0.0893  0.0860
 1086SOL    HW2 6405   3.559   5.255   7.793 -1.9229 -0.5463 -0.1821
 1087SOL     OW 6406   7.988   1.521   2.408 -0.1788 -0.1407 -0.8597
 1087SOL    HW1 6407   8.004   1.552   2.319  0.1826  1.0238 -0.4064
 1087SOL    HW2 6408   7.926   1.585   2.444 -0.4968 -0.7342 -0.3454
 1088SOL     OW 6409   6.532   6.989   5.635  0.7674 -0.1796  0.0022
 1088SOL    HW1 6410   6.498   6.916   5.583 -0.1524 -0.0686  0.4213
 1088SOL    HW2 6411   6.604   6.951   5.685  0.7784 -0.6151 -0.3344
 1089SOL     OW 6412   7.057   8.020   4.070 -0.2418 -0.1548  0.1082
 1089SOL    HW1 6413   7.041   8.111   4.046  0.3853 -0.5894 -2.1206
 1089SOL    HW2 6414   7.121   8.024   4.141 -1.2190  1.1510  0.9563
 1090SOL     OW 6415   0.208   4.702   4.760  0.4007 -0.1304  0.0115
 1090SOL    HW1 6416   0.143   4.772   4.771  1.7387  0.9749  1.1682
 1090SOL    HW2 6417   0.292   4.747   4.762  1.2522 -1.5969 -1.0005
 1091SOL     OW 6418   5.299   1.105   1.006  0.0495 -0.2656 -0.4371
 1091SOL    HW1 6419   5.327   1.164   1.076 -0.8409 -0.6089  0.2343
 1091SOL    HW2 6420   5.236   1.046   1.049 -2.6447  1.2343 -2.1058
 1092SOL     OW 6421   3.271   0.326   4.573 -0.0044  0.1790  0.5812
 1092SOL    HW1 6422   3.366   0.321   4.567  0.0518  1.4677  0.1111
 1092SOL    HW2 6423   3.251   0.308   4.665  0.7575  0.6910  0.8491
 1093SOL     OW 6424   5.475   6.345   4.408 -0.1868  0.8813  0.3215
 1093SOL    HW1 6425   5.417   6.385   4.472  0.0663  1.8224 -0.0235
 1093SOL    HW2 6426   5.482   6.410   4.338 -0.9697 -0.3702 -0.9738
 1094SOL     OW 6427   1.371   1.527   0.336  0.0185  0.2789 -0.0069
 1094SOL    HW1 6428   1.420   1.454   0.299  0.8199  0.7717  0.0509
 1094SOL    HW2 6429   1.392   1.601   0.279  0.5017  0.8307  0.8697
 1095SOL     OW 6430   6.062   6.733   7.301 -0.2628 -0.7006 -0.2678
 1095SOL    HW1 6431   6.082   6.775   7.385  1.4935 -1.0432 -0.4721
 1095SOL    HW2 6432   6.141   6.745   7.249 -2.0140  1.2702 -2.6624
 1096SOL     OW 6433   7.109   0.595   3.187  0.0349  0.2718  0.3514
 1096SOL    HW1 6434   7.142   0.684   3.182 -1.4693  1.1283  3.2796
 1096SOL    HW2 6435   7.144   0.560   3.269 -1.7091 -0.7305  0.7414
 1097SOL     OW 6436   5.470   5.948   1.664  0.4085 -0.4108  0.5472
 1097SOL    HW1 6437   5.447   6.021   1.607 -0.5850 -0.2746  1.1116
 1097SOL    HW2 6438   5.538   5.901   1.616  0.6576  0.5550 -0.0725
 1098SOL     OW 6439   0.046   4.731   4.435  0.5649  0.2972  0.0835
 1098SOL    HW1 6440   0.076   4.691   4.516  0.3677 -0.8525 -0.3883
 1098SOL    HW2 6441   0.103   4.693   4.367  0.7655  1.2779 -0.3186
 1099SOL     OW 6442   4.795   6.225   1.003 -0.3792 -0.5258 -0.0510
 1099SOL    HW1 6443   4.865   6.291   0.997 -1.9009  1.0504 -1.5911
 1099SOL    HW2 6444   4.746   6.250   1.081 -2.0400  1.4310 -1.5983
 1100SOL     OW 6445   2.874   4.748   2.531  0.0717 -0.0990 -0.0039
 1100SOL    HW1 6446   2.819   4.762   2.609 -0.4251  0.3925 -0.4314
 1100SOL    HW2 6447   2.813   4.716   2.465  0.3650  0.1337 -0.3885
 1101SOL     OW 6448   4.204   7.460   0.502  0.1363 -0.6645  0.4028
 1101SOL    HW1 6449   4.186   7.545   0.462  1.6474  0.6891  2.4373
 1101SOL    HW2 6450   4.117   7.426   0.525 -0.4418  1.1266  1.0660
 1102SOL     OW 6451   5.383   1.171   6.972 -0.3452  0.1355 -0.8130
 1102SOL    HW1 6452   5.294   1.135   6.967 -0.4554  0.3254 -0.3192
 1102SOL    HW2 6453   5.390   1.204   7.062  0.2079  0.1709 -0.8678
 1103SOL     OW 6454   3.509   0.212   2.082  0.5714 -0.2032 -0.3136
 1103SOL    HW1 6455   3.550   0.267   2.016  2.7947 -0.2999  0.9163
 1103SOL    HW2 6456   3.433   0.174   2.038  0.8375  1.2996 -2.1632
 1104SOL     OW 6457   2.512   2.823   6.347 -0.5278 -0.8762 -0.2562
 1104SOL    HW1 6458   2.493   2.890   6.413 -0.8841 -1.9080  0.7029
 1104SOL    HW2 6459   2.426   2.788   6.323 -0.4242 -0.3612 -1.4518
 1105SOL     OW 6460   1.346   2.840   1.128 -0.5775 -0.0873  0.6732
 1105SOL    HW1 6461   1.329   2.750   1.157 -2.5605 -0.2921 -0.8706
 1105SOL    HW2 6462   1.282   2.892   1.176  0.5748  0.5440  1.5702
 1106SOL     OW 6463   2.883   5.259   0.188 -0.3152 -0.3169 -0.0473
 1106SOL    HW1 6464   2.912   5.208   0.112 -0.2133 -1.0600  0.4763
 1106SOL    HW2 6465   2.830   5.329   0.151  3.4212  2.1435 -1.2412
 1107SOL     OW 6466   7.771   4.729   5.987  0.2870  0.5682  0.6894
 1107SOL    HW1 6467   7.806   4.712   6.075  0.0638  1.2191  0.9130
 1107SOL    HW2 6468   7.794   4.821   5.971  0.3618  0.4379  0.0488
 1108SOL     OW 6469   6.921   3.935   2.535 -0.2664  0.1995 -0.3774
 1108SOL    HW1 6470   6.995   3.963   2.589 -0.7297 -0.0492  0.4059
 1108SOL    HW2 6471   6.953   3.941   2.445  0.5209  0.6266 -0.0784
 1109SOL     OW 6472   3.123   0.771   3.615 -0.1239  0.4577 -0.9888
 1109SOL    HW1 6473   3.068   0.846   3.634  1.0660  1.0485  0.3496
 1109SOL    HW2 6474   3.130   0.724   3.698  0.5916 -0.1331 -1.3624
 1110SOL     OW 6475   7.974   6.549   7.259 -0.4221 -0.0110  0.2940
 1110SOL    HW1 6476   8.001   6.539   7.168 -0.2668  0.8811  0.2325
 1110SOL    HW2 6477   7.946   6.461   7.286  1.7328 -0.8182  0.1053
 1111SOL     OW 6478   2.402   3.483   7.050 -0.6423  0.0290 -0.4161
 1111SOL    HW1 6479   2.362   3.424   7.114  1.0830 -1.0961 -0.2970
 1111SOL    HW2 6480   2.467   3.428   7.004  2.5925  2.2380  1.1419
 1112SOL     OW 6481   2.219   3.328   2.623  0.0306 -0.1225 -0.0985
 1112SOL    HW1 6482   2.233   3.250   2.678  0.8001 -1.0244 -1.4939
 1112SOL    HW2 6483   2.124   3.333   2.611  0.0481 -2.2331 -1.7952
 1113SOL     OW 6484   5.678   6.084   7.233 -0.1118 -0.1546 -0.5368
 1113SOL    HW1 6485   5.771   6.069   7.214 -0.0166  0.0197 -0.2258
 1113SOL    HW2 6486   5.663   6.174   7.206  0.6622  0.9854  2.4309
 1114SOL     OW 6487   3.944   2.182   7.920  0.4330 -0.3538 -0.2996
 1114SOL    HW1 6488   4.019   2.167   7.978 -0.6265 -1.9470  0.7317
 1114SOL    HW2 6489   3.918   2.273   7.937  1.4167 -0.1438  0.1564
 1115SOL     OW 6490   4.104   0.487   7.921 -0.2857  0.5965 -0.2676
 1115SOL    HW1 6491   4.122   0.394   7.937 -0.4372  0.8387  1.5262
 1115SOL    HW2 6492   4.187   0.521   7.888  0.1459  0.0679  0.2340
 1116SOL     OW 6493   5.585   4.785   1.023  0.3142  0.3069 -0.4224
 1116SOL    HW1 6494   5.641   4.854   0.986 -0.7163  1.0208 -0.6706
 1116SOL    HW2 6495   5.572   4.723   0.951  0.1885  0.5146 -0.5781
 1117SOL     OW 6496   2.925   0.404   3.568  0.2630  0.4693  0.2672
 1117SOL    HW1 6497   2.920   0.468   3.497 -0.8960 -1.0037 -1.0487
 1117SOL    HW2 6498   2.902   0.321   3.527  1.8060 -0.8409  1.8956
 1118SOL     OW 6499   3.172   4.592   0.346  0.2360 -0.2485  0.5651
 1118SOL    HW1 6500   3.217   4.652   0.286  1.6103 -2.2893 -0.5393
 1118SOL    HW2 6501   3.210   4.611   0.432  1.1978 -0.0450  0.1099
 1119SOL     OW 6502   7.556   7.571   2.896 -0.0082  0.1390 -0.2980
 1119SOL    HW1 6503   7.467   7.547   2.919 -1.3718  2.2732 -2.8310
 1119SOL    HW2 6504   7.562   7.554   2.802  1.3165  2.5411 -0.7222
 1120SOL     OW 6505   7.559   4.781   3.388  0.6166  0.4597  0.2491
 1120SOL    HW1 6506   7.523   4.727   3.459 -0.9121  0.2518 -0.6420
 1120SOL    HW2 6507   7.485   4.798   3.331  1.3837  2.3330 -0.2585
 1121SOL     OW 6508   2.962   0.516   3.077  0.0801 -0.1300 -0.4100
 1121SOL    HW1 6509   2.917   0.543   2.997 -1.4556 -0.6624  0.2418
 1121SOL    HW2 6510   3.008   0.435   3.053 -2.2105 -1.5727 -0.2545
 1122SOL     OW 6511   2.537   3.150   2.476  0.0729 -0.4082 -0.0886
 1122SOL    HW1 6512   2.485   3.210   2.531 -0.9009 -0.7118 -0.6535
 1122SOL    HW2 6513   2.626   3.159   2.509  0.5908  3.5583 -1.9562
 1123SOL     OW 6514   3.172   3.366   2.482 -0.2661  0.1518 -0.1893
 1123SOL    HW1 6515   3.176   3.436   2.416 -1.6983  1.2905  0.8509
 1123SOL    HW2 6516   3.242   3.305   2.458 -0.2679  0.9157 -2.3044
 1124SOL     OW 6517   2.543   7.557   4.872  0.2872  0.1685  0.5610
 1124SOL    HW1 6518   2.576   7.516   4.792 -0.4689 -2.4640  1.4883
 1124SOL    HW2 6519   2.542   7.650   4.852  0.9909 -0.3103 -2.1668
 1125SOL     OW 6520   5.940   2.551   1.522  0.0573  0.1302 -0.4518
 1125SOL    HW1 6521   5.867   2.604   1.491  0.3292 -0.1728 -1.6652
 1125SOL    HW2 6522   5.983   2.520   1.442  0.9302 -0.4972  0.2377
 1126SOL     OW 6523   2.766   0.494   2.364  0.6760 -0.1213  0.0735
 1126SOL    HW1 6524   2.686   0.495   2.415  1.6783 -1.3095  1.7659
 1126SOL    HW2 6525   2.805   0.408   2.381  1.6554 -0.0987 -1.7716
 1127SOL     OW 6526   6.066   7.832   5.991  0.1652 -0.5132  0.3862
 1127SOL    HW1 6527   5.999   7.881   6.040 -0.4088 -1.3597  0.4677
 1127SOL    HW2 6528   6.140   7.826   6.052 -0.0044 -0.3189  0.6166
 1128SOL     OW 6529   3.255   2.877   0.428  0.1470 -0.0625 -0.0352
 1128SOL    HW1 6530   3.320   2.880   0.358  1.8024 -0.4294  1.4216
 1128SOL    HW2 6531   3.182   2.930   0.396  1.5763  1.2000 -1.3143
 1129SOL     OW 6532   2.158   7.622   5.291  0.2196  0.4662 -0.0876
 1129SOL    HW1 6533   2.068   7.612   5.262  0.1261 -1.6286  0.7391
 1129SOL    HW2 6534   2.153   7.681   5.366 -0.5408  0.1077  0.1526
 1130SOL     OW 6535   4.985   1.957   3.422  0.0031  0.9198  0.2041
 1130SOL    HW1 6536   4.900   1.960   3.466 -1.3641 -0.4540 -2.1659
 1130SOL    HW2 6537   4.993   2.042   3.380 -0.9896  0.4985 -0.8802
 1131SOL     OW 6538   7.085   6.363   4.737 -0.0076 -0.0297 -0.0788
 1131SOL    HW1 6539   7.075   6.300   4.808 -0.6342  0.1416 -0.0021
 1131SOL    HW2 6540   7.052   6.445   4.773  1.0688  0.4155 -0.0856
 1132SOL     OW 6541   7.934   3.273   6.193  0.2462 -0.0939 -0.2220
 1132SOL    HW1 6542   7.872   3.217   6.147 -1.6128 -0.0889  2.1132
 1132SOL    HW2 6543   7.882   3.346   6.226  2.1887  1.8551 -1.1616
 1133SOL     OW 6544   5.915   2.991   3.781 -0.3480  0.1644 -0.7036
 1133SOL    HW1 6545   5.833   2.957   3.745 -0.2424 -0.1964 -0.6040
 1133SOL    HW2 6546   5.983   2.937   3.741 -0.2600 -0.6591  0.4862
 1134SOL     OW 6547   3.216   2.827   2.086 -0.1459 -0.1070  0.0533
 1134SOL    HW1 6548   3.188   2.843   1.996  1.0223  0.3240 -0.2581
 1134SOL    HW2 6549   3.278   2.754   2.078 -0.5839 -0.5441  0.6106
 1135SOL     OW 6550   2.985   3.536   1.444  1.0706  0.7012 -0.2170
 1135SOL    HW1 6551   3.011   3.463   1.499 -0.8497  0.9157  1.0787
 1135SOL    HW2 6552   2.993   3.503   1.354 -0.8541 -1.5176  0.3457
 1136SOL     OW 6553   3.872   3.862   2.412  0.2051  0.4549  0.0449
 1136SOL    HW1 6554   3.953   3.881   2.364  0.1641  1.0379  0.1898
 1136SOL    HW2 6555   3.835   3.949   2.430  0.3338  0.2720  1.3189
 1137SOL     OW 6556   7.923   6.910   4.425  0.3421  0.1257 -0.0216
 1137SOL    HW1 6557   7.867   6.840   4.458  2.4693 -2.0807 -0.7382
 1137SOL    HW2 6558   7.908   6.984   4.484 -1.2388 -1.2727  1.4128
 1138SOL     OW 6559   3.393   2.447   0.681  0.8712  0.1890  0.1647
 1138SOL    HW1 6560   3.320   2.387   0.689  1.0531 -0.0613 -0.0320
 1138SOL    HW2 6561   3.353   2.534   0.676  0.5491  0.0048 -0.6557
 1139SOL     OW 6562   2.387   6.933   5.043 -0.5463 -0.1275 -0.4384
 1139SOL    HW1 6563   2.435   6.977   5.112 -0.1427  0.1458 -0.8835
 1139SOL    HW2 6564   2.311   6.893   5.086  0.3960 -1.0818  0.3839
 1140SOL     OW 6565   1.844   7.745   5.730 -0.6890 -0.3571 -0.1322
 1140SOL    HW1 6566   1.790   7.823   5.720 -0.6642 -0.4739 -1.3509
 1140SOL    HW2 6567   1.928   7.770   5.691 -0.7635 -1.0696 -0.7578
 1141SOL     OW 6568   1.894   0.862   1.155  0.4031  0.6965  0.1722
 1141SOL    HW1 6569   1.905   0.853   1.060 -0.2514  0.8197  0.0794
 1141SOL    HW2 6570   1.983   0.859   1.190  0.5359 -2.3805 -0.1685
 1142SOL     OW 6571   3.979   5.329   6.648 -0.5549  0.2995  0.3798
 1142SOL    HW1 6572   3.973   5.389   6.573 -0.6530 -0.3287 -0.1180
 1142SOL    HW2 6573   3.888   5.309   6.670 -0.5108 -0.2287  0.0899
 1143SOL     OW 6574   2.073   3.256   7.056  0.6681  0.1920 -0.0763
 1143SOL    HW1 6575   1.984   3.227   7.074  0.5366  1.3160  1.2453
 1143SOL    HW2 6576   2.129   3.194   7.101  0.5021  0.3037  0.2820
 1144SOL     OW 6577   0.703   6.671   3.683  0.5378  0.2629 -0.0644
 1144SOL    HW1 6578   0.792   6.639   3.698 -0.2683 -1.5855  1.1913
 1144SOL    HW2 6579   0.647   6.598   3.710 -1.3754  1.6768 -0.0302
 1145SOL     OW 6580   1.088   1.483   0.733  0.5647  0.0167 -0.1109
 1145SOL    HW1 6581   1.097   1.496   0.639 -1.4903 -1.2703 -0.5486
 1145SOL    HW2 6582   1.163   1.428   0.757  1.0675  0.2983 -0.9825
 1146SOL     OW 6583   4.612   0.246   0.638 -0.8636 -0.0820  0.4162
 1146SOL    HW1 6584   4.552   0.188   0.685 -0.4456 -0.2490  0.7447
 1146SOL    HW2 6585   4.554   0.305   0.589 -1.2939 -0.4125  0.5215
 1147SOL     OW 6586   4.234   2.635   6.493  0.0721  0.4478 -0.5409
 1147SOL    HW1 6587   4.310   2.653   6.547  1.9173  0.6839 -3.0335
 1147SOL    HW2 6588   4.161   2.676   6.539  1.2422 -0.4702  2.3385
 1148SOL     OW 6589   2.950   4.870   0.163 -0.9699  0.5560  0.0624
 1148SOL    HW1 6590   3.007   4.843   0.234 -0.9852 -1.2516 -0.5576
 1148SOL    HW2 6591   3.006   4.921   0.105 -0.1629 -0.5134 -0.1309
 1149SOL     OW 6592   4.187   4.087   7.136 -0.1004  0.1523 -0.2883
 1149SOL    HW1 6593   4.118   4.143   7.100 -1.3989 -0.0892  1.6409
 1149SOL    HW2 6594   4.175   4.093   7.231  1.9170 -0.7107  0.0617
 1150SOL     OW 6595   0.819   7.048   1.876 -0.2355  0.2172  0.4877
 1150SOL    HW1 6596   0.771   7.100   1.940  1.0063  1.0429  0.7813
 1150SOL    HW2 6597   0.911   7.073   1.888  0.1019 -0.0772 -1.1733
 1151SOL     OW 6598   1.515   6.988   0.011  0.5464 -0.3684  0.6448
 1151SOL    HW1 6599   1.446   6.929  -0.020 -0.0817 -0.1366  1.5589
 1151SOL    HW2 6600   1.596   6.946  -0.016  0.0789 -1.2341  0.5527
 1152SOL     OW 6601   7.039   1.877   5.251  0.1766  0.1725  0.0319
 1152SOL    HW1 6602   7.051   1.971   5.259 -1.7318  0.6374 -1.6271
 1152SOL    HW2 6603   7.052   1.860   5.157  0.1717 -1.1623  0.2571
 1153SOL     OW 6604   4.476   7.804   2.079 -0.1668  1.2658 -0.0238
 1153SOL    HW1 6605   4.409   7.778   2.143 -1.1164  1.0842 -1.0497
 1153SOL    HW2 6606   4.439   7.881   2.036  1.4748  2.7929  1.1797
 1154SOL     OW 6607   7.146   7.646   7.672 -0.7163 -0.8011 -0.1061
 1154SOL    HW1 6608   7.219   7.702   7.647  0.2752 -2.1703 -0.3890
 1154SOL    HW2 6609   7.139   7.656   7.767 -0.7316 -0.0023 -0.1882
 1155SOL     OW 6610   0.654   4.309   3.382  0.5700 -0.1927 -0.8947
 1155SOL    HW1 6611   0.568   4.343   3.403  1.5533  0.7579  2.0490
 1155SOL    HW2 6612   0.641   4.214   3.375 -0.5107 -0.2223  0.9584
 1156SOL     OW 6613   4.807   2.985   0.329 -0.2458 -0.3486  0.1004
 1156SOL    HW1 6614   4.828   3.058   0.388 -2.0824  0.0253  0.3567
 1156SOL    HW2 6615   4.867   2.915   0.355  0.6247  0.6065  0.7707
 1157SOL     OW 6616   6.985   0.997   8.020 -0.0219  0.1320  0.1020
 1157SOL    HW1 6617   7.009   1.070   8.077 -2.1570  2.1071 -1.3463
 1157SOL    HW2 6618   6.900   0.967   8.054  0.3527 -1.0146  0.0589
 1158SOL     OW 6619   2.256   6.677   0.720  0.4168  0.0111 -0.0710
 1158SOL    HW1 6620   2.271   6.584   0.737  0.6491  0.1571  0.5457
 1158SOL    HW2 6621   2.164   6.683   0.695  0.0904 -0.2281  1.0403
 1159SOL     OW 6622   1.595   4.548   7.038 -0.8201 -0.2115 -0.1416
 1159SOL    HW1 6623   1.611   4.598   6.958 -2.0097  0.3618 -0.0314
 1159SOL    HW2 6624   1.523   4.593   7.082 -1.5049 -1.6493  0.2815
 1160SOL     OW 6625   5.021   3.516   0.021  1.0127  0.0566 -0.3041
 1160SOL    HW1 6626   5.054   3.490   0.107 -0.8562 -0.1280  0.3938
 1160SOL    HW2 6627   5.027   3.612   0.021  0.1960  0.1220  0.4083
 1161SOL     OW 6628   6.509   3.826   0.048  0.6631 -0.0850 -0.2670
 1161SOL    HW1 6629   6.453   3.757   0.082 -0.6249  1.6692  1.3845
 1161SOL    HW2 6630   6.502   3.819  -0.047 -0.8384 -1.0869 -0.1045
 1162SOL     OW 6631   7.920   4.763   7.443 -0.1008  0.2646  0.1375
 1162SOL    HW1 6632   7.927   4.680   7.397 -1.2499  0.8279 -1.1173
 1162SOL    HW2 6633   7.938   4.742   7.535 -2.2651 -1.7195  0.1805
 1163SOL     OW 6634   7.441   1.417   7.364 -0.3512  0.1770 -0.5412
 1163SOL    HW1 6635   7.347   1.424   7.351 -0.6339  0.5795  1.3458
 1163SOL    HW2 6636   7.468   1.506   7.389  0.6369  0.1943 -1.6062
 1164SOL     OW 6637   6.957   7.028   4.219  0.6264  0.2587 -0.0805
 1164SOL    HW1 6638   7.008   7.106   4.197  4.0624 -2.1150 -1.4401
 1164SOL    HW2 6639   6.917   7.001   4.137 -0.3233  0.4062  0.3235
 1165SOL     OW 6640   6.301   1.564   4.185 -0.1340  0.2484 -0.2024
 1165SOL    HW1 6641   6.345   1.587   4.267 -1.1022 -0.5750  0.5784
 1165SOL    HW2 6642   6.294   1.647   4.137  0.2960  0.7702  0.6279
 1166SOL     OW 6643   5.214   2.781   3.324  0.0471 -0.8894  0.4687
 1166SOL    HW1 6644   5.238   2.868   3.293  0.0495 -0.6355  1.1574
 1166SOL    HW2 6645   5.246   2.721   3.256  0.8134 -0.4156  0.3951
 1167SOL     OW 6646   0.927   7.415   3.806 -0.5148  0.1462  0.1360
 1167SOL    HW1 6647   0.985   7.361   3.860 -1.1212 -0.2716  0.3760
 1167SOL    HW2 6648   0.900   7.486   3.865  0.1445  0.6305 -0.1278
 1168SOL     OW 6649   2.069   5.304   7.638 -0.0744 -0.1832  0.2793
 1168SOL    HW1 6650   1.990   5.345   7.603  1.3563  1.2061 -1.4900
 1168SOL    HW2 6651   2.141   5.362   7.612  1.8915 -2.8730 -0.7869
 1169SOL     OW 6652   6.371   4.542   7.200 -0.1917  0.1127 -0.8524
 1169SOL    HW1 6653   6.464   4.518   7.196 -0.3624 -1.1133  1.0878
 1169SOL    HW2 6654   6.325   4.458   7.206 -1.4754  0.6896 -2.1097
 1170SOL     OW 6655   3.650   2.038   0.207  0.4649 -0.2481  0.0070
 1170SOL    HW1 6656   3.575   2.050   0.148  0.6774 -1.0357 -0.4405
 1170SOL    HW2 6657   3.633   2.098   0.280 -0.5009 -0.2730 -0.1818
 1171SOL     OW 6658   1.157   1.766   5.384 -0.0135 -0.3162 -0.4934
 1171SOL    HW1 6659   1.117   1.805   5.306 -1.2840  1.3351  0.8950
 1171SOL    HW2 6660   1.122   1.676   5.386  0.6376 -0.6515 -2.1757
 1172SOL     OW 6661   1.066   4.138   3.263 -0.1328 -0.1563  0.0494
 1172SOL    HW1 6662   1.019   4.203   3.212  1.1050  2.0824  1.6045
 1172SOL    HW2 6663   1.057   4.167   3.354 -0.1766 -2.6220  0.9112
 1173SOL     OW 6664   1.425   5.688   7.568  0.1135  0.3125  0.6282
 1173SOL    HW1 6665   1.349   5.657   7.617  0.1366 -2.0110 -0.6788
 1173SOL    HW2 6666   1.409   5.660   7.478  1.8480  1.0596  0.0360
 1174SOL     OW 6667   1.023   3.423   4.122  0.0763 -0.0585  0.2948
 1174SOL    HW1 6668   0.966   3.482   4.171 -0.6996 -1.6215  1.3445
 1174SOL    HW2 6669   1.087   3.481   4.079 -0.6956  1.5216  1.2021
 1175SOL     OW 6670   6.534   1.390   7.141 -0.0071 -0.1809  0.7166
 1175SOL    HW1 6671   6.559   1.299   7.156  1.6450  0.2500  0.7519
 1175SOL    HW2 6672   6.527   1.428   7.229  1.4741  0.2524  0.6724
 1176SOL     OW 6673   7.717   3.368   3.685  0.2608  0.6325  0.0526
 1176SOL    HW1 6674   7.622   3.364   3.699  0.1462  1.5976 -0.3596
 1176SOL    HW2 6675   7.730   3.328   3.599 -0.0878  2.6592 -1.0108
 1177SOL     OW 6676   5.968   3.161   4.341 -0.5794  0.0157  0.4093
 1177SOL    HW1 6677   6.042   3.115   4.381  0.2376  0.3661 -0.6333
 1177SOL    HW2 6678   5.945   3.105   4.266 -3.0189 -1.3980  2.0958
 1178SOL     OW 6679   3.751   2.256   7.655 -0.0243  0.2776 -0.4796
 1178SOL    HW1 6680   3.764   2.349   7.638  3.2485  0.0197  0.0259
 1178SOL    HW2 6681   3.809   2.212   7.592  0.3292 -1.2786  0.8641
 1179SOL     OW 6682   3.471   7.896   4.124 -0.1261  0.7176  0.4650
 1179SOL    HW1 6683   3.465   7.914   4.218 -0.9679  2.2209  0.1488
 1179SOL    HW2 6684   3.461   7.801   4.117 -0.3353  0.6181  1.8743
 1180SOL     OW 6685   0.200   1.683   5.763  0.0077  0.5142 -0.6730
 1180SOL    HW1 6686   0.191   1.623   5.838 -0.1086  1.7454  0.3199
 1180SOL    HW2 6687   0.180   1.628   5.687 -2.3445 -0.1851  0.3678
 1181SOL     OW 6688   6.285   3.067   6.880  0.5151 -0.2554 -0.0349
 1181SOL    HW1 6689   6.228   3.079   6.956  0.5108 -0.5052  0.0021
 1181SOL    HW2 6690   6.369   3.039   6.916  0.4777 -0.4946 -0.1270
 1182SOL     OW 6691   0.046   0.063   3.745  0.2533  0.3276 -0.1299
 1182SOL    HW1 6692  -0.041   0.022   3.736  0.3270  0.1428  0.0028
 1182SOL    HW2 6693   0.105  -0.010   3.763  0.2057  0.6282  1.3246
 1183SOL     OW 6694   6.607   0.992   5.093  0.0850 -0.5579 -0.3063
 1183SOL    HW1 6695   6.633   0.918   5.149 -0.1356 -0.5935 -0.2495
 1183SOL    HW2 6696   6.611   0.957   5.004 -0.7401 -0.8626 -0.2331
 1184SOL     OW 6697   3.359   4.127   3.213  0.2028  0.0026  0.5445
 1184SOL    HW1 6698   3.328   4.123   3.304  1.4663  0.4054  1.0107
 1184SOL    HW2 6699   3.305   4.064   3.166 -1.6684  1.0357  1.2052
 1185SOL     OW 6700   1.738   2.797   0.351  0.0335  0.6420 -0.0460
 1185SOL    HW1 6701   1.736   2.892   0.341 -3.2009  0.6591 -0.3584
 1185SOL    HW2 6702   1.740   2.783   0.446  0.2596  1.0094  0.0050
 1186SOL     OW 6703   7.870   0.747   4.396  0.3983 -0.7577  1.0061
 1186SOL    HW1 6704   7.831   0.825   4.436 -0.6823  0.6265 -2.4086
 1186SOL    HW2 6705   7.937   0.781   4.336  0.3394 -2.4648 -0.1003
 1187SOL     OW 6706   6.185   1.639   0.197  0.5627  0.1586  0.6715
 1187SOL    HW1 6707   6.240   1.578   0.245  1.7352  0.8374  0.2317
 1187SOL    HW2 6708   6.145   1.694   0.265 -0.0977 -0.7481  1.0332
 1188SOL     OW 6709   4.176   2.271   2.265 -0.4688 -0.6172 -0.4210
 1188SOL    HW1 6710   4.083   2.281   2.287 -0.4064 -1.9911  0.5621
 1188SOL    HW2 6711   4.222   2.294   2.346  0.0769  0.1916 -0.9449
 1189SOL     OW 6712   4.436   4.687   5.271 -0.1560 -0.4598  0.6844
 1189SOL    HW1 6713   4.373   4.752   5.304 -0.8054 -1.8020  2.2350
 1189SOL    HW2 6714   4.431   4.696   5.176  0.6118  2.4918  0.8162
 1190SOL     OW 6715   2.334   0.221   4.906 -0.4096 -0.1617 -0.2982
 1190SOL    HW1 6716   2.265   0.236   4.842 -2.2104 -0.2865  1.5037
 1190SOL    HW2 6717   2.370   0.136   4.883  0.2606  0.5827 -2.1944
 1191SOL     OW 6718   6.072   2.384   4.949  0.1994  0.2863 -0.3806
 1191SOL    HW1 6719   6.162   2.409   4.928  1.4066 -1.8733  1.7982
 1191SOL    HW2 6720   6.039   2.345   4.868  1.2557  0.9266 -1.1508
 1192SOL     OW 6721   3.138   4.195   4.032  0.2958  0.2447 -0.6606
 1192SOL    HW1 6722   3.051   4.235   4.033  1.2020  2.4546  1.5990
 1192SOL    HW2 6723   3.191   4.254   3.979  0.4886 -1.0845 -2.0221
 1193SOL     OW 6724   6.441   3.893   3.009 -0.4536  0.3316 -0.7534
 1193SOL    HW1 6725   6.382   3.826   2.976  0.0258  0.2278 -1.4282
 1193SOL    HW2 6726   6.507   3.844   3.059 -1.6463  0.5615  1.1151
 1194SOL     OW 6727   1.554   0.989   3.265 -0.2605 -0.2092 -0.1148
 1194SOL    HW1 6728   1.484   0.977   3.329  0.4288  0.0942  0.7251
 1194SOL    HW2 6729   1.539   1.076   3.228  0.8849  0.8218  1.6718
 1195SOL     OW 6730   1.251   4.759   0.548 -0.4571  0.1737  0.3840
 1195SOL    HW1 6731   1.231   4.741   0.456 -0.3662 -1.9362  0.7142
 1195SOL    HW2 6732   1.342   4.787   0.548 -0.8763  1.6514 -0.2836
 1196SOL     OW 6733   6.606   3.874   5.979  0.0696 -0.0325 -0.1048
 1196SOL    HW1 6734   6.675   3.812   5.953  0.4876  0.4742 -0.2095
 1196SOL    HW2 6735   6.551   3.824   6.040  1.2753 -0.0578  0.9989
 1197SOL     OW 6736   1.389   1.025   2.307  0.3473 -0.1157  0.1277
 1197SOL    HW1 6737   1.314   0.968   2.292 -1.2006  1.6559  0.7147
 1197SOL    HW2 6738   1.395   1.033   2.402  0.9298  0.1972  0.0678
 1198SOL     OW 6739   3.149   0.783   0.258  0.1709  0.1569 -0.1230
 1198SOL    HW1 6740   3.179   0.874   0.259 -0.3399  0.3328  1.0029
 1198SOL    HW2 6741   3.200   0.741   0.189 -0.4717  1.5834 -1.5032
 1199SOL     OW 6742   4.979   5.342   6.159  0.3452 -0.4322 -0.7091
 1199SOL    HW1 6743   5.034   5.289   6.103  0.4705 -0.4440 -0.5751
 1199SOL    HW2 6744   4.895   5.346   6.113  1.0999  1.5018 -2.0764
 1200SOL     OW 6745   1.963   5.685   7.876  0.3220  0.0804 -0.6781
 1200SOL    HW1 6746   1.915   5.689   7.794  1.6480  2.0354 -1.4285
 1200SOL    HW2 6747   1.920   5.750   7.932  0.3377 -0.1936 -0.3466
 1201SOL     OW 6748   5.496   6.063   4.369  0.1688  0.0191  0.4078
 1201SOL    HW1 6749   5.472   6.154   4.387 -1.6361 -0.1865 -0.7418
 1201SOL    HW2 6750   5.584   6.069   4.331  0.0316  1.2804  0.2472
 1202SOL     OW 6751   2.620   0.571   6.919  0.2519 -0.0991  0.2051
 1202SOL    HW1 6752   2.673   0.637   6.964 -1.3453  0.6968  1.0218
 1202SOL    HW2 6753   2.643   0.489   6.962  1.5654  0.0417 -0.1764
 1203SOL     OW 6754   2.802   4.875   3.050  0.4018 -0.3722  0.2579
 1203SOL    HW1 6755   2.713   4.902   3.071  0.8340  1.5107 -0.1212
 1203SOL    HW2 6756   2.806   4.876   2.954  0.6325 -1.1796  0.2510
 1204SOL     OW 6757   7.299   2.169   1.117  0.5960  0.5249  0.0822
 1204SOL    HW1 6758   7.307   2.158   1.022  3.3534  1.7970  0.0711
 1204SOL    HW2 6759   7.366   2.111   1.154  1.0457  1.6541  1.1015
 1205SOL     OW 6760   1.721   2.159   3.097 -0.4231 -0.5501 -0.1151
 1205SOL    HW1 6761   1.703   2.154   3.191  2.2022  1.0337  0.5545
 1205SOL    HW2 6762   1.778   2.084   3.079  1.2030  0.5658  0.1713
 1206SOL     OW 6763   2.637   3.539   0.139  0.0435  0.1650  0.3148
 1206SOL    HW1 6764   2.552   3.575   0.161  0.8441  0.7546  2.6617
 1206SOL    HW2 6765   2.653   3.472   0.205  0.5816 -1.3753 -1.2759
 1207SOL     OW 6766   6.868   6.748   6.500 -0.4240  0.3036  0.0994
 1207SOL    HW1 6767   6.885   6.684   6.569 -1.8075  0.1529  0.3307
 1207SOL    HW2 6768   6.857   6.695   6.421  1.8470  0.5229 -0.4130
 1208SOL     OW 6769   0.678   6.759   2.400 -0.1473  0.5879 -0.7000
 1208SOL    HW1 6770   0.642   6.715   2.323  2.8031 -1.8889 -0.8595
 1208SOL    HW2 6771   0.772   6.767   2.382  1.0003 -1.5838  3.1717
 1209SOL     OW 6772   2.886   5.503   6.142  0.4982 -0.7549  0.3347
 1209SOL    HW1 6773   2.817   5.445   6.109 -0.5209 -0.0882  1.2409
 1209SOL    HW2 6774   2.914   5.553   6.065 -1.4231  0.3542  0.2924
 1210SOL     OW 6775   5.467   4.087   7.575 -0.7366  0.3988  0.0518
 1210SOL    HW1 6776   5.378   4.064   7.549  0.3104 -0.4178 -3.3548
 1210SOL    HW2 6777   5.495   4.016   7.632 -2.6446  1.4218  2.4636
 1211SOL     OW 6778   0.838   2.796   6.765 -0.0841  0.1766  0.3796
 1211SOL    HW1 6779   0.834   2.885   6.729 -0.7707  0.4421  1.0898
 1211SOL    HW2 6780   0.931   2.781   6.782  0.0937  0.5639 -0.2087
 1212SOL     OW 6781   3.650   1.098   3.574  0.8533  0.2694  0.2696
 1212SOL    HW1 6782   3.710   1.130   3.642 -0.1244 -0.3381  1.4488
 1212SOL    HW2 6783   3.702   1.033   3.526  0.7461 -1.3437  2.2059
 1213SOL     OW 6784   1.497   7.994   4.906 -0.0347 -0.2346  0.2710
 1213SOL    HW1 6785   1.456   8.048   4.838  1.4074  0.4918 -0.0687
 1213SOL    HW2 6786   1.439   7.919   4.915 -0.9638  0.3165 -0.8053
 1214SOL     OW 6787   2.624   5.250   0.486  0.0767  0.0379 -0.1473
 1214SOL    HW1 6788   2.697   5.270   0.545  0.4543  0.8136 -0.8608
 1214SOL    HW2 6789   2.610   5.330   0.437 -0.7958 -0.3343 -0.5283
 1215SOL     OW 6790   6.107   2.765   5.927  1.1820  0.3104  0.1563
 1215SOL    HW1 6791   6.071   2.705   5.993  0.8662  1.1009  0.7178
 1215SOL    HW2 6792   6.108   2.850   5.970  2.6927  0.5125 -0.2461
 1216SOL     OW 6793   3.029   4.860   0.450  0.0598  0.0794  0.2037
 1216SOL    HW1 6794   3.113   4.818   0.437  0.3207  0.9281 -1.0110
 1216SOL    HW2 6795   3.010   4.848   0.543  0.5759 -1.8158  0.1110
 1217SOL     OW 6796   5.731   5.129   2.695 -0.6831 -0.0110 -0.1124
 1217SOL    HW1 6797   5.649   5.165   2.663  0.3502  1.5658 -1.1252
 1217SOL    HW2 6798   5.752   5.059   2.632 -0.2874  0.9132 -1.0444
 1218SOL     OW 6799   3.793   0.516   2.300  0.2351  0.2019 -0.4691
 1218SOL    HW1 6800   3.840   0.444   2.340  0.2337  1.1855  1.4211
 1218SOL    HW2 6801   3.803   0.503   2.206  0.6016 -1.9799 -0.1653
 1219SOL     OW 6802   6.749   6.677   3.491 -0.0940 -0.0293 -0.3517
 1219SOL    HW1 6803   6.797   6.733   3.552 -0.7243  0.9530 -0.7306
 1219SOL    HW2 6804   6.764   6.718   3.405 -0.3026 -0.6282 -0.6741
 1220SOL     OW 6805   6.641   3.461   0.023 -0.6441 -0.3829 -0.0773
 1220SOL    HW1 6806   6.632   3.504   0.108  3.3077 -0.7551  0.7128
 1220SOL    HW2 6807   6.693   3.522  -0.029  0.1931 -1.7768 -0.9058
 1221SOL     OW 6808   6.395   7.528   6.038  0.0025 -0.4278 -0.1640
 1221SOL    HW1 6809   6.395   7.620   6.012  1.6217 -0.6206 -1.0368
 1221SOL    HW2 6810   6.384   7.480   5.956 -0.5331 -1.0301  0.2465
 1222SOL     OW 6811   5.818   1.094   5.337 -0.1572  0.1625 -0.2784
 1222SOL    HW1 6812   5.811   1.187   5.355 -0.5349  0.0399  0.2335
 1222SOL    HW2 6813   5.863   1.089   5.253 -0.2073  0.8068 -0.3474
 1223SOL     OW 6814   6.062   0.833   5.032 -0.3357 -0.1961  0.0995
 1223SOL    HW1 6815   6.115   0.873   4.963 -1.1855 -0.6881 -0.8687
 1223SOL    HW2 6816   6.125   0.803   5.097  0.4797  0.3303 -0.4367
 1224SOL     OW 6817   4.479   4.142   2.397 -0.0464 -0.3387  0.1359
 1224SOL    HW1 6818   4.468   4.048   2.409 -1.2513 -0.7618 -3.2638
 1224SOL    HW2 6819   4.574   4.155   2.399  0.3080 -2.1186 -1.8883
 1225SOL     OW 6820   4.908   4.607   1.976 -0.2207 -0.0845 -0.3916
 1225SOL    HW1 6821   4.850   4.610   2.052 -1.3664  0.6409 -1.2638
 1225SOL    HW2 6822   4.863   4.550   1.914 -1.0551  2.0664 -1.8714
 1226SOL     OW 6823   4.716   6.439   7.532  0.0491 -0.2165  0.0412
 1226SOL    HW1 6824   4.759   6.488   7.601  0.9975 -1.1892  0.1616
 1226SOL    HW2 6825   4.724   6.347   7.559 -0.8864 -0.5091 -0.6190
 1227SOL     OW 6826   6.625   7.468   2.848 -0.0009 -0.1052 -0.1355
 1227SOL    HW1 6827   6.555   7.501   2.905  0.8750  0.8486  0.4252
 1227SOL    HW2 6828   6.657   7.546   2.801 -0.4527 -0.8137 -1.6809
 1228SOL     OW 6829   5.474   4.719   4.992 -0.9462 -0.2958 -0.2771
 1228SOL    HW1 6830   5.514   4.670   5.064  0.1727 -0.5557 -1.0488
 1228SOL    HW2 6831   5.463   4.654   4.923  0.8943  0.5603 -1.4548
 1229SOL     OW 6832   5.311   3.031   7.316  0.3893  0.6168  0.5937
 1229SOL    HW1 6833   5.295   2.937   7.321 -0.5136  0.8047  1.7537
 1229SOL    HW2 6834   5.362   3.051   7.394 -0.8805  1.3264  1.2808
 1230SOL     OW 6835   5.382   2.325   4.323  0.1608 -0.0276 -0.2801
 1230SOL    HW1 6836   5.462   2.368   4.353 -0.4494  0.3201  0.9362
 1230SOL    HW2 6837   5.322   2.396   4.302 -0.5025 -0.2365  0.7757
 1231SOL     OW 6838   2.641   4.011   1.413 -0.2006  0.2831  0.5432
 1231SOL    HW1 6839   2.683   3.929   1.437 -1.0714 -0.8357 -1.5471
 1231SOL    HW2 6840   2.705   4.078   1.436 -0.3732 -0.6868  4.4639
 1232SOL     OW 6841   6.075   1.603   5.018  0.1738 -0.4771  0.2306
 1232SOL    HW1 6842   6.063   1.698   5.020  0.1890 -0.4649 -0.1726
 1232SOL    HW2 6843   5.993   1.569   5.053  0.2092 -0.3138  0.4782
 1233SOL     OW 6844   1.147   5.090   5.747 -0.2321 -0.2111  0.4063
 1233SOL    HW1 6845   1.139   5.000   5.778 -0.1400 -0.3083  0.1434
 1233SOL    HW2 6846   1.192   5.084   5.663 -2.4169 -0.1382 -0.8427
 1234SOL     OW 6847   5.781   7.074   0.939  0.4773  0.0672  0.3683
 1234SOL    HW1 6848   5.778   7.122   0.856 -3.3648 -1.8311 -0.8237
 1234SOL    HW2 6849   5.868   7.034   0.941  0.7971  0.4131 -2.6083
 1235SOL     OW 6850   5.788   1.565   0.289  0.4218  0.4172  0.4827
 1235SOL    HW1 6851   5.762   1.649   0.326  0.1513 -0.6208  2.8264
 1235SOL    HW2 6852   5.839   1.523   0.358  1.1443 -1.0752 -0.8862
 1236SOL     OW 6853   5.158   5.688   5.949 -0.1608 -0.2479  0.9330
 1236SOL    HW1 6854   5.199   5.735   5.876  0.8828 -0.6862  1.2056
 1236SOL    HW2 6855   5.157   5.596   5.920  0.4181 -0.4475  1.5291
 1237SOL     OW 6856   6.685   5.875   3.740  0.2470  1.0687 -0.0043
 1237SOL    HW1 6857   6.760   5.829   3.702 -0.4714  1.6798 -2.3211
 1237SOL    HW2 6858   6.705   5.968   3.728  0.2491  1.3251  1.7268
 1238SOL     OW 6859   0.134   0.472   2.045 -0.1179 -0.3044 -0.0631
 1238SOL    HW1 6860   0.189   0.461   2.122 -0.0712 -0.6429 -0.1445
 1238SOL    HW2 6861   0.088   0.555   2.060 -0.1227 -0.3786  0.3362
 1239SOL     OW 6862   1.367   6.226   7.938 -0.0455 -0.6539  0.6598
 1239SOL    HW1 6863   1.421   6.288   7.987  0.2572 -1.2530  1.1008
 1239SOL    HW2 6864   1.407   6.140   7.954 -0.3445 -0.9508 -0.0864
 1240SOL     OW 6865   1.518   3.230   8.020 -0.7601 -0.1619  0.5372
 1240SOL    HW1 6866   1.440   3.184   7.990 -0.3598 -0.6503  0.2366
 1240SOL    HW2 6867   1.492   3.322   8.019 -1.5713 -0.3659  1.1589
 1241SOL     OW 6868   7.294   3.626   1.598  0.6798 -0.0623 -0.0517
 1241SOL    HW1 6869   7.234   3.561   1.562  0.0409  1.0410 -1.0432
 1241SOL    HW2 6870   7.333   3.583   1.674 -2.0504 -0.4997  1.2078
 1242SOL     OW 6871   0.149   7.891   3.827 -0.1417  0.1351 -0.0422
 1242SOL    HW1 6872   0.069   7.850   3.794 -0.4002  0.0393  0.6925
 1242SOL    HW2 6873   0.220   7.849   3.778 -0.2804 -2.1801  1.5975
 1243SOL     OW 6874   3.048   0.821   3.183  0.4763 -0.2708  0.2798
 1243SOL    HW1 6875   3.078   0.770   3.258 -2.1727 -2.3040  0.0704
 1243SOL    HW2 6876   2.979   0.877   3.218  0.2903 -0.1018 -0.3494
 1244SOL     OW 6877   0.051   3.628   4.058 -0.4167  0.4388  0.2200
 1244SOL    HW1 6878  -0.016   3.695   4.045 -0.1859  0.4292 -1.1774
 1244SOL    HW2 6879   0.128   3.663   4.015  0.2384  0.0612  1.0594
 1245SOL     OW 6880   3.251   0.535   1.524  0.2244  0.4891 -0.2374
 1245SOL    HW1 6881   3.195   0.459   1.534  0.1349  0.6202  0.2921
 1245SOL    HW2 6882   3.265   0.542   1.430 -0.6389  0.4506 -0.3765
 1246SOL     OW 6883   4.605   1.434   1.152 -0.3976 -0.1389  0.4397
 1246SOL    HW1 6884   4.584   1.363   1.092  1.6794 -0.1870 -0.3166
 1246SOL    HW2 6885   4.657   1.392   1.221  0.7153  0.5904  0.0641
 1247SOL     OW 6886   4.406   6.448   4.096  0.3627  0.4064 -0.0163
 1247SOL    HW1 6887   4.466   6.382   4.062 -0.9139  0.0243 -1.6835
 1247SOL    HW2 6888   4.441   6.531   4.065  0.0124  0.1753 -1.0803
 1248SOL     OW 6889   3.580   2.102   7.271 -0.5929 -0.4046  0.3703
 1248SOL    HW1 6890   3.583   2.107   7.367 -0.6978 -0.2750  0.3676
 1248SOL    HW2 6891   3.502   2.153   7.247 -0.0162  0.4043  0.1556
 1249SOL     OW 6892   5.732   5.563   4.879 -0.5870 -0.1436 -0.0744
 1249SOL    HW1 6893   5.637   5.559   4.882 -0.5592 -0.2576  1.3687
 1249SOL    HW2 6894   5.759   5.575   4.970  0.8723 -2.1254 -0.1736
 1250SOL     OW 6895   2.240   0.588   0.463  0.0873  0.0543 -0.4244
 1250SOL    HW1 6896   2.322   0.567   0.508  0.7375 -0.7819 -1.9252
 1250SOL    HW2 6897   2.256   0.674   0.424 -0.4322  0.7219  0.7675
 1251SOL     OW 6898   0.320   7.553   7.948 -0.1357 -0.2128  0.5578
 1251SOL    HW1 6899   0.308   7.549   8.043 -0.7708  1.3672  0.5708
 1251SOL    HW2 6900   0.373   7.631   7.933  0.1629 -0.5748 -0.3766
 1252SOL     OW 6901   4.156   5.568   5.238 -0.5153  0.3033 -0.1004
 1252SOL    HW1 6902   4.093   5.639   5.239 -0.2865  0.5056  0.6612
 1252SOL    HW2 6903   4.217   5.589   5.308 -0.9923 -1.1341  0.7853
 1253SOL     OW 6904   0.649   0.437   3.720 -0.0554 -0.2737 -0.2014
 1253SOL    HW1 6905   0.669   0.530   3.708  1.7546 -0.7400 -1.1230
 1253SOL    HW2 6906   0.709   0.408   3.788 -0.9333 -0.6960  0.4164
 1254SOL     OW 6907   7.971   0.633   6.978 -0.0982 -0.1059  0.6045
 1254SOL    HW1 6908   7.940   0.655   7.066  2.4940  0.8082  1.3825
 1254SOL    HW2 6909   7.992   0.718   6.939 -1.8560 -0.4453 -1.2230
 1255SOL     OW 6910   1.918   2.558   1.252  0.0861 -0.0615 -0.2296
 1255SOL    HW1 6911   1.837   2.597   1.220  1.2235  2.3345 -0.4280
 1255SOL    HW2 6912   1.896   2.526   1.339 -0.9718  1.0054 -0.0744
 1256SOL     OW 6913   7.141   0.121   1.647  0.4318 -0.3105 -0.0691
 1256SOL    HW1 6914   7.074   0.055   1.666  1.2070 -1.0558  0.1028
 1256SOL    HW2 6915   7.100   0.177   1.580 -0.5296 -0.4795  0.3556
 1257SOL     OW 6916   5.648   6.071   2.277  0.1849  0.1423  0.3720
 1257SOL    HW1 6917   5.698   6.090   2.197 -0.9688 -1.9239 -0.9569
 1257SOL    HW2 6918   5.670   5.980   2.297  1.0357  0.8481  2.9187
 1258SOL     OW 6919   1.229   7.967   6.710  0.1278 -0.2049 -0.0461
 1258SOL    HW1 6920   1.263   7.933   6.628  0.6190  0.3835 -0.1016
 1258SOL    HW2 6921   1.169   8.037   6.684  0.3575  0.0478  0.0886
 1259SOL     OW 6922   2.255   4.508   1.211  0.0085 -0.5082 -0.1871
 1259SOL    HW1 6923   2.324   4.524   1.275 -0.5840  0.9657  0.1091
 1259SOL    HW2 6924   2.176   4.491   1.263 -0.2416 -0.3761 -0.5151
 1260SOL     OW 6925   7.813   7.066   3.617 -0.0177  0.2143 -0.2846
 1260SOL    HW1 6926   7.805   7.151   3.573  1.8338  1.3288  1.3861
 1260SOL    HW2 6927   7.769   7.078   3.701  1.5518  0.0352  0.5858
 1261SOL     OW 6928   7.402   1.154   6.626  0.8470 -0.5864 -0.3351
 1261SOL    HW1 6929   7.332   1.220   6.619 -0.8736 -2.2887 -0.1805
 1261SOL    HW2 6930   7.463   1.176   6.556  1.1277  2.0018  0.6253
 1262SOL     OW 6931   1.871   4.877   3.873  0.1832  0.1902 -0.0782
 1262SOL    HW1 6932   1.869   4.848   3.782 -1.9141  0.4746 -0.1670
 1262SOL    HW2 6933   1.932   4.816   3.916  0.3288 -0.6557 -1.4217
 1263SOL     OW 6934   3.921   6.430   1.798 -0.6243  0.2857  0.3621
 1263SOL    HW1 6935   3.878   6.514   1.784 -2.0685 -0.5642 -0.6142
 1263SOL    HW2 6936   3.879   6.395   1.876 -0.5291  0.1793  0.3652
 1264SOL     OW 6937   4.400   1.045   0.927 -1.0051 -0.1822  0.0285
 1264SOL    HW1 6938   4.358   1.104   0.989  0.5768 -0.5497  1.5343
 1264SOL    HW2 6939   4.377   1.080   0.841 -1.3186  1.7466  0.8432
 1265SOL     OW 6940   6.021   4.947   7.655 -0.4980 -0.9491  0.0465
 1265SOL    HW1 6941   6.011   4.987   7.741 -1.3790 -0.8896 -0.0780
 1265SOL    HW2 6942   6.052   5.018   7.599 -0.9101 -0.7259  0.0930
 1266SOL     OW 6943   7.914   7.539   7.697 -0.0163  0.3879 -0.2164
 1266SOL    HW1 6944   7.975   7.607   7.724 -0.5908  0.9872 -0.3970
 1266SOL    HW2 6945   7.828   7.581   7.702 -0.3749 -0.3144 -0.3648
 1267SOL     OW 6946   3.279   0.901   7.445  0.0261 -0.6497  0.3665
 1267SOL    HW1 6947   3.339   0.936   7.380 -1.1511  1.2802  0.2263
 1267SOL    HW2 6948   3.335   0.867   7.515  1.2857 -1.8239 -1.1477
 1268SOL     OW 6949   7.832   0.647   1.134 -0.1805  0.1602  0.5234
 1268SOL    HW1 6950   7.736   0.653   1.135 -0.1401  0.8283  1.6699
 1268SOL    HW2 6951   7.861   0.732   1.101  0.0038 -0.7062 -1.6923
 1269SOL     OW 6952   1.967   7.259   4.254  0.0195 -1.0406 -0.3994
 1269SOL    HW1 6953   1.940   7.174   4.290  1.1591 -1.8241 -1.2973
 1269SOL    HW2 6954   1.888   7.294   4.214 -0.5698 -1.4854  0.3442
 1270SOL     OW 6955   1.167   4.153   0.875 -0.1815  0.1561 -0.6637
 1270SOL    HW1 6956   1.112   4.212   0.823  1.0633 -0.5154 -2.8586
 1270SOL    HW2 6957   1.252   4.197   0.880 -0.4192  0.4777  1.3887
 1271SOL     OW 6958   4.443   4.722   1.023 -0.3178 -0.4182 -0.2433
 1271SOL    HW1 6959   4.371   4.782   1.001  0.3968  0.3742 -0.4798
 1271SOL    HW2 6960   4.412   4.675   1.101 -0.1621  1.6424  1.1503
 1272SOL     OW 6961   7.805   4.996   0.343 -0.3115  0.2559 -0.1305
 1272SOL    HW1 6962   7.828   4.937   0.415 -0.7212  0.3656  0.0990
 1272SOL    HW2 6963   7.872   5.064   0.344 -0.5326  0.4769  0.4126
 1273SOL     OW 6964   1.502   3.939   7.139  0.9778  0.5297 -0.2835
 1273SOL    HW1 6965   1.441   3.956   7.211  0.8776  0.3568 -0.3252
 1273SOL    HW2 6966   1.533   3.849   7.155  1.8038  0.8843  0.1569
 1274SOL     OW 6967   6.221   3.838   4.759 -0.1522  0.5588 -0.6641
 1274SOL    HW1 6968   6.186   3.846   4.670 -4.5948 -3.4575  0.3359
 1274SOL    HW2 6969   6.269   3.755   4.758 -0.4151  0.3722  0.7026
 1275SOL     OW 6970   5.640   4.256   7.857  0.7888  0.5246 -0.4432
 1275SOL    HW1 6971   5.675   4.287   7.941 -2.0652  0.0979  1.0732
 1275SOL    HW2 6972   5.661   4.163   7.855  1.9960  0.7945 -0.8657
 1276SOL     OW 6973   5.058   1.828   4.536  0.4195  0.1681 -0.8189
 1276SOL    HW1 6974   5.023   1.753   4.584  0.6004  0.0336 -0.8967
 1276SOL    HW2 6975   4.989   1.894   4.540 -0.3908 -0.5566 -2.0643
 1277SOL     OW 6976   4.489   2.037   3.960  0.2837  0.5846 -0.2267
 1277SOL    HW1 6977   4.564   2.044   3.901 -0.6872  0.4029 -1.5358
 1277SOL    HW2 6978   4.519   1.981   4.032  1.7210  1.4061 -0.1694
 1278SOL     OW 6979   5.480   5.771   6.018  0.1441 -0.8062 -0.4892
 1278SOL    HW1 6980   5.461   5.678   6.032  2.3064 -1.2461 -0.1334
 1278SOL    HW2 6981   5.558   5.787   6.071  0.2483  1.0380 -1.1492
 1279SOL     OW 6982   2.080   7.288   1.402 -0.1015  0.3023 -0.3257
 1279SOL    HW1 6983   2.152   7.332   1.447 -0.1913 -0.6535  0.7703
 1279SOL    HW2 6984   2.006   7.349   1.411 -0.4063 -0.3213  1.7623
 1280SOL     OW 6985   4.379   6.753   4.345  0.4942  0.3112  0.5125
 1280SOL    HW1 6986   4.438   6.786   4.278  0.3423 -0.1497  0.1489
 1280SOL    HW2 6987   4.321   6.693   4.299  0.9630 -0.7011  1.2156
 1281SOL     OW 6988   2.490   1.179   3.540 -0.2398  0.3212 -0.4071
 1281SOL    HW1 6989   2.582   1.181   3.565 -0.0181  0.5089 -1.1903
 1281SOL    HW2 6990   2.442   1.176   3.623  0.4567  0.8013  0.0276
 1282SOL     OW 6991   0.841   1.700   4.772  0.1122  0.0985 -0.3328
 1282SOL    HW1 6992   0.922   1.726   4.729  0.1330 -0.0696 -0.3938
 1282SOL    HW2 6993   0.772   1.745   4.724 -0.0229 -1.4463 -1.6406
 1283SOL     OW 6994   1.084   6.112   4.585 -0.1680 -0.5604 -0.3519
 1283SOL    HW1 6995   1.051   6.090   4.498 -0.6994 -0.0610 -0.2819
 1283SOL    HW2 6996   1.167   6.157   4.569 -0.4564 -0.1217 -0.6160
 1284SOL     OW 6997   4.889   0.377   6.636 -0.5652  0.0147  0.3184
 1284SOL    HW1 6998   4.910   0.378   6.729 -1.5915  0.1078  0.5593
 1284SOL    HW2 6999   4.836   0.455   6.621  1.9274  1.5881 -0.9507
 1285SOL     OW 7000   0.058   8.013   1.356  0.3188  0.1225 -0.2737
 1285SOL    HW1 7001   0.029   8.089   1.407  0.4980 -0.0023  0.0200
 1285SOL    HW2 7002   0.143   7.991   1.394  0.2963 -0.1849 -0.4039
 1286SOL     OW 7003   5.358   1.531   2.696  0.0517 -0.6186  0.1512
 1286SOL    HW1 7004   5.290   1.530   2.763 -0.6417  1.3409 -0.4586
 1286SOL    HW2 7005   5.316   1.569   2.619  1.4123 -0.8140 -0.7311
 1287SOL     OW 7006   3.736   0.246   1.281 -0.1780  0.0108 -0.2020
 1287SOL    HW1 7007   3.725   0.259   1.186 -0.4375 -1.0249 -0.3200
 1287SOL    HW2 7008   3.781   0.162   1.289  1.6906  1.0360  0.5388
 1288SOL     OW 7009   5.143   6.627   2.968 -0.3321  0.0341 -0.3992
 1288SOL    HW1 7010   5.108   6.652   3.053 -1.8951  1.8375 -1.4776
 1288SOL    HW2 7011   5.177   6.708   2.931  2.0655 -1.0596 -0.7861
 1289SOL     OW 7012   5.677   0.097   3.304 -0.1727 -0.8759  0.0958
 1289SOL    HW1 7013   5.654   0.072   3.214 -0.1378  1.1765 -0.5191
 1289SOL    HW2 7014   5.772   0.108   3.301 -0.0080 -1.9594  0.7223
 1290SOL     OW 7015   3.791   0.270   0.506  0.1094 -0.1455  0.0528
 1290SOL    HW1 7016   3.806   0.322   0.427 -0.2405  0.1639  0.1851
 1290SOL    HW2 7017   3.864   0.209   0.509 -1.5521 -2.4354 -2.3091
 1291SOL     OW 7018   5.064   3.486   5.216  0.1885 -0.2083  0.0193
 1291SOL    HW1 7019   4.988   3.462   5.269  1.1951 -0.9655  1.1988
 1291SOL    HW2 7020   5.053   3.437   5.135 -0.2995 -0.7613  0.4113
 1292SOL     OW 7021   2.015   7.886   2.970  0.3932  0.5788  0.2831
 1292SOL    HW1 7022   2.104   7.921   2.976  0.9086 -0.2151 -1.9826
 1292SOL    HW2 7023   2.001   7.843   3.054  1.6528  1.7758  1.1573
 1293SOL     OW 7024   1.114   5.790   1.618  0.4396  0.1321 -0.1560
 1293SOL    HW1 7025   1.187   5.832   1.573  0.0831 -0.3138 -1.1897
 1293SOL    HW2 7026   1.154   5.718   1.667  0.7698  0.2559 -0.2409
 1294SOL     OW 7027   4.360   2.059   2.968  0.6078  0.2141  0.1832
 1294SOL    HW1 7028   4.290   2.012   3.014  0.6311 -0.4737 -0.4650
 1294SOL    HW2 7029   4.435   2.056   3.028  0.7783 -1.0784 -0.0746
 1295SOL     OW 7030   0.232   1.288   5.253  1.0198  0.3579 -0.1520
 1295SOL    HW1 7031   0.309   1.237   5.226  1.2106  0.5441  0.0393
 1295SOL    HW2 7032   0.189   1.233   5.319  1.3208  0.5190  0.1821
 1296SOL     OW 7033   1.090   2.573   4.660 -1.0617 -0.7692 -0.3361
 1296SOL    HW1 7034   1.135   2.511   4.718 -1.9184 -2.9725 -1.9054
 1296SOL    HW2 7035   1.160   2.629   4.627 -0.2095 -1.0297  0.9600
 1297SOL     OW 7036   6.582   1.476   4.076  0.1071  0.4092  0.8169
 1297SOL    HW1 7037   6.499   1.523   4.077  0.1482  0.5400 -0.1993
 1297SOL    HW2 7038   6.560   1.389   4.109 -0.5921  0.2302 -0.0614
 1298SOL     OW 7039   0.419   1.670   4.524 -0.0061 -0.0052 -0.1599
 1298SOL    HW1 7040   0.343   1.702   4.475  0.3445  0.5858 -0.3338
 1298SOL    HW2 7041   0.489   1.732   4.503  0.1339  0.3025  1.1403
 1299SOL     OW 7042   7.990   1.902   0.360 -0.0078  0.0448 -0.5430
 1299SOL    HW1 7043   7.930   1.975   0.374 -0.5845 -0.1955 -1.6230
 1299SOL    HW2 7044   8.023   1.915   0.271  2.1821  0.6119  0.3022
 1300SOL     OW 7045   7.257   5.168   6.571  0.3074  0.5607 -0.1980
 1300SOL    HW1 7046   7.188   5.231   6.546  0.1243  0.9097  1.1450
 1300SOL    HW2 7047   7.339   5.217   6.561  0.1487  1.1265  1.0964
 1301SOL     OW 7048   0.047   1.667   0.798  0.5517  0.0674  0.1658
 1301SOL    HW1 7049   0.140   1.668   0.780  0.3994  0.0346 -0.6305
 1301SOL    HW2 7050   0.005   1.677   0.713 -0.1682  0.4960  0.5531
 1302SOL     OW 7051   3.385   3.184   2.099 -0.3574  0.0928 -0.5103
 1302SOL    HW1 7052   3.394   3.189   2.194  1.8305  0.7621 -0.7104
 1302SOL    HW2 7053   3.292   3.165   2.086 -0.7356  0.0243  1.7419
 1303SOL     OW 7054   3.415   6.956   0.158 -0.4667  0.1664 -0.2252
 1303SOL    HW1 7055   3.356   6.987   0.227 -2.0057 -1.3594 -0.7832
 1303SOL    HW2 7056   3.364   6.966   0.078 -1.2635 -3.9519 -0.4287
 1304SOL     OW 7057   7.982   6.854   6.743  0.0057 -0.0315  0.0531
 1304SOL    HW1 7058   7.995   6.763   6.770  1.3911  0.0994 -0.0746
 1304SOL    HW2 7059   7.975   6.850   6.648  0.5376  0.0324  0.0081
 1305SOL     OW 7060   6.354   3.527   3.773 -0.9036 -0.5406  0.0258
 1305SOL    HW1 7061   6.407   3.595   3.816  0.9623 -0.7036 -1.8345
 1305SOL    HW2 7062   6.412   3.451   3.770 -1.1117 -0.6631 -2.3156
 1306SOL     OW 7063   4.104   6.091   0.340 -0.1398  0.0204  0.1511
 1306SOL    HW1 7064   4.185   6.086   0.289  0.1767  1.0367  0.5184
 1306SOL    HW2 7065   4.069   6.178   0.322 -2.2773 -1.1063 -1.5943
 1307SOL     OW 7066   4.921   4.422   6.992 -0.5531 -0.6388 -0.0531
 1307SOL    HW1 7067   4.873   4.466   7.061 -0.1219 -0.6653  0.2682
 1307SOL    HW2 7068   4.854   4.393   6.930 -1.0820 -1.9587  1.1043
 1308SOL     OW 7069   5.405   1.316   7.183  0.7335  0.0460 -0.3112
 1308SOL    HW1 7070   5.358   1.357   7.256  0.3718  0.5829 -0.8320
 1308SOL    HW2 7071   5.497   1.336   7.199  0.7683 -0.8067  0.5925
 1309SOL     OW 7072   2.989   3.394   1.200  0.5532 -0.3486 -0.5538
 1309SOL    HW1 7073   2.929   3.319   1.200 -0.0558  0.0798  1.2076
 1309SOL    HW2 7074   2.970   3.440   1.118 -2.0973  0.1514  0.2349
 1310SOL     OW 7075   5.076   3.368   4.266 -0.7688  0.2095 -0.6336
 1310SOL    HW1 7076   5.009   3.407   4.322 -1.7598 -0.7407 -1.1214
 1310SOL    HW2 7077   5.129   3.315   4.325 -0.0211  1.4718 -0.1367
 1311SOL     OW 7078   6.484   6.676   7.754  0.1368 -0.5075  0.5149
 1311SOL    HW1 7079   6.407   6.626   7.782  0.0584 -0.8582 -0.3063
 1311SOL    HW2 7080   6.558   6.617   7.767  0.2443 -0.2576  1.0704
 1312SOL     OW 7081   2.381   2.335   7.078  0.1273 -0.5464 -0.5638
 1312SOL    HW1 7082   2.361   2.376   6.994 -0.5603  2.6519  1.0242
 1312SOL    HW2 7083   2.301   2.345   7.129  2.0885  2.8137  2.3047
 1313SOL     OW 7084   3.500   2.673   7.951  0.8075  0.0353  0.2290
 1313SOL    HW1 7085   3.480   2.592   7.904  1.1808 -1.1259  1.9739
 1313SOL    HW2 7086   3.588   2.697   7.920 -0.0824  0.9187 -1.7608
 1314SOL     OW 7087   5.631   3.899   4.480 -0.2100 -0.0674  0.3982
 1314SOL    HW1 7088   5.702   3.845   4.515 -0.4681 -0.2487  0.6448
 1314SOL    HW2 7089   5.640   3.893   4.385 -0.5354 -0.9377  0.4191
 1315SOL     OW 7090   2.947   3.925   4.787 -0.2335  0.7455 -0.2484
 1315SOL    HW1 7091   2.911   3.853   4.736  0.2889  0.4733 -0.2442
 1315SOL    HW2 7092   3.040   3.928   4.762 -0.5989  2.5389 -1.5713
 1316SOL     OW 7093   7.525   4.973   1.370 -0.4214  0.5264  0.2160
 1316SOL    HW1 7094   7.463   4.989   1.441 -1.4438 -0.8538 -0.3027
 1316SOL    HW2 7095   7.501   4.886   1.337  1.3928  0.2267 -0.4400
 1317SOL     OW 7096   5.984   5.477   4.455  0.1918 -0.0834 -0.0066
 1317SOL    HW1 7097   5.945   5.443   4.374 -0.0882 -2.6228  1.0901
 1317SOL    HW2 7098   6.064   5.426   4.466  1.4870  1.8630  0.1736
 1318SOL     OW 7099   2.239   3.087   7.163  0.6255 -0.4349 -0.0726
 1318SOL    HW1 7100   2.299   3.014   7.151  0.5365 -0.3543 -1.1127
 1318SOL    HW2 7101   2.296   3.160   7.189  0.8293 -0.6522  0.0964
 1319SOL     OW 7102   5.734   0.836   1.518 -0.0195  0.1426  0.3142
 1319SOL    HW1 7103   5.659   0.823   1.576 -0.0508  0.6729  0.4058
 1319SOL    HW2 7104   5.771   0.920   1.547  1.2487 -0.6210  0.9792
 1320SOL     OW 7105   6.283   2.091   1.130  0.0332  0.2305  0.4480
 1320SOL    HW1 7106   6.348   2.158   1.151  0.1595 -0.2065  1.4890
 1320SOL    HW2 7107   6.334   2.021   1.089  0.2909 -0.2721  1.6048
 1321SOL     OW 7108   2.194   2.886   3.574  0.6527  0.3359  0.2310
 1321SOL    HW1 7109   2.115   2.832   3.569  0.1412  1.1349 -0.7856
 1321SOL    HW2 7110   2.229   2.870   3.662  0.9609 -2.2200 -0.2783
 1322SOL     OW 7111   2.423   3.430   4.806  0.0982 -0.0703  0.2462
 1322SOL    HW1 7112   2.442   3.418   4.899 -0.1465  0.9333  0.4360
 1322SOL    HW2 7113   2.346   3.486   4.804  0.8478  0.9684 -0.5587
 1323SOL     OW 7114   7.170   2.709   0.490  0.2388 -0.2004  0.1869
 1323SOL    HW1 7115   7.116   2.751   0.423  3.1719  1.6971 -1.2083
 1323SOL    HW2 7116   7.108   2.677   0.555 -2.4973  2.1668 -1.0645
 1324SOL     OW 7117   3.670   2.784   3.639  0.2864  1.1137 -0.2475
 1324SOL    HW1 7118   3.660   2.722   3.567 -1.9664  1.7431 -0.5315
 1324SOL    HW2 7119   3.621   2.745   3.711  0.1711  1.8276  0.0646
 1325SOL     OW 7120   1.022   5.710   1.335  0.4367  0.1231  0.0513
 1325SOL    HW1 7121   1.020   5.754   1.420 -0.5077  1.0154 -0.3977
 1325SOL    HW2 7122   1.104   5.661   1.334  0.4001 -0.0044  1.5221
 1326SOL     OW 7123   0.652   3.615   2.445 -0.0624  0.1545 -0.3341
 1326SOL    HW1 7124   0.732   3.661   2.468  0.0947  0.2095 -0.9869
 1326SOL    HW2 7125   0.670   3.575   2.360 -0.2611 -0.9548  0.1144
 1327SOL     OW 7126   4.710   5.477   0.977 -0.2770 -0.1706  0.1142
 1327SOL    HW1 7127   4.628   5.473   1.027 -0.9645  0.7969 -0.8826
 1327SOL    HW2 7128   4.700   5.409   0.911 -0.0460 -0.3869  0.2987
 1328SOL     OW 7129   4.073   8.062   1.540  0.3301 -0.0104 -0.2773
 1328SOL    HW1 7130   4.131   8.108   1.601  0.7142  1.7729 -1.8767
 1328SOL    HW2 7131   3.994   8.116   1.538  0.2786 -0.1055 -1.2174
 1329SOL     OW 7132   1.911   3.327   0.899 -0.4215  0.4652  0.2125
 1329SOL    HW1 7133   1.856   3.398   0.868 -0.0645  0.5180 -0.3194
 1329SOL    HW2 7134   1.921   3.269   0.823 -0.4882 -0.0091  0.5619
 1330SOL     OW 7135   1.777   6.269   2.847 -0.3845  0.5192  0.1135
 1330SOL    HW1 7136   1.829   6.348   2.864  1.0966 -0.7702  1.9243
 1330SOL    HW2 7137   1.690   6.289   2.883 -0.0443  1.3285  0.5011
 1331SOL     OW 7138   3.193   2.241   1.561  0.3112 -0.3576 -0.7443
 1331SOL    HW1 7139   3.170   2.180   1.631  1.4444 -0.8506 -0.7896
 1331SOL    HW2 7140   3.109   2.282   1.537  0.1480  1.6955  2.5942
 1332SOL     OW 7141   3.712   2.620   3.404  0.5421  0.7604  0.0186
 1332SOL    HW1 7142   3.685   2.528   3.408 -1.3606  1.2421 -0.7347
 1332SOL    HW2 7143   3.741   2.633   3.314  0.1621  1.0620 -0.0622
 1333SOL     OW 7144   7.413   2.655   5.850  0.5059  0.1602 -0.0387
 1333SOL    HW1 7145   7.324   2.637   5.821  0.8773 -0.4285 -0.8303
 1333SOL    HW2 7146   7.402   2.704   5.932 -0.5472 -1.5685  0.9100
 1334SOL     OW 7147   1.719   5.943   6.593  0.9778  0.7948  0.0529
 1334SOL    HW1 7148   1.686   5.859   6.562 -0.6677  1.0034  1.0823
 1334SOL    HW2 7149   1.739   5.992   6.513 -0.8799  0.4785 -0.6533
 1335SOL     OW 7150   5.566   0.237   2.627  0.0985  0.2555 -0.1681
 1335SOL    HW1 7151   5.511   0.270   2.556  0.4568 -0.5902 -0.8549
 1335SOL    HW2 7152   5.623   0.311   2.649  1.1415  0.0504 -1.9382
 1336SOL     OW 7153   0.867   2.880   0.266  0.0727  0.3018  0.2905
 1336SOL    HW1 7154   0.817   2.895   0.346 -1.8698 -0.2806 -0.7442
 1336SOL    HW2 7155   0.857   2.787   0.248  0.5557  0.4039 -0.5710
 1337SOL     OW 7156   1.164   5.482   1.818 -0.5095  0.2439  0.4746
 1337SOL    HW1 7157   1.123   5.477   1.905  0.7143  1.0104  1.1176
 1337SOL    HW2 7158   1.257   5.468   1.835 -0.1130  1.4654 -0.5791
 1338SOL     OW 7159   0.273   4.948   7.003  0.1233 -0.3669 -0.2219
 1338SOL    HW1 7160   0.282   5.028   6.951 -1.4282 -0.2098 -0.2898
 1338SOL    HW2 7161   0.319   4.882   6.951  4.3544  0.9706  1.3332
 1339SOL     OW 7162   2.862   3.853   5.076 -0.5687  0.2489 -0.3258
 1339SOL    HW1 7163   2.855   3.862   4.982  0.2286 -1.5502 -0.6115
 1339SOL    HW2 7164   2.795   3.911   5.112 -1.3643  0.4181 -2.0168
 1340SOL     OW 7165   3.803   3.148   1.405 -0.0604  0.0152  0.3861
 1340SOL    HW1 7166   3.891   3.181   1.422  0.5477 -0.4513 -1.6249
 1340SOL    HW2 7167   3.746   3.225   1.411  0.9127  0.8972 -1.2166
 1341SOL     OW 7168   2.147   5.521   1.006  0.1067 -0.0538  0.0759
 1341SOL    HW1 7169   2.117   5.561   0.925 -0.1670  0.2794  0.3419
 1341SOL    HW2 7170   2.095   5.441   1.014 -0.2714  0.2059  0.2164
 1342SOL     OW 7171   1.954   3.398   0.212 -0.3501  0.4226  0.1866
 1342SOL    HW1 7172   1.913   3.483   0.201 -3.0274 -0.7554  0.1419
 1342SOL    HW2 7173   2.001   3.383   0.130 -1.8333  0.9125 -0.8059
 1343SOL     OW 7174   1.641   0.388   2.924  0.3149 -0.8423 -0.1795
 1343SOL    HW1 7175   1.683   0.474   2.921 -0.6435 -0.3343  0.5248
 1343SOL    HW2 7176   1.549   0.405   2.905  0.0309 -1.6550  0.4237
 1344SOL     OW 7177   5.571   6.991   4.786  0.1604  0.6310  0.1881
 1344SOL    HW1 7178   5.603   7.076   4.756 -1.9853  2.1766  1.9502
 1344SOL    HW2 7179   5.511   6.963   4.718  0.0885  1.0298  0.0838
 1345SOL     OW 7180   7.852   6.287   3.533 -0.1858  0.3289  0.1319
 1345SOL    HW1 7181   7.775   6.331   3.496  0.3464 -0.2341 -1.7134
 1345SOL    HW2 7182   7.908   6.358   3.563 -1.1633  0.7604  1.0321
 1346SOL     OW 7183   5.885   5.578   3.344 -0.4552  0.1612 -0.2845
 1346SOL    HW1 7184   5.898   5.521   3.420 -0.0442 -0.8861 -1.1158
 1346SOL    HW2 7185   5.964   5.632   3.342 -0.8936  0.8541  0.5695
 1347SOL     OW 7186   4.233   4.462   1.891 -0.6567 -0.5338 -0.4215
 1347SOL    HW1 7187   4.243   4.389   1.951  0.5326  0.4773  0.6765
 1347SOL    HW2 7188   4.165   4.516   1.930 -0.4751 -0.3036 -0.4182
 1348SOL     OW 7189   0.972   2.773   3.816  0.0233  0.0667  0.0366
 1348SOL    HW1 7190   0.917   2.716   3.870  0.3209  0.6948  1.0209
 1348SOL    HW2 7191   0.912   2.839   3.781 -0.1260 -0.1927 -0.2015
 1349SOL     OW 7192   3.788   4.956   0.424 -0.3770 -0.0163 -0.3109
 1349SOL    HW1 7193   3.787   4.920   0.335 -0.5198 -1.8078  0.3717
 1349SOL    HW2 7194   3.848   4.899   0.472  0.5414  1.5690  0.5251
 1350SOL     OW 7195   2.488   0.491   1.177  0.0631 -0.0304  0.0820
 1350SOL    HW1 7196   2.565   0.463   1.128 -0.3457 -2.4045  0.6414
 1350SOL    HW2 7197   2.434   0.412   1.184 -1.4690  1.0561  1.4355
 1351SOL     OW 7198   3.438   3.393   6.081 -0.1336  0.3921  0.3311
 1351SOL    HW1 7199   3.413   3.457   6.014  0.5711  0.5604  0.2111
 1351SOL    HW2 7200   3.495   3.331   6.034  3.3360  2.4737  1.4257
 1352SOL     OW 7201   4.905   6.166   0.128 -0.0925 -0.0282 -0.4461
 1352SOL    HW1 7202   4.999   6.183   0.121  0.2250 -1.5107  0.0468
 1352SOL    HW2 7203   4.883   6.188   0.219 -0.2420  0.3455 -0.5686
 1353SOL     OW 7204   4.173   0.306   0.842 -0.8341  0.4027 -0.4625
 1353SOL    HW1 7205   4.091   0.256   0.847  0.0513 -0.9958  1.3492
 1353SOL    HW2 7206   4.177   0.355   0.924  1.1438 -1.3172  0.5749
 1354SOL     OW 7207   4.548   3.964   2.697 -0.0047  0.4606  0.0700
 1354SOL    HW1 7208   4.557   3.916   2.615  0.9139  0.3524  0.2213
 1354SOL    HW2 7209   4.455   3.958   2.718 -0.2604  0.5409 -0.9877
 1355SOL     OW 7210   7.551   6.342   7.006 -0.2644 -0.0144  0.3357
 1355SOL    HW1 7211   7.534   6.341   7.100  0.4836  0.1395  0.4759
 1355SOL    HW2 7212   7.500   6.417   6.974  0.3294  0.5921  0.7865
 1356SOL     OW 7213   4.710   5.808   0.813  0.1541  0.3290 -0.3748
 1356SOL    HW1 7214   4.680   5.744   0.877  3.1138 -1.3309 -0.4525
 1356SOL    HW2 7215   4.655   5.793   0.736 -0.2521 -1.0347  0.1548
 1357SOL     OW 7216   1.053   1.099   1.775  0.4704 -0.0558 -0.5394
 1357SOL    HW1 7217   0.982   1.075   1.716  0.9202  1.7820 -1.9308
 1357SOL    HW2 7218   1.133   1.074   1.729  0.7984 -0.8431  0.4078
 1358SOL     OW 7219   5.063   0.136   5.510  0.3101 -0.0021  0.6810
 1358SOL    HW1 7220   4.969   0.125   5.526  0.5308 -1.2012  1.3439
 1358SOL    HW2 7221   5.075   0.229   5.494 -1.1209  0.0349 -0.3243
 1359SOL     OW 7222   7.395   0.650   2.985  0.5569  0.4247 -0.0912
 1359SOL    HW1 7223   7.382   0.590   3.059  0.3267 -0.2765 -0.6960
 1359SOL    HW2 7224   7.489   0.648   2.969  0.5931  0.4883  0.1055
 1360SOL     OW 7225   4.784   7.145   0.156 -0.4278 -0.0008 -0.0330
 1360SOL    HW1 7226   4.692   7.154   0.131 -0.1716 -0.3658 -1.1634
 1360SOL    HW2 7227   4.827   7.111   0.078  0.9033  1.3432  0.0763
 1361SOL     OW 7228   1.368   3.181   1.333 -0.0179 -0.2484  0.0855
 1361SOL    HW1 7229   1.411   3.211   1.253 -1.2449  0.8137 -0.2077
 1361SOL    HW2 7230   1.334   3.095   1.311 -0.3426  0.0313 -0.5422
 1362SOL     OW 7231   1.706   6.997   0.238  0.0702 -0.1469  0.3310
 1362SOL    HW1 7232   1.651   7.062   0.193  1.0304  0.9575  0.6882
 1362SOL    HW2 7233   1.674   6.913   0.207 -1.2256  0.4911 -0.1521
 1363SOL     OW 7234   4.589   5.793   6.535 -0.5866 -0.1857 -0.1299
 1363SOL    HW1 7235   4.524   5.725   6.552  1.1889 -2.2116 -0.9511
 1363SOL    HW2 7236   4.541   5.875   6.543 -2.8872 -1.5228  0.6870
 1364SOL     OW 7237   5.575   5.233   4.980  0.9130  0.4165 -0.3440
 1364SOL    HW1 7238   5.538   5.321   4.990 -2.2378 -0.7812 -0.4621
 1364SOL    HW2 7239   5.598   5.227   4.887  1.5239  1.1921 -0.2619
 1365SOL     OW 7240   1.910   6.482   7.034  0.2279 -0.0677  0.5996
 1365SOL    HW1 7241   1.817   6.485   7.057  0.0714  0.0520 -0.0354
 1365SOL    HW2 7242   1.936   6.392   7.055 -0.4349 -0.5956 -0.6961
 1366SOL     OW 7243   2.442   2.499   6.019 -0.0514 -0.3887  0.6343
 1366SOL    HW1 7244   2.414   2.446   5.944  0.6107 -0.2054  0.2489
 1366SOL    HW2 7245   2.525   2.537   5.992  0.4330 -0.6859  1.6367
 1367SOL     OW 7246   6.169   0.986   6.625 -0.4285 -0.0574 -0.4240
 1367SOL    HW1 7247   6.110   0.979   6.550 -0.3608 -0.2971 -0.4565
 1367SOL    HW2 7248   6.218   0.904   6.625 -1.1611 -0.5104  0.4941
 1368SOL     OW 7249   4.299   3.237   3.105 -0.2819 -0.1640  0.0914
 1368SOL    HW1 7250   4.363   3.204   3.041 -0.4172 -0.7644  0.2637
 1368SOL    HW2 7251   4.288   3.166   3.167  1.2471  1.0748  1.8805
 1369SOL     OW 7252   7.495   0.967   3.182 -0.0037  0.2564  0.0947
 1369SOL    HW1 7253   7.505   0.931   3.270 -1.8607 -0.1995  0.1628
 1369SOL    HW2 7254   7.576   0.943   3.137 -0.6103 -3.0663  0.4984
 1370SOL     OW 7255   3.605   1.244   7.993 -0.4423 -0.5099  0.2708
 1370SOL    HW1 7256   3.621   1.266   8.084 -0.1951 -0.8253  0.3047
 1370SOL    HW2 7257   3.644   1.316   7.943 -0.1807 -0.5604  0.4011
 1371SOL     OW 7258   7.087   1.194   6.414 -0.0127  0.1499  0.6922
 1371SOL    HW1 7259   7.062   1.220   6.326  0.5772  0.5662  0.6402
 1371SOL    HW2 7260   7.149   1.122   6.400  0.9110  0.9118  0.7108
 1372SOL     OW 7261   1.854   8.000   2.499 -0.1393 -0.0424 -0.3937
 1372SOL    HW1 7262   1.925   8.062   2.482  0.1636 -0.5777 -1.1472
 1372SOL    HW2 7263   1.778   8.056   2.517  0.1203  0.5582 -1.0770
 1373SOL     OW 7264   1.988   1.769   6.044  0.0696  0.1402 -0.3319
 1373SOL    HW1 7265   2.047   1.798   5.974  0.7831  0.3166  0.3294
 1373SOL    HW2 7266   2.025   1.686   6.073 -0.7229 -0.3674 -0.7341
 1374SOL     OW 7267   0.119   2.651   3.428  0.0016  0.6261  0.5220
 1374SOL    HW1 7268   0.209   2.685   3.431 -0.1592  1.0594  0.4446
 1374SOL    HW2 7269   0.070   2.718   3.381  0.0248 -0.4755 -1.1633
 1375SOL     OW 7270   3.395   2.936   1.548  0.5943 -0.1574 -0.4587
 1375SOL    HW1 7271   3.393   3.026   1.580 -1.4020 -1.0281  2.2867
 1375SOL    HW2 7272   3.467   2.934   1.485  0.3610  3.4419 -1.0720
 1376SOL     OW 7273   4.877   4.725   6.737  0.3024 -0.4712  0.0448
 1376SOL    HW1 7274   4.791   4.758   6.764  0.4982  0.1443 -0.0733
 1376SOL    HW2 7275   4.892   4.764   6.650  0.4055 -1.1134 -0.2318
 1377SOL     OW 7276   2.085   6.657   4.581 -0.2961 -0.1604  0.2407
 1377SOL    HW1 7277   2.149   6.691   4.518  1.4735 -2.7885  0.4396
 1377SOL    HW2 7278   2.059   6.733   4.633  1.1443  1.3751 -1.1672
 1378SOL     OW 7279   6.678   3.748   7.370 -0.0759  0.4786  0.2554
 1378SOL    HW1 7280   6.739   3.810   7.329  0.5131  0.1051  0.5487
 1378SOL    HW2 7281   6.646   3.795   7.447  2.1331 -0.3627  1.8045
 1379SOL     OW 7282   3.371   2.606   2.073 -0.0091  0.3626  0.2038
 1379SOL    HW1 7283   3.393   2.547   2.145  1.8173  2.4597  1.4557
 1379SOL    HW2 7284   3.347   2.547   2.001  2.0119 -1.9330  1.2706
 1380SOL     OW 7285   4.110   7.570   0.202  0.6457  0.2798 -0.3090
 1380SOL    HW1 7286   4.160   7.640   0.245 -0.1817  0.0077  1.1680
 1380SOL    HW2 7287   4.162   7.491   0.216 -0.0946  0.0096  1.1641
 1381SOL     OW 7288   1.486   0.437   1.511  0.3603 -0.6273  0.4856
 1381SOL    HW1 7289   1.536   0.368   1.468 -0.8067 -0.1445 -1.7774
 1381SOL    HW2 7290   1.550   0.506   1.528  0.7451 -0.5484 -1.1706
 1382SOL     OW 7291   3.524   0.585   2.221 -0.3617  1.0103 -0.1435
 1382SOL    HW1 7292   3.517   0.599   2.127 -0.6577  0.5126 -0.2003
 1382SOL    HW2 7293   3.597   0.524   2.231 -0.3017  1.0977 -0.0504
 1383SOL     OW 7294   0.833   7.570   7.034  0.1879 -0.4123  0.2755
 1383SOL    HW1 7295   0.818   7.597   6.943  2.2947  1.1356  0.3295
 1383SOL    HW2 7296   0.788   7.636   7.086 -1.2921 -1.4757  0.4167
 1384SOL     OW 7297   0.261   6.342   6.884  0.4891 -0.8432 -0.2567
 1384SOL    HW1 7298   0.191   6.279   6.904  0.4881 -0.6977  0.2149
 1384SOL    HW2 7299   0.341   6.299   6.913  0.3704 -0.1811  1.1327
 1385SOL     OW 7300   3.112   1.731   3.290 -0.4627  0.2924 -0.2250
 1385SOL    HW1 7301   3.080   1.659   3.236  1.0673 -0.6819  0.1287
 1385SOL    HW2 7302   3.044   1.743   3.356 -1.4872  0.2713 -1.2340
 1386SOL     OW 7303   6.468   1.022   6.511 -0.2542 -0.3432 -0.0471
 1386SOL    HW1 7304   6.443   0.930   6.522  0.9125 -0.5304  1.4689
 1386SOL    HW2 7305   6.415   1.069   6.576 -0.1289 -0.0805 -0.1341
 1387SOL     OW 7306   1.742   0.139   5.035 -0.5340  0.2566 -0.0574
 1387SOL    HW1 7307   1.685   0.149   4.958  0.6121  1.6231 -0.7682
 1387SOL    HW2 7308   1.682   0.148   5.110 -1.7921 -1.8376 -0.7238
 1388SOL     OW 7309   0.692   0.933   2.932 -0.0041 -0.2743  0.0398
 1388SOL    HW1 7310   0.630   1.005   2.945 -0.1676 -0.3791 -0.1574
 1388SOL    HW2 7311   0.777   0.977   2.923  0.0188 -0.1548  0.7364
 1389SOL     OW 7312   7.581   7.448   5.921 -0.4233  0.1182  0.2184
 1389SOL    HW1 7313   7.540   7.404   5.995 -1.0065  0.1136 -0.0977
 1389SOL    HW2 7314   7.593   7.379   5.856 -1.4502  0.4283 -0.3250
 1390SOL     OW 7315   5.717   7.934   7.613  0.4469 -0.2257  0.1408
 1390SOL    HW1 7316   5.747   8.021   7.588 -0.6328  0.5366  1.3892
 1390SOL    HW2 7317   5.780   7.903   7.678  0.0582  0.2335  0.7464
 1391SOL     OW 7318   2.413   2.672   2.691 -0.2247  0.3551 -0.1167
 1391SOL    HW1 7319   2.329   2.627   2.687 -0.4388  0.4127  2.0851
 1391SOL    HW2 7320   2.392   2.759   2.724  0.5040  1.0995 -1.5438
 1392SOL     OW 7321   7.506   6.575   7.971 -0.3730  0.0681 -0.3003
 1392SOL    HW1 7322   7.492   6.605   8.061  2.0074 -0.9802  0.4913
 1392SOL    HW2 7323   7.600   6.560   7.965 -0.4028  0.4539 -3.1207
 1393SOL     OW 7324   5.260   4.756   4.467  0.2824 -0.3701  0.1709
 1393SOL    HW1 7325   5.204   4.755   4.544 -1.1174 -0.2436 -0.8203
 1393SOL    HW2 7326   5.213   4.705   4.401  1.2132 -0.0738 -0.7628
 1394SOL     OW 7327   1.702   2.215   1.006  0.3256  0.6529  0.4396
 1394SOL    HW1 7328   1.621   2.176   0.975  2.3068 -2.5067 -1.3681
 1394SOL    HW2 7329   1.703   2.196   1.100  0.5584 -2.8269 -0.1296
 1395SOL     OW 7330   1.274   1.767   2.804 -0.3150 -0.1667 -0.7635
 1395SOL    HW1 7331   1.346   1.709   2.777  0.4496  0.9522 -1.2005
 1395SOL    HW2 7332   1.212   1.763   2.731  0.5139  0.8118 -1.5596
 1396SOL     OW 7333   2.904   6.538   1.079 -0.0424  0.3284  0.4022
 1396SOL    HW1 7334   2.881   6.450   1.051 -0.4190  0.4207  0.4110
 1396SOL    HW2 7335   2.885   6.539   1.173  0.7597  0.1657  0.5701
 1397SOL     OW 7336   2.650   7.973   0.434  0.0497 -0.0115  0.1290
 1397SOL    HW1 7337   2.726   7.928   0.397 -1.4595 -1.9868 -0.7434
 1397SOL    HW2 7338   2.652   8.060   0.393 -1.0651 -1.7932 -4.2200
 1398SOL     OW 7339   1.959   3.231   0.424  0.0504  0.0074 -0.2896
 1398SOL    HW1 7340   2.036   3.217   0.368 -0.0535  0.3640 -0.5247
 1398SOL    HW2 7341   1.890   3.180   0.382  0.4004 -1.1120  0.4675
 1399SOL     OW 7342   1.817   3.048   2.149  0.7934  0.6303 -0.0669
 1399SOL    HW1 7343   1.854   2.961   2.139 -0.2636  0.0324  1.0575
 1399SOL    HW2 7344   1.851   3.097   2.074 -0.0467 -1.2569 -1.7748
 1400SOL     OW 7345   2.689   2.686   5.503  0.1544  0.3466  0.5861
 1400SOL    HW1 7346   2.748   2.716   5.435  0.6926 -0.3170  0.7436
 1400SOL    HW2 7347   2.617   2.748   5.503 -0.0966  0.0777 -0.9196
 1401SOL     OW 7348   4.360   5.245   5.323 -0.1887 -0.1219  1.0246
 1401SOL    HW1 7349   4.273   5.219   5.352 -0.8758 -0.1937 -0.9942
 1401SOL    HW2 7350   4.409   5.257   5.405 -1.5211 -1.9141  2.1698
 1402SOL     OW 7351   2.678   7.462   8.040  0.5355  0.1266 -0.6096
 1402SOL    HW1 7352   2.715   7.434   8.123  1.7827  0.7315 -0.9336
 1402SOL    HW2 7353   2.749   7.509   7.997 -1.4700  4.3425  0.1339
 1403SOL     OW 7354   3.995   8.033   5.455  0.4947 -0.3925  0.2769
 1403SOL    HW1 7355   3.980   8.111   5.402 -0.1068  0.6036  1.8645
 1403SOL    HW2 7356   3.910   7.989   5.458  0.8739 -1.2625 -0.7746
 1404SOL     OW 7357   1.232   0.721   7.271  0.2604 -0.5609 -0.3419
 1404SOL    HW1 7358   1.296   0.684   7.210 -1.6991 -0.5767 -2.5501
 1404SOL    HW2 7359   1.209   0.648   7.329  0.6929 -1.1438 -0.8900
 1405SOL     OW 7360   5.654   4.084   0.369  0.1573 -0.3937  0.0677
 1405SOL    HW1 7361   5.645   4.045   0.282  1.2929  0.9300 -0.6823
 1405SOL    HW2 7362   5.582   4.046   0.420 -1.3942 -0.1559 -1.8305
 1406SOL     OW 7363   2.820   5.079   1.244 -0.2462 -0.8887  0.7108
 1406SOL    HW1 7364   2.910   5.078   1.213 -0.4554  2.5961 -0.4945
 1406SOL    HW2 7365   2.827   5.095   1.338  0.4714  1.3328  0.3274
 1407SOL     OW 7366   2.152   0.340   3.794  0.4168  1.2866  0.0592
 1407SOL    HW1 7367   2.072   0.331   3.743 -0.0978  1.9180  0.7381
 1407SOL    HW2 7368   2.123   0.369   3.881  1.3641  1.3765  0.3666
 1408SOL     OW 7369   7.172   0.315   5.304 -0.5098  0.2736  0.8118
 1408SOL    HW1 7370   7.129   0.382   5.251 -1.5673  0.9821  2.4914
 1408SOL    HW2 7371   7.262   0.348   5.315 -0.4086  0.3369 -0.1175
 1409SOL     OW 7372   4.501   1.891   0.744  0.3916 -0.3861  0.6187
 1409SOL    HW1 7373   4.452   1.951   0.688 -0.4872 -1.7348 -0.1390
 1409SOL    HW2 7374   4.434   1.846   0.796  1.1612  0.4764  2.4228
 1410SOL     OW 7375   2.623   5.843   0.465  0.1925 -0.1485 -0.0191
 1410SOL    HW1 7376   2.636   5.920   0.520 -0.3328 -0.5077  0.6215
 1410SOL    HW2 7377   2.650   5.871   0.377 -2.0721  1.4735 -0.2702
 1411SOL     OW 7378   2.046   0.212   0.636 -0.3425 -0.1867  0.0083
 1411SOL    HW1 7379   2.084   0.197   0.723 -1.5952 -2.5446  0.2429
 1411SOL    HW2 7380   2.035   0.306   0.631 -0.0962  0.0366  2.3665
 1412SOL     OW 7381   5.945   1.060   0.731  0.0738  0.1871 -0.5248
 1412SOL    HW1 7382   5.986   1.047   0.646  0.9613 -0.9471  0.0390
 1412SOL    HW2 7383   5.860   1.016   0.723  0.5742 -0.8170 -0.5332
 1413SOL     OW 7384   2.418   7.168   7.304  0.8817  0.4429  0.0574
 1413SOL    HW1 7385   2.342   7.122   7.270  0.2007  0.4787  1.4851
 1413SOL    HW2 7386   2.384   7.252   7.334  1.7574  1.0638 -0.6271
 1414SOL     OW 7387   3.854   6.943   2.879 -0.0001 -0.3981  0.0148
 1414SOL    HW1 7388   3.792   6.880   2.917 -1.3021  0.1780 -1.0690
 1414SOL    HW2 7389   3.803   7.023   2.868  1.0175  0.1771 -0.6706
 1415SOL     OW 7390   1.221   3.014   0.661  0.1117  0.0508  0.2708
 1415SOL    HW1 7391   1.134   2.977   0.649  0.8066 -1.9097  0.7795
 1415SOL    HW2 7392   1.207   3.093   0.714 -1.4446  0.4874 -0.7239
 1416SOL     OW 7393   6.317   0.147   4.124 -0.1121  0.2590 -0.2146
 1416SOL    HW1 7394   6.351   0.141   4.213 -2.3954 -0.0268  0.6975
 1416SOL    HW2 7395   6.225   0.123   4.131 -1.0209  2.6669 -2.2346
 1417SOL     OW 7396   5.747   2.713   1.461  0.3749 -0.0331 -0.1974
 1417SOL    HW1 7397   5.733   2.659   1.383  0.7576 -0.6638  0.1656
 1417SOL    HW2 7398   5.659   2.737   1.489  0.1260 -1.3763  0.2627
 1418SOL     OW 7399   6.803   3.356   7.114 -0.2364 -0.4028  0.2213
 1418SOL    HW1 7400   6.790   3.450   7.102 -0.9763 -0.2070  2.1763
 1418SOL    HW2 7401   6.729   3.316   7.068  1.0333 -0.1889 -2.1491
 1419SOL     OW 7402   6.135   3.458   3.530 -0.3795  0.0166  0.1155
 1419SOL    HW1 7403   6.113   3.433   3.440 -1.2067 -0.6825  0.4971
 1419SOL    HW2 7404   6.226   3.434   3.540  0.0119  0.9960 -0.8340
 1420SOL     OW 7405   0.377   5.059   3.388  0.3245 -0.5051  0.1294
 1420SOL    HW1 7406   0.330   5.132   3.428  0.8169  0.3607 -0.8474
 1420SOL    HW2 7407   0.338   5.049   3.302  0.0345 -1.6310  0.3761
 1421SOL     OW 7408   6.581   5.196   1.559  0.0636 -0.9518  0.0590
 1421SOL    HW1 7409   6.500   5.215   1.511 -0.4141 -2.0301  0.4016
 1421SOL    HW2 7410   6.603   5.278   1.602 -0.9501 -0.6866  0.1002
 1422SOL     OW 7411   5.340   3.645   6.657  0.1570 -0.7439 -0.2165
 1422SOL    HW1 7412   5.364   3.587   6.585 -0.7406 -2.4968  0.8276
 1422SOL    HW2 7413   5.322   3.586   6.730  2.6474  0.9956  1.9883
 1423SOL     OW 7414   6.686   0.774   7.562  0.2887  0.0346  0.4267
 1423SOL    HW1 7415   6.607   0.721   7.567  0.5177 -0.3028  0.5546
 1423SOL    HW2 7416   6.657   0.863   7.576 -0.0830 -0.0764  0.3648
 1424SOL     OW 7417   6.083   0.356   4.005  0.3315  0.6022  0.1027
 1424SOL    HW1 7418   6.032   0.387   4.080 -2.6253 -1.1973 -0.9949
 1424SOL    HW2 7419   6.104   0.265   4.026 -1.8112 -0.4089 -1.7317
 1425SOL     OW 7420   5.216   5.317   6.294 -0.7030  0.3141  0.1010
 1425SOL    HW1 7421   5.127   5.333   6.263 -1.0078  0.4573  1.0234
 1425SOL    HW2 7422   5.205   5.265   6.374 -0.0708  1.8046  1.2198
 1426SOL     OW 7423   0.910   6.856   0.820  0.5958  0.1124 -0.6618
 1426SOL    HW1 7424   0.911   6.806   0.901  2.7469 -0.6759 -1.1024
 1426SOL    HW2 7425   0.842   6.816   0.767  0.3523 -0.4900  0.0942
 1427SOL     OW 7426   6.945   2.634   1.561  0.3304 -0.1257 -0.0512
 1427SOL    HW1 7427   6.968   2.563   1.622 -1.5494 -0.7151  0.0063
 1427SOL    HW2 7428   6.861   2.666   1.593  0.2558  0.8724 -1.2167
 1428SOL     OW 7429   6.322   6.193   5.373  0.2802  0.0834  0.4384
 1428SOL    HW1 7430   6.333   6.288   5.375 -3.5284  0.6540  1.1957
 1428SOL    HW2 7431   6.266   6.177   5.297 -0.2105 -1.3836  1.0855
 1429SOL     OW 7432   1.912   4.392   3.276  0.0413 -0.8161  0.1825
 1429SOL    HW1 7433   1.894   4.476   3.316 -0.7580 -0.8209 -0.1432
 1429SOL    HW2 7434   1.958   4.413   3.195 -2.0195 -0.5175 -0.9880
 1430SOL     OW 7435   5.732   1.887   7.918 -0.1643 -0.2300 -0.3355
 1430SOL    HW1 7436   5.791   1.816   7.894 -0.2770 -0.0314 -1.2337
 1430SOL    HW2 7437   5.655   1.843   7.955  0.4931 -0.4915  0.7814
 1431SOL     OW 7438   2.220   2.352   0.407  0.0572 -0.1448  0.3014
 1431SOL    HW1 7439   2.259   2.272   0.440  2.2296  0.7555  0.0720
 1431SOL    HW2 7440   2.126   2.332   0.399  0.2505 -2.0065  2.0430
 1432SOL     OW 7441   5.003   6.281   6.601  0.2052  0.0880  0.1855
 1432SOL    HW1 7442   4.966   6.194   6.584  1.0650 -0.1031 -0.8299
 1432SOL    HW2 7443   5.017   6.283   6.695  0.4307 -0.9969  0.1892
 1433SOL     OW 7444   6.684   3.515   6.700  0.4181  0.1415 -0.4349
 1433SOL    HW1 7445   6.605   3.462   6.696 -1.0080  2.1484 -0.2969
 1433SOL    HW2 7446   6.756   3.451   6.698 -1.1824 -1.8430  1.1613
 1434SOL     OW 7447   0.263   2.556   4.455 -0.6268 -0.1614 -0.0682
 1434SOL    HW1 7448   0.302   2.633   4.414 -0.6801 -0.0449  0.0982
 1434SOL    HW2 7449   0.279   2.484   4.393  1.0870 -0.4141  0.6117
 1435SOL     OW 7450   5.561   3.415   6.523  0.7583 -0.3425  0.0178
 1435SOL    HW1 7451   5.635   3.358   6.504  1.6527  0.5832  0.6195
 1435SOL    HW2 7452   5.496   3.394   6.455  1.6113 -1.0795 -0.5917
 1436SOL     OW 7453   5.680   3.399   0.707 -0.9468  0.4535  0.1104
 1436SOL    HW1 7454   5.677   3.310   0.672 -0.5168 -0.1368  1.4958
 1436SOL    HW2 7455   5.606   3.443   0.667 -0.7095 -0.2944 -1.2026
 1437SOL     OW 7456   2.980   4.014   1.175 -0.3171 -0.2008 -0.5992
 1437SOL    HW1 7457   2.991   4.104   1.206  0.7074 -0.8067  0.9185
 1437SOL    HW2 7458   2.886   4.001   1.169 -0.4939  1.4966 -2.5562
 1438SOL     OW 7459   1.307   4.800   4.229  0.3188  0.0052  0.2385
 1438SOL    HW1 7460   1.339   4.783   4.317 -1.6064 -1.3617  0.7410
 1438SOL    HW2 7461   1.263   4.719   4.203 -0.0805  0.7398 -1.5649
 1439SOL     OW 7462   6.989   2.264   2.639  0.2547  0.3335 -0.4110
 1439SOL    HW1 7463   6.943   2.323   2.579 -0.9792 -0.7656 -0.5727
 1439SOL    HW2 7464   7.046   2.212   2.582 -0.9017 -0.6959 -0.6769
 1440SOL     OW 7465   2.843   7.573   5.157  0.1359  0.6116  0.6627
 1440SOL    HW1 7466   2.763   7.626   5.158 -0.0514  0.3418  0.1575
 1440SOL    HW2 7467   2.901   7.616   5.220 -0.4854  0.6909  1.1984
 1441SOL     OW 7468   2.085   2.372   7.917  0.4787  0.1055 -0.4892
 1441SOL    HW1 7469   2.024   2.415   7.977  0.2964  1.4801 -1.5962
 1441SOL    HW2 7470   2.172   2.403   7.944  0.7243 -1.7742  1.0249
 1442SOL     OW 7471   1.872   3.704   2.250  0.0561 -0.3853 -0.8339
 1442SOL    HW1 7472   1.962   3.720   2.277 -0.4578  0.3981  0.5416
 1442SOL    HW2 7473   1.829   3.789   2.259 -0.7816 -0.6917 -1.6994
 1443SOL     OW 7474   6.052   3.647   0.410  0.2203 -0.1142  0.0681
 1443SOL    HW1 7475   5.963   3.679   0.423 -0.1895 -1.8310  2.0376
 1443SOL    HW2 7476   6.050   3.556   0.440  2.4813 -0.4372 -0.5085
 1444SOL     OW 7477   8.075   1.268   7.533 -0.1543  0.3954  0.5767
 1444SOL    HW1 7478   7.985   1.235   7.541  0.3652 -1.2361  0.1408
 1444SOL    HW2 7479   8.074   1.353   7.577 -1.7656  0.1374  1.0994
 1445SOL     OW 7480   3.544   3.845   0.052  0.0143  0.5162  0.7182
 1445SOL    HW1 7481   3.458   3.885   0.039  0.2700  1.0333  0.5641
 1445SOL    HW2 7482   3.526   3.752   0.065 -0.4108  0.1680 -1.8101
 1446SOL     OW 7483   7.917   1.230   3.002  0.3726  0.6098  0.7709
 1446SOL    HW1 7484   7.937   1.151   3.052  1.3953  0.3247 -0.0566
 1446SOL    HW2 7485   7.885   1.197   2.918  0.4238  1.0797  0.5678
 1447SOL     OW 7486   5.056   4.676   4.871  0.0860 -0.1573  0.1807
 1447SOL    HW1 7487   4.965   4.657   4.894  0.0664  0.0986  0.3250
 1447SOL    HW2 7488   5.106   4.652   4.950 -0.1205  1.9400  1.0044
 1448SOL     OW 7489   3.444   5.604   0.032  0.5082  0.0208  0.2653
 1448SOL    HW1 7490   3.395   5.563   0.103 -0.3687 -1.9774 -1.3689
 1448SOL    HW2 7491   3.453   5.695   0.058 -2.4023  0.0375  1.5660
 1449SOL     OW 7492   6.503   6.959   1.025  0.1047 -0.1204  0.3569
 1449SOL    HW1 7493   6.484   6.980   0.933 -0.9123  0.1806  0.6187
 1449SOL    HW2 7494   6.509   6.864   1.027 -0.9019 -0.2044  0.1450
 1450SOL     OW 7495   7.433   3.277   3.587  0.4073  0.3313 -0.2236
 1450SOL    HW1 7496   7.412   3.209   3.523  3.0195 -1.1298  0.3265
 1450SOL    HW2 7497   7.402   3.243   3.671  0.3141  0.5403 -0.1718
 1451SOL     OW 7498   5.475   4.314   4.363  0.8924  0.5802  0.3357
 1451SOL    HW1 7499   5.494   4.405   4.385  1.5641  0.6203 -0.3354
 1451SOL    HW2 7500   5.418   4.282   4.433 -0.6658  1.9828 -0.2449
 1452SOL     OW 7501   1.364   3.017   1.982 -0.1616 -0.0890 -0.7041
 1452SOL    HW1 7502   1.275   3.047   1.962  0.2702  1.5088 -0.3750
 1452SOL    HW2 7503   1.380   3.047   2.072  0.6536 -0.5014 -0.7032
 1453SOL     OW 7504   2.107   1.943   6.561 -0.1871  0.0748  0.5902
 1453SOL    HW1 7505   2.067   2.022   6.597 -0.8966  0.0414 -0.0830
 1453SOL    HW2 7506   2.090   1.948   6.467  1.2412 -0.0562  0.3083
 1454SOL     OW 7507   1.888   0.225   3.573 -0.0725 -0.2469  0.0916
 1454SOL    HW1 7508   1.869   0.294   3.637 -1.1968 -0.3262 -0.1332
 1454SOL    HW2 7509   1.854   0.259   3.490  2.1904  0.2514 -0.7098
 1455SOL     OW 7510   1.211   6.223   1.736  0.2981  0.3776  0.1351
 1455SOL    HW1 7511   1.230   6.222   1.642 -0.9257  0.2989 -0.1232
 1455SOL    HW2 7512   1.266   6.294   1.770  0.2556  0.8542 -0.7554
 1456SOL     OW 7513   2.581   0.674   4.171  0.3305  0.2277  0.1553
 1456SOL    HW1 7514   2.579   0.650   4.078 -0.0477 -1.5082  0.5712
 1456SOL    HW2 7515   2.502   0.634   4.207 -0.9640  3.0656  0.7840
 1457SOL     OW 7516   4.195   7.130   3.436 -1.1476  0.0526  0.1644
 1457SOL    HW1 7517   4.252   7.116   3.512 -1.6663  0.1070  0.5672
 1457SOL    HW2 7518   4.109   7.099   3.464 -1.2721 -0.2461 -0.5208
 1458SOL     OW 7519   6.939   4.157   6.935 -0.3471 -0.5476  0.1038
 1458SOL    HW1 7520   6.896   4.194   6.858 -0.8858 -1.6005 -0.1103
 1458SOL    HW2 7521   6.911   4.066   6.937 -0.1221 -0.6069  1.3917
 1459SOL     OW 7522   7.982   5.835   4.420 -0.5615 -0.2044 -0.2580
 1459SOL    HW1 7523   7.935   5.875   4.346 -0.9117  0.8647  0.5123
 1459SOL    HW2 7524   7.988   5.905   4.485 -0.2112 -1.1078  0.7130
 1460SOL     OW 7525   5.367   7.988   2.044 -0.4469  0.1720 -0.1644
 1460SOL    HW1 7526   5.299   7.961   2.106  2.0076 -1.3121  2.0867
 1460SOL    HW2 7527   5.400   7.907   2.007 -0.8528  0.9597 -2.4015
 1461SOL     OW 7528   4.262   6.770   4.837 -0.3992  0.1772  0.3814
 1461SOL    HW1 7529   4.260   6.716   4.758  0.9887  0.7465 -0.0769
 1461SOL    HW2 7530   4.330   6.835   4.819 -1.1817  1.3133  1.4101
 1462SOL     OW 7531   3.327   3.324   7.824  0.1344  0.0524  0.0625
 1462SOL    HW1 7532   3.292   3.308   7.736  1.4207 -3.1939  0.0232
 1462SOL    HW2 7533   3.405   3.378   7.809  0.0557 -0.0402 -0.7248
 1463SOL     OW 7534   2.014   4.768   6.517  0.4124  0.0061  0.2332
 1463SOL    HW1 7535   2.071   4.762   6.440  0.6222  0.6942  0.3262
 1463SOL    HW2 7536   2.014   4.680   6.554  2.2062  0.2129  0.8018
 1464SOL     OW 7537   6.411   4.629   1.215 -0.6602  0.1518 -0.1870
 1464SOL    HW1 7538   6.489   4.638   1.161 -0.6574  0.2661 -0.1637
 1464SOL    HW2 7539   6.433   4.674   1.297 -1.3541  1.6616 -0.7908
 1465SOL     OW 7540   1.068   3.300   0.705 -0.2067 -0.4636  0.7288
 1465SOL    HW1 7541   0.998   3.301   0.771 -0.1996  2.5906  0.8340
 1465SOL    HW2 7542   1.143   3.342   0.748  0.5835 -0.6079 -0.4433
 1466SOL     OW 7543   2.632   6.681   4.715  0.4569  0.0304 -0.1724
 1466SOL    HW1 7544   2.600   6.762   4.755  2.3608  0.7986 -0.1021
 1466SOL    HW2 7545   2.581   6.612   4.756 -2.9488  1.2400 -1.9197
 1467SOL     OW 7546   5.989   3.806   4.967 -0.7900 -0.0953  0.0652
 1467SOL    HW1 7547   6.052   3.878   4.964 -1.2739  0.3188 -0.3812
 1467SOL    HW2 7548   5.905   3.849   4.983 -1.2489 -0.4519 -1.2699
 1468SOL     OW 7549   7.745   1.280   6.985 -0.0494  0.6214 -0.7684
 1468SOL    HW1 7550   7.733   1.323   7.070 -1.2572  0.4996 -0.8508
 1468SOL    HW2 7551   7.758   1.188   7.007  2.2333  0.9345 -0.6074
 1469SOL     OW 7552   3.578   5.919   6.217  0.3293 -0.3044  0.2478
 1469SOL    HW1 7553   3.550   5.998   6.263 -1.2666  0.3513 -1.7189
 1469SOL    HW2 7554   3.514   5.853   6.243  0.9705 -0.6656  0.9614
 1470SOL     OW 7555   1.490   2.434   5.219 -0.0066  0.1292  0.7437
 1470SOL    HW1 7556   1.405   2.472   5.239  0.6742  1.8427  0.5292
 1470SOL    HW2 7557   1.542   2.506   5.184  0.7147 -1.4334 -1.6908
 1471SOL     OW 7558   2.325   2.672   5.065  0.7816  0.3872 -0.1139
 1471SOL    HW1 7559   2.417   2.696   5.076  1.3614 -0.9853 -1.6186
 1471SOL    HW2 7560   2.313   2.663   4.971  0.1340 -2.9871  0.1561
 1472SOL     OW 7561   3.264   4.702   0.576  0.4732 -0.1743  0.2881
 1472SOL    HW1 7562   3.281   4.634   0.641 -0.5014 -0.7442 -0.0328
 1472SOL    HW2 7563   3.338   4.763   0.586 -0.0357  0.1837  2.4548
 1473SOL     OW 7564   8.048   6.685   0.997 -0.1011 -0.0613 -1.0879
 1473SOL    HW1 7565   7.963   6.719   0.971  0.1083  1.6651  0.2872
 1473SOL    HW2 7566   8.045   6.592   0.974 -3.0569 -0.4926  0.5493
 1474SOL     OW 7567   6.796   3.214   0.679 -0.8016 -0.3691  0.3379
 1474SOL    HW1 7568   6.842   3.294   0.703 -0.5793 -0.2358 -0.5031
 1474SOL    HW2 7569   6.737   3.198   0.753  0.6497 -0.6123  1.5039
 1475SOL     OW 7570   7.717   7.104   4.136  0.3310  0.3766 -0.4524
 1475SOL    HW1 7571   7.811   7.096   4.154  0.5166  0.5780 -1.2865
 1475SOL    HW2 7572   7.680   7.139   4.217  0.9885  0.3460 -0.1353
 1476SOL     OW 7573   0.987   7.716   1.375 -0.3619 -0.0552  0.4973
 1476SOL    HW1 7574   1.079   7.705   1.399  0.2816  1.6108 -0.9701
 1476SOL    HW2 7575   0.990   7.769   1.295 -2.6112  0.2485  0.5693
 1477SOL     OW 7576   2.440   0.415   1.959 -0.2799  0.2911 -0.3248
 1477SOL    HW1 7577   2.374   0.396   2.026 -1.0558  0.4410 -1.0383
 1477SOL    HW2 7578   2.514   0.449   2.009 -0.8807  0.4864  0.4590
 1478SOL     OW 7579   4.818   1.926   0.284 -1.0299  0.1098 -0.5893
 1478SOL    HW1 7580   4.809   1.955   0.375 -0.5622 -0.0687 -0.4841
 1478SOL    HW2 7581   4.867   1.844   0.289 -2.5396 -0.8621 -0.8692
 1479SOL     OW 7582   5.431   6.237   4.979 -1.0817  0.3731 -0.5108
 1479SOL    HW1 7583   5.475   6.154   4.959  0.8935  1.0646  0.7148
 1479SOL    HW2 7584   5.432   6.243   5.074  0.5859  2.6575 -0.5845
 1480SOL     OW 7585   6.392   6.340   7.167 -0.7191  0.2319  0.4573
 1480SOL    HW1 7586   6.330   6.273   7.137  1.3881 -1.0208 -1.3618
 1480SOL    HW2 7587   6.398   6.402   7.093 -0.3446  0.7379  0.9061
 1481SOL     OW 7588   1.794   2.558   2.739  0.2870 -0.0114  0.2439
 1481SOL    HW1 7589   1.822   2.470   2.764 -1.0206 -0.4543  0.2601
 1481SOL    HW2 7590   1.785   2.554   2.644 -1.8331 -0.5810  0.4199
 1482SOL     OW 7591   3.835   7.570   7.473 -0.2647  0.3900 -0.0247
 1482SOL    HW1 7592   3.898   7.592   7.541 -0.8281  1.1664  0.2567
 1482SOL    HW2 7593   3.851   7.477   7.455 -1.0830 -0.2612  2.2150
 1483SOL     OW 7594   2.112   7.310   1.048  0.0137 -0.1812 -0.3088
 1483SOL    HW1 7595   2.139   7.396   1.014  1.8153  0.1123  1.6941
 1483SOL    HW2 7596   2.034   7.329   1.101  1.2563  0.5335  1.3452
 1484SOL     OW 7597   4.185   0.431   7.628 -0.0521 -0.1016  0.1897
 1484SOL    HW1 7598   4.237   0.418   7.708 -1.5735 -0.4138  1.1941
 1484SOL    HW2 7599   4.176   0.526   7.620  0.7607 -0.0418 -0.0668
 1485SOL     OW 7600   4.942   0.339   3.711  0.1512  0.7842  0.2017
 1485SOL    HW1 7601   5.022   0.389   3.725  0.3831  0.1750  1.1008
 1485SOL    HW2 7602   4.908   0.321   3.799 -0.8593  0.8462 -0.1566
 1486SOL     OW 7603   0.548   4.666   4.987 -0.0661 -0.4550  0.4125
 1486SOL    HW1 7604   0.559   4.723   5.063 -0.1335  1.8833 -1.2203
 1486SOL    HW2 7605   0.610   4.594   5.001  2.3228  1.6148  1.1617
 1487SOL     OW 7606   0.614   3.421   1.836 -0.0008  0.0672 -0.1649
 1487SOL    HW1 7607   0.653   3.485   1.896 -0.9508 -0.1164  0.6675
 1487SOL    HW2 7608   0.663   3.340   1.853  0.4811  0.2948 -0.4497
 1488SOL     OW 7609   1.473   1.136   6.490 -0.7442  0.2080  0.1714
 1488SOL    HW1 7610   1.452   1.065   6.550  0.2892  0.6336  1.0670
 1488SOL    HW2 7611   1.506   1.092   6.411 -1.6323 -0.3343  0.0879
 1489SOL     OW 7612   8.033   6.390   5.829  0.5699 -0.2300  0.2756
 1489SOL    HW1 7613   8.094   6.361   5.761  0.6309  1.3852 -0.4234
 1489SOL    HW2 7614   7.957   6.422   5.780  0.4379  0.5632  0.9793
 1490SOL     OW 7615   6.049   7.693   2.551 -0.4097 -0.0578 -0.1077
 1490SOL    HW1 7616   5.984   7.763   2.561 -0.6506 -0.3457  0.3978
 1490SOL    HW2 7617   6.123   7.735   2.507 -0.4974  0.5484  0.3067
 1491SOL     OW 7618   2.962   7.622   3.442  0.0699  0.3585 -0.2124
 1491SOL    HW1 7619   2.973   7.657   3.530  0.1694  0.5907 -0.3157
 1491SOL    HW2 7620   3.040   7.567   3.429 -0.8919 -1.2786  0.5790
 1492SOL     OW 7621   5.121   4.456   1.987  0.1572  0.0326 -0.4041
 1492SOL    HW1 7622   5.123   4.408   2.070 -1.6978 -0.1997 -0.4453
 1492SOL    HW2 7623   5.038   4.504   1.989 -0.2913 -0.5539 -2.4191
 1493SOL     OW 7624   8.095   6.654   1.620 -0.3309 -0.4180  0.0550
 1493SOL    HW1 7625   8.046   6.591   1.568 -1.0355  0.5201 -0.4290
 1493SOL    HW2 7626   8.065   6.640   1.710 -0.8204 -0.4634 -0.1143
 1494SOL     OW 7627   2.371   4.430   3.292 -0.2451  0.1631 -0.2579
 1494SOL    HW1 7628   2.318   4.394   3.222 -0.7612 -0.8883  0.6384
 1494SOL    HW2 7629   2.417   4.355   3.329 -1.3127  0.3755  1.6285
 1495SOL     OW 7630   7.732   2.148   6.566  0.1245  0.5550 -0.3397
 1495SOL    HW1 7631   7.762   2.062   6.535 -1.0931  0.1921 -0.5791
 1495SOL    HW2 7632   7.672   2.127   6.638  1.0942  1.2920  0.7097
 1496SOL     OW 7633   5.399   7.969   3.183 -0.2384  0.1377  0.0206
 1496SOL    HW1 7634   5.304   7.968   3.196 -0.4333 -1.8544 -1.1240
 1496SOL    HW2 7635   5.418   8.056   3.149 -1.7325  0.4069 -0.2067
 1497SOL     OW 7636   7.393   1.905   1.400  0.1855  0.5304  0.5826
 1497SOL    HW1 7637   7.335   1.828   1.402  1.0268 -0.1210  1.2387
 1497SOL    HW2 7638   7.417   1.915   1.308 -1.5328  1.2734  0.1786
 1498SOL     OW 7639   3.475   1.351   4.641  0.4167  0.6265 -0.3147
 1498SOL    HW1 7640   3.561   1.380   4.611  0.4425  1.6138  0.6199
 1498SOL    HW2 7641   3.440   1.427   4.688 -0.1527 -0.4071  0.9848
 1499SOL     OW 7642   0.840   5.303   0.113  0.2638 -0.2234 -0.3305
 1499SOL    HW1 7643   0.876   5.244   0.047  0.0508 -0.4422 -0.2533
 1499SOL    HW2 7644   0.870   5.268   0.197 -0.5940 -0.7412 -0.2290
 1500SOL     OW 7645   4.322   6.995   7.175 -0.2791  0.4042  0.3751
 1500SOL    HW1 7646   4.392   6.983   7.240 -0.6726  0.0056  0.7286
 1500SOL    HW2 7647   4.256   7.047   7.221 -0.0325  1.1589 -0.0988
 1501SOL     OW 7648   8.080   0.636   0.857 -0.7701  0.0187 -0.8398
 1501SOL    HW1 7649   8.068   0.731   0.856  0.1424  0.1372 -1.1511
 1501SOL    HW2 7650   8.147   0.621   0.924 -0.5096 -0.3529 -1.1782
 1502SOL     OW 7651   3.187   5.786   6.574 -0.0935 -0.3078 -0.3317
 1502SOL    HW1 7652   3.113   5.795   6.515  0.3900 -0.7939 -1.0202
 1502SOL    HW2 7653   3.155   5.820   6.658 -1.0305 -0.3568 -0.6631
 1503SOL     OW 7654   7.791   6.070   1.918  0.2936  0.3779 -0.0404
 1503SOL    HW1 7655   7.804   5.993   1.972  0.9422  0.2062 -0.4389
 1503SOL    HW2 7656   7.698   6.066   1.894  0.2320 -0.0665  0.2557
 1504SOL     OW 7657   1.261   4.407   6.017  0.0861 -0.0716  0.2928
 1504SOL    HW1 7658   1.249   4.388   6.110  2.1244 -1.4509  0.3265
 1504SOL    HW2 7659   1.180   4.379   5.975  0.0589 -1.6724  1.3661
 1505SOL     OW 7660   4.861   4.221   0.478  0.3141 -0.1631  0.0563
 1505SOL    HW1 7661   4.789   4.201   0.419  0.3756 -0.7618  0.1809
 1505SOL    HW2 7662   4.847   4.313   0.503  0.6219  0.2839 -1.3381
 1506SOL     OW 7663   2.460   1.440   4.077 -0.2145  0.0477  0.0051
 1506SOL    HW1 7664   2.539   1.421   4.026 -1.9926 -1.7318 -2.3062
 1506SOL    HW2 7665   2.410   1.500   4.022 -2.1797 -1.8835 -0.4282
 1507SOL     OW 7666   1.386   3.354   4.903  0.5022 -0.6720  0.1290
 1507SOL    HW1 7667   1.411   3.262   4.910 -1.3604 -1.2964 -0.5947
 1507SOL    HW2 7668   1.377   3.384   4.993 -0.0686 -1.5893  0.3958
 1508SOL     OW 7669   2.866   2.467   2.014 -0.0234 -0.0211 -0.0304
 1508SOL    HW1 7670   2.842   2.421   1.933  1.7913 -0.6272 -0.2681
 1508SOL    HW2 7671   2.925   2.537   1.985 -0.2559  0.4800  0.6722
 1509SOL     OW 7672   6.717   2.466   4.802  0.1318  0.2037 -0.3157
 1509SOL    HW1 7673   6.670   2.534   4.852 -0.5309 -1.1847  1.0178
 1509SOL    HW2 7674   6.784   2.434   4.862  0.9785  0.2131 -1.2325
 1510SOL     OW 7675   0.478   3.190   7.188  0.7908 -0.5312 -0.1755
 1510SOL    HW1 7676   0.492   3.153   7.101  1.3560 -2.4274  0.6850
 1510SOL    HW2 7677   0.476   3.115   7.247 -0.4540  0.6424  1.3682
 1511SOL     OW 7678   3.351   5.779   1.725  0.2838  0.0396  0.4583
 1511SOL    HW1 7679   3.365   5.818   1.811  1.5070 -0.6949  0.6102
 1511SOL    HW2 7680   3.272   5.726   1.736 -1.3154  2.2432  0.2927
 1512SOL     OW 7681   5.138   6.730   2.578 -0.0335 -0.3018  0.6185
 1512SOL    HW1 7682   5.165   6.758   2.666  1.5289 -0.3882  0.1951
 1512SOL    HW2 7683   5.204   6.767   2.520 -2.0173  1.2506 -0.7646
 1513SOL     OW 7684   2.990   6.849   7.827  0.3515 -0.0596  0.0076
 1513SOL    HW1 7685   2.916   6.844   7.767  0.9243  1.2796 -0.8760
 1513SOL    HW2 7686   3.062   6.808   7.779  0.3376 -0.8182  0.6203
 1514SOL     OW 7687   5.710   2.188   6.178 -0.0275 -0.2055  0.1821
 1514SOL    HW1 7688   5.700   2.108   6.126  1.0505 -0.9149  1.0152
 1514SOL    HW2 7689   5.763   2.246   6.122 -0.4722 -0.2208 -0.2626
 1515SOL     OW 7690   3.270   7.163   4.820  0.2122  0.3515 -0.0754
 1515SOL    HW1 7691   3.266   7.117   4.904 -1.2927 -1.7673 -1.2023
 1515SOL    HW2 7692   3.184   7.150   4.782  0.6578  1.8242 -1.7002
 1516SOL     OW 7693   5.011   6.179   2.337 -0.0027  0.1223 -0.0059
 1516SOL    HW1 7694   4.971   6.095   2.359 -1.3890  0.4819 -1.0160
 1516SOL    HW2 7695   5.005   6.184   2.242 -0.8705  1.7816  0.0972
 1517SOL     OW 7696   4.827   2.854   6.439 -0.0620 -0.2424  0.2648
 1517SOL    HW1 7697   4.852   2.945   6.421  0.6208 -0.6495 -0.9613
 1517SOL    HW2 7698   4.885   2.802   6.383 -1.5081 -1.3679 -0.2293
 1518SOL     OW 7699   2.937   0.375   5.577  0.7872  0.3045  0.1914
 1518SOL    HW1 7700   2.865   0.319   5.547 -2.5696  3.5868  1.4107
 1518SOL    HW2 7701   2.961   0.340   5.663 -0.1210 -0.1419  0.2713
 1519SOL     OW 7702   2.720   4.602   2.348  1.0621  0.2505 -0.5168
 1519SOL    HW1 7703   2.715   4.536   2.418 -1.7145  1.6613  0.7982
 1519SOL    HW2 7704   2.724   4.551   2.267  1.7399 -1.4762  0.5421
 1520SOL     OW 7705   2.302   6.827   4.106 -0.3362 -0.1400  0.0308
 1520SOL    HW1 7706   2.378   6.824   4.047 -0.3549  1.0426 -0.0655
 1520SOL    HW2 7707   2.317   6.904   4.161 -1.3383 -0.0533  0.1954
 1521SOL     OW 7708   1.941   7.726   3.206 -0.1240 -0.5666 -0.1213
 1521SOL    HW1 7709   1.895   7.753   3.285 -1.1834 -0.2028 -0.8499
 1521SOL    HW2 7710   1.891   7.653   3.171 -1.3340  1.0228 -1.9568
 1522SOL     OW 7711   6.309   1.457   5.124 -0.2567  0.0700 -0.1624
 1522SOL    HW1 7712   6.250   1.381   5.122  0.1830 -0.2658 -0.9555
 1522SOL    HW2 7713   6.258   1.527   5.085  0.0141 -0.3481 -1.3166
 1523SOL     OW 7714   2.152   0.259   2.496  0.3177  0.5843  0.2599
 1523SOL    HW1 7715   2.193   0.312   2.564  0.9178  0.9113 -0.3484
 1523SOL    HW2 7716   2.058   0.274   2.508  0.4069  0.4593  1.1551
 1524SOL     OW 7717   0.097   1.326   6.106 -0.0026 -0.2086 -0.3654
 1524SOL    HW1 7718   0.133   1.307   6.192  0.4932 -1.9783 -0.9087
 1524SOL    HW2 7719   0.004   1.342   6.122  0.4355  1.4441  0.7025
 1525SOL     OW 7720   2.461   1.825   1.315  0.3277  0.5312  0.2189
 1525SOL    HW1 7721   2.448   1.894   1.380  0.9389 -0.7092  1.7018
 1525SOL    HW2 7722   2.387   1.835   1.255  0.6236  2.7193  0.1347
 1526SOL     OW 7723   1.832   0.972   5.367  0.0030  0.1664  0.0674
 1526SOL    HW1 7724   1.823   1.040   5.300  2.0701  0.4290 -0.0252
 1526SOL    HW2 7725   1.742   0.947   5.388 -0.8823  3.2413  0.4445
 1527SOL     OW 7726   1.348   0.818   6.828 -0.0872 -0.4212  0.2940
 1527SOL    HW1 7727   1.372   0.837   6.737 -1.7983 -0.5599 -0.2351
 1527SOL    HW2 7728   1.255   0.843   6.833 -0.4108 -1.7747  1.6012
 1528SOL     OW 7729   1.025   1.522   2.096 -0.1424  0.2478 -0.3407
 1528SOL    HW1 7730   1.023   1.459   2.024  0.7784 -1.7342  1.2522
 1528SOL    HW2 7731   1.114   1.558   2.094  0.1489 -0.4084  0.2428
 1529SOL     OW 7732   7.315   2.263   3.211 -0.4375 -0.2795  0.2089
 1529SOL    HW1 7733   7.221   2.244   3.210 -0.5385  0.2228  0.0247
 1529SOL    HW2 7734   7.328   2.315   3.290 -0.4527  0.3512 -0.2038
 1530SOL     OW 7735   5.370   7.022   7.131 -0.3904 -0.1414 -0.1434
 1530SOL    HW1 7736   5.433   7.079   7.175 -1.1586  1.3993 -0.9775
 1530SOL    HW2 7737   5.365   6.945   7.188  0.1051  0.9250  1.4269
 1531SOL     OW 7738   6.695   7.481   1.293  0.1813 -0.3042 -0.2964
 1531SOL    HW1 7739   6.734   7.560   1.332  0.7107 -0.5164 -0.3790
 1531SOL    HW2 7740   6.615   7.512   1.251 -0.3391 -0.0461  0.8449
 1532SOL     OW 7741   5.359   5.348   7.849  0.3414  0.3083  0.1644
 1532SOL    HW1 7742   5.434   5.402   7.875  0.8646  0.6626 -1.9171
 1532SOL    HW2 7743   5.389   5.258   7.864  0.6411  0.4860  0.6821
 1533SOL     OW 7744   5.643   3.186   8.091 -0.8221 -0.1933  0.0196
 1533SOL    HW1 7745   5.703   3.115   8.112 -0.3661  0.4057  0.8214
 1533SOL    HW2 7746   5.668   3.215   8.004  0.6992  0.6528  0.6851
 1534SOL     OW 7747   6.225   4.396   6.365 -0.0950 -0.6743  0.3073
 1534SOL    HW1 7748   6.185   4.424   6.448  1.8977 -1.1529  1.4883
 1534SOL    HW2 7749   6.242   4.477   6.318 -2.5375 -0.4542 -0.3428
 1535SOL     OW 7750   5.359   8.070   6.135  0.1383 -0.6320  0.2129
 1535SOL    HW1 7751   5.396   8.157   6.146  0.7246 -1.0086  1.4120
 1535SOL    HW2 7752   5.420   8.025   6.076 -0.1274 -0.2634 -0.3501
 1536SOL     OW 7753   5.338   1.775   4.756  0.6120  0.4705 -0.0815
 1536SOL    HW1 7754   5.418   1.734   4.789  0.8134  0.6795 -0.3045
 1536SOL    HW2 7755   5.291   1.705   4.712  0.5889  0.3075  0.2015
 1537SOL     OW 7756   6.962   5.798   3.210 -0.0520 -0.1160 -0.2521
 1537SOL    HW1 7757   6.934   5.789   3.119  1.6733 -0.7190 -0.7701
 1537SOL    HW2 7758   6.906   5.739   3.259 -1.5435  0.8095 -0.7682
 1538SOL     OW 7759   0.952   6.320   3.920  0.0841 -0.2686  0.3694
 1538SOL    HW1 7760   0.904   6.240   3.899 -1.7635  0.6383  0.9659
 1538SOL    HW2 7761   1.044   6.293   3.919 -0.4368 -2.2069 -0.2189
 1539SOL     OW 7762   5.605   4.960   3.552 -0.4753  0.2772 -0.4180
 1539SOL    HW1 7763   5.615   5.052   3.528  0.7119  0.4448  0.6259
 1539SOL    HW2 7764   5.607   4.960   3.647  0.7080 -0.9464 -0.4216
 1540SOL     OW 7765   2.646   7.578   1.638  0.1660  0.2327  0.0412
 1540SOL    HW1 7766   2.624   7.660   1.594 -1.0064  1.8630  3.4091
 1540SOL    HW2 7767   2.576   7.564   1.700  1.4856 -2.1794  1.1270
 1541SOL     OW 7768   1.992   3.520   4.374 -0.4627 -0.3432  0.1296
 1541SOL    HW1 7769   1.936   3.486   4.444 -2.0641 -0.0489 -0.9746
 1541SOL    HW2 7770   1.981   3.458   4.302 -1.2377  0.9582 -0.9162
 1542SOL     OW 7771   3.116   6.517   5.748  0.0236  0.5813 -0.2568
 1542SOL    HW1 7772   3.188   6.561   5.704 -0.2901 -1.1202 -2.7198
 1542SOL    HW2 7773   3.156   6.471   5.821  0.8792  2.1431  0.2937
 1543SOL     OW 7774   3.436   7.598   8.082  0.0012  0.2856 -0.1967
 1543SOL    HW1 7775   3.349   7.622   8.114 -0.5612 -1.0416 -0.6348
 1543SOL    HW2 7776   3.490   7.594   8.161  0.1216  2.6903 -0.0729
 1544SOL     OW 7777   4.688   5.281   7.988  0.0634  0.0316 -0.7163
 1544SOL    HW1 7778   4.672   5.366   8.027  1.2469 -0.1976  0.3450
 1544SOL    HW2 7779   4.746   5.299   7.914  0.9452  0.0992 -0.0310
 1545SOL     OW 7780   6.740   3.142   3.181 -0.1888 -0.5592 -0.1221
 1545SOL    HW1 7781   6.804   3.112   3.246  1.1377 -0.5313 -1.3732
 1545SOL    HW2 7782   6.772   3.107   3.098 -1.6863 -0.3430 -0.8229
 1546SOL     OW 7783   1.382   4.701   3.155  0.3745 -0.0609 -0.7638
 1546SOL    HW1 7784   1.323   4.686   3.082 -0.7025 -0.9171  0.2573
 1546SOL    HW2 7785   1.391   4.616   3.197  0.8646  0.4513  0.1988
 1547SOL     OW 7786   6.028   0.562   2.347  0.2795 -0.2448 -0.1939
 1547SOL    HW1 7787   5.954   0.503   2.353 -0.2349 -0.0420 -3.1208
 1547SOL    HW2 7788   5.989   0.649   2.334  1.0466  0.3551  1.2531
 1548SOL     OW 7789   3.387   2.445   1.570  0.2672  0.0059 -0.0046
 1548SOL    HW1 7790   3.337   2.363   1.570 -0.9646  0.7308 -0.8701
 1548SOL    HW2 7791   3.466   2.424   1.519 -1.4070  0.1025 -2.8180
 1549SOL     OW 7792   5.778   1.426   4.080  0.2066 -0.0122  0.4597
 1549SOL    HW1 7793   5.772   1.330   4.079  1.2389 -0.0945  1.3564
 1549SOL    HW2 7794   5.845   1.446   4.145 -0.5501  1.3628  0.8620
 1550SOL     OW 7795   1.242   6.813   3.288  0.0865  0.4154 -0.6362
 1550SOL    HW1 7796   1.313   6.749   3.285  0.5007  0.7267  1.2333
 1550SOL    HW2 7797   1.164   6.763   3.264  0.8020 -0.0819 -2.0841
 1551SOL     OW 7798   6.731   0.472   5.408  0.5720 -0.5272  0.2880
 1551SOL    HW1 7799   6.661   0.417   5.373  1.1148 -0.7218 -0.5145
 1551SOL    HW2 7800   6.727   0.552   5.355  0.7180 -0.3849  0.4901
 1552SOL     OW 7801   1.262   6.554   1.531  0.6474 -0.1433  0.4132
 1552SOL    HW1 7802   1.235   6.489   1.466 -0.7575  0.8036  0.0187
 1552SOL    HW2 7803   1.358   6.552   1.528  0.6257 -0.2699 -1.5476
 1553SOL     OW 7804   4.546   6.007   6.907  0.0482  0.2459 -0.7173
 1553SOL    HW1 7805   4.636   6.039   6.911  0.2517 -0.4013  2.8351
 1553SOL    HW2 7806   4.554   5.917   6.876  0.8521 -0.3097  0.9982
 1554SOL     OW 7807   4.756   7.697   7.054  0.1606  0.3682  0.5174
 1554SOL    HW1 7808   4.730   7.778   7.096  0.3681  1.7652 -1.8735
 1554SOL    HW2 7809   4.677   7.643   7.055  0.5851 -0.4319  4.1077
 1555SOL     OW 7810   4.924   6.853   1.157 -0.5623 -0.3395  0.6504
 1555SOL    HW1 7811   4.913   6.845   1.063 -2.0310  0.1027  0.7550
 1555SOL    HW2 7812   4.929   6.762   1.189 -1.1880 -0.5173  0.2552
 1556SOL     OW 7813   7.299   6.178   0.583 -0.1724 -0.2015  0.0642
 1556SOL    HW1 7814   7.252   6.255   0.550 -0.6677 -0.4581  0.1525
 1556SOL    HW2 7815   7.230   6.120   0.616  0.3155  0.1315  1.7392
 1557SOL     OW 7816   3.762   5.865   6.550 -0.1407  0.2854 -0.1457
 1557SOL    HW1 7817   3.676   5.868   6.591 -0.2205  0.1570 -0.3008
 1557SOL    HW2 7818   3.771   5.950   6.506  0.0902  0.5586  0.4229
 1558SOL     OW 7819   6.281   7.400   0.243 -0.6718 -0.1921 -0.7605
 1558SOL    HW1 7820   6.325   7.373   0.162  0.2931 -0.4114 -0.1751
 1558SOL    HW2 7821   6.278   7.320   0.296  2.8055  0.8380  1.2753
 1559SOL     OW 7822   0.928   2.295   1.241  0.9020 -0.3035  0.2120
 1559SOL    HW1 7823   0.947   2.383   1.209  0.3656 -0.0578  0.5615
 1559SOL    HW2 7824   0.876   2.254   1.172  1.6265 -0.5542 -0.2039
 1560SOL     OW 7825   0.022   8.096   4.884 -0.0696  0.2849  0.4039
 1560SOL    HW1 7826  -0.064   8.068   4.852  0.0542 -3.4586  2.7270
 1560SOL    HW2 7827   0.081   8.078   4.811 -0.9534  0.8864 -0.4923
 1561SOL     OW 7828   0.552   1.302   7.139 -0.6818  0.7721  0.0523
 1561SOL    HW1 7829   0.549   1.346   7.224 -1.6466  2.0187 -0.5872
 1561SOL    HW2 7830   0.508   1.363   7.079 -0.9897 -0.5470 -1.1211
 1562SOL     OW 7831   1.058   7.148   4.018  0.2491  0.4517  0.2618
 1562SOL    HW1 7832   1.041   7.183   4.106  0.1406 -1.5007  1.0722
 1562SOL    HW2 7833   0.994   7.078   4.008  2.1110 -1.2651 -0.1782
 1563SOL     OW 7834   3.348   3.592   7.943  0.5839 -0.0796 -0.2348
 1563SOL    HW1 7835   3.387   3.639   7.869  1.3970 -1.3597 -0.6536
 1563SOL    HW2 7836   3.271   3.550   7.907  1.5744 -1.5974 -0.6677
 1564SOL     OW 7837   3.186   7.196   0.192 -0.0292 -0.2887 -0.7263
 1564SOL    HW1 7838   3.111   7.233   0.146 -0.4939  3.0169  2.2593
 1564SOL    HW2 7839   3.147   7.131   0.251 -0.3209  0.0905 -0.4941
 1565SOL     OW 7840   2.407   5.973   7.333 -0.4040  0.0833  0.2434
 1565SOL    HW1 7841   2.393   5.890   7.378  0.6271 -0.1008  0.2574
 1565SOL    HW2 7842   2.461   5.951   7.257 -0.8617  0.6151 -0.2523
 1566SOL     OW 7843   2.508   6.584   3.584  0.5794 -0.2526 -0.1783
 1566SOL    HW1 7844   2.534   6.646   3.652  1.9556 -0.1272 -0.7909
 1566SOL    HW2 7845   2.434   6.627   3.540  0.4690  0.2087  0.4418
 1567SOL     OW 7846   5.535   5.554   7.924  0.5919  0.0506 -0.0276
 1567SOL    HW1 7847   5.500   5.639   7.950 -0.1316 -0.1874 -0.2042
 1567SOL    HW2 7848   5.629   5.563   7.935  0.6247  1.2097 -1.0038
 1568SOL     OW 7849   0.218   2.827   7.168  0.4136  0.4614  0.8620
 1568SOL    HW1 7850   0.241   2.792   7.082  0.6993 -0.1503  1.1723
 1568SOL    HW2 7851   0.300   2.863   7.202  0.2485  0.9089  0.7793
 1569SOL     OW 7852   2.493   5.276   5.087 -0.5319  0.1793  0.0340
 1569SOL    HW1 7853   2.464   5.205   5.145  0.4271 -0.8625 -0.7109
 1569SOL    HW2 7854   2.421   5.338   5.087 -1.4900 -0.8970  0.5672
 1570SOL     OW 7855   3.995   3.297   5.541 -0.1335  0.8133 -0.0168
 1570SOL    HW1 7856   4.026   3.231   5.480 -1.3152 -0.3732  0.6184
 1570SOL    HW2 7857   4.007   3.258   5.628 -0.5899  1.5390  0.3919
 1571SOL     OW 7858   4.701   6.496   2.281 -0.5239 -0.6701  0.5658
 1571SOL    HW1 7859   4.619   6.471   2.324 -0.8336 -0.7045 -0.0348
 1571SOL    HW2 7860   4.694   6.460   2.193 -0.9906  1.4664 -0.3377
 1572SOL     OW 7861   4.213   5.894   5.305  0.1316  0.3912 -0.1012
 1572SOL    HW1 7862   4.118   5.885   5.292 -0.0581  2.1458 -0.1500
 1572SOL    HW2 7863   4.228   5.860   5.393 -0.5044 -0.0549 -0.1505
 1573SOL     OW 7864   7.037   2.820   7.477 -0.1797 -0.1574  0.2596
 1573SOL    HW1 7865   7.079   2.823   7.563  0.3171  0.6259 -0.0013
 1573SOL    HW2 7866   6.998   2.907   7.467 -0.7220 -0.4342 -0.0692
 1574SOL     OW 7867   1.270   2.830   1.815 -0.4945  0.0662  0.5213
 1574SOL    HW1 7868   1.315   2.878   1.885 -1.2236 -0.6125  1.4768
 1574SOL    HW2 7869   1.341   2.784   1.769  0.0919  1.2110  0.2319
 1575SOL     OW 7870   3.519   7.447   6.479 -0.0362  0.0841 -0.2942
 1575SOL    HW1 7871   3.441   7.394   6.466 -0.3036  0.0237  1.2791
 1575SOL    HW2 7872   3.592   7.388   6.464 -0.2482  0.2023 -2.0249
 1576SOL     OW 7873   5.687   0.955   7.411 -0.1331 -0.1612  0.0070
 1576SOL    HW1 7874   5.659   1.042   7.440 -2.2168 -0.3830 -1.0854
 1576SOL    HW2 7875   5.738   0.920   7.484  0.7271  1.9303  0.4935
 1577SOL     OW 7876   4.420   5.470   2.191 -0.1319 -0.0541 -0.3493
 1577SOL    HW1 7877   4.368   5.417   2.131 -1.2497  1.9091 -1.2128
 1577SOL    HW2 7878   4.388   5.559   2.178  2.4662  1.0421  0.1605
 1578SOL     OW 7879   2.651   4.416   2.577  0.4962  0.0378 -0.2201
 1578SOL    HW1 7880   2.666   4.332   2.534  0.9624 -0.9225  1.7225
 1578SOL    HW2 7881   2.608   4.394   2.659 -0.2832  1.8025 -0.1115
 1579SOL     OW 7882   3.226   4.499   5.191 -0.0406  0.1287 -0.2746
 1579SOL    HW1 7883   3.212   4.586   5.229  0.1706  1.5524 -3.1743
 1579SOL    HW2 7884   3.139   4.473   5.159 -0.0139 -0.5564  0.1943
 1580SOL     OW 7885   7.361   4.613   7.089  0.2575 -0.5984  0.1837
 1580SOL    HW1 7886   7.418   4.681   7.125  0.9603 -0.9185 -0.2844
 1580SOL    HW2 7887   7.418   4.565   7.028 -1.2190  0.7698 -2.4568
 1581SOL     OW 7888   7.221   1.375   6.625  0.2500  0.1834 -0.2009
 1581SOL    HW1 7889   7.230   1.416   6.539 -1.2859 -0.0059 -0.4804
 1581SOL    HW2 7890   7.139   1.325   6.619 -0.6071  1.2727  1.8111
 1582SOL     OW 7891   0.826   4.832   5.419  0.2740 -0.5070  0.0186
 1582SOL    HW1 7892   0.851   4.833   5.511  0.7651  0.8435 -0.1209
 1582SOL    HW2 7893   0.838   4.740   5.392 -2.9782 -1.7206  2.1022
 1583SOL     OW 7894   5.628   1.981   4.520 -0.2018 -0.0575  0.1101
 1583SOL    HW1 7895   5.665   1.974   4.432 -0.5786 -0.4384 -0.0216
 1583SOL    HW2 7896   5.542   1.939   4.513  0.4591 -1.6586  1.0774
 1584SOL     OW 7897   2.197   7.755   5.571  0.0018 -0.2131  0.3448
 1584SOL    HW1 7898   2.280   7.708   5.561  0.9160  0.9141  1.9952
 1584SOL    HW2 7899   2.152   7.711   5.643 -0.5948 -0.4878 -0.1904
 1585SOL     OW 7900   2.074   4.415   7.555  0.0496 -0.7515  0.4397
 1585SOL    HW1 7901   2.060   4.336   7.504 -1.9228 -1.0486  1.3690
 1585SOL    HW2 7902   2.011   4.478   7.520  1.2106  0.2663  0.0908
 1586SOL     OW 7903   4.034   7.482   3.739  0.2764  0.5775  0.2782
 1586SOL    HW1 7904   3.950   7.454   3.702  0.1525 -1.5303  1.9108
 1586SOL    HW2 7905   4.011   7.551   3.801 -0.3812 -0.3251  1.0789
 1587SOL     OW 7906   0.802   4.424   4.270  0.1843  0.2480 -0.1746
 1587SOL    HW1 7907   0.791   4.353   4.206 -0.7975 -0.5341  0.8094
 1587SOL    HW2 7908   0.880   4.399   4.320 -1.2660 -1.2450  1.4649
 1588SOL     OW 7909   7.626   1.279   3.536  0.1207 -0.3899  0.4705
 1588SOL    HW1 7910   7.592   1.295   3.624  0.7038 -0.8296  0.7791
 1588SOL    HW2 7911   7.657   1.364   3.506  1.0106 -0.4545  1.1605
 1589SOL     OW 7912   5.643   0.938   6.408  0.5551 -0.0609 -0.2220
 1589SOL    HW1 7913   5.653   1.012   6.469  1.2378  0.0253 -0.4251
 1589SOL    HW2 7914   5.573   0.886   6.446 -0.3417  0.9888 -0.3815
 1590SOL     OW 7915   5.934   8.006   4.920  0.2867  0.3663 -1.0948
 1590SOL    HW1 7916   5.946   8.010   5.015 -0.8665 -0.7733 -0.8655
 1590SOL    HW2 7917   6.017   8.036   4.884  0.3733  1.8431  0.2547
 1591SOL     OW 7918   6.962   4.811   2.051 -0.2797 -0.3678 -0.0670
 1591SOL    HW1 7919   6.994   4.808   1.961 -1.9267 -3.2132 -0.6896
 1591SOL    HW2 7920   6.897   4.741   2.055  0.2403 -0.8209  3.5304
 1592SOL     OW 7921   7.021   1.646   7.845  0.1874 -0.3462  0.0099
 1592SOL    HW1 7922   7.006   1.617   7.754  1.6544 -0.0415 -0.3581
 1592SOL    HW2 7923   7.068   1.573   7.885 -0.2786 -0.3934  0.4837
 1593SOL     OW 7924   1.763   3.421   4.053 -0.3061  0.1349  0.7134
 1593SOL    HW1 7925   1.737   3.458   4.138  0.7846  0.6321  0.8574
 1593SOL    HW2 7926   1.811   3.492   4.010 -1.1066 -0.0113 -0.4619
 1594SOL     OW 7927   4.447   6.909   4.678  0.1071 -0.3622 -0.1888
 1594SOL    HW1 7928   4.540   6.887   4.677  0.3027  0.4324 -1.0899
 1594SOL    HW2 7929   4.417   6.889   4.590 -0.5377 -0.4292  0.0429
 1595SOL     OW 7930   3.886   4.126   2.492 -0.4858 -0.4231 -0.1393
 1595SOL    HW1 7931   3.903   4.176   2.412 -1.0924 -1.7873 -1.1615
 1595SOL    HW2 7932   3.967   4.134   2.542 -0.1666  0.6380 -0.7825
 1596SOL     OW 7933   2.028   1.109   5.501 -0.0060 -0.7135  0.2868
 1596SOL    HW1 7934   1.956   1.063   5.458 -0.5463 -0.9374  1.3904
 1596SOL    HW2 7935   2.036   1.191   5.453  0.3329 -1.5202 -1.0937
 1597SOL     OW 7936   7.873   5.255   6.036  0.4569  0.2450 -0.1074
 1597SOL    HW1 7937   7.824   5.293   6.109 -0.4868  0.0588 -0.6327
 1597SOL    HW2 7938   7.964   5.262   6.064  0.2594  1.8975  0.2881
 1598SOL     OW 7939   7.636   0.973   2.884  1.0132 -0.5187  0.3178
 1598SOL    HW1 7940   7.566   0.909   2.891 -1.1395  1.6019 -0.5167
 1598SOL    HW2 7941   7.669   0.984   2.973 -1.2452 -0.0079  1.1451
 1599SOL     OW 7942   7.544   1.657   0.157  0.0060  0.3444  0.3639
 1599SOL    HW1 7943   7.468   1.685   0.207 -0.6849 -1.8414  0.6341
 1599SOL    HW2 7944   7.554   1.565   0.178  1.2826 -0.0111 -1.5357
 1600SOL     OW 7945   2.379   4.212   7.360  0.3638 -0.1260  0.2951
 1600SOL    HW1 7946   2.285   4.194   7.360  0.3640 -0.1998 -1.1056
 1600SOL    HW2 7947   2.404   4.210   7.453 -0.5731 -2.4211  0.5705
 1601SOL     OW 7948   4.935   1.547   5.696 -0.1550  0.1241  0.0664
 1601SOL    HW1 7949   4.950   1.637   5.724 -0.9894  0.8351 -1.6241
 1601SOL    HW2 7950   5.002   1.531   5.629 -0.8266 -0.0303 -0.5868
 1602SOL     OW 7951   3.367   7.682   0.864  0.2159  0.4521 -0.0179
 1602SOL    HW1 7952   3.328   7.744   0.926  0.2311  0.1192  0.3309
 1602SOL    HW2 7953   3.348   7.719   0.778  0.0802  0.8551  0.1804
 1603SOL     OW 7954   1.862   6.473   5.746  0.6269 -0.2544 -0.8654
 1603SOL    HW1 7955   1.798   6.407   5.719  0.3964 -0.1520 -0.5729
 1603SOL    HW2 7956   1.811   6.539   5.793  1.1123 -0.8012  0.4869
 1604SOL     OW 7957   1.148   8.014   7.605 -0.2249  0.6029 -0.2402
 1604SOL    HW1 7958   1.238   8.017   7.575 -0.1712 -1.3990 -0.4190
 1604SOL    HW2 7959   1.116   8.103   7.594  1.9635  1.5645  0.6502
 1605SOL     OW 7960   2.895   1.640   3.416 -0.3050  0.0370  0.8864
 1605SOL    HW1 7961   2.819   1.609   3.366  0.3575  0.7813 -0.6585
 1605SOL    HW2 7962   2.923   1.564   3.467 -1.2139 -0.6665  0.3641
 1606SOL     OW 7963   0.888   0.461   5.020 -0.0035  0.3292 -0.1944
 1606SOL    HW1 7964   0.811   0.507   4.988 -0.8475 -1.5507 -1.0084
 1606SOL    HW2 7965   0.858   0.412   5.096 -0.4327 -2.5852 -2.0777
 1607SOL     OW 7966   6.600   4.111   4.678  0.1799  0.0339 -0.3818
 1607SOL    HW1 7967   6.573   4.067   4.597  0.8473  0.0632 -0.6249
 1607SOL    HW2 7968   6.690   4.083   4.692  0.2091  0.3628  0.1263
 1608SOL     OW 7969   0.371   6.830   3.011 -0.2156  0.2019  0.1711
 1608SOL    HW1 7970   0.296   6.875   3.051  1.2161  4.0998 -1.0146
 1608SOL    HW2 7971   0.359   6.843   2.917  2.0449  1.2969 -0.0356
 1609SOL     OW 7972   1.754   3.477   2.442 -0.1438 -0.0053  0.7702
 1609SOL    HW1 7973   1.771   3.541   2.373 -0.4582 -0.3669  0.3571
 1609SOL    HW2 7974   1.670   3.503   2.480 -0.3819 -0.2943  0.4538
 1610SOL     OW 7975   4.465   2.351   4.953  0.6530  0.2156  0.2684
 1610SOL    HW1 7976   4.421   2.362   4.870 -0.1865  0.2235  0.7095
 1610SOL    HW2 7977   4.405   2.297   5.006  2.3808 -2.2584 -0.0905
 1611SOL     OW 7978   4.228   1.631   1.589  0.2138  0.2424  0.1384
 1611SOL    HW1 7979   4.304   1.581   1.618 -0.4451 -0.2063  1.1303
 1611SOL    HW2 7980   4.162   1.564   1.570  0.0306  0.6340 -0.6444
 1612SOL     OW 7981   0.292   7.644   7.265  0.3580  0.1423  0.0819
 1612SOL    HW1 7982   0.326   7.699   7.195 -0.3872  0.3171 -0.1497
 1612SOL    HW2 7983   0.308   7.694   7.345  1.1438 -0.0269  0.0395
 1613SOL     OW 7984   0.569   5.638   0.102  0.0054  0.2864  0.3610
 1613SOL    HW1 7985   0.529   5.615   0.018 -1.2452  0.4227  0.9001
 1613SOL    HW2 7986   0.545   5.730   0.116 -0.9282 -0.0990  1.4732
 1614SOL     OW 7987   1.163   6.167   7.081  0.2042  0.2378  0.7532
 1614SOL    HW1 7988   1.234   6.204   7.133  0.5719 -0.9088  1.0967
 1614SOL    HW2 7989   1.206   6.105   7.022 -0.4529 -0.1235  0.6440
 1615SOL     OW 7990   0.751   5.286   2.711 -0.2624  0.5701  0.4371
 1615SOL    HW1 7991   0.681   5.334   2.665 -0.4437  0.7259  0.8720
 1615SOL    HW2 7992   0.705   5.219   2.761 -0.1498  1.0073  1.1403
 1616SOL     OW 7993   7.726   7.145   4.949  0.4105 -0.0524 -0.2557
 1616SOL    HW1 7994   7.769   7.136   5.034  0.8368  0.0818 -0.4552
 1616SOL    HW2 7995   7.719   7.055   4.916  1.7438  0.0289 -0.8101
 1617SOL     OW 7996   1.597   6.357   0.728 -0.5090 -0.3010 -0.0433
 1617SOL    HW1 7997   1.614   6.433   0.783  0.7974  0.2377 -1.1123
 1617SOL    HW2 7998   1.568   6.393   0.644  0.3202 -0.9468 -0.6311
 1618SOL     OW 7999   0.728   4.784   3.146  0.5513  0.8517 -0.2832
 1618SOL    HW1 8000   0.736   4.694   3.176  0.1202  0.3472 -1.6242
 1618SOL    HW2 8001   0.791   4.833   3.200 -0.4244  0.0754  1.6359
 1619SOL     OW 8002   2.987   5.040   1.721  0.1455  0.2797 -0.1428
 1619SOL    HW1 8003   2.970   5.089   1.801 -0.8446  0.4177 -0.4288
 1619SOL    HW2 8004   3.080   5.055   1.704  0.3281  0.3960  0.8740
 1620SOL     OW 8005   5.639   7.429   7.367  0.1352 -0.4608  0.4435
 1620SOL    HW1 8006   5.619   7.382   7.448 -1.0212  1.1050  1.1230
 1620SOL    HW2 8007   5.637   7.521   7.392 -0.3175  0.0631 -1.3722
 1621SOL     OW 8008   2.189   2.741   6.423  0.5976  0.0408  0.0763
 1621SOL    HW1 8009   2.112   2.797   6.415  1.4573  1.2939  0.1888
 1621SOL    HW2 8010   2.219   2.755   6.513  1.3562  0.1203 -0.1844
 1622SOL     OW 8011   7.120   4.253   8.031 -0.2607 -0.1316 -0.3798
 1622SOL    HW1 8012   7.144   4.269   7.940 -1.5205  0.1160 -0.6841
 1622SOL    HW2 8013   7.031   4.285   8.039  0.1487  0.7592  1.2036
 1623SOL     OW 8014   5.485   3.647   4.316 -0.7864 -0.4067 -0.2495
 1623SOL    HW1 8015   5.450   3.706   4.250 -0.2446  0.8402  0.5428
 1623SOL    HW2 8016   5.457   3.684   4.399 -2.5740 -2.6567  0.2648
 1624SOL     OW 8017   7.507   5.396   3.712  0.6671  0.0993  0.0071
 1624SOL    HW1 8018   7.548   5.339   3.646  2.1018  1.2149 -0.1204
 1624SOL    HW2 8019   7.416   5.402   3.684  1.0393 -0.1865 -1.3890
 1625SOL     OW 8020   1.577   7.489   5.151 -0.0284  0.1227 -0.1266
 1625SOL    HW1 8021   1.559   7.399   5.177  1.2662 -0.4788 -1.1953
 1625SOL    HW2 8022   1.562   7.490   5.056 -0.0392  1.0277 -0.1237
 1626SOL     OW 8023   5.726   5.792   6.149  0.5056  0.0199  0.2692
 1626SOL    HW1 8024   5.790   5.824   6.085  1.3973 -1.6801  0.2607
 1626SOL    HW2 8025   5.701   5.870   6.198  1.6119  0.9485 -0.5776
 1627SOL     OW 8026   1.830   3.959   1.842 -0.5553 -0.5068 -0.0035
 1627SOL    HW1 8027   1.834   3.991   1.752 -1.4241  1.6435  0.6718
 1627SOL    HW2 8028   1.743   3.920   1.850 -1.1344  0.8154  0.3477
 1628SOL     OW 8029   1.664   7.206   5.557 -0.6084 -0.0983 -0.2247
 1628SOL    HW1 8030   1.743   7.242   5.598  0.3566 -2.1258 -0.1998
 1628SOL    HW2 8031   1.658   7.117   5.592 -0.9755 -1.1482 -2.8035
 1629SOL     OW 8032   4.389   3.041   8.051  0.3249 -0.7647  0.5809
 1629SOL    HW1 8033   4.468   2.990   8.071  0.9984  0.1488  0.3463
 1629SOL    HW2 8034   4.417   3.132   8.060 -0.2448 -0.3838 -1.1375
 1630SOL     OW 8035   2.344   4.160   5.540  0.0745 -0.0486  0.1469
 1630SOL    HW1 8036   2.355   4.232   5.479  1.3513 -0.2358  0.1387
 1630SOL    HW2 8037   2.252   4.164   5.565 -0.4704  0.0683 -1.7255
 1631SOL     OW 8038   6.732   6.179   7.774 -0.2827 -0.0280  0.1207
 1631SOL    HW1 8039   6.733   6.129   7.856 -0.2088 -1.1142 -0.5193
 1631SOL    HW2 8040   6.824   6.178   7.745 -0.2027  0.8718  0.3193
 1632SOL     OW 8041   2.869   5.485   1.271  0.5738 -0.3957 -0.6779
 1632SOL    HW1 8042   2.828   5.469   1.186  0.6666  0.7291 -0.9390
 1632SOL    HW2 8043   2.861   5.401   1.317  1.2987 -1.2818 -2.1079
 1633SOL     OW 8044   1.703   3.297   2.772  0.2257 -0.1187 -0.2328
 1633SOL    HW1 8045   1.630   3.252   2.729 -0.3771 -0.9096  1.5065
 1633SOL    HW2 8046   1.663   3.376   2.808 -0.0265 -0.9733  1.4622
 1634SOL     OW 8047   1.395   5.896   3.081 -0.1562  0.1951  0.2086
 1634SOL    HW1 8048   1.480   5.858   3.058 -0.2736 -0.8198  1.3346
 1634SOL    HW2 8049   1.391   5.889   3.176 -1.5670  0.1020  0.1584
 1635SOL     OW 8050   5.347   4.563   4.156 -0.4471  0.0242 -0.1534
 1635SOL    HW1 8051   5.259   4.571   4.193 -0.9273 -1.4078 -0.9453
 1635SOL    HW2 8052   5.404   4.553   4.233 -1.0784 -0.0023  0.3201
 1636SOL     OW 8053   1.683   2.529   6.360  0.1651 -0.5908  0.4285
 1636SOL    HW1 8054   1.652   2.452   6.315 -0.9868 -0.1180  0.3906
 1636SOL    HW2 8055   1.700   2.593   6.291 -1.8141  0.2100  0.6290
 1637SOL     OW 8056   4.758   4.646   1.048  0.4387  1.0218  0.8327
 1637SOL    HW1 8057   4.792   4.736   1.046  3.9256 -0.1381 -0.7487
 1637SOL    HW2 8058   4.753   4.620   0.956  0.3905 -0.6845  1.2868
 1638SOL     OW 8059   0.783   2.529   7.013  0.0718  0.8808 -0.2016
 1638SOL    HW1 8060   0.741   2.493   6.936  1.9025 -0.9980 -0.4306
 1638SOL    HW2 8061   0.712   2.569   7.063 -1.0359  3.0719 -3.2542
 1639SOL     OW 8062   6.595   1.532   4.476  0.4521 -0.0791 -0.4128
 1639SOL    HW1 8063   6.547   1.614   4.473  1.2763  0.5242  1.3676
 1639SOL    HW2 8064   6.538   1.469   4.431 -1.4483  0.8433  0.5948
 1640SOL     OW 8065   3.354   4.788   1.794 -0.4889  0.2538 -0.4859
 1640SOL    HW1 8066   3.412   4.858   1.765 -0.9000  0.7343 -0.1717
 1640SOL    HW2 8067   3.413   4.719   1.823 -0.0688 -0.0003 -1.8738
 1641SOL     OW 8068   3.739   4.581   2.310 -0.4757 -0.3425  0.2916
 1641SOL    HW1 8069   3.691   4.499   2.302  0.7424 -1.0580 -0.0569
 1641SOL    HW2 8070   3.773   4.598   2.222 -1.3014  0.9392  0.1924
 1642SOL     OW 8071   4.243   4.496   5.576  0.0997 -0.3418 -0.1654
 1642SOL    HW1 8072   4.279   4.447   5.502  2.0347  1.4690 -0.5270
 1642SOL    HW2 8073   4.251   4.588   5.551  0.9194  0.3476  2.2934
 1643SOL     OW 8074   1.143   5.338   5.869 -0.3728  0.3015  0.6700
 1643SOL    HW1 8075   1.063   5.382   5.839 -0.0376 -0.0879 -0.9067
 1643SOL    HW2 8076   1.156   5.267   5.806  0.3991 -0.5852  1.7843
 1644SOL     OW 8077   7.434   4.141   6.049 -0.8876 -0.6273 -0.3381
 1644SOL    HW1 8078   7.514   4.115   6.095 -1.0434  0.7566  0.7858
 1644SOL    HW2 8079   7.392   4.203   6.108 -0.9359  1.5410 -2.4779
 1645SOL     OW 8080   1.915   2.227   5.564  0.2357  0.5345 -0.2133
 1645SOL    HW1 8081   1.851   2.292   5.535  0.0645 -0.2712 -1.7320
 1645SOL    HW2 8082   1.923   2.167   5.490  0.9920 -0.7166  0.8526
 1646SOL     OW 8083   7.130   6.067   7.835 -0.5277  0.1919 -0.2017
 1646SOL    HW1 8084   7.083   6.044   7.755 -0.3825 -2.2630  0.3480
 1646SOL    HW2 8085   7.209   6.112   7.804 -0.9613  0.1676 -1.3821
 1647SOL     OW 8086   2.488   6.254   1.593  0.1568  0.3040 -0.3583
 1647SOL    HW1 8087   2.457   6.277   1.680  0.5943 -0.3596 -0.0150
 1647SOL    HW2 8088   2.434   6.179   1.568  0.1641  0.3714 -0.5764
 1648SOL     OW 8089   3.853   7.293   7.480 -0.5794 -0.4551 -0.5859
 1648SOL    HW1 8090   3.835   7.229   7.411  0.5426 -0.3423 -0.9983
 1648SOL    HW2 8091   3.945   7.280   7.502 -0.1678  1.3642 -1.0570
 1649SOL     OW 8092   6.635   3.204   4.902  0.2719  0.2588 -0.0556
 1649SOL    HW1 8093   6.689   3.125   4.895 -0.2723 -0.1615  0.3817
 1649SOL    HW2 8094   6.580   3.189   4.979  1.0570  1.6232  0.8040
 1650SOL     OW 8095   6.693   4.688   0.713 -0.9021 -0.1614 -0.4688
 1650SOL    HW1 8096   6.638   4.743   0.769 -1.3233 -0.2204 -0.8222
 1650SOL    HW2 8097   6.741   4.751   0.658 -0.9926 -0.1279 -0.5093
 1651SOL     OW 8098   2.689   0.356   5.431  0.4196 -0.4874 -0.0594
 1651SOL    HW1 8099   2.594   0.352   5.444  0.3559 -1.5240 -0.7505
 1651SOL    HW2 8100   2.715   0.437   5.475 -0.9700  0.5269 -1.0093
 1652SOL     OW 8101   4.144   5.934   4.725  0.2323  0.1248 -0.3640
 1652SOL    HW1 8102   4.089   5.905   4.653 -0.4644  0.2670  0.1072
 1652SOL    HW2 8103   4.121   5.876   4.797 -0.4367  1.1735  0.2890
 1653SOL     OW 8104   2.447   3.904   7.061  0.4104  0.0837  0.0842
 1653SOL    HW1 8105   2.417   3.856   6.984  2.1044  0.4558 -0.8611
 1653SOL    HW2 8106   2.446   3.839   7.132 -0.3305 -0.4960 -0.4374
 1654SOL     OW 8107   6.804   0.836   6.527  0.2104 -0.3400  0.3321
 1654SOL    HW1 8108   6.811   0.830   6.623 -1.1295  0.8337  0.5266
 1654SOL    HW2 8109   6.882   0.790   6.495  0.9840 -0.2766  1.9959
 1655SOL     OW 8110   0.345   2.841   4.370 -0.0194  0.7515 -0.4588
 1655SOL    HW1 8111   0.345   2.825   4.275  0.8153  1.0888 -0.5295
 1655SOL    HW2 8112   0.394   2.923   4.380  0.7794  0.1968  0.3433
 1656SOL     OW 8113   4.634   4.815   6.851 -0.5609 -0.2177 -0.1647
 1656SOL    HW1 8114   4.700   4.885   6.855  0.0529 -0.7404 -0.7181
 1656SOL    HW2 8115   4.594   4.815   6.937  0.2662  0.0314  0.2381
 1657SOL     OW 8116   7.727   5.964   2.984  1.1736  0.4156  0.2958
 1657SOL    HW1 8117   7.792   6.026   3.017  0.6090  1.5114 -0.5979
 1657SOL    HW2 8118   7.679   6.012   2.916 -1.2942  0.0420  1.6349
 1658SOL     OW 8119   2.062   7.126   6.456  0.3109 -0.0541 -0.1617
 1658SOL    HW1 8120   2.102   7.177   6.526  2.2224 -0.1693 -1.1079
 1658SOL    HW2 8121   1.974   7.161   6.448  0.4792  0.8045  1.4528
 1659SOL     OW 8122   3.138   5.111   0.414  0.1429 -0.3652  0.3799
 1659SOL    HW1 8123   3.093   5.167   0.478  0.5069  1.8874 -1.2086
 1659SOL    HW2 8124   3.076   5.042   0.393 -0.6198 -0.1671  1.8791
 1660SOL     OW 8125   7.664   7.837   1.021  0.2082 -0.2195  0.1970
 1660SOL    HW1 8126   7.746   7.788   1.033  1.4934  1.7260 -0.2280
 1660SOL    HW2 8127   7.688   7.928   1.036 -2.0524  0.3528  0.7091
 1661SOL     OW 8128   3.156   7.820   5.350  0.3505  0.5594 -0.2735
 1661SOL    HW1 8129   3.188   7.745   5.300 -0.5800  0.9650 -1.5474
 1661SOL    HW2 8130   3.091   7.784   5.410 -2.1346  0.5722 -2.7493
 1662SOL     OW 8131   0.423   1.344   6.082 -0.1531 -0.2800  0.5558
 1662SOL    HW1 8132   0.501   1.365   6.134 -0.0405 -0.5592  0.5015
 1662SOL    HW2 8133   0.364   1.303   6.144 -0.5227  0.5201  0.7476
 1663SOL     OW 8134   5.761   2.928   0.408 -1.0622 -0.5814  0.2508
 1663SOL    HW1 8135   5.807   2.959   0.330 -0.7110 -0.5877  0.4543
 1663SOL    HW2 8136   5.713   2.851   0.378 -0.2171 -1.1207  0.2417
 1664SOL     OW 8137   7.561   0.775   6.203  0.2234 -0.2613 -0.1148
 1664SOL    HW1 8138   7.602   0.689   6.215  0.8919  0.0272 -0.3186
 1664SOL    HW2 8139   7.540   0.779   6.110 -0.0513 -0.3082 -0.0566
 1665SOL     OW 8140   0.821   7.730   1.728  0.2532 -0.4904 -0.4832
 1665SOL    HW1 8141   0.913   7.704   1.734 -0.0703 -1.8152 -0.9242
 1665SOL    HW2 8142   0.777   7.677   1.795 -0.2038  0.0796 -0.3308
 1666SOL     OW 8143   3.985   0.862   0.923  0.1635 -0.4513 -0.3081
 1666SOL    HW1 8144   4.026   0.944   0.894  1.2012 -0.6741  0.4767
 1666SOL    HW2 8145   3.899   0.889   0.954  0.0722  0.1796 -1.0590
 1667SOL     OW 8146   0.303   5.263   5.860 -0.1132 -0.3527 -0.6951
 1667SOL    HW1 8147   0.379   5.310   5.826  0.5064 -0.4998  0.4325
 1667SOL    HW2 8148   0.272   5.211   5.787  0.0162  0.7719 -1.5785
 1668SOL     OW 8149   3.302   5.592   7.113  0.0533  0.1186 -0.4363
 1668SOL    HW1 8150   3.306   5.498   7.131 -4.9455  0.1250  2.7594
 1668SOL    HW2 8151   3.289   5.599   7.019  0.2168 -2.4161 -0.6994
 1669SOL     OW 8152   1.190   6.872   1.493 -0.2717  0.0030  0.2036
 1669SOL    HW1 8153   1.128   6.933   1.452  0.5136  0.3909 -0.4519
 1669SOL    HW2 8154   1.233   6.924   1.561  0.3471  0.1782 -0.3079
 1670SOL     OW 8155   1.299   0.531   2.226 -0.1519 -0.5394 -0.5175
 1670SOL    HW1 8156   1.325   0.593   2.157 -1.3073 -0.5099 -0.9441
 1670SOL    HW2 8157   1.301   0.446   2.182  0.3908 -0.6904 -0.2159
 1671SOL     OW 8158   7.563   2.358   5.423  0.2777 -0.1333 -0.0113
 1671SOL    HW1 8159   7.484   2.411   5.414  0.8001  0.5463 -0.6791
 1671SOL    HW2 8160   7.584   2.332   5.333  0.6910 -0.4957  0.1876
 1672SOL     OW 8161   2.342   7.782   0.932 -0.4248  0.0608 -0.0474
 1672SOL    HW1 8162   2.305   7.869   0.946 -2.1270 -0.7501  0.7612
 1672SOL    HW2 8163   2.408   7.773   1.001  0.1460  0.8876 -0.4689
 1673SOL     OW 8164   1.240   4.621   6.933 -0.1110 -0.0452 -0.8767
 1673SOL    HW1 8165   1.252   4.696   6.876 -0.2525 -0.9752 -2.1633
 1673SOL    HW2 8166   1.175   4.566   6.889  0.4388 -1.2186 -0.2827
 1674SOL     OW 8167   4.523   0.963   4.374  0.2677  0.1855  0.6038
 1674SOL    HW1 8168   4.447   0.916   4.407  1.8876 -2.4193  0.9215
 1674SOL    HW2 8169   4.517   0.955   4.279  0.2595 -0.1914  0.6369
 1675SOL     OW 8170   6.807   7.171   4.626 -0.4804 -0.0911 -0.0851
 1675SOL    HW1 8171   6.889   7.217   4.609 -1.0461  0.5782 -1.1220
 1675SOL    HW2 8172   6.784   7.194   4.715  1.2162 -1.5182  0.7915
 1676SOL     OW 8173   5.290   3.871   4.356  0.1629 -0.1318 -0.5499
 1676SOL    HW1 8174   5.197   3.891   4.354  0.3584  0.7862 -0.9540
 1676SOL    HW2 8175   5.306   3.843   4.446  0.0431  2.6169  0.4304
 1677SOL     OW 8176   4.826   0.020   8.025 -0.1934 -0.3116  0.0309
 1677SOL    HW1 8177   4.832  -0.001   7.931  0.5470 -1.2019  0.2562
 1677SOL    HW2 8178   4.807  -0.064   8.067 -2.0718  0.3406  0.5704
 1678SOL     OW 8179   5.746   1.172   4.160  0.0396 -0.1361 -0.1628
 1678SOL    HW1 8180   5.733   1.198   4.251  0.5859  1.0107 -0.3886
 1678SOL    HW2 8181   5.825   1.118   4.162 -0.3042 -0.6327  0.1251
 1679SOL     OW 8182   1.614   7.789   4.458 -0.2903 -0.2779 -0.6082
 1679SOL    HW1 8183   1.577   7.763   4.374 -0.5146  0.2748 -0.6847
 1679SOL    HW2 8184   1.651   7.876   4.442  1.3402 -0.9324 -0.6280
 1680SOL     OW 8185   1.466   1.948   7.057 -0.0730 -0.1082 -0.5769
 1680SOL    HW1 8186   1.444   2.018   7.119 -1.3297 -0.5761 -0.4782
 1680SOL    HW2 8187   1.442   1.983   6.971  0.5966  0.0956 -0.6917
 1681SOL     OW 8188   3.598   1.266   3.214  0.1642 -0.1176 -0.0824
 1681SOL    HW1 8189   3.528   1.205   3.195 -0.1477  0.3681 -0.5016
 1681SOL    HW2 8190   3.662   1.252   3.145  0.6606 -0.8064  0.4920
 1682SOL     OW 8191   7.650   6.261   2.138  0.1608 -0.0235  0.4509
 1682SOL    HW1 8192   7.743   6.276   2.121 -0.0674  0.8432 -0.0562
 1682SOL    HW2 8193   7.613   6.241   2.051 -0.1475 -0.2802  0.6386
 1683SOL     OW 8194   3.011   3.126   3.736  0.3086  0.2554  0.0454
 1683SOL    HW1 8195   3.046   3.188   3.800  1.5462  0.3732 -0.7170
 1683SOL    HW2 8196   3.036   3.040   3.770  0.7700  0.3076 -0.1507
 1684SOL     OW 8197   7.243   3.899   3.023 -0.2548  0.0546 -0.0909
 1684SOL    HW1 8198   7.152   3.902   2.996 -0.5225 -2.1614  0.4221
 1684SOL    HW2 8199   7.242   3.857   3.109  1.1063  1.6662  0.7983
 1685SOL     OW 8200   1.715   6.159   0.858 -0.1621 -0.3984  0.0747
 1685SOL    HW1 8201   1.664   6.228   0.817  0.8097 -0.3620 -1.1162
 1685SOL    HW2 8202   1.705   6.175   0.952 -1.7546  0.0091 -0.1287
 1686SOL     OW 8203   0.916   5.600   4.539 -0.8646 -0.1800  0.1586
 1686SOL    HW1 8204   0.896   5.682   4.494 -0.7999  0.0334  0.5127
 1686SOL    HW2 8205   0.878   5.611   4.627  0.2598 -0.0108  0.6394
 1687SOL     OW 8206   3.944   5.401   6.385 -0.2298 -0.2127  0.1916
 1687SOL    HW1 8207   4.033   5.436   6.379 -0.9532  1.6685 -0.3142
 1687SOL    HW2 8208   3.898   5.441   6.311 -0.7322 -3.6902 -1.5612
 1688SOL     OW 8209   5.294   1.455   7.407 -0.4496 -0.2586 -0.3094
 1688SOL    HW1 8210   5.311   1.548   7.390  0.0625 -0.1538  0.6912
 1688SOL    HW2 8211   5.204   1.453   7.438 -1.5677 -0.5065 -3.2322
 1689SOL     OW 8212   0.198   1.122   3.020 -0.6741  0.0441 -0.0875
 1689SOL    HW1 8213   0.237   1.036   3.032 -0.0692 -0.0706 -2.3387
 1689SOL    HW2 8214   0.153   1.117   2.935 -1.1308  1.7614 -0.0016
 1690SOL     OW 8215   5.697   8.052   7.332 -0.2134 -0.0838  0.2079
 1690SOL    HW1 8216   5.770   8.097   7.374  0.4758  0.2625 -1.2769
 1690SOL    HW2 8217   5.657   8.001   7.402  1.3984 -0.2240  1.0954
 1691SOL     OW 8218   7.798   7.697   2.792 -0.4477  0.1641  0.1563
 1691SOL    HW1 8219   7.757   7.690   2.878 -2.5704  0.1625 -0.8025
 1691SOL    HW2 8220   7.878   7.749   2.807 -1.3521  1.1168  1.9284
 1692SOL     OW 8221   7.077   5.276   0.383 -0.4954 -0.0147 -0.2306
 1692SOL    HW1 8222   6.988   5.250   0.404 -0.7676  1.9446  1.2887
 1692SOL    HW2 8223   7.073   5.304   0.291 -1.5888  0.5490 -0.0300
 1693SOL     OW 8224   1.550   5.024   6.155  0.4042 -0.0378  0.5668
 1693SOL    HW1 8225   1.612   5.027   6.082 -1.4843  0.1552 -1.1264
 1693SOL    HW2 8226   1.544   5.114   6.186 -0.8578  0.4472 -0.9551
 1694SOL     OW 8227   2.715   2.636   1.781  0.2446  0.1527  0.5958
 1694SOL    HW1 8228   2.672   2.661   1.699 -0.2235  0.6279  0.9774
 1694SOL    HW2 8229   2.744   2.546   1.766 -3.2796 -1.2748  1.2115
 1695SOL     OW 8230   0.436   3.536   0.234 -0.5265 -0.0912  0.0013
 1695SOL    HW1 8231   0.357   3.543   0.287 -1.5099  0.9068 -1.5277
 1695SOL    HW2 8232   0.470   3.625   0.229  0.9929 -0.5699  1.0096
 1696SOL     OW 8233   2.006   7.884   5.206 -0.0699  0.3336  0.3285
 1696SOL    HW1 8234   2.004   7.814   5.141  0.0455 -0.2827  0.9893
 1696SOL    HW2 8235   2.014   7.964   5.154 -1.0902 -0.0691 -0.4758
 1697SOL     OW 8236   0.037   7.901   6.560 -0.5460 -0.3533 -0.1670
 1697SOL    HW1 8237   0.088   7.877   6.637  2.1368  0.8682 -1.4512
 1697SOL    HW2 8238  -0.009   7.981   6.586  3.0931  2.1538 -0.7069
 1698SOL     OW 8239   0.289   0.817   4.548  0.7086 -0.5402 -0.0614
 1698SOL    HW1 8240   0.369   0.765   4.550  0.2042 -1.3736 -0.6754
 1698SOL    HW2 8241   0.260   0.820   4.640  1.5524 -0.0429  0.1932
 1699SOL     OW 8242   3.995   0.823   0.394 -0.2098  0.4116 -0.2603
 1699SOL    HW1 8243   4.017   0.912   0.423 -0.3810  0.2356  0.4322
 1699SOL    HW2 8244   3.901   0.815   0.410  0.2260 -0.7722  2.1820
 1700SOL     OW 8245   6.109   4.362   0.559 -0.8118 -0.1382 -1.1550
 1700SOL    HW1 8246   6.086   4.452   0.537 -3.3201 -0.0404  1.3613
 1700SOL    HW2 8247   6.051   4.309   0.504 -0.9471 -0.1552 -0.9953
 1701SOL     OW 8248   2.135   6.019   4.680  0.1842 -0.0682 -0.1053
 1701SOL    HW1 8249   2.227   5.991   4.683  1.0146  2.3450 -0.4581
 1701SOL    HW2 8250   2.090   5.948   4.636  1.9596 -1.1484 -0.2948
 1702SOL     OW 8251   4.703   0.122   3.202 -0.0080 -0.0048 -0.2398
 1702SOL    HW1 8252   4.691   0.206   3.157 -1.0576  0.5615  0.9972
 1702SOL    HW2 8253   4.771   0.139   3.267  0.1035 -0.2457 -0.2923
 1703SOL     OW 8254   3.935   6.108   1.024 -0.0103 -0.0171 -0.1093
 1703SOL    HW1 8255   4.028   6.096   1.009 -0.1852 -0.2254 -1.0849
 1703SOL    HW2 8256   3.922   6.202   1.025  0.1288  0.0075 -0.5093
 1704SOL     OW 8257   0.980   0.273   0.190 -0.0396  0.6597 -0.1756
 1704SOL    HW1 8258   1.016   0.348   0.142  2.3413  0.0091  0.4290
 1704SOL    HW2 8259   0.989   0.298   0.282 -0.7863  0.2754  0.0118
 1705SOL     OW 8260   4.074   4.065   4.210  0.6480  0.3340 -0.1898
 1705SOL    HW1 8261   4.118   4.085   4.127  0.7841  0.4354 -0.0956
 1705SOL    HW2 8262   4.008   4.000   4.188  2.2903 -1.4823  0.0250
 1706SOL     OW 8263   4.472   3.483   6.629 -0.0872  1.0251  0.3417
 1706SOL    HW1 8264   4.394   3.511   6.580  1.1410  0.0681 -2.3844
 1706SOL    HW2 8265   4.545   3.497   6.568  1.2810 -2.5219  0.9334
 1707SOL     OW 8266   7.367   5.522   2.609 -0.3031 -0.0594  0.7761
 1707SOL    HW1 8267   7.410   5.574   2.677 -2.0789  0.4247  1.5891
 1707SOL    HW2 8268   7.327   5.588   2.551  1.0503 -0.4631 -0.7014
 1708SOL     OW 8269   1.425   3.673   6.756 -0.2199 -0.1231  0.0819
 1708SOL    HW1 8270   1.351   3.613   6.742 -0.1756  0.1170 -1.3798
 1708SOL    HW2 8271   1.441   3.670   6.850  0.0080 -2.6672  0.0346
 1709SOL     OW 8272   7.996   2.447   2.758  0.4756 -0.4339  0.5145
 1709SOL    HW1 8273   7.963   2.410   2.840  0.3502 -0.4627  0.4501
 1709SOL    HW2 8274   8.050   2.521   2.785 -0.9904  0.6610  0.5302
 1710SOL     OW 8275   3.038   5.911   6.796  0.0506  1.1112 -0.1008
 1710SOL    HW1 8276   3.092   5.963   6.856  0.7480 -0.3492  0.5982
 1710SOL    HW2 8277   2.986   5.855   6.854  0.4300 -0.0284 -0.8284
 1711SOL     OW 8278   7.059   1.158   5.003 -0.0604  0.5938 -0.1660
 1711SOL    HW1 8279   7.116   1.125   4.932 -1.3707  0.2376 -1.0872
 1711SOL    HW2 8280   6.971   1.153   4.966 -0.7630  0.5116  1.4729
 1712SOL     OW 8281   3.500   3.998   2.897 -0.4680 -0.4625  0.8078
 1712SOL    HW1 8282   3.587   3.969   2.924 -0.5906 -1.4413  0.1697
 1712SOL    HW2 8283   3.493   4.088   2.931  2.6831  1.6052 -3.2081
 1713SOL     OW 8284   3.519   0.116   7.624  0.4278  0.0404 -0.9706
 1713SOL    HW1 8285   3.481   0.178   7.562 -0.5912 -0.9177 -1.3559
 1713SOL    HW2 8286   3.588   0.072   7.576  1.4921  1.1850 -0.5418
 1714SOL     OW 8287   1.294   5.656   2.089  0.0342 -0.4254  0.6733
 1714SOL    HW1 8288   1.357   5.588   2.111 -0.0744 -0.7002  0.1385
 1714SOL    HW2 8289   1.219   5.638   2.146  0.2806 -0.3307  1.0309
 1715SOL     OW 8290   4.473   0.992   3.371  0.5271  0.1577  0.7149
 1715SOL    HW1 8291   4.483   0.897   3.361  0.2147  0.3231 -1.5341
 1715SOL    HW2 8292   4.562   1.024   3.388  0.9690 -0.3340 -0.5835
 1716SOL     OW 8293   2.408   4.289   2.176 -0.6135 -0.7060 -0.0948
 1716SOL    HW1 8294   2.336   4.242   2.133  0.7739 -0.4748 -2.9386
 1716SOL    HW2 8295   2.381   4.381   2.173 -1.5313 -0.8749  1.7546
 1717SOL     OW 8296   0.056   1.677   7.049 -0.2638  0.1310 -0.2138
 1717SOL    HW1 8297   0.119   1.672   6.977  0.1752  0.8652  0.1183
 1717SOL    HW2 8298   0.012   1.761   7.036 -0.5552  0.0233  0.0741
 1718SOL     OW 8299   5.357   8.059   4.999 -0.6318  0.5258 -0.1227
 1718SOL    HW1 8300   5.279   8.007   4.982 -0.9041  0.3554  1.4874
 1718SOL    HW2 8301   5.354   8.129   4.934 -0.9474 -0.7127 -1.4849
 1719SOL     OW 8302   0.184   6.372   7.488  0.3570 -0.4949 -0.1722
 1719SOL    HW1 8303   0.219   6.343   7.403  2.1401 -0.2198  0.4288
 1719SOL    HW2 8304   0.096   6.335   7.491  0.4647 -0.9948 -1.9000
 1720SOL     OW 8305   6.976   1.185   2.834 -0.0413 -0.0594  0.4827
 1720SOL    HW1 8306   7.004   1.207   2.923  1.3574  0.7916 -0.1159
 1720SOL    HW2 8307   6.947   1.268   2.797 -0.6396 -0.4129  0.1395
 1721SOL     OW 8308   4.447   1.678   4.707  0.2680  0.0601 -0.2059
 1721SOL    HW1 8309   4.527   1.730   4.700  0.6808 -0.5503 -0.0859
 1721SOL    HW2 8310   4.376   1.743   4.707  0.7579  0.6010 -0.3473
 1722SOL     OW 8311   0.091   1.066   5.672  0.5944 -0.1096 -0.2696
 1722SOL    HW1 8312   0.163   1.004   5.682  1.0023  0.3185 -0.4477
 1722SOL    HW2 8313   0.121   1.145   5.718  0.6293  0.3758 -1.1013
 1723SOL     OW 8314   1.846   1.739   6.895  0.5217 -0.2558 -0.2847
 1723SOL    HW1 8315   1.842   1.728   6.990  0.3279 -0.7814 -0.3502
 1723SOL    HW2 8316   1.898   1.819   6.882 -0.8362  0.7650  0.3073
 1724SOL     OW 8317   7.680   1.788   1.695  0.5922 -0.4107 -0.9036
 1724SOL    HW1 8318   7.627   1.817   1.621  0.1587  0.4787 -0.2533
 1724SOL    HW2 8319   7.696   1.695   1.677 -1.0124 -0.6590 -1.2241
 1725SOL     OW 8320   5.917   0.803   2.321  0.5057  0.0032 -0.0071
 1725SOL    HW1 8321   5.882   0.842   2.241  0.7713  0.3513  0.0412
 1725SOL    HW2 8322   5.883   0.859   2.392  1.0243  0.2537  0.0503
 1726SOL     OW 8323   0.584   6.608   5.972  0.1411 -0.7220  0.0757
 1726SOL    HW1 8324   0.586   6.565   5.887 -0.1081  1.5337 -1.1529
 1726SOL    HW2 8325   0.671   6.644   5.983  0.0129 -0.5421  0.5382
 1727SOL     OW 8326   6.164   6.856   2.683  0.0749  0.1618  0.0853
 1727SOL    HW1 8327   6.248   6.853   2.730 -0.6209  1.2817  1.4968
 1727SOL    HW2 8328   6.120   6.775   2.707  0.6561 -0.3453 -0.5146
 1728SOL     OW 8329   4.276   6.739   5.268  0.1475 -0.3317 -0.0567
 1728SOL    HW1 8330   4.330   6.805   5.311  0.3216 -1.6571  1.8657
 1728SOL    HW2 8331   4.337   6.690   5.213 -0.2204  1.9146 -2.7193
 1729SOL     OW 8332   3.095   6.691   4.071 -0.4243 -0.8057  0.2694
 1729SOL    HW1 8333   3.117   6.744   4.148  1.2442 -1.6238  0.3936
 1729SOL    HW2 8334   3.000   6.702   4.061 -0.1146  2.6686 -0.0805
 1730SOL     OW 8335   7.471   5.283   5.006 -0.4694  0.6372  0.6016
 1730SOL    HW1 8336   7.543   5.264   4.946 -1.3680  1.3561 -0.7625
 1730SOL    HW2 8337   7.427   5.359   4.968 -2.8339 -0.6440  0.5832
 1731SOL     OW 8338   7.980   2.366   1.935 -0.8502  0.1679  0.8670
 1731SOL    HW1 8339   7.893   2.365   1.976 -1.1839 -2.3551  0.2367
 1731SOL    HW2 8340   7.962   2.359   1.842  0.0284  1.6242  0.5555
 1732SOL     OW 8341   6.472   4.949   6.391  0.1054  0.3813  0.1684
 1732SOL    HW1 8342   6.428   4.999   6.460  0.6227 -0.5560  1.1996
 1732SOL    HW2 8343   6.421   4.967   6.312 -0.5254  1.4372  0.7936
 1733SOL     OW 8344   3.166   7.343   3.094 -0.6912  0.5150 -0.1103
 1733SOL    HW1 8345   3.220   7.380   3.163 -0.0461 -2.2197  0.9742
 1733SOL    HW2 8346   3.089   7.399   3.090 -0.3693  1.2060  2.2876
 1734SOL     OW 8347   4.688   7.541   1.680  0.0826  0.4645 -0.5385
 1734SOL    HW1 8348   4.606   7.542   1.730  0.2888  0.2719 -0.2008
 1734SOL    HW2 8349   4.724   7.453   1.694  0.1195  0.3951 -1.0569
 1735SOL     OW 8350   5.045   4.823   5.776  0.3450 -0.1686 -0.4349
 1735SOL    HW1 8351   5.130   4.789   5.805  0.2137 -1.3046 -1.2783
 1735SOL    HW2 8352   5.027   4.896   5.835  1.6329 -0.2721  0.1345
 1736SOL     OW 8353   5.889   6.109   3.193 -0.0887  0.3257  0.1969
 1736SOL    HW1 8354   5.980   6.124   3.216  0.0541 -0.1134 -0.0714
 1736SOL    HW2 8355   5.861   6.190   3.151  0.5612  0.0004 -0.8913
 1737SOL     OW 8356   3.520   7.637   2.590 -0.7458  0.4133 -0.2690
 1737SOL    HW1 8357   3.523   7.697   2.664  1.2403 -1.2733  1.1200
 1737SOL    HW2 8358   3.554   7.688   2.517  0.9032  1.0349  0.8709
 1738SOL     OW 8359   5.741   1.654   5.478 -0.3666 -0.2714  0.2002
 1738SOL    HW1 8360   5.831   1.685   5.487  0.1758 -1.5964 -0.3443
 1738SOL    HW2 8361   5.726   1.650   5.384 -0.5511 -1.2303  0.2594
 1739SOL     OW 8362   2.476   6.300   3.659 -0.0531 -0.4325  0.1135
 1739SOL    HW1 8363   2.489   6.391   3.634 -0.4147  0.0361  1.5594
 1739SOL    HW2 8364   2.562   6.271   3.690 -0.0855 -0.4155  0.2167
 1740SOL     OW 8365   6.665   6.599   3.825 -0.2820  0.2015 -0.6093
 1740SOL    HW1 8366   6.731   6.559   3.881  0.4225  0.1433 -1.4647
 1740SOL    HW2 8367   6.673   6.552   3.742  0.0321  1.5883 -1.3842
 1741SOL     OW 8368   7.746   6.064   2.625 -0.3447  1.0505  0.5126
 1741SOL    HW1 8369   7.792   5.999   2.572 -2.2462  0.3481 -0.3621
 1741SOL    HW2 8370   7.770   6.148   2.586 -0.4565  0.6417 -0.4642
 1742SOL     OW 8371   1.765   3.136   7.549 -0.0177  0.0687  0.5784
 1742SOL    HW1 8372   1.757   3.049   7.509  0.4614 -0.1049  0.8427
 1742SOL    HW2 8373   1.857   3.140   7.577 -0.7183 -0.5174  3.2030
 1743SOL     OW 8374   6.911   3.749   5.354 -0.0051  0.1058  0.0205
 1743SOL    HW1 8375   6.931   3.662   5.321  0.7169  0.6061 -0.9185
 1743SOL    HW2 8376   6.995   3.795   5.351 -0.1386  0.4969  1.5920
 1744SOL     OW 8377   3.816   6.027   0.301 -0.3854  0.2913  0.1115
 1744SOL    HW1 8378   3.791   6.119   0.297 -0.8996  0.0984 -1.8759
 1744SOL    HW2 8379   3.912   6.028   0.300 -0.3755  0.7885 -1.8344
 1745SOL     OW 8380   6.708   0.043   6.283  0.3362  0.0152  0.3284
 1745SOL    HW1 8381   6.678  -0.043   6.252 -0.7969  1.0055 -1.5087
 1745SOL    HW2 8382   6.766   0.074   6.214  1.1764  0.5178  1.2437
 1746SOL     OW 8383   4.946   2.286   6.524  0.7162  0.0187  0.0650
 1746SOL    HW1 8384   5.020   2.346   6.521 -0.4494  1.5110 -2.4583
 1746SOL    HW2 8385   4.911   2.296   6.612  2.2477  0.8709  0.6225
 1747SOL     OW 8386   5.173   1.988   1.523 -0.1630 -0.3927 -0.5049
 1747SOL    HW1 8387   5.214   2.042   1.456  1.8166 -0.8273  0.2689
 1747SOL    HW2 8388   5.148   1.908   1.478  0.8288 -0.5432 -0.8070
 1748SOL     OW 8389   2.902   5.120   0.847  0.6062 -0.1553  0.1265
 1748SOL    HW1 8390   2.889   5.070   0.766 -0.9878  0.9304 -0.3344
 1748SOL    HW2 8391   2.984   5.168   0.832  1.1911 -1.2141 -0.1627
 1749SOL     OW 8392   2.088   4.286   1.529  1.0155 -0.2896 -0.1262
 1749SOL    HW1 8393   2.021   4.288   1.598  2.9348  0.3454  1.8242
 1749SOL    HW2 8394   2.039   4.269   1.449 -1.1311 -3.0730  1.6002
 1750SOL     OW 8395   1.793   4.301   2.331  0.8341  0.5717 -0.6132
 1750SOL    HW1 8396   1.710   4.327   2.370  1.1772  3.0678 -1.3426
 1750SOL    HW2 8397   1.769   4.264   2.246  0.3291 -1.7492  0.4536
 1751SOL     OW 8398   0.926   5.163   1.235 -0.0852 -0.4251 -0.0933
 1751SOL    HW1 8399   0.924   5.070   1.260 -1.8657 -0.0301  1.5132
 1751SOL    HW2 8400   0.835   5.191   1.242  0.5411  1.6571  0.2968
 1752SOL     OW 8401   5.784   3.961   6.442 -0.0929  0.0997 -0.2081
 1752SOL    HW1 8402   5.693   3.987   6.458  0.3954  2.1383 -0.3581
 1752SOL    HW2 8403   5.819   3.940   6.528  0.0373  2.1456  0.2956
 1753SOL     OW 8404   4.005   1.131   0.443  0.4687 -0.2892 -0.4803
 1753SOL    HW1 8405   4.043   1.120   0.357  0.6055  0.5914 -0.5386
 1753SOL    HW2 8406   3.923   1.179   0.428  0.7635  0.3540 -0.0722
 1754SOL     OW 8407   6.764   0.301   4.878 -0.2707 -0.4616  0.2310
 1754SOL    HW1 8408   6.846   0.253   4.869  0.4466  0.5904  0.8913
 1754SOL    HW2 8409   6.732   0.311   4.789  0.5944 -0.4311 -0.0863
 1755SOL     OW 8410   6.142   6.618   1.483 -0.3354  0.2859 -0.5512
 1755SOL    HW1 8411   6.142   6.582   1.572  1.1679  1.1350 -0.1684
 1755SOL    HW2 8412   6.131   6.541   1.426  0.0707 -0.4460  0.3325
 1756SOL     OW 8413   8.074   6.245   5.286  0.1465  0.1588  0.5304
 1756SOL    HW1 8414   8.050   6.227   5.195 -1.0219  0.7246  0.7131
 1756SOL    HW2 8415   7.991   6.255   5.331  0.7287  0.9740  1.4526
 1757SOL     OW 8416   1.542   4.071   2.459  0.0680 -0.6305  0.5377
 1757SOL    HW1 8417   1.515   4.157   2.427 -0.4038 -0.8808  0.2387
 1757SOL    HW2 8418   1.518   4.071   2.552  1.1399 -0.0200  0.8347
 1758SOL     OW 8419   0.909   1.511   3.093 -0.5031  0.7497 -0.3236
 1758SOL    HW1 8420   0.934   1.603   3.098 -0.3586  0.6430  1.8819
 1758SOL    HW2 8421   0.820   1.509   3.128 -0.7877  0.1377 -1.0646
 1759SOL     OW 8422   1.816   1.020   3.328  0.4886 -0.1441 -0.4203
 1759SOL    HW1 8423   1.817   1.084   3.399 -2.1651  1.1189 -1.3871
 1759SOL    HW2 8424   1.724   1.002   3.313  1.0878 -2.9839 -1.3452
 1760SOL     OW 8425   2.762   2.155   3.716  0.0019 -0.5900  0.9943
 1760SOL    HW1 8426   2.786   2.108   3.795 -0.5876 -2.3387  0.1873
 1760SOL    HW2 8427   2.788   2.097   3.644 -0.2832  0.5513 -0.0741
 1761SOL     OW 8428   4.091   1.705   7.444  0.3370  0.3334  0.7355
 1761SOL    HW1 8429   4.096   1.610   7.453 -1.3288  0.1051 -0.1846
 1761SOL    HW2 8430   4.167   1.729   7.392 -1.0140 -1.0396 -2.1172
 1762SOL     OW 8431   0.447   0.883   3.341  0.3198 -0.5485 -0.5368
 1762SOL    HW1 8432   0.441   0.968   3.383  0.1881 -1.3169  1.0607
 1762SOL    HW2 8433   0.356   0.854   3.331  0.3399 -0.3249 -1.5005
 1763SOL     OW 8434   3.916   1.310   7.540  0.2500 -0.2205 -0.8817
 1763SOL    HW1 8435   3.927   1.240   7.604 -1.7923  0.1198 -0.0777
 1763SOL    HW2 8436   3.864   1.376   7.585  1.9853  1.8075 -1.6654
 1764SOL     OW 8437   5.248   2.239   7.759 -0.4520  0.3651 -0.6855
 1764SOL    HW1 8438   5.254   2.255   7.665 -1.7949  0.3567 -0.8000
 1764SOL    HW2 8439   5.156   2.256   7.780 -0.3910 -0.5820  0.4517
 1765SOL     OW 8440   5.438   3.012   0.082  0.9280 -0.1258  0.6183
 1765SOL    HW1 8441   5.480   2.950   0.023 -1.7498 -0.4681 -1.1226
 1765SOL    HW2 8442   5.489   3.092   0.075  1.7118 -0.7245 -0.8116
 1766SOL     OW 8443   4.397   0.445   7.799  0.0557  0.0954 -0.2761
 1766SOL    HW1 8444   4.416   0.496   7.878  0.2666 -0.8943  0.3271
 1766SOL    HW2 8445   4.457   0.371   7.803 -1.1002 -0.8883 -0.4653
 1767SOL     OW 8446   1.386   0.536   6.026 -0.5895  0.4951  0.2703
 1767SOL    HW1 8447   1.441   0.601   6.072 -1.6243  1.4772  0.1687
 1767SOL    HW2 8448   1.449   0.474   5.989  0.5405  2.1075 -0.6497
 1768SOL     OW 8449   0.543   7.177   3.772 -0.2147 -0.4923 -0.1223
 1768SOL    HW1 8450   0.545   7.083   3.753 -2.7534 -0.6337 -0.0605
 1768SOL    HW2 8451   0.600   7.216   3.706  0.4983 -2.0180 -0.4596
 1769SOL     OW 8452   4.489   1.603   7.378 -0.2937 -0.3731  0.1598
 1769SOL    HW1 8453   4.481   1.666   7.306  3.2328  0.3730  0.2430
 1769SOL    HW2 8454   4.465   1.652   7.456  2.7346  1.1875  0.2708
 1770SOL     OW 8455   2.707   2.018   5.211  0.0089 -0.3180 -0.1844
 1770SOL    HW1 8456   2.628   2.072   5.206  0.6959  0.7629  0.0838
 1770SOL    HW2 8457   2.759   2.060   5.280 -0.2639 -2.5004  1.4375
 1771SOL     OW 8458   0.872   4.251   0.108  0.3397  1.1034  0.0946
 1771SOL    HW1 8459   0.794   4.197   0.124 -0.2102  1.1100 -2.2742
 1771SOL    HW2 8460   0.945   4.191   0.120 -0.0781  0.7520  0.9967
 1772SOL     OW 8461   1.895   1.232   0.875 -0.6001 -0.2509  0.2346
 1772SOL    HW1 8462   1.990   1.225   0.873 -0.3013  2.7633 -1.4485
 1772SOL    HW2 8463   1.876   1.286   0.952 -0.5903  1.9198 -1.2046
 1773SOL     OW 8464   5.435   1.749   6.684 -0.2195 -0.0643  0.4403
 1773SOL    HW1 8465   5.363   1.770   6.744 -0.6319  0.3175 -0.1858
 1773SOL    HW2 8466   5.460   1.833   6.646  1.1525 -0.0489  1.2922
 1774SOL     OW 8467   2.850   3.663   1.727 -0.3126 -1.0875  0.5574
 1774SOL    HW1 8468   2.770   3.619   1.756 -0.2500 -1.3932  0.2673
 1774SOL    HW2 8469   2.865   3.630   1.638  0.0518 -0.9206  0.5558
 1775SOL     OW 8470   4.814   7.375   5.742  0.2646  0.2872  0.0875
 1775SOL    HW1 8471   4.719   7.388   5.740  0.4921  2.5146  0.8588
 1775SOL    HW2 8472   4.833   7.349   5.832  0.3126 -1.4391 -0.3728
 1776SOL     OW 8473   5.879   5.368   7.535  0.0620  0.0264 -0.1261
 1776SOL    HW1 8474   5.859   5.295   7.477  0.4165  0.7594 -1.2026
 1776SOL    HW2 8475   5.843   5.445   7.490 -1.8306  0.3395  1.7840
 1777SOL     OW 8476   0.854   4.642   3.501 -0.3654  0.4555 -0.5553
 1777SOL    HW1 8477   0.870   4.663   3.593 -3.0740 -0.5349  0.2453
 1777SOL    HW2 8478   0.879   4.549   3.493 -0.2293  0.5126 -0.8087
 1778SOL     OW 8479   8.027   2.759   0.308 -0.3188 -0.0107 -0.2594
 1778SOL    HW1 8480   8.052   2.667   0.296  0.3022 -0.3461  2.7783
 1778SOL    HW2 8481   7.933   2.756   0.325 -0.3476 -0.0223 -0.4127
 1779SOL     OW 8482   6.906   5.465   7.076  0.0892 -0.1032  0.1082
 1779SOL    HW1 8483   6.858   5.541   7.110 -0.2707 -0.1557 -0.2670
 1779SOL    HW2 8484   6.868   5.390   7.121  0.4615 -0.0613  0.4961
 1780SOL     OW 8485   7.322   6.474   4.991  0.0653 -0.0472  0.0237
 1780SOL    HW1 8486   7.364   6.390   4.974 -1.1881 -0.5786 -0.5811
 1780SOL    HW2 8487   7.310   6.476   5.086 -0.2451 -0.7323  0.0036
 1781SOL     OW 8488   4.307   5.027   2.546 -0.2055  0.0213 -0.3046
 1781SOL    HW1 8489   4.377   5.037   2.611 -1.4073  3.0542  0.7192
 1781SOL    HW2 8490   4.231   4.997   2.597 -0.5397  0.0669 -0.7704
 1782SOL     OW 8491   0.873   7.550   6.453 -0.8562 -0.2079  0.0800
 1782SOL    HW1 8492   0.778   7.557   6.456 -0.8069  0.3707  0.3841
 1782SOL    HW2 8493   0.891   7.494   6.377 -1.4060  0.2976 -0.4291
 1783SOL     OW 8494   1.505   2.661   6.532 -0.4228 -0.1153 -0.1799
 1783SOL    HW1 8495   1.588   2.636   6.491  0.3169  0.9181  0.6201
 1783SOL    HW2 8496   1.530   2.727   6.598 -1.5660 -1.5405  1.7771
 1784SOL     OW 8497   7.507   1.691   2.894  0.2004  0.1461 -0.5236
 1784SOL    HW1 8498   7.463   1.718   2.814  0.1368 -0.8864 -0.8547
 1784SOL    HW2 8499   7.555   1.611   2.870  0.4719  0.0217  0.3712
 1785SOL     OW 8500   3.325   6.885   6.158  0.5833  0.0640  0.3173
 1785SOL    HW1 8501   3.305   6.970   6.119 -0.0287 -0.5971 -0.8793
 1785SOL    HW2 8502   3.261   6.825   6.119  0.8590 -0.9011  1.3022
 1786SOL     OW 8503   6.668   5.463   4.419  0.0895  0.4061  0.7633
 1786SOL    HW1 8504   6.691   5.545   4.463  1.8803  0.2120  0.2615
 1786SOL    HW2 8505   6.725   5.461   4.342  0.2811 -1.4316  0.9198
 1787SOL     OW 8506   5.542   0.276   7.632 -0.4037  0.0288 -0.1360
 1787SOL    HW1 8507   5.559   0.182   7.623 -0.7159 -0.2246  1.4705
 1787SOL    HW2 8508   5.626   0.318   7.613  0.3726 -0.7623  1.3536
 1788SOL     OW 8509   3.446   2.068   1.169  0.0352 -0.0583  0.2940
 1788SOL    HW1 8510   3.480   1.978   1.161 -1.2351 -0.4344 -1.3763
 1788SOL    HW2 8511   3.351   2.058   1.170 -0.1375  1.1541  2.3642
 1789SOL     OW 8512   7.426   1.397   3.024 -0.7359 -0.2445 -0.3845
 1789SOL    HW1 8513   7.370   1.357   3.090  1.0991 -0.2542  1.2374
 1789SOL    HW2 8514   7.516   1.383   3.056  0.1937  0.3889 -2.5097
 1790SOL     OW 8515   4.778   3.354   6.282 -0.5511 -0.8147  0.0201
 1790SOL    HW1 8516   4.842   3.366   6.211  2.0135 -1.3261  2.0930
 1790SOL    HW2 8517   4.714   3.292   6.247  2.2094 -3.3027 -0.9740
 1791SOL     OW 8518   7.397   2.729   7.008  0.7112  0.3135 -0.1595
 1791SOL    HW1 8519   7.454   2.677   7.066 -1.1084 -0.2290  1.2199
 1791SOL    HW2 8520   7.354   2.791   7.066  0.5747  1.3469 -1.3319
 1792SOL     OW 8521   1.659   6.178   6.760  0.4317  0.0695 -0.2748
 1792SOL    HW1 8522   1.657   6.089   6.725 -0.3662 -0.0795  0.1217
 1792SOL    HW2 8523   1.750   6.205   6.751  0.7306 -0.8683 -0.2059
 1793SOL     OW 8524   6.364   0.540   0.843 -0.7656  0.3598 -0.4462
 1793SOL    HW1 8525   6.434   0.603   0.860 -1.5041  0.9344  0.5558
 1793SOL    HW2 8526   6.289   0.573   0.892 -1.1971 -1.2645  0.0363
 1794SOL     OW 8527   0.550   5.558   7.225 -0.4597  0.1794 -0.1625
 1794SOL    HW1 8528   0.482   5.550   7.158  0.8797 -2.0188 -1.3762
 1794SOL    HW2 8529   0.574   5.468   7.246 -0.3805  0.7841  2.9081
 1795SOL     OW 8530   0.820   2.945   3.649 -0.2886  0.1230  0.2756
 1795SOL    HW1 8531   0.759   2.997   3.702 -2.0581 -1.7442  0.1925
 1795SOL    HW2 8532   0.795   2.962   3.559  0.8327  1.0882  0.1350
 1796SOL     OW 8533   7.675   0.849   0.704 -0.1587  0.2533 -0.5565
 1796SOL    HW1 8534   7.619   0.853   0.626  1.6158 -1.3862 -2.0178
 1796SOL    HW2 8535   7.671   0.758   0.733 -1.1002  0.9130  1.5864
 1797SOL     OW 8536   7.802   6.268   1.369  0.1026  0.1661  0.4028
 1797SOL    HW1 8537   7.885   6.232   1.339  0.8853 -0.0672  2.7016
 1797SOL    HW2 8538   7.814   6.283   1.463 -2.1517  0.9847  0.6258
 1798SOL     OW 8539   3.924   1.463   6.883 -0.1794  0.2617  0.2811
 1798SOL    HW1 8540   3.976   1.531   6.926  0.9263 -0.8168  0.7398
 1798SOL    HW2 8541   3.957   1.461   6.794  0.3306 -0.1654  0.4710
 1799SOL     OW 8542   2.155   4.716   3.331  0.3333  0.0978  0.0405
 1799SOL    HW1 8543   2.231   4.759   3.370  0.1714 -0.7991  1.4101
 1799SOL    HW2 8544   2.122   4.658   3.400 -2.4045  1.4266 -0.0198
 1800SOL     OW 8545   0.344   7.224   3.157 -0.4826 -0.1873 -0.3910
 1800SOL    HW1 8546   0.361   7.236   3.250  0.1490 -1.1816 -0.3678
 1800SOL    HW2 8547   0.430   7.210   3.118 -0.7658 -0.0653 -1.0838
 1801SOL     OW 8548   4.906   5.513   0.500 -0.2150  0.0160  0.0980
 1801SOL    HW1 8549   4.853   5.584   0.465 -0.8321 -0.4890  0.0042
 1801SOL    HW2 8550   4.900   5.523   0.595 -2.3632 -1.3789  0.1704
 1802SOL     OW 8551   3.666   8.005   1.947  0.4193  0.1894  0.3330
 1802SOL    HW1 8552   3.720   7.939   1.904  0.1557 -0.0050  0.2993
 1802SOL    HW2 8553   3.729   8.068   1.982  0.6360  0.4553 -0.5107
 1803SOL     OW 8554   6.492   3.026   3.418  0.2155 -0.7111 -0.3928
 1803SOL    HW1 8555   6.554   3.031   3.491 -1.5225  0.3492  1.1095
 1803SOL    HW2 8556   6.428   2.960   3.445 -1.9439  1.5446  0.4008
 1804SOL     OW 8557   4.408   5.894   2.283 -0.3729 -0.0481  0.3190
 1804SOL    HW1 8558   4.328   5.946   2.292  0.4099  1.0220  1.5506
 1804SOL    HW2 8559   4.402   5.828   2.351  0.4640  1.0370  1.5134
 1805SOL     OW 8560   5.406   3.770   5.868 -0.0118  0.1494 -0.8485
 1805SOL    HW1 8561   5.445   3.857   5.858 -2.0216  1.1881 -0.0647
 1805SOL    HW2 8562   5.330   3.770   5.810 -2.1602  0.2844  1.8075
 1806SOL     OW 8563   7.455   5.124   3.312  0.0304 -0.2697  0.5082
 1806SOL    HW1 8564   7.383   5.115   3.249 -0.7203 -0.1266  1.3238
 1806SOL    HW2 8565   7.413   5.115   3.398  0.7495  1.2867  1.0538
 1807SOL     OW 8566   2.081   2.237   4.105 -0.9834  0.3970 -0.0546
 1807SOL    HW1 8567   2.065   2.191   4.023  0.3042 -1.2160  0.5516
 1807SOL    HW2 8568   2.174   2.260   4.102 -1.4332  2.3999 -0.0219
 1808SOL     OW 8569   0.886   5.778   5.056 -0.1311 -0.1735  0.0121
 1808SOL    HW1 8570   0.894   5.752   5.148 -0.2360 -4.0119 -0.8864
 1808SOL    HW2 8571   0.973   5.765   5.020 -0.6462 -1.1605 -0.9260
 1809SOL     OW 8572   6.939   3.024   0.532 -0.6561  0.6845 -0.3243
 1809SOL    HW1 8573   6.970   2.957   0.593  0.4472  1.1466 -0.3359
 1809SOL    HW2 8574   6.891   3.086   0.588  2.7704  2.6700  0.7583
 1810SOL     OW 8575   5.805   1.083   7.774 -0.2025 -0.2935 -0.5035
 1810SOL    HW1 8576   5.756   1.162   7.752  1.3191  1.2646  1.3292
 1810SOL    HW2 8577   5.886   1.089   7.723  1.4577  1.2172  2.0395
 1811SOL     OW 8578   1.647   3.261   6.993 -0.0283 -0.2420 -0.4486
 1811SOL    HW1 8579   1.575   3.233   6.937 -0.5303  0.7288 -0.3027
 1811SOL    HW2 8580   1.725   3.224   6.952 -0.7022 -2.4202  0.1121
 1812SOL     OW 8581   6.175   1.565   7.773  0.5685 -0.8573  0.3396
 1812SOL    HW1 8582   6.184   1.472   7.796  0.9999 -1.1419 -0.8959
 1812SOL    HW2 8583   6.253   1.585   7.722 -0.7972 -0.5760 -1.7815
 1813SOL     OW 8584   4.223   6.965   2.184  0.1125  0.4509  0.9462
 1813SOL    HW1 8585   4.298   6.998   2.135  0.2798 -2.0345 -0.6828
 1813SOL    HW2 8586   4.147   6.997   2.136  0.1647  1.2914  1.4113
 1814SOL     OW 8587   5.626   7.261   4.143  0.2415 -0.5601  0.0773
 1814SOL    HW1 8588   5.693   7.284   4.078 -1.9771 -0.5154 -2.3490
 1814SOL    HW2 8589   5.578   7.343   4.157 -0.0866 -0.8805  0.8167
 1815SOL     OW 8590   4.305   4.662   4.095 -0.3698  0.5003  0.1468
 1815SOL    HW1 8591   4.394   4.667   4.061 -1.3595 -1.5889 -3.2496
 1815SOL    HW2 8592   4.313   4.611   4.176  1.4688  0.2108 -0.1728
 1816SOL     OW 8593   5.616   2.689   5.911  0.6450  0.3980 -0.3351
 1816SOL    HW1 8594   5.669   2.622   5.954  0.7268 -0.1341 -1.2435
 1816SOL    HW2 8595   5.526   2.665   5.931  0.6703 -0.0562 -0.7461
 1817SOL     OW 8596   0.173   5.120   5.667 -0.1320  0.0739 -0.2960
 1817SOL    HW1 8597   0.146   5.192   5.610  0.0706  0.9981  0.7324
 1817SOL    HW2 8598   0.197   5.049   5.607 -2.0993  0.1884 -1.3077
 1818SOL     OW 8599   2.704   6.611   4.455 -0.5055  0.2872 -0.2160
 1818SOL    HW1 8600   2.671   6.625   4.543 -1.3617  0.0966 -0.4972
 1818SOL    HW2 8601   2.678   6.689   4.406  0.4213  0.6330 -0.1818
 1819SOL     OW 8602   2.615   7.758   5.150 -0.0563 -0.3295 -0.3114
 1819SOL    HW1 8603   2.593   7.809   5.228 -0.2116  1.0113 -1.2048
 1819SOL    HW2 8604   2.533   7.718   5.123  0.2614 -2.0175  1.0076
 1820SOL     OW 8605   1.628   4.113   7.555 -0.4462 -0.1551 -0.3301
 1820SOL    HW1 8606   1.662   4.045   7.614 -0.2449 -0.0370 -0.3083
 1820SOL    HW2 8607   1.590   4.179   7.613 -0.5707 -0.2108 -0.3479
 1821SOL     OW 8608   5.566   6.106   5.555  0.0731  0.3151 -0.0132
 1821SOL    HW1 8609   5.652   6.147   5.549  0.7078 -1.0590 -0.6978
 1821SOL    HW2 8610   5.569   6.053   5.635 -0.6689  1.3906  0.7553
 1822SOL     OW 8611   3.430   1.151   4.303  0.0293 -0.6012 -0.1768
 1822SOL    HW1 8612   3.393   1.237   4.283  0.3856 -0.8971 -2.3560
 1822SOL    HW2 8613   3.375   1.117   4.374 -0.6287  1.0624  0.1558
 1823SOL     OW 8614   6.600   5.304   6.068 -0.1515 -0.3648  0.0322
 1823SOL    HW1 8615   6.543   5.239   6.028 -0.3722  1.0034 -2.0150
 1823SOL    HW2 8616   6.564   5.388   6.040  1.4143  0.5868  0.7446
 1824SOL     OW 8617   8.030   0.622   1.565  0.3118 -0.1307  0.2159
 1824SOL    HW1 8618   8.122   0.602   1.549  0.6009  2.7028 -2.5346
 1824SOL    HW2 8619   8.031   0.694   1.627 -0.0204  0.2993 -0.2731
 1825SOL     OW 8620   7.087   7.261   4.163  0.0205 -0.0175 -0.2600
 1825SOL    HW1 8621   7.115   7.298   4.079  1.2217  0.1297  0.1865
 1825SOL    HW2 8622   7.165   7.218   4.197 -0.2365  0.5753  1.1358
 1826SOL     OW 8623   0.861   6.044   8.035  0.5187  0.6877 -0.2679
 1826SOL    HW1 8624   0.771   6.010   8.036  0.2767  1.3065 -0.9021
 1826SOL    HW2 8625   0.916   5.965   8.042 -0.0702  0.3844  1.4578
 1827SOL     OW 8626   3.499   6.143   0.138  0.4502  0.4151  0.0835
 1827SOL    HW1 8627   3.403   6.140   0.133  0.5438 -1.7205 -2.8765
 1827SOL    HW2 8628   3.517   6.152   0.232 -2.6193 -0.5052  0.9126
 1828SOL     OW 8629   2.963   1.703   5.475  0.0235  0.5242 -0.1034
 1828SOL    HW1 8630   2.883   1.722   5.523 -0.0573  1.7045 -0.6724
 1828SOL    HW2 8631   2.949   1.742   5.388 -0.3312 -2.5626 -1.5617
 1829SOL     OW 8632   2.670   4.047   1.122 -0.0655  0.3855 -0.1486
 1829SOL    HW1 8633   2.669   4.054   1.217  0.7939 -2.0634  0.1014
 1829SOL    HW2 8634   2.588   4.088   1.094 -1.3673 -0.7345  1.8210
 1830SOL     OW 8635   4.886   2.082   4.984  0.2059  0.2899 -0.2598
 1830SOL    HW1 8636   4.947   2.053   4.916  0.3307 -0.3195  0.1008
 1830SOL    HW2 8637   4.842   2.158   4.946  0.5280  0.1751 -0.8809
 1831SOL     OW 8638   3.043   0.870   5.323  0.1848  0.5205 -0.1204
 1831SOL    HW1 8639   3.112   0.858   5.388 -0.4261 -0.1320  0.4212
 1831SOL    HW2 8640   3.087   0.911   5.249  0.9126  1.2133  0.6698
 1832SOL     OW 8641   2.531   0.140   3.473  0.3873  0.8694  0.2147
 1832SOL    HW1 8642   2.543   0.102   3.559  1.3158 -0.3595 -0.4271
 1832SOL    HW2 8643   2.442   0.176   3.474 -0.1456 -0.4344  1.1923
 1833SOL     OW 8644   3.268   2.055   0.855 -0.0658  0.0580 -0.4279
 1833SOL    HW1 8645   3.275   2.058   0.951 -0.8092  1.0061 -0.3924
 1833SOL    HW2 8646   3.174   2.046   0.838  0.0619 -0.1014 -1.0687
 1834SOL     OW 8647   1.824   6.352   1.893  0.3707  0.5181  0.3727
 1834SOL    HW1 8648   1.747   6.314   1.850  0.8839 -0.9399  0.6880
 1834SOL    HW2 8649   1.820   6.319   1.983  1.8638 -0.4019  0.1398
 1835SOL     OW 8650   4.662   7.443   4.863  0.1399 -0.3844 -0.3817
 1835SOL    HW1 8651   4.619   7.391   4.796  1.3214 -1.6466 -0.2063
 1835SOL    HW2 8652   4.755   7.420   4.856  0.5848  1.0789  0.2669
 1836SOL     OW 8653   0.063   0.776   7.677  0.0733  0.0572 -0.6109
 1836SOL    HW1 8654   0.084   0.860   7.635 -0.6658  1.5564  1.8469
 1836SOL    HW2 8655  -0.032   0.773   7.679  0.0945 -0.7003 -0.3786
 1837SOL     OW 8656   6.841   4.530   2.108  0.0361 -0.0874 -0.1487
 1837SOL    HW1 8657   6.777   4.460   2.101 -1.6145  1.2787  0.6087
 1837SOL    HW2 8658   6.848   4.566   2.019  0.1017 -0.5271 -0.3216
 1838SOL     OW 8659   8.003   1.501   2.120 -0.4408  0.1509  0.7600
 1838SOL    HW1 8660   7.966   1.513   2.032 -2.3297  0.5393  1.5476
 1838SOL    HW2 8661   8.080   1.559   2.121 -1.1651  1.1927 -0.2197
 1839SOL     OW 8662   4.538   1.888   7.062 -0.0692  0.5942  0.3234
 1839SOL    HW1 8663   4.571   1.915   7.147  0.5183  0.6472  0.0887
 1839SOL    HW2 8664   4.612   1.842   7.021 -1.0928 -1.6651  0.8133
 1840SOL     OW 8665   0.446   7.739   1.156 -0.2404 -0.6676  0.0094
 1840SOL    HW1 8666   0.533   7.727   1.117 -1.4934 -1.0545 -2.9491
 1840SOL    HW2 8667   0.436   7.834   1.160 -0.6239 -0.5358 -2.2580
 1841SOL     OW 8668   1.163   3.038   1.633  0.5893  0.6253  0.3662
 1841SOL    HW1 8669   1.196   2.985   1.706  3.2517  0.0988 -1.0906
 1841SOL    HW2 8670   1.075   3.004   1.617  1.0226 -1.2089  1.4972
 1842SOL     OW 8671   3.804   5.838   4.145  0.1740 -0.2604  0.3976
 1842SOL    HW1 8672   3.860   5.763   4.121 -0.2835 -0.6692  0.6047
 1842SOL    HW2 8673   3.844   5.912   4.099 -0.6517 -1.0098 -1.6802
 1843SOL     OW 8674   6.986   2.477   3.240 -0.4779  0.2638  0.4017
 1843SOL    HW1 8675   7.028   2.395   3.213 -0.4385  0.4100  0.0145
 1843SOL    HW2 8676   7.016   2.491   3.329 -0.2162  0.0292  0.3506
 1844SOL     OW 8677   6.527   2.039   4.023  0.4798 -0.1230 -0.6220
 1844SOL    HW1 8678   6.611   2.004   4.050  1.0941  0.6811 -1.4364
 1844SOL    HW2 8679   6.463   1.992   4.077  1.6343  2.0047  2.9038
 1845SOL     OW 8680   4.294   4.252   3.279 -0.0827 -0.0494 -0.0992
 1845SOL    HW1 8681   4.293   4.308   3.357 -2.1549  1.4049 -1.0562
 1845SOL    HW2 8682   4.280   4.163   3.312  0.1446  0.4045  1.2546
 1846SOL     OW 8683   8.063   3.599   7.486  0.1225 -0.5177  0.3455
 1846SOL    HW1 8684   8.095   3.642   7.406  1.1346 -0.4380  0.7815
 1846SOL    HW2 8685   7.968   3.604   7.478  0.2058  0.2581 -0.4512
 1847SOL     OW 8686   0.356   5.233   3.708  0.0449 -0.2143 -0.3119
 1847SOL    HW1 8687   0.363   5.138   3.699 -0.7364 -0.3599  0.4969
 1847SOL    HW2 8688   0.434   5.267   3.665 -0.6871 -1.1027 -2.4487
 1848SOL     OW 8689   0.790   7.008   1.180  0.0562  0.4440 -0.3728
 1848SOL    HW1 8690   0.775   6.918   1.151  0.5549 -0.0936  0.9398
 1848SOL    HW2 8691   0.710   7.032   1.227 -0.0793  0.6900 -0.7277
 1849SOL     OW 8692   7.464   2.124   3.033 -0.1232  0.2741 -0.3375
 1849SOL    HW1 8693   7.416   2.195   3.074 -0.1674  1.2546 -1.9699
 1849SOL    HW2 8694   7.545   2.117   3.083 -0.8283  0.3629  0.8362
 1850SOL     OW 8695   7.976   5.397   3.159 -0.0621  0.2541  0.1801
 1850SOL    HW1 8696   8.024   5.320   3.128  0.0103 -0.3358  1.6756
 1850SOL    HW2 8697   8.013   5.470   3.110  1.9413 -0.2744  0.8326
 1851SOL     OW 8698   2.873   7.457   5.873  0.1127  0.2182 -0.3447
 1851SOL    HW1 8699   2.847   7.444   5.965  0.2290  0.1570 -0.3192
 1851SOL    HW2 8700   2.906   7.371   5.846 -1.2654 -0.1688 -0.8935
 1852SOL     OW 8701   1.072   1.138   3.425  0.0745 -0.4671 -0.4984
 1852SOL    HW1 8702   0.998   1.195   3.405  0.4200  0.2307  0.1861
 1852SOL    HW2 8703   1.135   1.194   3.470  0.4677 -1.3583  0.0959
 1853SOL     OW 8704   6.802   1.475   1.776  0.5121 -0.1945 -0.1260
 1853SOL    HW1 8705   6.732   1.463   1.712  1.2939  1.6182 -1.4334
 1853SOL    HW2 8706   6.867   1.408   1.753  0.1812 -0.4475 -0.3364
 1854SOL     OW 8707   1.595   7.373   5.892  0.1412 -0.4855 -0.7505
 1854SOL    HW1 8708   1.638   7.373   5.807  0.2907 -1.1821 -0.6754
 1854SOL    HW2 8709   1.622   7.455   5.932 -0.0908 -0.0533 -1.4486
 1855SOL     OW 8710   6.169   4.424   5.089  0.1125 -0.2551  0.0153
 1855SOL    HW1 8711   6.151   4.435   4.996 -1.4465  0.7495  0.3849
 1855SOL    HW2 8712   6.249   4.371   5.093  1.1341  1.0535 -1.8879
 1856SOL     OW 8713   2.323   0.597   6.995 -0.0612 -0.0101  0.3128
 1856SOL    HW1 8714   2.409   0.637   7.001 -1.4062  3.1231  0.7702
 1856SOL    HW2 8715   2.287   0.630   6.913 -1.0647 -0.7576  0.4306
 1857SOL     OW 8716   3.930   1.731   5.016 -0.1372 -0.3416 -0.0422
 1857SOL    HW1 8717   3.890   1.644   5.018  1.5950 -1.2584  3.0528
 1857SOL    HW2 8718   3.858   1.791   5.001 -1.8774 -2.1687  0.6074
 1858SOL     OW 8719   1.623   0.987   5.117  0.1563 -0.1446 -0.0229
 1858SOL    HW1 8720   1.708   1.022   5.091  0.7239 -0.7977  0.8829
 1858SOL    HW2 8721   1.589   0.947   5.038  0.3474  0.7907 -0.5883
 1859SOL     OW 8722   2.977   6.978   7.108  0.4536 -0.2975  0.1395
 1859SOL    HW1 8723   2.995   6.951   7.198 -1.1028 -0.4295  0.4450
 1859SOL    HW2 8724   2.972   7.074   7.113  2.2601 -0.1507 -0.2112
 1860SOL     OW 8725   6.800   1.998   6.018 -0.0047 -0.2193 -0.1404
 1860SOL    HW1 8726   6.848   1.937   5.962  0.2839  0.1669 -0.3237
 1860SOL    HW2 8727   6.814   1.966   6.107 -0.2752 -0.7072 -0.2772
 1861SOL     OW 8728   2.133   4.411   0.606  0.5250 -0.3665  0.3479
 1861SOL    HW1 8729   2.081   4.348   0.556  0.0702 -0.2017  0.6084
 1861SOL    HW2 8730   2.223   4.396   0.577  0.1366  0.7202 -1.5960
 1862SOL     OW 8731   2.870   2.177   3.008 -0.3094 -1.0342  0.5757
 1862SOL    HW1 8732   2.847   2.092   3.046  0.5796 -0.2305  3.0971
 1862SOL    HW2 8733   2.803   2.237   3.042 -1.8296 -0.8796 -2.3681
 1863SOL     OW 8734   7.373   3.236   0.024 -0.2069 -0.0023 -0.2769
 1863SOL    HW1 8735   7.463   3.215   0.048 -0.2356  1.1340  0.9610
 1863SOL    HW2 8736   7.322   3.214   0.102 -1.0511 -0.8636 -1.0544
 1864SOL     OW 8737   7.920   1.611   0.944  0.1591  0.2907 -0.2357
 1864SOL    HW1 8738   7.876   1.692   0.916  0.3337  1.1850  1.8533
 1864SOL    HW2 8739   8.011   1.622   0.915  0.3800  1.2642  0.7561
 1865SOL     OW 8740   1.029   3.452   5.669 -0.5261 -0.1414  0.2424
 1865SOL    HW1 8741   1.072   3.372   5.700 -0.0209 -0.3673 -0.9766
 1865SOL    HW2 8742   0.975   3.423   5.595 -1.2529  0.4642  0.5237
 1866SOL     OW 8743   6.178   5.986   7.724  0.3742 -0.3004  0.0816
 1866SOL    HW1 8744   6.173   6.078   7.697  0.2662 -0.6554 -1.1260
 1866SOL    HW2 8745   6.097   5.972   7.773 -0.1037 -0.0248 -0.6110
 1867SOL     OW 8746   7.812   2.450   4.980  1.2589 -0.0873 -0.4225
 1867SOL    HW1 8747   7.794   2.544   4.980 -1.1005 -0.4792 -0.7834
 1867SOL    HW2 8748   7.845   2.433   5.068 -1.2802  0.6445  0.7773
 1868SOL     OW 8749   1.822   3.972   1.461  0.5198  0.7069  0.0284
 1868SOL    HW1 8750   1.817   3.879   1.483  0.6920  1.1001  1.9381
 1868SOL    HW2 8751   1.915   3.991   1.461  0.5669  0.6305 -1.6946
 1869SOL     OW 8752   2.090   7.110   1.853 -0.2051  0.1169 -0.3504
 1869SOL    HW1 8753   2.076   7.198   1.890 -0.3956 -0.5551  1.2819
 1869SOL    HW2 8754   2.154   7.123   1.784  0.8894  1.3490  0.8432
 1870SOL     OW 8755   0.738   1.717   5.585 -0.0220  0.3292  0.0023
 1870SOL    HW1 8756   0.724   1.633   5.630 -0.2592  0.4577  0.1677
 1870SOL    HW2 8757   0.650   1.754   5.576  0.0261  0.3225 -0.5302
 1871SOL     OW 8758   8.032   2.490   7.118  0.4306 -0.2482  0.4630
 1871SOL    HW1 8759   8.058   2.564   7.172  0.5492  0.2439 -0.2548
 1871SOL    HW2 8760   7.961   2.524   7.063 -0.1355 -0.9220  0.7629
 1872SOL     OW 8761   2.311   7.096   1.610  0.3313 -0.2294 -0.6783
 1872SOL    HW1 8762   2.324   7.102   1.516 -1.1167 -0.8198 -0.9387
 1872SOL    HW2 8763   2.364   7.167   1.646  0.4866  0.3411 -1.9793
 1873SOL     OW 8764   4.163   6.296   6.519 -1.0949  0.3386  0.1656
 1873SOL    HW1 8765   4.173   6.307   6.424  1.6970 -0.6531  0.2721
 1873SOL    HW2 8766   4.179   6.383   6.555 -0.0280  0.2929 -0.1702
 1874SOL     OW 8767   1.388   3.832   2.426  0.4123  0.2691  0.6719
 1874SOL    HW1 8768   1.325   3.880   2.373  0.0062 -1.2176 -0.2561
 1874SOL    HW2 8769   1.414   3.894   2.495 -0.4879  1.5970 -0.1362
 1875SOL     OW 8770   3.694   2.040   3.993  0.3641 -0.0714  0.6867
 1875SOL    HW1 8771   3.728   2.068   3.908  0.1622 -0.7541  0.3804
 1875SOL    HW2 8772   3.669   1.948   3.981 -2.7684  0.6852  0.5428
 1876SOL     OW 8773   6.686   6.350   4.919 -0.1737  0.2574 -0.7988
 1876SOL    HW1 8774   6.715   6.260   4.904 -0.8118 -0.1434  0.3025
 1876SOL    HW2 8775   6.594   6.343   4.945  0.1048  1.1184  0.5208
 1877SOL     OW 8776   0.309   3.757   4.823 -0.5761  0.1229  0.2336
 1877SOL    HW1 8777   0.240   3.707   4.866  0.5775 -0.2052  1.7993
 1877SOL    HW2 8778   0.288   3.848   4.841 -0.2407 -0.0045  1.3131
 1878SOL     OW 8779   7.359   0.834   5.275 -0.2486  0.5409  0.1531
 1878SOL    HW1 8780   7.439   0.837   5.223 -0.1928 -2.8182 -0.1627
 1878SOL    HW2 8781   7.389   0.815   5.364 -0.6353  0.2490  0.2241
 1879SOL     OW 8782   1.405   4.257   3.206 -0.2209  0.4172 -1.0527
 1879SOL    HW1 8783   1.476   4.318   3.186 -0.6750  2.0601  1.7427
 1879SOL    HW2 8784   1.447   4.187   3.256 -0.0524 -0.5112 -2.4421
 1880SOL     OW 8785   1.327   4.235   0.367  0.0457  0.0732  0.0166
 1880SOL    HW1 8786   1.329   4.184   0.448  0.0874  2.5064  1.6719
 1880SOL    HW2 8787   1.238   4.269   0.362 -0.1818 -0.6681 -1.4258
 1881SOL     OW 8788   7.799   3.867   2.436 -0.0986  0.4005 -0.1009
 1881SOL    HW1 8789   7.812   3.848   2.343  1.5729  0.9334 -0.0181
 1881SOL    HW2 8790   7.824   3.786   2.481 -1.0991  0.0776 -0.1154
 1882SOL     OW 8791   3.527   1.762   0.901 -0.1127  0.6551 -0.0425
 1882SOL    HW1 8792   3.552   1.725   0.816 -1.6556 -0.6272  0.0366
 1882SOL    HW2 8793   3.541   1.857   0.890 -0.8601  0.5853 -1.9359
 1883SOL     OW 8794   6.488   0.903   6.158 -0.0584  0.3922 -0.2961
 1883SOL    HW1 8795   6.411   0.880   6.211  0.3744 -0.4206 -0.0074
 1883SOL    HW2 8796   6.559   0.910   6.221  0.3779 -0.1780 -0.7137
 1884SOL     OW 8797   1.529   5.176   0.255  0.0741 -0.5919  0.3067
 1884SOL    HW1 8798   1.491   5.166   0.167 -2.4441  1.2398  1.0773
 1884SOL    HW2 8799   1.587   5.251   0.247 -0.8671  0.1634  0.3768
 1885SOL     OW 8800   4.023   2.714   3.751 -0.3519  0.4939 -0.2397
 1885SOL    HW1 8801   4.038   2.787   3.691  1.9191  1.2712  1.1621
 1885SOL    HW2 8802   4.016   2.637   3.694 -1.2700  1.5844 -1.6456
 1886SOL     OW 8803   7.630   6.890   4.884 -0.1462  0.6980 -0.3934
 1886SOL    HW1 8804   7.599   6.919   4.799 -0.8744 -1.6763 -1.0100
 1886SOL    HW2 8805   7.551   6.865   4.931  0.4577 -2.1206 -0.6886
 1887SOL     OW 8806   7.469   6.478   2.182 -0.5210 -0.0182  0.1163
 1887SOL    HW1 8807   7.546   6.425   2.160  0.5824  1.6099 -0.1739
 1887SOL    HW2 8808   7.434   6.505   2.097  0.1927  1.3831  0.2239
 1888SOL     OW 8809   6.284   5.535   7.122  0.0938 -0.2868 -0.1078
 1888SOL    HW1 8810   6.270   5.502   7.033  2.1868 -0.3568 -0.4645
 1888SOL    HW2 8811   6.343   5.610   7.111 -0.2531  0.2027  1.1704
 1889SOL     OW 8812   5.571   4.448   5.137  0.8992  0.3035 -0.3186
 1889SOL    HW1 8813   5.530   4.412   5.059 -0.6201 -2.7834  1.7319
 1889SOL    HW2 8814   5.499   4.459   5.199  2.3206  0.8690  1.3019
 1890SOL     OW 8815   0.509   0.422   6.888 -0.3002 -0.1491 -0.1580
 1890SOL    HW1 8816   0.505   0.443   6.795  2.3232 -0.9836 -0.5450
 1890SOL    HW2 8817   0.564   0.343   6.892 -0.9171 -0.5292  2.0513
 1891SOL     OW 8818   6.384   1.979   0.296  0.1465 -0.3626 -0.1282
 1891SOL    HW1 8819   6.472   1.979   0.332  0.0070  0.2963  0.2372
 1891SOL    HW2 8820   6.332   2.028   0.360 -0.8149 -2.0063  0.4237
 1892SOL     OW 8821   6.966   2.820   0.315  0.2071  0.2826  0.3874
 1892SOL    HW1 8822   6.992   2.878   0.387 -0.7665 -1.1326  1.9719
 1892SOL    HW2 8823   6.878   2.848   0.292 -0.1296 -0.2921  0.9203
 1893SOL     OW 8824   3.365   5.427   0.415 -0.3513  0.4131 -0.4430
 1893SOL    HW1 8825   3.275   5.437   0.386 -0.6075 -0.8494 -0.1638
 1893SOL    HW2 8826   3.407   5.374   0.347 -0.5875 -1.3558  0.7033
 1894SOL     OW 8827   1.136   3.226   5.762 -0.5496  0.0767  0.2117
 1894SOL    HW1 8828   1.155   3.259   5.850  1.2966 -2.2309  0.7679
 1894SOL    HW2 8829   1.116   3.133   5.774  0.7629 -0.5616 -1.8526
 1895SOL     OW 8830   3.528   5.624   0.658  0.2659 -0.3994 -0.1566
 1895SOL    HW1 8831   3.436   5.636   0.681 -0.0339 -1.9066 -0.4600
 1895SOL    HW2 8832   3.535   5.532   0.636  2.0033 -0.4550  0.4891
 1896SOL     OW 8833   4.944   1.891   2.690 -0.6998  0.1419 -0.3792
 1896SOL    HW1 8834   4.881   1.864   2.623 -0.9908  1.9981 -0.9411
 1896SOL    HW2 8835   4.976   1.976   2.659  0.4849  0.2311  0.9752
 1897SOL     OW 8836   5.319   1.993   7.977  0.7378 -0.2790 -0.2551
 1897SOL    HW1 8837   5.345   2.005   7.886 -0.1171 -2.2255 -0.8280
 1897SOL    HW2 8838   5.391   1.942   8.016 -0.0107 -1.6567 -0.5862
 1898SOL     OW 8839   7.295   4.017   3.439 -0.4678 -0.0604  0.0668
 1898SOL    HW1 8840   7.308   4.110   3.455  0.2110 -0.1603  0.1310
 1898SOL    HW2 8841   7.332   4.002   3.352 -1.2459 -0.1339 -0.2606
 1899SOL     OW 8842   7.292   7.518   2.447  0.1280 -0.4044  0.5926
 1899SOL    HW1 8843   7.360   7.512   2.381 -1.5302 -1.0556 -1.1693
 1899SOL    HW2 8844   7.222   7.569   2.404 -0.3219  0.6740  2.4968
 1900SOL     OW 8845   6.063   3.080   7.069 -0.0224 -0.0857 -0.1663
 1900SOL    HW1 8846   6.049   3.031   7.150 -1.7970  1.2376  0.3870
 1900SOL    HW2 8847   6.021   3.165   7.084 -0.8884  0.0226 -2.6628
 1901SOL     OW 8848   5.897   3.198   7.451  0.3546  0.1554  0.2462
 1901SOL    HW1 8849   5.812   3.213   7.411 -0.1728  0.4185  1.4184
 1901SOL    HW2 8850   5.910   3.275   7.507  1.3029  0.0458  0.1874
 1902SOL     OW 8851   4.385   0.690   5.742  0.8008 -0.6224  0.6909
 1902SOL    HW1 8852   4.427   0.727   5.820 -0.9022  0.8988  0.9728
 1902SOL    HW2 8853   4.450   0.700   5.672  1.8882 -0.8510  1.6418
 1903SOL     OW 8854   2.493   3.512   1.349  0.3722 -0.2857  0.0735
 1903SOL    HW1 8855   2.427   3.469   1.404  1.5032 -2.8031 -0.4215
 1903SOL    HW2 8856   2.445   3.585   1.308 -1.8170 -1.3741  0.5263
 1904SOL     OW 8857   5.662   6.804   6.537 -0.2167  0.2543 -0.2190
 1904SOL    HW1 8858   5.739   6.832   6.586  0.0318 -0.6085 -0.0915
 1904SOL    HW2 8859   5.659   6.709   6.549 -0.6408  0.1330 -1.1781
 1905SOL     OW 8860   2.959   3.211   2.987  0.4893  0.5072  0.4746
 1905SOL    HW1 8861   2.874   3.200   3.029  0.5457 -0.1250  0.4236
 1905SOL    HW2 8862   2.939   3.249   2.902  0.1365 -0.9462 -0.1153
 1906SOL     OW 8863   1.863   2.797   2.419  0.5540  0.0412  0.1491
 1906SOL    HW1 8864   1.799   2.819   2.352  0.9211 -0.3271 -0.3257
 1906SOL    HW2 8865   1.810   2.778   2.497 -0.0605 -2.1751 -0.7394
 1907SOL     OW 8866   5.789   5.922   0.432  0.6799 -0.1074 -0.2289
 1907SOL    HW1 8867   5.850   5.956   0.367 -0.7419 -1.4607 -2.4103
 1907SOL    HW2 8868   5.725   5.873   0.381  0.1248 -2.2534  2.3130
 1908SOL     OW 8869   4.542   6.423   1.159  0.0064  0.1736 -0.2564
 1908SOL    HW1 8870   4.582   6.351   1.207  1.6125  1.8227  1.0357
 1908SOL    HW2 8871   4.519   6.487   1.226 -0.4219  1.3071 -1.4369
 1909SOL     OW 8872   2.420   5.534   7.990  0.0358 -0.1800  0.4788
 1909SOL    HW1 8873   2.466   5.453   8.012 -0.4643 -1.0083 -1.3862
 1909SOL    HW2 8874   2.381   5.562   8.073  0.4419 -1.6993  1.2126
 1910SOL     OW 8875   1.784   1.625   3.886  0.4948 -0.4424  0.2452
 1910SOL    HW1 8876   1.859   1.673   3.922  2.1995 -1.1241 -2.1290
 1910SOL    HW2 8877   1.758   1.566   3.957  2.4801 -0.4620  1.0339
 1911SOL     OW 8878   4.269   1.625   3.722 -0.4795 -0.8229 -0.5544
 1911SOL    HW1 8879   4.320   1.701   3.749 -0.9682 -1.5584  2.9314
 1911SOL    HW2 8880   4.197   1.661   3.670  0.7523  0.7439 -1.2640
 1912SOL     OW 8881   4.426   0.663   3.046 -0.2436  0.4064 -0.1282
 1912SOL    HW1 8882   4.357   0.620   2.996 -0.4244  0.3711  0.1490
 1912SOL    HW2 8883   4.418   0.627   3.134  0.5172 -0.0491 -0.2332
 1913SOL     OW 8884   0.347   4.842   5.713 -0.0322  0.3731  0.4700
 1913SOL    HW1 8885   0.391   4.759   5.732 -0.4610 -0.1766 -0.7875
 1913SOL    HW2 8886   0.267   4.839   5.765  0.7208  0.7497  1.6901
 1914SOL     OW 8887   3.095   5.037   2.746 -0.5403  1.0806  0.0603
 1914SOL    HW1 8888   3.005   5.064   2.728 -0.8356  0.5187  0.6805
 1914SOL    HW2 8889   3.088   4.946   2.772  0.1463  1.2032  0.6842
 1915SOL     OW 8890   1.021   4.608   2.143  0.2387 -0.3599 -0.1418
 1915SOL    HW1 8891   1.051   4.573   2.059 -1.5797  0.0666 -1.0418
 1915SOL    HW2 8892   1.049   4.543   2.207 -0.0886 -1.7577 -1.3456
 1916SOL     OW 8893   7.428   0.763   1.626 -0.5216 -0.0185 -0.0652
 1916SOL    HW1 8894   7.366   0.734   1.560 -0.3129 -1.3091  0.2918
 1916SOL    HW2 8895   7.396   0.726   1.708 -0.1767  0.6642  0.3902
 1917SOL     OW 8896   5.094   4.378   7.825 -0.2685 -0.2646 -0.3008
 1917SOL    HW1 8897   5.009   4.402   7.787 -0.1773  0.9571  0.2088
 1917SOL    HW2 8898   5.158   4.423   7.770 -0.1331  1.5017  1.2003
 1918SOL     OW 8899   1.256   4.026   3.562  0.2291  0.0767 -0.0169
 1918SOL    HW1 8900   1.266   3.956   3.497  1.2081 -2.4491  2.6207
 1918SOL    HW2 8901   1.162   4.024   3.584 -0.2854  1.5584 -1.8826
 1919SOL     OW 8902   2.409   6.418   2.156  0.4249 -0.4368 -0.1244
 1919SOL    HW1 8903   2.346   6.362   2.111 -0.0777 -0.4693  0.5949
 1919SOL    HW2 8904   2.374   6.507   2.146  0.0573 -0.4911  0.5764
 1920SOL     OW 8905   1.785   5.145   5.405  0.4499  0.5240 -0.2606
 1920SOL    HW1 8906   1.726   5.070   5.416 -0.2172  1.3643  3.1115
 1920SOL    HW2 8907   1.729   5.214   5.370  0.3415  0.2919 -0.5507
 1921SOL     OW 8908   3.799   3.494   4.782 -0.2529  0.0113 -0.2732
 1921SOL    HW1 8909   3.773   3.459   4.868 -0.5134 -0.1244 -0.4067
 1921SOL    HW2 8910   3.777   3.424   4.720  3.8054 -1.7330 -0.0482
 1922SOL     OW 8911   5.900   7.474   1.786  0.1067 -0.0379 -0.5289
 1922SOL    HW1 8912   5.922   7.558   1.827  0.3732 -0.1241 -0.4893
 1922SOL    HW2 8913   5.979   7.450   1.737  0.6059 -1.0196  0.7052
 1923SOL     OW 8914   3.650   2.499   4.777  0.8431  0.1562 -0.1023
 1923SOL    HW1 8915   3.741   2.478   4.755  1.0840  0.3659  0.6580
 1923SOL    HW2 8916   3.598   2.440   4.722  1.4361 -0.0748 -0.4313
 1924SOL     OW 8917   4.027   6.362   1.550 -0.1473  0.8136 -0.1564
 1924SOL    HW1 8918   3.960   6.305   1.515 -0.3223  0.8546  0.1097
 1924SOL    HW2 8919   3.997   6.383   1.639  0.7558 -0.0512  0.3749
 1925SOL     OW 8920   5.241   4.722   5.383  0.3454 -0.0931  0.2606
 1925SOL    HW1 8921   5.239   4.628   5.363 -0.9782 -0.0095 -0.0897
 1925SOL    HW2 8922   5.241   4.726   5.478  0.1988 -0.4414  0.2779
 1926SOL     OW 8923   5.031   5.420   2.684  0.3816  0.1065 -0.6351
 1926SOL    HW1 8924   5.023   5.490   2.750  2.1065  1.1183 -1.4393
 1926SOL    HW2 8925   5.050   5.466   2.603  1.4306 -1.3009 -1.2184
 1927SOL     OW 8926   1.552   1.572   0.891  0.6183  0.0140 -0.3667
 1927SOL    HW1 8927   1.503   1.489   0.891  0.6754 -0.0227 -0.6119
 1927SOL    HW2 8928   1.630   1.553   0.837 -0.7458  1.0166 -2.8631
 1928SOL     OW 8929   3.930   4.508   4.397  0.5656  0.3593 -0.0223
 1928SOL    HW1 8930   3.993   4.488   4.466 -0.1034 -1.6472  0.0786
 1928SOL    HW2 8931   3.975   4.485   4.315  0.3555 -0.0335 -0.0298
 1929SOL     OW 8932   4.980   3.211   1.683  0.3218 -0.0997 -0.1876
 1929SOL    HW1 8933   5.047   3.184   1.746  1.4714  0.4897 -1.1006
 1929SOL    HW2 8934   4.953   3.298   1.713 -0.2357 -0.4344  0.3148
 1930SOL     OW 8935   1.272   2.815   4.204 -0.2516  0.1781  0.3559
 1930SOL    HW1 8936   1.243   2.724   4.209 -2.5931  0.8916  2.4764
 1930SOL    HW2 8937   1.215   2.854   4.138 -0.5299  0.4689  0.7615
 1931SOL     OW 8938   6.344   0.586   4.862 -0.1834  0.1039  0.2572
 1931SOL    HW1 8939   6.331   0.678   4.886  2.1492  0.9771 -1.3811
 1931SOL    HW2 8940   6.387   0.547   4.938 -0.4476  0.5919  0.6598
 1932SOL     OW 8941   4.524   0.672   2.236 -0.4554 -0.0171  0.5220
 1932SOL    HW1 8942   4.509   0.708   2.324  0.1647 -1.5347  1.2685
 1932SOL    HW2 8943   4.618   0.683   2.221 -0.6493  0.7678 -0.2172
 1933SOL     OW 8944   2.591   0.845   1.902 -0.0291 -0.6284  0.9496
 1933SOL    HW1 8945   2.513   0.821   1.953  1.0211  0.2187  3.1075
 1933SOL    HW2 8946   2.664   0.820   1.959  1.1911  3.0991  1.2787
 1934SOL     OW 8947   2.495   2.203   5.282 -0.0249 -0.2918  0.4002
 1934SOL    HW1 8948   2.454   2.287   5.263  0.3476 -0.3056 -0.5210
 1934SOL    HW2 8949   2.468   2.182   5.372  0.3352  1.0870  0.8596
 1935SOL     OW 8950   4.277   5.533   4.904 -0.5974  0.5061  0.1141
 1935SOL    HW1 8951   4.273   5.628   4.920 -2.2535  0.6694 -0.9685
 1935SOL    HW2 8952   4.228   5.521   4.822 -1.2468 -1.3836  0.7362
 1936SOL     OW 8953   6.556   7.616   5.411  0.0074 -0.3604  0.0544
 1936SOL    HW1 8954   6.472   7.570   5.418  0.1799 -0.4757  2.0142
 1936SOL    HW2 8955   6.605   7.589   5.489  1.3357  0.7604 -0.3458
 1937SOL     OW 8956   6.081   5.355   2.464  0.0368  0.1364 -0.3891
 1937SOL    HW1 8957   6.024   5.403   2.404 -0.4984  0.9390  0.7215
 1937SOL    HW2 8958   6.129   5.423   2.512  1.4251 -0.5165 -0.8011
 1938SOL     OW 8959   0.934   4.470   6.846  0.2371 -0.1604 -0.3866
 1938SOL    HW1 8960   0.859   4.438   6.796  0.6047 -2.3686  0.3697
 1938SOL    HW2 8961   1.001   4.486   6.780 -0.6348  1.1116 -0.9957
 1939SOL     OW 8962   3.319   6.974   0.714  0.2561  0.1909 -0.7246
 1939SOL    HW1 8963   3.324   7.002   0.806 -0.0561 -1.8234 -0.0222
 1939SOL    HW2 8964   3.227   6.988   0.690 -0.1388 -1.0697 -0.0545
 1940SOL     OW 8965   2.696   6.650   6.169  0.5048  0.5282 -0.0817
 1940SOL    HW1 8966   2.757   6.586   6.206  0.7260  0.4019 -0.6681
 1940SOL    HW2 8967   2.630   6.598   6.123  0.6344  0.7161 -0.4849
 1941SOL     OW 8968   2.183   3.521   5.195  0.3110  0.0174  0.4181
 1941SOL    HW1 8969   2.111   3.578   5.169 -0.0751 -0.6890 -0.0701
 1941SOL    HW2 8970   2.262   3.572   5.175 -0.0234  0.3336 -0.1259
 1942SOL     OW 8971   4.275   2.589   1.905 -0.1964 -0.3512  0.2608
 1942SOL    HW1 8972   4.246   2.569   1.816 -2.3611  0.2796  0.7833
 1942SOL    HW2 8973   4.283   2.503   1.947  0.0508 -0.6078 -0.3012
 1943SOL     OW 8974   6.032   2.475   3.934 -0.5795 -0.2896 -0.1855
 1943SOL    HW1 8975   6.099   2.538   3.910 -0.8728  1.6105  3.3270
 1943SOL    HW2 8976   6.080   2.394   3.951  0.2329 -0.1299 -1.5651
 1944SOL     OW 8977   6.673   2.980   0.831  0.6028  0.7528 -0.3058
 1944SOL    HW1 8978   6.599   3.039   0.842  0.4418  0.3712  0.7134
 1944SOL    HW2 8979   6.634   2.894   0.814  0.7500  0.2606  1.6228
 1945SOL     OW 8980   5.012   4.709   0.782  0.2735  0.4989  0.5672
 1945SOL    HW1 8981   5.060   4.658   0.848  0.9993  0.8428  0.3161
 1945SOL    HW2 8982   5.015   4.799   0.815 -1.6267  0.3197  1.3799
 1946SOL     OW 8983   4.240   1.174   6.607  0.0889 -0.2335 -0.1751
 1946SOL    HW1 8984   4.329   1.206   6.624  0.1509 -1.9145  3.9407
 1946SOL    HW2 8985   4.244   1.138   6.518  2.9040  1.5129 -0.8910
 1947SOL     OW 8986   7.439   3.985   4.654 -0.4245  0.1073 -0.5942
 1947SOL    HW1 8987   7.516   4.001   4.599  0.1406 -2.5756 -0.7049
 1947SOL    HW2 8988   7.366   3.981   4.592 -0.6612  2.2511 -0.5292
 1948SOL     OW 8989   3.416   1.744   1.535 -0.3206  0.0922 -0.6030
 1948SOL    HW1 8990   3.446   1.658   1.565 -2.1913 -0.6033 -0.5740
 1948SOL    HW2 8991   3.349   1.769   1.599  0.2984  1.6842 -0.5133
 1949SOL     OW 8992   3.280   2.529   2.532 -0.2311 -0.4893  0.3536
 1949SOL    HW1 8993   3.297   2.450   2.481 -2.0097 -0.6572 -0.0305
 1949SOL    HW2 8994   3.269   2.598   2.467  1.6974  0.2180  0.6946
 1950SOL     OW 8995   0.094   5.104   7.440 -0.0540  0.0048  0.6641
 1950SOL    HW1 8996   0.055   5.159   7.508 -1.4445  0.1588 -0.2136
 1950SOL    HW2 8997   0.019   5.059   7.400  1.0268 -2.9491  1.6620
 1951SOL     OW 8998   0.001   7.839   4.606  0.0230 -0.0878  0.0688
 1951SOL    HW1 8999  -0.019   7.920   4.560 -0.3444  0.1204  0.5799
 1951SOL    HW2 9000   0.095   7.844   4.624  0.2833 -0.4079 -1.0856
 1952SOL     OW 9001   1.248   2.410   5.421 -0.1175  0.3776 -0.7459
 1952SOL    HW1 9002   1.189   2.365   5.361  2.2769  0.1397 -3.0974
 1952SOL    HW2 9003   1.213   2.499   5.427 -0.7649  0.2215 -1.9920
 1953SOL     OW 9004   0.391   5.979   6.693 -0.4032  0.0603 -0.9419
 1953SOL    HW1 9005   0.416   5.963   6.603 -0.7160  0.9406 -1.1956
 1953SOL    HW2 9006   0.456   6.041   6.726  0.1039 -0.7710 -0.3471
 1954SOL     OW 9007   7.150   1.340   7.742 -0.1811 -0.1212 -0.1671
 1954SOL    HW1 9008   7.146   1.371   7.833 -1.1029 -0.8434  0.0549
 1954SOL    HW2 9009   7.090   1.397   7.694  1.1773  1.0178 -0.5846
 1955SOL     OW 9010   3.213   4.605   3.673 -0.1510 -0.3597 -0.1969
 1955SOL    HW1 9011   3.165   4.664   3.615  0.2940  0.7695  0.5577
 1955SOL    HW2 9012   3.295   4.587   3.627 -1.0944 -2.0192 -1.3329
 1956SOL     OW 9013   1.550   2.458   7.619 -0.6807  0.2283 -0.4600
 1956SOL    HW1 9014   1.472   2.411   7.592 -0.5652  0.2297 -0.7994
 1956SOL    HW2 9015   1.581   2.410   7.697 -0.6305 -0.1903 -0.7314
 1957SOL     OW 9016   6.321   2.928   1.253  0.3417 -0.3380 -0.0273
 1957SOL    HW1 9017   6.288   2.871   1.322  0.0982 -0.1056  0.0483
 1957SOL    HW2 9018   6.368   2.998   1.300 -0.5044  0.2623 -0.0503
 1958SOL     OW 9019   6.129   4.890   2.063 -0.1190 -0.1315  0.0134
 1958SOL    HW1 9020   6.150   4.902   1.971  0.4332  0.8447  0.2587
 1958SOL    HW2 9021   6.044   4.933   2.074  1.0163  2.1345  0.4953
 1959SOL     OW 9022   6.614   1.846   7.507 -0.1575 -0.1969 -0.0186
 1959SOL    HW1 9023   6.566   1.928   7.518 -1.5344 -1.2375  2.6616
 1959SOL    HW2 9024   6.693   1.857   7.559  0.4272 -0.0618 -0.9105
 1960SOL     OW 9025   0.877   2.387   4.780  0.2031  0.3069  0.2200
 1960SOL    HW1 9026   0.970   2.388   4.801  0.1585  0.2845  0.4212
 1960SOL    HW2 9027   0.873   2.408   4.687  0.6292 -2.6202 -0.5796
 1961SOL     OW 9028   0.300   4.176   3.455 -0.0776 -0.2250 -0.1419
 1961SOL    HW1 9029   0.359   4.243   3.421  0.3102  0.2064  1.3230
 1961SOL    HW2 9030   0.303   4.106   3.390  1.1896  0.2649 -0.6343
 1962SOL     OW 9031   7.806   6.470   5.709  0.2083 -0.0476 -0.0060
 1962SOL    HW1 9032   7.786   6.547   5.762  2.1231  0.9798 -0.6898
 1962SOL    HW2 9033   7.823   6.505   5.622 -2.0141 -1.6078 -1.1800
 1963SOL     OW 9034   7.174   1.372   7.279  0.1059  0.8730 -0.2599
 1963SOL    HW1 9035   7.085   1.408   7.281 -0.3787 -0.1688 -1.4827
 1963SOL    HW2 9036   7.170   1.298   7.340  0.0640  0.7171 -0.4479
 1964SOL     OW 9037   0.769   6.361   6.706 -0.0867 -0.1247  0.1387
 1964SOL    HW1 9038   0.855   6.323   6.723 -0.5052 -0.9878  0.4132
 1964SOL    HW2 9039   0.756   6.425   6.776 -0.4808 -1.4113  1.2731
 1965SOL     OW 9040   2.134   2.051   3.035  0.3361  0.0666  0.0426
 1965SOL    HW1 9041   2.147   2.022   2.945 -0.4662  1.3995 -0.5309
 1965SOL    HW2 9042   2.202   2.005   3.085  0.7851 -0.7048 -1.2272
 1966SOL     OW 9043   3.245   5.979   4.872 -0.2842 -0.0395 -0.4679
 1966SOL    HW1 9044   3.156   5.944   4.871 -0.4521  0.3778 -1.3446
 1966SOL    HW2 9045   3.301   5.903   4.880 -0.7530 -0.2080  1.6698
 1967SOL     OW 9046   5.900   4.081   4.776  0.3883 -0.0919 -0.5102
 1967SOL    HW1 9047   5.985   4.124   4.763  0.7259  0.2264  2.2613
 1967SOL    HW2 9048   5.911   4.030   4.856 -2.0226 -0.1257 -0.1384
 1968SOL     OW 9049   4.148   6.378   8.092 -0.2794 -0.1346 -0.0837
 1968SOL    HW1 9050   4.113   6.426   8.017 -0.2158  0.0277 -0.0107
 1968SOL    HW2 9051   4.170   6.446   8.156  0.1515 -0.2388 -0.1200
 1969SOL     OW 9052   0.135   3.015   5.677 -0.3148 -0.0848  0.0912
 1969SOL    HW1 9053   0.187   3.037   5.754 -1.5951  0.8330  0.7231
 1969SOL    HW2 9054   0.067   2.956   5.709 -0.3389 -0.3964 -0.5075
 1970SOL     OW 9055   3.556   1.941   4.759  0.7232  0.7095  0.4859
 1970SOL    HW1 9056   3.569   1.954   4.665  0.9640 -0.5919  0.3256
 1970SOL    HW2 9057   3.626   1.881   4.785  0.8206  1.2578  1.5605
 1971SOL     OW 9058   2.063   0.788   5.418 -0.1855 -0.0753  0.1414
 1971SOL    HW1 9059   1.976   0.830   5.422 -0.3385 -0.4641  1.6494
 1971SOL    HW2 9060   2.101   0.805   5.504  2.5855  2.7793 -1.4388
 1972SOL     OW 9061   0.862   4.302   6.192 -0.2019  0.4045  0.3518
 1972SOL    HW1 9062   0.778   4.267   6.162  0.6834  0.7531 -2.8840
 1972SOL    HW2 9063   0.893   4.239   6.258 -2.0183 -0.8335  0.0886
 1973SOL     OW 9064   4.478   3.677   0.944 -0.0190 -0.1911 -0.3413
 1973SOL    HW1 9065   4.512   3.611   0.884 -0.1539  0.2648 -0.9257
 1973SOL    HW2 9066   4.524   3.660   1.027 -1.9693 -2.7087  0.3501
 1974SOL     OW 9067   1.970   2.781   3.201  0.3979 -0.1045 -0.2863
 1974SOL    HW1 9068   1.917   2.854   3.232  0.4256 -0.4755  0.6661
 1974SOL    HW2 9069   1.926   2.703   3.236  1.7438 -0.4012  0.8144
 1975SOL     OW 9070   0.466   2.739   2.209 -0.3568 -0.1708 -0.0694
 1975SOL    HW1 9071   0.540   2.746   2.149 -0.4109 -1.5270 -0.3215
 1975SOL    HW2 9072   0.498   2.777   2.291 -0.1229  1.2419 -0.7820
 1976SOL     OW 9073   3.592   6.592   7.666  0.0547  0.6334 -0.2222
 1976SOL    HW1 9074   3.594   6.682   7.698  1.0797  0.6015 -0.1833
 1976SOL    HW2 9075   3.640   6.542   7.731  0.3253  0.2194 -0.7332
 1977SOL     OW 9076   6.687   7.956   1.964 -0.1880 -0.0501  0.9388
 1977SOL    HW1 9077   6.673   7.876   2.015  0.4710 -2.0715 -1.7964
 1977SOL    HW2 9078   6.780   7.977   1.977  0.6214 -1.9616 -1.1042
 1978SOL     OW 9079   3.651   3.988   7.689  0.3742  0.0231  0.0489
 1978SOL    HW1 9080   3.702   4.068   7.678  0.5112 -0.2269 -1.3543
 1978SOL    HW2 9081   3.709   3.918   7.657 -0.6178 -0.3318 -1.0359
 1979SOL     OW 9082   4.866   0.184   0.649 -0.0348  0.0008  0.1208
 1979SOL    HW1 9083   4.779   0.206   0.616  0.2338  0.2826 -0.4112
 1979SOL    HW2 9084   4.870   0.224   0.736  0.5219  2.3261 -0.9019
 1980SOL     OW 9085   3.517   7.851   7.090 -0.7283  0.5826  0.3937
 1980SOL    HW1 9086   3.449   7.873   7.153 -0.6106  0.2215  0.6526
 1980SOL    HW2 9087   3.572   7.929   7.086  0.8620 -0.2955  2.8336
 1981SOL     OW 9088   6.040   0.792   0.225  0.2514 -0.1361 -0.1452
 1981SOL    HW1 9089   5.994   0.717   0.262  0.2916  0.4248  1.0754
 1981SOL    HW2 9090   6.132   0.776   0.243  0.3708 -0.2931 -0.8358
 1982SOL     OW 9091   2.481   7.765   2.095  0.2061 -0.1495 -0.2964
 1982SOL    HW1 9092   2.461   7.715   2.174  0.6411 -0.6539 -0.4980
 1982SOL    HW2 9093   2.541   7.834   2.124  0.4246 -0.3808 -0.2024
 1983SOL     OW 9094   6.058   0.330   6.161  0.1599  0.4883 -0.2029
 1983SOL    HW1 9095   6.035   0.249   6.116  0.7125 -0.1020  0.5561
 1983SOL    HW2 9096   5.980   0.353   6.211 -0.1156  0.6151 -0.6858
 1984SOL     OW 9097   0.571   0.571   6.257 -0.0866  0.0884 -0.6108
 1984SOL    HW1 9098   0.616   0.655   6.245  1.2764 -0.3594  1.0642
 1984SOL    HW2 9099   0.521   0.582   6.337  1.0573 -1.0531  0.3010
 1985SOL     OW 9100   6.366   7.651   0.414 -0.0497  0.1171  0.1418
 1985SOL    HW1 9101   6.309   7.590   0.367 -0.3887  0.9148 -0.4998
 1985SOL    HW2 9102   6.452   7.636   0.377 -0.0164 -0.3785  0.4028
 1986SOL     OW 9103   0.030   3.746   7.236 -0.1427  0.2653  0.5431
 1986SOL    HW1 9104  -0.064   3.765   7.235 -0.1000  0.6169  1.6256
 1986SOL    HW2 9105   0.039   3.667   7.183 -0.8474  1.0522 -0.7910
 1987SOL     OW 9106   3.907   1.808   2.943  0.2866 -0.1269 -0.1492
 1987SOL    HW1 9107   3.854   1.876   2.985  0.2979  0.2697 -0.7643
 1987SOL    HW2 9108   3.877   1.726   2.983 -3.2556 -0.3579 -2.7783
 1988SOL     OW 9109   6.683   3.553   4.345 -0.3127 -0.3753 -0.0789
 1988SOL    HW1 9110   6.647   3.526   4.429  1.5509  1.2027  1.3383
 1988SOL    HW2 9111   6.673   3.477   4.288 -0.9388 -1.7663  1.8009
 1989SOL     OW 9112   4.239   2.818   0.243 -0.3626  0.5498 -0.1353
 1989SOL    HW1 9113   4.194   2.889   0.197 -1.2134  1.3798  1.8571
 1989SOL    HW2 9114   4.197   2.738   0.211 -2.3947  1.2300  0.6475
 1990SOL     OW 9115   3.343   7.817   6.877 -0.3340  0.1175 -0.2286
 1990SOL    HW1 9116   3.379   7.813   6.966 -2.1568  4.4102  0.9954
 1990SOL    HW2 9117   3.303   7.731   6.864  0.0714 -0.7370  3.1249
 1991SOL     OW 9118   1.127   7.819   0.991 -0.5228  0.3201 -0.4291
 1991SOL    HW1 9119   1.124   7.730   1.027  0.4934  0.8361  1.0374
 1991SOL    HW2 9120   1.080   7.872   1.055  0.2182  1.0650 -0.4768
 1992SOL     OW 9121   7.062   2.005   2.865  0.1279  0.8222 -0.4254
 1992SOL    HW1 9122   7.143   1.979   2.910 -0.3532  1.8554  1.1118
 1992SOL    HW2 9123   7.079   1.986   2.772  0.8488 -2.2080  0.2185
 1993SOL     OW 9124   6.786   7.005   5.105 -0.1212  0.4340 -0.5686
 1993SOL    HW1 9125   6.870   6.960   5.097 -0.3626 -0.4457  1.2233
 1993SOL    HW2 9126   6.720   6.936   5.092 -0.4948 -0.0053  2.6301
 1994SOL     OW 9127   5.376   1.307   0.172 -0.7730 -0.1171  0.0503
 1994SOL    HW1 9128   5.342   1.327   0.259  0.5183  0.3184  0.4771
 1994SOL    HW2 9129   5.467   1.338   0.174 -0.6438 -0.3414 -1.3654
 1995SOL     OW 9130   6.643   2.587   7.724  0.0901  0.5157  0.5197
 1995SOL    HW1 9131   6.625   2.677   7.698  2.5487  0.5224 -1.5616
 1995SOL    HW2 9132   6.591   2.533   7.665  1.5076  0.5985 -0.8688
 1996SOL     OW 9133   6.725   3.696   2.743 -0.4263  0.1557 -0.3256
 1996SOL    HW1 9134   6.643   3.647   2.744 -0.5560  0.3689 -0.4799
 1996SOL    HW2 9135   6.778   3.652   2.677  0.2779 -1.1001  1.0205
 1997SOL     OW 9136   3.271   2.446   4.547  0.3384  0.4000  0.3940
 1997SOL    HW1 9137   3.221   2.505   4.603 -0.5670 -1.2294  1.3640
 1997SOL    HW2 9138   3.207   2.381   4.518  1.7334 -1.4010  1.1830
 1998SOL     OW 9139   3.970   2.447   3.905  0.1876 -0.7263 -0.0419
 1998SOL    HW1 9140   3.970   2.406   3.992 -0.7465 -1.1897 -0.2449
 1998SOL    HW2 9141   4.032   2.519   3.912 -0.7593  0.0049  1.3846
 1999SOL     OW 9142   6.121   6.950   2.380 -0.1658  0.6077 -0.0643
 1999SOL    HW1 9143   6.053   7.017   2.388 -2.3183 -1.3534 -0.8630
 1999SOL    HW2 9144   6.138   6.924   2.471 -0.7235  0.8899  0.1298
 2000SOL     OW 9145   2.944   5.285   7.803 -0.0409 -0.0336 -0.4642
 2000SOL    HW1 9146   2.888   5.359   7.829  0.0546  0.1569 -0.8047
 2000SOL    HW2 9147   2.897   5.244   7.731 -0.7291 -1.0793  0.5391
 2001SOL     OW 9148   3.822   3.662   3.561  0.1162 -0.1223 -0.1557
 2001SOL    HW1 9149   3.813   3.587   3.502  0.4981 -0.6609  0.4517
 2001SOL    HW2 9150   3.750   3.720   3.537 -0.2048 -0.6974 -0.6175
 2002SOL     OW 9151   1.203   5.423   3.274 -0.0357 -0.2048  0.2984
 2002SOL    HW1 9152   1.296   5.427   3.298  0.3585  0.0241 -1.1336
 2002SOL    HW2 9153   1.201   5.456   3.184 -1.0561 -3.1100 -0.8638
 2003SOL     OW 9154   2.591   1.246   6.927 -0.1904  0.7284 -0.0385
 2003SOL    HW1 9155   2.499   1.254   6.902  0.1217 -0.0118 -1.5441
 2003SOL    HW2 9156   2.615   1.332   6.961 -1.1737  1.2213 -0.5689
 2004SOL     OW 9157   1.549   7.885   6.638 -0.6748 -0.1702  0.2858
 2004SOL    HW1 9158   1.524   7.794   6.653 -1.4722  0.0366  0.2961
 2004SOL    HW2 9159   1.519   7.932   6.716 -0.7423  0.1777  0.0562
 2005SOL     OW 9160   3.054   6.362   2.097  0.7431 -0.7262 -0.1260
 2005SOL    HW1 9161   2.992   6.427   2.065  1.4093  0.2909  0.5920
 2005SOL    HW2 9162   3.041   6.361   2.192  0.6073 -1.7993 -0.1398
 2006SOL     OW 9163   1.888   1.074   2.330  0.4062  0.3422  0.4506
 2006SOL    HW1 9164   1.972   1.095   2.289 -0.5904 -0.8972 -2.4821
 2006SOL    HW2 9165   1.823   1.099   2.264 -1.4729  0.1606  2.1613
 2007SOL     OW 9166   7.561   7.951   4.312  1.2356 -0.3513 -0.3091
 2007SOL    HW1 9167   7.469   7.975   4.300  0.8286 -1.4620  0.4660
 2007SOL    HW2 9168   7.569   7.865   4.272  1.3329 -1.3327  1.6611
 2008SOL     OW 9169   2.953   0.885   1.443  0.2903  1.2177  0.2083
 2008SOL    HW1 9170   3.000   0.964   1.470  1.2181  0.5060  0.7290
 2008SOL    HW2 9171   2.861   0.908   1.450  0.5131  1.7206  2.0612
 2009SOL     OW 9172   2.122   3.925   7.679  0.3490 -0.1795 -0.5667
 2009SOL    HW1 9173   2.109   3.984   7.606  1.4571  1.5977  0.5874
 2009SOL    HW2 9174   2.061   3.955   7.746 -0.0944 -1.2816 -0.4449
 2010SOL     OW 9175   4.271   6.377   0.459 -0.5347 -0.1380 -0.1561
 2010SOL    HW1 9176   4.242   6.427   0.383  0.4556 -0.7794 -0.9734
 2010SOL    HW2 9177   4.366   6.375   0.452 -0.1294  2.1490  2.6097
 2011SOL     OW 9178   1.939   0.378   1.991  0.1047 -0.0240 -0.7430
 2011SOL    HW1 9179   1.866   0.415   2.040  0.5928  0.5195 -0.4187
 2011SOL    HW2 9180   1.897   0.325   1.923 -0.6158  1.4601 -1.5035
 2012SOL     OW 9181   2.571   2.342   3.606 -0.2754 -0.1679 -0.1316
 2012SOL    HW1 9182   2.555   2.404   3.678  0.0141 -0.0473 -0.1729
 2012SOL    HW2 9183   2.649   2.294   3.633  2.1410  2.3733 -2.0146
 2013SOL     OW 9184   0.982   5.801   7.947  0.0516 -0.2416 -0.8788
 2013SOL    HW1 9185   1.010   5.711   7.930  0.1065 -0.4532  0.2363
 2013SOL    HW2 9186   0.888   5.800   7.929 -0.1918 -0.8561  0.2870
 2014SOL     OW 9187   6.396   6.309   7.645 -0.3638 -0.0553 -0.3352
 2014SOL    HW1 9188   6.375   6.347   7.560  1.3848  1.1535 -0.2796
 2014SOL    HW2 9189   6.317   6.261   7.670 -1.2875  0.4330 -2.1486
 2015SOL     OW 9190   1.661   5.304   4.750  0.2469 -0.1576  0.8491
 2015SOL    HW1 9191   1.685   5.341   4.835  1.3839  0.2257  0.3771
 2015SOL    HW2 9192   1.734   5.246   4.728  1.6586  2.2515 -1.3711
 2016SOL     OW 9193   4.516   6.356   7.769 -0.3769  0.4085  0.0522
 2016SOL    HW1 9194   4.491   6.423   7.832 -0.5006  0.6281 -0.2282
 2016SOL    HW2 9195   4.602   6.383   7.739 -0.7765  0.9009 -0.6778
 2017SOL     OW 9196   3.996   0.528   6.264  0.0301  0.2617  0.0372
 2017SOL    HW1 9197   3.977   0.435   6.276  1.9362 -0.3605 -1.3048
 2017SOL    HW2 9198   3.949   0.552   6.184  1.3564 -0.1948 -0.9203
 2018SOL     OW 9199   2.139   4.647   1.565 -0.4459  1.1586 -0.0251
 2018SOL    HW1 9200   2.084   4.684   1.496 -1.3146  0.7468  0.4274
 2018SOL    HW2 9201   2.135   4.553   1.551 -0.0009  1.1110  0.1368
 2019SOL     OW 9202   7.833   8.064   0.412 -0.2794  0.5630  0.0045
 2019SOL    HW1 9203   7.885   8.059   0.332  0.3756 -1.3794  0.4837
 2019SOL    HW2 9204   7.897   8.074   0.482 -0.6111 -0.6403  0.5045
 2020SOL     OW 9205   3.739   0.758   1.526  0.0309 -0.1023 -0.0690
 2020SOL    HW1 9206   3.696   0.736   1.443  1.2783  1.8392 -1.3054
 2020SOL    HW2 9207   3.765   0.850   1.516  1.2743 -0.1693  2.0205
 2021SOL     OW 9208   5.600   6.521   3.026  0.9331 -0.1379  0.5722
 2021SOL    HW1 9209   5.517   6.480   3.000  1.1023 -0.6581  0.8316
 2021SOL    HW2 9210   5.585   6.615   3.016  0.7871 -0.2952 -0.7766
 2022SOL     OW 9211   3.258   3.933   0.081 -0.0539  0.0827  0.4284
 2022SOL    HW1 9212   3.260   3.982  -0.002  0.6474 -2.9985 -1.5454
 2022SOL    HW2 9213   3.165   3.916   0.096 -0.1207 -0.3317 -0.3841
 2023SOL     OW 9214   7.505   7.181   7.015 -0.0678 -0.1212  0.8891
 2023SOL    HW1 9215   7.555   7.251   6.973  0.2331 -0.6380  0.3762
 2023SOL    HW2 9216   7.414   7.211   7.011 -0.2250 -0.7140 -1.3035
 2024SOL     OW 9217   4.055   1.862   2.515  0.0531  0.2535  0.5738
 2024SOL    HW1 9218   4.084   1.902   2.433  0.8188  0.3685  0.8921
 2024SOL    HW2 9219   4.135   1.824   2.552 -0.1326  0.9001  1.6567
 2025SOL     OW 9220   7.210   0.332   2.510 -0.3272 -0.3012  0.3703
 2025SOL    HW1 9221   7.127   0.379   2.501  1.2776  2.4876 -1.3114
 2025SOL    HW2 9222   7.235   0.345   2.602 -0.5044  1.2190  0.2324
 2026SOL     OW 9223   5.056   1.491   2.226 -0.4771 -0.3224 -0.3983
 2026SOL    HW1 9224   4.973   1.461   2.187 -1.2589  1.4920 -0.2415
 2026SOL    HW2 9225   5.103   1.532   2.154 -0.1744 -0.4212 -0.2587
 2027SOL     OW 9226   5.357   7.958   4.603  0.0098  0.3335  0.3877
 2027SOL    HW1 9227   5.337   7.894   4.534  0.9282  1.3729 -0.8946
 2027SOL    HW2 9228   5.274   7.967   4.651  0.0302 -2.2977  1.0687
 2028SOL     OW 9229   1.085   0.927   0.559 -0.1915 -0.5511  0.2079
 2028SOL    HW1 9230   1.032   1.004   0.579  0.5289  0.3215 -1.1117
 2028SOL    HW2 9231   1.159   0.934   0.620 -1.6266 -1.9320  2.2617
 2029SOL     OW 9232   1.668   8.041   0.495  0.3552  0.4210  0.6605
 2029SOL    HW1 9233   1.675   8.056   0.589  1.2791  0.0832  0.6573
 2029SOL    HW2 9234   1.588   7.989   0.485  0.9303 -0.6324  1.3936
 2030SOL     OW 9235   3.209   1.142   5.396  0.5370  0.5063 -0.0157
 2030SOL    HW1 9236   3.122   1.162   5.362  0.8256  2.0073  0.0482
 2030SOL    HW2 9237   3.267   1.158   5.322  0.7472 -0.8831 -0.1783
 2031SOL     OW 9238   0.054   1.715   7.945  0.2323 -0.1135  0.1125
 2031SOL    HW1 9239   0.148   1.724   7.931  0.2937  0.1303  0.6489
 2031SOL    HW2 9240   0.029   1.794   7.993 -0.2841 -0.0768 -0.1988
 2032SOL     OW 9241   1.439   2.404   7.933 -0.2673 -0.4721  0.0109
 2032SOL    HW1 9242   1.375   2.346   7.974 -0.5584  0.6551  1.2327
 2032SOL    HW2 9243   1.391   2.484   7.914  0.6085  0.1590  0.3463
 2033SOL     OW 9244   4.748   0.797   0.378  0.3462  0.2706  0.0549
 2033SOL    HW1 9245   4.741   0.859   0.451 -0.1159  1.2971 -0.8231
 2033SOL    HW2 9246   4.682   0.731   0.397  2.0511 -1.0276  1.9374
 2034SOL     OW 9247   1.781   0.350   0.814  0.3218 -0.4075 -0.1986
 2034SOL    HW1 9248   1.739   0.423   0.861  1.3653  0.4791 -0.5985
 2034SOL    HW2 9249   1.747   0.271   0.857 -0.7383  0.3123  0.3285
 2035SOL     OW 9250   2.503   6.967   2.967  0.2416  0.2780  0.0263
 2035SOL    HW1 9251   2.464   6.969   3.054  0.6270  1.4183  0.1905
 2035SOL    HW2 9252   2.434   6.996   2.908 -0.0646 -0.6333 -0.0869
 2036SOL     OW 9253   4.004   0.835   4.505  0.1095  0.2438 -0.4203
 2036SOL    HW1 9254   4.056   0.755   4.513  1.2899  1.0344  0.0491
 2036SOL    HW2 9255   3.973   0.835   4.415  1.3990  0.0243 -0.8775
 2037SOL     OW 9256   6.551   5.059   8.040 -0.4939 -0.2815  0.9538
 2037SOL    HW1 9257   6.508   5.071   8.125 -3.1700 -3.2427  0.2016
 2037SOL    HW2 9258   6.561   4.964   8.031  0.9858  0.0186 -1.4761
 2038SOL     OW 9259   7.003   0.365   2.134 -0.1501  0.0172 -0.8351
 2038SOL    HW1 9260   7.023   0.404   2.220  1.5809  0.7251 -1.5105
 2038SOL    HW2 9261   6.908   0.374   2.126 -0.2337  0.8837  0.5649
 2039SOL     OW 9262   0.410   1.309   4.976 -0.2888 -0.4828  0.1570
 2039SOL    HW1 9263   0.495   1.352   4.984 -0.9834  0.6360  2.2422
 2039SOL    HW2 9264   0.423   1.244   4.907  2.4408 -0.8111  0.8419
 2040SOL     OW 9265   5.557   4.449   2.932 -0.1478 -0.5178  0.5386
 2040SOL    HW1 9266   5.520   4.461   2.844 -2.9344  0.0421  1.6926
 2040SOL    HW2 9267   5.573   4.355   2.938 -0.9077 -0.7087 -0.2119
 2041SOL     OW 9268   5.648   5.690   2.069 -0.2104  0.4856  0.0901
 2041SOL    HW1 9269   5.600   5.619   2.028 -0.2180  1.4321 -1.6310
 2041SOL    HW2 9270   5.718   5.711   2.007  1.7415 -0.0642  1.9855
 2042SOL     OW 9271   6.150   6.204   3.855 -0.5653 -0.2104  0.6399
 2042SOL    HW1 9272   6.129   6.113   3.832 -1.1703  0.1352 -0.2105
 2042SOL    HW2 9273   6.076   6.234   3.907 -1.3727  0.4287 -0.8176
 2043SOL     OW 9274   5.038   3.743   7.652 -0.5173  0.1272  0.0003
 2043SOL    HW1 9275   5.081   3.793   7.583  0.0436 -0.0803  0.1961
 2043SOL    HW2 9276   5.110   3.705   7.703 -0.9344 -0.8081 -0.0923
 2044SOL     OW 9277   3.961   5.661   5.565 -0.1531  0.0142 -0.2311
 2044SOL    HW1 9278   3.952   5.714   5.486 -2.0491 -0.1491 -0.1772
 2044SOL    HW2 9279   3.886   5.602   5.563 -0.0547 -0.2324  1.5236
 2045SOL     OW 9280   3.233   4.452   3.301  0.1679  0.9608 -0.1615
 2045SOL    HW1 9281   3.294   4.503   3.354  0.8193  0.6606 -0.6164
 2045SOL    HW2 9282   3.147   4.486   3.325  0.5037  1.3653  0.5117
 2046SOL     OW 9283   0.420   0.339   3.633  0.1546  0.3815  0.0932
 2046SOL    HW1 9284   0.355   0.329   3.702  1.0204  0.4693  0.9473
 2046SOL    HW2 9285   0.500   0.364   3.679  0.4697  1.5820 -1.0653
 2047SOL     OW 9286   4.668   6.702   7.870 -0.3577 -0.4226  0.1139
 2047SOL    HW1 9287   4.595   6.643   7.890  1.2763 -1.6270  3.0825
 2047SOL    HW2 9288   4.645   6.784   7.914 -1.2254  0.2980 -1.5356
 2048SOL     OW 9289   3.341   0.322   3.468 -0.1679 -0.1335 -0.5039
 2048SOL    HW1 9290   3.291   0.357   3.542  2.2736 -0.8847  1.6881
 2048SOL    HW2 9291   3.288   0.342   3.391 -2.9086  0.6346  1.4291
 2049SOL     OW 9292   0.041   7.265   0.564 -0.2367  0.4780  0.0930
 2049SOL    HW1 9293   0.018   7.173   0.575 -0.4752  0.4414 -0.6400
 2049SOL    HW2 9294   0.103   7.265   0.491 -0.0715  0.8765  0.2330
 2050SOL     OW 9295   3.232   7.872   2.977 -0.6353  0.2109 -1.0314
 2050SOL    HW1 9296   3.243   7.960   3.011  1.0358  0.8152 -2.9126
 2050SOL    HW2 9297   3.243   7.815   3.053 -0.9206  1.5844  0.0763
 2051SOL     OW 9298   7.095   4.601   7.924  0.0235  0.1884  0.3461
 2051SOL    HW1 9299   7.142   4.581   8.005  0.5597 -0.1964 -0.0455
 2051SOL    HW2 9300   7.053   4.519   7.900  0.3750  0.1270 -0.0814
 2052SOL     OW 9301   2.249   0.573   2.263 -0.0073  0.4988  0.3422
 2052SOL    HW1 9302   2.192   0.585   2.339  1.4691 -0.9909  1.7537
 2052SOL    HW2 9303   2.220   0.490   2.224 -0.3067  0.9116 -0.3359
 2053SOL     OW 9304   6.791   1.109   4.170 -0.0650  0.0216 -0.1223
 2053SOL    HW1 9305   6.696   1.119   4.177 -0.0507 -0.8788  2.4353
 2053SOL    HW2 9306   6.825   1.164   4.240  1.0910 -1.9264  0.9270
 2054SOL     OW 9307   3.441   5.215   7.112 -0.6490  0.0508  0.8791
 2054SOL    HW1 9308   3.439   5.227   7.017 -0.8749 -1.3904  0.6813
 2054SOL    HW2 9309   3.349   5.221   7.139 -0.8260 -1.5056  0.7118
 2055SOL     OW 9310   3.526   3.981   4.719 -0.1121 -0.9134 -0.6574
 2055SOL    HW1 9311   3.546   4.003   4.628 -1.3351  0.4947 -0.6275
 2055SOL    HW2 9312   3.544   4.062   4.767 -2.1925 -0.7215 -0.1018
 2056SOL     OW 9313   3.311   1.617   3.616  0.7854 -0.4666  0.1018
 2056SOL    HW1 9314   3.353   1.700   3.638 -1.0707  0.7025 -0.5128
 2056SOL    HW2 9315   3.374   1.550   3.641  1.1161  0.9668  3.5727
 2057SOL     OW 9316   7.017   2.389   4.291 -0.2434  0.0401 -0.0772
 2057SOL    HW1 9317   7.087   2.447   4.261 -0.1945 -0.9692 -2.0956
 2057SOL    HW2 9318   7.062   2.309   4.318 -0.5311 -0.2130 -0.3370
 2058SOL     OW 9319   3.937   7.136   5.722 -0.3412  0.1873  0.5424
 2058SOL    HW1 9320   3.957   7.191   5.645 -0.2322 -0.1624  0.3191
 2058SOL    HW2 9321   3.856   7.173   5.757 -0.7966 -0.1108 -0.1774
 2059SOL     OW 9322   2.873   2.507   5.337 -0.8385 -0.6540 -0.0421
 2059SOL    HW1 9323   2.968   2.494   5.338 -0.7497  0.0130  0.9083
 2059SOL    HW2 9324   2.857   2.574   5.403 -2.0581 -1.2873  0.3328
 2060SOL     OW 9325   5.094   7.647   0.435  0.6408 -0.1040  0.0116
 2060SOL    HW1 9326   5.056   7.560   0.437 -0.1587  0.2260  2.9964
 2060SOL    HW2 9327   5.179   7.635   0.391  1.9503 -3.0661  2.9312
 2061SOL     OW 9328   7.815   4.319   0.732 -0.4279 -0.2957  0.6631
 2061SOL    HW1 9329   7.731   4.288   0.766 -0.4329 -1.4753 -0.3467
 2061SOL    HW2 9330   7.819   4.411   0.759 -1.6077 -0.4693  1.5332
 2062SOL     OW 9331   2.406   0.217   5.218  0.2534 -0.2431  0.2854
 2062SOL    HW1 9332   2.413   0.218   5.122  0.9158  0.2054  0.3337
 2062SOL    HW2 9333   2.321   0.177   5.235  0.2328 -0.5509 -0.4867
 2063SOL     OW 9334   2.687   7.752   7.388  0.2541 -0.4473  0.2420
 2063SOL    HW1 9335   2.737   7.739   7.468 -0.3683  1.6654  1.0501
 2063SOL    HW2 9336   2.752   7.778   7.323  0.5132 -0.0740  0.6463
 2064SOL     OW 9337   5.056   4.393   5.527 -0.5410  0.2857  0.0575
 2064SOL    HW1 9338   5.146   4.423   5.511  0.6301 -2.0636  1.6022
 2064SOL    HW2 9339   5.022   4.457   5.591 -0.1857  1.4873 -0.9107
 2065SOL     OW 9340   5.144   5.616   7.519  0.2521 -0.1523  0.2267
 2065SOL    HW1 9341   5.073   5.555   7.539 -0.1540  0.7307  1.6753
 2065SOL    HW2 9342   5.224   5.568   7.541  0.2111 -1.3771 -1.9981
 2066SOL     OW 9343   6.673   5.128   5.298  0.1777  0.2912 -0.1937
 2066SOL    HW1 9344   6.687   5.183   5.221 -0.3713  0.2591 -0.3209
 2066SOL    HW2 9345   6.683   5.038   5.266  0.1550  0.2856 -0.1852
 2067SOL     OW 9346   3.933   3.949   7.183  0.5138 -0.4598  0.5997
 2067SOL    HW1 9347   3.935   3.867   7.133 -0.4913 -0.4797  0.5720
 2067SOL    HW2 9348   3.999   4.004   7.141  0.5890 -0.9433  0.0662
 2068SOL     OW 9349   1.486   1.538   1.297  0.1340 -0.4587 -0.4408
 2068SOL    HW1 9350   1.434   1.562   1.220  0.7373 -0.8712 -0.9849
 2068SOL    HW2 9351   1.555   1.604   1.302 -1.0017  0.7010  0.8869
 2069SOL     OW 9352   1.063   5.045   7.188  0.3279  0.2473 -0.6675
 2069SOL    HW1 9353   1.039   5.085   7.272 -1.2489 -0.4465 -0.7545
 2069SOL    HW2 9354   0.987   4.992   7.164  1.1297 -0.3168 -2.0842
 2070SOL     OW 9355   0.596   4.975   5.684 -0.1812 -0.5456 -0.2992
 2070SOL    HW1 9356   0.602   5.021   5.767 -0.1765 -1.8634  0.4598
 2070SOL    HW2 9357   0.507   4.939   5.682  0.3256 -1.8735 -0.0960
 2071SOL     OW 9358   6.317   3.938   1.894 -0.2568  0.1912 -0.2990
 2071SOL    HW1 9359   6.302   4.018   1.844 -0.9027 -0.0913 -0.5613
 2071SOL    HW2 9360   6.230   3.902   1.909  0.0862 -1.5369 -1.9654
 2072SOL     OW 9361   4.319   3.370   6.393  0.6375 -0.8888  0.1847
 2072SOL    HW1 9362   4.343   3.295   6.448 -0.8600 -1.2985  0.3229
 2072SOL    HW2 9363   4.230   3.393   6.421  1.1493  1.1025  0.3019
 2073SOL     OW 9364   0.608   3.189   3.081 -0.1652 -0.1331  0.1120
 2073SOL    HW1 9365   0.643   3.127   3.017 -0.7602  1.3630 -1.7622
 2073SOL    HW2 9366   0.661   3.267   3.070 -0.2311  0.1264  1.5415
 2074SOL     OW 9367   7.814   3.001   0.229 -0.1265  0.0275  0.0411
 2074SOL    HW1 9368   7.756   2.925   0.220 -0.0026 -0.3252  1.7583
 2074SOL    HW2 9369   7.894   2.975   0.184 -0.4773 -0.4257 -0.3353
 2075SOL     OW 9370   2.858   4.364   1.821  0.5855  0.6356  0.1341
 2075SOL    HW1 9371   2.901   4.390   1.739  0.3159  4.3922  1.0258
 2075SOL    HW2 9372   2.777   4.322   1.793  0.3704  2.0687 -1.5513
 2076SOL     OW 9373   6.578   2.880   4.027  0.3396  0.1656 -0.5011
 2076SOL    HW1 9374   6.654   2.888   4.083 -1.0396  0.4411  1.4359
 2076SOL    HW2 9375   6.560   2.970   3.998  0.5355  0.1539 -0.6585
 2077SOL     OW 9376   2.638   1.742   2.468  0.5400  0.5037 -0.1811
 2077SOL    HW1 9377   2.610   1.732   2.376  0.5324  1.8656 -0.3461
 2077SOL    HW2 9378   2.664   1.654   2.495 -0.4902 -0.1220 -1.1564
 2078SOL     OW 9379   0.767   4.686   4.557  0.1558 -0.2806  0.7338
 2078SOL    HW1 9380   0.863   4.686   4.560  0.2749 -2.7352 -0.9074
 2078SOL    HW2 9381   0.742   4.772   4.593  2.9468  0.5397  0.9209
 2079SOL     OW 9382   2.447   5.729   0.643  0.1134 -0.1264  0.2818
 2079SOL    HW1 9383   2.512   5.776   0.592 -1.1570 -1.0645 -2.3542
 2079SOL    HW2 9384   2.490   5.647   0.667  0.0214 -0.6845 -1.3327
 2080SOL     OW 9385   2.290   3.052   1.680  0.2049  0.7649 -0.0789
 2080SOL    HW1 9386   2.205   3.009   1.688  0.2593  0.4076 -1.1719
 2080SOL    HW2 9387   2.270   3.137   1.641  0.4218  0.2510 -1.3741
 2081SOL     OW 9388   1.559   3.430   2.024 -0.3568 -0.0458 -0.3350
 2081SOL    HW1 9389   1.517   3.373   1.959  0.5311  0.2163 -1.1637
 2081SOL    HW2 9390   1.516   3.408   2.107 -1.1135 -0.7973 -0.9123
 2082SOL     OW 9391   1.080   5.203   4.343  0.0822  0.4185 -0.0513
 2082SOL    HW1 9392   1.060   5.111   4.325  1.8711  0.1535 -0.9728
 2082SOL    HW2 9393   1.136   5.200   4.421 -1.0093  0.8734  0.7721
 2083SOL     OW 9394   7.175   7.869   2.578 -0.1146 -0.2351  0.5275
 2083SOL    HW1 9395   7.169   7.951   2.626 -1.5337  0.1593 -0.2913
 2083SOL    HW2 9396   7.098   7.868   2.521 -0.0994 -2.1073  0.4818
 2084SOL     OW 9397   1.083   6.482   4.586 -0.0439  0.5402  0.3733
 2084SOL    HW1 9398   1.123   6.555   4.633  2.2229 -0.7853  0.6722
 2084SOL    HW2 9399   1.135   6.406   4.611 -1.6047 -1.0017 -0.7992
 2085SOL     OW 9400   3.578   2.047   0.903  0.0923  0.4308  0.3492
 2085SOL    HW1 9401   3.623   2.125   0.871 -0.3123  1.0371  1.2004
 2085SOL    HW2 9402   3.504   2.081   0.953  0.8534 -0.4379  2.1627
 2086SOL     OW 9403   2.414   7.876   6.369  0.3009 -0.5865  0.3058
 2086SOL    HW1 9404   2.336   7.840   6.327  0.3552 -0.8878  0.4601
 2086SOL    HW2 9405   2.487   7.840   6.319  0.4223 -2.0332  1.4596
 2087SOL     OW 9406   7.396   1.134   0.789  0.2451 -0.0530 -0.1044
 2087SOL    HW1 9407   7.405   1.065   0.856  2.0533 -1.1093 -1.3457
 2087SOL    HW2 9408   7.302   1.150   0.784 -0.1597 -1.8436  0.8186
 2088SOL     OW 9409   3.946   3.033   2.346 -0.0178 -0.0655  0.0144
 2088SOL    HW1 9410   4.008   3.078   2.403 -0.1504  0.1153  0.0184
 2088SOL    HW2 9411   3.926   2.952   2.392 -0.0041  0.0073  0.1502
 2089SOL     OW 9412   3.846   1.847   4.182  0.0706  0.7306  0.1062
 2089SOL    HW1 9413   3.937   1.818   4.187 -0.0742 -0.0577 -1.3948
 2089SOL    HW2 9414   3.851   1.934   4.143  0.1937  0.8459  0.3734
 2090SOL     OW 9415   6.495   3.500   7.537  0.2088  0.5239 -0.2003
 2090SOL    HW1 9416   6.428   3.538   7.479  1.6372  2.1086 -0.8934
 2090SOL    HW2 9417   6.487   3.551   7.618 -0.3882 -0.2925  0.2703
 2091SOL     OW 9418   0.843   3.646   7.057 -0.0283 -0.1234 -0.4989
 2091SOL    HW1 9419   0.904   3.719   7.053 -1.5919  1.2146 -0.7176
 2091SOL    HW2 9420   0.840   3.613   6.967 -0.4840  0.5413 -0.7322
 2092SOL     OW 9421   5.048   2.139   5.237  0.1007 -0.0243 -0.0606
 2092SOL    HW1 9422   5.041   2.204   5.167 -2.0138 -0.9454 -0.7967
 2092SOL    HW2 9423   5.040   2.054   5.192  1.2893 -0.7626  1.0409
 2093SOL     OW 9424   3.204   5.396   7.830  0.0663 -0.2701  0.3749
 2093SOL    HW1 9425   3.116   5.359   7.822  0.0824 -0.4592  1.0220
 2093SOL    HW2 9426   3.255   5.327   7.873 -0.1138  0.8037  2.4186
 2094SOL     OW 9427   7.528   6.375   1.486  0.3941 -0.0906  0.7093
 2094SOL    HW1 9428   7.620   6.371   1.460  0.7310  0.9185  1.6704
 2094SOL    HW2 9429   7.512   6.291   1.530  0.0618 -1.4434 -1.7682
 2095SOL     OW 9430   0.571   6.623   1.146 -0.0349 -0.0006 -0.2470
 2095SOL    HW1 9431   0.504   6.602   1.081 -0.1378  0.8952 -0.4423
 2095SOL    HW2 9432   0.574   6.546   1.203 -0.1063 -0.7021 -1.1665
 2096SOL     OW 9433   7.752   1.502   5.460  0.3379  0.2700  0.2553
 2096SOL    HW1 9434   7.770   1.579   5.406 -1.1009  1.4280  1.3578
 2096SOL    HW2 9435   7.689   1.451   5.409  0.1261  0.6087  0.1731
 2097SOL     OW 9436   4.883   2.382   6.291 -0.5999  0.2323  0.5884
 2097SOL    HW1 9437   4.898   2.364   6.384  0.2662 -1.2192  0.2026
 2097SOL    HW2 9438   4.804   2.332   6.269  1.1396 -2.3725 -0.2079
 2098SOL     OW 9439   1.015   4.191   5.636  0.4088 -0.3413 -0.2968
 2098SOL    HW1 9440   1.064   4.267   5.666  1.0272 -0.9709  0.3349
 2098SOL    HW2 9441   1.032   4.124   5.703 -3.2684  0.1004  1.3489
 2099SOL     OW 9442   1.599   3.706   3.458  0.2240 -0.0836  0.3534
 2099SOL    HW1 9443   1.668   3.669   3.403 -0.7800 -3.5231  1.1432
 2099SOL    HW2 9444   1.526   3.644   3.449 -1.4916  1.5496  2.2144
 2100SOL     OW 9445   2.437   3.086   4.683 -0.1801  0.2906  0.2633
 2100SOL    HW1 9446   2.496   3.073   4.608  0.3870 -0.2751  0.7933
 2100SOL    HW2 9447   2.363   3.134   4.647  0.6823  1.1843 -0.4015
 2101SOL     OW 9448   1.578   7.148   2.703  0.4352  0.0650  0.1276
 2101SOL    HW1 9449   1.612   7.237   2.713  1.0174 -0.2156  0.6809
 2101SOL    HW2 9450   1.484   7.157   2.720  0.4255  0.6328 -0.1843
 2102SOL     OW 9451   0.223   4.762   1.235  0.5635  0.0383 -0.1542
 2102SOL    HW1 9452   0.175   4.798   1.161  1.1623  0.9995 -0.0910
 2102SOL    HW2 9453   0.197   4.670   1.238 -0.7291  0.3659 -0.5468
 2103SOL     OW 9454   0.958   2.346   7.215  0.2080  0.1123  0.3083
 2103SOL    HW1 9455   0.908   2.367   7.137 -1.1080 -2.2022  0.4411
 2103SOL    HW2 9456   1.035   2.300   7.182  1.7968  2.6295  0.1926
 2104SOL     OW 9457   6.224   7.200   2.117 -0.1989 -0.1497  0.2156
 2104SOL    HW1 9458   6.311   7.236   2.103  0.1719 -1.3018 -0.6130
 2104SOL    HW2 9459   6.167   7.251   2.059  0.3373 -0.9245 -1.0467
 2105SOL     OW 9460   6.131   1.208   3.342 -0.0595  0.0768  0.4730
 2105SOL    HW1 9461   6.107   1.173   3.257  0.3669  0.7680  0.0546
 2105SOL    HW2 9462   6.225   1.227   3.335  0.2655 -1.0146  1.5156
 2106SOL     OW 9463   4.830   6.642   3.196  0.1716  0.0606  0.0463
 2106SOL    HW1 9464   4.921   6.667   3.212 -0.0637  0.8030  0.2899
 2106SOL    HW2 9465   4.790   6.721   3.159 -0.8877  0.4395  1.8969
 2107SOL     OW 9466   2.065   5.321   7.283  0.5550  0.1306 -0.3095
 2107SOL    HW1 9467   2.030   5.374   7.212  1.4677  3.3701  1.4620
 2107SOL    HW2 9468   2.156   5.303   7.258  0.7531  0.9103 -0.1554
 2108SOL     OW 9469   2.706   4.869   1.452 -0.3038  0.1581 -0.6732
 2108SOL    HW1 9470   2.677   4.950   1.494  0.8904  0.4937 -0.4322
 2108SOL    HW2 9471   2.785   4.844   1.501  0.1186 -0.4028 -1.6107
 2109SOL     OW 9472   5.687   1.720   1.498 -0.3172  0.0168 -0.2506
 2109SOL    HW1 9473   5.649   1.805   1.522  0.0477 -0.0629  0.6665
 2109SOL    HW2 9474   5.647   1.699   1.414  0.6264  1.7289 -1.1838
 2110SOL     OW 9475   7.920   7.354   4.031 -0.1991  0.8714 -0.2355
 2110SOL    HW1 9476   7.921   7.419   3.961 -0.4074  0.2495 -0.8305
 2110SOL    HW2 9477   7.898   7.403   4.110 -0.0321  1.5688 -0.6183
 2111SOL     OW 9478   1.103   4.889   8.070 -0.0617 -0.5285 -0.0237
 2111SOL    HW1 9479   1.140   4.807   8.036  1.4965  0.7593 -1.5989
 2111SOL    HW2 9480   1.170   4.922   8.130 -1.0405 -0.7858  1.2338
 2112SOL     OW 9481   0.156   2.021   5.279 -0.2909 -0.5853 -0.2056
 2112SOL    HW1 9482   0.158   2.076   5.358 -2.3420 -0.5304 -0.1431
 2112SOL    HW2 9483   0.156   2.083   5.207 -2.0770 -0.4488 -0.1419
 2113SOL     OW 9484   5.164   7.994   5.860  0.3276  0.0751  0.1069
 2113SOL    HW1 9485   5.170   8.060   5.792 -0.9440  0.3438  0.2374
 2113SOL    HW2 9486   5.109   8.034   5.928 -0.3207 -1.0379  0.2627
 2114SOL     OW 9487   7.889   0.860   3.450 -0.6155 -0.0655  0.1541
 2114SOL    HW1 9488   7.878   0.941   3.498  0.7853  0.7268 -0.7816
 2114SOL    HW2 9489   7.885   0.791   3.517 -2.9659  0.6299  0.8146
 2115SOL     OW 9490   5.296   3.228   0.930  0.0883  0.2175  0.1797
 2115SOL    HW1 9491   5.273   3.232   0.837 -0.6336  3.0137  0.3784
 2115SOL    HW2 9492   5.386   3.196   0.932 -0.8708 -3.0041 -1.1901
 2116SOL     OW 9493   6.166   1.709   5.430 -0.2569 -0.4545  0.0335
 2116SOL    HW1 9494   6.216   1.645   5.481  1.0081 -0.0720 -0.6696
 2116SOL    HW2 9495   6.089   1.661   5.399  0.2953 -1.4260  0.1380
 2117SOL     OW 9496   0.834   0.843   4.561 -0.2837  0.0476 -0.1768
 2117SOL    HW1 9497   0.747   0.872   4.535 -0.6277 -0.8993 -0.1136
 2117SOL    HW2 9498   0.852   0.890   4.642 -0.9547 -0.1405  0.0900
 2118SOL     OW 9499   2.787   0.302   7.281  0.3568  0.0873 -0.0876
 2118SOL    HW1 9500   2.816   0.218   7.316  2.6297 -0.4068 -2.8313
 2118SOL    HW2 9501   2.729   0.278   7.209  1.3594  0.8175 -1.1617
 2119SOL     OW 9502   3.306   5.551   4.233 -0.5431  0.1428 -0.2470
 2119SOL    HW1 9503   3.329   5.563   4.325  0.5708  1.6808 -0.6788
 2119SOL    HW2 9504   3.331   5.461   4.213  0.2461  0.1431  0.6679
 2120SOL     OW 9505   2.685   4.522   0.221 -0.5604  0.0251 -0.6072
 2120SOL    HW1 9506   2.596   4.550   0.201 -1.1778  0.2824  2.1046
 2120SOL    HW2 9507   2.716   4.584   0.288  0.5686 -1.7264  0.5821
 2121SOL     OW 9508   2.706   5.747   5.318  0.1589  0.6974 -0.3292
 2121SOL    HW1 9509   2.664   5.813   5.373  1.0891  0.5253  0.6144
 2121SOL    HW2 9510   2.793   5.736   5.356 -0.0019 -1.1187 -0.4246
 2122SOL     OW 9511   3.002   5.631   0.907 -0.2771 -0.1182  0.3854
 2122SOL    HW1 9512   2.916   5.604   0.875  0.4218 -1.8263 -0.1809
 2122SOL    HW2 9513   2.985   5.709   0.959 -2.1743 -0.4425  0.3198
 2123SOL     OW 9514   1.400   3.231   2.773  0.8152  0.3345 -0.3923
 2123SOL    HW1 9515   1.364   3.317   2.750  0.5530  0.1676 -0.6186
 2123SOL    HW2 9516   1.390   3.226   2.868 -1.8904 -0.6147 -0.6281
 2124SOL     OW 9517   1.028   3.850   7.051 -0.2072  0.4241 -0.0525
 2124SOL    HW1 9518   1.013   3.884   7.139 -1.2884  0.4162 -0.2180
 2124SOL    HW2 9519   1.045   3.927   6.997 -0.8401  0.5398 -0.0841
 2125SOL     OW 9520   6.140   6.354   2.048  0.0388 -0.1365 -0.2819
 2125SOL    HW1 9521   6.121   6.262   2.029  0.7621 -0.1411 -1.0189
 2125SOL    HW2 9522   6.170   6.390   1.965 -0.8259  0.9364 -0.1555
 2126SOL     OW 9523   5.468   7.745   3.714  0.4435 -0.7554 -0.0700
 2126SOL    HW1 9524   5.491   7.673   3.773  2.3054 -0.7634 -0.7156
 2126SOL    HW2 9525   5.533   7.739   3.643  0.0232  0.9512 -0.6520
 2127SOL     OW 9526   4.166   5.122   0.139 -0.1326 -0.1218 -0.9795
 2127SOL    HW1 9527   4.180   5.030   0.161  1.1308  0.1474 -0.6166
 2127SOL    HW2 9528   4.204   5.132   0.052 -0.5430 -0.0104 -1.1468
 2128SOL     OW 9529   7.501   2.841   4.973 -0.2042  0.3142  0.1472
 2128SOL    HW1 9530   7.444   2.792   4.913  0.0920  0.8844 -0.6209
 2128SOL    HW2 9531   7.542   2.907   4.918  0.9191  0.1590  0.7729
 2129SOL     OW 9532   0.339   4.474   4.990 -0.1407 -0.3388 -0.3227
 2129SOL    HW1 9533   0.414   4.534   4.991 -0.5920  0.2307  0.2018
 2129SOL    HW2 9534   0.283   4.505   5.061 -1.0925 -0.4874 -0.9980
 2130SOL     OW 9535   7.398   3.131   1.307 -0.2006 -0.8391  0.3067
 2130SOL    HW1 9536   7.382   3.218   1.273  1.7080  0.2402  1.9155
 2130SOL    HW2 9537   7.318   3.108   1.355 -0.3977  0.3971  0.5847
 2131SOL     OW 9538   0.910   3.498   2.636 -0.1147 -0.1963 -0.0325
 2131SOL    HW1 9539   0.937   3.586   2.660  2.2318 -0.8713  0.1599
 2131SOL    HW2 9540   0.907   3.450   2.719  1.0547 -0.8397 -0.3308
 2132SOL     OW 9541   2.325   6.919   0.825  0.1339 -0.2648  0.0602
 2132SOL    HW1 9542   2.259   6.909   0.893  0.0772  1.3857  0.3005
 2132SOL    HW2 9543   2.312   6.844   0.767  0.6844 -2.1464  2.2249
 2133SOL     OW 9544   3.517   2.573   0.909  0.7084 -0.3667 -0.0316
 2133SOL    HW1 9545   3.498   2.504   0.973  1.3136 -2.2314 -1.7717
 2133SOL    HW2 9546   3.469   2.547   0.830 -2.7415  3.5646  0.4405
 2134SOL     OW 9547   0.040   4.028   5.447 -0.5578 -0.3049  0.1658
 2134SOL    HW1 9548   0.031   4.093   5.517  0.5835 -0.5633  0.5741
 2134SOL    HW2 9549  -0.044   4.032   5.400 -0.5801  1.3476  0.2719
 2135SOL     OW 9550   3.323   3.141   6.147 -0.0835  0.3215  0.2240
 2135SOL    HW1 9551   3.244   3.156   6.094  0.2472  1.8425  0.1273
 2135SOL    HW2 9552   3.377   3.084   6.093 -0.5772  0.2899 -0.2474
 2136SOL     OW 9553   6.619   7.251   1.710 -0.0959 -0.1925 -0.4219
 2136SOL    HW1 9554   6.528   7.275   1.725 -0.4353 -0.5851 -1.6788
 2136SOL    HW2 9555   6.629   7.255   1.615  1.0277 -0.7603 -0.3454
 2137SOL     OW 9556   7.451   7.930   7.103 -0.6792 -0.3227 -0.1705
 2137SOL    HW1 9557   7.420   7.889   7.022  1.0067  0.3612 -1.2040
 2137SOL    HW2 9558   7.467   8.021   7.079 -1.4108  0.2227  1.3012
 2138SOL     OW 9559   4.028   0.078   0.411  0.2463 -0.2496  0.0540
 2138SOL    HW1 9560   4.099   0.037   0.361  1.2902 -0.3414  1.5350
 2138SOL    HW2 9561   4.056   0.070   0.503 -1.3148  0.4332  0.6227
 2139SOL     OW 9562   6.875   0.471   0.431  0.7380 -0.3807 -0.0532
 2139SOL    HW1 9563   6.884   0.440   0.340 -0.5178 -0.6394 -0.1104
 2139SOL    HW2 9564   6.964   0.489   0.459  1.3430 -2.1137 -0.7103
 2140SOL     OW 9565   3.769   7.597   4.530  0.3902  0.4199  0.6293
 2140SOL    HW1 9566   3.796   7.529   4.591 -1.5090 -0.8872  0.1272
 2140SOL    HW2 9567   3.686   7.564   4.494  0.6744  1.8472 -1.4914
 2141SOL     OW 9568   2.584   5.244   2.969 -0.2007 -0.0487 -0.0742
 2141SOL    HW1 9569   2.582   5.304   2.895 -0.2537 -2.7657 -2.4798
 2141SOL    HW2 9570   2.588   5.300   3.046  0.9886  2.9500 -2.1404
 2142SOL     OW 9571   5.370   0.703   2.097  0.1863  0.3764  0.1111
 2142SOL    HW1 9572   5.329   0.698   2.011 -1.6978 -0.5315  1.0127
 2142SOL    HW2 9573   5.463   0.683   2.080 -0.3436 -0.9378 -1.5525
 2143SOL     OW 9574   6.258   3.873   6.344 -0.0393 -0.9904  0.0778
 2143SOL    HW1 9575   6.256   3.808   6.414  1.5414 -1.9583 -0.7220
 2143SOL    HW2 9576   6.167   3.879   6.314 -0.4169 -1.8911  1.0033
 2144SOL     OW 9577   6.847   2.354   5.004 -0.1784  0.3974  0.2830
 2144SOL    HW1 9578   6.835   2.434   5.055  0.1017 -0.6711  2.1354
 2144SOL    HW2 9579   6.901   2.298   5.060 -0.5137 -1.1581 -0.8741
 2145SOL     OW 9580   1.773   0.956   4.880 -0.5007  0.5283 -0.1574
 2145SOL    HW1 9581   1.785   0.867   4.847  2.1169  0.9868 -0.6375
 2145SOL    HW2 9582   1.712   0.996   4.819 -1.2149 -0.7216 -0.3066
 2146SOL     OW 9583   1.957   0.538   1.715 -0.7380  0.3660  0.4668
 2146SOL    HW1 9584   2.040   0.497   1.740 -0.3327  0.0338 -1.2937
 2146SOL    HW2 9585   1.895   0.465   1.712 -0.6211  0.2846 -0.1274
 2147SOL     OW 9586   0.970   3.633   2.397 -0.7681 -0.0561  0.0565
 2147SOL    HW1 9587   0.937   3.578   2.468 -1.6633  0.6149  0.1766
 2147SOL    HW2 9588   1.063   3.644   2.417 -0.5293 -1.6040 -0.0341
 2148SOL     OW 9589   1.825   1.333   2.486  0.4948 -0.1016 -0.4596
 2148SOL    HW1 9590   1.822   1.255   2.430 -0.4939 -2.0113  2.0724
 2148SOL    HW2 9591   1.904   1.378   2.458  0.5965 -1.4533 -2.6837
 2149SOL     OW 9592   1.199   2.962   5.037  0.2421  0.5181 -0.1810
 2149SOL    HW1 9593   1.294   2.963   5.029  0.3775 -2.2204  0.0807
 2149SOL    HW2 9594   1.181   2.995   5.125  1.2097 -1.5936  0.8754
 2150SOL     OW 9595   7.116   5.442   7.386 -0.1768  0.1220  0.4508
 2150SOL    HW1 9596   7.210   5.454   7.375 -0.2585  0.7921  0.4351
 2150SOL    HW2 9597   7.103   5.347   7.383  0.5882 -0.0145  1.2147
 2151SOL     OW 9598   5.856   0.253   0.375 -0.1716  0.2568 -0.1784
 2151SOL    HW1 9599   5.917   0.315   0.416 -1.7490  0.0223  2.8331
 2151SOL    HW2 9600   5.898   0.167   0.387 -0.8103  0.1398  1.5154
 2152SOL     OW 9601   2.050   6.249   6.512  0.5387 -0.0079  0.4169
 2152SOL    HW1 9602   2.132   6.243   6.462  0.3492  1.6683 -0.1659
 2152SOL    HW2 9603   2.017   6.337   6.493 -0.8642 -0.2694  1.4881
 2153SOL     OW 9604   7.976   7.397   3.079 -0.3099  0.5719  0.0037
 2153SOL    HW1 9605   8.018   7.326   3.030 -0.7556  0.6890 -0.5687
 2153SOL    HW2 9606   8.032   7.473   3.065  0.2252  0.3106  0.7059
 2154SOL     OW 9607   1.602   2.935   4.530 -0.1467  0.3220  0.6232
 2154SOL    HW1 9608   1.509   2.958   4.533 -0.6454 -1.5612  1.3424
 2154SOL    HW2 9609   1.602   2.840   4.517  1.7395  0.6183 -2.2195
 2155SOL     OW 9610   0.640   1.349   0.784  0.2425  0.2714 -0.0995
 2155SOL    HW1 9611   0.680   1.372   0.701  0.6877  1.6164  0.4682
 2155SOL    HW2 9612   0.713   1.321   0.840 -0.0305 -0.4445 -0.0818
 2156SOL     OW 9613   7.776   2.137   5.409  0.5316 -0.4014 -0.2787
 2156SOL    HW1 9614   7.690   2.177   5.422  0.1839  0.0846 -3.2542
 2156SOL    HW2 9615   7.784   2.072   5.478 -1.8473  0.1487  0.5905
 2157SOL     OW 9616   0.605   0.008   2.279  0.0716  0.3549 -0.8643
 2157SOL    HW1 9617   0.600  -0.088   2.285  0.7674  0.1753 -2.4774
 2157SOL    HW2 9618   0.697   0.028   2.295  0.0094  0.7160 -0.9527
 2158SOL     OW 9619   7.416   5.439   3.004 -0.1846  0.0024 -0.3975
 2158SOL    HW1 9620   7.330   5.427   2.962 -1.2070  1.7214  1.0303
 2158SOL    HW2 9621   7.450   5.351   3.016 -2.4612 -0.8416  0.3300
 2159SOL     OW 9622   7.072   3.369   7.100 -0.0900  0.4168  0.2590
 2159SOL    HW1 9623   7.101   3.402   7.185  0.7313 -0.8919  0.5216
 2159SOL    HW2 9624   6.981   3.344   7.114  0.6028 -1.7309  1.4031
 2160SOL     OW 9625   5.215   2.636   5.028  0.1641  0.1102  0.0588
 2160SOL    HW1 9626   5.268   2.653   5.106  1.6812  0.6048 -1.0277
 2160SOL    HW2 9627   5.264   2.570   4.979 -0.1727  0.6256 -1.0146
 2161SOL     OW 9628   1.824   5.530   3.388 -0.1799 -0.0582 -0.1676
 2161SOL    HW1 9629   1.818   5.491   3.475 -0.7530  1.3534  0.4678
 2161SOL    HW2 9630   1.890   5.600   3.398  2.0604 -1.7973 -1.6776
 2162SOL     OW 9631   1.341   0.224   1.106 -0.2587 -0.4844 -0.6823
 2162SOL    HW1 9632   1.415   0.198   1.050  1.2766 -0.0302  1.0555
 2162SOL    HW2 9633   1.351   0.318   1.118  0.3076 -0.7685  1.4733
 2163SOL     OW 9634   2.185   5.579   4.732 -0.0956  0.3447 -0.2277
 2163SOL    HW1 9635   2.152   5.550   4.817  0.5190 -0.5979 -0.2933
 2163SOL    HW2 9636   2.227   5.663   4.751 -0.3011  0.3285  0.3339
 2164SOL     OW 9637   1.836   2.835   7.137 -0.0659 -0.1204 -0.0678
 2164SOL    HW1 9638   1.907   2.896   7.156  1.4858 -1.1406 -2.2235
 2164SOL    HW2 9639   1.878   2.750   7.129 -1.3018 -0.6006 -2.4264
 2165SOL     OW 9640   6.639   1.202   0.147  0.2715  0.4507 -0.5342
 2165SOL    HW1 9641   6.706   1.153   0.100 -0.6083 -1.1507 -0.1719
 2165SOL    HW2 9642   6.568   1.213   0.083  0.1645  0.6170 -0.3876
 2166SOL     OW 9643   0.566   7.246   5.369  0.1381  0.8798 -0.1871
 2166SOL    HW1 9644   0.549   7.325   5.317 -0.4692  0.7614 -0.1742
 2166SOL    HW2 9645   0.654   7.219   5.343  0.5295  1.8174  0.1458
 2167SOL     OW 9646   7.717   3.223   1.538  0.3927 -0.0470  0.0796
 2167SOL    HW1 9647   7.708   3.188   1.450 -0.0226 -0.2295  0.1933
 2167SOL    HW2 9648   7.642   3.188   1.586  1.3786 -1.1182  0.8928
 2168SOL     OW 9649   6.029   7.741   7.006  0.6095 -0.2163 -0.3889
 2168SOL    HW1 9650   6.069   7.680   7.068 -2.0540  0.2123  1.9322
 2168SOL    HW2 9651   5.943   7.760   7.042 -0.4414  1.4681 -3.3710
 2169SOL     OW 9652   7.314   5.129   4.598 -0.1593  0.6215 -0.2654
 2169SOL    HW1 9653   7.280   5.206   4.642  1.3109  0.1930  1.7824
 2169SOL    HW2 9654   7.408   5.129   4.617 -0.1758 -1.9018  0.2836
 2170SOL     OW 9655   2.543   6.829   7.276  0.1942  0.0065 -0.6912
 2170SOL    HW1 9656   2.611   6.777   7.318  0.4444 -0.6353 -1.8535
 2170SOL    HW2 9657   2.586   6.868   7.200 -0.6537 -0.1949 -1.2896
 2171SOL     OW 9658   6.789   0.404   5.832 -0.0073 -0.1003 -0.3232
 2171SOL    HW1 9659   6.724   0.395   5.762  0.1195  0.3430 -0.5021
 2171SOL    HW2 9660   6.764   0.339   5.897 -0.3625 -0.2418 -0.6005
 2172SOL     OW 9661   3.679   5.226   5.882 -0.3311  0.1548  0.5681
 2172SOL    HW1 9662   3.614   5.266   5.941 -0.7252  1.1994 -0.5325
 2172SOL    HW2 9663   3.756   5.282   5.889 -0.7429  0.9188 -0.6748
 2173SOL     OW 9664   1.064   4.345   6.433  0.1344 -0.1755  0.0074
 2173SOL    HW1 9665   0.993   4.281   6.427 -1.1902  1.0629  1.4465
 2173SOL    HW2 9666   1.116   4.316   6.508 -1.3720  1.1769  1.6744
 2174SOL     OW 9667   2.844   0.836   2.994 -0.1580 -0.1025 -0.4213
 2174SOL    HW1 9668   2.903   0.808   2.924 -0.5588 -1.6504 -0.1932
 2174SOL    HW2 9669   2.886   0.806   3.074  0.3859  1.8237  0.0471
 2175SOL     OW 9670   1.401   1.695   6.462  0.1821 -0.0522  0.6300
 2175SOL    HW1 9671   1.374   1.606   6.482  0.2887  0.3978  3.0332
 2175SOL    HW2 9672   1.350   1.718   6.384  0.3959 -2.2799 -0.2378
 2176SOL     OW 9673   0.928   2.368   7.631 -0.2573  0.1445 -0.0329
 2176SOL    HW1 9674   0.875   2.436   7.674  0.0202 -0.3878  1.1906
 2176SOL    HW2 9675   0.883   2.351   7.548  0.4539  2.8363 -1.0685
 2177SOL     OW 9676   2.307   1.554   6.774  0.0071  0.0617  0.2475
 2177SOL    HW1 9677   2.236   1.492   6.757  0.0927 -0.1212  0.5554
 2177SOL    HW2 9678   2.280   1.634   6.730  0.8798 -0.8135 -2.0419
 2178SOL     OW 9679   0.659   5.358   3.211  0.1335 -0.0793 -0.1774
 2178SOL    HW1 9680   0.621   5.378   3.125  0.3649  0.9579 -0.0503
 2178SOL    HW2 9681   0.752   5.347   3.194  0.5087  2.1072  0.2087
 2179SOL     OW 9682   2.831   3.928   3.067 -0.3660 -0.1472  0.4922
 2179SOL    HW1 9683   2.827   4.020   3.091  0.3911 -0.3853  1.5849
 2179SOL    HW2 9684   2.811   3.881   3.148  0.6166 -0.9582  0.2785
 2180SOL     OW 9685   2.566   2.452   6.259 -0.4795  0.3502 -0.3092
 2180SOL    HW1 9686   2.522   2.469   6.176 -1.0325  1.1078  0.1321
 2180SOL    HW2 9687   2.496   2.447   6.324 -0.0302  0.0505  0.1698
 2181SOL     OW 9688   7.177   2.959   1.534  0.1864 -0.2134  0.4746
 2181SOL    HW1 9689   7.226   2.879   1.549  0.6446  0.0324  0.3126
 2181SOL    HW2 9690   7.233   3.029   1.569  0.3670  0.1576 -0.5097
 2182SOL     OW 9691   8.062   1.084   7.085  0.2080  0.6938 -0.2318
 2182SOL    HW1 9692   8.034   1.169   7.120 -0.8241  0.2698  0.0162
 2182SOL    HW2 9693   8.045   1.022   7.156 -2.2753 -0.2360 -1.5055
 2183SOL     OW 9694   1.131   1.180   1.415  0.7332 -0.7861 -0.3355
 2183SOL    HW1 9695   1.197   1.171   1.484 -0.2109 -0.1811  0.6838
 2183SOL    HW2 9696   1.078   1.101   1.421  1.5649 -1.4552 -1.4106
 2184SOL     OW 9697   3.993   2.221   1.645  0.4907 -0.7535  0.3739
 2184SOL    HW1 9698   3.934   2.167   1.697  0.3830 -1.0063 -0.0048
 2184SOL    HW2 9699   4.080   2.201   1.679  0.4015 -0.7446  0.6075
 2185SOL     OW 9700   3.234   7.426   6.830 -0.6626 -0.0068  0.0119
 2185SOL    HW1 9701   3.189   7.383   6.758 -1.7798  1.7136 -0.3623
 2185SOL    HW2 9702   3.327   7.409   6.813 -0.8238  1.0085 -2.3159
 2186SOL     OW 9703   1.765   4.300   5.491  0.5286 -0.3001 -0.5660
 2186SOL    HW1 9704   1.808   4.322   5.574 -1.1249 -0.4073  0.3789
 2186SOL    HW2 9705   1.807   4.219   5.463  0.5810 -0.6928  0.5880
 2187SOL     OW 9706   2.595   3.860   2.683 -0.1932  0.0026  0.9067
 2187SOL    HW1 9707   2.604   3.838   2.776 -0.1962 -0.6377  0.7600
 2187SOL    HW2 9708   2.685   3.863   2.651 -0.2206 -0.3626  0.7973
 2188SOL     OW 9709   3.077   0.148   3.379 -0.0005 -0.0219 -0.3058
 2188SOL    HW1 9710   2.995   0.171   3.422 -1.0662 -1.9868 -1.1698
 2188SOL    HW2 9711   3.057   0.150   3.286  0.6886 -1.2846 -0.5038
 2189SOL     OW 9712   3.948   3.354   7.859 -0.0627  0.0909 -0.0413
 2189SOL    HW1 9713   3.869   3.303   7.840 -0.4166  0.3354  0.7376
 2189SOL    HW2 9714   3.930   3.396   7.943  1.2787 -0.6144  0.6180
 2190SOL     OW 9715   6.874   3.652   4.673  0.0009 -0.1568 -0.0863
 2190SOL    HW1 9716   6.782   3.676   4.687 -0.8664 -3.2574  0.4100
 2190SOL    HW2 9717   6.887   3.662   4.578 -0.6993  0.7192 -0.1054
 2191SOL     OW 9718   7.280   0.865   1.043 -0.1596 -0.6865 -0.0863
 2191SOL    HW1 9719   7.359   0.905   1.079 -0.8242  1.0820 -0.4755
 2191SOL    HW2 9720   7.209   0.903   1.095 -0.9496  0.0217 -1.6218
 2192SOL     OW 9721   2.078   3.993   2.883 -0.1577  1.2503 -0.6771
 2192SOL    HW1 9722   2.156   3.959   2.838 -0.2145  0.8406 -0.4645
 2192SOL    HW2 9723   2.106   4.006   2.973 -1.2727 -2.2731  0.3032
 2193SOL     OW 9724   4.441   1.430   3.860 -0.1536  0.1596  0.4366
 2193SOL    HW1 9725   4.455   1.352   3.914  1.3045 -0.4578 -0.7670
 2193SOL    HW2 9726   4.347   1.448   3.868 -0.2963 -0.9641  1.7298
 2194SOL     OW 9727   0.287   4.892   0.825 -0.4389 -0.3009 -0.0927
 2194SOL    HW1 9728   0.236   4.929   0.753  1.6059  1.9133 -0.5447
 2194SOL    HW2 9729   0.238   4.915   0.903 -0.6692  0.9224 -0.5673
 2195SOL     OW 9730   0.711   2.347   4.013  0.2036  0.0735 -0.0899
 2195SOL    HW1 9731   0.632   2.295   4.025  0.9477 -0.4038  4.1945
 2195SOL    HW2 9732   0.759   2.302   3.943 -1.5179 -1.9552 -0.0497
 2196SOL     OW 9733   6.796   5.455   0.334 -0.3161 -0.4322  0.3306
 2196SOL    HW1 9734   6.814   5.362   0.342 -0.2959 -0.3618  1.1386
 2196SOL    HW2 9735   6.869   5.499   0.378  0.2408  0.0090 -0.9884
 2197SOL     OW 9736   6.470   5.617   6.693  0.0053  0.3567  0.2397
 2197SOL    HW1 9737   6.400   5.664   6.647 -0.6068  0.2436  1.0321
 2197SOL    HW2 9738   6.519   5.572   6.624 -2.8775 -2.5535 -0.1493
 2198SOL     OW 9739   4.631   4.332   3.624  0.0178 -0.2158  0.0395
 2198SOL    HW1 9740   4.690   4.257   3.627  0.8151  0.1752 -2.7824
 2198SOL    HW2 9741   4.545   4.294   3.603  0.3319 -0.4146 -0.9443
 2199SOL     OW 9742   3.467   8.024   7.381  0.4197 -0.3846 -0.0337
 2199SOL    HW1 9743   3.544   8.001   7.433 -0.0504 -1.1811  0.3240
 2199SOL    HW2 9744   3.393   7.992   7.431 -0.2880  1.7293  0.3676
 2200SOL     OW 9745   7.331   3.242   0.896 -0.1259  0.0852 -0.4881
 2200SOL    HW1 9746   7.278   3.263   0.973  2.5825  0.3165  1.4552
 2200SOL    HW2 9747   7.359   3.152   0.910  0.9889  0.3668 -0.8020
 2201SOL     OW 9748   0.565   1.476   1.665 -0.4682  0.0462 -0.5400
 2201SOL    HW1 9749   0.518   1.476   1.582 -0.0907  1.6823 -0.7747
 2201SOL    HW2 9750   0.520   1.541   1.719  0.2285  0.1086 -0.0219
 2202SOL     OW 9751   4.367   0.907   5.257  0.2528 -0.0721 -0.0216
 2202SOL    HW1 9752   4.280   0.867   5.251  1.3727 -2.7585  0.4695
 2202SOL    HW2 9753   4.427   0.840   5.226  2.1934  1.7203 -0.3443
 2203SOL     OW 9754   0.533   5.046   1.246 -0.0251 -0.1906 -0.2043
 2203SOL    HW1 9755   0.587   5.121   1.272  0.9015 -0.5798 -0.9544
 2203SOL    HW2 9756   0.463   5.044   1.311 -0.0470  1.2933 -0.1362
 2204SOL     OW 9757   4.489   3.897   6.752 -0.2925 -0.3217  0.0999
 2204SOL    HW1 9758   4.401   3.890   6.714 -2.2080  3.2369  3.1927
 2204SOL    HW2 9759   4.529   3.971   6.706  0.7932 -1.3893 -0.7103
 2205SOL     OW 9760   4.171   1.036   3.662  0.0810 -0.7191 -0.6025
 2205SOL    HW1 9761   4.246   1.095   3.676 -0.3573 -0.3953  0.4382
 2205SOL    HW2 9762   4.174   0.976   3.736 -0.2376 -1.2135 -0.9841
 2206SOL     OW 9763   0.771   5.124   5.465 -0.1383  0.2822 -0.1085
 2206SOL    HW1 9764   0.807   5.043   5.429  0.4579  0.4514  0.0965
 2206SOL    HW2 9765   0.783   5.116   5.560  1.1725  1.1858 -0.1719
 2207SOL     OW 9766   7.724   2.195   4.597  0.4797  0.4161 -0.0266
 2207SOL    HW1 9767   7.683   2.109   4.602 -0.6134  0.9924  1.3740
 2207SOL    HW2 9768   7.817   2.176   4.579  0.2602 -1.0318  0.2275
 2208SOL     OW 9769   4.217   4.867   6.548  0.2343  0.2285  0.8006
 2208SOL    HW1 9770   4.186   4.957   6.547 -0.0385  0.1427 -0.2502
 2208SOL    HW2 9771   4.145   4.817   6.586  0.2199  0.4029  1.0018
 2209SOL     OW 9772   2.732   4.825   2.767  0.2193  0.1680 -0.4049
 2209SOL    HW1 9773   2.731   4.920   2.777 -1.9180  0.1114  0.4045
 2209SOL    HW2 9774   2.641   4.801   2.749  0.6083 -1.7677 -0.0500
 2210SOL     OW 9775   0.869   3.557   3.884  0.1127  0.2708  0.0074
 2210SOL    HW1 9776   0.776   3.577   3.869 -0.0353  0.2322  0.7948
 2210SOL    HW2 9777   0.867   3.482   3.943  0.6257  1.0066  0.9962
 2211SOL     OW 9778   7.213   4.830   5.845  0.2882  0.6103  0.9649
 2211SOL    HW1 9779   7.227   4.876   5.762  0.2066  0.6916  0.9964
 2211SOL    HW2 9780   7.275   4.870   5.906  0.4935  0.4089  0.8892
 2212SOL     OW 9781   6.227   7.769   5.695  0.3520  0.1549  0.0130
 2212SOL    HW1 9782   6.215   7.708   5.768  0.6516 -1.8319 -1.5254
 2212SOL    HW2 9783   6.320   7.793   5.699  0.0616  1.1991  1.0986
 2213SOL     OW 9784   6.930   5.984   7.227  0.6793  0.3637  0.3696
 2213SOL    HW1 9785   6.886   5.910   7.185  2.0776  0.0671 -0.6794
 2213SOL    HW2 9786   6.861   6.048   7.242 -0.0282  0.2198 -1.8352
 2214SOL     OW 9787   7.145   2.437   5.907 -0.0034  0.2827  0.6861
 2214SOL    HW1 9788   7.129   2.531   5.912 -0.0791  0.9119 -4.7676
 2214SOL    HW2 9789   7.161   2.421   5.814  1.0196 -5.0188  1.4577
 2215SOL     OW 9790   2.856   5.584   6.398 -0.2322  0.1958  0.3694
 2215SOL    HW1 9791   2.765   5.607   6.418 -0.1179 -0.0571  1.2282
 2215SOL    HW2 9792   2.858   5.572   6.303 -0.9052  1.0182  0.2399
 2216SOL     OW 9793   3.343   2.684   4.409 -0.3847 -0.1790  0.2799
 2216SOL    HW1 9794   3.342   2.613   4.473  0.0549 -0.9455 -0.5421
 2216SOL    HW2 9795   3.315   2.643   4.327  0.4534  0.4558 -0.3440
 2217SOL     OW 9796   4.878   0.848   6.652 -0.6436  0.0265 -0.2032
 2217SOL    HW1 9797   4.816   0.915   6.625 -0.9249 -0.9178 -2.0521
 2217SOL    HW2 9798   4.858   0.773   6.597  2.5409 -0.1158 -1.3616
 2218SOL     OW 9799   4.873   5.493   4.560  0.2519 -0.0957  0.6942
 2218SOL    HW1 9800   4.940   5.531   4.617  0.8451  1.5703 -0.9840
 2218SOL    HW2 9801   4.921   5.464   4.483 -0.9305  1.3064 -0.6326
 2219SOL     OW 9802   0.808   0.499   4.474 -0.2986 -0.1347 -0.2664
 2219SOL    HW1 9803   0.896   0.538   4.477 -0.3305  0.0068  3.3030
 2219SOL    HW2 9804   0.752   0.570   4.443  0.3768  1.0386  1.0675
 2220SOL     OW 9805   7.022   7.951   1.731  0.3091  0.2428 -0.6332
 2220SOL    HW1 9806   7.009   7.939   1.825  0.4793 -1.3539 -0.7886
 2220SOL    HW2 9807   6.946   7.910   1.690  0.0747  1.2040 -1.1936
 2221SOL     OW 9808   6.253   1.542   5.598 -0.1381  0.2962  0.1215
 2221SOL    HW1 9809   6.301   1.544   5.681 -2.7314  0.7541  1.7014
 2221SOL    HW2 9810   6.171   1.497   5.619 -1.3059  1.3589 -1.9465
 2222SOL     OW 9811   4.072   5.646   7.333 -0.0474  0.4950  0.5045
 2222SOL    HW1 9812   3.987   5.639   7.288  0.4213 -0.4811 -0.2634
 2222SOL    HW2 9813   4.072   5.574   7.395 -0.3612  1.3657  1.5484
 2223SOL     OW 9814   6.411   2.222   7.177 -0.0444 -0.0993  0.3763
 2223SOL    HW1 9815   6.365   2.161   7.234 -0.5394 -1.8768 -1.7817
 2223SOL    HW2 9816   6.499   2.186   7.170 -0.6934 -1.4280 -1.9340
 2224SOL     OW 9817   4.317   5.238   3.699 -0.0056 -0.6247  0.2782
 2224SOL    HW1 9818   4.410   5.216   3.707  0.5095  0.4327 -2.0355
 2224SOL    HW2 9819   4.316   5.329   3.670 -1.8263 -0.3282  1.1228
 2225SOL     OW 9820   3.940   5.819   6.249 -0.1322  0.3151  0.2466
 2225SOL    HW1 9821   3.954   5.911   6.272  1.1811  0.4716 -1.0508
 2225SOL    HW2 9822   3.978   5.770   6.323  1.5322  0.8250 -0.2189
 2226SOL     OW 9823   3.064   3.453   3.162  0.4839  0.4498  0.1250
 2226SOL    HW1 9824   3.036   3.414   3.244 -1.0792  2.3751  0.6006
 2226SOL    HW2 9825   3.041   3.389   3.095 -1.1345  0.1290  0.9392
 2227SOL     OW 9826   1.464   7.075   2.255  0.4826  0.9727  0.4532
 2227SOL    HW1 9827   1.532   7.037   2.200 -1.8452 -1.8268 -0.8164
 2227SOL    HW2 9828   1.464   7.021   2.334 -1.0755 -0.0322 -0.1722
 2228SOL     OW 9829   0.321   0.215   0.496 -0.3451 -0.3922  0.0119
 2228SOL    HW1 9830   0.296   0.219   0.404 -0.6110 -2.3614 -0.0524
 2228SOL    HW2 9831   0.242   0.244   0.543 -0.6238 -0.5435 -0.3539
 2229SOL     OW 9832   7.428   3.737   6.251 -0.3943 -0.5732  0.3704
 2229SOL    HW1 9833   7.426   3.644   6.226 -0.9029 -0.5339  0.2470
 2229SOL    HW2 9834   7.364   3.779   6.194 -0.5189 -0.2306  0.7509
 2230SOL     OW 9835   5.103   0.554   4.928  0.1872 -0.7679 -0.2326
 2230SOL    HW1 9836   5.074   0.476   4.976  1.1382 -1.5913 -0.9430
 2230SOL    HW2 9837   5.165   0.520   4.863  0.1182  0.5092 -0.9978
 2231SOL     OW 9838   5.844   4.654   6.802  0.0478  0.2713  0.0624
 2231SOL    HW1 9839   5.901   4.684   6.873 -0.5272  1.3471  0.0923
 2231SOL    HW2 9840   5.755   4.666   6.835 -0.2199 -0.6023 -0.2973
 2232SOL     OW 9841   2.696   5.957   5.002  0.2206 -0.2648 -0.2287
 2232SOL    HW1 9842   2.688   5.862   5.005  0.5551 -0.2725  1.1858
 2232SOL    HW2 9843   2.765   5.977   5.065 -0.2067  0.9563 -0.1287
 2233SOL     OW 9844   6.277   3.247   7.680 -0.4809 -0.0497 -0.1193
 2233SOL    HW1 9845   6.277   3.317   7.746  0.0712  0.3646 -0.5480
 2233SOL    HW2 9846   6.285   3.293   7.596 -1.1171 -0.5717 -0.4800
 2234SOL     OW 9847   2.257   1.850   3.185 -0.3951  0.4145  0.5938
 2234SOL    HW1 9848   2.202   1.800   3.245 -1.0246  0.2104 -0.1402
 2234SOL    HW2 9849   2.322   1.787   3.153  0.6230  0.7738  1.8462
 2235SOL     OW 9850   0.926   3.510   1.872 -0.0410 -0.7418  0.3518
 2235SOL    HW1 9851   0.940   3.449   1.944 -0.7441  0.4013  1.5069
 2235SOL    HW2 9852   0.869   3.577   1.908  0.3594  0.3836 -0.9964
 2236SOL     OW 9853   7.902   3.972   4.158 -0.4566 -0.0386  0.3852
 2236SOL    HW1 9854   7.923   3.900   4.098  0.1709 -1.2781  2.0436
 2236SOL    HW2 9855   7.889   3.930   4.243  2.9071  2.0450  2.1158
 2237SOL     OW 9856   5.055   7.316   1.511  0.1584 -0.5469 -0.1494
 2237SOL    HW1 9857   5.023   7.325   1.421  2.5653 -1.4241 -1.1773
 2237SOL    HW2 9858   5.021   7.231   1.540 -0.4835 -0.3364 -0.2546
 2238SOL     OW 9859   3.851   7.811   1.828  0.2256  0.2240 -0.4284
 2238SOL    HW1 9860   3.930   7.807   1.775  0.0692  0.1470 -0.6600
 2238SOL    HW2 9861   3.794   7.743   1.791  0.4708 -0.4633  0.4153
 2239SOL     OW 9862   1.889   2.591   3.716  0.5857 -0.1337  0.0103
 2239SOL    HW1 9863   1.954   2.620   3.780 -0.8780 -1.4084  2.1895
 2239SOL    HW2 9864   1.819   2.656   3.722  0.1265 -0.6369  0.2865
 2240SOL     OW 9865   0.567   7.234   2.587  0.3191 -0.3247  0.5033
 2240SOL    HW1 9866   0.576   7.161   2.526 -0.1196 -0.9562  1.1755
 2240SOL    HW2 9867   0.480   7.223   2.626  0.4728  0.2291  1.0298
 2241SOL     OW 9868   6.978   2.253   0.391  0.0868  0.0496  0.8813
 2241SOL    HW1 9869   7.020   2.185   0.340  1.3055  0.9121  0.6987
 2241SOL    HW2 9870   6.954   2.320   0.326 -0.1712  0.2531  1.1830
 2242SOL     OW 9871   3.296   0.087   4.378 -0.1890  0.0130 -0.2258
 2242SOL    HW1 9872   3.300   0.144   4.455  0.3707 -0.2790 -0.0363
 2242SOL    HW2 9873   3.236   0.017   4.404  0.7476 -0.6125  0.3088
 2243SOL     OW 9874   0.570   2.393   1.624 -0.2879 -0.4784  0.3208
 2243SOL    HW1 9875   0.541   2.414   1.535 -1.9144  0.7869  1.1058
 2243SOL    HW2 9876   0.593   2.478   1.662  1.5283 -1.1224  0.7654
 2244SOL     OW 9877   4.235   2.676   1.478 -0.0588  0.2170 -1.0114
 2244SOL    HW1 9878   4.282   2.625   1.544  1.8978  0.9749 -1.7179
 2244SOL    HW2 9879   4.173   2.729   1.528  0.3846 -0.2525  0.0619
 2245SOL     OW 9880   1.969   6.009   4.013 -0.5569  0.1381 -0.1977
 2245SOL    HW1 9881   2.058   6.002   3.979 -0.4056 -0.0707  0.2280
 2245SOL    HW2 9882   1.979   6.053   4.097 -0.9502  0.8429 -0.5120
 2246SOL     OW 9883   4.438   5.605   7.977 -0.0936 -0.6679  0.6492
 2246SOL    HW1 9884   4.399   5.671   7.920 -0.6819 -0.0242  1.7623
 2246SOL    HW2 9885   4.412   5.632   8.065  1.1133 -1.4205  1.2516
 2247SOL     OW 9886   1.947   2.660   5.032 -0.4513  0.3965 -0.1192
 2247SOL    HW1 9887   2.002   2.673   4.955 -0.6077  1.8106 -0.0044
 2247SOL    HW2 9888   1.928   2.748   5.064  0.1999 -0.1631  1.9743
 2248SOL     OW 9889   7.755   7.978   6.526 -0.5206  0.6562 -0.0892
 2248SOL    HW1 9890   7.732   7.980   6.433  1.9022 -3.1345 -1.0061
 2248SOL    HW2 9891   7.826   8.041   6.535  0.7968 -0.5622 -1.4319
 2249SOL     OW 9892   0.892   1.117   3.136 -0.1423  0.2951 -0.2030
 2249SOL    HW1 9893   0.899   1.203   3.179  1.8209 -0.4083  1.0492
 2249SOL    HW2 9894   0.968   1.068   3.169 -2.0825 -2.5175  0.4080
 2250SOL     OW 9895   1.617   6.724   0.625 -0.3734 -0.4898 -0.0089
 2250SOL    HW1 9896   1.618   6.803   0.572 -0.1537 -0.4307  0.0838
 2250SOL    HW2 9897   1.578   6.657   0.569 -0.9693 -0.2111  0.0614
 2251SOL     OW 9898   1.546   2.530   3.520  0.1927 -0.6175 -0.6358
 2251SOL    HW1 9899   1.544   2.519   3.615  2.1011  0.5207 -0.3902
 2251SOL    HW2 9900   1.639   2.519   3.497  0.3892  2.5452 -1.8338
 2252SOL     OW 9901   7.063   2.496   3.504  0.3448 -0.2302  0.1259
 2252SOL    HW1 9902   7.064   2.545   3.586  2.1682 -1.3018  0.7911
 2252SOL    HW2 9903   7.000   2.425   3.519  0.6550 -0.4095  0.6055
 2253SOL     OW 9904   4.346   3.689   7.492  0.1804 -0.7249  0.1498
 2253SOL    HW1 9905   4.433   3.692   7.534 -0.4544 -1.4912  1.5881
 2253SOL    HW2 9906   4.304   3.770   7.520  0.1977 -0.6490 -0.0407
 2254SOL     OW 9907   5.211   0.846   0.754  0.2376 -0.0163 -0.0644
 2254SOL    HW1 9908   5.155   0.807   0.821  0.6116 -0.4489  0.0053
 2254SOL    HW2 9909   5.250   0.770   0.709  1.7616  0.2677  0.7256
 2255SOL     OW 9910   5.568   2.279   7.431 -0.3858 -0.3696  0.6654
 2255SOL    HW1 9911   5.484   2.256   7.391 -0.8532  1.8178  0.2467
 2255SOL    HW2 9912   5.544   2.332   7.507  0.5970 -0.5248  1.0901
 2256SOL     OW 9913   4.918   3.073   4.498  0.5770  0.3257  0.5532
 2256SOL    HW1 9914   4.940   3.051   4.407 -2.8819  1.8176 -0.8288
 2256SOL    HW2 9915   4.929   2.991   4.546  1.1011 -0.8932 -1.5187
 2257SOL     OW 9916   3.271   6.479   2.285 -0.1589  0.3576 -0.0851
 2257SOL    HW1 9917   3.361   6.499   2.309 -0.3276  0.7548  0.2236
 2257SOL    HW2 9918   3.279   6.412   2.216  0.3483 -0.1376  0.4392
 2258SOL     OW 9919   7.902   6.407   6.786  0.0881 -0.1958  0.7001
 2258SOL    HW1 9920   7.905   6.370   6.698 -0.6897  0.3065  0.4446
 2258SOL    HW2 9921   7.968   6.477   6.785  0.2753 -0.3751  0.6043
 2259SOL     OW 9922   7.146   3.077   2.939 -0.0937  0.0979 -0.4379
 2259SOL    HW1 9923   7.213   3.108   2.878  0.7199  1.3022  0.9916
 2259SOL    HW2 9924   7.076   3.043   2.883  0.0881  2.2242 -2.0842
 2260SOL     OW 9925   6.902   7.788   6.816  0.3999 -0.1017  0.0520
 2260SOL    HW1 9926   6.844   7.797   6.892  0.1506 -0.7255 -0.0537
 2260SOL    HW2 9927   6.846   7.753   6.747  0.9214 -0.8244 -0.0186
 2261SOL     OW 9928   5.001   3.612   3.579 -0.5449  0.1394  0.0692
 2261SOL    HW1 9929   4.957   3.665   3.645  0.2092 -0.0965  0.7730
 2261SOL    HW2 9930   4.940   3.540   3.562 -0.9090  0.4084  0.2332
 2262SOL     OW 9931   1.253   7.929   5.992  0.3475 -0.3011  0.6003
 2262SOL    HW1 9932   1.253   7.976   6.075 -1.5222 -0.2720  0.6201
 2262SOL    HW2 9933   1.246   7.998   5.926  1.1916 -0.3614  0.4395
 2263SOL     OW 9934   2.829   3.779   1.399 -0.0371  0.2417  0.0019
 2263SOL    HW1 9935   2.863   3.850   1.454  1.1503  0.2315 -0.6978
 2263SOL    HW2 9936   2.892   3.708   1.410 -0.9748 -0.5545  0.3389
 2264SOL     OW 9937   4.393   2.698   4.586 -0.1980  0.0395  0.4731
 2264SOL    HW1 9938   4.476   2.746   4.582  0.1098 -0.3725  1.5252
 2264SOL    HW2 9939   4.386   2.670   4.677 -0.6461 -1.4057  0.0267
 2265SOL     OW 9940   3.384   3.205   0.117  0.7515 -0.1647  0.0917
 2265SOL    HW1 9941   3.406   3.121   0.157 -1.3099 -0.4394  0.8050
 2265SOL    HW2 9942   3.320   3.183   0.049  0.6204  0.7794 -0.1118
 2266SOL     OW 9943   7.477   2.009   4.460  0.0220 -0.5330  0.3740
 2266SOL    HW1 9944   7.501   2.014   4.553  0.8774  0.8552  0.1108
 2266SOL    HW2 9945   7.445   1.919   4.449 -0.0402 -0.7560  1.9856
 2267SOL     OW 9946   5.059   5.633   4.712 -0.1311  0.0737  0.4298
 2267SOL    HW1 9947   5.130   5.681   4.670  1.1476 -0.8275  1.4961
 2267SOL    HW2 9948   5.087   5.621   4.802 -1.7327 -0.1414  0.9413
 2268SOL     OW 9949   5.059   1.046   5.503 -0.0228  0.6681  0.4432
 2268SOL    HW1 9950   5.056   1.126   5.451  0.6473  1.3494  1.4271
 2268SOL    HW2 9951   4.972   1.041   5.544 -0.1406  0.7568  0.2086
 2269SOL     OW 9952   7.918   0.768   3.175  0.0663  0.6787  0.4256
 2269SOL    HW1 9953   7.912   0.673   3.179  0.4847  0.5220 -1.6967
 2269SOL    HW2 9954   7.911   0.796   3.266  0.0788 -1.3764  1.1099
 2270SOL     OW 9955   7.691   1.549   3.526  0.0645  0.3782 -0.6807
 2270SOL    HW1 9956   7.596   1.561   3.518 -0.0699  0.1186  0.4081
 2270SOL    HW2 9957   7.716   1.606   3.598  0.7521  0.4770 -0.9904
 2271SOL     OW 9958   5.843   7.603   2.230 -0.2558 -0.1307 -0.3772
 2271SOL    HW1 9959   5.776   7.671   2.219 -0.1331 -0.1242 -1.1158
 2271SOL    HW2 9960   5.926   7.648   2.215 -0.1689 -0.4180 -0.7958
 2272SOL     OW 9961   3.608   6.744   8.025  0.2022 -0.1824 -0.1969
 2272SOL    HW1 9962   3.546   6.779   7.961  1.4092  1.3985 -0.5611
 2272SOL    HW2 9963   3.555   6.728   8.103 -0.8110  0.3734 -0.7453
 2273SOL     OW 9964   1.492   3.983   1.429  0.5656  0.1982 -0.0438
 2273SOL    HW1 9965   1.582   4.005   1.455  0.3319  2.5431 -1.0178
 2273SOL    HW2 9966   1.497   3.967   1.335  0.0171  0.0142 -0.0464
 2274SOL     OW 9967   3.649   2.165   6.911 -0.0907 -0.1519  0.6203
 2274SOL    HW1 9968   3.608   2.108   6.845 -0.3620  0.3027  0.3964
 2274SOL    HW2 9969   3.676   2.105   6.980 -0.1357 -0.5919  0.2642
 2275SOL     OW 9970   5.261   3.053   3.170 -0.0345 -0.1346  0.2504
 2275SOL    HW1 9971   5.248   3.090   3.082 -0.0909 -1.2482 -0.2319
 2275SOL    HW2 9972   5.195   3.096   3.224 -0.9856 -0.4739 -0.5853
 2276SOL     OW 9973   0.108   6.005   6.594 -0.6504  0.0813  0.2033
 2276SOL    HW1 9974   0.051   6.004   6.670 -0.9124 -2.9423  0.0727
 2276SOL    HW2 9975   0.194   5.980   6.628 -0.3364  0.5659 -0.2234
 2277SOL     OW 9976   5.807   0.295   4.392  0.7229 -0.3533  0.1897
 2277SOL    HW1 9977   5.839   0.215   4.433  1.0835 -0.0681  0.4757
 2277SOL    HW2 9978   5.727   0.316   4.440  0.4887 -0.6744 -0.0524
 2278SOL     OW 9979   5.764   0.116   1.248 -0.2823  0.2478 -0.3950
 2278SOL    HW1 9980   5.803   0.031   1.267 -0.0823  0.2024 -0.9991
 2278SOL    HW2 9981   5.774   0.165   1.330 -0.8585 -0.4731  0.1304
 2279SOL     OW 9982   7.511   1.346   0.618  0.1510 -0.5939  0.5651
 2279SOL    HW1 9983   7.510   1.441   0.631 -3.5379 -0.3569 -0.3239
 2279SOL    HW2 9984   7.541   1.335   0.528 -0.1270 -0.1669  0.4121
 2280SOL     OW 9985   0.714   7.808   1.080 -0.4138  0.4448  0.0725
 2280SOL    HW1 9986   0.784   7.849   1.130 -0.0267 -3.2183  2.9849
 2280SOL    HW2 9987   0.751   7.797   0.992  2.0681  0.1603  1.0625
 2281SOL     OW 9988   6.815   4.427   1.126  0.0653  0.1642 -0.0087
 2281SOL    HW1 9989   6.721   4.432   1.109 -0.0829 -1.3514  0.2212
 2281SOL    HW2 9990   6.850   4.382   1.050  0.5961  0.5803 -0.0145
 2282SOL     OW 9991   0.651   7.767   7.729 -0.5038 -0.0801  0.2265
 2282SOL    HW1 9992   0.727   7.800   7.681 -1.3416  0.5697 -0.7019
 2282SOL    HW2 9993   0.676   7.679   7.757  0.3330 -0.1428 -0.6633
 2283SOL     OW 9994   7.968   2.603   3.092  0.2521 -0.5767  0.2490
 2283SOL    HW1 9995   8.052   2.597   3.047  0.6787  0.9496  0.7717
 2283SOL    HW2 9996   7.911   2.648   3.030  0.2267 -0.3620  0.4287
 2284SOL     OW 9997   4.977   4.149   1.557  0.4723 -0.2888 -0.2430
 2284SOL    HW1 9998   4.891   4.109   1.572  0.6602 -0.6236 -0.0334
 2284SOL    HW2 9999   5.014   4.099   1.484  0.2394  0.2576 -0.7410
 2285SOL     OW10000   6.594   5.799   4.728  0.0344  0.1349  0.0236
 2285SOL    HW110001   6.512   5.849   4.727 -0.3876 -0.5375  0.2272
 2285SOL    HW210002   6.653   5.851   4.783  0.2756  1.4181 -1.3770
 2286SOL     OW10003   5.323   4.959   5.290  0.4433  0.6649 -0.1854
 2286SOL    HW110004   5.342   4.943   5.198  3.5301 -0.7347  0.5539
 2286SOL    HW210005   5.298   4.873   5.324 -1.1192  1.2571  0.2547
 2287SOL     OW10006   0.703   4.086   0.624  0.1066 -0.2327 -0.5657
 2287SOL    HW110007   0.693   3.994   0.646  0.8078  0.4286  3.1711
 2287SOL    HW210008   0.798   4.100   0.620  0.0731  0.5696  0.5971
 2288SOL     OW10009   4.277   4.628   0.305  0.6938 -0.4467  0.0628
 2288SOL    HW110010   4.334   4.619   0.382 -0.7447  0.6626  1.3170
 2288SOL    HW210011   4.313   4.703   0.257 -1.3472  2.2894  2.4847
 2289SOL     OW10012   3.210   5.251   5.753 -0.4154  0.3478 -0.3470
 2289SOL    HW110013   3.181   5.292   5.835 -0.1576 -0.6076  0.2400
 2289SOL    HW210014   3.141   5.188   5.733  0.1262 -0.3011 -0.1890
 2290SOL     OW10015   7.426   4.480   0.264  0.2167  0.0493  0.4837
 2290SOL    HW110016   7.506   4.514   0.225  0.6806 -0.8949  0.5924
 2290SOL    HW210017   7.452   4.450   0.351  0.2570 -2.2994 -0.2842
 2291SOL     OW10018   1.997   3.665   4.664 -0.3547 -0.1197  0.2494
 2291SOL    HW110019   1.978   3.758   4.676  0.4728  0.1165 -0.2142
 2291SOL    HW210020   2.091   3.662   4.651 -0.4135 -1.0065  0.0100
 2292SOL     OW10021   7.875   5.182   1.811 -0.1464  0.5067 -0.2314
 2292SOL    HW110022   7.845   5.181   1.902 -0.3043 -1.0374 -0.2792
 2292SOL    HW210023   7.823   5.114   1.768 -1.9980  2.8891 -2.1326
 2293SOL     OW10024   1.431   5.523   6.611  0.2987  0.3205 -0.0771
 2293SOL    HW110025   1.472   5.583   6.674 -1.3065  0.0785  1.2577
 2293SOL    HW210026   1.483   5.533   6.531  1.1199  2.2056  0.6388
 2294SOL     OW10027   4.476   7.350   7.563 -0.3331  0.5785 -0.0167
 2294SOL    HW110028   4.397   7.354   7.618 -0.1612  1.3277  0.1768
 2294SOL    HW210029   4.480   7.258   7.535  0.1936 -0.1274  2.1506
 2295SOL     OW10030   7.494   3.490   6.900  0.0517  0.0982  0.1157
 2295SOL    HW110031   7.458   3.506   6.987  1.7284 -1.1996  1.1121
 2295SOL    HW210032   7.451   3.409   6.871  0.4479 -0.2006  0.3378
 2296SOL     OW10033   3.077   6.439   0.804  0.0868  0.1799  0.1480
 2296SOL    HW110034   3.078   6.521   0.852  0.9008  0.6316 -0.5977
 2296SOL    HW210035   3.167   6.407   0.810  0.3636  0.5373 -1.5176
 2297SOL     OW10036   7.985   2.108   2.370  0.0110  0.3999  0.1103
 2297SOL    HW110037   7.990   2.156   2.453  1.9325  1.1489 -0.3914
 2297SOL    HW210038   8.002   2.173   2.303 -0.0462 -0.4719 -0.7694
 2298SOL     OW10039   0.540   4.189   3.068  0.3316  0.0154 -0.2692
 2298SOL    HW110040   0.492   4.270   3.082 -0.5126 -0.3871 -0.7446
 2298SOL    HW210041   0.482   4.136   3.013  1.7431 -0.1033 -1.7128
 2299SOL     OW10042   5.377   4.252   1.446  1.0132 -0.1493 -0.1468
 2299SOL    HW110043   5.351   4.217   1.531  1.8308  0.0420  0.1898
 2299SOL    HW210044   5.452   4.199   1.419  1.8576  0.9061  0.0682
 2300SOL     OW10045   0.358   7.859   3.665 -0.1412  0.7306 -0.2778
 2300SOL    HW110046   0.398   7.945   3.661  0.9585  0.2774  0.4719
 2300SOL    HW210047   0.424   7.803   3.706 -1.5767 -0.0213  1.1431
 2301SOL     OW10048   8.012   6.392   7.783  0.6463 -0.3759  0.4969
 2301SOL    HW110049   8.101   6.365   7.759  0.4890  0.8877 -1.7545
 2301SOL    HW210050   7.956   6.351   7.717 -0.2910 -0.0293  1.0587
 2302SOL     OW10051   1.359   6.458   1.894  0.0590 -0.4575 -0.3526
 2302SOL    HW110052   1.438   6.499   1.928  0.5201 -0.3550 -1.4859
 2302SOL    HW210053   1.289   6.486   1.953  1.1835 -2.4005  2.0613
 2303SOL     OW10054   0.979   0.763   3.066 -0.2449 -0.0267 -0.2858
 2303SOL    HW110055   1.022   0.842   3.098  0.6611 -0.2478 -0.9228
 2303SOL    HW210056   1.005   0.757   2.974 -0.8723 -0.6913 -0.4277
 2304SOL     OW10057   3.205   0.341   5.990 -0.0671  0.5447 -0.7494
 2304SOL    HW110058   3.294   0.376   5.983  0.4623 -0.7903 -1.0304
 2304SOL    HW210059   3.148   0.415   5.966  0.8452  1.9492  1.1478
 2305SOL     OW10060   4.302   1.274   7.276  0.9410  0.7163 -0.2601
 2305SOL    HW110061   4.363   1.309   7.211  2.3685 -0.3025  0.5002
 2305SOL    HW210062   4.332   1.185   7.294 -0.8068  0.1425  0.1096
 2306SOL     OW10063   4.861   2.682   3.295 -0.1406 -0.1045  0.6437
 2306SOL    HW110064   4.792   2.665   3.231 -0.9266 -0.2093  1.5034
 2306SOL    HW210065   4.936   2.631   3.263 -0.5697 -0.2859 -0.1013
 2307SOL     OW10066   5.965   6.055   0.287  0.1323 -0.3588  0.0533
 2307SOL    HW110067   5.977   6.045   0.193  0.8764 -1.5150  0.2426
 2307SOL    HW210068   6.047   6.094   0.318 -0.0921 -0.0222  0.2302
 2308SOL     OW10069   5.416   3.382   3.589  0.0408  0.1182  0.1366
 2308SOL    HW110070   5.503   3.344   3.601 -0.6606 -1.3761  0.7757
 2308SOL    HW210071   5.399   3.428   3.672  0.3822  0.7433 -0.1417
 2309SOL     OW10072   2.708   3.901   6.580  0.4836 -0.2504 -0.0741
 2309SOL    HW110073   2.671   3.951   6.652  0.4561  0.8464 -0.8298
 2309SOL    HW210074   2.790   3.945   6.559  0.1436 -0.1000 -1.1840
 2310SOL     OW10075   0.642   0.787   5.591  0.4266  0.8749  0.4668
 2310SOL    HW110076   0.599   0.706   5.614 -0.4500  1.0585 -0.4409
 2310SOL    HW210077   0.729   0.760   5.559 -0.3821  0.1359 -1.2173
 2311SOL     OW10078   4.612   7.473   6.731  0.1008 -0.3946  0.2744
 2311SOL    HW110079   4.630   7.466   6.637 -0.0378 -3.2403  0.3667
 2311SOL    HW210080   4.562   7.554   6.740  0.2730  0.0461 -2.0790
 2312SOL     OW10081   5.162   5.788   5.332  0.2568  0.0028  0.6277
 2312SOL    HW110082   5.244   5.779   5.283 -0.5101  0.6299 -0.8183
 2312SOL    HW210083   5.153   5.705   5.379  0.6487 -0.9452 -0.9060
 2313SOL     OW10084   1.734   6.100   2.588  0.8283 -0.1113 -0.6166
 2313SOL    HW110085   1.745   6.160   2.661  0.7885 -1.6351  0.6814
 2313SOL    HW210086   1.795   6.132   2.522  0.6127  1.4942 -0.0877
 2314SOL     OW10087   6.591   3.223   6.945 -0.6311  0.1804  0.0247
 2314SOL    HW110088   6.557   3.134   6.951  0.1572 -0.1471 -0.1765
 2314SOL    HW210089   6.659   3.218   6.877 -0.6003  0.9358 -0.0029
 2315SOL     OW10090   4.837   3.456   1.737 -0.2653  0.3487  0.1590
 2315SOL    HW110091   4.893   3.510   1.682 -0.6845 -0.2831 -0.9277
 2315SOL    HW210092   4.764   3.514   1.760  0.3744  0.9011  0.8412
 2316SOL     OW10093   4.548   3.645   3.364 -0.1354  0.7136  0.0669
 2316SOL    HW110094   4.546   3.653   3.459  2.5295  1.6580  0.1202
 2316SOL    HW210095   4.485   3.709   3.333  0.8915  2.3325  1.1859
 2317SOL     OW10096   5.316   1.884   2.845  0.0177  0.5539 -0.8506
 2317SOL    HW110097   5.293   1.847   2.760  1.4295  0.4212 -1.1997
 2317SOL    HW210098   5.406   1.915   2.835 -0.1903  1.6137  0.2481
 2318SOL     OW10099   5.082   4.604   0.529  0.1591  0.3317  0.2026
 2318SOL    HW110100   5.059   4.690   0.495 -1.1886 -0.1936 -0.3163
 2318SOL    HW210101   5.102   4.618   0.621 -2.2220  0.9254  0.7033
 2319SOL     OW10102   3.040   1.861   2.495 -0.1930  0.4236 -0.7430
 2319SOL    HW110103   3.093   1.924   2.445 -0.5298  1.0598 -0.3034
 2319SOL    HW210104   2.965   1.912   2.525 -0.1191 -0.0182  0.2008
 2320SOL     OW10105   6.423   5.101   7.789 -0.3302  0.5207 -0.2348
 2320SOL    HW110106   6.350   5.045   7.815  0.6034 -1.2574 -1.1942
 2320SOL    HW210107   6.488   5.088   7.858  1.0058 -1.9407 -1.7828
 2321SOL     OW10108   0.038   4.308   1.559  0.3527  0.2541  0.2456
 2321SOL    HW110109  -0.005   4.393   1.564  1.3062  0.7784 -0.1093
 2321SOL    HW210110   0.016   4.275   1.471  0.6932  0.5329  0.0546
 2322SOL     OW10111   5.251   7.877   7.324 -0.7072 -0.3799 -1.0465
 2322SOL    HW110112   5.289   7.790   7.316  0.5971  0.1579 -0.9152
 2322SOL    HW210113   5.214   7.894   7.237  1.4040 -0.0233 -1.9464
 2323SOL     OW10114   0.543   5.625   1.284 -0.6810 -0.0757  0.2039
 2323SOL    HW110115   0.473   5.566   1.313 -1.3174  0.8793  0.6634
 2323SOL    HW210116   0.519   5.647   1.194 -0.9775  0.2381  0.3553
 2324SOL     OW10117   0.620   3.115   1.332  0.6475 -0.3724  0.2913
 2324SOL    HW110118   0.689   3.123   1.398 -0.8747  1.2062  1.8251
 2324SOL    HW210119   0.619   3.200   1.288 -0.6252 -0.1589  0.6803
 2325SOL     OW10120   1.406   1.904   4.919 -0.0034 -0.1290  0.2665
 2325SOL    HW110121   1.470   1.973   4.932 -1.2190  1.4740 -1.6441
 2325SOL    HW210122   1.411   1.850   4.998  2.9485  0.4848  0.6041
 2326SOL     OW10123   1.870   4.038   5.418 -0.2539  0.6953  0.1871
 2326SOL    HW110124   1.782   4.023   5.384  0.7027  0.7072 -2.5579
 2326SOL    HW210125   1.908   3.950   5.425 -0.0646  0.7717  0.1169
 2327SOL     OW10126   1.704   1.873   2.808 -0.3156  0.4097 -0.4383
 2327SOL    HW110127   1.701   1.851   2.901 -1.4880  0.1535 -0.5145
 2327SOL    HW210128   1.633   1.937   2.797 -1.0094 -0.4823 -1.3671
 2328SOL     OW10129   3.474   2.826   4.805 -0.0981  0.4115  0.0076
 2328SOL    HW110130   3.521   2.836   4.888 -1.6957 -0.3372  1.0693
 2328SOL    HW210131   3.478   2.732   4.786 -1.1471  0.3221  0.1461
 2329SOL     OW10132   5.970   2.694   0.243 -0.5859 -0.1134 -0.4537
 2329SOL    HW110133   5.918   2.619   0.273 -0.5755 -0.4164 -1.1746
 2329SOL    HW210134   5.979   2.749   0.321  0.9448 -1.7093  0.5771
 2330SOL     OW10135   3.776   1.580   3.026 -0.2645  0.1303  0.0646
 2330SOL    HW110136   3.752   1.555   3.115  0.8219 -1.9500 -0.1741
 2330SOL    HW210137   3.864   1.544   3.013 -0.3701  0.4320 -1.8299
 2331SOL     OW10138   8.095   2.775   0.645  0.2142  0.0561  0.1810
 2331SOL    HW110139   8.022   2.835   0.659 -0.4168 -0.0319 -2.3407
 2331SOL    HW210140   8.157   2.824   0.592  1.7359 -0.1087  1.7241
 2332SOL     OW10141   5.074   5.894   2.946 -0.2345 -0.3878 -0.4605
 2332SOL    HW110142   5.014   5.844   3.001  1.7981 -0.9987  1.3781
 2332SOL    HW210143   5.021   5.966   2.912 -2.1698 -1.3425  0.3728
 2333SOL     OW10144   7.878   2.526   7.620  0.2384  0.2547  0.0247
 2333SOL    HW110145   7.910   2.616   7.624 -0.2810  0.5515 -1.7028
 2333SOL    HW210146   7.790   2.530   7.656  0.1492  0.4672 -0.2187
 2334SOL     OW10147   1.056   5.302   3.617 -0.0108 -0.4466 -0.2885
 2334SOL    HW110148   1.132   5.324   3.672  1.1344  0.4809 -2.1501
 2334SOL    HW210149   0.995   5.259   3.677  1.1266  0.5973  1.7273
 2335SOL     OW10150   6.214   2.965   2.354 -0.2389 -0.0432 -0.5040
 2335SOL    HW110151   6.246   2.964   2.264  0.6621  0.1160 -0.1911
 2335SOL    HW210152   6.207   2.872   2.377  0.8583 -0.0853 -0.2864
 2336SOL     OW10153   2.545   0.146   1.936 -0.0293  0.0767  0.2247
 2336SOL    HW110154   2.519   0.230   1.898  3.0114  1.2610  0.4728
 2336SOL    HW210155   2.574   0.167   2.025  2.3465 -0.8495 -0.2503
 2337SOL     OW10156   2.421   0.359   5.480  0.2231 -0.0810  0.5432
 2337SOL    HW110157   2.349   0.422   5.481  1.0394  0.8648  1.4020
 2337SOL    HW210158   2.420   0.324   5.390 -1.4471 -0.2878  0.6042
 2338SOL     OW10159   3.898   4.524   0.539  0.5840 -0.2508 -0.2497
 2338SOL    HW110160   3.983   4.501   0.577  0.0061 -3.8940 -0.8382
 2338SOL    HW210161   3.911   4.511   0.445  0.0112  1.7315 -0.6532
 2339SOL     OW10162   7.900   5.803   7.471  0.2789 -0.0417 -0.0745
 2339SOL    HW110163   7.873   5.792   7.562  0.8463  0.0040  0.1046
 2339SOL    HW210164   7.828   5.850   7.429 -0.5211 -1.1246  0.0554
 2340SOL     OW10165   0.850   3.965   3.961  0.2626 -0.1068  0.0768
 2340SOL    HW110166   0.937   3.985   3.924 -0.4660  0.4529 -1.4353
 2340SOL    HW210167   0.789   3.992   3.892 -1.0842 -1.1544  0.8334
 2341SOL     OW10168   6.013   5.678   6.448 -0.5812 -0.4196  0.3703
 2341SOL    HW110169   5.920   5.674   6.469 -0.7822  2.6343  0.5569
 2341SOL    HW210170   6.017   5.679   6.353 -0.8324  0.1511  0.3588
 2342SOL     OW10171   7.877   0.734   5.036  0.4661  0.2028 -0.5753
 2342SOL    HW110172   7.899   0.650   5.077  0.9952 -0.0360 -1.3281
 2342SOL    HW210173   7.951   0.791   5.058 -0.0646  0.5957  0.2465
 2343SOL     OW10174   4.412   6.041   1.845  0.1630 -0.6693 -0.3484
 2343SOL    HW110175   4.394   6.118   1.791 -0.3555 -1.0594 -0.7381
 2343SOL    HW210176   4.326   6.009   1.872  0.3942 -0.8409  0.1995
 2344SOL     OW10177   0.997   2.509   2.756  0.6830 -0.5354  0.4100
 2344SOL    HW110178   1.076   2.481   2.711  0.9536  2.4477 -1.1678
 2344SOL    HW210179   1.026   2.531   2.845  1.4762 -0.2646  0.0892
 2345SOL     OW10180   3.435   2.606   5.045  0.1882  0.2059 -0.2363
 2345SOL    HW110181   3.508   2.588   4.985 -0.7124  0.3965 -1.4162
 2345SOL    HW210182   3.377   2.530   5.036 -0.0674  0.3440  0.2296
 2346SOL     OW10183   1.963   4.883   4.782 -0.1881 -0.1370 -0.5669
 2346SOL    HW110184   1.977   4.910   4.872  0.9319 -0.5892 -0.5883
 2346SOL    HW210185   1.979   4.789   4.782 -0.0322 -0.1205 -1.2560
 2347SOL     OW10186   1.677   4.101   4.336 -0.0545  0.3486 -0.2801
 2347SOL    HW110187   1.711   4.023   4.380  0.3726  0.8562  0.3085
 2347SOL    HW210188   1.587   4.079   4.313 -0.0145 -0.2230  0.1089
 2348SOL     OW10189   0.951   6.202   4.294  0.4445 -0.2429  0.8464
 2348SOL    HW110190   0.888   6.132   4.308  1.5909 -1.4438  0.2564
 2348SOL    HW210191   0.898   6.281   4.282 -0.9588 -1.2767 -0.0696
 2349SOL     OW10192   4.273   7.370   4.369 -0.7667 -1.0252 -0.0828
 2349SOL    HW110193   4.237   7.355   4.281 -1.2662 -3.4746  0.4885
 2349SOL    HW210194   4.220   7.442   4.403  0.5286  1.1701 -2.3222
 2350SOL     OW10195   4.971   0.979   3.038  0.1201 -0.0778  0.1869
 2350SOL    HW110196   5.016   1.008   2.958  0.3625 -0.4229  0.1964
 2350SOL    HW210197   5.021   1.020   3.109 -1.3685  2.0402  0.1292
 2351SOL     OW10198   0.970   2.470   1.540  0.5214 -0.2064 -0.7576
 2351SOL    HW110199   1.065   2.478   1.534  0.5260  2.1370  0.8760
 2351SOL    HW210200   0.955   2.404   1.607  1.1003  0.8469  0.4590
 2352SOL     OW10201   2.423   0.743   0.163  0.8530 -0.0538  0.4529
 2352SOL    HW110202   2.462   0.796   0.232  0.8679  0.0868  0.3370
 2352SOL    HW210203   2.379   0.806   0.106 -0.1909 -0.2766  0.9942
 2353SOL     OW10204   7.580   1.049   3.649 -0.1467 -0.5976 -0.1568
 2353SOL    HW110205   7.597   1.124   3.592 -0.9232  0.7175  1.2560
 2353SOL    HW210206   7.661   1.038   3.699  0.0699 -0.8935 -0.5702
 2354SOL     OW10207   3.376   0.773   0.866 -0.2043  0.1681  0.3102
 2354SOL    HW110208   3.426   0.696   0.893 -0.1213 -0.1576 -0.6989
 2354SOL    HW210209   3.373   0.766   0.770 -0.0217  1.5329  0.1957
 2355SOL     OW10210   7.168   6.318   5.937 -0.0146 -0.0007 -0.0150
 2355SOL    HW110211   7.198   6.233   5.906 -1.9083 -0.9416  0.5350
 2355SOL    HW210212   7.124   6.357   5.862 -3.2370 -1.6084  0.8619
 2356SOL     OW10213   4.804   3.186   3.981 -0.9147  0.8440  0.4444
 2356SOL    HW110214   4.735   3.120   3.993  0.0680  0.1438  2.9708
 2356SOL    HW210215   4.793   3.245   4.056 -0.0204  1.9217 -0.2526
 2357SOL     OW10216   3.038   5.621   4.151  0.3580  0.1422 -0.5226
 2357SOL    HW110217   3.125   5.584   4.162  1.1536  1.2456 -2.4963
 2357SOL    HW210218   3.001   5.575   4.076 -0.2084  0.6025 -0.5384
 2358SOL     OW10219   7.042   1.051   4.227 -0.9305 -0.5765  0.8090
 2358SOL    HW110220   6.957   1.061   4.185 -0.4855 -0.6727 -0.1437
 2358SOL    HW210221   7.098   1.015   4.158  0.0656  0.1733  1.2132
 2359SOL     OW10222   0.778   5.233   7.322  1.2723 -0.0689 -0.0760
 2359SOL    HW110223   0.720   5.184   7.264  0.6744 -0.3752  0.7534
 2359SOL    HW210224   0.835   5.166   7.361  2.3926  0.2631 -1.0950
 2360SOL     OW10225   2.757   0.049   2.404 -0.3087  0.0512 -0.1519
 2360SOL    HW110226   2.811  -0.028   2.422  0.1178  0.5015  0.5505
 2360SOL    HW210227   2.819   0.123   2.403 -0.7898  0.4601 -0.2095
 2361SOL     OW10228   2.243   7.703   3.235  0.1881  0.3701 -0.2654
 2361SOL    HW110229   2.147   7.701   3.237  0.1433 -0.3121 -1.7441
 2361SOL    HW210230   2.267   7.747   3.316 -1.4047  1.5974 -0.3944
 2362SOL     OW10231   3.401   3.567   6.978 -0.0941 -0.4722  0.0533
 2362SOL    HW110232   3.494   3.577   6.999  0.2443 -0.2022 -1.4664
 2362SOL    HW210233   3.358   3.636   7.028  0.5033 -0.6918  0.8808
 2363SOL     OW10234   6.657   2.700   2.828  0.0701 -0.2700 -0.3795
 2363SOL    HW110235   6.629   2.628   2.772  1.2681  0.3953 -1.8871
 2363SOL    HW210236   6.701   2.658   2.901  0.1155 -1.0881 -0.8739
 2364SOL     OW10237   5.355   6.770   0.029 -0.0537  0.6212 -0.2122
 2364SOL    HW110238   5.276   6.815   0.060  0.1734  1.2881 -0.5954
 2364SOL    HW210239   5.418   6.839   0.014  0.2220  0.1972 -1.0583
 2365SOL     OW10240   1.463   1.733   5.397  0.2377  0.6477  0.4731
 2365SOL    HW110241   1.485   1.706   5.308  3.0634 -0.2154  1.3003
 2365SOL    HW210242   1.368   1.723   5.403 -0.3810  2.9387 -3.0634
 2366SOL     OW10243   1.537   7.120   7.611 -0.1937 -0.1920  0.2214
 2366SOL    HW110244   1.460   7.150   7.562 -0.4063 -1.2762 -0.1546
 2366SOL    HW210245   1.504   7.047   7.663  0.2887  0.2225  1.1284
 2367SOL     OW10246   3.123   3.335   7.173 -0.8000 -0.2104 -0.5370
 2367SOL    HW110247   3.113   3.418   7.128 -0.1449 -0.0698 -0.4450
 2367SOL    HW210248   3.106   3.355   7.265  0.8957  0.1921 -0.2633
 2368SOL     OW10249   0.461   4.402   5.468 -0.0537  0.1613  0.1410
 2368SOL    HW110250   0.423   4.340   5.531 -0.9514  1.0412  0.4860
 2368SOL    HW210251   0.539   4.436   5.512  0.4192 -0.6724 -0.0307
 2369SOL     OW10252   1.598   8.068   2.768 -0.1499  0.1997 -0.0065
 2369SOL    HW110253   1.660   8.135   2.739 -0.3402 -0.6482 -2.6577
 2369SOL    HW210254   1.653   8.003   2.812  0.3116  1.1481  0.8549
 2370SOL     OW10255   7.437   5.970   0.174 -0.7800  0.3064  0.0213
 2370SOL    HW110256   7.355   5.949   0.219 -0.4749  0.4745  0.6638
 2370SOL    HW210257   7.504   5.967   0.242  0.2246 -2.5251 -0.9490
 2371SOL     OW10258   4.244   1.461   2.176  0.4214  0.2623 -0.0509
 2371SOL    HW110259   4.273   1.530   2.236  0.9763  1.3396 -1.5010
 2371SOL    HW210260   4.263   1.496   2.089 -1.4686 -0.7381 -0.9261
 2372SOL     OW10261   1.830   6.367   3.151  0.4064 -0.5082  0.3245
 2372SOL    HW110262   1.744   6.326   3.162  0.0538  0.4738  1.3726
 2372SOL    HW210263   1.892   6.295   3.164 -0.2349 -1.1147  0.1126
 2373SOL     OW10264   7.921   0.140   5.570  0.0999 -0.2720  0.2396
 2373SOL    HW110265   7.917   0.075   5.500  0.1183  1.2582 -1.2482
 2373SOL    HW210266   7.830   0.167   5.583  0.1561 -0.1720  0.4410
 2374SOL     OW10267   5.825   6.349   0.605 -0.0738 -0.0700 -0.3325
 2374SOL    HW110268   5.781   6.269   0.577  0.0205  0.4832 -2.1600
 2374SOL    HW210269   5.758   6.396   0.655 -0.1013 -1.2984  0.8301
 2375SOL     OW10270   5.407   4.368   3.713  0.3011 -0.0811  0.5344
 2375SOL    HW110271   5.454   4.417   3.781 -1.2260  0.5349  1.1887
 2375SOL    HW210272   5.317   4.361   3.746 -0.6515  0.8011 -1.7140
 2376SOL     OW10273   6.444   4.782   1.431  0.3873  0.2620 -0.3693
 2376SOL    HW110274   6.453   4.729   1.510 -0.9959 -1.1733 -1.1169
 2376SOL    HW210275   6.504   4.856   1.444 -0.2982  0.4420  2.2900
 2377SOL     OW10276   5.346   0.926   3.764  0.0564 -0.8764  0.3307
 2377SOL    HW110277   5.277   0.955   3.705 -0.6993 -0.5769  1.3374
 2377SOL    HW210278   5.333   0.832   3.773  0.2096 -0.9319 -0.0207
 2378SOL     OW10279   7.635   4.152   1.084 -0.3389  0.3679  0.0021
 2378SOL    HW110280   7.665   4.242   1.100 -0.4515  1.1789 -3.5617
 2378SOL    HW210281   7.704   4.113   1.031 -1.8029 -0.4842 -1.3361
 2379SOL     OW10282   1.634   5.673   1.156 -0.7150  0.4868  0.1650
 2379SOL    HW110283   1.540   5.690   1.163 -0.5920  1.1065  0.3143
 2379SOL    HW210284   1.673   5.722   1.228 -0.3728 -0.6397  0.7812
 2380SOL     OW10285   6.283   2.637   3.822  0.6078 -0.0016  0.2330
 2380SOL    HW110286   6.312   2.697   3.891 -0.2072  0.0465  0.5469
 2380SOL    HW210287   6.229   2.690   3.764 -0.9598 -0.6157  1.0632
 2381SOL     OW10288   7.451   8.012   3.319 -0.2467  0.5024  0.1882
 2381SOL    HW110289   7.397   8.070   3.265 -1.6269  0.1604  1.1523
 2381SOL    HW210290   7.461   7.933   3.266  1.3087  1.4031 -0.9629
 2382SOL     OW10291   7.210   3.304   2.400  0.0085  0.6943 -0.1033
 2382SOL    HW110292   7.176   3.385   2.437 -0.6536  0.1792  0.4508
 2382SOL    HW210293   7.305   3.310   2.410 -0.1348  0.6019  1.6310
 2383SOL     OW10294   6.777   6.650   5.278 -0.0784 -0.0839 -0.0784
 2383SOL    HW110295   6.729   6.732   5.267 -0.0263 -0.1266 -0.6805
 2383SOL    HW210296   6.708   6.583   5.279 -0.0203 -0.2698 -2.2073
 2384SOL     OW10297   5.685   5.987   5.206  0.8464 -0.2327 -0.0312
 2384SOL    HW110298   5.717   5.990   5.115  1.1521  0.1207  0.0856
 2384SOL    HW210299   5.710   6.072   5.243  0.9955 -0.4913  0.4733
 2385SOL     OW10300   2.472   4.895   2.668 -0.1989 -0.5373  0.3791
 2385SOL    HW110301   2.396   4.847   2.635  0.3112 -0.3209 -1.2034
 2385SOL    HW210302   2.506   4.941   2.591  1.5043 -0.6126  1.0454
 2386SOL     OW10303   4.645   2.471   2.732 -0.1242  0.0437 -0.1791
 2386SOL    HW110304   4.689   2.385   2.729 -0.2821 -0.0516  0.1467
 2386SOL    HW210305   4.707   2.527   2.779 -0.7345 -0.3296  1.1144
 2387SOL     OW10306   5.230   6.686   4.430  0.0154 -0.2505 -0.7038
 2387SOL    HW110307   5.167   6.750   4.464  0.2986  0.4771 -1.5027
 2387SOL    HW210308   5.310   6.704   4.480 -0.4752 -1.4326  0.5875
 2388SOL     OW10309   2.678   4.521   7.423 -0.5822 -0.0404  0.7903
 2388SOL    HW110310   2.672   4.614   7.399  0.5180 -0.3165 -0.6712
 2388SOL    HW210311   2.758   4.515   7.476  0.6734 -0.4986 -1.0774
 2389SOL     OW10312   5.017   3.767   4.970  0.2445  0.0268 -0.6920
 2389SOL    HW110313   5.076   3.697   4.942  0.9483 -0.0676  0.9341
 2389SOL    HW210314   4.963   3.727   5.038 -1.1345  0.3612 -1.5521
 2390SOL     OW10315   6.786   1.837   3.389 -0.0693 -0.1250 -0.2831
 2390SOL    HW110316   6.708   1.783   3.398  0.5106 -1.2295 -1.5481
 2390SOL    HW210317   6.848   1.782   3.341  0.9183  1.3063 -0.7119
 2391SOL     OW10318   3.684   0.957   7.487 -0.2716 -0.2029  0.2583
 2391SOL    HW110319   3.775   0.929   7.476 -0.1842 -0.1064  0.7196
 2391SOL    HW210320   3.635   0.876   7.504 -0.2269 -0.2245  0.2839
 2392SOL     OW10321   4.439   1.362   7.528 -0.0952 -0.3592 -0.0815
 2392SOL    HW110322   4.432   1.418   7.452  2.7562 -1.0200 -0.9433
 2392SOL    HW210323   4.383   1.403   7.594 -4.7280 -1.0629 -3.0845
 2393SOL     OW10324   7.097   0.787   4.055  0.1604 -0.0811  0.2008
 2393SOL    HW110325   7.069   0.802   3.965  0.3272 -0.3233  0.1084
 2393SOL    HW210326   7.160   0.857   4.073  2.2748 -1.6030 -0.8122
 2394SOL     OW10327   0.856   4.964   3.416  0.1486  0.4770 -0.1615
 2394SOL    HW110328   0.903   4.952   3.334 -0.8677 -0.1096 -0.6652
 2394SOL    HW210329   0.829   5.055   3.416  1.2536  0.8252  0.1340
 2395SOL     OW10330   6.040   0.318   5.107 -0.0810  0.7521  0.3982
 2395SOL    HW110331   5.974   0.354   5.166 -1.3772 -0.3919 -0.2902
 2395SOL    HW210332   6.117   0.304   5.162 -0.9246  0.6813  1.5913
 2396SOL     OW10333   0.434   7.771   6.652 -0.1018  0.0513 -0.1656
 2396SOL    HW110334   0.517   7.755   6.606  0.3789 -0.5654  0.8966
 2396SOL    HW210335   0.397   7.684   6.666  0.2688  0.1531  1.5420
 2397SOL     OW10336   6.871   4.986   0.240  0.3611  0.4243 -0.5315
 2397SOL    HW110337   6.939   4.934   0.198  1.3855  2.5103 -1.6505
 2397SOL    HW210338   6.870   5.068   0.190 -2.0466  0.9879  0.3148
 2398SOL     OW10339   5.709   5.201   7.102 -0.0056 -0.0753 -0.5851
 2398SOL    HW110340   5.749   5.257   7.036 -1.0629 -0.2709 -1.4030
 2398SOL    HW210341   5.718   5.112   7.068  3.0835 -0.7095  1.4055
 2399SOL     OW10342   1.009   4.700   0.338  0.1860  0.3914  0.4623
 2399SOL    HW110343   0.963   4.685   0.421 -0.4709  0.8515  0.1841
 2399SOL    HW210344   0.972   4.636   0.278  1.4464 -0.7017  0.7963
 2400SOL     OW10345   2.856   3.654   7.108  0.2935  0.3337  0.3407
 2400SOL    HW110346   2.781   3.670   7.165 -0.8945  0.7276 -1.2799
 2400SOL    HW210347   2.874   3.560   7.118 -1.8713 -0.2804 -0.9083
 2401SOL     OW10348   7.437   2.622   6.763 -0.5995  0.0759  0.7242
 2401SOL    HW110349   7.436   2.645   6.856  0.4326  0.5515  0.6371
 2401SOL    HW210350   7.529   2.628   6.738 -0.8270 -0.3209 -0.2684
 2402SOL     OW10351   3.824   4.509   6.203  0.6913  0.0981  0.4621
 2402SOL    HW110352   3.872   4.535   6.281 -0.6011 -1.6954  1.9474
 2402SOL    HW210353   3.843   4.416   6.193 -1.0528 -0.2646  0.1166
 2403SOL     OW10354   3.200   1.210   7.179 -0.2119  0.4023 -0.2137
 2403SOL    HW110355   3.270   1.245   7.123 -0.6061  0.3326 -0.7666
 2403SOL    HW210356   3.232   1.221   7.268 -0.2732  2.0963 -0.3604
 2404SOL     OW10357   1.828   4.961   7.624  0.2495  0.6563 -0.1065
 2404SOL    HW110358   1.816   5.032   7.560  0.5108  1.3040  0.5556
 2404SOL    HW210359   1.877   4.895   7.576 -0.3489  0.7424 -0.8600
 2405SOL     OW10360   6.266   6.047   6.799  0.8055  0.0942  0.5178
 2405SOL    HW110361   6.342   6.040   6.742 -0.1189 -1.6895 -0.5948
 2405SOL    HW210362   6.196   6.002   6.752 -0.7055  0.8691  1.9067
 2406SOL     OW10363   1.943   2.322   1.132 -0.7623 -0.2859 -0.3473
 2406SOL    HW110364   1.862   2.300   1.087 -1.3405 -0.2090  0.6419
 2406SOL    HW210365   1.921   2.396   1.187 -0.1034 -0.4637  0.1718
 2407SOL     OW10366   0.186   6.564   2.131  0.1053  0.0414 -0.4171
 2407SOL    HW110367   0.253   6.561   2.200  0.2268 -0.7907 -0.5574
 2407SOL    HW210368   0.112   6.610   2.171  0.0220 -0.7956  0.4198
 2408SOL     OW10369   5.442   4.359   7.523  0.1452 -0.6976 -0.5737
 2408SOL    HW110370   5.459   4.265   7.535  0.1567 -0.8159 -1.4289
 2408SOL    HW210371   5.393   4.364   7.442  0.7592  0.0970 -0.9135
 2409SOL     OW10372   0.440   7.620   2.846  0.3998  0.1679 -0.0256
 2409SOL    HW110373   0.380   7.692   2.864  1.3809  1.1562 -0.5953
 2409SOL    HW210374   0.392   7.563   2.785  0.7779  2.0851 -2.2467
 2410SOL     OW10375   4.486   7.463   0.521 -0.0403 -0.0859  0.1761
 2410SOL    HW110376   4.392   7.448   0.518  0.2145 -2.1879  1.0207
 2410SOL    HW210377   4.510   7.485   0.431 -1.3569  0.7810  0.0173
 2411SOL     OW10378   2.707   4.714   0.722  0.1461  0.3632 -0.0373
 2411SOL    HW110379   2.684   4.621   0.720 -0.2548  0.4667 -0.3556
 2411SOL    HW210380   2.624   4.759   0.703 -0.3030  0.8843  2.7236
 2412SOL     OW10381   5.597   4.384   0.982  0.3160  0.0341  0.0238
 2412SOL    HW110382   5.604   4.381   1.078 -2.4310  0.0250  0.3070
 2412SOL    HW210383   5.526   4.323   0.961 -2.0440  3.0186 -1.5568
 2413SOL     OW10384   3.942   7.869   2.764 -0.4274 -0.4119  0.3459
 2413SOL    HW110385   3.909   7.897   2.850 -0.8390 -0.6218  0.2580
 2413SOL    HW210386   3.912   7.779   2.755  0.0857 -0.5724  0.2151
 2414SOL     OW10387   1.280   0.584   6.405  0.0876 -0.0620  0.1240
 2414SOL    HW110388   1.230   0.610   6.328  0.5778  2.5324  0.5679
 2414SOL    HW210389   1.352   0.531   6.371 -0.0879  0.4863 -1.1457
 2415SOL     OW10390   5.167   5.341   7.283  0.1548 -0.6756 -0.0295
 2415SOL    HW110391   5.128   5.254   7.290  0.1302 -0.9269 -2.3544
 2415SOL    HW210392   5.259   5.328   7.303  0.1235 -1.2193 -0.2293
 2416SOL     OW10393   0.528   2.335   2.046 -0.4641  0.1274  0.5368
 2416SOL    HW110394   0.466   2.289   2.103  0.9186 -0.1945  1.8579
 2416SOL    HW210395   0.485   2.418   2.025 -1.5662 -0.3174  0.9518
 2417SOL     OW10396   5.596   1.374   6.883  0.1011 -0.7522 -0.0045
 2417SOL    HW110397   5.684   1.344   6.907  0.4860 -0.5192 -1.0616
 2417SOL    HW210398   5.538   1.313   6.928  0.7785 -0.4802  1.2790
 2418SOL     OW10399   1.394   7.650   4.651 -0.6180 -0.0229  0.6739
 2418SOL    HW110400   1.425   7.709   4.583 -0.3948  0.9036  1.5617
 2418SOL    HW210401   1.344   7.706   4.711 -0.7980 -0.8164  1.2857
 2419SOL     OW10402   5.788   7.758   6.700 -0.9999  0.1963  0.3414
 2419SOL    HW110403   5.763   7.849   6.683 -0.2507  0.6075  1.3754
 2419SOL    HW210404   5.748   7.737   6.784 -0.3509 -0.1137  0.5747
 2420SOL     OW10405   2.625   6.436   4.945  0.0678  0.6833  0.0255
 2420SOL    HW110406   2.563   6.396   4.885  1.0600 -0.3748 -0.3178
 2420SOL    HW210407   2.591   6.414   5.032 -0.0603  0.1560 -0.1543
 2421SOL     OW10408   4.286   1.736   2.078  0.2625  0.4192 -0.1020
 2421SOL    HW110409   4.278   1.758   2.171  0.6820 -0.3635  0.1289
 2421SOL    HW210410   4.374   1.701   2.069  0.5688  1.3616 -0.9944
 2422SOL     OW10411   6.946   3.410   1.017  0.1047  0.4170 -0.5612
 2422SOL    HW110412   6.980   3.352   0.949 -0.4405  0.0298 -0.5064
 2422SOL    HW210413   6.924   3.491   0.972 -2.2443 -0.5384 -1.2613
 2423SOL     OW10414   6.053   1.617   6.493 -0.0912 -0.7599 -0.1195
 2423SOL    HW110415   6.035   1.668   6.572  1.6994 -0.7942  0.3453
 2423SOL    HW210416   5.978   1.635   6.436 -1.7702 -1.2379  1.8071
 2424SOL     OW10417   6.670   5.198   6.597  0.2260 -0.2443 -0.4020
 2424SOL    HW110418   6.601   5.185   6.663  0.9437  1.6098  0.8062
 2424SOL    HW210419   6.749   5.164   6.639  0.2801 -1.3286 -1.3347
 2425SOL     OW10420   2.078   0.660   2.438 -0.1215 -0.1355  0.2188
 2425SOL    HW110421   2.158   0.705   2.464 -0.9696  1.8994 -0.4854
 2425SOL    HW210422   2.033   0.722   2.380 -1.9956 -1.3842  0.2382
 2426SOL     OW10423   6.709   7.554   5.613  0.4543 -0.0751  0.4986
 2426SOL    HW110424   6.680   7.497   5.685 -0.1779 -0.5643 -0.1275
 2426SOL    HW210425   6.797   7.523   5.592  0.9235  0.5252  1.5155
 2427SOL     OW10426   2.228   6.074   3.946  0.0214  0.0409 -0.0038
 2427SOL    HW110427   2.235   6.137   3.874 -0.2412  0.2192  0.1212
 2427SOL    HW210428   2.249   5.990   3.907 -1.3697 -0.0643 -0.5930
 2428SOL     OW10429   3.729   6.309   7.576 -0.0092  0.2482  0.3707
 2428SOL    HW110430   3.725   6.392   7.530 -0.2068  0.3879  0.6340
 2428SOL    HW210431   3.715   6.332   7.668  0.2508 -0.0389  0.4867
 2429SOL     OW10432   7.836   4.515   2.239 -0.3170 -0.4074  0.0555
 2429SOL    HW110433   7.772   4.584   2.255  0.6822  0.2045  1.6254
 2429SOL    HW210434   7.788   4.434   2.254 -0.6153  0.0532  1.8346
 2430SOL     OW10435   3.473   7.338   6.788  0.3132 -0.6075 -0.0168
 2430SOL    HW110436   3.554   7.369   6.829  0.2398 -1.8992  1.1787
 2430SOL    HW210437   3.499   7.257   6.743 -0.1652 -0.6209 -0.2751
 2431SOL     OW10438   4.849   6.038   0.428  0.0101 -0.3545 -0.0367
 2431SOL    HW110439   4.777   6.049   0.367  0.0331  0.6948  0.1089
 2431SOL    HW210440   4.812   6.057   0.514  0.0915 -1.3544  0.2342
 2432SOL     OW10441   6.019   6.311   0.894  0.0645  0.4047  0.1652
 2432SOL    HW110442   5.986   6.345   0.810  0.2128  0.2540  0.0447
 2432SOL    HW210443   6.089   6.251   0.869 -0.4303 -0.2654  0.3561
 2433SOL     OW10444   5.829   5.647   1.079 -0.1066 -0.4193 -0.1011
 2433SOL    HW110445   5.872   5.638   0.994  0.8100 -0.2322  0.3359
 2433SOL    HW210446   5.806   5.740   1.085  0.1491 -0.3648  0.0135
 2434SOL     OW10447   6.506   2.039   3.061 -0.2281 -0.0909  0.7980
 2434SOL    HW110448   6.512   2.051   2.966  0.9214 -0.1582  0.8431
 2434SOL    HW210449   6.588   2.075   3.095 -0.9477  0.6040  1.8495
 2435SOL     OW10450   0.875   3.803   0.203  0.3599  0.3304  0.4923
 2435SOL    HW110451   0.969   3.818   0.198  0.3615  0.4337  0.8329
 2435SOL    HW210452   0.857   3.742   0.131  1.0145 -1.2942  1.6488
 2436SOL     OW10453   6.892   7.023   6.598 -0.5027 -0.3653  0.5878
 2436SOL    HW110454   6.876   6.933   6.568 -1.1010  0.1808 -0.8162
 2436SOL    HW210455   6.815   7.072   6.568  0.5013  0.9123  0.0143
 2437SOL     OW10456   1.501   3.716   6.284  0.0749 -0.0262  0.7209
 2437SOL    HW110457   1.529   3.751   6.200 -0.3799  1.4227  1.1395
 2437SOL    HW210458   1.560   3.756   6.348  1.9618 -2.8778  0.9851
 2438SOL     OW10459   7.372   6.158   4.748 -0.1738 -0.0687 -0.0353
 2438SOL    HW110460   7.289   6.181   4.706  0.6501 -0.2688 -1.8627
 2438SOL    HW210461   7.380   6.064   4.737  1.4377  0.2384 -2.2243
 2439SOL     OW10462   4.614   2.155   5.934  0.2223  0.5884 -0.0384
 2439SOL    HW110463   4.529   2.120   5.959  0.3769 -0.7720 -1.2694
 2439SOL    HW210464   4.596   2.214   5.860  0.2740  0.8617  0.1658
 2440SOL     OW10465   4.531   1.677   1.026  0.0733 -0.2203 -0.0569
 2440SOL    HW110466   4.480   1.676   0.945 -1.2819  2.3641  0.6442
 2440SOL    HW210467   4.541   1.585   1.049 -2.5528 -0.9271 -1.3431
 2441SOL     OW10468   7.124   2.094   1.604  0.2965  0.0046 -0.0060
 2441SOL    HW110469   7.202   2.041   1.621  1.0382  1.2684  0.6852
 2441SOL    HW210470   7.054   2.030   1.592  1.4530 -1.1792 -0.7970
 2442SOL     OW10471   4.928   0.917   5.119  0.0758  0.6666  0.0005
 2442SOL    HW110472   4.861   0.933   5.186  0.4220 -0.7735  0.7487
 2442SOL    HW210473   4.895   0.960   5.041 -0.3662  2.3761  1.0706
 2443SOL     OW10474   6.300   2.671   6.463  0.8268 -0.4082 -0.4109
 2443SOL    HW110475   6.218   2.684   6.416  1.2030 -0.7732 -1.2027
 2443SOL    HW210476   6.305   2.743   6.525  0.1940 -0.0466 -0.7757
 2444SOL     OW10477   7.573   5.874   3.368 -0.2712 -0.1456 -0.0971
 2444SOL    HW110478   7.607   5.816   3.436 -0.9573  0.2488  0.5917
 2444SOL    HW210479   7.577   5.821   3.288  0.4605 -0.6423  0.2537
 2445SOL     OW10480   3.698   0.799   6.017 -0.2383  0.7588  0.1946
 2445SOL    HW110481   3.667   0.853   5.944  0.5172 -0.4140 -1.0387
 2445SOL    HW210482   3.622   0.746   6.042  0.1356 -0.6444 -1.4637
 2446SOL     OW10483   4.742   5.866   4.294 -0.3957 -0.6912 -0.1668
 2446SOL    HW110484   4.668   5.923   4.272 -0.1392 -0.3224 -0.0901
 2446SOL    HW210485   4.705   5.800   4.352 -1.1752 -1.9420 -2.0047
 2447SOL     OW10486   3.323   7.484   4.981 -0.0277 -0.4386  0.2587
 2447SOL    HW110487   3.414   7.455   4.975 -0.4249 -1.5249 -0.8785
 2447SOL    HW210488   3.272   7.403   4.979 -1.0883  0.2287 -0.5602
 2448SOL     OW10489   5.070   7.917   0.601  0.1782 -0.5298 -0.1650
 2448SOL    HW110490   5.027   7.891   0.682 -2.1308  0.8662 -0.8266
 2448SOL    HW210491   5.087   7.836   0.555 -1.7157 -1.2046  0.2204
 2449SOL     OW10492   6.446   0.647   8.048 -0.2532  0.1830  0.3613
 2449SOL    HW110493   6.424   0.733   8.083  1.6160  0.7921  0.1486
 2449SOL    HW210494   6.542   0.648   8.040 -0.2394 -1.7206 -0.1480
 2450SOL     OW10495   1.400   2.830   7.857 -0.2216 -0.2400 -0.2394
 2450SOL    HW110496   1.337   2.840   7.785 -0.7129 -2.4830 -0.1830
 2450SOL    HW210497   1.366   2.886   7.927 -0.7701  0.5030 -1.0796
 2451SOL     OW10498   3.153   7.076   7.729 -0.0442  0.5079  0.7039
 2451SOL    HW110499   3.086   7.038   7.785  0.3037 -2.1449 -0.5185
 2451SOL    HW210500   3.193   7.001   7.685  1.4158  2.2551 -1.1641
 2452SOL     OW10501   5.065   3.011   1.498  0.0042 -0.2447 -0.1674
 2452SOL    HW110502   5.015   3.054   1.429  1.6558 -0.1012 -1.3374
 2452SOL    HW210503   5.057   3.069   1.574 -1.6288 -0.2720 -0.2964
 2453SOL     OW10504   3.145   5.364   1.801 -0.0099 -0.5140 -0.1193
 2453SOL    HW110505   3.183   5.328   1.721 -1.3073  0.7574 -1.3761
 2453SOL    HW210506   3.051   5.366   1.783 -0.1858  1.2025  0.8445
 2454SOL     OW10507   1.283   2.020   3.881 -0.2349 -0.0203  0.2586
 2454SOL    HW110508   1.286   2.017   3.977  2.3532  1.7492  0.3474
 2454SOL    HW210509   1.371   1.995   3.854 -0.1745  1.8765 -1.4953
 2455SOL     OW10510   7.419   7.014   6.136 -0.0499 -0.0978  0.3423
 2455SOL    HW110511   7.398   6.928   6.172 -0.0944 -0.4931 -0.6082
 2455SOL    HW210512   7.334   7.058   6.129 -0.0934 -0.1898  0.2931
 2456SOL     OW10513   7.062   3.023   3.783 -0.0268  0.0499 -0.4899
 2456SOL    HW110514   7.028   2.947   3.737  0.6696 -0.2922 -0.4427
 2456SOL    HW210515   7.154   3.002   3.801  0.3574  1.1713 -1.0647
 2457SOL     OW10516   5.542   4.701   0.246 -0.2199 -0.3472 -0.0012
 2457SOL    HW110517   5.449   4.699   0.269 -0.5627  1.0913 -1.1034
 2457SOL    HW210518   5.552   4.630   0.182 -0.1974 -1.5043  1.2443
 2458SOL     OW10519   1.746   6.265   7.296 -0.3255  0.1089 -0.7083
 2458SOL    HW110520   1.729   6.266   7.202 -0.9002  0.5032 -0.5992
 2458SOL    HW210521   1.660   6.267   7.337 -0.0791 -0.0626 -0.1694
 2459SOL     OW10522   6.393   7.005   2.995 -0.6499 -0.2476  0.0309
 2459SOL    HW110523   6.424   6.978   2.908 -1.0899  2.5115 -1.0920
 2459SOL    HW210524   6.463   7.061   3.029  0.3595 -2.7209  2.3755
 2460SOL     OW10525   7.167   7.887   0.386 -0.3537 -0.1185 -0.3733
 2460SOL    HW110526   7.228   7.873   0.459 -0.9620  0.9711  0.3714
 2460SOL    HW210527   7.115   7.963   0.413 -2.2885 -1.2267 -0.8090
 2461SOL     OW10528   1.368   6.456   5.915  0.4771 -0.3012 -0.3371
 2461SOL    HW110529   1.410   6.476   5.832  1.8328 -1.3679  0.0604
 2461SOL    HW210530   1.281   6.424   5.891  0.2958  0.8005 -1.2434
 2462SOL     OW10531   7.688   5.107   5.699  0.2713  0.4403 -0.5906
 2462SOL    HW110532   7.607   5.155   5.714  0.0228  0.1644 -1.0338
 2462SOL    HW210533   7.705   5.064   5.783 -0.1665  0.3155 -0.5597
 2463SOL     OW10534   2.662   3.038   5.109  0.0232  0.0617 -0.3237
 2463SOL    HW110535   2.592   3.037   5.174 -0.9037  0.5954 -1.2887
 2463SOL    HW210536   2.695   3.128   5.112  1.8554 -0.5686  1.3030
 2464SOL     OW10537   5.253   0.961   4.907 -0.1122  0.1951  0.1060
 2464SOL    HW110538   5.294   1.007   4.834 -1.5160  0.2601 -0.6627
 2464SOL    HW210539   5.289   0.872   4.902 -0.6899  0.0130 -1.0719
 2465SOL     OW10540   6.855   0.050   2.727 -0.0302 -0.1770  0.0145
 2465SOL    HW110541   6.763   0.030   2.745 -0.2352  0.9328  0.2929
 2465SOL    HW210542   6.866   0.140   2.757  1.6535 -0.8911  1.7810
 2466SOL     OW10543   2.456   1.029   3.957 -0.3040 -0.2511 -0.2652
 2466SOL    HW110544   2.412   1.072   3.883 -0.2778 -0.9361 -0.6931
 2466SOL    HW210545   2.513   0.963   3.916 -0.7117 -1.0257  0.3749
 2467SOL     OW10546   6.313   7.850   6.916  0.1062  0.0623 -0.1052
 2467SOL    HW110547   6.254   7.805   6.978 -1.4205  0.0608 -1.4901
 2467SOL    HW210548   6.300   7.943   6.935 -0.1067  0.0504 -0.1844
 2468SOL     OW10549   3.482   0.911   5.871 -0.4915 -0.1755 -0.1955
 2468SOL    HW110550   3.540   0.964   5.817  0.4232  1.3054  2.0845
 2468SOL    HW210551   3.401   0.962   5.878 -0.0373  0.4390  1.0260
 2469SOL     OW10552   2.800   7.042   3.202 -0.3131 -0.0126 -0.2917
 2469SOL    HW110553   2.713   7.015   3.232 -0.8405  0.3887 -1.4386
 2469SOL    HW210554   2.834   7.095   3.274 -1.7673  1.3526 -0.5487
 2470SOL     OW10555   1.375   7.394   2.385  0.5092 -0.9189 -0.1020
 2470SOL    HW110556   1.380   7.451   2.461 -2.0471 -0.3638 -0.2698
 2470SOL    HW210557   1.329   7.316   2.416 -2.0279 -0.0288 -1.3277
 2471SOL     OW10558   1.021   0.644   4.185 -0.2616 -0.2104 -0.6447
 2471SOL    HW110559   0.976   0.716   4.141 -1.2115 -0.0733  0.5085
 2471SOL    HW210560   1.090   0.617   4.124 -0.9290  0.6038 -1.7746
 2472SOL     OW10561   2.230   0.988   1.936 -0.4306  0.1925 -0.5281
 2472SOL    HW110562   2.269   0.941   1.862  0.0519 -1.4108  0.7078
 2472SOL    HW210563   2.214   0.921   2.002  1.2794  1.8945  1.7553
 2473SOL     OW10564   5.579   6.508   5.567  0.4768  0.0400  0.0863
 2473SOL    HW110565   5.594   6.556   5.649  0.7540 -2.0746  1.3538
 2473SOL    HW210566   5.665   6.472   5.545  0.7421  1.7368 -1.9922
 2474SOL     OW10567   1.454   1.221   1.661  0.2027  0.1792  0.0649
 2474SOL    HW110568   1.545   1.239   1.684  0.2478 -1.2639  1.2512
 2474SOL    HW210569   1.429   1.291   1.601  2.0421  0.6856 -0.1711
 2475SOL     OW10570   7.149   1.798   0.465 -0.8022 -0.5507  0.5454
 2475SOL    HW110571   7.168   1.886   0.431  0.7722 -0.9537  0.3106
 2475SOL    HW210572   7.087   1.761   0.401  0.2201 -0.3923 -0.5739
 2476SOL     OW10573   6.266   6.515   7.855  0.0549 -0.0722  0.1065
 2476SOL    HW110574   6.178   6.551   7.865  0.2739  0.3063  0.7361
 2476SOL    HW210575   6.258   6.423   7.880 -0.4657 -0.4316 -1.3053
 2477SOL     OW10576   2.389   7.425   1.434  0.8882 -0.4134  0.2246
 2477SOL    HW110577   2.399   7.405   1.527 -1.1811 -1.5958  0.2679
 2477SOL    HW210578   2.408   7.342   1.389  0.5552 -0.2193 -0.2905
 2478SOL     OW10579   4.837   6.554   8.075  0.1794  0.1181 -0.4836
 2478SOL    HW110580   4.824   6.481   8.015  0.4872 -0.8352  0.5665
 2478SOL    HW210581   4.923   6.538   8.115 -1.3182 -1.0718  2.5456
 2479SOL     OW10582   7.407   6.795   4.557 -0.3003  0.1929  0.0727
 2479SOL    HW110583   7.338   6.801   4.623 -2.2599  0.6247 -1.8928
 2479SOL    HW210584   7.464   6.870   4.575 -2.0467  1.6119 -0.0265
 2480SOL     OW10585   0.071   4.262   1.119  0.0418 -0.0533  0.0304
 2480SOL    HW110586   0.017   4.227   1.048  0.1246 -1.2810  0.5310
 2480SOL    HW210587   0.155   4.218   1.109  0.2404  0.2015  0.5380
 2481SOL     OW10588   3.572   0.763   6.576  0.2720  0.6524 -0.0263
 2481SOL    HW110589   3.526   0.691   6.532  0.7646  1.5125 -2.0838
 2481SOL    HW210590   3.610   0.723   6.654 -0.3041 -1.0794 -0.5767
 2482SOL     OW10591   2.860   7.747   0.836 -0.4282  0.0913 -0.2077
 2482SOL    HW110592   2.889   7.756   0.927 -0.5403 -0.1172 -0.1495
 2482SOL    HW210593   2.816   7.662   0.834 -0.3848  0.0757 -0.4685
 2483SOL     OW10594   6.278   1.814   6.396 -0.0128 -0.0100  0.4361
 2483SOL    HW110595   6.186   1.829   6.416  0.1942  1.5364  0.3739
 2483SOL    HW210596   6.278   1.740   6.336 -1.2854  0.4090 -0.1168
 2484SOL     OW10597   6.708   5.536   3.097 -0.6275  0.5690 -0.2266
 2484SOL    HW110598   6.648   5.473   3.057 -0.5982 -0.2236  0.9533
 2484SOL    HW210599   6.680   5.543   3.188  1.2776 -0.1409  0.4847
 2485SOL     OW10600   7.174   4.987   5.305 -0.3302 -0.4358 -0.4063
 2485SOL    HW110601   7.237   4.938   5.358  0.8536  1.0950 -0.3170
 2485SOL    HW210602   7.227   5.026   5.235 -1.4157 -0.2174 -1.1247
 2486SOL     OW10603   0.381   4.521   2.178 -0.3657  0.3470  0.2143
 2486SOL    HW110604   0.357   4.583   2.247  0.2832  2.0430 -1.0317
 2486SOL    HW210605   0.413   4.444   2.225  0.4294  1.6047  1.8008
 2487SOL     OW10606   4.048   7.808   1.662 -0.3218 -0.4626 -0.1008
 2487SOL    HW110607   4.120   7.752   1.635 -0.3493  0.5989 -2.6719
 2487SOL    HW210608   4.078   7.897   1.646 -1.9756  0.0317 -0.7269
 2488SOL     OW10609   2.258   3.525   6.298  0.0780 -0.1712 -0.2394
 2488SOL    HW110610   2.354   3.524   6.290  0.4585  0.4300  2.9320
 2488SOL    HW210611   2.237   3.440   6.336 -0.5751  0.0085 -0.1974
 2489SOL     OW10612   5.458   1.973   5.536  0.2635  0.1252  0.0246
 2489SOL    HW110613   5.483   2.061   5.507 -0.9309  1.0835  1.6747
 2489SOL    HW210614   5.490   1.968   5.626  1.0402 -1.4891 -0.3076
 2490SOL     OW10615   1.949   0.031   6.713  0.4087 -0.1077 -0.2174
 2490SOL    HW110616   1.982   0.021   6.624  1.6338 -1.5185  0.3509
 2490SOL    HW210617   1.917  -0.056   6.736  0.7065  0.0833  0.9527
 2491SOL     OW10618   4.469   7.631   3.211  0.2290  0.2278 -0.2407
 2491SOL    HW110619   4.496   7.715   3.249  0.7492  0.6149 -1.4272
 2491SOL    HW210620   4.551   7.583   3.198 -0.0909 -0.6417  0.7903
 2492SOL     OW10621   2.313   1.241   4.461  0.1134 -0.6946 -0.0425
 2492SOL    HW110622   2.328   1.333   4.481  0.7510 -0.4929 -1.3749
 2492SOL    HW210623   2.401   1.204   4.448 -0.2055 -0.9717 -1.6394
 2493SOL     OW10624   5.665   3.851   2.935  0.2001 -0.3325  0.0082
 2493SOL    HW110625   5.611   3.774   2.920  1.3861 -1.1640 -0.1718
 2493SOL    HW210626   5.692   3.878   2.847  0.7068 -0.3980  0.1422
 2494SOL     OW10627   0.688   3.128   4.510  0.2592 -0.6549  0.2125
 2494SOL    HW110628   0.649   3.095   4.590  0.3556  0.0868  0.5713
 2494SOL    HW210629   0.782   3.128   4.527  0.1822  1.1538  0.7560
 2495SOL     OW10630   7.619   5.441   5.210 -0.1483 -0.1302 -0.1782
 2495SOL    HW110631   7.707   5.412   5.235  0.6074  1.2815 -1.0727
 2495SOL    HW210632   7.586   5.372   5.152  0.8352 -0.1324 -0.7521
 2496SOL     OW10633   2.088   3.136   0.186  0.2558 -0.2435  0.9002
 2496SOL    HW110634   2.160   3.081   0.155 -0.7062 -1.4451  0.6854
 2496SOL    HW210635   2.020   3.126   0.119 -0.2965  0.4775  1.3374
 2497SOL     OW10636   4.666   3.873   5.440 -0.7014 -0.3000 -0.3091
 2497SOL    HW110637   4.663   3.922   5.522 -2.2882 -0.1768 -0.4222
 2497SOL    HW210638   4.705   3.934   5.377 -1.2906  0.2883 -0.1077
 2498SOL     OW10639   5.855   3.338   0.909 -0.5930  0.4476  0.5803
 2498SOL    HW110640   5.841   3.245   0.925  0.2934  0.2939  0.5265
 2498SOL    HW210641   5.801   3.357   0.833 -0.3153 -0.1785  0.2118
 2499SOL     OW10642   2.775   5.111   5.765  0.5663  0.2699  0.0323
 2499SOL    HW110643   2.691   5.154   5.783  0.0520 -0.4635 -0.5347
 2499SOL    HW210644   2.753   5.041   5.704  1.8888  1.2562 -1.6564
 2500SOL     OW10645   4.197   3.094   7.265  0.2238  0.0399  0.2950
 2500SOL    HW110646   4.217   3.014   7.313  2.0317 -0.5943 -1.3991
 2500SOL    HW210647   4.263   3.157   7.295  0.1114  0.2651  0.0738
 2501SOL     OW10648   6.138   6.128   3.263 -0.1528  0.5594 -0.4400
 2501SOL    HW110649   6.212   6.175   3.226 -0.8003  1.8870 -0.1190
 2501SOL    HW210650   6.157   6.124   3.357  1.9062 -3.5463 -0.8109
 2502SOL     OW10651   0.768   2.427   5.032 -0.1686 -0.4986  0.0913
 2502SOL    HW110652   0.801   2.504   5.078 -1.4633  0.5530 -0.6492
 2502SOL    HW210653   0.818   2.425   4.951  0.6247 -1.0922  0.5879
 2503SOL     OW10654   0.882   6.720   5.592 -0.3169 -0.1138 -0.4760
 2503SOL    HW110655   0.852   6.695   5.505 -2.6109 -1.5544  0.6390
 2503SOL    HW210656   0.842   6.806   5.607 -1.1025 -0.5043 -0.3063
 2504SOL     OW10657   7.827   1.489   2.722  0.4551  0.4935 -0.7532
 2504SOL    HW110658   7.846   1.396   2.710 -0.5820  0.4183 -1.9599
 2504SOL    HW210659   7.732   1.494   2.722  0.4960  1.5229 -0.2973
 2505SOL     OW10660   7.708   6.666   7.698  0.0322 -0.3640 -0.3324
 2505SOL    HW110661   7.688   6.624   7.615  0.3981 -2.6736  0.6442
 2505SOL    HW210662   7.696   6.759   7.682 -2.4907 -0.8960 -2.2313
 2506SOL     OW10663   6.471   7.385   5.205 -0.1213  0.0274 -0.0195
 2506SOL    HW110664   6.564   7.367   5.221 -0.0044  0.6453  0.0164
 2506SOL    HW210665   6.467   7.479   5.191 -0.4787 -0.2367 -1.8962
 2507SOL     OW10666   4.386   2.339   7.502  0.0321 -0.3382  0.1325
 2507SOL    HW110667   4.381   2.266   7.564 -0.7235 -0.5533 -0.1714
 2507SOL    HW210668   4.396   2.298   7.417  4.4210 -0.0425  0.2753
 2508SOL     OW10669   6.969   1.383   3.313 -0.5445 -0.3129 -0.0965
 2508SOL    HW110670   6.917   1.314   3.353 -1.8826  0.0886 -1.0618
 2508SOL    HW210671   6.996   1.347   3.228  1.7965 -0.9530  0.8335
 2509SOL     OW10672   3.605   5.918   3.772  0.0270  0.5881  0.4302
 2509SOL    HW110673   3.523   5.888   3.811 -1.4409  1.2423 -1.9582
 2509SOL    HW210674   3.653   5.837   3.753 -0.3830  0.1623  1.1640
 2510SOL     OW10675   0.097   4.116   7.830  0.3914  0.1086 -0.3308
 2510SOL    HW110676   0.102   4.209   7.809 -2.1121  0.6922  1.1669
 2510SOL    HW210677   0.188   4.087   7.833  1.3640  2.9185  0.8592
 2511SOL     OW10678   6.724   3.255   1.998  0.0169  0.2464  0.4702
 2511SOL    HW110679   6.661   3.324   2.017 -1.2416 -1.1312  1.5833
 2511SOL    HW210680   6.712   3.237   1.904 -1.9731 -0.5930  0.8160
 2512SOL     OW10681   7.443   4.982   2.530  0.4368  0.1088  0.3410
 2512SOL    HW110682   7.495   4.931   2.467  0.6571  0.2116  0.4423
 2512SOL    HW210683   7.419   5.061   2.482 -0.2881 -0.2843  0.0272
 2513SOL     OW10684   7.168   5.362   2.390 -0.1878 -0.1824 -0.2949
 2513SOL    HW110685   7.136   5.445   2.356  0.0182 -0.2036 -0.5482
 2513SOL    HW210686   7.133   5.357   2.479  1.6481  1.2188  0.5626
 2514SOL     OW10687   4.378   5.030   1.269  0.5675 -0.0776  0.9956
 2514SOL    HW110688   4.316   5.095   1.302  1.1243  0.3781  1.1581
 2514SOL    HW210689   4.426   5.076   1.200 -0.2342 -0.8537 -0.1365
 2515SOL     OW10690   4.703   5.275   0.812  0.5748  0.1108 -0.0649
 2515SOL    HW110691   4.673   5.228   0.890 -0.3614  2.1838  0.8815
 2515SOL    HW210692   4.738   5.206   0.755 -0.2469 -1.6555  1.4617
 2516SOL     OW10693   7.092   0.499   7.019  0.0419  0.1830  0.4901
 2516SOL    HW110694   7.067   0.424   6.964  0.8911 -0.0464  0.4114
 2516SOL    HW210695   7.103   0.461   7.106  1.2708  0.0566  0.2910
 2517SOL     OW10696   6.147   5.581   5.300  0.9821  0.0711 -0.2877
 2517SOL    HW110697   6.200   5.568   5.222  0.4993  0.0323 -0.6151
 2517SOL    HW210698   6.133   5.493   5.335  0.9700  0.0638 -0.3108
 2518SOL     OW10699   5.105   5.912   3.876 -0.3484  0.1682 -0.3271
 2518SOL    HW110700   5.015   5.927   3.848 -0.0121  0.5471 -1.2406
 2518SOL    HW210701   5.139   5.999   3.894 -0.3153 -0.0118  0.5344
 2519SOL     OW10702   4.689   6.400   2.034 -0.1287 -0.0913  0.1831
 2519SOL    HW110703   4.745   6.332   1.997 -0.0712 -0.3445  0.7218
 2519SOL    HW210704   4.653   6.445   1.958 -1.4656 -1.7697 -0.2361
 2520SOL     OW10705   7.294   7.949   4.895  0.7040 -0.0583 -0.1049
 2520SOL    HW110706   7.283   8.031   4.944  0.3245  1.2197 -2.2065
 2520SOL    HW210707   7.213   7.901   4.912  0.1108  0.8417 -0.3090
 2521SOL     OW10708   6.123   2.223   3.941  0.4872 -0.5068 -0.1457
 2521SOL    HW110709   6.146   2.241   3.850  2.8037 -1.1975  0.2545
 2521SOL    HW210710   6.170   2.143   3.963  2.0834  0.9802  2.3830
 2522SOL     OW10711   6.322   0.794   2.992 -0.5413 -0.6097  0.3836
 2522SOL    HW110712   6.313   0.737   3.069 -1.8634 -0.5786  0.2668
 2522SOL    HW210713   6.332   0.882   3.028  1.5783 -0.8728  0.5675
 2523SOL     OW10714   8.036   5.643   7.318  0.0260  0.0804 -0.2494
 2523SOL    HW110715   7.985   5.709   7.366  0.1605 -0.0590  0.0936
 2523SOL    HW210716   7.972   5.577   7.291  0.0325 -0.1507  0.2769
 2524SOL     OW10717   2.248   7.532   2.906 -0.4088 -0.0578 -0.4146
 2524SOL    HW110718   2.309   7.582   2.960 -1.6550  0.3402  0.7021
 2524SOL    HW210719   2.193   7.486   2.970 -0.9555 -0.7971 -1.3887
 2525SOL     OW10720   5.256   1.350   3.968  0.2451 -0.0211 -0.6325
 2525SOL    HW110721   5.174   1.301   3.977  0.4706 -0.2695  0.1858
 2525SOL    HW210722   5.293   1.350   4.056  1.3912 -0.3862 -1.1016
 2526SOL     OW10723   0.877   2.947   5.461 -0.4528  0.6372  0.3598
 2526SOL    HW110724   0.805   2.959   5.522 -0.2038  1.2586  0.5402
 2526SOL    HW210725   0.842   2.889   5.393 -1.8672  2.6654 -0.7679
 2527SOL     OW10726   0.052   1.692   4.159  0.2861  0.2009 -0.1544
 2527SOL    HW110727  -0.025   1.639   4.138 -0.0803  0.0979  1.3343
 2527SOL    HW210728   0.107   1.687   4.081 -0.5922 -0.8496 -0.7311
 2528SOL     OW10729   1.967   3.029   8.047 -0.2771  0.5227  0.3462
 2528SOL    HW110730   1.886   3.036   7.996 -1.0268  0.5384  1.5061
 2528SOL    HW210731   1.982   2.935   8.055 -0.0614  0.5206 -0.0237
 2529SOL     OW10732   7.403   3.187   3.336  0.0255  0.3803 -0.2075
 2529SOL    HW110733   7.424   3.144   3.253  2.6667  1.8061 -0.4071
 2529SOL    HW210734   7.314   3.219   3.325 -0.1548 -0.6076 -1.9916
 2530SOL     OW10735   4.325   6.192   4.403  0.7998 -0.0505 -0.3756
 2530SOL    HW110736   4.283   6.278   4.399  0.4295 -0.1477  0.8054
 2530SOL    HW210737   4.307   6.153   4.318 -2.8486 -0.6354  0.4635
 2531SOL     OW10738   6.440   2.345   5.244  0.1973  0.0273 -0.5748
 2531SOL    HW110739   6.450   2.250   5.255 -4.3496 -0.7381 -1.0562
 2531SOL    HW210740   6.470   2.382   5.327 -0.7107 -2.1722  0.8432
 2532SOL     OW10741   1.994   2.589   5.631  0.0551  0.1953  0.3413
 2532SOL    HW110742   1.961   2.552   5.713  0.2039 -0.8037 -0.0333
 2532SOL    HW210743   1.998   2.515   5.571  0.5823  0.7839 -0.3750
 2533SOL     OW10744   6.577   7.108   0.254 -0.4319 -0.1901 -0.5033
 2533SOL    HW110745   6.563   7.049   0.328 -0.5555 -0.0545 -0.4185
 2533SOL    HW210746   6.604   7.190   0.295 -1.5488  0.2153 -0.5472
 2534SOL     OW10747   6.841   1.936   6.828 -0.6082  0.4861  0.3492
 2534SOL    HW110748   6.926   1.893   6.819 -0.8317 -0.2025  1.4598
 2534SOL    HW210749   6.849   2.015   6.774  0.5907  0.2204  0.1107
 2535SOL     OW10750   7.763   3.333   4.427  0.5307 -0.0245  0.3383
 2535SOL    HW110751   7.727   3.406   4.477 -0.7166 -0.3380 -0.0725
 2535SOL    HW210752   7.755   3.360   4.336 -1.3576 -1.2411  0.0838
 2536SOL     OW10753   7.376   7.125   5.153  0.3320 -0.0230 -0.2076
 2536SOL    HW110754   7.386   7.137   5.248 -0.6963 -1.4672  0.1170
 2536SOL    HW210755   7.434   7.190   5.114  0.0123  1.2851  1.4069
 2537SOL     OW10756   7.543   3.985   5.394 -0.8226 -0.5939 -0.3870
 2537SOL    HW110757   7.611   3.921   5.411  0.4138  0.7679  0.0517
 2537SOL    HW210758   7.528   4.027   5.479  0.4170  1.5436 -1.1177
 2538SOL     OW10759   5.940   0.732   4.195  0.3120 -0.7932  1.1604
 2538SOL    HW110760   5.864   0.779   4.160  3.2380  1.4604 -3.0583
 2538SOL    HW210761   5.965   0.781   4.273 -1.1176 -0.0716  1.2045
 2539SOL     OW10762   0.426   3.877   1.751  0.0309 -0.1664  0.2818
 2539SOL    HW110763   0.402   3.969   1.750 -1.3660 -0.4616  1.6426
 2539SOL    HW210764   0.466   3.861   1.666  2.3113  2.1718  0.7902
 2540SOL     OW10765   2.365   4.828   1.511  0.0387 -0.0952 -0.3381
 2540SOL    HW110766   2.422   4.903   1.492 -1.0888  1.2877  1.3746
 2540SOL    HW210767   2.305   4.824   1.437  1.4471 -0.7062 -1.4885
 2541SOL     OW10768   2.413   7.131   7.607 -0.3130  0.5942 -0.4395
 2541SOL    HW110769   2.354   7.101   7.538  0.9044  0.8146 -1.6287
 2541SOL    HW210770   2.438   7.051   7.653 -2.4252  0.6175  0.8951
 2542SOL     OW10771   0.984   5.664   7.071 -0.4164  0.5045 -0.0706
 2542SOL    HW110772   0.899   5.704   7.050  0.2498  1.8197 -0.3914
 2542SOL    HW210773   1.016   5.631   6.987 -0.1417  0.9657 -0.1497
 2543SOL     OW10774   5.745   1.440   5.866  1.0856 -0.1121  0.0097
 2543SOL    HW110775   5.789   1.455   5.949  1.5043  0.9658 -0.3754
 2543SOL    HW210776   5.683   1.369   5.883 -0.4884  1.5705  1.8545
 2544SOL     OW10777   0.329   2.554   5.702 -0.6749  0.2230  0.2275
 2544SOL    HW110778   0.422   2.574   5.712 -0.4574 -1.6863  3.5172
 2544SOL    HW210779   0.325   2.458   5.703 -2.6442  0.2619 -0.5657
 2545SOL     OW10780   7.601   2.414   0.014  0.0221  0.4798 -0.3331
 2545SOL    HW110781   7.607   2.418  -0.082  0.0914  1.1407 -0.3101
 2545SOL    HW210782   7.661   2.482   0.044  1.6309 -1.1422  0.2505
 2546SOL     OW10783   1.723   5.409   6.389  0.3286  0.3439 -0.3760
 2546SOL    HW110784   1.692   5.500   6.388  0.8278  0.5623  1.1943
 2546SOL    HW210785   1.683   5.369   6.312 -2.4011  1.0859  0.5517
 2547SOL     OW10786   2.081   2.749   0.008  0.5735  0.2276 -0.1162
 2547SOL    HW110787   2.125   2.690  -0.054  0.1145  1.0808 -1.3004
 2547SOL    HW210788   1.990   2.722   0.006  0.4350  0.6973 -0.3501
 2548SOL     OW10789   5.212   2.528   1.766  0.3195  0.2045 -0.4727
 2548SOL    HW110790   5.304   2.525   1.794 -0.0280  2.9706  1.3513
 2548SOL    HW210791   5.202   2.614   1.726 -1.4535 -0.1130 -0.8071
 2549SOL     OW10792   4.462   5.384   5.573 -0.2409  0.3484  0.6381
 2549SOL    HW110793   4.469   5.430   5.656 -0.1860  1.1588  0.1991
 2549SOL    HW210794   4.411   5.305   5.593 -0.0582  0.4311  1.4697
 2550SOL     OW10795   1.446   5.333   5.589 -0.2071  0.1383 -0.0349
 2550SOL    HW110796   1.514   5.347   5.524 -0.2964 -1.6345 -0.5542
 2550SOL    HW210797   1.489   5.282   5.658 -0.7116  0.0312  0.2050
 2551SOL     OW10798   7.293   0.568   2.355 -0.3934 -0.1352  0.4005
 2551SOL    HW110799   7.318   0.531   2.440 -1.7006 -1.0077  0.4354
 2551SOL    HW210800   7.198   0.553   2.350 -0.2801 -0.4187 -1.3507
 2552SOL     OW10801   0.123   4.403   4.378  0.0223 -0.2204  0.0013
 2552SOL    HW110802   0.081   4.371   4.459  0.6836  0.0837  0.4692
 2552SOL    HW210803   0.049   4.421   4.319 -0.5419  0.6352  0.9275
 2553SOL     OW10804   3.663   5.538   4.518  0.0183  0.1840  0.6351
 2553SOL    HW110805   3.720   5.530   4.594  0.5981 -1.3940  0.0590
 2553SOL    HW210806   3.722   5.548   4.444 -0.4811 -0.0876  0.1914
 2554SOL     OW10807   1.548   1.282   1.257  0.1045  0.3604 -0.6214
 2554SOL    HW110808   1.524   1.362   1.304  0.2624  0.9415 -1.4927
 2554SOL    HW210809   1.468   1.255   1.212 -0.1644 -0.4435  0.3043
 2555SOL     OW10810   7.344   1.593   5.165 -0.6345  0.1498 -0.5675
 2555SOL    HW110811   7.413   1.529   5.146  2.3146  2.8453  0.2239
 2555SOL    HW210812   7.289   1.593   5.087  1.5611 -0.5824 -2.2184
 2556SOL     OW10813   7.316   3.713   6.817  0.2465 -0.0202  0.0470
 2556SOL    HW110814   7.314   3.741   6.726  2.4039  2.1505  0.5722
 2556SOL    HW210815   7.390   3.653   6.823 -0.7053 -1.2264  0.1469
 2557SOL     OW10816   2.088   2.651   2.415 -0.2036  0.0113 -0.3142
 2557SOL    HW110817   2.008   2.699   2.436  0.4122 -0.2532  3.3790
 2557SOL    HW210818   2.058   2.564   2.390 -1.1434 -0.2162  1.4182
 2558SOL     OW10819   3.459   3.387   3.766  0.0141  0.0887 -0.3424
 2558SOL    HW110820   3.408   3.426   3.837  0.2399 -0.9867  0.4371
 2558SOL    HW210821   3.478   3.299   3.796  1.5395  0.1525 -1.0187
 2559SOL     OW10822   7.636   1.869   5.875 -0.0197 -0.1660  0.2047
 2559SOL    HW110823   7.548   1.876   5.913  0.9545 -0.1280  2.6067
 2559SOL    HW210824   7.682   1.946   5.907  0.3484  1.0393 -2.8366
 2560SOL     OW10825   0.174   3.421   6.771  0.6579  0.7859  0.2328
 2560SOL    HW110826   0.232   3.346   6.784  2.1356  1.8577  0.0434
 2560SOL    HW210827   0.094   3.383   6.734  0.7636 -0.8740  1.5541
 2561SOL     OW10828   4.854   4.657   0.156 -0.0449 -0.0598 -0.7952
 2561SOL    HW110829   4.920   4.631   0.092  0.1031  1.0974 -1.1288
 2561SOL    HW210830   4.803   4.725   0.112 -1.3705 -0.8189 -0.4806
 2562SOL     OW10831   6.874   0.779   1.739 -0.4942 -0.4892  0.1392
 2562SOL    HW110832   6.850   0.796   1.830 -0.6403 -0.5583  0.1128
 2562SOL    HW210833   6.930   0.853   1.715 -0.6966 -0.3180  0.1919
 2563SOL     OW10834   6.704   3.924   3.810  0.0525 -1.0636  0.2126
 2563SOL    HW110835   6.763   3.911   3.884  0.5815  0.3424  0.0630
 2563SOL    HW210836   6.759   3.962   3.741 -0.4157 -2.4068 -0.9393
 2564SOL     OW10837   6.247   2.414   0.619 -1.0607  0.6912 -0.1938
 2564SOL    HW110838   6.318   2.424   0.683 -0.3667  1.5562 -1.0827
 2564SOL    HW210839   6.170   2.393   0.673 -0.2704  0.3062  0.8325
 2565SOL     OW10840   1.826   5.458   0.344  0.1948 -0.4310 -0.2475
 2565SOL    HW110841   1.771   5.491   0.415  0.7025 -0.5187  0.1963
 2565SOL    HW210842   1.914   5.488   0.367  0.3417 -0.3534 -0.9098
 2566SOL     OW10843   2.029   0.681   6.204  0.0497 -0.1712  0.3843
 2566SOL    HW110844   1.955   0.687   6.264 -0.1444  0.7603  0.0710
 2566SOL    HW210845   1.999   0.623   6.134 -0.4649  0.3493  0.1656
 2567SOL     OW10846   3.912   0.213   3.038  0.2892 -0.0331  0.3225
 2567SOL    HW110847   3.938   0.302   3.062 -1.6893  0.8438 -0.5215
 2567SOL    HW210848   3.934   0.206   2.945  1.7244 -0.9880  0.6895
 2568SOL     OW10849   7.348   1.195   3.214 -0.0461  0.2682  0.0889
 2568SOL    HW110850   7.389   1.110   3.201  0.3433  0.4937 -0.2000
 2568SOL    HW210851   7.349   1.209   3.308  0.6333  0.3074  0.0840
 2569SOL     OW10852   6.155   5.814   0.605 -0.3425 -0.1442  0.5006
 2569SOL    HW110853   6.167   5.896   0.654  0.0605 -0.1288  0.3732
 2569SOL    HW210854   6.060   5.799   0.609 -0.3972  0.2208  0.6972
 2570SOL     OW10855   3.648   5.338   0.891 -0.0048  0.0336 -0.8713
 2570SOL    HW110856   3.561   5.302   0.910  0.2284 -1.1506 -1.8539
 2570SOL    HW210857   3.653   5.418   0.942 -2.4025  1.1351 -2.2104
 2571SOL     OW10858   3.683   3.600   0.525  0.1476 -0.7147 -0.7823
 2571SOL    HW110859   3.749   3.553   0.476  0.4228  0.3169 -1.4355
 2571SOL    HW210860   3.631   3.646   0.459  0.6429  0.8462 -0.1247
 2572SOL     OW10861   6.856   4.327   8.089 -0.2250 -0.2438  0.1313
 2572SOL    HW110862   6.775   4.375   8.071 -1.3197 -1.7466  0.8826
 2572SOL    HW210863   6.858   4.318   8.184  1.1201  0.2226  0.1752
 2573SOL     OW10864   6.118   6.368   5.479 -0.1720 -0.0207 -0.5206
 2573SOL    HW110865   6.182   6.424   5.435  1.3474 -0.8621  0.5236
 2573SOL    HW210866   6.159   6.346   5.563 -1.8034 -0.6756  0.1329
 2574SOL     OW10867   1.525   1.648   2.743  0.1411  0.1381 -0.2324
 2574SOL    HW110868   1.529   1.651   2.647 -1.2714 -1.3759 -0.4042
 2574SOL    HW210869   1.602   1.695   2.772  0.9807  0.0524 -2.1345
 2575SOL     OW10870   5.652   0.115   6.741  0.4374 -0.0778 -0.0089
 2575SOL    HW110871   5.638   0.205   6.713  1.2862  0.0792  0.0509
 2575SOL    HW210872   5.679   0.122   6.832  0.1475 -0.4191  0.1048
 2576SOL     OW10873   5.840   3.089   5.059 -0.1530 -0.3192  0.4495
 2576SOL    HW110874   5.850   3.114   4.967  1.9125 -0.9892  0.4370
 2576SOL    HW210875   5.873   2.999   5.063 -3.7750 -1.7849  1.1936
 2577SOL     OW10876   5.453   0.762   4.903 -0.4417 -0.0122  0.6261
 2577SOL    HW110877   5.453   0.751   4.998  2.7294 -1.8532  0.5691
 2577SOL    HW210878   5.435   0.674   4.868 -1.9791  0.7118 -0.5302
 2578SOL     OW10879   2.974   0.994   5.930  0.4346  0.2406 -0.0269
 2578SOL    HW110880   2.904   0.940   5.967 -0.7827  1.7263 -0.0191
 2578SOL    HW210881   2.973   0.974   5.836  0.2934 -0.0714  0.0398
 2579SOL     OW10882   2.728   6.579   2.982 -0.4772 -0.1379 -0.3358
 2579SOL    HW110883   2.701   6.512   2.919  0.8906  0.5331 -1.6710
 2579SOL    HW210884   2.647   6.600   3.030 -1.6386 -0.4290 -2.0685
 2580SOL     OW10885   6.041   5.608   0.821 -0.3055  0.1455  0.2082
 2580SOL    HW110886   6.088   5.669   0.763  1.8542 -1.0279  0.6328
 2580SOL    HW210887   5.952   5.606   0.785  0.0127  2.1816 -0.8730
 2581SOL     OW10888   7.685   1.039   7.992  0.0620 -0.6329  0.1356
 2581SOL    HW110889   7.775   1.005   7.989  0.1513 -0.7481  2.2708
 2581SOL    HW210890   7.648   1.000   8.071 -0.7326  2.0483  1.1990
 2582SOL     OW10891   3.084   4.832   3.577 -0.4401 -0.3023  0.7002
 2582SOL    HW110892   2.999   4.832   3.531 -0.2069  1.4773  0.2155
 2582SOL    HW210893   3.075   4.900   3.643  0.9180  0.5658  0.0206
 2583SOL     OW10894   6.656   6.097   5.188  0.4334  0.5687  0.3754
 2583SOL    HW110895   6.607   6.084   5.107  0.8685  0.5357  0.1135
 2583SOL    HW210896   6.606   6.049   5.254  1.9801 -2.5499 -0.5584
 2584SOL     OW10897   6.344   4.212   7.821 -0.0549 -0.0046 -0.4584
 2584SOL    HW110898   6.424   4.243   7.777  1.0245 -2.4603 -0.3714
 2584SOL    HW210899   6.326   4.280   7.886  2.6751  0.0945  0.3292
 2585SOL     OW10900   1.454   6.707   7.944 -0.5224  0.0432 -0.2599
 2585SOL    HW110901   1.520   6.747   7.887 -0.4564  1.8758  1.0139
 2585SOL    HW210902   1.391   6.668   7.883  0.3815  0.5057 -1.5438
 2586SOL     OW10903   2.139   3.373   3.837 -0.4302  0.0798  0.4101
 2586SOL    HW110904   2.081   3.416   3.774 -0.4040 -0.2884  0.1339
 2586SOL    HW210905   2.094   3.292   3.860  0.1424 -0.3815 -0.0830
 2587SOL     OW10906   0.203   1.604   6.809  0.2015  0.2105  0.7317
 2587SOL    HW110907   0.187   1.584   6.717  1.0646 -0.2125  0.6624
 2587SOL    HW210908   0.271   1.672   6.807  0.0581  0.3656  1.0473
 2588SOL     OW10909   2.795   8.062   7.910 -0.2443 -0.7813 -0.0990
 2588SOL    HW110910   2.758   8.073   7.823 -0.4427 -0.0837  0.0675
 2588SOL    HW210911   2.819   8.150   7.938  2.0514 -1.2579 -0.4004
 2589SOL     OW10912   2.938   6.761   2.430  0.4517 -0.1759  0.3311
 2589SOL    HW110913   3.017   6.740   2.380 -0.4156 -1.3080 -0.6295
 2589SOL    HW210914   2.945   6.708   2.509 -0.6035 -2.5285 -1.0209
 2590SOL     OW10915   5.439   1.886   7.528  0.0859  0.4377  0.5410
 2590SOL    HW110916   5.503   1.854   7.465 -0.5984 -0.2941  0.1941
 2590SOL    HW210917   5.487   1.948   7.583  1.3928 -0.9532  1.0319
 2591SOL     OW10918   5.655   0.511   0.509 -0.4940  0.1682 -0.1227
 2591SOL    HW110919   5.694   0.501   0.596  0.0830  0.6949 -0.3084
 2591SOL    HW210920   5.667   0.426   0.468 -0.6474 -0.0435  0.2603
 2592SOL     OW10921   1.993   2.455   6.856  0.0755  0.1890  0.2289
 2592SOL    HW110922   1.929   2.387   6.837 -0.4441  0.8989 -0.6683
 2592SOL    HW210923   1.987   2.515   6.782 -1.4345  2.6748  2.1841
 2593SOL     OW10924   8.012   5.860   7.112  0.6347 -0.0014 -0.5592
 2593SOL    HW110925   8.022   5.782   7.166  0.8228  0.0431 -0.5287
 2593SOL    HW210926   8.029   5.830   7.023  0.8078  0.0243 -0.5354
 2594SOL     OW10927   4.609   1.210   5.005  0.0056 -0.4948  0.7209
 2594SOL    HW110928   4.593   1.299   4.975  0.8516 -0.7310 -0.5431
 2594SOL    HW210929   4.550   1.198   5.079 -1.8381  0.3202 -0.5420
 2595SOL     OW10930   6.046   7.171   3.244 -0.1960 -0.3263 -0.0757
 2595SOL    HW110931   6.132   7.202   3.217 -0.2767  0.3250  0.3841
 2595SOL    HW210932   5.984   7.233   3.205 -0.3411  0.2941  1.0922
 2596SOL     OW10933   0.059   5.092   6.378  0.1366  0.0012 -0.2673
 2596SOL    HW110934   0.073   5.002   6.409 -1.1518 -0.0526  0.2137
 2596SOL    HW210935   0.131   5.142   6.415  0.3077 -0.6458  0.2839
 2597SOL     OW10936   4.074   0.127   1.178 -0.1605 -0.0612  0.4418
 2597SOL    HW110937   4.029   0.169   1.104 -0.8717  0.0891  0.9422
 2597SOL    HW210938   4.006   0.072   1.218  0.3565 -0.5304  0.6823
 2598SOL     OW10939   2.436   6.096   3.457 -0.1963  0.5175  0.2052
 2598SOL    HW110940   2.456   6.160   3.526 -1.5724  1.0961  0.0961
 2598SOL    HW210941   2.429   6.013   3.503  0.2294  0.6704  0.5574
 2599SOL     OW10942   1.815   1.655   7.162  0.3378 -0.0481 -0.0798
 2599SOL    HW110943   1.769   1.580   7.122  1.1744 -0.8166  0.3455
 2599SOL    HW210944   1.860   1.617   7.237  0.3312  1.0131  0.4641
 2600SOL     OW10945   7.685   0.438   6.056  0.0147 -1.2097 -0.5630
 2600SOL    HW110946   7.744   0.385   6.109 -1.7209 -1.2872  1.4109
 2600SOL    HW210947   7.737   0.461   5.979  2.0695 -2.5641  0.3178
 2601SOL     OW10948   6.554   2.272   0.276 -0.3231 -0.5837 -0.1676
 2601SOL    HW110949   6.470   2.270   0.231 -0.8887  1.5176  0.6871
 2601SOL    HW210950   6.553   2.353   0.327  2.1350 -0.6031  0.0561
 2602SOL     OW10951   4.806   0.160   0.296 -0.1758  0.5665 -0.0234
 2602SOL    HW110952   4.892   0.138   0.333 -0.2715  0.3422  0.0728
 2602SOL    HW210953   4.757   0.078   0.302  0.9525 -0.5889 -4.0352
 2603SOL     OW10954   0.299   1.457   4.231  0.3795  0.1179 -0.2908
 2603SOL    HW110955   0.213   1.420   4.250 -0.4670  2.9762  2.0704
 2603SOL    HW210956   0.290   1.499   4.146 -0.1129 -0.7458 -0.6744
 2604SOL     OW10957   4.785   1.050   1.631 -0.2458 -0.0727 -0.3235
 2604SOL    HW110958   4.835   1.118   1.675 -0.0489 -0.4315  0.0145
 2604SOL    HW210959   4.788   1.074   1.538  1.9318 -0.9146 -0.5424
 2605SOL     OW10960   4.853   7.313   3.612 -0.1299  0.0929  0.2454
 2605SOL    HW110961   4.875   7.229   3.571 -2.4135  0.3498 -1.7286
 2605SOL    HW210962   4.938   7.353   3.631  1.0694 -1.2571 -1.7980
 2606SOL     OW10963   4.283   5.156   3.093  0.2577 -0.0267 -0.2240
 2606SOL    HW110964   4.263   5.159   3.186  1.0926 -2.4389  0.1052
 2606SOL    HW210965   4.202   5.126   3.052  0.2985 -0.3530 -0.0741
 2607SOL     OW10966   1.857   0.187   2.314 -0.3751 -0.5755  0.5995
 2607SOL    HW110967   1.827   0.262   2.263 -1.1811  1.6352  3.9854
 2607SOL    HW210968   1.940   0.163   2.273 -0.2899  1.9132 -0.9347
 2608SOL     OW10969   7.480   7.766   3.169 -0.2434  0.1170  0.2108
 2608SOL    HW110970   7.470   7.682   3.213  1.9154  0.4513  1.4380
 2608SOL    HW210971   7.412   7.765   3.101 -0.5411 -2.4227  0.4432
 2609SOL     OW10972   0.546   0.979   1.102  0.5084 -0.2864  0.4981
 2609SOL    HW110973   0.492   0.900   1.092  1.7151 -1.0923  0.1838
 2609SOL    HW210974   0.495   1.048   1.060 -1.2487 -0.5617  2.0459
 2610SOL     OW10975   2.682   3.500   3.261  0.2851  0.1789 -0.1238
 2610SOL    HW110976   2.732   3.430   3.303 -1.0007 -1.7809 -1.6549
 2610SOL    HW210977   2.600   3.503   3.310  0.0098  0.0317 -0.5735
 2611SOL     OW10978   5.186   3.452   5.479  0.4791 -0.5052 -0.0704
 2611SOL    HW110979   5.134   3.415   5.408 -0.7022  1.8293 -0.5207
 2611SOL    HW210980   5.149   3.414   5.558 -0.6824 -0.3406 -0.5112
 2612SOL     OW10981   4.812   6.383   1.474  0.0178 -0.1737  0.3937
 2612SOL    HW110982   4.759   6.415   1.546  2.1397  2.9753  0.7504
 2612SOL    HW210983   4.896   6.361   1.514  0.2848 -1.2277 -0.6999
 2613SOL     OW10984   1.115   7.664   3.973 -0.2947  0.3335 -0.0829
 2613SOL    HW110985   1.019   7.661   3.965 -0.4157  0.8435  1.0202
 2613SOL    HW210986   1.136   7.594   4.035 -0.1327  1.2873  0.9795
 2614SOL     OW10987   2.304   4.174   3.677  0.1029  0.0547 -0.3255
 2614SOL    HW110988   2.340   4.122   3.606  1.3298  1.4888 -0.8091
 2614SOL    HW210989   2.374   4.178   3.743  0.5297  2.0394 -0.8299
 2615SOL     OW10990   7.010   2.337   2.107  0.3445 -0.1160  0.2675
 2615SOL    HW110991   7.039   2.267   2.048  1.4945 -0.7810  1.5697
 2615SOL    HW210992   7.080   2.345   2.172 -0.6686  0.9075  1.2881
 2616SOL     OW10993   4.875   0.814   5.640 -0.0856  0.3003  0.0340
 2616SOL    HW110994   4.833   0.759   5.706 -1.5870 -1.5413 -2.2588
 2616SOL    HW210995   4.857   0.904   5.668 -1.0966 -0.4060  1.8251
 2617SOL     OW10996   5.890   7.631   0.951  0.0781 -0.2622 -0.3781
 2617SOL    HW110997   5.842   7.646   1.032  0.4640 -2.9467  0.4315
 2617SOL    HW210998   5.917   7.539   0.955  2.0997  0.1372 -2.4967
 2618SOL     OW10999   2.991   5.873   4.893 -0.4736  0.2875 -0.1295
 2618SOL    HW111000   2.992   5.785   4.930  1.9150  0.2100 -0.1996
 2618SOL    HW211001   2.967   5.860   4.801  1.0738 -0.5184 -0.4668
 2619SOL     OW11002   1.418   3.981   7.952  0.2071 -0.3520 -0.0885
 2619SOL    HW111003   1.477   3.970   7.878  2.8661  0.4406  1.7528
 2619SOL    HW211004   1.372   4.063   7.935  0.6995 -0.2452 -0.9244
 2620SOL     OW11005   0.314   2.598   3.744  0.3048 -0.3076 -0.0400
 2620SOL    HW111006   0.368   2.572   3.669  1.0205  1.1028 -0.0424
 2620SOL    HW211007   0.336   2.690   3.759 -2.5477  0.5359 -0.4441
 2621SOL     OW11008   7.722   2.653   0.053  1.1075 -0.0794 -0.1731
 2621SOL    HW111009   7.697   2.692   0.137 -0.6636 -0.3687 -0.5281
 2621SOL    HW211010   7.782   2.716   0.014  2.2090 -0.0841  1.4260
 2622SOL     OW11011   1.752   2.070   2.246  0.1669 -0.2562 -0.6311
 2622SOL    HW111012   1.709   2.153   2.228 -0.4184 -0.6556 -1.1355
 2622SOL    HW211013   1.681   2.013   2.277  0.5933 -0.5169 -0.1183
 2623SOL     OW11014   2.302   5.210   4.138  0.0941  0.6577  0.3153
 2623SOL    HW111015   2.307   5.218   4.234 -1.6360 -1.7331  0.7040
 2623SOL    HW211016   2.220   5.253   4.115  0.0250  0.3776  0.0386
 2624SOL     OW11017   4.032   3.161   5.766 -0.4193  0.1141  0.2638
 2624SOL    HW111018   3.975   3.233   5.794 -0.3491  0.6484 -0.8879
 2624SOL    HW211019   4.114   3.175   5.813 -0.4447  0.7462  0.1362
 2625SOL     OW11020   7.060   2.909   6.679  0.0927  0.2668  0.2290
 2625SOL    HW111021   7.107   2.826   6.677  0.8789  0.7128 -0.1683
 2625SOL    HW211022   7.066   2.942   6.589 -1.6372 -0.0206 -0.0279
 2626SOL     OW11023   3.844   2.942   4.700 -0.1662  0.4791  0.1786
 2626SOL    HW111024   3.909   2.948   4.630  1.5165  0.5622  1.7096
 2626SOL    HW211025   3.838   3.030   4.735 -2.1788  0.8001 -0.8268
 2627SOL     OW11026   7.080   7.251   6.352  0.3016 -0.1561  0.6465
 2627SOL    HW111027   7.166   7.293   6.346  0.0113  0.5207  1.0372
 2627SOL    HW211028   7.053   7.264   6.443  1.1058 -3.0643  1.3897
 2628SOL     OW11029   4.688   3.040   8.072 -0.1902 -0.5887 -0.2341
 2628SOL    HW111030   4.698   2.975   8.002  1.4899 -0.9823  0.3098
 2628SOL    HW211031   4.744   3.113   8.046 -0.2638 -0.3479  0.2616
 2629SOL     OW11032   0.882   7.591   2.916  0.2379  0.1579 -0.6493
 2629SOL    HW111033   0.793   7.573   2.946 -0.1271  0.9529 -1.2232
 2629SOL    HW211034   0.912   7.508   2.878  0.1112 -0.3917  0.4139
 2630SOL     OW11035   7.052   0.807   1.238 -0.1615  0.2544  0.9681
 2630SOL    HW111036   7.055   0.863   1.315  1.2452 -0.1470  1.2388
 2630SOL    HW211037   7.100   0.728   1.264  0.9615  0.3989 -0.5155
 2631SOL     OW11038   1.717   3.315   1.676 -0.0733  0.1679  0.2589
 2631SOL    HW111039   1.679   3.274   1.598 -0.3862  1.2848 -0.2027
 2631SOL    HW211040   1.641   3.340   1.729  0.1540 -1.2084  1.2833
 2632SOL     OW11041   0.995   5.978   6.745  0.0558  0.2811  0.4556
 2632SOL    HW111042   1.024   6.034   6.673 -1.2844  0.5920  0.1355
 2632SOL    HW211043   0.990   6.038   6.820  1.6661 -0.0866  0.9033
 2633SOL     OW11044   6.016   2.741   1.252  0.6274 -0.0023 -0.0966
 2633SOL    HW111045   6.081   2.730   1.183  0.1605 -1.1801 -0.3870
 2633SOL    HW211046   5.935   2.763   1.206  0.3545 -0.6184  0.0735
 2634SOL     OW11047   0.307   2.997   0.743  0.4064 -0.2196  0.6459
 2634SOL    HW111048   0.348   2.952   0.669 -0.7772 -0.1173 -0.1007
 2634SOL    HW211049   0.348   2.959   0.820  0.4580 -1.5528 -0.0168
 2635SOL     OW11050   6.679   1.580   5.605 -0.1402 -0.1666  0.1302
 2635SOL    HW111051   6.611   1.644   5.629 -1.3808 -1.8676  1.3871
 2635SOL    HW211052   6.681   1.519   5.679  2.6420 -0.3263  0.0318
 2636SOL     OW11053   2.192   5.871   3.034 -0.2947 -0.2968  0.4132
 2636SOL    HW111054   2.150   5.884   3.119  1.1716  1.9006  0.8763
 2636SOL    HW211055   2.243   5.791   3.045  0.9379  0.6683  2.0959
 2637SOL     OW11056   2.369   0.544   4.262  0.1539  0.1157 -0.4482
 2637SOL    HW111057   2.285   0.510   4.229 -0.2262  0.0218  0.5784
 2637SOL    HW211058   2.355   0.556   4.356  0.7234  1.7970 -0.5355
 2638SOL     OW11059   7.744   2.379   2.375  0.2847  0.0571 -0.0883
 2638SOL    HW111060   7.711   2.309   2.319  0.4641  0.3834 -0.6074
 2638SOL    HW211061   7.667   2.408   2.424  0.3851 -1.1077  0.8163
 2639SOL     OW11062   0.773   4.662   7.040  0.3929 -0.4011 -0.7448
 2639SOL    HW111063   0.818   4.602   6.981 -0.5018 -0.8275 -1.0106
 2639SOL    HW211064   0.747   4.608   7.114  1.0742  0.0279 -0.1863
 2640SOL     OW11065   3.102   6.273   4.492 -0.5566 -0.1118  0.1154
 2640SOL    HW111066   3.153   6.235   4.563  0.1151  0.1031 -0.2449
 2640SOL    HW211067   3.086   6.200   4.432  0.2938  0.0585 -0.3235
 2641SOL     OW11068   7.117   4.374   2.097 -0.1756  0.3353  0.5085
 2641SOL    HW111069   7.044   4.435   2.111 -0.5343 -0.1685  0.8413
 2641SOL    HW211070   7.077   4.298   2.055 -0.1757 -0.6816  2.2531
 2642SOL     OW11071   5.630   3.286   5.343  0.1888 -0.3119 -0.1911
 2642SOL    HW111072   5.636   3.206   5.395  2.9099 -0.1370 -0.1232
 2642SOL    HW211073   5.608   3.354   5.407  1.9906 -0.3620  0.5429
 2643SOL     OW11074   3.397   2.931   4.522 -0.4419  0.4659  0.5736
 2643SOL    HW111075   3.402   2.844   4.482  1.4636  0.1260  1.4177
 2643SOL    HW211076   3.405   2.915   4.616 -1.6166  1.4692  0.8663
 2644SOL     OW11077   7.203   1.775   6.367  0.7730 -0.3524 -0.5660
 2644SOL    HW111078   7.208   1.814   6.454  3.1250 -0.8855 -0.3972
 2644SOL    HW211079   7.161   1.843   6.313  1.7139  1.0814  0.4246
 2645SOL     OW11080   3.453   6.407   6.099 -0.0844 -0.3539 -0.5823
 2645SOL    HW111081   3.445   6.482   6.158  0.3583  0.9981 -2.1476
 2645SOL    HW211082   3.368   6.399   6.057  0.1503 -0.1193 -1.1082
 2646SOL     OW11083   0.530   7.502   0.082  0.5083 -0.7475 -0.0089
 2646SOL    HW111084   0.625   7.518   0.076  0.2752  0.5653 -0.5849
 2646SOL    HW211085   0.518   7.414   0.047  1.5503 -1.0629  0.3899
 2647SOL     OW11086   8.066   6.176   7.580 -0.1481 -0.2153 -0.1434
 2647SOL    HW111087   8.065   6.132   7.495 -2.5854  0.7970 -0.7226
 2647SOL    HW211088   7.995   6.134   7.629 -0.9669  1.4303  0.1407
 2648SOL     OW11089   6.968   5.566   4.212 -0.4473  0.3638  0.5345
 2648SOL    HW111090   6.885   5.615   4.214  0.5923  2.1741  2.3308
 2648SOL    HW211091   6.944   5.480   4.176 -2.9875  0.9993  0.5217
 2649SOL     OW11092   0.337   5.917   2.101  0.2680 -0.3242 -0.5337
 2649SOL    HW111093   0.399   5.845   2.112 -1.3670 -1.5559  1.4248
 2649SOL    HW211094   0.387   5.985   2.056  2.3729 -2.0391 -0.9683
 2650SOL     OW11095   3.461   5.156   5.644  0.7357  0.0884 -0.0075
 2650SOL    HW111096   3.428   5.117   5.563  1.0960  2.8740 -1.6166
 2650SOL    HW211097   3.384   5.165   5.700  0.2704 -0.7246 -0.4934
 2651SOL     OW11098   7.869   7.624   5.849  0.3965  0.1157 -0.8560
 2651SOL    HW111099   7.774   7.616   5.856  0.1967  0.6657 -2.5451
 2651SOL    HW211100   7.903   7.565   5.916 -1.1171 -3.1854 -2.7449
 2652SOL     OW11101   3.084   4.860   6.307  0.1467 -0.1760  0.1845
 2652SOL    HW111102   2.995   4.864   6.272 -0.3059  0.2172  1.3515
 2652SOL    HW211103   3.132   4.925   6.256 -0.9610  1.7764  1.4780
 2653SOL     OW11104   5.454   2.626   7.553 -0.5004  1.1070  0.6198
 2653SOL    HW111105   5.469   2.547   7.605  0.2538 -0.3561 -1.6607
 2653SOL    HW211106   5.389   2.600   7.488 -0.3652  2.4149 -0.0726
 2654SOL     OW11107   5.447   3.317   0.327  0.1336 -0.1720  0.2344
 2654SOL    HW111108   5.450   3.382   0.397 -1.8278 -0.1638  0.3570
 2654SOL    HW211109   5.484   3.238   0.367  1.9432  0.6307  0.2712
 2655SOL     OW11110   1.161   4.836   1.906 -0.1625  0.0744  0.4470
 2655SOL    HW111111   1.208   4.841   1.989 -0.6729  0.8388  0.7022
 2655SOL    HW211112   1.227   4.808   1.842  0.8082  1.7045  0.6735
 2656SOL     OW11113   2.453   0.696   7.787 -0.1348  0.4385  0.4955
 2656SOL    HW111114   2.406   0.695   7.704 -1.4446 -0.0147  1.2137
 2656SOL    HW211115   2.545   0.688   7.762 -0.5558 -0.6286 -0.8839
 2657SOL     OW11116   4.513   5.137   6.761 -0.4530 -0.0611  0.6581
 2657SOL    HW111117   4.441   5.079   6.785 -0.4336 -0.5453 -0.4254
 2657SOL    HW211118   4.497   5.161   6.670  1.3738 -1.1569 -0.0110
 2658SOL     OW11119   6.614   4.741   6.576  0.2132  0.4447  0.2863
 2658SOL    HW111120   6.597   4.831   6.547 -0.7742  0.1780 -0.0177
 2658SOL    HW211121   6.558   4.729   6.653 -0.5461 -0.2659 -0.3580
 2659SOL     OW11122   1.468   4.586   5.961  0.3999  0.9496 -0.3418
 2659SOL    HW111123   1.381   4.545   5.961 -0.4170  2.5556  0.8275
 2659SOL    HW211124   1.487   4.602   5.869  0.4601 -1.3297 -0.7973
 2660SOL     OW11125   2.798   1.968   2.783  0.0886  0.2875 -0.2311
 2660SOL    HW111126   2.775   1.982   2.874 -0.7341  1.3664 -0.5814
 2660SOL    HW211127   2.892   1.987   2.778  0.2324 -0.2271  0.4663
 2661SOL     OW11128   2.288   5.116   8.051 -0.6954  0.2911  0.1756
 2661SOL    HW111129   2.194   5.099   8.056 -1.2460  1.7244 -2.9082
 2661SOL    HW211130   2.325   5.037   8.014 -0.6477 -0.2721  1.3833
 2662SOL     OW11131   5.691   6.711   2.316  0.1160  0.0545 -0.2672
 2662SOL    HW111132   5.712   6.641   2.378  0.7512  0.4878  0.0123
 2662SOL    HW211133   5.626   6.764   2.362  1.0674  0.7508  0.3123
 2663SOL     OW11134   5.140   5.284   2.901  0.2628 -0.0037  0.0770
 2663SOL    HW111135   5.228   5.258   2.873  0.1881  0.8407 -1.0058
 2663SOL    HW211136   5.096   5.312   2.821 -1.5923 -2.0078  0.2947
 2664SOL     OW11137   4.601   7.367   3.472  0.2139  0.4526 -0.0987
 2664SOL    HW111138   4.678   7.420   3.494  1.2051 -0.8578 -0.2832
 2664SOL    HW211139   4.629   7.312   3.399 -1.1685  0.5035 -0.7003
 2665SOL     OW11140   4.860   2.232   5.443 -0.1546 -0.1221 -0.1972
 2665SOL    HW111141   4.883   2.153   5.492  1.3982 -0.0184 -0.7127
 2665SOL    HW211142   4.932   2.244   5.381 -1.1082  0.8639 -1.1609
 2666SOL     OW11143   7.000   7.957   2.010  0.0798  0.5628 -0.0864
 2666SOL    HW111144   7.029   7.896   2.078 -0.9181  0.8618  0.6416
 2666SOL    HW211145   7.043   8.040   2.032  2.7926 -0.2085 -2.0488
 2667SOL     OW11146   6.064   3.548   1.736 -0.4171 -0.2364 -0.5418
 2667SOL    HW111147   6.060   3.471   1.793 -0.6626  0.7024  0.7531
 2667SOL    HW211148   5.975   3.557   1.702 -0.8030  0.3936  0.5902
 2668SOL     OW11149   8.045   6.931   6.979  0.0335 -0.0215 -0.0768
 2668SOL    HW111150   8.029   6.904   6.889  1.4470 -0.6915 -0.1413
 2668SOL    HW211151   7.971   6.989   6.999 -1.1818 -1.1458 -1.1025
 2669SOL     OW11152   1.326   5.650   0.067 -0.1816 -0.3674  0.4567
 2669SOL    HW111153   1.302   5.684   0.153  1.8945 -0.1115  0.9972
 2669SOL    HW211154   1.268   5.575   0.054 -1.6829  0.6041  1.3074
 2670SOL     OW11155   2.728   2.775   2.012 -0.3415  0.2070 -0.5673
 2670SOL    HW111156   2.718   2.720   1.934  0.3862  0.1908 -0.6567
 2670SOL    HW211157   2.699   2.862   1.985  0.7287  0.4071 -1.1216
 2671SOL     OW11158   3.505   7.740   6.448 -0.3899  0.7594  0.6001
 2671SOL    HW111159   3.555   7.669   6.489  0.4022  1.6843  1.2774
 2671SOL    HW211160   3.439   7.763   6.513  0.9544  2.3206  1.4938
 2672SOL     OW11161   5.588   1.642   6.056  0.5618 -0.3202  0.2303
 2672SOL    HW111162   5.508   1.594   6.076  0.7147 -0.1718  1.2429
 2672SOL    HW211163   5.657   1.576   6.055  0.8877 -0.0811  2.3216
 2673SOL     OW11164   5.424   7.815   4.180  0.1150  0.0997  0.0714
 2673SOL    HW111165   5.360   7.872   4.138 -0.0780 -0.3840 -0.3094
 2673SOL    HW211166   5.493   7.873   4.210 -0.1038  0.5338 -0.2647
 2674SOL     OW11167   7.797   1.695   5.301 -0.3277 -0.6455 -0.3352
 2674SOL    HW111168   7.761   1.696   5.212  0.3362  0.1405 -0.6009
 2674SOL    HW211169   7.887   1.664   5.290 -0.0848 -0.0612 -0.0002
 2675SOL     OW11170   3.959   5.994   3.452  0.0386 -0.0334 -0.1392
 2675SOL    HW111171   3.955   6.042   3.534  1.4221  0.4893 -0.3422
 2675SOL    HW211172   3.909   6.048   3.390 -1.0487 -0.4571  0.3624
 2676SOL     OW11173   1.663   3.304   0.209 -0.6747  0.0092 -0.1622
 2676SOL    HW111174   1.645   3.219   0.168  1.3775 -1.0218  0.8901
 2676SOL    HW211175   1.758   3.304   0.222 -0.9864  0.9981  2.9359
 2677SOL     OW11176   5.965   1.456   4.272  0.5425  0.5934 -0.1137
 2677SOL    HW111177   5.964   1.453   4.368  0.1546  0.7160 -0.1124
 2677SOL    HW211178   6.040   1.402   4.248 -0.8027 -1.5579  0.2068
 2678SOL     OW11179   3.183   2.322   4.032  0.1286 -0.3861 -0.1466
 2678SOL    HW111180   3.118   2.382   3.997 -0.2722 -1.0994 -0.6645
 2678SOL    HW211181   3.223   2.282   3.954  1.1689  0.0178  0.1633
 2679SOL     OW11182   1.813   4.656   3.325  0.7500  0.2060 -0.4753
 2679SOL    HW111183   1.846   4.746   3.325  0.1981  0.4101 -0.7298
 2679SOL    HW211184   1.725   4.662   3.362  1.0566 -0.3627  0.3643
 2680SOL     OW11185   5.596   7.765   6.919  0.2676  0.0739  0.5278
 2680SOL    HW111186   5.573   7.838   6.977  0.8501  0.3888  0.3668
 2680SOL    HW211187   5.590   7.688   6.975  3.4009  0.5969  1.7746
 2681SOL     OW11188   4.688   1.061   3.084  0.3591 -0.3683 -0.2581
 2681SOL    HW111189   4.621   1.043   3.150  0.2374  0.4584 -0.1389
 2681SOL    HW211190   4.765   1.087   3.135  0.0827  0.8742 -0.4363
 2682SOL     OW11191   7.100   3.264   3.637  0.7707  0.0821  0.2379
 2682SOL    HW111192   7.133   3.265   3.547  0.2704 -0.5495  0.0363
 2682SOL    HW211193   7.091   3.171   3.658  2.1087  0.1944  1.4198
 2683SOL     OW11194   3.702   0.578   6.775  0.1413  0.2378 -0.6141
 2683SOL    HW111195   3.770   0.514   6.755  0.1409 -0.2215  0.7190
 2683SOL    HW211196   3.625   0.524   6.796  0.2102  0.6354  0.7631
 2684SOL     OW11197   0.640   3.324   1.146  0.6864  0.2155  0.4870
 2684SOL    HW111198   0.683   3.409   1.134  0.4632  0.3905  0.8872
 2684SOL    HW211199   0.577   3.320   1.074  1.5681 -0.1799 -0.2802
 2685SOL     OW11200   4.590   0.831   5.551  0.4145 -0.4908 -0.5088
 2685SOL    HW111201   4.618   0.807   5.462  0.8771  1.2565 -0.8719
 2685SOL    HW211202   4.647   0.779   5.608  2.0797  0.4231 -1.2597
 2686SOL     OW11203   3.519   2.662   1.661 -0.3066  0.5263  0.2967
 2686SOL    HW111204   3.468   2.728   1.614 -0.0013  0.5980  0.0622
 2686SOL    HW211205   3.467   2.582   1.655 -1.0393  0.9124  1.2159
 2687SOL     OW11206   2.493   5.748   6.149  0.1856 -0.1124  0.0193
 2687SOL    HW111207   2.531   5.668   6.186 -0.6318 -1.9758 -2.8248
 2687SOL    HW211208   2.490   5.732   6.055 -2.1524  2.3546 -0.4642
 2688SOL     OW11209   2.386   6.303   4.361 -0.8839 -0.1433 -0.1774
 2688SOL    HW111210   2.381   6.211   4.337  0.3483 -0.1845 -0.3661
 2688SOL    HW211211   2.295   6.330   4.372 -1.3251 -1.0248 -1.4427
 2689SOL     OW11212   7.911   1.922   6.608  0.6449  0.1946  0.0351
 2689SOL    HW111213   7.954   1.847   6.650 -2.4951 -1.3432  0.7430
 2689SOL    HW211214   7.843   1.948   6.670 -0.1767  1.8201 -1.4714
 2690SOL     OW11215   2.989   1.366   7.204 -0.0802  0.0070 -0.0383
 2690SOL    HW111216   3.025   1.430   7.143  0.4645 -0.5242 -0.2759
 2690SOL    HW211217   3.048   1.291   7.199  0.0677  0.0225  1.2747
 2691SOL     OW11218   3.009   3.072   5.206 -0.1573  0.1971 -0.4229
 2691SOL    HW111219   3.094   3.114   5.190  0.7093 -1.4845 -0.5039
 2691SOL    HW211220   2.963   3.078   5.122  0.6883 -0.5878 -0.9566
 2692SOL     OW11221   5.495   4.322   6.495 -0.5527 -0.3622 -0.2245
 2692SOL    HW111222   5.437   4.304   6.569 -0.7824 -1.0250 -0.5518
 2692SOL    HW211223   5.495   4.417   6.487 -0.5418 -0.2813  0.6070
 2693SOL     OW11224   4.596   1.814   6.732  0.2004  0.5002 -0.2079
 2693SOL    HW111225   4.683   1.808   6.771  0.2376 -0.1299 -0.3717
 2693SOL    HW211226   4.559   1.727   6.743 -0.8143  1.0318  0.7662
 2694SOL     OW11227   0.848   3.774   2.193  0.1586 -0.1324  0.1695
 2694SOL    HW111228   0.880   3.696   2.237 -0.8710 -0.7517 -0.1446
 2694SOL    HW211229   0.795   3.741   2.120 -1.2259  0.8209  0.6885
 2695SOL     OW11230   6.045   7.535   0.005 -0.2499 -0.2986  0.1544
 2695SOL    HW111231   6.003   7.543  -0.081 -0.1166 -1.1055  0.0079
 2695SOL    HW211232   6.132   7.572  -0.008 -0.0374 -0.9121 -0.2088
 2696SOL     OW11233   0.678   2.695   6.170  0.2736  0.3478  0.2867
 2696SOL    HW111234   0.740   2.639   6.215  0.4301  0.2996  0.0149
 2696SOL    HW211235   0.592   2.665   6.201  0.3377 -0.2678 -0.1087
 2697SOL     OW11236   6.710   4.506   6.700  0.0777  0.2796  0.0024
 2697SOL    HW111237   6.702   4.592   6.659 -1.9804  0.1002 -0.0857
 2697SOL    HW211238   6.630   4.497   6.753  0.5164 -1.3424  0.4545
 2698SOL     OW11239   5.761   0.424   2.679 -1.4922 -0.3101  0.4887
 2698SOL    HW111240   5.735   0.512   2.709 -0.3444  0.7013 -1.3018
 2698SOL    HW211241   5.831   0.440   2.617 -1.5545 -2.5131 -0.2266
 2699SOL     OW11242   1.776   4.515   3.575  0.0167  0.7684 -0.3646
 2699SOL    HW111243   1.814   4.427   3.568  0.5936  0.9934 -0.1271
 2699SOL    HW211244   1.720   4.523   3.498  0.9662  0.6657 -1.0945
 2700SOL     OW11245   4.296   7.726   2.255  0.1975  0.1488  0.1588
 2700SOL    HW111246   4.268   7.802   2.306  0.8632  1.4819 -1.3622
 2700SOL    HW211247   4.233   7.658   2.277 -1.6739  1.7442  0.0709
 2701SOL     OW11248   5.531   6.095   7.706 -0.1297 -0.4716 -0.0193
 2701SOL    HW111249   5.531   6.112   7.612 -0.4684  0.4772  0.1379
 2701SOL    HW211250   5.537   6.182   7.746 -0.8566 -0.8004  0.8405
 2702SOL     OW11251   5.643   7.319   0.183 -0.3594 -0.1455  0.5469
 2702SOL    HW111252   5.627   7.397   0.130 -1.6272  0.0326  1.1492
 2702SOL    HW211253   5.688   7.258   0.124  0.5238  0.9748  0.0289
 2703SOL     OW11254   0.213   6.049   1.823  0.2040 -0.5375  0.4165
 2703SOL    HW111255   0.210   6.125   1.766  1.0228 -2.1577 -1.9482
 2703SOL    HW211256   0.121   6.029   1.842 -0.1429 -0.4301 -1.0567
 2704SOL     OW11257   7.186   4.104   3.715 -0.5412 -0.3838 -0.7851
 2704SOL    HW111258   7.160   4.029   3.662 -0.7807 -0.5327 -0.4605
 2704SOL    HW211259   7.219   4.168   3.652 -0.1761 -0.8260 -1.0476
 2705SOL     OW11260   3.903   4.087   0.986  0.0905  0.2238 -0.4658
 2705SOL    HW111261   3.824   4.134   1.012 -0.8118 -1.1750 -0.5764
 2705SOL    HW211262   3.905   4.095   0.891 -0.5566 -0.6992 -0.5636
 2706SOL     OW11263   1.348   4.964   7.203 -0.5603 -0.1887  1.1336
 2706SOL    HW111264   1.268   4.988   7.156 -1.0784 -0.9745  1.5841
 2706SOL    HW211265   1.318   4.938   7.290  0.0659 -1.3643  1.0290
 2707SOL     OW11266   6.269   7.780   6.203  0.2411  0.2062 -0.4413
 2707SOL    HW111267   6.263   7.715   6.273 -2.2721  0.5102 -0.2805
 2707SOL    HW211268   6.348   7.830   6.224 -0.3683  0.2362  2.1937
 2708SOL     OW11269   3.849   1.742   6.244  0.6526 -0.1266  0.0509
 2708SOL    HW111270   3.753   1.741   6.244  0.6385  0.0932  0.8711
 2708SOL    HW211271   3.873   1.650   6.241  0.5138 -0.2347 -4.1689
 2709SOL     OW11272   3.989   4.541   6.435  0.3995  0.3032 -0.2469
 2709SOL    HW111273   4.082   4.528   6.420  0.4299  0.9993 -0.6933
 2709SOL    HW211274   3.984   4.604   6.507  0.2601 -1.0145  0.9258
 2710SOL     OW11275   0.496   7.246   0.006  0.4531  0.1740  0.0697
 2710SOL    HW111276   0.516   7.208   0.092 -0.0317  2.0581  1.0941
 2710SOL    HW211277   0.439   7.182  -0.036  0.5308 -0.7054  1.2475
 2711SOL     OW11278   6.347   1.882   6.068 -0.9768  0.5829  0.1043
 2711SOL    HW111279   6.392   1.802   6.093 -1.0676  0.3185 -0.5472
 2711SOL    HW211280   6.381   1.949   6.127 -0.0550  0.3003 -0.0915
 2712SOL     OW11281   3.670   0.581   0.485  0.0936  0.2383 -0.1222
 2712SOL    HW111282   3.746   0.522   0.493  0.4612  0.9044  2.0871
 2712SOL    HW211283   3.611   0.535   0.425  0.1208 -2.7127  1.8677
 2713SOL     OW11284   4.486   3.105   2.613  0.1306  0.1280 -0.4518
 2713SOL    HW111285   4.531   3.023   2.633  0.7975  0.0872 -2.0341
 2713SOL    HW211286   4.553   3.172   2.623 -0.5048  0.5694  1.2175
 2714SOL     OW11287   0.588   1.143   1.945 -0.1052  0.2703  0.3577
 2714SOL    HW111288   0.521   1.167   1.882 -0.9093  1.5421  1.6315
 2714SOL    HW211289   0.662   1.201   1.925 -0.3674  0.6883  0.5954
 2715SOL     OW11290   3.226   2.267   8.046 -0.5822  0.2342 -0.8002
 2715SOL    HW111291   3.201   2.339   7.988 -2.0704  0.1842 -0.2879
 2715SOL    HW211292   3.289   2.216   7.996 -0.7599  0.9828 -1.8201
 2716SOL     OW11293   5.336   0.861   4.166 -0.4405  0.0271  0.0678
 2716SOL    HW111294   5.367   0.876   4.255 -1.2892  0.9184  0.2267
 2716SOL    HW211295   5.382   0.926   4.113 -0.4592 -0.0401 -0.0307
 2717SOL     OW11296   8.065   2.973   1.060 -0.0834 -0.8096 -0.2852
 2717SOL    HW111297   8.091   3.021   0.981 -0.6865  1.2841  0.7273
 2717SOL    HW211298   8.143   2.975   1.116 -1.2424  2.7884  1.4766
 2718SOL     OW11299   0.859   2.310   3.103  0.2145  0.8518  0.4900
 2718SOL    HW111300   0.852   2.367   3.026 -0.0654 -1.3945 -1.2578
 2718SOL    HW211301   0.775   2.264   3.107  1.1695 -1.0207  0.4524
 2719SOL     OW11302   7.233   3.578   2.484  0.1169  0.0483  0.0176
 2719SOL    HW111303   7.229   3.623   2.400  0.6067  1.2923  0.6384
 2719SOL    HW211304   7.326   3.569   2.502  0.0138 -0.3426  0.3688
 2720SOL     OW11305   3.475   4.715   6.834  0.3575  0.0891 -0.0312
 2720SOL    HW111306   3.439   4.627   6.827  2.1980 -0.6221 -1.1226
 2720SOL    HW211307   3.407   4.764   6.881 -1.2106 -1.5917 -0.4066
 2721SOL     OW11308   7.656   0.997   5.779 -0.5755  0.0834  0.3078
 2721SOL    HW111309   7.728   0.966   5.725 -0.8155  0.2711 -0.1304
 2721SOL    HW211310   7.646   0.931   5.848  0.1047  0.1335  0.4555
 2722SOL     OW11311   0.017   6.816   5.509 -0.2260  0.3227 -0.2638
 2722SOL    HW111312  -0.078   6.823   5.508 -0.1978  0.6521 -1.1570
 2722SOL    HW211313   0.038   6.759   5.435  0.2433 -0.1384  0.2167
 2723SOL     OW11314   4.127   7.940   6.226 -0.6248 -0.3977 -0.0150
 2723SOL    HW111315   4.156   8.017   6.274  0.1525 -0.6254 -0.1011
 2723SOL    HW211316   4.129   7.869   6.291  0.5028 -0.7227 -0.3740
 2724SOL     OW11317   6.887   6.704   4.699 -0.0333 -0.2659 -0.0647
 2724SOL    HW111318   6.876   6.643   4.771  0.4065  0.0397  0.2742
 2724SOL    HW211319   6.980   6.728   4.703 -0.5900  2.0178  1.1396
 2725SOL     OW11320   2.707   5.203   1.016 -0.3531  0.4059  0.0537
 2725SOL    HW111321   2.735   5.155   1.093 -0.1162 -0.4826 -0.5711
 2725SOL    HW211322   2.771   5.180   0.948 -0.4548  1.3039 -0.3598
 2726SOL     OW11323   1.472   0.681   2.044  0.1380  0.1306  0.0274
 2726SOL    HW111324   1.506   0.762   2.007  4.5276 -0.9633  1.0369
 2726SOL    HW211325   1.505   0.612   1.986 -1.3004 -1.0967  0.5940
 2727SOL     OW11326   3.476   6.151   7.583 -0.3410 -0.4107 -0.0215
 2727SOL    HW111327   3.560   6.188   7.557  1.0497 -3.0504  0.3111
 2727SOL    HW211328   3.425   6.225   7.615  2.5262  1.0641  1.4545
 2728SOL     OW11329   5.793   2.831   4.819  0.6094  0.9427  0.0091
 2728SOL    HW111330   5.766   2.802   4.907  1.0514 -1.2102 -0.5052
 2728SOL    HW211331   5.786   2.753   4.765  2.2176  1.7374 -1.4582
 2729SOL     OW11332   7.028   0.502   5.166  0.2019 -0.3659  0.1029
 2729SOL    HW111333   7.094   0.568   5.143 -0.1231 -0.2564 -0.5225
 2729SOL    HW211334   6.947   0.551   5.176  0.0836 -0.5890  0.2383
 2730SOL     OW11335   0.966   1.724   7.302  0.2423  0.5070 -0.1195
 2730SOL    HW111336   0.959   1.641   7.255 -0.8395  0.9994 -0.8610
 2730SOL    HW211337   1.035   1.772   7.256 -1.9205  1.6678 -2.3730
 2731SOL     OW11338   3.388   0.313   0.939  0.5912  0.3577 -0.3585
 2731SOL    HW111339   3.323   0.326   1.009  1.4753  0.9964  0.3632
 2731SOL    HW211340   3.365   0.379   0.873  0.5611  0.6410 -0.0668
 2732SOL     OW11341   7.095   6.819   4.342 -0.1629  0.0423 -0.2434
 2732SOL    HW111342   7.104   6.849   4.432  1.4270 -1.6753  0.2516
 2732SOL    HW211343   7.034   6.880   4.302 -0.6649  1.0492  1.9014
 2733SOL     OW11344   6.537   0.109   7.552  0.2253 -0.0778 -0.1927
 2733SOL    HW111345   6.514   0.016   7.549 -1.8280  0.3131  1.1636
 2733SOL    HW211346   6.613   0.113   7.610  0.5851 -0.9304 -0.5794
 2734SOL     OW11347   3.973   0.534   2.829 -0.0569  0.3885 -0.0205
 2734SOL    HW111348   3.913   0.484   2.884  1.3735 -1.3168  0.1028
 2734SOL    HW211349   3.929   0.543   2.745 -0.9865  0.2988  0.4502
 2735SOL     OW11350   3.792   4.361   5.262  0.6426  0.2264  0.4043
 2735SOL    HW111351   3.788   4.267   5.245  2.6427  0.2750 -0.6251
 2735SOL    HW211352   3.877   4.375   5.304  0.7814  1.6686 -0.2690
 2736SOL     OW11353   4.906   6.441   5.840 -0.1313 -0.1640  1.1010
 2736SOL    HW111354   4.924   6.489   5.921  1.1103 -0.0766  0.7879
 2736SOL    HW211355   4.828   6.483   5.804  1.4306  2.2912  0.3569
 2737SOL     OW11356   3.145   4.744   2.541  0.0071  0.8576 -0.4635
 2737SOL    HW111357   3.051   4.742   2.555  0.2613  2.4040  2.0176
 2737SOL    HW211358   3.173   4.654   2.556 -1.0279  0.4129 -1.0913
 2738SOL     OW11359   1.983   3.825   5.687  0.2429  0.3535 -0.6543
 2738SOL    HW111360   1.955   3.747   5.639 -1.0229  1.0202 -1.0420
 2738SOL    HW211361   2.069   3.846   5.650  0.9530 -1.2633 -0.0253
 2739SOL     OW11362   1.453   3.014   6.509  0.1606  0.0122  0.0920
 2739SOL    HW111363   1.525   3.065   6.546  0.5142  0.7378 -1.4996
 2739SOL    HW211364   1.444   2.939   6.567  0.1304  1.4832  2.0956
 2740SOL     OW11365   7.052   5.581   0.464  0.5768  0.1907 -0.4746
 2740SOL    HW111366   7.081   5.518   0.530  1.3730  2.3983  1.4071
 2740SOL    HW211367   7.129   5.635   0.446 -0.2698  1.1510 -1.3975
 2741SOL     OW11368   0.149   5.264   4.376  0.2711 -0.2284  0.2391
 2741SOL    HW111369   0.057   5.288   4.373  0.5824  0.9298 -0.8085
 2741SOL    HW211370   0.149   5.169   4.391 -1.1286 -0.5836 -1.7376
 2742SOL     OW11371   2.663   1.562   7.043  0.4021  0.5148 -0.3312
 2742SOL    HW111372   2.744   1.563   6.992  0.8791  0.4046  0.3989
 2742SOL    HW211373   2.684   1.506   7.119 -0.1310  1.0429  0.2142
 2743SOL     OW11374   1.267   0.761   5.233 -0.0101 -0.6773 -0.6620
 2743SOL    HW111375   1.180   0.723   5.230 -0.7841  1.0290 -1.6487
 2743SOL    HW211376   1.272   0.815   5.153  1.7983 -0.4406 -0.4290
 2744SOL     OW11377   3.136   3.323   4.583  0.0634  0.3637  0.7244
 2744SOL    HW111378   3.148   3.242   4.535  0.8416  0.0203  1.4713
 2744SOL    HW211379   3.224   3.354   4.601 -0.1622  2.4364 -1.2380
 2745SOL     OW11380   3.703   7.121   3.410  0.3823 -0.8394 -0.2243
 2745SOL    HW111381   3.699   7.206   3.366  0.9948 -0.1691  0.9453
 2745SOL    HW211382   3.643   7.131   3.485  0.9169 -1.2280  0.2561
 2746SOL     OW11383   3.925   5.978   5.748 -0.4076  0.1193  0.8592
 2746SOL    HW111384   3.886   5.962   5.834 -1.4336 -0.1399  0.3635
 2746SOL    HW211385   3.859   6.029   5.700 -0.3709 -0.7682 -0.1816
 2747SOL     OW11386   2.378   8.038   0.390 -0.8440 -0.1912 -0.3362
 2747SOL    HW111387   2.329   8.115   0.421 -1.3184 -0.3938 -0.5795
 2747SOL    HW211388   2.446   8.026   0.455  0.5641  1.7110 -1.3571
 2748SOL     OW11389   5.813   4.211   1.721  0.3601  0.0519  0.4632
 2748SOL    HW111390   5.886   4.154   1.745  0.3430  0.1690  0.7989
 2748SOL    HW211391   5.801   4.197   1.627  1.2327  0.5147  0.2791
 2749SOL     OW11392   0.646   2.844   0.030 -0.2304  0.8892 -0.2067
 2749SOL    HW111393   0.676   2.888  -0.050  1.5952 -1.1886 -0.7626
 2749SOL    HW211394   0.715   2.780   0.050 -2.6716 -1.7412  0.5145
 2750SOL     OW11395   5.301   4.343   1.035 -0.3433  0.1960  0.1814
 2750SOL    HW111396   5.283   4.381   1.122 -2.1938 -0.7062  0.2493
 2750SOL    HW211397   5.332   4.255   1.053  0.0065  0.2693 -0.0592
 2751SOL     OW11398   3.419   3.385   1.038  0.7731  0.2123  0.4784
 2751SOL    HW111399   3.365   3.326   0.984  0.4519 -0.4567  1.5084
 2751SOL    HW211400   3.508   3.349   1.031  0.4115 -1.0657  1.9418
 2752SOL     OW11401   3.186   6.401   6.008  0.1155 -0.6129  0.3565
 2752SOL    HW111402   3.162   6.489   6.038  0.3430 -0.4372  0.0286
 2752SOL    HW211403   3.120   6.344   6.047 -0.3260 -0.2393  0.1664
 2753SOL     OW11404   3.874   4.025   6.731  0.0462  0.0378 -0.5747
 2753SOL    HW111405   3.818   3.963   6.684 -0.4434  0.6013 -0.7435
 2753SOL    HW211406   3.818   4.061   6.799  0.8573 -1.0599  0.7287
 2754SOL     OW11407   7.454   4.996   8.068 -0.0621  0.0598  0.2094
 2754SOL    HW111408   7.429   4.913   8.107 -0.5806  0.0332 -0.1709
 2754SOL    HW211409   7.495   4.973   7.985 -1.0526  0.2177 -0.3370
 2755SOL     OW11410   5.807   2.109   1.249  0.8572 -0.0406 -0.1922
 2755SOL    HW111411   5.830   2.094   1.341 -0.0678  0.1115  0.0657
 2755SOL    HW211412   5.723   2.155   1.252  1.1926  0.6605 -1.0978
 2756SOL     OW11413   7.248   0.433   6.074 -0.1915  0.4148  0.0001
 2756SOL    HW111414   7.246   0.465   6.164 -0.0442  1.0260 -0.2084
 2756SOL    HW211415   7.159   0.402   6.058 -0.7419  2.0010 -0.2281
 2757SOL     OW11416   5.160   0.807   6.324 -0.3265  0.2651 -0.1941
 2757SOL    HW111417   5.080   0.756   6.334 -0.6361  0.5219 -1.1980
 2757SOL    HW211418   5.214   0.755   6.265  0.0648  0.3045  0.1267
 2758SOL     OW11419   5.234   2.948   7.628 -0.2769 -0.1841 -0.1505
 2758SOL    HW111420   5.183   2.894   7.687  2.4285  0.2002  2.8241
 2758SOL    HW211421   5.192   3.034   7.632  0.4870  0.1604  2.3176
 2759SOL     OW11422   4.614   2.090   2.001  0.3901 -0.0017  0.2813
 2759SOL    HW111423   4.564   2.131   2.072  0.6318 -0.4921  0.7415
 2759SOL    HW211424   4.702   2.081   2.037  0.8435  0.9280 -0.5512
 2760SOL     OW11425   7.905   5.368   0.127  0.5923 -0.3102 -0.1241
 2760SOL    HW111426   7.911   5.455   0.085  1.0552  0.0084  0.5945
 2760SOL    HW211427   7.842   5.321   0.073  1.0604  0.1448 -1.1021
 2761SOL     OW11428   1.487   0.789   3.049 -0.4238  0.5180 -0.1941
 2761SOL    HW111429   1.471   0.701   3.083  1.5659  0.0147 -0.3871
 2761SOL    HW211430   1.488   0.845   3.127  0.4378 -0.0216  0.2086
 2762SOL     OW11431   6.259   0.648   3.898 -0.2510  0.6727 -0.1273
 2762SOL    HW111432   6.208   0.711   3.949  0.4968  0.1225  1.3733
 2762SOL    HW211433   6.326   0.701   3.855  0.8518  0.8840  1.7361
 2763SOL     OW11434   5.294   7.733   4.438 -0.1377 -0.0145  0.6896
 2763SOL    HW111435   5.333   7.765   4.357 -1.9713  0.9479  0.1381
 2763SOL    HW211436   5.231   7.667   4.409 -0.3705 -0.1035  1.3889
 2764SOL     OW11437   3.024   3.638   5.120 -0.0190 -0.5192 -0.0766
 2764SOL    HW111438   2.968   3.575   5.164  0.4359 -0.1432  1.1032
 2764SOL    HW211439   2.967   3.712   5.100  0.1780  0.2838  2.0029
 2765SOL     OW11440   1.554   0.548   3.813 -0.3701 -0.6181  0.0227
 2765SOL    HW111441   1.459   0.551   3.828 -0.2848  1.2740  0.4270
 2765SOL    HW211442   1.592   0.543   3.901 -0.0888 -1.6120 -0.1495
 2766SOL     OW11443   0.405   7.707   7.638  0.0284 -0.0834 -0.2653
 2766SOL    HW111444   0.492   7.745   7.652  0.4345  0.5046 -3.5860
 2766SOL    HW211445   0.417   7.613   7.652  1.0834  0.0433 -0.2555
 2767SOL     OW11446   4.393   2.456   1.128  0.0368  0.4685  0.1972
 2767SOL    HW111447   4.371   2.538   1.172 -0.1057  0.4446  0.1702
 2767SOL    HW211448   4.327   2.447   1.059  0.1093  0.3792  0.1393
 2768SOL     OW11449   7.277   6.449   2.815  0.3772  0.2322  0.1366
 2768SOL    HW111450   7.294   6.543   2.810  0.1594  0.3107  0.7167
 2768SOL    HW211451   7.262   6.422   2.725  1.9781  0.4625 -0.2281
 2769SOL     OW11452   5.662   3.566   2.496 -1.0035  0.0885  0.1844
 2769SOL    HW111453   5.627   3.643   2.540  1.2728  0.4832  1.4516
 2769SOL    HW211454   5.736   3.599   2.445 -0.8945 -1.0538 -0.4302
 2770SOL     OW11455   1.480   4.318   2.365 -0.8410  0.3994  0.2938
 2770SOL    HW111456   1.475   4.403   2.322  2.2407  0.4856 -0.1007
 2770SOL    HW211457   1.411   4.320   2.431 -1.8672  2.5500 -0.7493
 2771SOL     OW11458   1.214   7.824   7.934 -0.0273  0.5634  0.2472
 2771SOL    HW111459   1.251   7.823   8.023  1.0517 -1.4738 -0.1727
 2771SOL    HW211460   1.183   7.914   7.923  1.0736  1.2557  2.1848
 2772SOL     OW11461   7.713   1.787   3.056  0.1011 -0.1115 -0.6050
 2772SOL    HW111462   7.662   1.824   3.128 -0.4475  0.0919 -1.0857
 2772SOL    HW211463   7.647   1.758   2.993  0.4554 -2.3275 -0.0683
 2773SOL     OW11464   4.678   7.290   7.308  0.0468  0.8908  0.3560
 2773SOL    HW111465   4.606   7.353   7.307 -0.4775  0.3378  1.2224
 2773SOL    HW211466   4.754   7.338   7.277 -0.6852  1.5076 -0.5327
 2774SOL     OW11467   0.762   4.780   3.975 -0.7309  0.6448 -0.6692
 2774SOL    HW111468   0.708   4.848   4.016 -0.8535  0.4378 -0.4816
 2774SOL    HW211469   0.741   4.785   3.882 -1.4565  0.2283 -0.5331
 2775SOL     OW11470   4.119   1.920   4.437  0.1518  0.5259  0.1989
 2775SOL    HW111471   4.077   1.844   4.476  0.8169  0.3856  0.6614
 2775SOL    HW211472   4.197   1.885   4.393 -0.4531  0.7097 -1.0923
 2776SOL     OW11473   5.150   7.669   3.467  0.1517 -0.0600  0.4602
 2776SOL    HW111474   5.228   7.638   3.422  0.0291  2.3703 -1.6626
 2776SOL    HW211475   5.121   7.745   3.416 -2.5560  0.2457  2.2226
 2777SOL     OW11476   1.426   7.262   7.278  0.0349  0.4655 -0.3600
 2777SOL    HW111477   1.423   7.166   7.279  1.8644  0.3378 -1.7347
 2777SOL    HW211478   1.338   7.288   7.250 -0.7524 -0.7361  0.8450
 2778SOL     OW11479   5.558   3.627   2.881 -0.5304  0.1011 -0.0913
 2778SOL    HW111480   5.568   3.532   2.890  1.7378  0.0937 -1.7822
 2778SOL    HW211481   5.493   3.638   2.811  1.1013 -0.3554 -1.7836
 2779SOL     OW11482   4.913   3.963   5.988  1.2861  0.2343  0.0130
 2779SOL    HW111483   4.938   3.875   5.958  0.5222 -0.5628  1.5407
 2779SOL    HW211484   4.988   3.992   6.040  1.1254  0.0212  0.3718
 2780SOL     OW11485   0.564   5.497   1.646  0.3026  0.2288  0.0925
 2780SOL    HW111486   0.620   5.452   1.582  0.9568 -0.7000  1.2712
 2780SOL    HW211487   0.623   5.558   1.690  0.0772  0.2013  0.4341
 2781SOL     OW11488   5.210   1.576   3.576  0.2577 -0.8766  0.0751
 2781SOL    HW111489   5.288   1.540   3.535  1.3992  0.2333  1.1415
 2781SOL    HW211490   5.205   1.666   3.543 -0.3014 -0.7998  0.3539
 2782SOL     OW11491   7.300   2.944   5.429 -0.2262 -0.0990  0.2013
 2782SOL    HW111492   7.324   2.868   5.376  1.4914  1.3224 -1.2025
 2782SOL    HW211493   7.377   2.960   5.484 -0.4682  0.7343  0.3130
 2783SOL     OW11494   2.300   5.908   1.016  0.4740  0.0127 -0.0257
 2783SOL    HW111495   2.209   5.938   1.013  0.8408  1.3135  1.1197
 2783SOL    HW211496   2.322   5.906   1.109  1.7483  0.1332 -0.3038
 2784SOL     OW11497   0.037   8.092   7.435 -0.0329 -0.0057  0.2997
 2784SOL    HW111498   0.098   8.101   7.362 -2.2837  0.3726 -1.6760
 2784SOL    HW211499   0.086   8.046   7.503  2.0222 -0.8052 -1.6254
 2785SOL     OW11500   7.918   6.469   3.238  0.0985  0.1799 -0.3752
 2785SOL    HW111501   7.904   6.526   3.314  0.2918  1.2868 -1.1595
 2785SOL    HW211502   7.830   6.454   3.203  0.1976  1.5681 -1.2803
 2786SOL     OW11503   4.175   2.710   0.785 -0.3552 -0.5696 -0.0832
 2786SOL    HW111504   4.098   2.765   0.776  1.6643  2.4493 -0.4018
 2786SOL    HW211505   4.198   2.686   0.695 -1.1011 -1.7965  0.0392
 2787SOL     OW11506   3.012   0.974   7.387 -0.0852 -0.4223  0.3938
 2787SOL    HW111507   3.040   0.966   7.296  0.3316 -1.7061  0.6199
 2787SOL    HW211508   3.092   0.968   7.438 -0.2976  0.4547  0.8597
 2788SOL     OW11509   6.575   0.618   7.231  0.0139  0.0463 -0.0634
 2788SOL    HW111510   6.621   0.667   7.163 -1.5039 -0.5114 -1.5650
 2788SOL    HW211511   6.494   0.667   7.245 -0.5456 -0.8625 -0.0455
 2789SOL     OW11512   3.233   7.912   6.245 -0.3641  0.1916 -0.0366
 2789SOL    HW111513   3.230   7.917   6.149 -1.3700 -0.3227 -0.0499
 2789SOL    HW211514   3.292   7.983   6.271 -0.5194  0.7004 -1.0100
 2790SOL     OW11515   3.240   5.130   1.653 -0.4032  0.4340 -0.2365
 2790SOL    HW111516   3.335   5.118   1.661 -0.0604  2.7126 -0.1077
 2790SOL    HW211517   3.225   5.132   1.558 -0.9426 -3.3677 -0.3938
 2791SOL     OW11518   3.173   4.941   8.086  0.2973 -0.3031 -0.3826
 2791SOL    HW111519   3.246   4.901   8.038  0.4519 -0.6270  0.1133
 2791SOL    HW211520   3.209   4.960   8.173 -0.1663 -0.3325 -0.1833
 2792SOL     OW11521   4.524   1.181   0.581  0.3533  0.4811  0.4088
 2792SOL    HW111522   4.507   1.236   0.657 -0.4453  1.2537 -0.3007
 2792SOL    HW211523   4.456   1.114   0.583 -0.9065  1.6747 -0.6779
 2793SOL     OW11524   3.968   4.194   7.027 -0.0471 -0.1594 -0.5259
 2793SOL    HW111525   3.883   4.174   6.988 -0.1642 -0.3116 -0.1893
 2793SOL    HW211526   3.974   4.289   7.024 -1.3336  0.0652  1.7534
 2794SOL     OW11527   3.322   1.830   0.520 -0.7227  0.1027  0.0262
 2794SOL    HW111528   3.357   1.911   0.556 -2.9221  0.9355  0.4594
 2794SOL    HW211529   3.387   1.803   0.455  0.3635  1.8678  0.3000
 2795SOL     OW11530   6.341   1.840   7.198 -0.3930 -0.8550 -0.5198
 2795SOL    HW111531   6.280   1.795   7.140  0.6892 -2.1339 -0.7141
 2795SOL    HW211532   6.424   1.841   7.149  0.0618 -0.2760  0.2387
 2796SOL     OW11533   6.494   0.299   0.698 -0.0009 -0.1194 -0.4929
 2796SOL    HW111534   6.531   0.352   0.629  0.9416 -2.3966 -1.8383
 2796SOL    HW211535   6.529   0.211   0.684 -3.0833 -1.6490  0.3068
 2797SOL     OW11536   7.384   2.544   0.152  1.0395 -0.2725  0.1069
 2797SOL    HW111537   7.322   2.478   0.118  1.3697 -0.3612 -0.3321
 2797SOL    HW211538   7.466   2.525   0.106  0.8023  1.2825 -1.0256
 2798SOL     OW11539   2.596   3.432   7.958  0.4305 -0.3599  0.1898
 2798SOL    HW111540   2.575   3.419   8.051  1.0259  0.9168  0.5211
 2798SOL    HW211541   2.687   3.459   7.957 -0.0033  1.1746 -0.6327
 2799SOL     OW11542   5.210   6.446   6.218 -0.2094  0.4562 -0.7352
 2799SOL    HW111543   5.206   6.427   6.312 -2.1105 -1.8229 -1.1630
 2799SOL    HW211544   5.125   6.487   6.199 -1.5993 -2.6676 -1.9903
 2800SOL     OW11545   4.457   2.253   6.697  0.0370 -0.2914  0.2712
 2800SOL    HW111546   4.510   2.332   6.701  1.0987 -0.9107 -0.8117
 2800SOL    HW211547   4.493   2.204   6.624 -0.7257 -1.6894  0.7928
 2801SOL     OW11548   6.275   1.471   4.508 -0.0068 -0.1591 -0.6014
 2801SOL    HW111549   6.293   1.389   4.553  0.7132 -0.4604 -1.4372
 2801SOL    HW211550   6.202   1.509   4.558  0.8793 -0.3861  0.9477
 2802SOL     OW11551   0.964   3.743   2.715 -0.0993 -0.4235  0.3053
 2802SOL    HW111552   0.954   3.823   2.664  0.4438 -1.0401 -0.7998
 2802SOL    HW211553   0.908   3.756   2.791  1.5868  1.9101  1.2712
 2803SOL     OW11554   1.752   7.283   3.915 -0.3639 -0.1956  0.2101
 2803SOL    HW111555   1.709   7.306   3.832 -0.6923 -0.0129  0.4272
 2803SOL    HW211556   1.705   7.335   3.981  1.4268  1.5154  0.2215
 2804SOL     OW11557   4.727   7.981   0.359  0.0514 -0.3887  0.2360
 2804SOL    HW111558   4.798   7.919   0.342  1.2163  0.2647  2.3859
 2804SOL    HW211559   4.651   7.925   0.378  0.8471 -1.1741  1.1898
 2805SOL     OW11560   2.411   4.235   7.640 -0.0652  0.8392  0.3773
 2805SOL    HW111561   2.480   4.258   7.702  0.9561  0.9191 -0.7621
 2805SOL    HW211562   2.337   4.290   7.666  0.9466  2.2600  0.3711
 2806SOL     OW11563   0.038   1.234   3.360  0.1075  0.1053  0.2442
 2806SOL    HW111564   0.110   1.209   3.417  1.3379  1.5963 -0.5983
 2806SOL    HW211565   0.068   1.312   3.315 -2.3279  1.2394  0.4161
 2807SOL     OW11566   6.266   4.705   7.397 -0.2148 -0.4402  0.2701
 2807SOL    HW111567   6.310   4.650   7.332 -0.1585 -1.4738  1.1408
 2807SOL    HW211568   6.209   4.644   7.445 -1.2823  0.5455  0.3108
 2808SOL     OW11569   2.212   2.519   7.272  0.0772  0.1816 -0.3281
 2808SOL    HW111570   2.219   2.513   7.368 -0.6075  0.1712 -0.2710
 2808SOL    HW211571   2.300   2.541   7.243  0.4107 -0.3228  0.2673
 2809SOL     OW11572   4.440   0.236   2.947 -0.3000  0.6765 -0.2922
 2809SOL    HW111573   4.442   0.305   2.881 -0.3455 -0.6692 -1.7637
 2809SOL    HW211574   4.389   0.166   2.907  0.7633 -0.6880  0.6388
 2810SOL     OW11575   5.280   0.590   7.168 -0.2823  0.3246 -0.2073
 2810SOL    HW111576   5.357   0.563   7.219  1.4472  2.5137 -1.5108
 2810SOL    HW211577   5.228   0.642   7.229 -0.1371 -0.1445  0.3328
 2811SOL     OW11578   3.555   0.464   4.018  0.5673 -0.0531 -0.1760
 2811SOL    HW111579   3.496   0.389   4.026  1.2644 -0.7643 -1.3008
 2811SOL    HW211580   3.499   0.541   4.034 -0.6458 -0.7053 -1.0973
 2812SOL     OW11581   4.213   4.673   3.089 -0.2168 -0.2249  0.2389
 2812SOL    HW111582   4.269   4.738   3.131  0.4031 -1.1296  0.8607
 2812SOL    HW211583   4.213   4.697   2.996  0.8941  0.0213  0.2905
 2813SOL     OW11584   3.058   1.094   2.987  0.0544  0.2538  0.3922
 2813SOL    HW111585   3.011   1.095   3.070 -0.0105  0.6413  0.3497
 2813SOL    HW211586   3.063   1.001   2.963 -0.1937  0.1689  0.6744
 2814SOL     OW11587   3.903   0.498   2.023 -0.1883 -0.4074 -0.0307
 2814SOL    HW111588   3.956   0.457   1.954  0.4494  0.9988 -0.3993
 2814SOL    HW211589   3.965   0.513   2.094 -0.1363  0.9940 -0.3552
 2815SOL     OW11590   2.007   7.114   0.659  0.3118  0.2675 -0.0310
 2815SOL    HW111591   2.101   7.128   0.669  0.3253 -0.7183  1.5591
 2815SOL    HW211592   2.000   7.025   0.626 -0.0718 -0.2024  1.2530
 2816SOL     OW11593   1.244   6.015   5.643 -0.1183 -0.3226  0.1145
 2816SOL    HW111594   1.208   5.939   5.688  0.1848 -1.0479 -0.8510
 2816SOL    HW211595   1.199   6.017   5.559 -0.8949  1.1925  0.5175
 2817SOL     OW11596   0.679   5.444   0.772 -0.4483  0.1025 -0.0317
 2817SOL    HW111597   0.628   5.437   0.692 -0.4331  1.6147 -0.2111
 2817SOL    HW211598   0.753   5.386   0.759  0.2321  1.2594 -1.6916
 2818SOL     OW11599   3.168   0.587   2.043  0.2072 -0.3201  0.3031
 2818SOL    HW111600   3.234   0.520   2.027 -0.6185 -0.7761 -1.4053
 2818SOL    HW211601   3.085   0.540   2.042 -0.3587  0.6557 -0.5685
 2819SOL     OW11602   3.074   3.768   1.218  0.6066  0.3722  0.4498
 2819SOL    HW111603   3.071   3.858   1.186 -0.7393  0.4007  0.6111
 2819SOL    HW211604   2.983   3.742   1.226  0.9732 -0.9075  0.7125
 2820SOL     OW11605   4.899   7.057   1.511 -1.2196  0.1638  0.1665
 2820SOL    HW111606   4.872   6.965   1.516 -0.1092 -0.2004 -0.1437
 2820SOL    HW211607   4.920   7.070   1.418  2.2728 -0.4106  0.7250
 2821SOL     OW11608   2.291   7.827   7.281 -0.0363  0.1303  0.7530
 2821SOL    HW111609   2.291   7.884   7.357 -0.6636 -0.9933  1.6327
 2821SOL    HW211610   2.322   7.743   7.315 -0.7369 -0.5058 -0.1283
 2822SOL     OW11611   3.772   6.476   2.845 -0.2340 -0.5890 -0.2678
 2822SOL    HW111612   3.805   6.479   2.755 -0.6101 -1.1705 -0.4301
 2822SOL    HW211613   3.754   6.567   2.867  0.9208 -0.3138 -0.3791
 2823SOL     OW11614   5.286   6.387   0.340 -0.1480  0.1759  0.0240
 2823SOL    HW111615   5.295   6.472   0.295  1.4752  0.2575  0.4266
 2823SOL    HW211616   5.327   6.324   0.280  0.3193 -0.0193  0.5473
 2824SOL     OW11617   2.362   3.290   2.131  0.0956 -0.0586  0.0236
 2824SOL    HW111618   2.338   3.282   2.039  0.4806  0.1066 -0.0911
 2824SOL    HW211619   2.369   3.385   2.146 -1.2011 -0.0255  0.5406
 2825SOL     OW11620   8.053   5.260   1.310  0.2789  0.1253 -0.3088
 2825SOL    HW111621   8.060   5.165   1.305 -0.7371 -0.0299  0.6497
 2825SOL    HW211622   8.013   5.276   1.396  2.1051  1.5262  0.3436
 2826SOL     OW11623   0.030   0.842   5.952  0.2331 -0.4636  0.0377
 2826SOL    HW111624  -0.008   0.764   5.912  0.7027 -1.4900  1.5304
 2826SOL    HW211625   0.087   0.809   6.021  0.8553  1.1859  0.3566
 2827SOL     OW11626   7.980   0.056   4.031  0.1659 -0.3149  0.3009
 2827SOL    HW111627   7.901   0.009   4.005 -0.5903  1.7464 -1.3724
 2827SOL    HW211628   7.953   0.112   4.104  0.3102 -0.2592  0.3130
 2828SOL     OW11629   7.584   5.593   7.043 -0.2203  0.3365  0.5320
 2828SOL    HW111630   7.552   5.509   7.011  1.1019  0.1175 -0.2821
 2828SOL    HW211631   7.522   5.617   7.112  0.0367 -1.8751  1.6289
 2829SOL     OW11632   1.116   3.170   6.115 -0.3884  0.0198 -0.3467
 2829SOL    HW111633   1.072   3.086   6.103 -0.0617 -0.3471  0.9240
 2829SOL    HW211634   1.158   3.164   6.200  0.6782  1.0195 -0.7691
 2830SOL     OW11635   2.725   1.691   1.235 -0.2570 -0.0260 -0.0887
 2830SOL    HW111636   2.655   1.753   1.255 -1.5773 -1.7491  0.8788
 2830SOL    HW211637   2.724   1.684   1.140 -1.1401  0.2750 -0.1087
 2831SOL     OW11638   7.974   7.302   2.151 -0.3455 -0.7599 -0.2181
 2831SOL    HW111639   8.056   7.270   2.115 -0.0494  0.0027 -0.2425
 2831SOL    HW211640   7.996   7.332   2.240 -0.7848 -1.3597  0.1059
 2832SOL     OW11641   5.645   3.325   1.733 -0.5727  0.0227  0.5781
 2832SOL    HW111642   5.618   3.246   1.685  1.1662  0.7918 -1.8469
 2832SOL    HW211643   5.586   3.327   1.809 -1.6784 -2.7682 -0.0444
 2833SOL     OW11644   7.765   5.615   7.250  0.0524 -0.0400  0.1502
 2833SOL    HW111645   7.695   5.611   7.185 -0.8773  1.2769  1.0128
 2833SOL    HW211646   7.776   5.709   7.268  4.1226  0.1361 -2.0897
 2834SOL     OW11647   2.038   1.406   1.706  0.1473  0.0009 -0.2734
 2834SOL    HW111648   2.030   1.382   1.614  2.2286  2.8996 -1.3650
 2834SOL    HW211649   2.130   1.388   1.727 -0.2960 -0.6210  1.3042
 2835SOL     OW11650   3.669   0.308   1.017 -0.5132  0.4493 -0.0236
 2835SOL    HW111651   3.574   0.297   1.006 -0.5317  1.2410 -0.8688
 2835SOL    HW211652   3.705   0.296   0.929  0.2508 -0.4725  0.4005
 2836SOL     OW11653   0.874   1.908   4.946 -0.4513  0.0936 -0.2783
 2836SOL    HW111654   0.823   1.985   4.922  0.9068  1.1675  0.1713
 2836SOL    HW211655   0.854   1.844   4.877 -1.9429  0.6761 -0.4158
 2837SOL     OW11656   3.404   7.351   4.272 -0.7373 -0.1950 -0.1727
 2837SOL    HW111657   3.309   7.358   4.264 -0.5942  1.6888 -0.8127
 2837SOL    HW211658   3.433   7.318   4.187 -0.7220  0.7326 -0.5393
 2838SOL     OW11659   5.803   5.960   4.966  0.1025 -0.5936 -0.0186
 2838SOL    HW111660   5.871   6.024   4.945 -1.6876  1.2976 -0.3598
 2838SOL    HW211661   5.851   5.881   4.991  2.4088  0.1445 -1.7597
 2839SOL     OW11662   6.082   3.097   0.572  0.5583  0.0232 -0.0741
 2839SOL    HW111663   6.121   3.059   0.493 -0.4197 -1.2691  0.0267
 2839SOL    HW211664   6.015   3.034   0.598  1.2182  0.1519  2.0961
 2840SOL     OW11665   0.531   6.221   6.399  0.5001  0.1800  1.0280
 2840SOL    HW111666   0.537   6.236   6.493  0.2309  0.0837  1.0627
 2840SOL    HW211667   0.503   6.129   6.391  1.1553 -0.0091  0.8441
 2841SOL     OW11668   4.542   4.858   2.560 -0.9326  0.0402  0.5136
 2841SOL    HW111669   4.612   4.798   2.535 -1.9609 -1.1615  0.3629
 2841SOL    HW211670   4.480   4.853   2.488 -0.3158  2.5694 -0.2654
 2842SOL     OW11671   3.742   3.819   6.609 -0.1361  0.3102 -0.1762
 2842SOL    HW111672   3.728   3.797   6.517 -0.0307 -2.0155  0.2980
 2842SOL    HW211673   3.659   3.799   6.652  0.3241 -0.2489  0.4831
 2843SOL     OW11674   1.571   5.977   8.027 -0.1061  0.3622 -0.1829
 2843SOL    HW111675   1.563   5.882   8.029  1.9293  0.1341 -0.5196
 2843SOL    HW211676   1.601   5.997   7.938 -1.5122  1.4541 -0.4517
 2844SOL     OW11677   0.049   4.881   7.119  0.0151  0.2530  0.2476
 2844SOL    HW111678   0.121   4.926   7.074 -0.5771  0.7224 -0.2622
 2844SOL    HW211679   0.088   4.801   7.154  1.0797  1.1107  1.0940
 2845SOL     OW11680   7.293   4.559   6.596  0.3488 -0.2013  0.4706
 2845SOL    HW111681   7.373   4.602   6.567 -0.3514 -0.5268 -2.1745
 2845SOL    HW211682   7.323   4.473   6.628  1.2405  0.4918  1.5999
 2846SOL     OW11683   1.881   4.916   3.345 -0.3943 -0.7805 -0.2714
 2846SOL    HW111684   1.915   4.933   3.258  0.6902 -2.2192 -0.1614
 2846SOL    HW211685   1.875   5.002   3.386  1.2574 -0.2884 -0.9859
 2847SOL     OW11686   4.316   7.153   5.499  0.1486 -0.4879  0.1969
 2847SOL    HW111687   4.276   7.187   5.420  0.3724  0.5384  0.5109
 2847SOL    HW211688   4.342   7.063   5.477  0.0367 -0.2751 -0.8145
 2848SOL     OW11689   3.095   1.694   0.964  0.2279 -0.9044 -0.4244
 2848SOL    HW111690   3.122   1.607   0.933  0.1700 -0.9641 -0.3065
 2848SOL    HW211691   3.105   1.751   0.887  0.0687 -1.0553 -0.5589
 2849SOL     OW11692   0.105   0.286   2.884 -0.1360  0.5503  0.1787
 2849SOL    HW111693   0.179   0.265   2.826  1.6415  0.3164  2.3981
 2849SOL    HW211694   0.086   0.378   2.867  1.0689  0.7774 -0.0483
 2850SOL     OW11695   4.936   7.085   1.263  0.4085  0.3647  0.2809
 2850SOL    HW111696   4.898   7.154   1.208 -0.3867 -0.9381 -0.8861
 2850SOL    HW211697   4.921   7.004   1.213  2.8928 -0.4695  0.7425
 2851SOL     OW11698   2.249   7.292   3.090 -0.9059 -0.1465 -0.0279
 2851SOL    HW111699   2.204   7.250   3.163  0.6431 -1.0464  0.4622
 2851SOL    HW211700   2.338   7.257   3.094 -0.8256 -0.3871 -2.4924
 2852SOL     OW11701   0.182   2.721   5.510 -0.5682  0.0624  0.0810
 2852SOL    HW111702   0.232   2.690   5.586 -0.7554  0.8053  0.5247
 2852SOL    HW211703   0.235   2.793   5.475  0.5081 -1.4984 -1.7106
 2853SOL     OW11704   5.711   0.427   5.549 -0.1767 -0.3773  0.2892
 2853SOL    HW111705   5.792   0.379   5.530  0.2049  0.0332  0.8838
 2853SOL    HW211706   5.734   0.519   5.536 -0.5931 -0.2706  0.3056
 2854SOL     OW11707   5.729   1.672   0.555  0.2170 -0.3614  0.1755
 2854SOL    HW111708   5.656   1.704   0.501  0.0051 -0.8112  0.1954
 2854SOL    HW211709   5.705   1.582   0.577 -0.0305  0.0183  1.5709
 2855SOL     OW11710   0.165   6.273   5.973 -0.1090  0.9496 -0.1996
 2855SOL    HW111711   0.196   6.216   5.904 -2.1700  1.1160 -1.3604
 2855SOL    HW211712   0.220   6.253   6.049  1.4542 -0.0559 -1.5556
 2856SOL     OW11713   7.608   7.261   1.124 -0.2852 -0.1182  0.9290
 2856SOL    HW111714   7.669   7.328   1.094 -1.1372  0.7027  0.9645
 2856SOL    HW211715   7.650   7.221   1.200  0.9360 -0.7313 -0.0384
 2857SOL     OW11716   1.374   6.777   4.100  0.0243  0.0090 -0.3278
 2857SOL    HW111717   1.279   6.762   4.105  0.3770 -2.4090  1.3799
 2857SOL    HW211718   1.401   6.738   4.017 -0.3169 -0.4947 -0.2035
 2858SOL     OW11719   5.324   2.163   1.041 -0.0349  0.6622 -0.0228
 2858SOL    HW111720   5.325   2.069   1.022 -0.3357  0.5841  0.3245
 2858SOL    HW211721   5.236   2.191   1.016  0.8020  1.3547 -2.4320
 2859SOL     OW11722   6.720   3.338   5.193  0.8556  0.6639 -0.4226
 2859SOL    HW111723   6.802   3.383   5.177  1.3613 -0.6479 -1.8089
 2859SOL    HW211724   6.740   3.246   5.176 -0.6472  0.1936  0.2188
 2860SOL     OW11725   5.394   6.055   3.199  0.0766 -0.1040 -0.1303
 2860SOL    HW111726   5.385   5.962   3.220 -0.0527 -0.4379 -1.5797
 2860SOL    HW211727   5.452   6.089   3.267  1.8950 -1.7049 -0.7781
 2861SOL     OW11728   0.951   2.757   0.623  0.5162  0.4221 -0.0157
 2861SOL    HW111729   0.897   2.813   0.566 -0.1005 -0.4971 -0.3497
 2861SOL    HW211730   1.003   2.704   0.563  1.7219  1.2026  0.3073
 2862SOL     OW11731   2.586   8.021   2.990 -0.0752 -0.0724  0.3576
 2862SOL    HW111732   2.547   8.108   2.998 -2.0072 -0.8413 -0.0346
 2862SOL    HW211733   2.608   7.996   3.080 -0.6174  0.3384  0.6100
 2863SOL     OW11734   4.232   4.934   7.837 -0.2700  0.3272 -0.2755
 2863SOL    HW111735   4.288   4.859   7.821 -0.6313 -0.0733  0.2762
 2863SOL    HW211736   4.197   4.958   7.751 -0.4457 -0.3718 -0.3993
 2864SOL     OW11737   4.538   3.035   7.068  0.1493 -0.3208 -0.1134
 2864SOL    HW111738   4.457   3.079   7.043  0.1204 -0.6288 -0.5652
 2864SOL    HW211739   4.587   3.025   6.987  0.6732 -0.0858  0.1644
 2865SOL     OW11740   7.589   5.489   8.030  0.5284 -0.1274  0.2592
 2865SOL    HW111741   7.538   5.561   8.068  0.4570 -0.6795  1.2343
 2865SOL    HW211742   7.679   5.522   8.027  0.6562 -0.3158  1.5697
 2866SOL     OW11743   2.303   1.443   7.513 -0.2052 -0.0954 -0.3683
 2866SOL    HW111744   2.381   1.488   7.480 -1.2905  2.2312  0.0142
 2866SOL    HW211745   2.320   1.429   7.606 -0.4037  0.8913 -0.1668
 2867SOL     OW11746   6.171   5.257   0.199  0.5359 -0.3431  0.1601
 2867SOL    HW111747   6.206   5.168   0.189 -1.3639 -1.0746 -0.4756
 2867SOL    HW211748   6.185   5.298   0.113  0.1236 -0.5382 -0.0041
 2868SOL     OW11749   7.717   7.301   3.565 -0.1622 -0.5376 -0.4992
 2868SOL    HW111750   7.700   7.282   3.473  0.2036  0.9872 -0.9055
 2868SOL    HW211751   7.652   7.367   3.588  1.4644  1.1198 -0.4564
 2869SOL     OW11752   5.877   3.787   2.146 -0.2330 -0.5026 -0.0572
 2869SOL    HW111753   5.794   3.741   2.133  0.0895 -1.5792  1.4160
 2869SOL    HW211754   5.926   3.770   2.066 -1.2097 -0.3034 -0.7226
 2870SOL     OW11755   4.243   1.370   6.994 -1.0592 -0.8661 -0.5650
 2870SOL    HW111756   4.188   1.445   7.019 -0.4581 -0.3654 -0.7344
 2870SOL    HW211757   4.181   1.298   6.984 -1.5347 -0.6388  0.5662
 2871SOL     OW11758   6.358   6.295   4.982 -0.6398 -0.0152 -0.6437
 2871SOL    HW111759   6.395   6.207   4.974  0.8337  0.7378 -3.2572
 2871SOL    HW211760   6.273   6.281   5.024  0.5504 -2.3639  1.2222
 2872SOL     OW11761   7.946   0.369   7.461 -0.2491  0.0076  0.0172
 2872SOL    HW111762   7.974   0.355   7.370  0.3206 -1.3478  0.3700
 2872SOL    HW211763   7.966   0.460   7.479  1.3561 -0.1806 -0.6700
 2873SOL     OW11764   6.877   3.035   3.367 -0.2670 -0.3135 -0.5014
 2873SOL    HW111765   6.853   3.054   3.457 -0.8639  0.2115 -0.7626
 2873SOL    HW211766   6.857   2.942   3.355  0.2635 -0.5029  0.0375
 2874SOL     OW11767   2.793   0.751   2.648  0.7945 -0.2639 -0.5192
 2874SOL    HW111768   2.864   0.772   2.587  0.8807  1.0944  0.0191
 2874SOL    HW211769   2.719   0.804   2.618  0.1703 -1.2063 -0.7036
 2875SOL     OW11770   5.958   3.160   2.118  0.1432  0.3784 -0.2594
 2875SOL    HW111771   5.959   3.099   2.192  0.6084  0.3946 -0.2471
 2875SOL    HW211772   6.001   3.239   2.152 -1.2695  1.0712  0.0173
 2876SOL     OW11773   3.557   3.955   1.846 -0.2582  0.6505 -0.3288
 2876SOL    HW111774   3.481   3.898   1.859  0.8564 -0.5603  1.2322
 2876SOL    HW211775   3.564   4.004   1.928  1.3903 -0.1977  0.0764
 2877SOL     OW11776   5.115   6.191   6.027 -0.2459  0.0677  0.3192
 2877SOL    HW111777   5.082   6.101   6.025  1.0763 -0.4453 -1.7525
 2877SOL    HW211778   5.188   6.189   6.088 -0.0545 -0.3341  0.0802
 2878SOL     OW11779   0.141   0.781   8.028 -0.2315 -0.4466 -0.0922
 2878SOL    HW111780   0.062   0.816   7.988  0.0278  0.0243 -0.2031
 2878SOL    HW211781   0.160   0.841   8.100 -0.2807 -0.8697  0.2789
 2879SOL     OW11782   7.886   4.194   3.439 -0.0520  0.1277 -0.3154
 2879SOL    HW111783   7.930   4.120   3.396 -1.1879 -0.1523 -1.0733
 2879SOL    HW211784   7.802   4.158   3.468  1.4281 -0.3015  4.2108
 2880SOL     OW11785   1.594   0.979   1.493  0.0445  0.2139 -0.3707
 2880SOL    HW111786   1.634   1.049   1.442 -0.0414  0.8707  0.4386
 2880SOL    HW211787   1.633   0.987   1.579 -0.7545 -0.0516  0.0261
 2881SOL     OW11788   2.657   3.391   5.473 -0.1157 -0.1890 -0.3986
 2881SOL    HW111789   2.677   3.311   5.425 -2.2146 -0.1228 -1.5099
 2881SOL    HW211790   2.617   3.362   5.555  0.9456 -0.2807  0.0929
 2882SOL     OW11791   4.775   7.456   6.256  0.1459 -0.2456  0.3619
 2882SOL    HW111792   4.819   7.520   6.201 -1.4500  0.2433 -0.3956
 2882SOL    HW211793   4.704   7.504   6.297  0.1289 -1.0750  1.3608
 2883SOL     OW11794   5.810   5.484   6.055 -0.0365 -0.2957  0.0854
 2883SOL    HW111795   5.783   5.537   6.130  2.0713  0.0733  0.6457
 2883SOL    HW211796   5.741   5.417   6.048 -0.8486  0.3068  1.6584
 2884SOL     OW11797   7.969   3.105   7.948  0.4469  0.2685 -0.4062
 2884SOL    HW111798   8.000   3.050   8.021 -0.7933  0.1296  0.0442
 2884SOL    HW211799   8.048   3.148   7.915  1.2071 -0.5580  0.2688
 2885SOL     OW11800   7.296   4.210   1.324 -0.4796 -0.3853 -0.3530
 2885SOL    HW111801   7.241   4.259   1.262 -0.9097  0.2235  0.5000
 2885SOL    HW211802   7.241   4.137   1.352 -1.1226  0.5581  0.9633
 2886SOL     OW11803   7.339   6.270   7.284 -0.0260 -0.0547  0.2418
 2886SOL    HW111804   7.247   6.269   7.258  0.3617  1.6801 -1.4361
 2886SOL    HW211805   7.374   6.349   7.244  2.2622 -0.7835  0.6687
 2887SOL     OW11806   4.748   1.895   0.604  0.2688 -0.3461 -0.0956
 2887SOL    HW111807   4.687   1.892   0.678  0.1086  0.8942 -0.1546
 2887SOL    HW211808   4.741   1.809   0.564 -0.1255 -0.8147  0.9556
 2888SOL     OW11809   1.356   1.434   1.533  0.2281 -0.4370 -0.1509
 2888SOL    HW111810   1.382   1.464   1.446 -0.0264 -0.2226 -0.1553
 2888SOL    HW211811   1.260   1.443   1.534  0.2496 -0.2331  0.2246
 2889SOL     OW11812   1.867   0.935   6.441  0.1701 -0.7243  0.6104
 2889SOL    HW111813   1.797   0.934   6.505 -0.2883 -0.3827  0.1266
 2889SOL    HW211814   1.850   0.859   6.385  0.1992 -0.6608  0.5139
 2890SOL     OW11815   1.420   0.197   2.662  0.7279 -0.0183 -0.5810
 2890SOL    HW111816   1.408   0.279   2.710 -0.7352 -0.6780  0.2605
 2890SOL    HW211817   1.487   0.149   2.711  0.9274  0.2805 -0.5586
 2891SOL     OW11818   4.164   5.852   5.830 -0.3341  0.4609 -0.4095
 2891SOL    HW111819   4.191   5.870   5.920 -1.5502 -0.5881  0.1921
 2891SOL    HW211820   4.092   5.912   5.813 -0.9658 -0.2160 -0.2032
 2892SOL     OW11821   5.588   3.701   6.843 -0.0310  0.4972 -0.4188
 2892SOL    HW111822   5.557   3.689   6.933  0.2414  1.7336 -0.1416
 2892SOL    HW211823   5.512   3.680   6.789 -0.9084  1.9395  0.1960
 2893SOL     OW11824   1.894   5.201   2.172 -0.1208 -0.3983  0.1382
 2893SOL    HW111825   1.872   5.110   2.153  0.9582 -0.5436 -0.4993
 2893SOL    HW211826   1.932   5.234   2.091 -2.1319  1.1878 -0.2466
 2894SOL     OW11827   6.208   4.900   1.376 -0.0411  0.1346 -0.0181
 2894SOL    HW111828   6.297   4.869   1.395 -0.4343 -0.2189  1.3967
 2894SOL    HW211829   6.174   4.836   1.313 -0.0344 -1.0403  1.1172
 2895SOL     OW11830   1.175   0.710   2.377  0.5540 -0.0595  0.4904
 2895SOL    HW111831   1.092   0.662   2.381  0.3150  0.3612  0.6346
 2895SOL    HW211832   1.232   0.656   2.322 -0.4173  0.5594 -1.1839
 2896SOL     OW11833   7.988   1.118   4.215  0.8139  0.0585  0.0230
 2896SOL    HW111834   7.918   1.059   4.189  0.2718  0.6136  0.1837
 2896SOL    HW211835   7.943   1.200   4.237  1.3762 -0.0023  1.4746
 2897SOL     OW11836   2.046   4.462   2.643 -0.1838 -0.0763  0.0500
 2897SOL    HW111837   2.056   4.412   2.561 -0.3163 -1.1099  0.6433
 2897SOL    HW211838   2.041   4.395   2.711 -1.6626  0.7059  0.7534
 2898SOL     OW11839   1.580   1.695   7.473 -0.8063 -0.4496 -0.5995
 2898SOL    HW111840   1.591   1.716   7.380  1.8748  1.0397 -0.0440
 2898SOL    HW211841   1.640   1.622   7.488 -1.1298 -0.5966  0.0020
 2899SOL     OW11842   1.196   0.505   7.493  0.4035  0.8135  0.1217
 2899SOL    HW111843   1.113   0.475   7.528  0.3655 -0.8266 -1.2742
 2899SOL    HW211844   1.258   0.495   7.565 -0.2834  0.5269  0.6787
 2900SOL     OW11845   0.772   5.092   6.271 -0.0921  0.2509  0.0397
 2900SOL    HW111846   0.695   5.044   6.241 -0.5518  1.0586 -0.1225
 2900SOL    HW211847   0.844   5.030   6.264 -0.4311 -0.0248 -1.4077
 2901SOL     OW11848   5.497   2.100   4.045  0.0363  0.1561 -0.2092
 2901SOL    HW111849   5.427   2.113   4.110  0.7772 -0.1241  0.6546
 2901SOL    HW211850   5.529   2.189   4.028  0.5560  0.1349  0.6181
 2902SOL     OW11851   0.064   7.995   3.353 -0.9337  0.0974 -0.2992
 2902SOL    HW111852   0.081   7.969   3.262 -1.2036  0.4061 -0.4403
 2902SOL    HW211853  -0.028   8.019   3.354 -0.2520  3.1270 -0.6983
 2903SOL     OW11854   3.999   2.471   4.958  0.0300 -0.1358  0.1702
 2903SOL    HW111855   4.030   2.412   4.889  0.4916  0.0277  0.2315
 2903SOL    HW211856   3.962   2.546   4.910 -0.1493 -0.2721  0.0957
 2904SOL     OW11857   6.861   2.898   4.093 -0.3033  0.0382  0.2041
 2904SOL    HW111858   6.855   2.994   4.096 -1.5493  0.2850 -4.0023
 2904SOL    HW211859   6.953   2.881   4.074  0.1990  0.2387  2.2459
 2905SOL     OW11860   7.411   4.431   1.377 -0.2725  0.2346 -0.1774
 2905SOL    HW111861   7.379   4.342   1.372  0.1434  0.1172 -0.8619
 2905SOL    HW211862   7.397   4.457   1.468  0.5607 -0.8900  0.2831
 2906SOL     OW11863   0.097   4.056   6.669  0.6158  0.1799 -0.1799
 2906SOL    HW111864   0.030   4.117   6.641 -1.1690 -0.5707  2.1584
 2906SOL    HW211865   0.157   4.108   6.722  0.0725  0.2630  0.3631
 2907SOL     OW11866   2.417   2.521   1.048  0.0585  0.0221 -0.2709
 2907SOL    HW111867   2.332   2.479   1.054  0.2248 -0.5087 -1.3262
 2907SOL    HW211868   2.423   2.576   1.126 -1.4657  0.4689 -0.4464
 2908SOL     OW11869   1.745   2.427   5.442 -0.0528  1.0398 -0.0439
 2908SOL    HW111870   1.680   2.454   5.507 -0.7226  0.5312 -0.4832
 2908SOL    HW211871   1.771   2.508   5.399 -1.0564  1.1602 -0.4575
 2909SOL     OW11872   5.163   1.025   6.947  0.4461  0.1294  0.1405
 2909SOL    HW111873   5.186   0.932   6.936  2.7196  0.5518  0.8623
 2909SOL    HW211874   5.141   1.033   7.040 -1.8342 -0.0406 -0.3193
 2910SOL     OW11875   3.099   4.369   0.219 -0.4444  0.3807 -0.0639
 2910SOL    HW111876   3.152   4.371   0.139  0.2722  1.2574  0.4152
 2910SOL    HW211877   3.120   4.450   0.264  0.3972 -0.7882  1.7927
 2911SOL     OW11878   2.226   6.874   2.264 -0.0768 -0.3321 -0.2133
 2911SOL    HW111879   2.228   6.943   2.330 -0.2702  1.9335 -2.3881
 2911SOL    HW211880   2.192   6.918   2.186  2.2473 -2.2415 -2.4696
 2912SOL     OW11881   6.554   3.140   1.178  0.4154 -0.3818  0.7137
 2912SOL    HW111882   6.573   3.139   1.272 -2.0914  1.9370  1.3767
 2912SOL    HW211883   6.461   3.159   1.173  0.8809  1.8371 -2.2582
 2913SOL     OW11884   4.408   2.785   6.661  0.5377  0.2963 -0.1068
 2913SOL    HW111885   4.409   2.875   6.693  0.5628 -0.0389  0.8670
 2913SOL    HW211886   4.481   2.782   6.599  2.5596  0.2034  2.0887
 2914SOL     OW11887   5.908   1.510   0.035  0.1940  0.3798 -0.4961
 2914SOL    HW111888   5.904   1.566   0.112 -0.7889  2.6424 -2.0868
 2914SOL    HW211889   5.974   1.444   0.057  0.5039  1.3961  1.9513
 2915SOL     OW11890   1.256   5.805   4.150 -0.2007 -0.0151  0.1916
 2915SOL    HW111891   1.197   5.881   4.153 -0.3164 -0.1115  0.4248
 2915SOL    HW211892   1.288   5.803   4.060 -0.9079 -0.2314 -0.0663
 2916SOL     OW11893   0.252   8.000   0.879 -0.1530 -0.4205  0.2660
 2916SOL    HW111894   0.166   7.957   0.875 -1.4378  2.0398 -0.7331
 2916SOL    HW211895   0.278   8.009   0.788 -0.4990  1.8791  0.3445
 2917SOL     OW11896   6.585   2.849   7.893  0.3933 -0.2254  0.3868
 2917SOL    HW111897   6.546   2.934   7.914  3.7441  1.8763 -1.1561
 2917SOL    HW211898   6.575   2.840   7.798  0.9077 -1.1035  0.4009
 2918SOL     OW11899   3.320   3.447   2.043 -0.2779 -0.5241  0.0596
 2918SOL    HW111900   3.352   3.365   2.080 -0.9357 -1.5271 -1.5230
 2918SOL    HW211901   3.278   3.422   1.960 -0.6815  1.3758 -0.3555
 2919SOL     OW11902   3.678   4.698   3.005 -0.0137 -0.2249 -0.6529
 2919SOL    HW111903   3.764   4.724   3.040  0.2032  0.2568 -1.5240
 2919SOL    HW211904   3.698   4.655   2.922 -0.4794 -1.9370  0.0741
 2920SOL     OW11905   6.727   6.142   3.623 -0.0436  0.2303 -0.0797
 2920SOL    HW111906   6.758   6.097   3.545  2.5904  0.4197  0.7622
 2920SOL    HW211907   6.738   6.235   3.604  0.8475  0.2729  0.5531
 2921SOL     OW11908   2.072   4.927   0.101 -0.1830 -0.1066  0.7532
 2921SOL    HW111909   2.153   4.898   0.144  0.5078  0.2641 -0.2629
 2921SOL    HW211910   2.037   4.849   0.060 -2.0354 -0.9991  3.6999
 2922SOL     OW11911   3.283   4.289   1.131 -0.3397  0.1374  0.0795
 2922SOL    HW111912   3.345   4.357   1.159 -0.9381  0.7146  0.0299
 2922SOL    HW211913   3.295   4.283   1.037  1.0566 -1.1875  0.3075
 2923SOL     OW11914   1.497   6.060   0.208  0.3125 -0.6208 -0.1099
 2923SOL    HW111915   1.476   6.020   0.124  0.1645  0.2127 -0.4698
 2923SOL    HW211916   1.534   6.146   0.187 -2.2915  0.7997  0.7177
 2924SOL     OW11917   1.375   5.600   7.319  0.1268  0.3625  0.2802
 2924SOL    HW111918   1.329   5.517   7.309 -0.7085  0.5974  1.8760
 2924SOL    HW211919   1.321   5.663   7.271  0.7192  0.0310 -0.8632
 2925SOL     OW11920   0.213   6.900   5.951  0.0992  0.0099 -0.2772
 2925SOL    HW111921   0.301   6.901   5.915 -0.9420 -1.4195 -3.1184
 2925SOL    HW211922   0.219   6.841   6.027  1.2129 -1.7487 -1.6420
 2926SOL     OW11923   6.339   0.945   7.524  0.1324  0.1431  0.1542
 2926SOL    HW111924   6.244   0.950   7.524  0.0839 -0.5491 -0.9890
 2926SOL    HW211925   6.367   1.017   7.581 -1.0636  0.3222  0.5359
 2927SOL     OW11926   7.169   2.351   1.252 -0.0282  0.0532 -0.7150
 2927SOL    HW111927   7.213   2.285   1.198  0.3252  0.0515 -0.4215
 2927SOL    HW211928   7.205   2.434   1.222 -0.2507  0.0951 -0.8729
 2928SOL     OW11929   1.216   3.452   2.800  0.1207 -0.1160 -0.3372
 2928SOL    HW111930   1.145   3.496   2.848  0.0701 -1.9893  1.4204
 2928SOL    HW211931   1.291   3.511   2.810 -0.2919  0.2453  0.7970
 2929SOL     OW11932   4.071   6.668   5.443 -0.1075  0.4828  0.1722
 2929SOL    HW111933   4.124   6.639   5.518 -0.8462 -0.2642  0.4183
 2929SOL    HW211934   4.135   6.692   5.377  0.5536  0.5873  0.8345
 2930SOL     OW11935   1.555   6.138   4.639  0.0821 -0.0339  0.0790
 2930SOL    HW111936   1.603   6.214   4.672  0.0332 -0.2373  0.6275
 2930SOL    HW211937   1.619   6.089   4.589 -0.0598  0.7340 -0.8829
 2931SOL     OW11938   3.313   2.219   7.222  0.1382 -0.0830  0.4013
 2931SOL    HW111939   3.274   2.168   7.294  0.3643  0.7517  1.1348
 2931SOL    HW211940   3.275   2.181   7.143 -0.5416 -0.6661  0.9871
 2932SOL     OW11941   6.206   2.238   3.661 -0.7819 -0.5798  0.6665
 2932SOL    HW111942   6.288   2.277   3.690 -0.7426 -1.1769  1.3585
 2932SOL    HW211943   6.230   2.153   3.625 -1.0594 -0.6204  0.5725
 2933SOL     OW11944   3.879   3.470   8.085 -0.1044  0.4638  0.2814
 2933SOL    HW111945   3.865   3.565   8.087  0.2807  0.5150  1.3295
 2933SOL    HW211946   3.798   3.434   8.119  0.4725  0.5449  1.8768
 2934SOL     OW11947   0.350   2.184   2.969 -0.5210  0.4167  0.0116
 2934SOL    HW111948   0.268   2.135   2.968 -0.0298 -0.4420  0.5521
 2934SOL    HW211949   0.387   2.167   3.056  0.6324  0.0934 -0.5247
 2935SOL     OW11950   7.515   3.615   4.278 -0.2477  0.0799 -0.7188
 2935SOL    HW111951   7.453   3.555   4.236 -1.6367  0.4665  0.6923
 2935SOL    HW211952   7.503   3.698   4.231 -1.2253  0.3040 -0.0832
 2936SOL     OW11953   4.173   2.181   1.233 -0.2243  0.5360  0.0511
 2936SOL    HW111954   4.202   2.129   1.158 -2.3804 -1.5433  0.5265
 2936SOL    HW211955   4.093   2.225   1.201 -0.4200  0.6876  0.7384
 2937SOL     OW11956   8.025   5.380   3.687  0.1830  0.3060  0.2596
 2937SOL    HW111957   8.036   5.326   3.766 -2.3296 -0.7675 -0.0138
 2937SOL    HW211958   8.093   5.349   3.628 -0.9798 -2.5657  0.2106
 2938SOL     OW11959   4.803   4.268   2.887 -0.2333 -0.2561 -0.2900
 2938SOL    HW111960   4.773   4.230   2.805 -1.5295  0.0579  0.0070
 2938SOL    HW211961   4.738   4.336   2.907  2.0162  2.2595 -0.8540
 2939SOL     OW11962   0.576   5.044   5.037 -0.3364 -0.3084  0.1844
 2939SOL    HW111963   0.565   5.044   5.132  2.0199  1.7311  0.5433
 2939SOL    HW211964   0.526   5.119   5.007 -2.3603 -1.8279 -0.4631
 2940SOL     OW11965   1.738   2.494   4.992 -0.4311  0.6427 -0.1483
 2940SOL    HW111966   1.815   2.545   5.018  0.4632 -0.4171 -0.6403
 2940SOL    HW211967   1.665   2.538   5.035  0.8460 -0.7417  3.9342
 2941SOL     OW11968   0.321   7.815   5.584 -0.1169 -0.4276 -0.8605
 2941SOL    HW111969   0.276   7.766   5.515  1.5020 -1.6205 -1.1200
 2941SOL    HW211970   0.329   7.752   5.656  1.1930 -0.2855 -0.8598
 2942SOL     OW11971   1.580   1.860   1.866 -0.0569 -0.1107  0.2703
 2942SOL    HW111972   1.650   1.922   1.885 -0.9859  0.8920  0.5372
 2942SOL    HW211973   1.593   1.789   1.928  0.8663 -0.0523  0.1518
 2943SOL     OW11974   6.555   6.579   6.176  0.1611 -0.3742 -0.5876
 2943SOL    HW111975   6.547   6.669   6.146  0.9352 -0.5221 -1.2771
 2943SOL    HW211976   6.643   6.574   6.214 -0.7050 -0.2354  1.6112
 2944SOL     OW11977   6.936   8.060   0.013 -0.0631  0.1317  0.6209
 2944SOL    HW111978   6.893   8.043  -0.071 -0.1115  0.3980  0.5937
 2944SOL    HW211979   7.013   8.002   0.012  0.2913  0.6070  0.1160
 2945SOL     OW11980   3.701   6.066   4.895 -0.1453 -0.2227  0.0959
 2945SOL    HW111981   3.630   6.110   4.849 -2.8844 -1.5701  2.6731
 2945SOL    HW211982   3.712   5.982   4.850  0.7837  0.5160 -1.0941
 2946SOL     OW11983   2.317   7.485   2.648 -0.5326 -0.1280  0.6289
 2946SOL    HW111984   2.295   7.522   2.734  0.6544  1.0868  0.4533
 2946SOL    HW211985   2.261   7.533   2.587  1.4963  2.0316  0.3230
 2947SOL     OW11986   7.188   7.098   1.154  0.0309  0.2737 -0.4640
 2947SOL    HW111987   7.279   7.087   1.124  1.2067 -0.6346  3.0099
 2947SOL    HW211988   7.141   7.027   1.111  1.7365 -1.3544  0.1719
 2948SOL     OW11989   1.052   6.390   5.729 -0.5561 -0.0932  0.3802
 2948SOL    HW111990   0.962   6.422   5.725 -0.0275  1.3692 -0.6534
 2948SOL    HW211991   1.044   6.295   5.720 -1.9818  0.0337  0.0645
 2949SOL     OW11992   7.965   5.284   4.348 -0.6518  0.7563  0.2402
 2949SOL    HW111993   7.971   5.379   4.354 -1.2994  0.7548  1.0312
 2949SOL    HW211994   7.977   5.266   4.254 -0.1287  1.5763  0.1379
 2950SOL     OW11995   5.870   4.085   1.474 -0.2413  0.2636  0.0704
 2950SOL    HW111996   5.911   4.000   1.492 -0.2177  0.3150  0.2690
 2950SOL    HW211997   5.929   4.129   1.414 -1.4268 -0.8219 -1.9874
 2951SOL     OW11998   6.916   7.678   0.027  0.0587 -0.7063 -0.5799
 2951SOL    HW111999   6.962   7.631   0.097 -0.2559  0.1634  0.2303
 2951SOL    HW212000   6.849   7.729   0.073 -0.4633 -0.4840 -1.5673
 2952SOL     OW12001   7.353   4.339   3.862 -0.0206 -0.0289 -0.5113
 2952SOL    HW112002   7.338   4.304   3.774  0.7519  1.2539 -1.1771
 2952SOL    HW212003   7.381   4.263   3.913 -1.6520 -1.0514 -1.0274
 2953SOL     OW12004   4.689   5.950   1.879  1.1205 -0.3032  0.0681
 2953SOL    HW112005   4.702   5.899   1.959  1.2070 -1.5000 -0.6924
 2953SOL    HW212006   4.594   5.965   1.876  0.9256 -1.5164 -0.3422
 2954SOL     OW12007   0.064   7.073   0.135 -0.1081  0.5129 -0.3433
 2954SOL    HW112008   0.141   7.036   0.091  0.4876  1.6502 -0.2898
 2954SOL    HW212009   0.028   7.135   0.072 -1.5234 -0.6185 -0.7201
 2955SOL     OW12010   5.931   2.034   2.333  0.0642 -0.0766  0.9634
 2955SOL    HW112011   5.894   2.112   2.293  1.1908 -0.6349 -1.3596
 2955SOL    HW212012   5.968   2.065   2.416 -0.2747  1.6741  0.5087
 2956SOL     OW12013   6.034   0.030   1.510 -0.0002 -0.3970 -0.1684
 2956SOL    HW112014   6.057   0.079   1.589  3.0721 -0.9165 -0.6243
 2956SOL    HW212015   6.017   0.098   1.444  2.8136  0.1903 -0.4141
 2957SOL     OW12016   5.511   1.133   8.040  0.0374 -0.4725 -0.6486
 2957SOL    HW112017   5.419   1.159   8.034 -0.2636 -1.3508 -0.0435
 2957SOL    HW212018   5.523   1.108   8.132  0.3456 -2.2924 -1.1529
 2958SOL     OW12019   1.900   6.745   6.932 -0.0528  0.3684 -0.0820
 2958SOL    HW112020   1.841   6.804   6.979 -0.4143  0.3711 -0.5325
 2958SOL    HW212021   1.901   6.665   6.986 -2.4963 -0.6231 -1.3134
 2959SOL     OW12022   7.026   2.023   6.635 -0.1670  0.4777  0.3113
 2959SOL    HW112023   6.970   2.026   6.558  1.9303 -1.0835 -1.3675
 2959SOL    HW212024   7.097   2.084   6.615  1.0616 -0.8760  0.4098
 2960SOL     OW12025   6.428   0.764   2.087  0.7229 -0.0418  0.4979
 2960SOL    HW112026   6.408   0.692   2.026  0.3971  0.7475 -0.3502
 2960SOL    HW212027   6.520   0.750   2.110  0.4083 -1.2678  1.0988
 2961SOL     OW12028   6.810   3.529   3.983  0.0515 -0.3082  0.6192
 2961SOL    HW112029   6.874   3.461   3.964  0.5349 -0.5365  2.8831
 2961SOL    HW212030   6.737   3.483   4.024 -0.5291  0.2741  0.2627
 2962SOL     OW12031   1.726   0.840   5.718 -0.6219 -0.2694  0.0069
 2962SOL    HW112032   1.808   0.808   5.753 -1.9922  0.6192  4.7090
 2962SOL    HW212033   1.689   0.766   5.671  1.6349 -1.5015  0.0374
 2963SOL     OW12034   4.582   5.612   1.952 -0.5032 -0.1692  0.1793
 2963SOL    HW112035   4.501   5.649   1.987 -1.6623 -1.1379 -1.3488
 2963SOL    HW212036   4.621   5.566   2.027 -1.4238  0.2193  0.9200
 2964SOL     OW12037   2.629   6.423   4.011 -0.7826 -0.4060  0.8845
 2964SOL    HW112038   2.721   6.415   4.034  0.1804  1.8659 -1.5909
 2964SOL    HW212039   2.629   6.434   3.915 -3.4355  1.3303  0.9773
 2965SOL     OW12040   0.063   5.508   0.320 -0.9891 -0.0150 -0.1409
 2965SOL    HW112041   0.011   5.453   0.378 -1.6325  0.3102 -0.3876
 2965SOL    HW212042   0.118   5.447   0.272 -2.6485 -0.6312 -1.3857
 2966SOL     OW12043   5.550   0.679   5.435  0.0273  0.4235 -0.0977
 2966SOL    HW112044   5.513   0.601   5.475  0.8030 -0.8231 -1.6938
 2966SOL    HW212045   5.606   0.717   5.503 -0.6602 -0.1842  0.8229
 2967SOL     OW12046   5.091   7.405   3.673 -0.5801  0.0952  0.3295
 2967SOL    HW112047   5.139   7.358   3.742 -1.0131  1.6277  1.7544
 2967SOL    HW212048   5.108   7.497   3.691  0.0516  0.5455 -2.2433
 2968SOL     OW12049   7.943   3.312   5.344  0.5139 -0.0370 -0.2834
 2968SOL    HW112050   7.972   3.291   5.433  0.8121  1.1401 -0.0878
 2968SOL    HW212051   7.899   3.232   5.314  0.9495 -0.6671  0.6829
 2969SOL     OW12052   2.841   4.928   6.179 -0.3374 -0.1560  0.4191
 2969SOL    HW112053   2.785   4.943   6.256  0.2481 -0.3228  0.8894
 2969SOL    HW212054   2.785   4.881   6.118 -0.7640 -0.1741  0.8132
 2970SOL     OW12055   0.328   2.159   0.503 -0.2693  0.5403  0.4154
 2970SOL    HW112056   0.280   2.200   0.575 -0.4619  0.7116  0.1889
 2970SOL    HW212057   0.296   2.202   0.424  2.3567  2.8526  0.4469
 2971SOL     OW12058   2.271   6.738   6.844  0.2799  0.1178  0.6983
 2971SOL    HW112059   2.297   6.742   6.937  1.9918 -0.5188  0.2903
 2971SOL    HW212060   2.351   6.760   6.797  0.0447 -1.7249 -0.6713
 2972SOL     OW12061   3.661   2.561   7.635 -0.1732 -0.3785  0.1849
 2972SOL    HW112062   3.744   2.577   7.589 -0.1281 -1.6293 -0.2152
 2972SOL    HW212063   3.647   2.640   7.687 -0.5076  1.3678 -2.3893
 2973SOL     OW12064   7.431   3.612   0.415 -0.3096  0.1439 -0.0823
 2973SOL    HW112065   7.454   3.621   0.508 -0.2825  0.2033 -0.0947
 2973SOL    HW212066   7.444   3.700   0.379  0.4386 -0.0591 -0.3210
 2974SOL     OW12067   6.283   0.728   4.529  0.2722  0.1332 -0.4052
 2974SOL    HW112068   6.374   0.738   4.500  0.4734 -0.0233  0.1481
 2974SOL    HW212069   6.258   0.640   4.502  0.4883 -0.0443 -0.0438
 2975SOL     OW12070   3.271   6.341   6.682 -0.3280  0.2361  0.4243
 2975SOL    HW112071   3.179   6.312   6.683 -0.9905  2.0484 -1.3370
 2975SOL    HW212072   3.271   6.420   6.735 -0.4160  1.7266 -1.6705
 2976SOL     OW12073   6.521   6.044   7.422 -0.3864  0.3934  0.2973
 2976SOL    HW112074   6.498   6.106   7.491 -1.1344  0.6111 -0.1374
 2976SOL    HW212075   6.451   5.978   7.425 -1.2073  1.1547 -1.1598
 2977SOL     OW12076   7.571   3.295   1.854 -0.1571  0.0723 -0.3713
 2977SOL    HW112077   7.661   3.323   1.869 -0.7620  1.8715  0.1410
 2977SOL    HW212078   7.579   3.204   1.823  1.8034  0.1637 -0.2625
 2978SOL     OW12079   3.121   8.070   5.419  0.1683 -0.3630 -0.0982
 2978SOL    HW112080   3.155   7.985   5.394 -0.1259 -0.8501  1.0771
 2978SOL    HW212081   3.093   8.059   5.510 -0.9455  0.6643 -0.2812
 2979SOL     OW12082   6.648   1.641   0.831 -0.0814  1.1195 -0.0862
 2979SOL    HW112083   6.697   1.653   0.912 -1.7710  1.1047  0.9680
 2979SOL    HW212084   6.583   1.711   0.831 -2.2068 -0.7337  0.2140
 2980SOL     OW12085   6.945   6.556   7.675 -0.3070 -0.0996  0.1220
 2980SOL    HW112086   6.910   6.586   7.758  2.9104 -1.0849  2.0344
 2980SOL    HW212087   7.000   6.480   7.698  2.2194  0.7029 -2.5644
 2981SOL     OW12088   3.571   3.657   4.389 -0.3126 -0.1356 -0.1224
 2981SOL    HW112089   3.635   3.603   4.343 -0.3158  1.0690 -1.6312
 2981SOL    HW212090   3.595   3.650   4.481  2.1256  0.4095 -0.6515
 2982SOL     OW12091   0.477   0.416   4.354 -0.1506 -0.1746 -0.2238
 2982SOL    HW112092   0.436   0.470   4.287 -0.4616  0.4798  0.4807
 2982SOL    HW212093   0.560   0.389   4.316  0.0018  0.7961 -0.5998
 2983SOL     OW12094   1.517   2.521   6.863  0.2180  0.5009 -0.8358
 2983SOL    HW112095   1.547   2.453   6.803  1.0473  1.4631 -1.5546
 2983SOL    HW212096   1.584   2.589   6.857  0.7128  0.3419  1.7415
 2984SOL     OW12097   3.332   7.930   4.687 -0.4315 -0.3242 -0.0219
 2984SOL    HW112098   3.253   7.963   4.646 -1.9340 -0.1269  2.7654
 2984SOL    HW212099   3.302   7.856   4.740  1.5974 -1.4467 -0.3321
 2985SOL     OW12100   2.134   2.208   7.115  0.3009 -0.0115 -0.0813
 2985SOL    HW112101   2.153   2.122   7.153 -0.8101 -0.3844 -0.3567
 2985SOL    HW212102   2.048   2.232   7.150  1.6669  2.1978  2.0929
 2986SOL     OW12103   4.281   1.922   4.663  0.0867  0.0608  0.1524
 2986SOL    HW112104   4.339   1.967   4.601 -0.3417 -1.1845 -1.2067
 2986SOL    HW212105   4.205   1.896   4.610 -0.8958  0.0937  1.5043
 2987SOL     OW12106   4.334   3.152   3.359 -0.4140  0.7312  0.6624
 2987SOL    HW112107   4.397   3.195   3.417 -1.3456  0.9378  1.5425
 2987SOL    HW212108   4.344   3.059   3.378  2.2650  0.3408 -1.9012
 2988SOL     OW12109   6.871   8.091   3.405  0.1181 -0.7351 -0.1344
 2988SOL    HW112110   6.841   8.079   3.315  1.5073 -0.4920 -0.6518
 2988SOL    HW212111   6.807   8.044   3.458 -0.1926 -1.6910 -1.3226
 2989SOL     OW12112   5.520   4.016   5.848  0.2122 -0.0771 -0.6682
 2989SOL    HW112113   5.507   4.087   5.785  0.8575  1.0527  0.4058
 2989SOL    HW212114   5.520   4.060   5.933  1.5448 -1.2455 -0.0195
 2990SOL     OW12115   6.292   7.796   0.190 -0.1176  0.0897  0.1697
 2990SOL    HW112116   6.270   7.878   0.234  0.4430  0.6327 -0.5433
 2990SOL    HW212117   6.332   7.742   0.258  1.2130  1.1076  0.2354
 2991SOL     OW12118   4.404   1.467   5.180  0.0152  0.3347 -0.1178
 2991SOL    HW112119   4.371   1.377   5.193  1.7436 -0.2830  0.2989
 2991SOL    HW212120   4.382   1.512   5.262 -0.3480  0.1311 -0.1002
 2992SOL     OW12121   0.649   7.347   4.387 -0.2379  0.3658  0.2636
 2992SOL    HW112122   0.568   7.301   4.411  0.5057 -0.2670  1.6938
 2992SOL    HW212123   0.621   7.435   4.365 -1.5007 -0.2653 -0.8352
 2993SOL     OW12124   7.010   3.352   3.972  0.5386  0.6027 -0.1626
 2993SOL    HW112125   7.094   3.318   4.002 -0.0047  0.9151  1.8332
 2993SOL    HW212126   6.970   3.279   3.925  1.0174 -0.2671  0.7424
 2994SOL     OW12127   0.858   4.513   0.206  0.4512  0.0568 -0.0904
 2994SOL    HW112128   0.797   4.494   0.278  1.5025 -0.1018  0.7837
 2994SOL    HW212129   0.869   4.429   0.161  1.1880 -0.2885  0.6942
 2995SOL     OW12130   6.477   5.964   5.336 -0.2084  0.1927 -0.1206
 2995SOL    HW112131   6.419   5.889   5.347  1.0025 -0.6401  0.8414
 2995SOL    HW212132   6.433   6.036   5.382 -1.6257  0.2609 -1.4929
 2996SOL     OW12133   7.595   4.478   6.671  0.0285 -0.1467 -0.3798
 2996SOL    HW112134   7.671   4.518   6.629  0.8423 -0.2935  0.8797
 2996SOL    HW212135   7.626   4.391   6.698 -0.7659 -0.4269 -0.3680
 2997SOL     OW12136   3.789   4.858   0.169 -0.3458  0.0016  0.6614
 2997SOL    HW112137   3.882   4.837   0.176 -0.0849  1.3504  1.7088
 2997SOL    HW212138   3.771   4.860   0.075  0.8555  0.3997  0.4335
 2998SOL     OW12139   4.572   1.965   6.202 -0.1470  0.2188 -0.3219
 2998SOL    HW112140   4.628   1.944   6.128 -0.9376  0.6022 -1.0583
 2998SOL    HW212141   4.610   1.919   6.276  2.0872  1.7780 -0.4199
 2999SOL     OW12142   7.524   2.196   6.282 -0.4107  0.2562  0.2705
 2999SOL    HW112143   7.528   2.238   6.368  2.3214  1.0884 -0.1521
 2999SOL    HW212144   7.468   2.253   6.229 -0.0559  1.1366  0.8317
 3000SOL     OW12145   1.918   3.409   5.816  0.3604  0.4654  0.5428
 3000SOL    HW112146   1.834   3.431   5.857  0.1046  0.5871 -0.0243
 3000SOL    HW212147   1.983   3.458   5.866  0.1445  0.0399  1.2545
 3001SOL     OW12148   7.991   4.693   4.952  0.1294  0.2598 -0.3136
 3001SOL    HW112149   8.012   4.719   5.041 -0.1276  2.4713 -0.8549
 3001SOL    HW212150   8.046   4.748   4.896 -1.5799  0.7876 -1.5688
 3002SOL     OW12151   2.988   7.415   4.949 -0.2133  0.1365  0.0447
 3002SOL    HW112152   2.936   7.337   4.971 -1.5580  0.4886 -1.6254
 3002SOL    HW212153   2.964   7.479   5.016 -0.2862 -0.3860  0.5307
 3003SOL     OW12154   3.784   2.646   3.125 -0.1657  0.2811 -0.5536
 3003SOL    HW112155   3.697   2.680   3.102 -0.7592 -1.0868 -0.4076
 3003SOL    HW212156   3.797   2.572   3.066  1.6807  1.4794 -1.7942
 3004SOL     OW12157   6.451   0.895   1.630 -0.1192  0.1581  0.4213
 3004SOL    HW112158   6.453   0.887   1.535 -0.6974 -1.0847  0.4992
 3004SOL    HW212159   6.449   0.805   1.662 -1.8711  0.5537  1.5463
 3005SOL     OW12160   1.526   5.950   0.806 -0.0667 -0.4888  0.1281
 3005SOL    HW112161   1.439   5.980   0.831 -1.0404 -1.5160 -1.8251
 3005SOL    HW212162   1.581   6.029   0.813 -2.1938  1.5594 -3.2780
 3006SOL     OW12163   1.931   5.115   3.535 -0.1945 -0.0008 -0.4510
 3006SOL    HW112164   2.007   5.089   3.587 -0.3726 -0.7871 -0.5741
 3006SOL    HW212165   1.869   5.150   3.599 -0.6397 -1.4818 -0.0341
 3007SOL     OW12166   5.133   2.384   0.698  0.8306 -0.6308  0.1130
 3007SOL    HW112167   5.179   2.429   0.627  1.8338  0.6336  1.4973
 3007SOL    HW212168   5.059   2.440   0.719  1.1802 -0.4294  0.8075
 3008SOL     OW12169   0.414   3.581   5.189 -1.3188  0.2847 -0.4689
 3008SOL    HW112170   0.505   3.550   5.187 -1.3699  0.1204 -0.2848
 3008SOL    HW212171   0.369   3.518   5.245 -1.5123  0.4627 -0.4242
 3009SOL     OW12172   2.091   6.778   7.644 -0.1064  0.4308  0.3861
 3009SOL    HW112173   2.081   6.706   7.581 -0.9047  1.2427 -0.4459
 3009SOL    HW212174   2.166   6.827   7.612  2.2544 -1.5218  2.5102
 3010SOL     OW12175   7.383   6.146   5.714  0.2468 -0.3755  0.1714
 3010SOL    HW112176   7.414   6.132   5.803 -1.3001 -0.4442  0.7294
 3010SOL    HW212177   7.323   6.072   5.697  1.0178 -0.7303 -1.1732
 3011SOL     OW12178   7.193   2.402   6.320 -0.0033 -0.3351  0.3684
 3011SOL    HW112179   7.263   2.467   6.317  1.1985 -1.6122 -1.7771
 3011SOL    HW212180   7.112   2.452   6.305  0.5856  0.9501  1.2982
 3012SOL     OW12181   0.368   5.814   5.260  0.2827 -0.4090 -0.8770
 3012SOL    HW112182   0.458   5.804   5.290  0.0953 -1.0029 -0.4844
 3012SOL    HW212183   0.375   5.832   5.166  0.9460  2.4132 -0.4054
 3013SOL     OW12184   2.041   2.149   5.313  0.2078  0.3897  0.4574
 3013SOL    HW112185   2.123   2.156   5.362  0.1250  1.9582  0.4208
 3013SOL    HW212186   1.994   2.077   5.356  1.0038  0.3923  1.3776
 3014SOL     OW12187   1.670   7.530   5.399 -0.0445  0.4061  0.0177
 3014SOL    HW112188   1.646   7.523   5.307 -0.0146  0.8015 -0.0225
 3014SOL    HW212189   1.609   7.471   5.445 -0.4988  0.7138 -0.1806
 3015SOL     OW12190   0.247   7.966   7.578  0.0571 -0.1338 -0.0874
 3015SOL    HW112191   0.251   7.879   7.616  0.6699  0.7099  1.9372
 3015SOL    HW212192   0.302   8.020   7.636 -1.4568  1.8769 -0.4199
 3016SOL     OW12193   1.512   6.872   4.311  0.0955  0.4046  0.0067
 3016SOL    HW112194   1.602   6.862   4.281  0.5051  1.2218  0.9100
 3016SOL    HW212195   1.458   6.843   4.237  1.0442  2.2833 -1.5058
 3017SOL     OW12196   6.921   7.676   0.927  0.3522  0.4282  0.7525
 3017SOL    HW112197   6.830   7.698   0.948  0.6670  1.2163  1.3415
 3017SOL    HW212198   6.971   7.710   1.001  1.0298 -0.9611  0.9761
 3018SOL     OW12199   2.777   4.150   2.749  0.1802  0.3047  0.4867
 3018SOL    HW112200   2.821   4.189   2.674 -3.0256  0.9390 -1.2488
 3018SOL    HW212201   2.801   4.058   2.745 -0.2756  0.2122 -1.6985
 3019SOL     OW12202   5.435   0.542   3.547 -0.3156  0.1069 -0.2145
 3019SOL    HW112203   5.463   0.634   3.537  1.1016 -0.4076 -1.2990
 3019SOL    HW212204   5.498   0.505   3.609 -0.9440 -0.1346  0.2952
 3020SOL     OW12205   1.923   1.192   7.930 -0.2038  0.0102 -0.3586
 3020SOL    HW112206   1.845   1.162   7.884  0.1801 -0.8018 -0.4842
 3020SOL    HW212207   1.962   1.257   7.871 -0.4158 -0.0823 -0.6007
 3021SOL     OW12208   3.966   0.962   5.358  0.0131 -0.1402 -0.3407
 3021SOL    HW112209   3.873   0.967   5.381  0.0217  0.8275 -0.4656
 3021SOL    HW212210   4.010   0.950   5.442 -0.1947 -0.1689 -0.2343
 3022SOL     OW12211   3.792   4.985   6.774 -0.3610 -0.1013  0.2674
 3022SOL    HW112212   3.860   4.921   6.753 -1.8342 -2.4432  2.0438
 3022SOL    HW212213   3.840   5.061   6.808  1.4128 -0.8586 -0.4510
 3023SOL     OW12214   1.582   7.567   2.969  0.5092  0.6493  0.1700
 3023SOL    HW112215   1.657   7.625   2.958  0.2617  1.0657  0.6405
 3023SOL    HW212216   1.517   7.619   3.016  0.5085 -0.1927  1.1513
 3024SOL     OW12217   0.200   0.855   7.148  0.2039  0.6459 -0.5496
 3024SOL    HW112218   0.229   0.827   7.061  0.9097 -1.0492  0.1893
 3024SOL    HW212219   0.260   0.926   7.172  0.5217  0.5748 -1.1152
 3025SOL     OW12220   0.148   0.685   4.374  0.1920  0.0184  0.3128
 3025SOL    HW112221   0.191   0.746   4.434  1.9461  0.9103 -1.7280
 3025SOL    HW212222   0.094   0.740   4.318  0.6248 -0.4514 -0.5913
 3026SOL     OW12223   0.190   0.808   3.336 -0.2418  0.7952  0.2119
 3026SOL    HW112224   0.122   0.870   3.362  0.3651  1.4272  0.3208
 3026SOL    HW212225   0.151   0.722   3.350 -2.0363  1.0896 -2.2891
 3027SOL     OW12226   4.468   6.029   6.025  0.3009 -0.1627 -0.1223
 3027SOL    HW112227   4.483   6.116   5.988 -0.2605 -0.0975 -0.2053
 3027SOL    HW212228   4.545   5.978   6.000  0.7309  0.3662  0.0994
 3028SOL     OW12229   1.982   7.719   4.997  0.7841 -0.3922  0.4034
 3028SOL    HW112230   2.017   7.633   4.971 -1.0183 -1.3493  1.0447
 3028SOL    HW212231   1.888   7.707   4.999  0.3576  2.0506 -0.9874
 3029SOL     OW12232   4.777   6.080   6.150  0.0012  1.0818 -0.9782
 3029SOL    HW112233   4.856   6.032   6.176 -1.2954 -0.8204 -0.3024
 3029SOL    HW212234   4.803   6.172   6.153  2.5781  0.4720 -2.2256
 3030SOL     OW12235   1.127   2.881   6.838 -0.1972  0.6543 -0.2880
 3030SOL    HW112236   1.157   2.791   6.831 -0.4675  0.5105  0.3336
 3030SOL    HW212237   1.205   2.934   6.825 -0.1430  0.3493 -1.2644
 3031SOL     OW12238   4.876   1.119   1.388  0.0263 -0.2578  0.2123
 3031SOL    HW112239   4.971   1.124   1.396 -0.1182  0.7034  1.6076
 3031SOL    HW212240   4.851   1.201   1.346  0.0745 -2.0911 -3.8856
 3032SOL     OW12241   6.711   7.798   0.157  0.2591 -0.0088 -0.2604
 3032SOL    HW112242   6.700   7.854   0.233  0.6063  0.7023 -0.7285
 3032SOL    HW212243   6.668   7.845   0.085  0.9136 -0.1270 -0.7475
 3033SOL     OW12244   6.648   4.866   2.295 -0.2951 -0.2968 -0.5539
 3033SOL    HW112245   6.556   4.848   2.276  0.0632 -1.7132 -1.0939
 3033SOL    HW212246   6.690   4.780   2.296  0.8737  0.2420  0.5848
 3034SOL     OW12247   6.390   3.812   2.201 -0.0220 -0.6911  0.0914
 3034SOL    HW112248   6.454   3.852   2.142 -0.1843 -1.6034 -0.7422
 3034SOL    HW212249   6.442   3.781   2.275  0.5214 -1.3880 -0.5586
 3035SOL     OW12250   4.134   2.562   7.986  0.0806 -0.5427 -0.4510
 3035SOL    HW112251   4.102   2.496   8.047 -0.9630 -1.1020 -1.5788
 3035SOL    HW212252   4.172   2.631   8.042  0.2618 -1.6037  0.7637
 3036SOL     OW12253   2.880   1.990   4.480 -0.1660 -0.1894 -0.0069
 3036SOL    HW112254   2.789   1.965   4.465 -0.2185 -0.0662  0.1034
 3036SOL    HW212255   2.896   1.966   4.572  0.2265 -1.1757 -0.3238
 3037SOL     OW12256   0.503   0.634   5.770 -0.2116  0.2719 -0.1468
 3037SOL    HW112257   0.577   0.660   5.824  0.2630 -0.4887 -0.4140
 3037SOL    HW212258   0.480   0.546   5.800 -2.0541  1.0889  1.0355
 3038SOL     OW12259   7.100   7.555   0.221 -0.4272 -0.1207 -0.2962
 3038SOL    HW112260   7.134   7.541   0.309  0.9154  1.4310 -0.5213
 3038SOL    HW212261   7.124   7.476   0.173  0.2681 -0.2964  0.3229
 3039SOL     OW12262   1.043   5.517   6.814 -0.5351 -0.1186  0.7291
 3039SOL    HW112263   1.137   5.511   6.800 -0.3064  1.0731  1.5471
 3039SOL    HW212264   1.006   5.523   6.726  0.2096  0.1111  0.4200
 3040SOL     OW12265   1.669   4.150   7.187 -0.2572 -0.1427  0.1761
 3040SOL    HW112266   1.666   4.178   7.279  1.7266  2.8390 -0.5392
 3040SOL    HW212267   1.597   4.088   7.179 -2.0628  1.3256  3.1708
 3041SOL     OW12268   4.748   3.501   6.906  0.2703  0.5063 -0.2047
 3041SOL    HW112269   4.710   3.588   6.899 -1.8188 -0.2498  0.8042
 3041SOL    HW212270   4.830   3.514   6.953 -1.1127  1.7434  2.1004
 3042SOL     OW12271   5.795   1.984   4.292 -0.0371  0.2435 -0.3102
 3042SOL    HW112272   5.769   2.012   4.204  0.9685  1.5819 -0.2102
 3042SOL    HW212273   5.868   2.041   4.314  1.1876 -1.5654  0.5129
 3043SOL     OW12274   6.189   6.962   1.187  0.3832  0.1877  0.0257
 3043SOL    HW112275   6.277   6.950   1.151  0.4182  0.4259  0.0246
 3043SOL    HW212276   6.199   7.037   1.247 -0.0498  0.9221 -0.7960
 3044SOL     OW12277   5.423   6.776   6.794 -0.1154 -0.1605 -0.1080
 3044SOL    HW112278   5.368   6.701   6.816 -0.0899 -0.7281 -1.8363
 3044SOL    HW212279   5.467   6.751   6.713  3.2698 -0.0278  1.5306
 3045SOL     OW12280   2.156   3.772   1.871  0.3828 -0.3864  0.5505
 3045SOL    HW112281   2.074   3.724   1.886  0.8491 -1.2060  0.5420
 3045SOL    HW212282   2.176   3.812   1.955 -0.2663  0.2176  0.4308
 3046SOL     OW12283   6.568   0.643   6.557 -0.3314  0.0088  0.0191
 3046SOL    HW112284   6.600   0.554   6.545  0.1875  0.0154  1.2680
 3046SOL    HW212285   6.643   0.698   6.537  0.4653  0.0312  2.7308
 3047SOL     OW12286   1.323   6.096   2.388 -0.4247  0.3653  0.1215
 3047SOL    HW112287   1.281   6.181   2.376  1.1404  1.1877  0.2739
 3047SOL    HW212288   1.298   6.045   2.310 -2.6710  0.3678  0.7819
 3048SOL     OW12289   3.262   0.676   5.639 -0.2891  0.1415 -0.3316
 3048SOL    HW112290   3.170   0.702   5.648  0.0321  0.5660  2.3493
 3048SOL    HW212291   3.304   0.751   5.597 -1.1220 -0.0826 -1.6578
 3049SOL     OW12292   3.626   7.994   5.084 -0.0372  0.3083  0.2359
 3049SOL    HW112293   3.629   8.059   5.154  0.6252  1.8006 -1.1062
 3049SOL    HW212294   3.532   7.984   5.065 -0.1208  2.7989 -1.1531
 3050SOL     OW12295   2.520   5.103   1.859 -0.3537  0.2624 -0.3614
 3050SOL    HW112296   2.474   5.181   1.890  1.3071  1.1524 -0.0031
 3050SOL    HW212297   2.567   5.071   1.935  1.2444  0.6099 -1.1630
 3051SOL     OW12298   5.401   7.644   7.217  0.2914 -0.4016  0.1796
 3051SOL    HW112299   5.460   7.597   7.158  0.1132  0.7137 -0.9322
 3051SOL    HW212300   5.334   7.579   7.239  1.2205 -1.3058  0.4444
 3052SOL     OW12301   4.066   2.124   2.727 -0.2407  0.5581  0.0230
 3052SOL    HW112302   4.029   2.044   2.689 -1.0831  0.3811  1.1416
 3052SOL    HW212303   4.028   2.195   2.676  0.9217  0.2611 -1.3258
 3053SOL     OW12304   0.835   2.532   1.860  0.0577  0.1716  0.1152
 3053SOL    HW112305   0.842   2.443   1.826 -1.9564 -0.6455  1.6219
 3053SOL    HW212306   0.926   2.564   1.862  0.7683 -1.6321 -0.9660
 3054SOL     OW12307   7.817   2.024   0.107 -0.5648 -0.2249 -0.2165
 3054SOL    HW112308   7.833   2.118   0.100  0.5831 -0.4759 -1.1336
 3054SOL    HW212309   7.818   2.007   0.202  1.6794  0.3084 -0.0915
 3055SOL     OW12310   5.954   2.911   1.485 -0.1553 -0.1355  0.1294
 3055SOL    HW112311   5.921   2.828   1.451  2.2107 -1.2457  0.3473
 3055SOL    HW212312   6.046   2.893   1.507 -0.1083  2.0054  2.0253
 3056SOL     OW12313   3.620   6.309   4.539 -0.0883 -0.1154  0.3493
 3056SOL    HW112314   3.676   6.232   4.539  0.2062  0.0903  0.6472
 3056SOL    HW212315   3.565   6.300   4.462 -0.3938 -0.8640  0.6473
 3057SOL     OW12316   4.376   7.006   4.182 -0.3835 -0.4389 -0.0928
 3057SOL    HW112317   4.331   7.090   4.167 -1.3347 -1.0635 -0.8689
 3057SOL    HW212318   4.363   6.957   4.100  1.3637 -0.8166 -0.1749
 3058SOL     OW12319   1.538   5.554   2.200 -0.4715  0.2386 -0.5840
 3058SOL    HW112320   1.592   5.547   2.122  1.6929  1.6428  0.6882
 3058SOL    HW212321   1.581   5.499   2.265  0.2468  2.3783  0.8404
 3059SOL     OW12322   4.849   3.277   1.453  0.0928 -0.3052  0.0077
 3059SOL    HW112323   4.880   3.225   1.528 -1.1280 -2.5680 -0.9682
 3059SOL    HW212324   4.831   3.213   1.385  0.2848  1.6121 -1.9675
 3060SOL     OW12325   2.850   1.752   3.727  0.7456  0.3082  0.2718
 3060SOL    HW112326   2.814   1.742   3.815 -0.7511 -1.2497 -0.4586
 3060SOL    HW212327   2.814   1.835   3.695  0.4790  0.3776  0.7530
 3061SOL     OW12328   0.701   1.664   3.654  0.2640 -0.1458  0.6633
 3061SOL    HW112329   0.779   1.643   3.705  0.5685  0.3432  0.4097
 3061SOL    HW212330   0.639   1.594   3.674  1.2299 -1.2763 -0.1353
 3062SOL     OW12331   7.823   5.138   6.787  0.1099 -0.3909  0.2519
 3062SOL    HW112332   7.872   5.212   6.824  2.1383 -0.4582 -2.0582
 3062SOL    HW212333   7.865   5.060   6.823  1.5154 -0.4363 -1.3350
 3063SOL     OW12334   0.954   0.301   4.594  0.2906 -0.0352 -0.3013
 3063SOL    HW112335   0.900   0.379   4.584 -0.9094 -0.7506  0.3812
 3063SOL    HW212336   0.984   0.281   4.505 -3.7556 -1.8090 -1.4961
 3064SOL     OW12337   5.349   1.234   3.294 -0.3689 -1.0306 -0.2807
 3064SOL    HW112338   5.303   1.309   3.333  1.6972  0.4871 -0.5776
 3064SOL    HW212339   5.419   1.215   3.356 -1.5569 -3.6161  0.4139
 3065SOL     OW12340   5.045   1.230   6.567 -0.6400 -0.2950  0.1059
 3065SOL    HW112341   5.114   1.274   6.616 -1.5107  0.5487  0.5979
 3065SOL    HW212342   5.092   1.169   6.509  0.7173  2.3424 -1.7560
 3066SOL     OW12343   3.341   2.366   2.316 -1.1280 -0.3112  0.5651
 3066SOL    HW112344   3.393   2.290   2.290  0.6948  0.7108  1.0572
 3066SOL    HW212345   3.250   2.336   2.310 -0.5445 -1.9868 -0.9321
 3067SOL     OW12346   7.488   1.068   6.193 -0.4377 -0.0012 -0.0268
 3067SOL    HW112347   7.540   1.147   6.206  0.9719 -0.9164  0.0131
 3067SOL    HW212348   7.549   0.996   6.205 -0.4974 -1.1146 -4.5318
 3068SOL     OW12349   2.637   6.702   5.389  0.4189  0.1846 -0.4959
 3068SOL    HW112350   2.616   6.615   5.423  1.3148 -0.2152 -0.9426
 3068SOL    HW212351   2.731   6.712   5.404  0.7732  0.1656 -2.4094
 3069SOL     OW12352   2.013   5.286   5.653  0.1428  0.9775 -0.5654
 3069SOL    HW112353   2.073   5.342   5.605  0.9687  1.1258  0.5982
 3069SOL    HW212354   2.057   5.202   5.660  0.4285  1.2016  0.6380
 3070SOL     OW12355   6.914   1.139   2.573 -0.0610  0.2121  0.5249
 3070SOL    HW112356   6.896   1.176   2.659 -0.5359 -1.2004  1.0612
 3070SOL    HW212357   6.996   1.092   2.583  0.0349  0.2859  0.1164
 3071SOL     OW12358   6.581   6.143   5.533 -0.0498  0.6942 -0.0813
 3071SOL    HW112359   6.668   6.104   5.521  0.2201  1.3495 -0.3160
 3071SOL    HW212360   6.533   6.078   5.585 -0.1228 -0.6331 -1.7405
 3072SOL     OW12361   0.843   0.574   7.502 -0.6549  0.3521  0.0301
 3072SOL    HW112362   0.811   0.489   7.472 -0.3073  0.0314  0.5366
 3072SOL    HW212363   0.765   0.619   7.533 -0.5796 -0.6768  1.8724
 3073SOL     OW12364   2.839   2.497   4.124  0.1846 -0.4592  0.1621
 3073SOL    HW112365   2.894   2.522   4.049 -0.8949  2.1523  0.1280
 3073SOL    HW212366   2.896   2.509   4.200  0.1073  0.9989  0.0271
 3074SOL     OW12367   7.897   0.586   2.612  0.4252 -0.3322 -0.4699
 3074SOL    HW112368   7.902   0.492   2.623 -0.4917 -0.4940 -1.2449
 3074SOL    HW212369   7.833   0.598   2.541 -0.6886  0.9153  0.6785
 3075SOL     OW12370   7.329   2.876   0.066 -0.7324  0.5759 -0.7655
 3075SOL    HW112371   7.275   2.797   0.072 -1.6636  1.2616  0.4175
 3075SOL    HW212372   7.285   2.940   0.122  0.0684  1.9090 -1.5802
 3076SOL     OW12373   5.926   3.950   1.111  0.4952  0.5788 -0.1235
 3076SOL    HW112374   5.951   3.921   1.023 -2.4053 -1.8166 -0.3106
 3076SOL    HW212375   5.938   3.872   1.166 -0.3870  1.2115  1.0064
 3077SOL     OW12376   4.109   6.770   2.329 -0.2844 -0.0072 -0.0355
 3077SOL    HW112377   4.126   6.834   2.260 -1.3953  2.8035  2.1021
 3077SOL    HW212378   4.192   6.763   2.376 -0.8344  2.1857  1.4137
 3078SOL     OW12379   2.375   3.072   0.142 -0.1892 -0.0134  0.3738
 3078SOL    HW112380   2.429   3.071   0.063  1.6436 -2.3272  1.5427
 3078SOL    HW212381   2.343   2.982   0.150 -1.5549  0.5357  1.5205
 3079SOL     OW12382   7.003   4.569   0.751  0.4546  0.1401  0.4804
 3079SOL    HW112383   6.955   4.495   0.788 -0.4655  0.5255  0.0670
 3079SOL    HW212384   7.087   4.532   0.723 -0.4191 -0.9802 -0.7392
 3080SOL     OW12385   4.278   0.802   3.841 -0.2006 -0.2729 -0.8224
 3080SOL    HW112386   4.244   0.779   3.927  0.8115  0.5573 -0.1755
 3080SOL    HW212387   4.369   0.771   3.843 -0.4079 -1.0208 -1.9238
 3081SOL     OW12388   1.556   6.616   2.066  0.1841 -0.3547 -0.6105
 3081SOL    HW112389   1.645   6.584   2.081 -0.5037 -2.7675 -1.2432
 3081SOL    HW212390   1.515   6.615   2.153  0.4736 -0.1607 -0.4700
 3082SOL     OW12391   4.599   0.143   0.912 -0.1820  0.0747  0.0187
 3082SOL    HW112392   4.650   0.075   0.869 -0.3539 -0.4984  0.7092
 3082SOL    HW212393   4.665   0.205   0.945 -0.0106  0.0851 -0.3420
 3083SOL     OW12394   4.355   4.134   5.189  0.3942 -0.1068  0.0332
 3083SOL    HW112395   4.299   4.139   5.112 -0.2694 -0.8540  0.4528
 3083SOL    HW212396   4.442   4.114   5.155  0.0152 -0.8859 -0.4990
 3084SOL     OW12397   2.006   5.828   6.317 -0.1749 -0.0226 -0.0517
 3084SOL    HW112398   2.100   5.815   6.306 -0.5639 -0.6254 -3.4985
 3084SOL    HW212399   1.974   5.746   6.353  0.0407 -1.8957 -3.7031
 3085SOL     OW12400   5.857   2.259   4.046 -0.2916  0.1367 -0.0808
 3085SOL    HW112401   5.822   2.324   3.985  0.6781 -1.1606 -2.1231
 3085SOL    HW212402   5.949   2.252   4.022  0.0022 -0.7874  1.2391
 3086SOL     OW12403   3.930   7.691   3.199 -0.0180 -0.1804  0.1082
 3086SOL    HW112404   3.943   7.778   3.235  1.5467 -0.6090  0.6593
 3086SOL    HW212405   3.856   7.655   3.247  0.1267  0.3874  0.7629
 3087SOL     OW12406   0.137   3.156   2.460  0.5188 -0.1241 -0.6774
 3087SOL    HW112407   0.068   3.094   2.481  1.4006 -2.1518 -3.1894
 3087SOL    HW212408   0.093   3.226   2.413 -0.4738  1.2289  2.0744
 3088SOL     OW12409   6.006   1.105   4.227  0.0249 -0.1107  0.6230
 3088SOL    HW112410   6.100   1.107   4.208  0.7524  3.8714  3.3715
 3088SOL    HW212411   6.001   1.098   4.322 -2.5805 -1.3365  0.4722
 3089SOL     OW12412   1.155   3.840   6.497  0.6623 -0.7762 -0.0580
 3089SOL    HW112413   1.198   3.755   6.499  1.0209 -0.5857  1.2839
 3089SOL    HW212414   1.217   3.899   6.540  0.2359  0.0780 -0.5836
 3090SOL     OW12415   5.655   3.269   2.125 -0.3501 -0.0291 -0.6050
 3090SOL    HW112416   5.712   3.344   2.141  0.0760 -0.4339 -0.1821
 3090SOL    HW212417   5.614   3.252   2.210  0.9382 -1.3922 -0.2106
 3091SOL     OW12418   7.506   5.784   0.469 -0.5739 -0.8104  0.3803
 3091SOL    HW112419   7.521   5.877   0.457 -0.2666 -1.0218 -1.0124
 3091SOL    HW212420   7.592   5.744   0.460 -0.8272 -1.3093  0.1122
 3092SOL     OW12421   7.257   2.166   6.563 -0.2847 -0.1673 -0.4299
 3092SOL    HW112422   7.278   2.246   6.611 -1.4954 -0.4675  0.6651
 3092SOL    HW212423   7.256   2.192   6.471  1.5160  0.5528 -0.2787
 3093SOL     OW12424   4.937   0.722   6.894 -0.3823  0.8317 -0.0991
 3093SOL    HW112425   5.033   0.726   6.891 -0.3803  1.1945  0.3259
 3093SOL    HW212426   4.909   0.761   6.812 -0.1654  0.6506 -0.2614
 3094SOL     OW12427   2.870   5.465   2.986  0.0020 -0.0332 -0.1857
 3094SOL    HW112428   2.884   5.370   2.994  0.5977  0.1110  0.6210
 3094SOL    HW212429   2.800   5.484   3.048  0.7961  0.2461  0.6429
 3095SOL     OW12430   0.171   3.098   3.234 -0.2840  0.9984  0.8220
 3095SOL    HW112431   0.246   3.151   3.207 -1.4032  2.4128  0.3739
 3095SOL    HW212432   0.095   3.154   3.218 -1.5024 -0.6441  0.6070
 3096SOL     OW12433   3.506   7.289   7.528  0.3596  0.5346  0.6332
 3096SOL    HW112434   3.542   7.258   7.611  0.0104  0.1094  0.6339
 3096SOL    HW212435   3.528   7.382   7.525  0.1551  0.6148  1.3264
 3097SOL     OW12436   0.621   2.441   6.418  0.5231  0.2527 -0.0619
 3097SOL    HW112437   0.616   2.511   6.483  0.2399  1.2299 -1.0972
 3097SOL    HW212438   0.709   2.448   6.382  0.2723  0.5588 -0.6491
 3098SOL     OW12439   7.154   3.799   7.722  0.0670 -0.3177  0.0785
 3098SOL    HW112440   7.227   3.756   7.767 -0.5038 -0.2802  1.0572
 3098SOL    HW212441   7.186   3.888   7.705  0.2130 -0.2689  0.5994
 3099SOL     OW12442   5.839   1.474   1.412 -0.0247 -0.0678 -0.1828
 3099SOL    HW112443   5.826   1.546   1.473  0.4682 -0.5615  0.5211
 3099SOL    HW212444   5.762   1.477   1.355  0.1564  1.2140 -0.3887
 3100SOL     OW12445   6.557   3.933   2.006 -0.1770 -0.2361 -0.5229
 3100SOL    HW112446   6.466   3.918   1.980 -0.1093  1.0781 -1.6304
 3100SOL    HW212447   6.580   4.017   1.965  1.9107 -1.1148 -1.2590
 3101SOL     OW12448   0.874   4.699   0.840 -1.1919  0.7480  0.4102
 3101SOL    HW112449   0.883   4.794   0.852 -1.9367  0.7352  1.1624
 3101SOL    HW212450   0.789   4.678   0.877 -2.1018  0.1303 -1.8856
 3102SOL     OW12451   1.706   4.648   4.370 -0.5588  0.3717 -0.7633
 3102SOL    HW112452   1.782   4.683   4.417 -1.2878  0.5148  0.3606
 3102SOL    HW212453   1.724   4.667   4.278  0.3493  1.2076 -0.4387
 3103SOL     OW12454   7.777   3.261   2.298 -0.6624 -0.1012 -0.2739
 3103SOL    HW112455   7.869   3.267   2.272 -0.7376 -0.8322 -0.7177
 3103SOL    HW212456   7.779   3.229   2.388 -0.4879 -0.1962 -0.3124
 3104SOL     OW12457   0.254   1.418   6.496  0.1663  0.2532 -0.2731
 3104SOL    HW112458   0.348   1.425   6.480  0.4541  0.3229  1.2807
 3104SOL    HW212459   0.224   1.509   6.499  0.4942  0.3465  1.4433
 3105SOL     OW12460   2.623   3.736   7.357 -0.4831 -0.4256 -0.2317
 3105SOL    HW112461   2.601   3.693   7.440  1.7149  0.7781  1.0680
 3105SOL    HW212462   2.603   3.828   7.371 -0.9792 -0.3278 -1.4210
 3106SOL     OW12463   1.508   6.647   2.350 -0.1763 -0.3228 -0.1724
 3106SOL    HW112464   1.468   6.561   2.360  0.7798 -1.2396 -3.3033
 3106SOL    HW212465   1.602   6.632   2.363  0.0073  0.2360 -0.8107
 3107SOL     OW12466   3.919   5.763   1.844  0.8415 -0.5094  0.0728
 3107SOL    HW112467   3.949   5.842   1.799  1.4745 -1.1042 -0.5728
 3107SOL    HW212468   3.863   5.718   1.780  0.1323 -0.3826  0.5880
 3108SOL     OW12469   7.894   1.598   7.886 -0.6366 -0.5860 -0.4591
 3108SOL    HW112470   7.974   1.638   7.920 -0.1256 -0.0618 -2.1796
 3108SOL    HW212471   7.925   1.534   7.823 -1.5715 -0.6442 -0.8686
 3109SOL     OW12472   5.699   4.604   4.049  0.4373  0.0170 -0.5407
 3109SOL    HW112473   5.725   4.691   4.019 -2.0639  0.5487 -1.4619
 3109SOL    HW212474   5.643   4.621   4.125 -0.0885 -0.7756 -0.7465
 3110SOL     OW12475   5.112   8.069   5.293 -0.1532 -0.0491 -0.0483
 3110SOL    HW112476   5.086   8.131   5.362  0.7436 -0.5187  0.7482
 3110SOL    HW212477   5.201   8.096   5.270 -0.6107  0.3750 -1.3635
 3111SOL     OW12478   3.259   0.370   3.970 -0.8590 -0.2937 -0.4611
 3111SOL    HW112479   3.198   0.420   4.025 -1.5841 -3.0654  1.4667
 3111SOL    HW212480   3.222   0.376   3.882 -0.2295  3.4245 -0.6231
 3112SOL     OW12481   3.013   6.254   6.154 -0.3862 -0.2263  0.1295
 3112SOL    HW112482   2.989   6.271   6.245 -0.1602  0.7504  0.0190
 3112SOL    HW212483   2.956   6.183   6.127 -0.9932 -0.0049  0.8032
 3113SOL     OW12484   6.652   2.332   7.017 -0.6556  0.0055 -0.3061
 3113SOL    HW112485   6.656   2.356   6.925 -0.2278  1.1345 -0.0078
 3113SOL    HW212486   6.598   2.401   7.057  2.3289  1.8312  0.9447
 3114SOL     OW12487   1.487   1.883   0.406  0.8036  0.1666 -0.2576
 3114SOL    HW112488   1.536   1.959   0.436  1.2799  0.2278 -1.1680
 3114SOL    HW212489   1.404   1.888   0.454  1.2237  0.6923  0.4346
 3115SOL     OW12490   0.605   0.927   4.454 -0.1399  0.0541 -0.2994
 3115SOL    HW112491   0.557   0.882   4.385 -1.5816  1.2698 -0.1413
 3115SOL    HW212492   0.656   0.994   4.408  1.0509 -0.9021 -0.4163
 3116SOL     OW12493   3.874   5.261   3.561  0.5031  0.6278  0.1348
 3116SOL    HW112494   3.829   5.271   3.478  2.1562 -0.2775 -0.9427
 3116SOL    HW212495   3.953   5.314   3.552  2.3100 -1.9280 -0.2098
 3117SOL     OW12496   1.397   0.452   2.798 -0.2109  0.1034 -0.0614
 3117SOL    HW112497   1.360   0.505   2.726 -0.2617 -0.2027 -0.2621
 3117SOL    HW212498   1.330   0.454   2.866  0.3501  1.4241  0.4812
 3118SOL     OW12499   0.321   5.691   2.468 -0.8031 -0.4555 -0.1003
 3118SOL    HW112500   0.404   5.643   2.474 -0.6097 -0.1236 -0.1390
 3118SOL    HW212501   0.257   5.633   2.511 -0.1927  0.1693  1.7283
 3119SOL     OW12502   5.411   0.383   6.524  0.4781 -0.4872 -0.6465
 3119SOL    HW112503   5.347   0.443   6.487 -0.1411 -0.3137  0.6456
 3119SOL    HW212504   5.407   0.398   6.618  2.7842 -0.1300 -0.5410
 3120SOL     OW12505   6.160   0.982   1.790  0.0868  0.2540  0.1637
 3120SOL    HW112506   6.156   0.938   1.875  1.3416 -0.9492 -0.3573
 3120SOL    HW212507   6.184   0.913   1.728 -2.0902  0.8103 -1.4206
 3121SOL     OW12508   2.243   1.312   1.463  0.5709  0.5922 -0.2341
 3121SOL    HW112509   2.313   1.375   1.446  1.7269 -0.9705 -1.6319
 3121SOL    HW212510   2.166   1.349   1.422  1.1472  1.2365 -0.7648
 3122SOL     OW12511   5.110   4.312   0.594 -0.6679 -0.1727  0.4287
 3122SOL    HW112512   5.051   4.265   0.535  0.6167 -0.1745 -0.9401
 3122SOL    HW212513   5.117   4.399   0.556 -0.3444  0.0367  0.9651
 3123SOL     OW12514   2.932   0.526   0.690  0.0834  0.0477  0.5034
 3123SOL    HW112515   2.986   0.559   0.761 -1.0837  1.0442  0.9691
 3123SOL    HW212516   2.855   0.490   0.734 -0.4339  0.2427 -0.2243
 3124SOL     OW12517   5.969   7.124   6.731  0.1763 -0.5556  0.8082
 3124SOL    HW112518   6.064   7.131   6.726  0.1947 -1.2275  0.1118
 3124SOL    HW212519   5.949   7.141   6.823  1.1259 -2.2452  1.3668
 3125SOL     OW12520   4.352   0.280   7.205  0.0380 -0.3717  0.0143
 3125SOL    HW112521   4.426   0.307   7.151  0.9322 -0.7558  0.9934
 3125SOL    HW212522   4.344   0.185   7.190 -2.2134  0.0986 -2.3686
 3126SOL     OW12523   4.944   0.765   3.180  0.0544  0.3892  0.3711
 3126SOL    HW112524   4.930   0.842   3.124  1.6145  0.5806  0.1951
 3126SOL    HW212525   5.006   0.796   3.247  0.7781 -0.7437  0.2401
 3127SOL     OW12526   6.391   4.172   3.601  0.2378 -0.4321 -0.4589
 3127SOL    HW112527   6.367   4.086   3.565 -3.0040  0.3816 -0.6189
 3127SOL    HW212528   6.321   4.191   3.664  1.6690  1.5058  0.6330
 3128SOL     OW12529   5.916   0.752   7.613  0.6522  0.1814  0.4406
 3128SOL    HW112530   5.886   0.706   7.692  0.2995 -0.0401  0.1839
 3128SOL    HW212531   5.955   0.684   7.560  0.6921  0.2919  0.3297
 3129SOL     OW12532   2.109   6.934   3.496 -1.1487 -0.0918 -0.1832
 3129SOL    HW112533   2.074   6.847   3.473  0.2583 -0.8004  0.2474
 3129SOL    HW212534   2.045   6.969   3.558 -1.7492 -0.8142 -0.3675
 3130SOL     OW12535   0.064   5.663   4.659  0.0021 -0.0263 -0.2685
 3130SOL    HW112536   0.142   5.709   4.630  0.0217  0.6742  0.8496
 3130SOL    HW212537  -0.007   5.701   4.607 -0.0367  1.5535  0.8650
 3131SOL     OW12538   0.170   3.723   6.121  0.3828 -0.4209 -0.3311
 3131SOL    HW112539   0.094   3.665   6.132  0.1906 -0.2370 -0.6560
 3131SOL    HW212540   0.144   3.804   6.165  0.8691 -0.7641  0.6018
 3132SOL     OW12541   6.417   3.771   6.986  0.5671  0.2003  0.1203
 3132SOL    HW112542   6.445   3.691   6.941 -0.5464  1.1493 -2.4349
 3132SOL    HW212543   6.495   3.826   6.987  1.3818 -0.9012  2.0294
 3133SOL     OW12544   4.276   6.425   7.648  0.1766 -0.2742 -0.2472
 3133SOL    HW112545   4.349   6.383   7.693 -0.7000 -0.2624  1.2446
 3133SOL    HW212546   4.317   6.480   7.581  1.4522 -1.3061 -0.3359
 3134SOL     OW12547   6.912   3.935   4.421 -0.4394  0.6827 -0.0035
 3134SOL    HW112548   6.847   3.928   4.351 -0.2184 -0.7519 -0.0915
 3134SOL    HW212549   6.950   3.848   4.426  1.4185  1.4714  0.1181
 3135SOL     OW12550   2.322   3.325   0.226 -0.5523 -0.3257 -0.6366
 3135SOL    HW112551   2.227   3.322   0.214 -0.5378  0.2604 -0.9015
 3135SOL    HW212552   2.350   3.234   0.215 -0.8950 -0.2646 -2.1839
 3136SOL     OW12553   3.600   0.916   8.077  0.3320 -0.0852  0.2698
 3136SOL    HW112554   3.578   0.826   8.052 -3.3382  0.5870  0.5205
 3136SOL    HW212555   3.625   0.958   7.994  0.1386 -0.8784 -0.2021
 3137SOL     OW12556   2.339   6.368   2.669  0.4626 -0.3031  0.5423
 3137SOL    HW112557   2.244   6.373   2.667  0.5077  0.5211 -1.0165
 3137SOL    HW212558   2.362   6.390   2.760 -0.8546 -2.0490  1.3474
 3138SOL     OW12559   1.373   3.204   2.203 -0.1100 -0.4194 -0.0383
 3138SOL    HW112560   1.458   3.223   2.242 -0.3114  0.8681 -0.1820
 3138SOL    HW212561   1.324   3.157   2.271 -0.1111  0.9285  0.9247
 3139SOL     OW12562   2.814   2.588   4.984  0.9755 -0.0784  0.0508
 3139SOL    HW112563   2.793   2.513   5.039  0.0450  0.8060  0.9375
 3139SOL    HW212564   2.899   2.618   5.016  0.9321 -0.2028  0.2846
 3140SOL     OW12565   0.067   2.118   3.024 -0.3003  0.0277  0.4677
 3140SOL    HW112566  -0.025   2.112   3.000 -0.3877  0.0028  0.7955
 3140SOL    HW212567   0.086   2.212   3.024 -0.2727  0.0217  0.2065
 3141SOL     OW12568   3.867   5.265   6.883 -0.0185  0.6514  0.2623
 3141SOL    HW112569   3.829   5.253   6.970  0.1152 -1.2605  0.0895
 3141SOL    HW212570   3.961   5.278   6.900  0.0202  0.1936  0.3953
 3142SOL     OW12571   5.724   6.250   2.464  0.6934 -0.1131  0.2491
 3142SOL    HW112572   5.689   6.180   2.409  2.4319 -1.3783  0.6910
 3142SOL    HW212573   5.815   6.227   2.478  1.5491  2.6641 -0.1948
 3143SOL     OW12574   6.592   5.840   3.480 -0.1421  0.2063  0.2999
 3143SOL    HW112575   6.640   5.885   3.550  0.4544 -0.9124  0.6278
 3143SOL    HW212576   6.596   5.902   3.407  1.0201  0.5377  0.6041
 3144SOL     OW12577   7.918   3.797   7.772 -0.3845 -0.3225  0.1757
 3144SOL    HW112578   7.855   3.863   7.799  1.1702  1.2138  0.2566
 3144SOL    HW212579   7.875   3.751   7.700 -0.8222  2.1044 -1.2340
 3145SOL     OW12580   7.821   7.674   5.508 -0.1381 -0.2930  0.0391
 3145SOL    HW112581   7.783   7.705   5.426 -0.9084 -0.4818  0.3104
 3145SOL    HW212582   7.815   7.750   5.567  1.1908  0.1110 -0.3073
 3146SOL     OW12583   0.739   2.025   1.285  0.8777  0.1422  0.0946
 3146SOL    HW112584   0.655   2.064   1.261  0.6591 -0.9054 -0.9321
 3146SOL    HW212585   0.787   2.095   1.329 -1.2452  0.2577  2.4896
 3147SOL     OW12586   1.667   0.991   3.710 -0.1852  0.0879 -0.4031
 3147SOL    HW112587   1.623   1.036   3.638  1.4854  0.3205 -1.3401
 3147SOL    HW212588   1.636   0.901   3.705 -1.5363  0.5228 -0.1836
 3148SOL     OW12589   1.399   5.223   0.833  0.1607  0.8013  0.4451
 3148SOL    HW112590   1.350   5.140   0.824  1.1441  0.1311  1.1447
 3148SOL    HW212591   1.439   5.236   0.747 -1.0988  1.2768 -0.0886
 3149SOL     OW12592   2.434   6.553   0.007 -0.0063 -0.9256 -0.3015
 3149SOL    HW112593   2.410   6.479   0.062 -1.3051 -0.3865 -0.0997
 3149SOL    HW212594   2.418   6.630   0.062 -0.0238 -0.4351 -0.9755
 3150SOL     OW12595   2.678   4.068   0.007  0.2636  0.0212  0.9361
 3150SOL    HW112596   2.606   4.006   0.012  1.1618 -0.9905  2.2144
 3150SOL    HW212597   2.727   4.042  -0.071  0.4100 -0.6590  1.2420
 3151SOL     OW12598   7.147   3.228   3.352  0.0822  0.8183 -0.4163
 3151SOL    HW112599   7.139   3.281   3.273  1.9425 -0.6154 -1.6433
 3151SOL    HW212600   7.076   3.163   3.345 -0.5047  1.4292 -0.2654
 3152SOL     OW12601   6.316   0.761   6.296  0.8667 -0.1521  0.4806
 3152SOL    HW112602   6.355   0.678   6.268 -0.1022 -0.3366 -0.4032
 3152SOL    HW212603   6.299   0.749   6.390  0.5836 -1.0321  0.3296
 3153SOL     OW12604   2.670   7.247   6.636  0.3610 -0.2822  0.2468
 3153SOL    HW112605   2.601   7.221   6.574 -1.0808  2.3424  0.6089
 3153SOL    HW212606   2.695   7.165   6.679 -2.0166 -1.4674 -0.4390
 3154SOL     OW12607   6.655   2.785   4.636 -0.1249 -0.0396 -0.2058
 3154SOL    HW112608   6.631   2.746   4.721  0.9796  0.1489  0.2062
 3154SOL    HW212609   6.599   2.739   4.573 -1.6075  0.4239  0.6946
 3155SOL     OW12610   5.198   0.254   5.016  0.0776  0.2936 -0.2979
 3155SOL    HW112611   5.202   0.316   5.088 -1.4789 -1.1591  1.1528
 3155SOL    HW212612   5.284   0.258   4.976  1.4197  0.3811  2.3593
 3156SOL     OW12613   3.248   6.836   3.723  0.4467  0.0713 -0.1628
 3156SOL    HW112614   3.222   6.887   3.645  0.4891 -2.5662 -2.0398
 3156SOL    HW212615   3.344   6.838   3.722  0.4658 -0.6541 -0.7167
 3157SOL     OW12616   2.628   3.365   6.679 -0.0068  0.5895 -0.0457
 3157SOL    HW112617   2.613   3.436   6.616  0.3182 -2.4758 -3.9627
 3157SOL    HW212618   2.722   3.371   6.700  0.0660  1.2008 -0.5196
 3158SOL     OW12619   7.374   1.887   5.089  0.1296  0.7040 -0.5142
 3158SOL    HW112620   7.456   1.869   5.042  1.7164  0.6274  2.0991
 3158SOL    HW212621   7.370   1.819   5.156 -3.1477 -0.4761 -1.7139
 3159SOL     OW12622   7.061   3.881   2.273  0.2666 -0.0048  0.5865
 3159SOL    HW112623   7.127   3.834   2.222  0.2769  2.5612 -2.0620
 3159SOL    HW212624   6.985   3.823   2.273  0.6094 -0.5565 -1.6345
 3160SOL     OW12625   3.600   6.596   1.966  0.2210 -0.0631  0.4382
 3160SOL    HW112626   3.674   6.551   2.006 -0.0164  0.0181  0.9853
 3160SOL    HW212627   3.552   6.528   1.919 -0.3818 -0.4907  1.6230
 3161SOL     OW12628   0.567   5.277   6.142 -0.9278 -0.4588 -0.2725
 3161SOL    HW112629   0.633   5.250   6.207 -1.8769  0.1409  0.9909
 3161SOL    HW212630   0.586   5.368   6.124 -1.5515 -0.2005  0.3121
 3162SOL     OW12631   5.968   3.946   0.192 -0.1977  0.1443 -0.1181
 3162SOL    HW112632   6.037   3.880   0.187 -0.0281  0.3023  0.1509
 3162SOL    HW212633   5.888   3.896   0.211  0.1070  0.1263  1.1586
 3163SOL     OW12634   0.071   1.134   4.891 -0.3177 -0.4652 -0.2525
 3163SOL    HW112635   0.117   1.146   4.808 -1.0833 -0.1646 -0.6374
 3163SOL    HW212636   0.121   1.188   4.953  0.0729 -0.4404 -0.5851
 3164SOL     OW12637   2.499   7.004   2.286  0.0767  0.8621 -0.4788
 3164SOL    HW112638   2.444   6.934   2.250 -2.2717  2.5220 -0.3628
 3164SOL    HW212639   2.571   6.958   2.328 -1.2964 -1.4936 -0.5010
 3165SOL     OW12640   4.216   7.938   2.700  0.2413  0.1555 -0.1744
 3165SOL    HW112641   4.129   7.909   2.727 -0.5029  1.2899 -1.2280
 3165SOL    HW212642   4.220   7.918   2.606  0.0005  2.5620 -0.7793
 3166SOL     OW12643   0.751   6.568   1.936  0.1524 -0.0356  0.1376
 3166SOL    HW112644   0.721   6.577   2.026  0.7053 -0.5045  0.3716
 3166SOL    HW212645   0.774   6.476   1.927 -2.7111 -0.7090 -1.3823
 3167SOL     OW12646   7.332   0.261   6.721  0.4749 -0.4135 -0.1801
 3167SOL    HW112647   7.392   0.285   6.651  1.5904  0.0252  0.8883
 3167SOL    HW212648   7.360   0.314   6.796 -1.7569  0.4121  0.1506
 3168SOL     OW12649   1.916   8.063   3.640 -0.2791  0.3821  0.4463
 3168SOL    HW112650   1.894   8.153   3.616  0.4154  0.5835  0.5384
 3168SOL    HW212651   1.964   8.071   3.722  1.5469  0.1131 -0.5405
 3169SOL     OW12652   5.067   1.873   0.676 -0.1389 -0.4485  1.1344
 3169SOL    HW112653   4.978   1.888   0.708  0.0277  1.1677  0.9340
 3169SOL    HW212654   5.121   1.876   0.755 -0.0787  0.3885  1.0727
 3170SOL     OW12655   2.767   4.741   7.219 -0.2080  0.0139  0.1107
 3170SOL    HW112656   2.752   4.791   7.138  2.8597  0.9724  0.0174
 3170SOL    HW212657   2.754   4.804   7.289 -0.3241 -0.1516  0.2401
 3171SOL     OW12658   1.999   6.236   7.128 -0.1271  0.1446  0.0124
 3171SOL    HW112659   2.038   6.158   7.167 -1.0900 -1.0607 -1.3118
 3171SOL    HW212660   1.915   6.207   7.095 -0.3167  1.6393 -0.9432
 3172SOL     OW12661   5.770   6.604   6.308 -0.3362 -0.2465  0.4119
 3172SOL    HW112662   5.859   6.568   6.309 -0.0944  0.3235  0.2524
 3172SOL    HW212663   5.777   6.685   6.359 -1.2426 -1.2493  2.2226
 3173SOL     OW12664   0.374   7.642   2.199 -0.1935  0.0190  0.6994
 3173SOL    HW112665   0.293   7.693   2.197  1.1914  2.3703  0.8951
 3173SOL    HW212666   0.354   7.569   2.258 -2.5201 -0.2019 -0.2429
 3174SOL     OW12667   7.020   3.754   3.551 -0.5707 -0.3733 -0.5334
 3174SOL    HW112668   7.038   3.732   3.643 -2.0783 -0.0369 -0.1269
 3174SOL    HW212669   6.975   3.839   3.556  1.3970  0.8111 -1.7698
 3175SOL     OW12670   0.922   7.293   0.806 -0.1015 -0.2677  0.1184
 3175SOL    HW112671   0.842   7.256   0.769 -0.8433  2.8472 -1.7936
 3175SOL    HW212672   0.985   7.291   0.734  0.3067  0.6540  0.4288
 3176SOL     OW12673   6.483   2.568   1.348  0.2423  0.1191 -0.3405
 3176SOL    HW112674   6.388   2.553   1.346  0.0429  0.9854  0.9993
 3176SOL    HW212675   6.500   2.626   1.274 -0.3733  0.3981 -0.2708
 3177SOL     OW12676   5.964   7.497   0.415  0.9266 -0.2121 -0.0857
 3177SOL    HW112677   5.981   7.456   0.331 -1.7518 -0.6128 -0.5318
 3177SOL    HW212678   5.923   7.581   0.392 -0.4825 -0.6371  0.7811
 3178SOL     OW12679   4.532   2.920   2.849  0.5689  0.0963  0.4199
 3178SOL    HW112680   4.598   2.892   2.785 -0.1382  2.2588 -1.3672
 3178SOL    HW212681   4.483   2.840   2.870  0.4085 -0.5882 -2.2740
 3179SOL     OW12682   0.289   7.900   2.883  0.2741  0.3960 -0.0934
 3179SOL    HW112683   0.255   7.908   2.794 -0.8912 -0.7412  0.2130
 3179SOL    HW212684   0.218   7.933   2.939 -0.3025 -1.7713  0.5463
 3180SOL     OW12685   7.136   1.968   4.750 -0.3877 -0.3610  0.4857
 3180SOL    HW112686   7.079   1.982   4.673  2.5324  0.3311 -1.7228
 3180SOL    HW212687   7.159   1.876   4.746  2.0931  0.2260 -1.3922
 3181SOL     OW12688   5.358   4.130   4.184  0.0209  0.3352 -0.0763
 3181SOL    HW112689   5.395   4.217   4.198  0.1160  0.3704 -0.5430
 3181SOL    HW212690   5.354   4.091   4.271 -0.4075  0.9644  0.1911
 3182SOL     OW12691   2.795   1.824   8.037  0.4212  0.1705  0.0288
 3182SOL    HW112692   2.785   1.832   7.942 -0.3497 -1.2116 -0.0298
 3182SOL    HW212693   2.706   1.825   8.071  0.7401  2.3491  0.9344
 3183SOL     OW12694   0.940   6.512   3.679  0.2055 -0.1350 -0.4609
 3183SOL    HW112695   0.960   6.419   3.688  0.2681 -0.2852 -1.8675
 3183SOL    HW212696   1.020   6.557   3.709 -0.8435 -0.3483  3.1573
 3184SOL     OW12697   0.931   0.827   7.451 -0.0198  0.1789  0.0307
 3184SOL    HW112698   0.928   0.850   7.544 -1.2058  1.3744 -0.2662
 3184SOL    HW212699   0.934   0.731   7.449 -0.2915  0.1359  1.2820
 3185SOL     OW12700   2.245   1.245   2.885  0.2495  0.1790 -0.0764
 3185SOL    HW112701   2.168   1.189   2.871  0.9257 -0.9404  0.4562
 3185SOL    HW212702   2.230   1.322   2.831 -1.2728  0.0055  0.0681
 3186SOL     OW12703   4.638   3.737   4.334 -0.1425  0.2726 -0.3514
 3186SOL    HW112704   4.708   3.671   4.340 -0.7548 -0.2777  1.9591
 3186SOL    HW212705   4.684   3.819   4.314  0.8622 -0.4924 -1.3371
 3187SOL     OW12706   4.219   7.082   7.977 -0.6646 -0.4802 -0.0865
 3187SOL    HW112707   4.183   7.001   8.014  0.3458  0.2338  2.7747
 3187SOL    HW212708   4.142   7.138   7.963 -1.1771 -1.1384  0.0746
 3188SOL     OW12709   2.740   7.081   1.652 -0.6530 -0.0183 -0.4342
 3188SOL    HW112710   2.692   7.117   1.726  0.3422  0.0511  0.1945
 3188SOL    HW212711   2.688   7.006   1.623  0.4364 -2.0396  2.3392
 3189SOL     OW12712   6.468   7.651   7.134 -0.1692 -0.2539 -0.0379
 3189SOL    HW112713   6.504   7.590   7.198  0.8509  0.6280  0.2766
 3189SOL    HW212714   6.382   7.616   7.111 -0.2711 -0.9367  1.3228
 3190SOL     OW12715   6.295   6.930   6.348 -0.2703 -0.0732 -0.0924
 3190SOL    HW112716   6.304   6.954   6.256  0.7364 -0.6086 -0.1485
 3190SOL    HW212717   6.381   6.949   6.386 -1.0804  1.4613  1.0664
 3191SOL     OW12718   3.474   0.133   4.717 -0.1446 -0.0914  0.0708
 3191SOL    HW112719   3.444   0.043   4.710  0.3860 -0.2159 -0.6791
 3191SOL    HW212720   3.415   0.173   4.781  1.4270 -1.7292  2.6993
 3192SOL     OW12721   3.095   5.423   7.380  0.1105  0.1811 -0.6791
 3192SOL    HW112722   3.147   5.451   7.456 -0.1889 -0.7090 -0.1322
 3192SOL    HW212723   3.076   5.504   7.332  0.2942  0.7532  0.2007
 3193SOL     OW12724   0.447   0.185   6.721 -0.0279  0.6185  0.0745
 3193SOL    HW112725   0.380   0.215   6.659  0.2357  1.3735  0.1427
 3193SOL    HW212726   0.525   0.235   6.698  1.2305 -1.8820 -1.4991
 3194SOL     OW12727   0.387   0.595   4.779 -0.0260 -0.1669  0.3900
 3194SOL    HW112728   0.313   0.540   4.752 -0.3372 -0.2945  1.4702
 3194SOL    HW212729   0.431   0.618   4.697 -2.5294  1.7818 -0.5130
 3195SOL     OW12730   1.607   3.990   0.375  0.4191  0.3614  0.3036
 3195SOL    HW112731   1.679   3.941   0.335 -1.3237 -0.8979 -1.5041
 3195SOL    HW212732   1.575   4.046   0.304  1.0984  2.7544  1.7757
 3196SOL     OW12733   1.530   0.689   6.971  0.4298 -0.4302 -0.0346
 3196SOL    HW112734   1.448   0.716   6.929  0.7195  0.5609  0.0217
 3196SOL    HW212735   1.507   0.675   7.063  0.5584  1.1013  0.2652
 3197SOL     OW12736   6.306   0.132   2.993 -0.4814  0.6095 -0.2372
 3197SOL    HW112737   6.363   0.057   2.976  1.5929  2.0208  0.1198
 3197SOL    HW212738   6.247   0.134   2.917  0.7705 -0.1750 -1.2759
 3198SOL     OW12739   1.310   0.486   1.138  0.1447 -0.1932  0.2126
 3198SOL    HW112740   1.373   0.555   1.161  0.6680  0.1503 -2.0110
 3198SOL    HW212741   1.227   0.532   1.126  0.4516  0.0457 -1.0839
 3199SOL     OW12742   3.878   7.605   2.722 -0.4437 -0.1603  0.0947
 3199SOL    HW112743   3.947   7.541   2.740 -1.0390 -1.3378 -1.5761
 3199SOL    HW212744   3.800   7.571   2.766 -0.8423 -0.8002 -1.0651
 3200SOL     OW12745   2.374   3.921   0.521  0.2792 -0.1256 -0.0946
 3200SOL    HW112746   2.299   3.883   0.566  0.6400 -1.9620 -0.9601
 3200SOL    HW212747   2.437   3.849   0.512  2.5545  1.5530  1.3542
 3201SOL     OW12748   6.958   0.850   5.130 -0.0930  0.4881  0.3838
 3201SOL    HW112749   6.983   0.811   5.046 -1.0942  1.3237 -0.3343
 3201SOL    HW212750   6.869   0.819   5.145  0.5591 -0.7910  1.8725
 3202SOL     OW12751   3.571   0.579   6.291  0.8929  0.7613 -0.4470
 3202SOL    HW112752   3.497   0.520   6.309  0.7849  0.8877 -0.4751
 3202SOL    HW212753   3.539   0.636   6.222  1.1727  0.5287 -0.7732
 3203SOL     OW12754   0.361   7.320   5.061 -0.4631  0.0864  0.0184
 3203SOL    HW112755   0.281   7.344   5.107 -0.6892  2.0622 -1.2657
 3203SOL    HW212756   0.431   7.366   5.107 -0.3844  0.1891 -0.1989
 3204SOL     OW12757   6.555   3.155   3.927  0.0153  0.2600 -0.0774
 3204SOL    HW112758   6.506   3.169   3.846 -1.5736 -1.7668  0.4329
 3204SOL    HW212759   6.647   3.155   3.901 -0.3660  1.6908 -1.5045
 3205SOL     OW12760   5.102   1.961   1.819  0.0747  0.1500  0.0209
 3205SOL    HW112761   5.155   1.989   1.745 -0.9668 -1.3070 -1.3434
 3205SOL    HW212762   5.076   2.042   1.862  1.2345  0.9921 -0.8196
 3206SOL     OW12763   1.354   6.543   1.102  0.2529  0.5016 -0.4117
 3206SOL    HW112764   1.268   6.556   1.063  0.3382 -0.4385 -0.9388
 3206SOL    HW212765   1.381   6.631   1.130 -0.8222  0.8195 -0.3248
 3207SOL     OW12766   4.925   6.395   0.415  0.1196  0.2863 -0.3486
 3207SOL    HW112767   4.985   6.439   0.355  1.2438  1.1680  1.3381
 3207SOL    HW212768   4.975   6.321   0.448 -1.5379 -2.0884 -2.6864
 3208SOL     OW12769   2.981   7.235   0.028 -0.0403  0.1772  0.2114
 3208SOL    HW112770   2.898   7.248   0.073  0.2972 -0.8026  1.1795
 3208SOL    HW212771   2.970   7.153  -0.021  0.3804 -0.0277  0.4482
 3209SOL     OW12772   5.025   3.673   2.321 -0.0200 -0.2125  0.1137
 3209SOL    HW112773   5.080   3.696   2.396  1.1718  0.7079 -0.9878
 3209SOL    HW212774   4.974   3.598   2.350  1.6749 -0.9780  1.2836
 3210SOL     OW12775   1.019   1.318   1.918  0.4211 -0.7851 -0.2530
 3210SOL    HW112776   1.016   1.277   2.005  1.1377  0.5148  0.4052
 3210SOL    HW212777   1.027   1.244   1.858  0.4529 -1.6869  0.8158
 3211SOL     OW12778   1.463   5.466   1.840 -0.7052  0.0552 -0.5481
 3211SOL    HW112779   1.471   5.531   1.771 -0.2459 -0.7569 -1.2913
 3211SOL    HW212780   1.549   5.465   1.882 -0.5239 -0.4545 -0.9131
 3212SOL     OW12781   5.832   3.577   1.592 -0.0008  0.3630 -0.1607
 3212SOL    HW112782   5.810   3.491   1.556  0.6913  1.3894 -3.3007
 3212SOL    HW212783   5.749   3.612   1.624 -0.5884 -0.8115 -0.3634
 3213SOL     OW12784   7.157   7.645   5.133 -0.3869  0.2662 -0.2095
 3213SOL    HW112785   7.189   7.572   5.079 -0.3358  0.4663 -0.4531
 3213SOL    HW212786   7.232   7.703   5.142 -1.0468  1.5320 -2.1138
 3214SOL     OW12787   1.618   3.719   0.827  0.2548  0.2313  0.3819
 3214SOL    HW112788   1.677   3.737   0.754  0.8817 -0.1196  0.7978
 3214SOL    HW212789   1.551   3.787   0.821 -0.0042 -0.1045 -0.8347
 3215SOL     OW12790   7.294   7.372   7.404  0.0044  0.8803  0.2511
 3215SOL    HW112791   7.363   7.353   7.468  0.9707  0.2882 -0.9184
 3215SOL    HW212792   7.328   7.446   7.353  0.6738 -0.5827 -1.5389
 3216SOL     OW12793   1.743   6.169   7.020 -0.2355  0.5337  0.2485
 3216SOL    HW112794   1.726   6.197   6.930  2.9859  0.8028 -0.3648
 3216SOL    HW212795   1.746   6.073   7.014  1.7843  0.5972 -0.3709
 3217SOL     OW12796   6.844   7.885   2.952 -0.7980  0.2534  0.1808
 3217SOL    HW112797   6.937   7.908   2.954 -0.4431 -0.7547 -2.2283
 3217SOL    HW212798   6.799   7.966   2.977  0.6209  1.8163 -2.0156
 3218SOL     OW12799   4.920   2.258   1.031 -0.4434  0.3184  0.3237
 3218SOL    HW112800   4.988   2.226   0.972  0.1431  1.4514  0.3500
 3218SOL    HW212801   4.912   2.191   1.098 -1.4274 -1.2221 -1.2472
 3219SOL     OW12802   5.817   1.984   1.536  0.1233  1.5298 -0.5407
 3219SOL    HW112803   5.859   1.903   1.563 -0.3953  1.6727  0.7569
 3219SOL    HW212804   5.868   2.053   1.579  0.3473  1.8848 -1.3520
 3220SOL     OW12805   2.086   7.330   6.161 -0.0315  0.0782  0.3613
 3220SOL    HW112806   2.002   7.321   6.207 -0.0176 -1.8920  0.0820
 3220SOL    HW212807   2.079   7.271   6.086  1.3400  0.4266 -0.0719
 3221SOL     OW12808   5.637   8.036   6.281  0.0509  0.0907  0.1995
 3221SOL    HW112809   5.682   7.966   6.328 -1.5610 -0.2143  1.3672
 3221SOL    HW212810   5.604   7.994   6.202 -0.1125 -0.2385  0.4407
 3222SOL     OW12811   3.282   6.185   7.905 -0.2880  0.5175  0.2247
 3222SOL    HW112812   3.255   6.171   7.815  0.4973 -0.3283  0.1115
 3222SOL    HW212813   3.264   6.278   7.921 -1.5867  0.3983 -0.3880
 3223SOL     OW12814   1.132   0.746   2.851 -0.2084  0.4652 -0.8499
 3223SOL    HW112815   1.196   0.817   2.852 -1.7232  1.9287 -1.8417
 3223SOL    HW212816   1.160   0.689   2.780  1.6392 -0.5957  0.6513
 3224SOL     OW12817   0.023   3.412   7.685  0.0596  0.2997 -0.2946
 3224SOL    HW112818  -0.002   3.465   7.609  2.1652  0.5293 -0.8780
 3224SOL    HW212819   0.084   3.467   7.734 -1.0919  0.0691  1.4949
 3225SOL     OW12820   0.511   3.631   7.354  0.5924 -0.2338  0.0647
 3225SOL    HW112821   0.433   3.665   7.399  0.9643  1.2772 -0.3935
 3225SOL    HW212822   0.476   3.578   7.282  0.0036 -1.1066  0.9586
 3226SOL     OW12823   2.900   3.181   4.960 -0.5361 -0.3564 -0.1270
 3226SOL    HW112824   2.922   3.238   4.886 -1.9424  0.4050  0.0105
 3226SOL    HW212825   2.831   3.228   5.007 -2.3446 -2.5257 -0.4597
 3227SOL     OW12826   6.639   5.749   2.719 -0.1875  0.0642  0.1699
 3227SOL    HW112827   6.720   5.749   2.667 -0.2673  1.8415 -0.0088
 3227SOL    HW212828   6.603   5.661   2.707  0.5266 -0.0215 -1.6416
 3228SOL     OW12829   5.320   2.392   5.259 -0.2198 -0.1931  0.2621
 3228SOL    HW112830   5.325   2.360   5.169  1.0558  0.8880 -0.0859
 3228SOL    HW212831   5.237   2.438   5.264  0.8240  2.0162 -1.2068
 3229SOL     OW12832   1.915   6.113   4.876 -0.2143  0.6789 -0.4266
 3229SOL    HW112833   1.936   6.051   4.946  1.5463  1.5860 -0.0999
 3229SOL    HW212834   1.977   6.092   4.806 -0.0703  1.6096 -0.5894
 3230SOL     OW12835   5.976   8.010   1.217  0.0431 -0.2983 -0.1246
 3230SOL    HW112836   5.974   8.008   1.122  0.4885  0.1524 -0.1455
 3230SOL    HW212837   6.033   8.084   1.239 -2.1757  1.3672  0.4703
 3231SOL     OW12838   0.020   6.178   3.924 -0.1541 -0.1292  0.0859
 3231SOL    HW112839  -0.060   6.229   3.933 -0.1396 -0.2190  0.8244
 3231SOL    HW212840   0.077   6.211   3.994  1.1797  1.2322 -1.5622
 3232SOL     OW12841   7.922   6.325   2.018 -0.5969 -0.2140 -0.7435
 3232SOL    HW112842   8.010   6.348   2.048 -1.0661  0.4272  0.2150
 3232SOL    HW212843   7.916   6.230   2.031  0.7008 -0.6562 -2.9318
 3233SOL     OW12844   7.246   2.660   2.190 -0.5127  0.1755 -0.4899
 3233SOL    HW112845   7.221   2.644   2.099 -0.9831 -0.5459 -0.2382
 3233SOL    HW212846   7.247   2.573   2.230  3.5812 -0.0964 -0.7521
 3234SOL     OW12847   7.827   6.163   0.165 -0.0798 -0.6071 -0.3611
 3234SOL    HW112848   7.763   6.234   0.168  0.0510 -0.4478 -1.0203
 3234SOL    HW212849   7.912   6.207   0.158 -0.0549 -0.8072 -1.6498
 3235SOL     OW12850   6.448   3.170   5.077 -0.5618 -0.2438 -0.2955
 3235SOL    HW112851   6.352   3.170   5.080 -0.5530 -0.4771  0.0946
 3235SOL    HW212852   6.474   3.205   5.162 -0.2887 -2.4719  0.6089
 3236SOL     OW12853   2.858   7.285   1.203 -0.4303 -0.1714 -0.1701
 3236SOL    HW112854   2.862   7.204   1.152 -1.1015 -0.0768 -0.3851
 3236SOL    HW212855   2.789   7.336   1.161 -0.2846  0.3472  0.2086
 3237SOL     OW12856   0.741   7.331   7.076 -0.0450  0.3235  0.3999
 3237SOL    HW112857   0.836   7.332   7.060  0.0338  3.5708  0.4419
 3237SOL    HW212858   0.708   7.408   7.029 -2.7734 -0.9769  0.0134
 3238SOL     OW12859   0.365   0.377   1.448  1.1145  0.1780 -0.2644
 3238SOL    HW112860   0.396   0.296   1.488  1.2681 -0.7764 -2.1890
 3238SOL    HW212861   0.445   0.419   1.414  0.8429  0.1004 -1.0332
 3239SOL     OW12862   4.342   1.309   1.025 -0.5845 -0.2875 -0.1738
 3239SOL    HW112863   4.359   1.350   1.109  0.2678  0.5223 -0.7179
 3239SOL    HW212864   4.249   1.287   1.027 -1.2137  2.0871 -0.0031
 3240SOL     OW12865   2.982   6.862   3.057 -0.2675  0.0107 -0.2733
 3240SOL    HW112866   2.942   6.924   3.118 -0.4625  0.5294 -0.9163
 3240SOL    HW212867   2.909   6.835   3.000 -0.9183 -3.0326  1.7150
 3241SOL     OW12868   5.163   0.483   3.731 -0.2207 -0.4829  0.4557
 3241SOL    HW112869   5.191   0.558   3.678  0.8218 -1.3211 -0.2027
 3241SOL    HW212870   5.244   0.446   3.766 -0.7842 -0.8738  1.3737
 3242SOL     OW12871   7.790   2.021   5.154  0.3976  0.1309  0.3923
 3242SOL    HW112872   7.860   1.980   5.205 -1.0219 -1.2324  1.3343
 3242SOL    HW212873   7.778   2.107   5.194  1.0751  0.1044  0.6517
 3243SOL     OW12874   8.090   4.551   6.890 -0.3714 -0.4680 -0.1949
 3243SOL    HW112875   8.091   4.459   6.917  2.0853 -0.3067  0.6000
 3243SOL    HW212876   8.107   4.548   6.796 -2.0579 -0.8469 -0.5119
 3244SOL     OW12877   0.380   0.678   2.180  0.8645 -0.0207 -0.4781
 3244SOL    HW112878   0.431   0.652   2.256 -1.1048 -2.2259  0.1929
 3244SOL    HW212879   0.291   0.689   2.213  0.1674  0.0627 -2.2702
 3245SOL     OW12880   5.379   7.305   3.186 -0.5413  0.8666  0.3652
 3245SOL    HW112881   5.285   7.302   3.172 -0.2459 -1.7909 -1.9410
 3245SOL    HW212882   5.395   7.241   3.255 -0.3437  0.7732  0.2331
 3246SOL     OW12883   1.448   6.269   7.074  0.0763 -0.0533  0.4188
 3246SOL    HW112884   1.413   6.263   6.986 -0.3367 -0.6394  0.6126
 3246SOL    HW212885   1.480   6.181   7.093  0.4363  0.1423  0.7442
 3247SOL     OW12886   5.852   0.837   6.271 -0.3142  0.4731 -0.1131
 3247SOL    HW112887   5.780   0.866   6.328  1.0130  0.8341  1.4424
 3247SOL    HW212888   5.879   0.753   6.309  2.0478  1.7616  1.2281
 3248SOL     OW12889   5.265   1.778   6.167  0.3637  0.0325 -0.3086
 3248SOL    HW112890   5.292   1.686   6.164  1.1371  0.2746 -1.3055
 3248SOL    HW212891   5.232   1.790   6.256  0.3863 -1.1696 -0.1152
 3249SOL     OW12892   0.308   8.009   1.153 -0.3031 -0.2082 -0.2772
 3249SOL    HW112893   0.301   8.026   1.059 -0.3194  4.6383  0.3480
 3249SOL    HW212894   0.222   8.034   1.188  1.1243  3.0603  1.3583
 3250SOL     OW12895   7.409   4.246   6.501  0.0244 -0.2936 -0.6232
 3250SOL    HW112896   7.406   4.158   6.539 -0.1364  0.3641  0.9578
 3250SOL    HW212897   7.347   4.297   6.553 -0.4067  0.6104 -1.9615
 3251SOL     OW12898   0.635   7.193   6.679 -0.5223 -0.4250  0.1655
 3251SOL    HW112899   0.629   7.217   6.772  0.0406  1.2844 -0.2101
 3251SOL    HW212900   0.729   7.182   6.663 -0.4580  1.1409 -0.6231
 3252SOL     OW12901   6.007   5.812   3.949  0.1585  0.1908 -0.2957
 3252SOL    HW112902   5.921   5.793   3.985  0.6665  1.7493  2.0568
 3252SOL    HW212903   6.060   5.736   3.972  0.0296  0.3996  0.7671
 3253SOL     OW12904   5.906   0.229   6.916 -0.5313  0.0082 -0.5564
 3253SOL    HW112905   5.914   0.149   6.969  1.1065  0.0425 -0.6967
 3253SOL    HW212906   5.822   0.267   6.943 -0.3777 -0.6830  1.0370
 3254SOL     OW12907   4.585   2.742   6.455  0.7663 -0.2710 -0.0046
 3254SOL    HW112908   4.671   2.782   6.447  0.7311 -0.4293 -1.3781
 3254SOL    HW212909   4.593   2.657   6.413 -0.1655 -0.1025 -0.5750
 3255SOL     OW12910   5.856   1.980   5.098  0.4769 -0.7999  0.0928
 3255SOL    HW112911   5.883   2.062   5.139  0.0242 -1.4616  1.8063
 3255SOL    HW212912   5.766   1.966   5.129  0.1177 -1.3709 -1.1174
 3256SOL     OW12913   0.895   2.906   1.855 -0.4334  0.2997  0.2643
 3256SOL    HW112914   0.859   2.857   1.929  1.6423 -1.4463  0.2142
 3256SOL    HW212915   0.958   2.846   1.814  0.1275  2.0182 -1.5619
 3257SOL     OW12916   2.584   6.166   3.208 -0.1371  0.0415 -0.0395
 3257SOL    HW112917   2.527   6.123   3.145 -0.6222 -0.5183  0.7582
 3257SOL    HW212918   2.537   6.160   3.291 -0.0587  1.8307  0.1661
 3258SOL     OW12919   2.276   0.010   8.046 -0.6788 -0.0532 -0.3288
 3258SOL    HW112920   2.282   0.100   8.014 -0.5103  1.1720  2.8481
 3258SOL    HW212921   2.194  -0.023   8.009 -1.7833  2.1213  0.0172
 3259SOL     OW12922   5.161   3.306   1.449 -0.2967 -0.1156  0.3642
 3259SOL    HW112923   5.092   3.304   1.515 -0.0651  2.3801  0.7817
 3259SOL    HW212924   5.122   3.355   1.376 -0.2752 -2.1498 -1.0672
 3260SOL     OW12925   1.635   4.439   2.727 -0.8726  0.5488  0.0427
 3260SOL    HW112926   1.552   4.462   2.770 -1.7359  2.2783 -2.3834
 3260SOL    HW212927   1.624   4.348   2.702 -1.6999  0.5226  0.4564
 3261SOL     OW12928   2.135   4.813   3.068 -0.0043 -0.1444 -0.0917
 3261SOL    HW112929   2.148   4.727   3.029 -2.7882 -1.0217  0.6793
 3261SOL    HW212930   2.124   4.796   3.162 -1.8636  0.8169 -0.0711
 3262SOL     OW12931   0.310   3.842   6.943 -0.9367 -0.9202 -0.5463
 3262SOL    HW112932   0.402   3.821   6.923 -0.4537  0.0366  0.5104
 3262SOL    HW212933   0.261   3.813   6.866  0.4991  0.3357 -2.0162
 3263SOL     OW12934   0.321   3.680   7.544 -0.1524  0.1629 -0.3535
 3263SOL    HW112935   0.268   3.751   7.578 -1.2782 -1.3601  1.2329
 3263SOL    HW212936   0.369   3.646   7.620 -0.7111 -1.6446 -0.7556
 3264SOL     OW12937   0.157   4.225   0.019  0.0438  0.1894  0.2945
 3264SOL    HW112938   0.134   4.318   0.020 -0.0318  0.1706  0.6228
 3264SOL    HW212939   0.082   4.182  -0.021 -0.1269  0.2200  0.5790
 3265SOL     OW12940   4.947   5.685   6.741  0.1817  0.0627  0.0976
 3265SOL    HW112941   4.887   5.611   6.751 -0.2891  0.3666 -0.4229
 3265SOL    HW212942   5.033   5.648   6.756  0.1520 -1.0199 -2.0232
 3266SOL     OW12943   6.505   2.089   7.462 -0.2117 -0.0926  0.3197
 3266SOL    HW112944   6.430   2.061   7.514 -0.4417 -1.9753 -0.9065
 3266SOL    HW212945   6.528   2.175   7.496 -1.9161 -0.1724  1.7938
 3267SOL     OW12946   5.898   7.983   6.144  0.7153  0.4735  0.6316
 3267SOL    HW112947   5.809   8.016   6.155  1.2577  1.6101  1.7397
 3267SOL    HW212948   5.933   7.975   6.232  0.6118 -3.2705  0.5000
 3268SOL     OW12949   1.147   3.449   4.533 -0.1591  0.3908  0.0320
 3268SOL    HW112950   1.157   3.357   4.558  0.4161 -0.0662 -1.6988
 3268SOL    HW212951   1.091   3.487   4.600  3.2574 -0.0249  3.4986
 3269SOL     OW12952   7.282   6.197   1.335  0.0589 -0.2650  0.3901
 3269SOL    HW112953   7.254   6.154   1.416 -0.1677  0.9812  1.0158
 3269SOL    HW212954   7.268   6.290   1.353  0.4777  0.0637 -0.9159
 3270SOL     OW12955   0.434   4.946   1.777 -0.2265 -0.4197  0.5449
 3270SOL    HW112956   0.521   4.940   1.816  0.8969  0.1204 -1.7031
 3270SOL    HW212957   0.420   4.860   1.737 -1.0479 -0.7298  1.4638
 3271SOL     OW12958   5.728   4.749   6.021 -0.0244  0.3605 -0.0811
 3271SOL    HW112959   5.673   4.675   6.047  1.2417 -1.2767 -1.6957
 3271SOL    HW212960   5.686   4.826   6.059 -2.5562 -0.9561  0.0006
 3272SOL     OW12961   2.790   3.651   2.339  0.2863  0.6377  0.3876
 3272SOL    HW112962   2.784   3.590   2.413 -0.2951  0.3192  0.0861
 3272SOL    HW212963   2.860   3.712   2.364  2.7927 -1.7336 -0.4838
 3273SOL     OW12964   3.726   3.748   6.321  0.0773 -0.1596  0.5678
 3273SOL    HW112965   3.759   3.658   6.318 -0.1208 -0.1994 -0.7914
 3273SOL    HW212966   3.649   3.748   6.265 -0.0254  0.8294  0.6924
 3274SOL     OW12967   1.155   2.912   4.719  0.0433 -0.1788  0.3842
 3274SOL    HW112968   1.199   2.828   4.707  2.7367  0.8718  2.0441
 3274SOL    HW212969   1.092   2.897   4.789 -1.8442 -1.5220 -1.4926
 3275SOL     OW12970   1.747   1.793   7.863  0.0619  0.8523 -0.3541
 3275SOL    HW112971   1.712   1.807   7.951  1.7421 -1.5131  0.8265
 3275SOL    HW212972   1.726   1.873   7.815  1.2260  3.3539  2.9038
 3276SOL     OW12973   5.410   7.284   0.681 -0.1107 -0.5685  0.6696
 3276SOL    HW112974   5.456   7.284   0.597  0.3032 -1.0028  0.8887
 3276SOL    HW212975   5.423   7.196   0.715 -2.0575 -1.0672  0.2414
 3277SOL     OW12976   3.941   2.911   0.219  0.2096  0.7112 -0.4651
 3277SOL    HW112977   3.939   3.006   0.229  0.0725  0.5561  1.2589
 3277SOL    HW212978   3.848   2.885   0.214  0.1213  0.5051  1.3668
 3278SOL     OW12979   0.071   3.281   4.875 -0.2840 -0.4853  0.4458
 3278SOL    HW112980   0.122   3.200   4.876 -0.1140 -0.3891  0.0105
 3278SOL    HW212981  -0.009   3.260   4.923  0.8030 -0.2087  2.4874
 3279SOL     OW12982   1.125   7.007   0.920  0.9582  0.1162 -0.1418
 3279SOL    HW112983   1.029   7.001   0.917  0.9659  0.1371 -2.5348
 3279SOL    HW212984   1.154   6.917   0.936  0.5693  0.2785  1.7038
 3280SOL     OW12985   0.893   6.742   6.155 -0.1496  0.2333  0.4120
 3280SOL    HW112986   0.893   6.658   6.109 -1.6870  0.7618 -0.6715
 3280SOL    HW212987   0.949   6.729   6.231 -1.4968 -2.2391  1.0775
 3281SOL     OW12988   4.340   5.565   1.686  0.1482 -0.6628  0.1742
 3281SOL    HW112989   4.414   5.535   1.632  0.2275 -0.5219  0.2030
 3281SOL    HW212990   4.304   5.639   1.637 -1.6648 -2.3710 -1.2068
 3282SOL     OW12991   3.646   1.329   2.303 -0.3283  0.6452  0.4881
 3282SOL    HW112992   3.718   1.291   2.352  0.2160 -0.6269 -1.1915
 3282SOL    HW212993   3.569   1.315   2.358  0.3106 -0.3292  1.1629
 3283SOL     OW12994   7.825   2.817   6.792 -0.1042 -0.2216 -0.1528
 3283SOL    HW112995   7.751   2.799   6.733 -0.8694  0.8313  0.4384
 3283SOL    HW212996   7.823   2.913   6.802 -0.6935 -0.4516  2.4608
 3284SOL     OW12997   4.223   0.073   5.549  0.0318 -0.0404  0.5463
 3284SOL    HW112998   4.224   0.169   5.550 -1.3875 -0.0140  0.4787
 3284SOL    HW212999   4.139   0.050   5.511 -0.0356 -1.3183  1.4120
 3285SOL     OW13000   7.442   7.987   8.001  0.3920  0.1646  0.2631
 3285SOL    HW113001   7.378   8.014   7.935  0.5922  0.0258  0.0068
 3285SOL    HW213002   7.434   7.891   8.004  2.6939 -0.2143 -2.0164
 3286SOL     OW13003   2.346   6.038   0.730  0.0603  0.1537  0.1855
 3286SOL    HW113004   2.401   6.041   0.809  0.9790 -0.8567 -0.3883
 3286SOL    HW213005   2.256   6.040   0.764  0.4369 -0.3255  1.2728
 3287SOL     OW13006   7.447   3.504   5.694 -0.4926 -0.1327 -0.1773
 3287SOL    HW113007   7.416   3.494   5.604  0.0983  1.8219 -0.6405
 3287SOL    HW213008   7.395   3.441   5.745 -2.8123  0.6574 -1.4425
 3288SOL     OW13009   3.445   1.368   1.307 -0.3576  0.5439 -0.0124
 3288SOL    HW113010   3.372   1.430   1.317 -1.0532 -0.1282 -0.7864
 3288SOL    HW213011   3.489   1.395   1.227 -1.2220 -0.4957 -0.8653
 3289SOL     OW13012   2.304   7.309   7.860 -0.3625  0.0623  0.0262
 3289SOL    HW113013   2.336   7.274   7.777  1.3921  1.3587  0.1016
 3289SOL    HW213014   2.370   7.282   7.924 -0.7044  0.6966  0.6533
 3290SOL     OW13015   1.267   5.095   7.939  0.0721  0.9175 -0.1393
 3290SOL    HW113016   1.260   5.015   7.992 -0.1353  0.8423 -0.2790
 3290SOL    HW213017   1.193   5.090   7.878 -0.1586  1.3948  0.0959
 3291SOL     OW13018   0.306   2.362   7.681 -0.1879  0.0511  0.1907
 3291SOL    HW113019   0.220   2.398   7.661 -0.8799 -1.2059  0.7232
 3291SOL    HW213020   0.339   2.328   7.598  0.4625  1.8282 -0.3051
 3292SOL     OW13021   1.625   7.937   4.109 -0.2341 -0.6453 -0.0410
 3292SOL    HW113022   1.705   7.980   4.139 -0.5897 -0.3427  0.4808
 3292SOL    HW213023   1.560   7.955   4.177 -0.9267 -0.3472 -0.7601
 3293SOL     OW13024   5.487   5.961   0.333  0.4089  0.8853 -0.2325
 3293SOL    HW113025   5.495   5.993   0.423 -1.2678 -0.9523  0.6219
 3293SOL    HW213026   5.456   5.871   0.342  0.0071  0.7316 -2.6594
 3294SOL     OW13027   6.761   2.043   3.768 -0.2506  0.6271  0.1096
 3294SOL    HW113028   6.705   1.975   3.732 -0.9301  0.9546  0.5308
 3294SOL    HW213029   6.771   2.020   3.861  0.6562  0.3461 -0.0419
 3295SOL     OW13030   2.832   5.366   1.602 -0.0996 -0.1476 -0.1468
 3295SOL    HW113031   2.825   5.341   1.694  0.9142  0.6488  0.1703
 3295SOL    HW213032   2.746   5.404   1.581  0.1549  1.1465  0.9632
 3296SOL     OW13033   5.441   1.784   3.249 -0.0741  0.8341 -0.2417
 3296SOL    HW113034   5.504   1.832   3.196  1.9257  0.8423  1.9921
 3296SOL    HW213035   5.360   1.834   3.241  1.3817  3.4553  0.3423
 3297SOL     OW13036   5.757   1.852   6.379 -0.0431 -0.2437 -0.1263
 3297SOL    HW113037   5.687   1.786   6.381  0.6209 -0.9881 -0.5979
 3297SOL    HW213038   5.762   1.878   6.287  0.8483 -0.8138 -0.2492
 3298SOL     OW13039   8.034   6.222   8.059  0.8441 -0.3851  0.1856
 3298SOL    HW113040   8.057   6.304   8.015  2.2242 -0.3698  0.8908
 3298SOL    HW213041   7.938   6.226   8.067  0.7437  0.4871 -1.0556
 3299SOL     OW13042   6.063   1.912   6.125 -0.4713 -0.3784  0.8184
 3299SOL    HW113043   6.143   1.884   6.080 -0.0601  0.0731  1.2574
 3299SOL    HW213044   6.090   1.986   6.178 -1.8461  2.0020 -1.5470
 3300SOL     OW13045   7.985   3.012   1.989 -0.5926  0.1023  0.2782
 3300SOL    HW113046   7.952   2.941   2.045  1.8787 -2.1467 -0.9150
 3300SOL    HW213047   8.056   3.052   2.039  2.0423 -2.3140 -1.2435
 3301SOL     OW13048   1.838   3.017   4.426  0.1813  0.5578 -0.0024
 3301SOL    HW113049   1.827   3.107   4.393 -0.1420  0.8257  0.8004
 3301SOL    HW213050   1.755   2.999   4.471  0.5029  0.1017  0.4089
 3302SOL     OW13051   1.143   5.108   6.416  0.2002  0.2495  0.2260
 3302SOL    HW113052   1.112   5.090   6.327 -3.5775  1.6391  1.0968
 3302SOL    HW213053   1.149   5.023   6.458  1.3873 -0.3611 -1.0821
 3303SOL     OW13054   7.858   3.583   3.594 -0.1740 -0.3195  0.6524
 3303SOL    HW113055   7.883   3.538   3.513 -0.9053  0.6591 -0.1408
 3303SOL    HW213056   7.790   3.528   3.632 -0.5396 -0.2636  0.0777
 3304SOL     OW13057   5.252   2.521   0.470 -0.0156  0.7561 -0.7315
 3304SOL    HW113058   5.278   2.551   0.382 -4.3698  1.4969 -2.0147
 3304SOL    HW213059   5.232   2.601   0.518  0.0100  0.2697  0.1090
 3305SOL     OW13060   6.132   0.372   0.791  0.0784 -0.0156 -0.4658
 3305SOL    HW113061   6.089   0.449   0.754  0.0809  0.1544 -0.1154
 3305SOL    HW213062   6.064   0.330   0.844  0.0107 -0.3794 -0.8399
 3306SOL     OW13063   5.544   5.289   7.526  0.1266 -0.1430 -0.0387
 3306SOL    HW113064   5.498   5.213   7.562  2.4360 -1.8882 -0.5425
 3306SOL    HW213065   5.636   5.265   7.527  0.8695  2.2659 -1.2075
 3307SOL     OW13066   4.584   7.844   3.318  0.4679 -0.5945 -0.1207
 3307SOL    HW113067   4.671   7.858   3.280  0.6703 -0.0977  0.5128
 3307SOL    HW213068   4.584   7.895   3.399  0.2153 -2.0344  0.8245
 3308SOL     OW13069   1.728   6.184   6.456 -0.1941  0.1079  0.0336
 3308SOL    HW113070   1.739   6.277   6.439  0.3998  0.2124  0.9587
 3308SOL    HW213071   1.763   6.141   6.378 -2.3621  0.6666 -1.3546
 3309SOL     OW13072   0.366   2.212   7.991 -0.1397 -0.0954 -0.0179
 3309SOL    HW113073   0.281   2.185   8.025 -1.4800  1.7907 -1.6079
 3309SOL    HW213074   0.387   2.291   8.041  0.6704 -0.5106  0.3136
 3310SOL     OW13075   3.017   4.415   1.610 -0.1694 -0.1293 -0.6737
 3310SOL    HW113076   3.078   4.345   1.587  0.5499 -0.3846  1.6567
 3310SOL    HW213077   2.955   4.418   1.538  1.6826 -0.9172 -2.4100
 3311SOL     OW13078   6.488   6.195   1.970  0.5249 -0.3735 -0.9295
 3311SOL    HW113079   6.489   6.201   1.874 -0.7089  0.1694 -0.9229
 3311SOL    HW213080   6.541   6.268   2.000 -0.8030  0.7388 -1.1834
 3312SOL     OW13081   2.681   3.965   6.849  0.1882 -0.1344  0.0767
 3312SOL    HW113082   2.594   3.930   6.868  0.0947 -0.3681 -0.7577
 3312SOL    HW213083   2.703   4.017   6.927 -0.2741 -0.8702  0.7063
 3313SOL     OW13084   2.868   2.984   1.338  0.1748 -0.2815 -0.0531
 3313SOL    HW113085   2.963   2.973   1.331  0.6466  1.2875  2.6228
 3313SOL    HW213086   2.851   2.993   1.432 -2.5846  0.0352 -0.4866
 3314SOL     OW13087   3.952   2.533   3.501 -0.3544 -0.4065  0.7536
 3314SOL    HW113088   3.955   2.445   3.540 -1.2667 -1.2755 -0.9693
 3314SOL    HW213089   3.864   2.564   3.520 -0.1825 -0.0539  0.9692
 3315SOL     OW13090   7.196   7.449   3.016 -0.2763  0.4089  0.5940
 3315SOL    HW113091   7.159   7.433   2.930  0.4560 -0.2887  0.3964
 3315SOL    HW213092   7.243   7.368   3.038  0.9099  1.1618  0.9276
 3316SOL     OW13093   8.042   6.679   5.260  0.1541  0.0372  0.4995
 3316SOL    HW113094   7.962   6.716   5.223 -0.4460 -0.2465  1.4751
 3316SOL    HW213095   8.082   6.632   5.188 -1.5976 -1.5039  0.4566
 3317SOL     OW13096   2.625   7.879   4.450 -0.4816  0.3166 -0.3672
 3317SOL    HW113097   2.712   7.896   4.414  0.1542 -0.2639  0.8602
 3317SOL    HW213098   2.568   7.942   4.404  0.4896  0.4066 -1.4970
 3318SOL     OW13099   6.723   7.432   6.507 -0.3529 -0.2043  0.1519
 3318SOL    HW113100   6.688   7.343   6.506 -0.6273 -0.1016  0.3922
 3318SOL    HW213101   6.687   7.473   6.428  1.7074 -1.0255 -1.2856
 3319SOL     OW13102   1.214   3.187   4.571  0.1640  0.4110 -0.4506
 3319SOL    HW113103   1.240   3.174   4.662 -1.0666 -0.4710 -0.1989
 3319SOL    HW213104   1.260   3.119   4.522  0.0400  0.2384 -0.3286
 3320SOL     OW13105   7.864   3.257   1.970 -0.0674 -0.2596 -0.0321
 3320SOL    HW113106   7.876   3.171   1.928  0.1484 -0.5694  0.6523
 3320SOL    HW213107   7.949   3.277   2.009 -0.2336  0.0793  0.1593
 3321SOL     OW13108   6.878   4.377   5.485  0.9151 -0.0338  0.5828
 3321SOL    HW113109   6.894   4.471   5.483  1.0608 -0.0651 -0.9325
 3321SOL    HW213110   6.913   4.345   5.402  0.0264 -1.2896  0.6591
 3322SOL     OW13111   6.206   1.290   4.241  0.4620 -0.0545  0.3971
 3322SOL    HW113112   6.285   1.236   4.243  1.1878  0.9577  2.5332
 3322SOL    HW213113   6.237   1.380   4.234 -0.5835  0.2901 -0.0917
 3323SOL     OW13114   7.949   7.370   3.418  0.0573  0.3393 -0.1649
 3323SOL    HW113115   7.866   7.398   3.457 -1.1580 -0.9168 -1.6619
 3323SOL    HW213116   7.934   7.378   3.324  0.8258 -1.9782 -0.5383
 3324SOL     OW13117   5.439   7.214   4.388 -0.1878  0.4528 -1.2261
 3324SOL    HW113118   5.391   7.249   4.313 -1.0342  0.7805 -0.5481
 3324SOL    HW213119   5.513   7.274   4.399  0.0305  0.3131 -1.8904
 3325SOL     OW13120   7.508   3.303   4.090 -0.3647  0.4290  0.1968
 3325SOL    HW113121   7.577   3.335   4.032 -2.1888 -0.7503 -2.7913
 3325SOL    HW213122   7.548   3.229   4.136  0.7134  0.5187 -0.5571
 3326SOL     OW13123   6.149   1.868   3.826  0.4867  0.4983  0.1243
 3326SOL    HW113124   6.116   1.826   3.746 -0.4915  2.5773 -0.6354
 3326SOL    HW213125   6.150   1.797   3.891 -1.0584 -0.7171 -1.0759
 3327SOL     OW13126   7.425   2.682   0.392  0.3002 -0.2296 -0.3884
 3327SOL    HW113127   7.341   2.694   0.437  0.3804 -0.9814 -0.0257
 3327SOL    HW213128   7.401   2.646   0.307  0.2358 -0.0848 -0.4329
 3328SOL     OW13129   0.560   6.942   7.130 -0.1668 -0.1251 -0.1517
 3328SOL    HW113130   0.499   7.005   7.169  1.8601  0.9306  1.4691
 3328SOL    HW213131   0.505   6.890   7.071 -2.3003  1.8289 -0.0365
 3329SOL     OW13132   5.971   0.159   2.308  0.5494 -0.6798 -0.0035
 3329SOL    HW113133   5.946   0.074   2.274 -0.2494 -0.6672  0.5445
 3329SOL    HW213134   6.009   0.205   2.233  2.2244 -1.9785 -0.0081
 3330SOL     OW13135   5.818   4.688   7.880 -0.3516 -0.4290  0.0295
 3330SOL    HW113136   5.728   4.718   7.891 -0.1208  0.3281 -0.0666
 3330SOL    HW213137   5.855   4.690   7.968 -0.0288  0.6210 -0.1094
 3331SOL     OW13138   2.764   4.928   3.727 -0.4668  0.4020 -0.4624
 3331SOL    HW113139   2.825   5.002   3.728  1.6591 -1.2492  1.0350
 3331SOL    HW213140   2.714   4.937   3.808  0.9947 -0.6628  0.6042
 3332SOL     OW13141   4.773   7.898   4.745  0.0687 -0.2727  0.1034
 3332SOL    HW113142   4.862   7.929   4.725  0.6434 -2.0142 -0.2043
 3332SOL    HW213143   4.770   7.898   4.840  1.2206 -2.2572  0.1944
 3333SOL     OW13144   4.678   4.282   5.472  0.1804  0.4068  0.1780
 3333SOL    HW113145   4.649   4.359   5.423 -1.0260 -0.8441 -1.1927
 3333SOL    HW213146   4.754   4.250   5.423 -0.2173 -0.0818 -0.1369
 3334SOL     OW13147   1.683   1.949   3.749 -0.1101  0.0922  0.0454
 3334SOL    HW113148   1.607   1.916   3.796 -1.7424 -0.6732 -2.8950
 3334SOL    HW213149   1.706   1.879   3.688  0.9764  1.5360 -1.2831
 3335SOL     OW13150   6.371   5.042   6.651 -0.0522 -0.0830 -0.1180
 3335SOL    HW113151   6.395   5.128   6.685  2.1743  0.1516 -1.9567
 3335SOL    HW213152   6.279   5.049   6.628  0.0863  1.8543 -0.2444
 3336SOL     OW13153   5.921   5.750   7.671 -0.6378 -0.9566  0.0535
 3336SOL    HW113154   5.951   5.743   7.581  2.4652 -0.5329  0.9304
 3336SOL    HW213155   5.837   5.795   7.666 -0.2988 -0.5100 -2.5587
 3337SOL     OW13156   1.751   0.691   4.425  0.3098 -0.3363 -0.0337
 3337SOL    HW113157   1.771   0.780   4.394  0.3088 -0.6807 -1.0781
 3337SOL    HW213158   1.785   0.634   4.356 -0.7960 -1.0964  0.0271
 3338SOL     OW13159   4.189   7.180   7.307  0.0644  0.1894 -0.2159
 3338SOL    HW113160   4.119   7.190   7.241  0.6993 -1.7126 -1.2626
 3338SOL    HW213161   4.246   7.255   7.293 -0.2032  0.1947 -1.3816
 3339SOL     OW13162   5.415   5.833   5.519  0.4417 -0.0850 -1.1580
 3339SOL    HW113163   5.498   5.797   5.550  0.6227 -0.2256 -1.7823
 3339SOL    HW213164   5.429   5.846   5.425 -1.0004 -2.3296 -1.7572
 3340SOL     OW13165   7.598   3.051   2.179  0.3002  0.3352 -0.2102
 3340SOL    HW113166   7.638   3.122   2.230 -0.0975  1.2179 -1.0785
 3340SOL    HW213167   7.642   2.972   2.210  1.1247  1.0141  0.4342
 3341SOL     OW13168   0.339   3.223   3.817 -0.2524  0.1573 -0.4496
 3341SOL    HW113169   0.395   3.176   3.878  0.0756 -0.1463 -0.9730
 3341SOL    HW213170   0.268   3.258   3.871 -0.8818 -1.5063 -0.1486
 3342SOL     OW13171   4.779   0.536   4.568 -0.3567  0.1123 -0.1500
 3342SOL    HW113172   4.870   0.517   4.590 -0.7596 -1.6193  0.1737
 3342SOL    HW213173   4.754   0.607   4.628 -0.2328 -1.7814  2.3310
 3343SOL     OW13174   1.880   6.889   6.524 -0.4897  0.6792  0.1270
 3343SOL    HW113175   1.918   6.916   6.440  0.9564 -4.2668 -1.1190
 3343SOL    HW213176   1.954   6.890   6.585 -0.3111 -0.6658 -0.0485
 3344SOL     OW13177   2.514   1.865   6.461 -0.2481  0.1153  0.6300
 3344SOL    HW113178   2.454   1.912   6.404  1.7216  1.9973 -0.0206
 3344SOL    HW213179   2.466   1.787   6.488 -2.6237  1.1045 -0.5173
 3345SOL     OW13180   3.097   1.295   4.116 -0.4609 -0.1454 -0.5175
 3345SOL    HW113181   3.114   1.273   4.208  0.1579  0.2742 -0.5257
 3345SOL    HW213182   3.047   1.376   4.119  1.0389  0.8194 -0.5684
 3346SOL     OW13183   0.652   7.481   0.706 -0.7704 -0.0889  0.2376
 3346SOL    HW113184   0.726   7.529   0.743 -0.9098 -0.3494  0.8678
 3346SOL    HW213185   0.682   7.391   0.700 -1.5116 -0.4924  1.9016
 3347SOL     OW13186   6.144   7.680   4.947 -0.4507 -0.0046  0.4360
 3347SOL    HW113187   6.157   7.765   4.989 -0.6183  0.0660  0.3448
 3347SOL    HW213188   6.132   7.700   4.854 -1.2836 -0.0597  0.5242
 3348SOL     OW13189   1.824   7.391   0.949 -0.5154  0.5322  0.1994
 3348SOL    HW113190   1.769   7.423   0.878 -0.2150  1.6724  0.4665
 3348SOL    HW213191   1.809   7.297   0.950 -1.3754  0.6469 -0.6443
 3349SOL     OW13192   6.415   7.429   1.683 -0.6160 -0.2621 -0.1141
 3349SOL    HW113193   6.384   7.502   1.736 -2.7564 -1.0060 -0.2645
 3349SOL    HW213194   6.417   7.464   1.594 -1.1440 -0.2287 -0.1163
 3350SOL     OW13195   5.666   6.405   5.885  0.2011 -0.3748  0.1661
 3350SOL    HW113196   5.597   6.374   5.826 -0.5259  1.3148  0.0618
 3350SOL    HW213197   5.618   6.455   5.952  1.1840 -0.6489  1.0918
 3351SOL     OW13198   5.425   5.903   1.943 -0.5957 -0.1570  0.0409
 3351SOL    HW113199   5.357   5.835   1.945 -2.4825  1.5870 -1.0356
 3351SOL    HW213200   5.449   5.912   1.851  0.1915  0.1240  0.2601
 3352SOL     OW13201   3.356   1.097   3.891  0.1609  0.1427 -0.7658
 3352SOL    HW113202   3.315   1.078   3.975 -0.0665  0.1656 -0.8692
 3352SOL    HW213203   3.282   1.108   3.831  0.3348 -0.6954 -1.1402
 3353SOL     OW13204   5.110   4.354   5.852 -0.3669  0.1303  0.0899
 3353SOL    HW113205   5.087   4.368   5.944  0.4174 -1.5299  0.5641
 3353SOL    HW213206   5.027   4.361   5.805 -0.7066  1.4697  0.8430
 3354SOL     OW13207   1.332   4.621   2.394 -0.1410  0.1800 -0.1660
 3354SOL    HW113208   1.364   4.601   2.306 -0.0318  1.1870 -0.3705
 3354SOL    HW213209   1.409   4.615   2.450 -0.6478 -2.9956  0.3471
 3355SOL     OW13210   6.057   2.491   4.531 -0.3136 -0.2252  0.0512
 3355SOL    HW113211   6.145   2.452   4.531 -0.8702 -1.5135 -0.2347
 3355SOL    HW213212   6.033   2.496   4.438 -1.0384 -1.0513  0.1846
 3356SOL     OW13213   0.687   2.621   6.605  0.0419 -0.4789  0.4644
 3356SOL    HW113214   0.772   2.665   6.610  1.3728 -2.6418 -1.2693
 3356SOL    HW213215   0.623   2.692   6.605  1.7887  1.2226  2.0373
 3357SOL     OW13216   4.735   0.870   2.403 -0.0270 -0.0801 -0.5727
 3357SOL    HW113217   4.816   0.853   2.451 -1.2626 -0.6228  1.4279
 3357SOL    HW213218   4.732   0.965   2.394 -0.1732  0.1241  1.2549
 3358SOL     OW13219   6.072   5.213   3.108 -0.6309  0.1042  0.2768
 3358SOL    HW113220   6.096   5.181   3.195  0.0628 -0.9664 -0.2809
 3358SOL    HW213221   6.060   5.307   3.119  2.2585  0.4927  0.9767
 3359SOL     OW13222   2.524   6.236   7.593 -0.0893  0.4275 -0.1950
 3359SOL    HW113223   2.432   6.218   7.570 -0.3560  1.5379 -0.0496
 3359SOL    HW213224   2.542   6.177   7.666 -1.1354  1.1563  0.6993
 3360SOL     OW13225   5.002   6.823   2.244  0.1476 -0.4423  0.0596
 3360SOL    HW113226   4.911   6.829   2.215 -0.0147 -1.1090  0.4084
 3360SOL    HW213227   5.017   6.729   2.258  1.0217 -0.3906 -0.4092
 3361SOL     OW13228   2.969   4.877   4.053 -0.2114  0.6246 -0.0609
 3361SOL    HW113229   3.030   4.811   4.018 -0.5335 -0.1281  0.7789
 3361SOL    HW213230   2.882   4.843   4.032 -0.3799  1.1196 -0.1989
 3362SOL     OW13231   2.447   7.797   6.865  0.0491 -0.3080  0.1716
 3362SOL    HW113232   2.523   7.823   6.917 -0.1402 -0.4833  0.5423
 3362SOL    HW213233   2.446   7.701   6.871 -0.8856 -0.2602  1.1693
 3363SOL     OW13234   2.512   1.228   2.594 -0.4602  0.3885 -0.2147
 3363SOL    HW113235   2.535   1.289   2.663 -2.1585 -0.5255  1.2317
 3363SOL    HW213236   2.505   1.282   2.515  1.5558  1.4412  0.2524
 3364SOL     OW13237   1.750   2.702   3.968  0.1076  0.2056  0.4635
 3364SOL    HW113238   1.701   2.711   4.050  0.6898 -3.3171  1.3478
 3364SOL    HW213239   1.819   2.639   3.988  1.5609  0.7671 -2.2507
 3365SOL     OW13240   5.665   1.867   4.047 -0.2349 -0.2331  0.3296
 3365SOL    HW113241   5.611   1.946   4.047  0.0138 -0.0575 -0.0798
 3365SOL    HW213242   5.732   1.884   3.980 -0.2216 -0.8229  0.1910
 3366SOL     OW13243   7.395   4.933   0.317  0.2802  0.0884  0.6236
 3366SOL    HW113244   7.434   5.016   0.293 -2.4744  1.3560  0.0763
 3366SOL    HW213245   7.381   4.887   0.234 -0.1335  0.0449  0.7108
 3367SOL     OW13246   7.488   4.569   2.977  0.2734  0.0677 -0.2010
 3367SOL    HW113247   7.470   4.479   3.001  1.4488 -0.5693 -1.5743
 3367SOL    HW213248   7.579   4.584   3.002 -0.2195  1.2416  1.0125
 3368SOL     OW13249   6.527   5.996   6.003 -0.1334 -0.0264 -0.1393
 3368SOL    HW113250   6.438   6.005   6.035 -0.1638  0.3687 -0.3391
 3368SOL    HW213251   6.581   6.035   6.072 -0.1628  0.3516 -0.3296
 3369SOL     OW13252   0.963   2.938   7.079  0.4674  0.1768  0.3443
 3369SOL    HW113253   1.018   2.932   7.002  1.4628  0.8847  0.9828
 3369SOL    HW213254   0.927   3.026   7.077  0.4885  0.1946  0.6874
 3370SOL     OW13255   4.637   1.735   7.603  0.0315  0.2583  0.1186
 3370SOL    HW113256   4.547   1.762   7.586 -1.6973 -3.4240  2.0790
 3370SOL    HW213257   4.650   1.752   7.697  0.8525 -0.4572  0.1508
 3371SOL     OW13258   3.260   2.023   5.619 -0.0176 -0.4089  0.2989
 3371SOL    HW113259   3.346   2.025   5.660 -0.3290 -1.6116  1.0688
 3371SOL    HW213260   3.249   1.932   5.591 -0.8990 -0.1959 -0.0717
 3372SOL     OW13261   5.575   6.936   0.558  0.1337  0.0935  0.5099
 3372SOL    HW113262   5.533   6.993   0.622  1.3856 -0.6164  2.0233
 3372SOL    HW213263   5.519   6.942   0.480 -0.4458  2.3914  1.0287
 3373SOL     OW13264   5.873   6.203   5.191 -0.0864  0.4933  0.5035
 3373SOL    HW113265   5.892   6.292   5.220  1.8063 -0.3444  2.0849
 3373SOL    HW213266   5.907   6.199   5.102 -1.1135  1.5975  0.0257
 3374SOL     OW13267   6.070   0.515   7.604 -0.0124  0.0917 -0.5290
 3374SOL    HW113268   6.128   0.481   7.672  0.9328  1.0231 -0.8430
 3374SOL    HW213269   6.127   0.528   7.528 -0.9473 -0.4414 -1.3512
 3375SOL     OW13270   4.127   5.127   6.498 -0.4440  0.0256 -0.2302
 3375SOL    HW113271   4.094   5.120   6.409 -0.1014  1.1669 -0.4611
 3375SOL    HW213272   4.068   5.189   6.541 -0.4268 -0.2839  0.2598
 3376SOL     OW13273   4.103   5.455   4.693  0.0267 -0.0627 -0.2092
 3376SOL    HW113274   4.129   5.509   4.618 -0.2443 -0.3839 -0.5382
 3376SOL    HW213275   4.015   5.487   4.715  1.0754  1.8245  1.6360
 3377SOL     OW13276   0.496   4.520   1.944  0.0878  0.5096 -0.1384
 3377SOL    HW113277   0.589   4.538   1.960  0.4133  0.4155 -1.7069
 3377SOL    HW213278   0.454   4.533   2.028  1.7433 -0.8556  0.9675
 3378SOL     OW13279   4.677   3.493   6.011 -0.2817  0.4069  0.4810
 3378SOL    HW113280   4.751   3.432   6.005 -0.6640 -0.0265  0.1209
 3378SOL    HW213281   4.705   3.558   6.075  0.4155  0.2456  0.3523
 3379SOL     OW13282   4.958   5.636   7.258 -0.4197 -0.2147  0.3995
 3379SOL    HW113283   4.939   5.687   7.180  1.3594  1.2627  0.8687
 3379SOL    HW213284   5.004   5.559   7.226 -0.8859 -0.2957 -0.0923
 3380SOL     OW13285   1.572   7.302   0.864 -0.9393 -0.0400  0.4046
 3380SOL    HW113286   1.587   7.347   0.782  0.5574  0.0090  0.6789
 3380SOL    HW213287   1.604   7.213   0.849  0.7548  0.3780  1.3685
 3381SOL     OW13288   0.791   0.982   3.539  0.5007 -0.0561 -0.1549
 3381SOL    HW113289   0.845   0.989   3.617  0.6423 -0.2774 -0.2305
 3381SOL    HW213290   0.774   0.888   3.531 -0.5015  0.0692  0.2812
 3382SOL     OW13291   1.444   1.287   2.627  0.0948  0.4504  0.0458
 3382SOL    HW113292   1.537   1.301   2.649  0.3610 -0.8594 -0.1679
 3382SOL    HW213293   1.410   1.375   2.612  1.1476  1.0100  0.7530
 3383SOL     OW13294   2.539   1.663   2.160 -0.0172 -0.0023  0.1762
 3383SOL    HW113295   2.479   1.631   2.093 -0.1255 -1.1784  0.8071
 3383SOL    HW213296   2.506   1.750   2.183  1.1037  1.2754 -2.6050
 3384SOL     OW13297   4.722   7.297   0.616  0.5723  0.0655  0.2958
 3384SOL    HW113298   4.690   7.245   0.689  0.7053 -0.0262  0.2881
 3384SOL    HW213299   4.642   7.327   0.572  0.4065  2.1235  1.8552
 3385SOL     OW13300   1.991   2.837   2.093  0.4607 -0.3361 -0.1844
 3385SOL    HW113301   2.084   2.826   2.114  0.5855 -1.5751 -1.2914
 3385SOL    HW213302   1.965   2.754   2.053 -1.0088  0.1605 -0.3171
 3386SOL     OW13303   6.147   5.537   2.877 -0.0735  0.5353  0.2691
 3386SOL    HW113304   6.128   5.459   2.825 -0.4844  1.5161 -1.0908
 3386SOL    HW213305   6.094   5.526   2.956  0.0132 -0.6438  0.1845
 3387SOL     OW13306   1.776   7.209   7.991 -0.0514 -0.6231 -0.1380
 3387SOL    HW113307   1.767   7.217   7.896 -0.2628 -1.5268 -0.1967
 3387SOL    HW213308   1.854   7.156   8.005 -0.0469 -0.5356  0.1990
 3388SOL     OW13309   7.940   3.669   6.797 -0.1554 -0.1067  0.7626
 3388SOL    HW113310   8.034   3.686   6.790 -0.2168  0.9277  2.0613
 3388SOL    HW213311   7.933   3.589   6.848  0.0214 -0.2132  0.6202
 3389SOL     OW13312   6.249   8.004   0.335 -0.7613 -0.7760  0.3128
 3389SOL    HW113313   6.236   8.073   0.400  1.3009 -0.1216  0.0940
 3389SOL    HW213314   6.207   8.037   0.256 -0.4357 -0.1047  0.4171
 3390SOL     OW13315   4.233   3.093   2.458 -0.0331  0.5978  0.0167
 3390SOL    HW113316   4.324   3.086   2.485  0.3457  3.4256 -0.2338
 3390SOL    HW213317   4.218   3.016   2.403  2.6897  0.8006 -1.1794
 3391SOL     OW13318   3.471   5.336   7.472  0.3247  0.3203 -0.0421
 3391SOL    HW113319   3.509   5.337   7.560 -0.3604  2.1232  0.2886
 3391SOL    HW213320   3.531   5.390   7.420  3.0890 -3.9731 -1.8946
 3392SOL     OW13321   5.804   2.361   3.063 -0.6862  0.8204 -0.5301
 3392SOL    HW113322   5.856   2.280   3.068 -2.1023 -0.0642  0.6086
 3392SOL    HW213323   5.741   2.344   2.992 -1.8782  0.3341  0.6048
 3393SOL     OW13324   6.314   0.346   1.734  0.4364  0.4497 -0.3265
 3393SOL    HW113325   6.368   0.391   1.799 -2.2059  1.9244  0.9762
 3393SOL    HW213326   6.232   0.395   1.732 -0.3670 -0.7725 -3.3260
 3394SOL     OW13327   1.488   5.838   2.289  0.5132  0.1220  0.2312
 3394SOL    HW113328   1.417   5.864   2.230  0.3084 -0.6502  0.1170
 3394SOL    HW213329   1.524   5.759   2.248  1.8319  0.8438 -0.0273
 3395SOL     OW13330   1.465   3.082   5.015 -0.2904 -0.1192 -0.1201
 3395SOL    HW113331   1.539   3.088   4.956 -1.0526 -1.4674 -1.2679
 3395SOL    HW213332   1.497   3.033   5.090  0.1255 -0.2012 -0.3542
 3396SOL     OW13333   7.339   4.105   0.630 -0.2631  0.2787 -0.1395
 3396SOL    HW113334   7.377   4.021   0.655  2.0102  0.0156 -3.6635
 3396SOL    HW213335   7.248   4.085   0.609  0.1375 -1.2470 -0.5248
 3397SOL     OW13336   1.711   7.699   1.624  0.0461  0.4669  0.2658
 3397SOL    HW113337   1.661   7.780   1.611  1.5136  1.1975 -1.2890
 3397SOL    HW213338   1.803   7.728   1.627  0.5601 -1.0735  0.4128
 3398SOL     OW13339   7.997   3.764   3.177 -0.8321 -0.5782 -0.1919
 3398SOL    HW113340   7.934   3.705   3.136  2.1545 -2.4242 -2.5811
 3398SOL    HW213341   8.046   3.802   3.104  2.2856 -1.0722  1.4415
 3399SOL     OW13342   0.733   5.877   3.272 -0.3174  0.3735  0.6169
 3399SOL    HW113343   0.770   5.911   3.190 -0.3010  0.6194  0.7272
 3399SOL    HW213344   0.799   5.816   3.305  0.1504  1.0764  0.9987
 3400SOL     OW13345   0.354   1.609   5.045  0.2412  0.7681  0.1327
 3400SOL    HW113346   0.403   1.542   5.092 -0.1637 -0.7498 -1.4779
 3400SOL    HW213347   0.415   1.641   4.979 -0.6930 -0.8428 -1.6188
 3401SOL     OW13348   0.994   2.714   6.445 -0.0710  0.2959 -0.3919
 3401SOL    HW113349   0.942   2.634   6.442  1.5504 -0.8180 -0.0248
 3401SOL    HW213350   1.052   2.708   6.369  1.3353  0.1674  0.6345
 3402SOL     OW13351   0.743   5.735   6.991 -0.2971  0.0251  0.1042
 3402SOL    HW113352   0.734   5.643   6.965  0.4527 -0.0388  0.0644
 3402SOL    HW213353   0.713   5.784   6.915  1.1688 -0.1696 -0.6279
 3403SOL     OW13354   0.578   5.384   0.219 -0.3856  0.3229 -0.7542
 3403SOL    HW113355   0.577   5.478   0.235  1.1011 -0.1215  2.8974
 3403SOL    HW213356   0.660   5.368   0.172  0.6304  0.6461  0.8494
 3404SOL     OW13357   4.908   5.759   5.988  0.3419  0.4087  0.4845
 3404SOL    HW113358   4.908   5.779   6.081  0.3801  1.7524  0.2234
 3404SOL    HW213359   4.991   5.715   5.972  0.0292 -0.4608  1.1977
 3405SOL     OW13360   6.494   3.652   2.454  0.3589 -0.2786  0.2898
 3405SOL    HW113361   6.515   3.559   2.443  0.5683 -0.0782 -1.1244
 3405SOL    HW213362   6.577   3.697   2.441 -0.1597  0.2478 -1.3735
 3406SOL     OW13363   2.127   5.451   6.278  0.1920 -0.1649 -0.1571
 3406SOL    HW113364   2.186   5.518   6.312 -0.1588 -0.8782  2.0434
 3406SOL    HW213365   2.042   5.471   6.318 -0.1870 -1.2419 -0.3891
 3407SOL     OW13366   3.542   6.700   7.424  0.2153  0.3724  0.0481
 3407SOL    HW113367   3.519   6.792   7.441 -0.3422  0.2069  0.2255
 3407SOL    HW213368   3.518   6.655   7.505 -0.1562 -0.0372 -0.2893
 3408SOL     OW13369   0.110   5.769   4.285  0.3887  0.1184 -0.2210
 3408SOL    HW113370   0.054   5.806   4.353  1.1113  0.4460  0.2152
 3408SOL    HW213371   0.057   5.773   4.205 -0.3472  0.0412  0.2569
 3409SOL     OW13372   1.950   3.425   4.915  0.6117  0.0909 -0.0519
 3409SOL    HW113373   2.004   3.388   4.845  0.6216 -2.0448  1.0106
 3409SOL    HW213374   1.874   3.461   4.869  1.4265  0.2881 -1.2899
 3410SOL     OW13375   4.063   3.325   0.095 -0.4372 -0.3768 -0.4201
 3410SOL    HW113376   4.145   3.373   0.108 -0.7380 -0.5931  3.3407
 3410SOL    HW213377   4.008   3.384   0.043  1.7400  0.0737 -2.3992
 3411SOL     OW13378   2.718   7.618   1.322  0.5620  0.1667  0.4622
 3411SOL    HW113379   2.694   7.710   1.337 -2.6295 -0.5371  0.3665
 3411SOL    HW213380   2.699   7.575   1.405  0.4284 -0.6819  0.0013
 3412SOL     OW13381   0.291   0.257   7.054  0.3653  0.0928 -0.3943
 3412SOL    HW113382   0.243   0.180   7.026  1.8410 -1.1792  0.4271
 3412SOL    HW213383   0.344   0.282   6.979 -0.9299  1.0307 -1.0382
 3413SOL     OW13384   5.813   6.874   5.732  0.0264  0.7055  0.2734
 3413SOL    HW113385   5.822   6.787   5.771 -0.7669 -0.3730 -1.7762
 3413SOL    HW213386   5.901   6.912   5.738  0.9733 -1.1557 -0.7677
 3414SOL     OW13387   0.796   1.348   1.568 -0.5217  0.0655 -0.2526
 3414SOL    HW113388   0.703   1.367   1.577 -0.0431  2.1494  1.1532
 3414SOL    HW213389   0.816   1.291   1.643 -0.4236  0.7833  0.2802
 3415SOL     OW13390   1.270   4.078   6.998 -0.0172 -0.0979 -0.2776
 3415SOL    HW113391   1.346   4.020   6.986  0.3490  0.1657  0.7344
 3415SOL    HW213392   1.304   4.153   7.045 -0.8714  0.1229  0.0039
 3416SOL     OW13393   2.137   6.257   2.278  0.7157 -0.4624  0.2863
 3416SOL    HW113394   2.142   6.353   2.288  0.0077 -0.6265  3.4639
 3416SOL    HW213395   2.106   6.244   2.189  1.6757  2.2279 -0.5474
 3417SOL     OW13396   7.276   7.900   5.225  0.3395  0.5698 -0.1151
 3417SOL    HW113397   7.215   7.974   5.220  0.0884  0.3952  0.2550
 3417SOL    HW213398   7.268   7.869   5.316 -1.0764 -1.1877 -0.7796
 3418SOL     OW13399   7.696   1.049   7.232  0.9662 -0.1197  0.5261
 3418SOL    HW113400   7.672   1.033   7.140  2.1654 -0.5001  0.2680
 3418SOL    HW213401   7.614   1.038   7.280  0.0077  1.4695 -0.6393
 3419SOL     OW13402   4.770   1.821   5.997 -0.5905  0.0606 -0.1965
 3419SOL    HW113403   4.767   1.775   5.913  1.7046  0.0863 -0.3615
 3419SOL    HW213404   4.856   1.864   5.998 -1.1444  1.2454  1.5683
 3420SOL     OW13405   4.483   4.396   7.600 -0.2963 -0.4466 -0.2429
 3420SOL    HW113406   4.528   4.480   7.596  1.5015 -1.3718 -0.6536
 3420SOL    HW213407   4.497   4.366   7.690  0.3322 -0.9366 -0.4957
 3421SOL     OW13408   5.484   7.982   5.496 -0.2301  0.4171  0.1459
 3421SOL    HW113409   5.475   8.008   5.405 -1.5655 -0.8180 -0.1114
 3421SOL    HW213410   5.502   8.063   5.543  0.2242  1.1066 -1.1716
 3422SOL     OW13411   5.050   3.782   1.873  0.0368 -0.1362  0.5160
 3422SOL    HW113412   5.000   3.789   1.955 -0.0636 -1.2360  0.5641
 3422SOL    HW213413   5.138   3.757   1.901 -0.1757 -1.1917  0.2502
 3423SOL     OW13414   3.194   6.793   1.462  0.0231  0.0406  0.1623
 3423SOL    HW113415   3.114   6.758   1.501  0.1456  0.1136  0.4809
 3423SOL    HW213416   3.164   6.849   1.390 -0.1512 -2.3579 -1.7707
 3424SOL     OW13417   4.124   1.988   2.230 -0.3777 -0.0953 -0.2350
 3424SOL    HW113418   4.142   2.081   2.222 -0.3063  0.0038  0.9730
 3424SOL    HW213419   4.105   1.960   2.140  0.1693  0.9491 -0.6947
 3425SOL     OW13420   3.167   2.592   1.758 -0.6395  0.1636  0.6606
 3425SOL    HW113421   3.183   2.531   1.831  0.9341 -0.5651 -0.2357
 3425SOL    HW213422   3.107   2.544   1.700 -1.7855  0.6917  1.3560
 3426SOL     OW13423   7.758   5.902   0.133 -0.0307  0.4498 -0.4858
 3426SOL    HW113424   7.745   5.866   0.221 -0.3048 -1.2770 -1.1896
 3426SOL    HW213425   7.772   5.996   0.147  1.2514  0.0187  1.5001
 3427SOL     OW13426   5.782   2.821   7.407 -0.0134 -0.4223 -0.0340
 3427SOL    HW113427   5.789   2.847   7.499  0.9621  0.3739 -0.3305
 3427SOL    HW213428   5.806   2.728   7.407 -0.1396 -0.4604  0.5264
 3428SOL     OW13429   7.906   2.412   1.384 -0.3043 -0.2196 -0.3193
 3428SOL    HW113430   7.813   2.429   1.396 -0.2503  1.0111 -1.3858
 3428SOL    HW213431   7.916   2.405   1.289  1.0887  2.4757 -0.4723
 3429SOL     OW13432   6.071   3.772   1.918  0.2711 -0.5377  0.4480
 3429SOL    HW113433   6.042   3.696   1.867 -0.3973  1.1647 -1.8781
 3429SOL    HW213434   6.124   3.735   1.988 -0.4875 -3.1740 -0.2592
 3430SOL     OW13435   3.875   4.670   0.887 -0.2883  0.1777 -0.2101
 3430SOL    HW113436   3.862   4.579   0.911  1.3268  0.1498  0.6588
 3430SOL    HW213437   3.904   4.713   0.968 -1.3871  1.5559 -0.5050
 3431SOL     OW13438   5.438   1.109   5.245  0.6194  0.9796  0.1106
 3431SOL    HW113439   5.362   1.051   5.241 -0.2631  2.0984  0.1101
 3431SOL    HW213440   5.405   1.188   5.289  1.1429  2.4267 -1.9690
 3432SOL     OW13441   3.275   7.536   0.337 -0.5000 -0.8306 -0.1719
 3432SOL    HW113442   3.319   7.547   0.421 -0.1828 -0.6450 -0.3640
 3432SOL    HW213443   3.182   7.526   0.360 -0.5610  0.3405  0.1233
 3433SOL     OW13444   1.882   4.188   7.454 -0.2740 -0.0446 -0.4124
 3433SOL    HW113445   1.810   4.130   7.475  1.2902 -1.4945  1.3400
 3433SOL    HW213446   1.869   4.264   7.510 -0.0671 -0.6292  0.4417
 3434SOL     OW13447   1.353   0.564   3.192  0.1429  0.1855  0.4273
 3434SOL    HW113448   1.307   0.533   3.113  1.5845 -0.5395 -0.1776
 3434SOL    HW213449   1.299   0.534   3.265 -0.2869 -0.7672 -0.2558
 3435SOL     OW13450   7.269   7.558   4.736 -0.1484  0.1495  0.2286
 3435SOL    HW113451   7.284   7.533   4.645 -1.8206 -1.4964  0.3376
 3435SOL    HW213452   7.173   7.558   4.746 -0.0803  2.0122  1.5678
 3436SOL     OW13453   7.944   2.799   6.426 -0.1641  0.1744  0.0407
 3436SOL    HW113454   7.932   2.886   6.465  2.3352 -0.2408  2.0325
 3436SOL    HW213455   7.948   2.815   6.332  0.1254  2.2233  0.3495
 3437SOL     OW13456   3.497   4.012   6.769  0.8668 -0.2431  0.2565
 3437SOL    HW113457   3.440   4.089   6.761  1.1679 -0.0237  0.1889
 3437SOL    HW213458   3.448   3.952   6.826 -0.1114 -0.7104 -1.0345
 3438SOL     OW13459   7.745   5.516   2.869 -0.0785  0.0126 -0.3652
 3438SOL    HW113460   7.719   5.508   2.777 -0.1034 -1.3909 -0.2536
 3438SOL    HW213461   7.719   5.433   2.909  1.8333 -0.2722  0.4206
 3439SOL     OW13462   3.779   7.392   3.777  0.1470 -0.2323 -0.1018
 3439SOL    HW113463   3.814   7.389   3.866  1.6559 -0.4931 -0.6792
 3439SOL    HW213464   3.694   7.348   3.783  1.2759 -2.3959  0.7617
 3440SOL     OW13465   7.249   4.305   7.799  0.5060 -0.2456  0.2347
 3440SOL    HW113466   7.241   4.344   7.712 -1.4650 -0.3962  0.3035
 3440SOL    HW213467   7.303   4.367   7.848  0.8409  0.3167 -0.8020
 3441SOL     OW13468   0.127   1.820   1.070 -0.0987  0.8178 -0.0908
 3441SOL    HW113469   0.128   1.746   1.009 -0.7133  1.4181 -0.8595
 3441SOL    HW213470   0.206   1.869   1.050 -0.1391  0.8405 -0.1975
 3442SOL     OW13471   3.841   7.707   2.393  0.1655  0.1524  0.5289
 3442SOL    HW113472   3.842   7.762   2.472 -1.0740  1.2068 -0.1467
 3442SOL    HW213473   3.751   7.715   2.361  0.6008 -0.4337 -0.8706
 3443SOL     OW13474   1.768   5.791   1.346  0.3602 -0.4259  0.2711
 3443SOL    HW113475   1.831   5.851   1.305  0.1326 -0.4855 -0.1721
 3443SOL    HW213476   1.730   5.841   1.418 -0.3273  0.1989 -0.5196
 3444SOL     OW13477   5.499   7.225   6.491 -0.2856  0.6075  0.4765
 3444SOL    HW113478   5.576   7.181   6.527  0.1945 -0.6963 -1.9348
 3444SOL    HW213479   5.433   7.156   6.483  0.4928  0.0868 -3.4051
 3445SOL     OW13480   1.350   7.867   3.623  0.4159 -0.0039  0.2716
 3445SOL    HW113481   1.327   7.945   3.573  0.9147  1.0205  1.5704
 3445SOL    HW213482   1.284   7.803   3.599  0.2829  0.6499 -1.2003
 3446SOL     OW13483   6.821   6.098   0.039 -0.8812  0.1869  0.4157
 3446SOL    HW113484   6.801   6.053  -0.043 -0.1317  2.1714 -0.9524
 3446SOL    HW213485   6.916   6.093   0.047 -1.0663 -1.8985  2.4120
 3447SOL     OW13486   5.762   6.500   4.245 -0.2363  0.7579 -0.1676
 3447SOL    HW113487   5.742   6.472   4.155  1.9757  2.7836 -1.4077
 3447SOL    HW213488   5.858   6.501   4.249 -0.2901  1.1876  2.0900
 3448SOL     OW13489   2.455   7.917   2.440  0.4612  0.3528 -0.2036
 3448SOL    HW113490   2.422   7.829   2.457  2.1085 -0.2051  0.3369
 3448SOL    HW213491   2.545   7.904   2.410  0.5672  1.8325 -0.6366
 3449SOL     OW13492   1.368   5.317   1.315 -0.2454  0.1085  0.6631
 3449SOL    HW113493   1.335   5.347   1.230  0.1200 -1.0874  0.0785
 3449SOL    HW213494   1.420   5.391   1.348  0.3796  0.2572 -0.5912
 3450SOL     OW13495   0.647   3.994   3.359 -0.1200  0.3069 -0.2976
 3450SOL    HW113496   0.733   4.022   3.328 -0.5161  0.8873 -0.8824
 3450SOL    HW213497   0.608   3.947   3.285 -0.2573 -0.0878  0.0151
 3451SOL     OW13498   5.009   1.352   5.114  0.0134  0.8245  0.1141
 3451SOL    HW113499   5.013   1.283   5.048 -1.5052  1.2880 -0.5122
 3451SOL    HW213500   4.971   1.311   5.191 -2.2146  1.2081 -0.7008
 3452SOL     OW13501   2.310   6.716   2.775 -0.2532 -0.1135  0.2118
 3452SOL    HW113502   2.269   6.703   2.860  0.3042  0.0648  0.5108
 3452SOL    HW213503   2.328   6.810   2.771  1.7012 -0.4020  0.8345
 3453SOL     OW13504   1.715   5.375   7.719 -0.6160 -0.0324  0.3985
 3453SOL    HW113505   1.704   5.382   7.625 -0.3986  1.6154  0.4708
 3453SOL    HW213506   1.753   5.459   7.746  1.3939 -1.2393  1.6633
 3454SOL     OW13507   4.711   5.925   5.886 -0.5902  0.3072 -0.1586
 3454SOL    HW113508   4.785   5.866   5.901 -1.2546 -0.7564 -0.8610
 3454SOL    HW213509   4.751   6.011   5.872  0.6977 -0.5607 -2.3899
 3455SOL     OW13510   6.701   4.485   0.297 -0.1167 -0.6157 -0.4671
 3455SOL    HW113511   6.773   4.449   0.348  0.1278 -0.2985 -0.5799
 3455SOL    HW213512   6.718   4.580   0.296 -1.2955 -0.3539  0.6979
 3456SOL     OW13513   0.712   5.459   6.919  0.2955  0.2239  0.5217
 3456SOL    HW113514   0.749   5.483   6.834  0.3350 -0.1609  0.4290
 3456SOL    HW213515   0.782   5.410   6.962  0.1176  0.0450  0.6042
 3457SOL     OW13516   6.336   2.810   7.060  0.5628 -0.5092  0.1546
 3457SOL    HW113517   6.285   2.747   7.008 -0.3605  0.6642 -0.3927
 3457SOL    HW213518   6.271   2.865   7.102  1.3510  0.7704 -0.2388
 3458SOL     OW13519   2.966   4.472   5.107 -0.0483 -0.1390 -0.0978
 3458SOL    HW113520   2.940   4.563   5.118 -0.6272 -0.2430 -0.5478
 3458SOL    HW213521   2.883   4.424   5.097  0.2321 -0.7651  0.5090
 3459SOL     OW13522   2.367   5.267   7.208  0.0889  0.0509  0.5400
 3459SOL    HW113523   2.418   5.256   7.128 -0.2250 -0.3276  0.3898
 3459SOL    HW213524   2.382   5.186   7.257 -0.3754 -0.0711  0.4883
 3460SOL     OW13525   7.106   6.723   6.335 -0.4555 -0.4790 -0.2504
 3460SOL    HW113526   7.059   6.774   6.269 -0.7066  1.6201  1.4345
 3460SOL    HW213527   7.039   6.702   6.401  0.0577 -1.3879 -0.0073
 3461SOL     OW13528   2.165   4.933   2.590  0.3386  0.4425  0.7110
 3461SOL    HW113529   2.074   4.964   2.585  0.5225  0.8477 -1.9583
 3461SOL    HW213530   2.208   4.994   2.649 -1.0295  0.4391  1.7692
 3462SOL     OW13531   0.811   6.488   5.700 -0.0152  0.0617  0.4529
 3462SOL    HW113532   0.748   6.461   5.633  0.0438  1.2578 -0.0945
 3462SOL    HW213533   0.843   6.573   5.671  1.0341 -0.0206  1.3018
 3463SOL     OW13534   4.546   3.625   2.236  0.2132 -0.4245  0.4387
 3463SOL    HW113535   4.571   3.557   2.173  1.9663  0.5151  0.0489
 3463SOL    HW213536   4.509   3.695   2.182  2.4605  0.7244  0.2650
 3464SOL     OW13537   5.234   2.697   1.133 -0.1961  0.6081  0.1554
 3464SOL    HW113538   5.185   2.769   1.093 -0.4362  0.4522  0.1599
 3464SOL    HW213539   5.288   2.663   1.062 -1.6313 -0.5445 -0.4422
 3465SOL     OW13540   0.591   6.404   5.528  0.5201 -0.4436 -0.2263
 3465SOL    HW113541   0.612   6.424   5.437 -1.6043  0.9475 -0.4760
 3465SOL    HW213542   0.520   6.341   5.524  0.9431 -0.9893  0.5084
 3466SOL     OW13543   5.297   2.805   0.582 -0.2015  0.0898 -0.0298
 3466SOL    HW113544   5.207   2.838   0.584 -0.3434 -0.0667 -1.8099
 3466SOL    HW213545   5.337   2.849   0.507  0.4422 -1.6371 -0.7658
 3467SOL     OW13546   1.629   2.085   4.890  0.0162 -0.0964 -0.0793
 3467SOL    HW113547   1.710   2.090   4.839 -0.5501 -0.2871 -1.0234
 3467SOL    HW213548   1.593   2.174   4.887 -0.6125 -0.3588 -1.0495
 3468SOL     OW13549   0.705   2.649   7.887 -0.3003 -0.4496  0.0141
 3468SOL    HW113550   0.653   2.612   7.958 -0.3209  0.0611  0.2687
 3468SOL    HW213551   0.669   2.737   7.873 -1.1845 -1.0104 -1.5325
 3469SOL     OW13552   5.475   7.633   7.861 -0.3887 -0.2730 -0.1932
 3469SOL    HW113553   5.535   7.695   7.820 -0.7376 -0.4210 -0.9472
 3469SOL    HW213554   5.392   7.647   7.815 -0.7864 -0.4586  0.4580
 3470SOL     OW13555   4.968   2.901   4.812  0.1358  0.0561  0.7681
 3470SOL    HW113556   4.942   2.826   4.865 -1.6999  0.3600  0.3813
 3470SOL    HW213557   5.062   2.911   4.828 -0.1583 -0.4846  3.1199
 3471SOL     OW13558   3.408   0.084   6.542 -0.3616  0.4067 -0.0117
 3471SOL    HW113559   3.467   0.157   6.522 -1.4566  1.2531 -0.2549
 3471SOL    HW213560   3.363   0.066   6.460  0.9238 -1.5631 -0.3561
 3472SOL     OW13561   1.925   5.894   0.651  0.2515  0.2148  0.5974
 3472SOL    HW113562   2.003   5.842   0.636  0.7879  0.5710  1.9848
 3472SOL    HW213563   1.951   5.983   0.628 -0.7381 -0.1078 -2.0196
 3473SOL     OW13564   4.669   2.767   5.400 -0.3180  0.3699  0.1767
 3473SOL    HW113565   4.738   2.815   5.446 -0.6047  2.0833 -1.0783
 3473SOL    HW213566   4.633   2.830   5.339 -1.1431 -1.3152 -1.1551
 3474SOL     OW13567   6.972   2.397   6.524  0.0653 -0.2948  0.7516
 3474SOL    HW113568   6.926   2.473   6.559  2.0279  0.3995  1.9485
 3474SOL    HW213569   7.030   2.368   6.594  0.7633 -1.7339 -0.3469
 3475SOL     OW13570   5.721   7.877   2.768 -0.4348 -0.0494  0.1037
 3475SOL    HW113571   5.768   7.869   2.851 -1.7705  1.8508  1.1259
 3475SOL    HW213572   5.654   7.809   2.773 -0.8902  0.4386  0.8815
 3476SOL     OW13573   5.608   5.460   2.256 -0.6166 -0.2632  0.5525
 3476SOL    HW113574   5.576   5.461   2.166 -0.9980 -1.4404  0.6623
 3476SOL    HW213575   5.539   5.503   2.306 -0.0277  1.1731  0.1912
 3477SOL     OW13576   4.702   4.650   1.438  0.7959 -0.5760 -0.2610
 3477SOL    HW113577   4.690   4.561   1.406 -0.8094  0.1781 -1.9154
 3477SOL    HW213578   4.670   4.706   1.367 -2.4771  1.2627  2.3708
 3478SOL     OW13579   8.044   1.649   7.307  0.2688  0.2169  0.3993
 3478SOL    HW113580   8.109   1.630   7.375  1.3517  1.5464 -0.2263
 3478SOL    HW213581   8.095   1.662   7.227 -0.6773  1.9401  0.0201
 3479SOL     OW13582   6.488   5.880   0.648  0.0499  0.1768 -0.4153
 3479SOL    HW113583   6.414   5.897   0.706  1.7730  1.6024  1.4715
 3479SOL    HW213584   6.492   5.956   0.590  0.4715  0.4522 -0.0278
 3480SOL     OW13585   2.096   3.160   3.246 -0.4088  0.2232  0.3026
 3480SOL    HW113586   2.129   3.090   3.302 -1.4796 -0.5478  0.0034
 3480SOL    HW213587   2.002   3.145   3.241 -0.4529  0.7764 -1.0170
 3481SOL     OW13588   0.070   2.648   7.324 -0.0423  0.1954 -0.3202
 3481SOL    HW113589   0.112   2.618   7.404 -1.1955 -1.6080 -0.3298
 3481SOL    HW213590   0.130   2.714   7.288  0.5368  1.0014  1.9549
 3482SOL     OW13591   0.676   0.181   6.929  0.3698 -0.2969  0.3294
 3482SOL    HW113592   0.604   0.122   6.951 -0.6111  0.6988 -0.1395
 3482SOL    HW213593   0.744   0.160   6.993  0.7037 -3.0546 -0.8130
 3483SOL     OW13594   2.787   7.670   7.613  0.4548 -0.9898 -0.2729
 3483SOL    HW113595   2.706   7.691   7.660 -0.3589 -0.4013 -1.8581
 3483SOL    HW213596   2.856   7.679   7.679 -0.4789  1.2661  0.4952
 3484SOL     OW13597   0.756   0.600   1.501  0.2978  0.1614  0.4659
 3484SOL    HW113598   0.816   0.663   1.541  0.1384 -0.1001  1.1322
 3484SOL    HW213599   0.721   0.551   1.575  1.3006 -1.5066 -0.1107
 3485SOL     OW13600   7.946   2.264   1.685 -0.0660 -0.1158  0.1088
 3485SOL    HW113601   7.927   2.170   1.684 -1.6175  0.1770 -0.5516
 3485SOL    HW213602   7.894   2.300   1.614  0.2376  1.3019  0.5704
 3486SOL     OW13603   7.406   3.104   0.517 -0.0772 -0.6584  0.2000
 3486SOL    HW113604   7.364   3.036   0.570  0.6796 -0.7419  0.6969
 3486SOL    HW213605   7.433   3.171   0.580 -0.2708 -0.1740 -0.2197
 3487SOL     OW13606   5.415   5.400   2.518  0.2874  0.1337  0.3308
 3487SOL    HW113607   5.432   5.312   2.551 -0.4848  0.4906  1.7581
 3487SOL    HW213608   5.376   5.386   2.432  1.0980 -0.8689  0.1044
 3488SOL     OW13609   0.755   4.072   7.017 -0.0838  0.1109  0.6592
 3488SOL    HW113610   0.828   4.024   6.979 -0.3114 -0.2741  0.7084
 3488SOL    HW213611   0.796   4.144   7.066  0.3184 -0.6686  1.5065
 3489SOL     OW13612   3.532   6.964   1.352 -0.2859  0.1206  0.1314
 3489SOL    HW113613   3.527   7.031   1.284 -3.0755 -0.3260 -0.2373
 3489SOL    HW213614   3.481   6.999   1.424 -0.3327 -0.8983  0.6114
 3490SOL     OW13615   1.385   7.051   3.344  0.3253 -0.3098  0.6046
 3490SOL    HW113616   1.366   6.958   3.336  1.9839 -0.7220  0.9935
 3490SOL    HW213617   1.437   7.072   3.266 -2.1628  0.9408 -0.8284
 3491SOL     OW13618   7.820   1.252   2.306 -0.0726 -0.4201  0.1801
 3491SOL    HW113619   7.788   1.232   2.394 -1.7794  0.4670 -0.1939
 3491SOL    HW213620   7.899   1.304   2.321  0.8977 -2.0777  1.1502
 3492SOL     OW13621   6.808   5.271   3.754  0.7554  0.1962 -0.0343
 3492SOL    HW113622   6.900   5.297   3.742  0.5498  1.9236  1.6110
 3492SOL    HW213623   6.759   5.331   3.698  0.5437  0.1272  0.0762
 3493SOL     OW13624   5.256   6.741   6.104  0.5012 -0.2251  0.2982
 3493SOL    HW113625   5.305   6.677   6.053  1.6330  1.0857 -0.3073
 3493SOL    HW213626   5.169   6.702   6.113  0.8823 -1.4203 -0.8611
 3494SOL     OW13627   0.396   4.460   7.927  0.0870 -0.5959  0.6356
 3494SOL    HW113628   0.431   4.546   7.904  1.4083 -1.2851 -0.0486
 3494SOL    HW213629   0.369   4.469   8.018  0.7250  0.3878  0.7495
 3495SOL     OW13630   5.886   4.246   0.411 -0.0383  0.1698  0.3548
 3495SOL    HW113631   5.802   4.207   0.384  0.9553 -0.9388 -1.3443
 3495SOL    HW213632   5.939   4.171   0.438  0.5142  0.8321  1.1317
 3496SOL     OW13633   4.415   7.089   7.739 -0.4758  0.3292 -0.3679
 3496SOL    HW113634   4.346   7.085   7.805 -0.9690  1.0325 -0.8145
 3496SOL    HW213635   4.430   6.998   7.713  0.0687 -0.0058  1.0411
 3497SOL     OW13636   7.690   2.507   3.193  0.3091 -0.2602  0.1935
 3497SOL    HW113637   7.735   2.586   3.223  0.8188 -0.7388  0.7337
 3497SOL    HW213638   7.610   2.538   3.151 -0.8484  0.4199  2.7548
 3498SOL     OW13639   7.706   0.340   0.306 -0.0814 -0.2491 -0.8496
 3498SOL    HW113640   7.800   0.355   0.317 -0.3494  0.8864  0.0810
 3498SOL    HW213641   7.697   0.311   0.215  1.2371 -1.0472 -0.7513
 3499SOL     OW13642   1.332   6.075   2.850 -0.0217  0.1485  0.1977
 3499SOL    HW113643   1.316   5.988   2.887  0.8024 -0.1029 -0.0171
 3499SOL    HW213644   1.391   6.059   2.777 -2.0178  0.5707 -1.6208
 3500SOL     OW13645   7.844   2.901   1.761  0.1912 -0.4497 -0.1002
 3500SOL    HW113646   7.877   2.811   1.762  1.8566  0.0050 -3.0329
 3500SOL    HW213647   7.906   2.949   1.816 -0.3896 -0.9356  1.0257
 3501SOL     OW13648   4.401   2.642   7.429  0.8393 -0.8980  0.0152
 3501SOL    HW113649   4.488   2.655   7.390  0.9481 -2.1110 -0.1599
 3501SOL    HW213650   4.393   2.548   7.441  0.2226 -0.6802  1.6105
 3502SOL     OW13651   6.087   6.008   4.378  0.2561  0.3538 -0.1121
 3502SOL    HW113652   6.040   5.924   4.380  1.0087 -0.0652  0.7109
 3502SOL    HW213653   6.101   6.024   4.285 -0.5444 -0.0578 -0.3200
 3503SOL     OW13654   5.867   5.221   0.274  0.2860  0.4778 -0.0409
 3503SOL    HW113655   5.951   5.190   0.308  0.5308  0.6788 -0.4599
 3503SOL    HW213656   5.883   5.237   0.181  0.3151  2.3362  0.2421
 3504SOL     OW13657   7.134   6.632   4.866 -0.4108  0.3680  0.4294
 3504SOL    HW113658   7.061   6.621   4.926 -0.9188 -1.7046 -0.4720
 3504SOL    HW213659   7.204   6.578   4.903  0.4349  1.7304  0.8794
 3505SOL     OW13660   0.191   4.937   7.713  0.5199 -0.1518 -0.2195
 3505SOL    HW113661   0.237   4.976   7.787 -1.4721 -0.1338  1.0706
 3505SOL    HW213662   0.168   5.012   7.657  0.1486  0.0857  0.2450
 3506SOL     OW13663   2.325   1.089   5.987 -0.0993 -0.0920  0.3422
 3506SOL    HW113664   2.253   1.140   6.024 -0.8618 -0.5891 -0.4055
 3506SOL    HW213665   2.345   1.023   6.054 -2.7435 -2.2056 -0.7512
 3507SOL     OW13666   0.475   3.344   0.941  0.0929  0.2821 -0.6557
 3507SOL    HW113667   0.385   3.312   0.942  0.0507  0.0150 -3.6818
 3507SOL    HW213668   0.516   3.297   0.869  2.1257  1.7327 -0.5159
 3508SOL     OW13669   0.603   0.295   4.828  0.6157 -0.2521 -0.1959
 3508SOL    HW113670   0.518   0.269   4.863 -0.2531  2.1982 -0.3306
 3508SOL    HW213671   0.586   0.312   4.735  1.3212  0.0246 -0.2783
 3509SOL     OW13672   6.620   1.436   2.126 -0.4164 -0.1179  0.2913
 3509SOL    HW113673   6.547   1.481   2.083 -0.5381  0.2518  0.8782
 3509SOL    HW213674   6.597   1.343   2.119 -0.2049 -0.0999 -0.8493
 3510SOL     OW13675   4.888   7.594   4.019 -0.3321  0.6711 -0.0359
 3510SOL    HW113676   4.879   7.500   4.002 -2.1302  0.4634  1.7205
 3510SOL    HW213677   4.968   7.602   4.070  1.0284  0.4192 -2.0191
 3511SOL     OW13678   7.004   4.147   1.995  0.2716 -0.5052  0.2360
 3511SOL    HW113679   6.954   4.080   1.950  0.0202 -0.2336  0.1093
 3511SOL    HW213680   7.093   4.112   2.000  0.1730 -0.7792  0.0369
 3512SOL     OW13681   4.589   0.505   3.281  0.2504 -0.2612 -0.5048
 3512SOL    HW113682   4.579   0.564   3.356  1.0776 -0.7559  0.0102
 3512SOL    HW213683   4.649   0.437   3.312 -1.1393 -1.7150 -0.8790
 3513SOL     OW13684   4.376   0.297   3.219  0.5538  0.0676  0.6672
 3513SOL    HW113685   4.418   0.271   3.136  1.2756 -0.6001  1.2205
 3513SOL    HW213686   4.431   0.369   3.251  0.5125  0.0553  0.7627
 3514SOL     OW13687   6.243   4.240   0.250 -0.2311 -1.1037  0.6944
 3514SOL    HW113688   6.179   4.207   0.313 -0.3931  0.8208  1.6047
 3514SOL    HW213689   6.307   4.288   0.302 -0.2351  0.3314 -0.5412
 3515SOL     OW13690   5.224   0.554   3.387  0.2845 -0.5087  0.0188
 3515SOL    HW113691   5.267   0.525   3.467 -1.9974 -2.0791  0.7810
 3515SOL    HW213692   5.285   0.617   3.348  1.3400  0.5506  3.1112
 3516SOL     OW13693   2.423   4.065   7.933  0.3778  0.3742 -0.3199
 3516SOL    HW113694   2.445   4.158   7.927 -0.7037  0.6758  0.1142
 3516SOL    HW213695   2.342   4.063   7.984  0.5253 -0.8293 -0.1008
 3517SOL     OW13696   2.949   5.676   7.666  0.2522  0.1419  0.0964
 3517SOL    HW113697   3.036   5.700   7.636  0.5738  1.2866  1.8093
 3517SOL    HW213698   2.892   5.745   7.632  0.2813  0.2843  0.3338
 3518SOL     OW13699   6.299   2.593   3.421  0.5392  0.5196  0.0158
 3518SOL    HW113700   6.211   2.560   3.440  1.3979 -0.4674  2.6988
 3518SOL    HW213701   6.356   2.517   3.427  1.6641  1.1830 -1.4244
 3519SOL     OW13702   2.019   4.598   7.993 -0.3697  0.3337  0.8592
 3519SOL    HW113703   1.929   4.614   8.021 -0.1566  0.0202  1.7731
 3519SOL    HW213704   2.025   4.502   7.988  0.2300  0.2983  1.9462
 3520SOL     OW13705   5.716   5.596   7.373  0.1078 -0.5747 -0.1634
 3520SOL    HW113706   5.632   5.632   7.343 -0.2771 -0.1231  1.3582
 3520SOL    HW213707   5.775   5.671   7.376  0.1263 -0.6021  0.2348
 3521SOL     OW13708   2.905   3.443   6.718 -0.2286  0.1111 -0.0718
 3521SOL    HW113709   2.996   3.465   6.696 -0.5141 -0.0723 -1.5108
 3521SOL    HW213710   2.871   3.521   6.761  0.1543  0.7740 -0.9381
 3522SOL     OW13711   6.154   0.455   6.450  0.4052 -0.2194 -0.4213
 3522SOL    HW113712   6.157   0.429   6.542 -0.2185  0.3669 -0.2273
 3522SOL    HW213713   6.069   0.424   6.419 -0.0529  0.9730 -0.3737
 3523SOL     OW13714   7.103   5.661   3.855  0.3015 -0.3787  0.2921
 3523SOL    HW113715   7.046   5.695   3.787  1.3444  0.8150 -0.0191
 3523SOL    HW213716   7.118   5.735   3.913  0.9385 -0.8774  0.7775
 3524SOL     OW13717   3.769   7.755   1.311  0.2033 -0.2119  0.2669
 3524SOL    HW113718   3.709   7.758   1.236  1.0966 -0.6612 -0.4835
 3524SOL    HW213719   3.848   7.712   1.277  0.5715 -0.5458  1.5086
 3525SOL     OW13720   3.797   0.824   6.857 -0.8345  0.4031  0.1455
 3525SOL    HW113721   3.742   0.746   6.848 -2.1862  1.2029  1.0533
 3525SOL    HW213722   3.853   0.823   6.780 -1.4690 -0.9761 -0.3224
 3526SOL     OW13723   3.386   5.078   2.917  0.3837 -0.6154  0.2434
 3526SOL    HW113724   3.447   5.088   2.990  0.8645  1.4042 -0.3829
 3526SOL    HW213725   3.313   5.029   2.953  0.4553  0.6264  2.1902
 3527SOL     OW13726   6.010   5.489   3.104 -0.3147 -0.5478 -0.3055
 3527SOL    HW113727   6.040   5.570   3.145  1.5267 -1.0152 -0.6485
 3527SOL    HW213728   5.917   5.484   3.127 -0.3168  1.3078  0.2765
 3528SOL     OW13729   2.880   7.028   5.420 -0.3790  0.1244  0.1791
 3528SOL    HW113730   2.909   7.082   5.493  1.0021  1.0689 -1.0065
 3528SOL    HW213731   2.791   7.003   5.443 -0.3134  1.1646  1.7418
 3529SOL     OW13732   6.473   0.004   5.713 -0.0104  0.0915  0.4760
 3529SOL    HW113733   6.442   0.089   5.682  0.6662 -0.2589 -1.2788
 3529SOL    HW213734   6.505   0.021   5.802  0.9011  1.8770 -0.1492
 3530SOL     OW13735   7.563   6.395   2.873  0.3561 -0.6472  0.2244
 3530SOL    HW113736   7.474   6.402   2.840 -1.0357 -2.0035  3.3579
 3530SOL    HW213737   7.583   6.301   2.867  0.9165 -0.5932  1.0506
 3531SOL     OW13738   2.293   0.448   3.482  0.5411  0.3489  0.3629
 3531SOL    HW113739   2.336   0.522   3.439 -1.4437  1.1942 -0.3054
 3531SOL    HW213740   2.209   0.441   3.438 -0.6544 -0.2461  2.5836
 3532SOL     OW13741   2.713   4.822   8.017 -0.1500  0.3982 -0.0406
 3532SOL    HW113742   2.786   4.854   7.965  0.4056  0.1545  0.5837
 3532SOL    HW213743   2.741   4.831   8.108 -1.1189  0.8441  0.2352
 3533SOL     OW13744   3.849   6.926   5.353  0.3052  0.2310  0.4916
 3533SOL    HW113745   3.935   6.948   5.318  1.2773 -1.2138  1.8242
 3533SOL    HW213746   3.831   6.994   5.418  0.7952  0.1396  0.7309
 3534SOL     OW13747   6.383   0.248   7.360 -0.0177  0.7553 -0.1585
 3534SOL    HW113748   6.414   0.206   7.440 -0.5065  0.2884 -0.2024
 3534SOL    HW213749   6.461   0.257   7.305  0.2011  0.4450  0.0971
 3535SOL     OW13750   5.985   7.545   3.265 -0.4793  0.2413 -0.0318
 3535SOL    HW113751   5.950   7.490   3.334  1.4829  0.5845  1.3180
 3535SOL    HW213752   5.921   7.616   3.255 -2.5445 -1.6626 -1.1098
 3536SOL     OW13753   1.748   1.575   6.718 -0.2721  0.2711 -0.3311
 3536SOL    HW113754   1.712   1.497   6.758 -1.0059  0.7980  0.0643
 3536SOL    HW213755   1.759   1.636   6.791  0.7014  0.3965 -0.5622
 3537SOL     OW13756   1.298   1.630   2.065  0.4834 -0.3882 -0.1831
 3537SOL    HW113757   1.362   1.593   2.003  1.0021  0.7665 -0.3573
 3537SOL    HW213758   1.266   1.709   2.022  0.2222 -0.0212  0.6696
 3538SOL     OW13759   4.383   2.957   1.631 -0.4153  0.3591  0.7320
 3538SOL    HW113760   4.418   2.925   1.548 -0.4092 -2.1032  1.6241
 3538SOL    HW213761   4.289   2.968   1.615 -0.5728 -1.0305  0.6548
 3539SOL     OW13762   8.063   0.844   1.719  0.1406  1.1828  0.3492
 3539SOL    HW113763   8.142   0.899   1.722  1.2479 -0.1800 -1.2703
 3539SOL    HW213764   7.993   0.903   1.692  0.7908  2.2675  0.9947
 3540SOL     OW13765   4.506   3.855   2.421 -0.3484 -0.1690 -0.2736
 3540SOL    HW113766   4.470   3.776   2.382  0.0612 -0.1062 -0.7878
 3540SOL    HW213767   4.600   3.840   2.424 -0.4678 -0.9699  2.4720
 3541SOL     OW13768   2.808   4.226   1.406  0.0889  0.1592 -0.4643
 3541SOL    HW113769   2.717   4.255   1.419  0.3262  0.7704 -0.1489
 3541SOL    HW213770   2.854   4.304   1.376  0.3252 -0.3677 -1.5295
 3542SOL     OW13771   0.405   1.912   1.915  0.2754  0.5519 -0.6132
 3542SOL    HW113772   0.473   1.873   1.970 -0.6484  1.2339  1.1079
 3542SOL    HW213773   0.386   1.846   1.849 -0.6625 -1.6330  1.7106
 3543SOL     OW13774   1.648   4.645   6.787  0.3743 -0.3111 -0.0883
 3543SOL    HW113775   1.651   4.735   6.754  0.2591 -0.0579  0.5870
 3543SOL    HW213776   1.735   4.629   6.822 -0.4530  0.6634  2.6901
 3544SOL     OW13777   0.931   2.091   6.697 -0.5237  0.2690 -0.8810
 3544SOL    HW113778   0.958   2.136   6.777  0.5523 -0.0860 -1.0247
 3544SOL    HW213779   0.847   2.051   6.718 -0.3789  0.4066 -0.0164
 3545SOL     OW13780   7.163   0.142   0.157 -0.2627  0.2810  0.2667
 3545SOL    HW113781   7.131   0.152   0.067 -0.7947 -0.3871  0.3689
 3545SOL    HW213782   7.257   0.155   0.150 -0.4825  1.8088 -0.1277
 3546SOL     OW13783   4.065   1.944   4.874  0.2621 -0.4571 -0.1051
 3546SOL    HW113784   4.045   1.894   4.953  0.4114 -0.2552  0.0594
 3546SOL    HW213785   4.152   1.913   4.848  1.5990  1.6589  1.5377
 3547SOL     OW13786   2.893   6.149   7.607 -0.3352 -0.5731  0.1263
 3547SOL    HW113787   2.952   6.099   7.663 -0.6340 -0.4789  0.5269
 3547SOL    HW213788   2.929   6.139   7.519 -0.5522 -1.7421  0.1544
 3548SOL     OW13789   1.586   7.313   0.052 -0.0435  0.5552  0.0566
 3548SOL    HW113790   1.614   7.404   0.043  0.1354  0.9849  3.6114
 3548SOL    HW213791   1.654   7.263   0.007  1.6570  2.0547  0.7952
 3549SOL     OW13792   0.049   7.060   2.075  0.4616  0.0043 -0.3532
 3549SOL    HW113793   0.098   7.029   2.151 -1.6343 -1.9619  0.3186
 3549SOL    HW213794   0.057   6.989   2.011  0.4497  0.7169 -1.1630
 3550SOL     OW13795   5.980   5.464   5.718 -0.1226  0.1434 -0.2509
 3550SOL    HW113796   6.005   5.535   5.777  0.7012 -0.2738 -0.0966
 3550SOL    HW213797   5.964   5.508   5.634  0.6411  0.4803 -0.2269
 3551SOL     OW13798   4.515   7.363   5.676 -0.2262  0.3775 -0.0711
 3551SOL    HW113799   4.442   7.387   5.734 -0.7479  0.6285 -0.8113
 3551SOL    HW213800   4.527   7.439   5.619  0.9748  0.5446  0.3821
 3552SOL     OW13801   6.563   6.844   3.843  0.1060 -0.2373  0.4069
 3552SOL    HW113802   6.477   6.821   3.879  0.0120 -0.1070  0.2671
 3552SOL    HW213803   6.612   6.762   3.843 -0.7753 -0.8194 -1.6771
 3553SOL     OW13804   6.332   0.914   4.166  0.3215  0.1659  0.0962
 3553SOL    HW113805   6.366   1.001   4.187 -1.0677  0.7188  0.1503
 3553SOL    HW213806   6.411   0.861   4.151  1.2635  0.8971  2.0832
 3554SOL     OW13807   6.194   5.388   3.845  0.2444  0.1954 -0.5644
 3554SOL    HW113808   6.254   5.318   3.821  0.1791  0.7573 -2.4861
 3554SOL    HW213809   6.123   5.382   3.781 -1.5930 -0.1882  1.3746
 3555SOL     OW13810   0.131   3.445   5.957 -0.1000  0.4976  0.4914
 3555SOL    HW113811   0.057   3.394   5.923 -0.6208  0.6440  1.3657
 3555SOL    HW213812   0.109   3.459   6.049  1.1905  0.2582  0.8465
 3556SOL     OW13813   5.154   7.645   5.943 -0.4611 -0.0410  0.0995
 3556SOL    HW113814   5.106   7.634   5.860 -0.5642 -0.6332  0.2344
 3556SOL    HW213815   5.228   7.701   5.920  0.4145 -1.4661 -0.7718
 3557SOL     OW13816   7.365   5.748   6.872  0.1413  0.1710 -0.5269
 3557SOL    HW113817   7.408   5.679   6.822  0.5079  0.1330 -0.1649
 3557SOL    HW213818   7.361   5.714   6.961  0.6189  0.7403 -0.2792
 3558SOL     OW13819   3.773   1.161   5.746 -0.1658 -0.7534  0.3489
 3558SOL    HW113820   3.770   1.247   5.787 -0.4737 -0.7943  0.4129
 3558SOL    HW213821   3.865   1.137   5.748 -0.2133 -0.9006  1.3250
 3559SOL     OW13822   6.488   3.435   2.760 -0.2700 -0.2526  0.1131
 3559SOL    HW113823   6.486   3.378   2.683 -2.1873 -0.7439  0.4562
 3559SOL    HW213824   6.500   3.375   2.834 -3.4869 -0.4869  0.5877
 3560SOL     OW13825   3.842   0.158   4.251 -0.1904 -0.0713  0.4437
 3560SOL    HW113826   3.754   0.134   4.282 -0.3666  0.8916  0.6954
 3560SOL    HW213827   3.858   0.097   4.178 -0.5505 -1.0827  1.1841
 3561SOL     OW13828   0.781   5.267   4.429 -0.1570 -0.1770  0.2129
 3561SOL    HW113829   0.861   5.217   4.415  0.2491  0.2266  1.0561
 3561SOL    HW213830   0.757   5.299   4.341  1.9059  1.6437  0.2199
 3562SOL     OW13831   5.910   4.367   2.776 -0.1735 -0.4076  0.0742
 3562SOL    HW113832   5.900   4.374   2.681  1.6903 -0.0068 -0.1346
 3562SOL    HW213833   5.887   4.277   2.797  2.2660 -1.4399 -1.2339
 3563SOL     OW13834   6.613   5.940   4.029 -0.0554 -0.4015 -0.2409
 3563SOL    HW113835   6.529   5.895   4.029  0.0968 -0.7201  0.7475
 3563SOL    HW213836   6.654   5.915   3.946  0.4748 -2.9960  0.6860
 3564SOL     OW13837   0.425   2.829   1.436  0.0183  0.9677  0.2146
 3564SOL    HW113838   0.425   2.800   1.527 -0.0141  0.9236  0.2002
 3564SOL    HW213839   0.506   2.880   1.428 -0.1933  1.3328  0.3832
 3565SOL     OW13840   4.236   2.108   6.341  0.1395 -0.6342  0.6958
 3565SOL    HW113841   4.187   2.069   6.413 -0.6184 -1.3599 -0.1965
 3565SOL    HW213842   4.253   2.198   6.370  0.6625 -1.1775  2.1614
 3566SOL     OW13843   5.221   3.893   7.473 -0.1447  0.2656 -0.2443
 3566SOL    HW113844   5.198   3.957   7.540  1.3533 -0.7524  1.3247
 3566SOL    HW213845   5.234   3.945   7.394  0.7032  1.8729  0.8937
 3567SOL     OW13846   1.606   7.583   6.087  0.5446 -0.4839 -0.1334
 3567SOL    HW113847   1.559   7.523   6.144  0.1592 -1.4333 -1.3949
 3567SOL    HW213848   1.538   7.630   6.039  0.8603  0.3927  0.2458
 3568SOL     OW13849   0.425   2.164   4.918  0.0400  0.1973  0.0117
 3568SOL    HW113850   0.488   2.116   4.971 -2.0186 -0.3400  2.1381
 3568SOL    HW213851   0.455   2.255   4.922  0.4434  0.0327  1.3949
 3569SOL     OW13852   0.972   4.239   4.474  0.3928  0.5824 -0.4097
 3569SOL    HW113853   1.060   4.239   4.512  0.3498  1.0163 -0.3137
 3569SOL    HW213854   0.916   4.277   4.541  0.1663  0.5034 -0.5527
 3570SOL     OW13855   5.419   4.094   1.099  0.2220  0.2389  0.2430
 3570SOL    HW113856   5.508   4.079   1.068 -0.0975  0.1759 -0.6605
 3570SOL    HW213857   5.378   4.007   1.098  0.0550  0.3151  0.3561
 3571SOL     OW13858   1.615   1.962   7.606  0.2231  0.1840 -0.7682
 3571SOL    HW113859   1.610   1.874   7.570  0.1593  0.4753 -1.4989
 3571SOL    HW213860   1.532   1.976   7.650  1.0582 -0.9021  1.2445
 3572SOL     OW13861   7.566   4.729   0.420  0.3977 -0.1720 -0.3074
 3572SOL    HW113862   7.625   4.731   0.344  0.0928 -0.0484 -0.5416
 3572SOL    HW213863   7.507   4.803   0.407  1.3257  0.8105  0.8601
 3573SOL     OW13864   6.927   4.630   7.257  0.3360  0.4788  0.2126
 3573SOL    HW113865   6.853   4.573   7.236 -0.2980  1.1827  0.4566
 3573SOL    HW213866   6.889   4.698   7.314  1.0948  1.0593  0.0461
 3574SOL     OW13867   6.604   6.873   6.705  0.0419 -0.1561 -0.0137
 3574SOL    HW113868   6.689   6.908   6.680 -0.4853  1.9119  0.8749
 3574SOL    HW213869   6.570   6.935   6.770 -2.9880  0.2279 -1.7490
 3575SOL     OW13870   1.253   6.105   1.194  0.3718 -0.1864  0.3989
 3575SOL    HW113871   1.190   6.084   1.126 -0.1477  0.1739  0.7630
 3575SOL    HW213872   1.329   6.140   1.147  0.6415 -1.3934 -0.1036
 3576SOL     OW13873   5.268   2.612   3.120  0.3026  0.3600  0.2769
 3576SOL    HW113874   5.323   2.548   3.164  0.3738  0.8022  0.8516
 3576SOL    HW213875   5.193   2.562   3.087  2.1422 -0.7344 -2.6846
 3577SOL     OW13876   6.663   2.046   0.364 -0.0962  0.1060  0.0941
 3577SOL    HW113877   6.720   2.088   0.429  0.4312 -1.3920  0.6285
 3577SOL    HW213878   6.619   2.119   0.321  0.5221  1.1932  1.2404
 3578SOL     OW13879   1.394   1.115   1.047 -0.3658  0.0545  0.3452
 3578SOL    HW113880   1.320   1.063   1.079 -2.7196  1.6739 -1.9938
 3578SOL    HW213881   1.457   1.051   1.016 -1.6548 -1.4205  0.6377
 3579SOL     OW13882   5.478   0.993   5.524 -0.1975 -0.8544  0.0569
 3579SOL    HW113883   5.569   1.009   5.552 -0.6944 -0.2116  1.3868
 3579SOL    HW213884   5.483   0.992   5.429  1.0663  0.1714  0.0730
 3580SOL     OW13885   5.313   2.879   6.882 -0.1673  0.1587  0.2546
 3580SOL    HW113886   5.262   2.827   6.944 -0.5793  0.2648  0.0091
 3580SOL    HW213887   5.286   2.848   6.796 -2.2787  2.4259 -0.0054
 3581SOL     OW13888   6.643   6.612   2.974 -0.2444  0.5504 -0.1861
 3581SOL    HW113889   6.565   6.557   2.965  0.4378 -0.3929 -0.5512
 3581SOL    HW213890   6.683   6.610   2.888 -0.2181  1.6731 -0.2113
 3582SOL     OW13891   0.843   7.147   4.713  0.1055 -0.2376 -0.1915
 3582SOL    HW113892   0.855   7.080   4.780  1.4127 -0.6287 -0.7829
 3582SOL    HW213893   0.753   7.178   4.726  0.2797 -0.3798  1.6339
 3583SOL     OW13894   1.647   4.910   6.668 -0.0887  0.5341  0.7099
 3583SOL    HW113895   1.588   4.935   6.596 -1.3883 -0.4537  1.3788
 3583SOL    HW213896   1.735   4.922   6.633 -0.6895  0.6890 -0.8188
 3584SOL     OW13897   1.900   7.259   4.970 -0.1359  0.6507 -0.1822
 3584SOL    HW113898   1.826   7.232   4.916  0.0544 -0.9332  0.2822
 3584SOL    HW213899   1.904   7.193   5.040 -0.3413  2.6159  1.7658
 3585SOL     OW13900   4.000   2.305   3.678  0.0984  0.0984  0.1517
 3585SOL    HW113901   4.075   2.252   3.707 -1.2327 -1.8750  0.1614
 3585SOL    HW213902   3.975   2.356   3.755 -0.2502 -1.3054  1.0025
 3586SOL     OW13903   3.842   4.994   3.295  0.4653  0.0830  0.1446
 3586SOL    HW113904   3.891   5.019   3.374 -0.4737 -1.1465  1.1731
 3586SOL    HW213905   3.897   4.928   3.253 -0.2563 -1.3300  1.3204
 3587SOL     OW13906   6.081   2.836   4.752 -0.6342  0.0425 -0.0862
 3587SOL    HW113907   6.129   2.824   4.834 -0.5185  0.7322 -0.0445
 3587SOL    HW213908   5.990   2.819   4.775 -0.5259 -0.3758  0.0418
 3588SOL     OW13909   7.607   0.795   0.242  1.4347  0.1484  0.2327
 3588SOL    HW113910   7.601   0.704   0.213  1.2548 -0.1856  1.2547
 3588SOL    HW213911   7.699   0.819   0.230  1.4330 -0.0918 -0.2551
 3589SOL     OW13912   7.899   0.967   6.548  0.3994  0.0228  0.9296
 3589SOL    HW113913   7.970   0.904   6.546 -0.4248 -0.9441  1.1879
 3589SOL    HW213914   7.915   1.024   6.473  2.1215  0.6256  1.6993
 3590SOL     OW13915   5.231   0.047   0.689  0.2273 -0.2456 -0.2198
 3590SOL    HW113916   5.279   0.003   0.618  2.1290 -0.8667  1.3670
 3590SOL    HW213917   5.143   0.010   0.685  1.0285 -2.2022 -0.6342
 3591SOL     OW13918   7.616   4.981   3.131  0.4734  0.2738  0.3289
 3591SOL    HW113919   7.576   5.053   3.181 -0.8461  0.9374 -1.5602
 3591SOL    HW213920   7.554   4.908   3.140  2.1528 -0.9730  2.8341
 3592SOL     OW13921   0.232   3.746   3.865  0.4462 -0.6232  0.4135
 3592SOL    HW113922   0.314   3.703   3.839 -0.8031 -3.3737  0.6438
 3592SOL    HW213923   0.175   3.738   3.789 -0.7960 -2.1235  1.4385
 3593SOL     OW13924   0.287   4.557   3.971 -1.2396  0.0870  1.3413
 3593SOL    HW113925   0.303   4.629   3.910 -0.7014  1.5511  3.1277
 3593SOL    HW213926   0.333   4.482   3.932  0.3172  1.3392  0.6576
 3594SOL     OW13927   0.907   5.190   0.805 -0.2356  0.6608  0.1482
 3594SOL    HW113928   0.847   5.119   0.827  0.3271 -0.1150 -0.7618
 3594SOL    HW213929   0.944   5.216   0.890 -1.3587  0.7159  0.6370
 3595SOL     OW13930   0.811   4.848   5.695 -0.4526 -0.1069  0.3619
 3595SOL    HW113931   0.861   4.921   5.730 -1.1444 -0.1639  1.5342
 3595SOL    HW213932   0.722   4.882   5.683 -0.4591 -0.3703 -0.4299
 3596SOL     OW13933   1.589   3.722   1.562 -0.0132 -0.4846 -0.4049
 3596SOL    HW113934   1.540   3.645   1.589  1.8414 -1.5906  0.0117
 3596SOL    HW213935   1.522   3.786   1.538 -1.6179 -1.9769 -0.1252
 3597SOL     OW13936   0.814   7.091   6.320  0.4402 -0.3905 -0.0505
 3597SOL    HW113937   0.900   7.131   6.328 -0.4320  1.2630  1.9222
 3597SOL    HW213938   0.800   7.047   6.404 -0.5379 -0.8610 -0.4399
 3598SOL     OW13939   4.770   3.206   5.711  0.3233  0.5104  0.5237
 3598SOL    HW113940   4.748   3.131   5.766 -1.8694  0.9917  0.3694
 3598SOL    HW213941   4.861   3.191   5.686  0.0830 -1.8567  0.8644
 3599SOL     OW13942   5.172   4.466   2.851  0.5524 -0.6403 -0.1794
 3599SOL    HW113943   5.105   4.518   2.807  1.8371  1.2077 -0.0611
 3599SOL    HW213944   5.230   4.437   2.781  0.8667 -0.3159 -0.0611
 3600SOL     OW13945   0.842   4.883   7.915 -0.0091 -0.3240  0.5544
 3600SOL    HW113946   0.792   4.824   7.972  1.2652 -0.0638  2.0258
 3600SOL    HW213947   0.922   4.900   7.964  0.2163  1.6184 -0.4044
 3601SOL     OW13948   4.833   1.047   3.691 -1.2273 -0.5889 -0.2094
 3601SOL    HW113949   4.835   1.093   3.607  0.9380 -1.4245 -0.6837
 3601SOL    HW213950   4.774   1.099   3.745 -1.0439  1.1644 -1.5960
 3602SOL     OW13951   0.702   6.624   4.696 -0.2189 -0.0195 -0.9093
 3602SOL    HW113952   0.607   6.622   4.708 -0.4351 -0.4137 -2.4227
 3602SOL    HW213953   0.714   6.636   4.602  1.1875 -2.5712 -1.1686
 3603SOL     OW13954   1.264   3.725   2.689  0.2563  0.4906  0.0934
 3603SOL    HW113955   1.170   3.732   2.674  0.4397  2.0542 -0.5314
 3603SOL    HW213956   1.275   3.751   2.781 -0.1795 -2.5914  1.1150
 3604SOL     OW13957   6.157   0.547   1.904  0.1726 -0.2656  0.3394
 3604SOL    HW113958   6.147   0.587   1.817  0.0964 -2.7098 -0.8613
 3604SOL    HW213959   6.089   0.588   1.958 -0.1388  0.9125 -0.9019
 3605SOL     OW13960   1.166   7.503   6.203 -0.0839  0.1705  0.2865
 3605SOL    HW113961   1.156   7.566   6.132 -1.5645  2.0371  2.0111
 3605SOL    HW213962   1.082   7.456   6.205  0.5898 -1.0994 -0.2539
 3606SOL     OW13963   6.109   5.875   4.782  0.2030  0.7565 -0.8890
 3606SOL    HW113964   6.073   5.953   4.825  1.0764  0.8177 -0.2481
 3606SOL    HW213965   6.034   5.815   4.776  0.0209  0.7835  0.6404
 3607SOL     OW13966   4.811   0.165   4.808 -0.2922  0.1244 -0.7844
 3607SOL    HW113967   4.878   0.109   4.847 -0.7995 -0.6354 -0.9791
 3607SOL    HW213968   4.797   0.234   4.873 -0.2836 -0.4670 -0.1345
 3608SOL     OW13969   7.351   1.368   3.707  0.0442  0.1488 -0.7489
 3608SOL    HW113970   7.353   1.459   3.676 -0.4091  0.9659  1.3899
 3608SOL    HW213971   7.440   1.351   3.737  0.1158 -0.1163 -1.1014
 3609SOL     OW13972   1.009   4.283   2.651 -0.4568 -0.1282 -0.8631
 3609SOL    HW113973   0.959   4.278   2.569 -1.0803  1.3579 -0.6080
 3609SOL    HW213974   1.014   4.376   2.670  0.4788 -0.3991  0.3280
 3610SOL     OW13975   0.714   4.874   2.463  0.1105  0.1047  0.0450
 3610SOL    HW113976   0.689   4.818   2.537 -0.7906  0.8559  0.3269
 3610SOL    HW213977   0.794   4.918   2.492  0.0950 -0.0544  0.3362
 3611SOL     OW13978   8.095   3.725   8.020  0.2780  0.5436 -0.2889
 3611SOL    HW113979   8.035   3.668   8.068  1.4884 -1.7150 -1.3568
 3611SOL    HW213980   8.057   3.730   7.932  0.9362  0.2067 -0.5928
 3612SOL     OW13981   0.411   0.500   7.880 -0.1512  0.0908 -0.1865
 3612SOL    HW113982   0.329   0.516   7.833 -0.5183  0.1993  0.4784
 3612SOL    HW213983   0.433   0.409   7.860  0.0810  0.3336 -1.1317
 3613SOL     OW13984   7.264   7.643   2.674  0.4241 -0.2502  0.5534
 3613SOL    HW113985   7.221   7.723   2.644 -0.8351 -1.1694 -0.1727
 3613SOL    HW213986   7.283   7.594   2.594 -0.5934 -1.5497  1.0761
 3614SOL     OW13987   1.000   4.985   3.733  0.4421  0.4124 -0.2439
 3614SOL    HW113988   0.931   5.017   3.675 -1.9274 -1.3904  1.3464
 3614SOL    HW213989   1.010   4.893   3.709  0.3770 -0.0149  1.2489
 3615SOL     OW13990   7.504   2.306   4.443  0.2858  0.3846 -0.0902
 3615SOL    HW113991   7.463   2.220   4.442 -0.9342  0.9519 -0.3932
 3615SOL    HW213992   7.584   2.294   4.494 -0.2434 -0.7512  0.4996
 3616SOL     OW13993   7.681   4.314   7.654 -0.2254  0.0492  0.3287
 3616SOL    HW113994   7.735   4.320   7.575 -2.2629  0.1591 -1.1258
 3616SOL    HW213995   7.694   4.397   7.699  0.6342  0.1531 -0.0961
 3617SOL     OW13996   1.430   1.701   5.115  0.2467 -0.1153  0.2597
 3617SOL    HW113997   1.490   1.641   5.070  2.0659  0.3390  1.9267
 3617SOL    HW213998   1.351   1.649   5.130  1.4556 -1.8813  0.9144
 3618SOL     OW13999   6.066   0.221   4.851  0.2427 -0.0984 -0.3018
 3618SOL    HW114000   6.039   0.266   4.930  2.4444  1.5510 -0.4021
 3618SOL    HW214001   6.029   0.273   4.780  0.6285  0.0683 -0.3832
 3619SOL     OW14002   4.355   4.354   2.761  0.8851 -0.1844  0.8207
 3619SOL    HW114003   4.441   4.395   2.766  1.5628 -1.5003  0.3466
 3619SOL    HW214004   4.350   4.298   2.839  1.3297 -1.7030 -0.2095
 3620SOL     OW14005   1.235   7.468   0.841  0.5000  0.4795 -0.4493
 3620SOL    HW114006   1.239   7.375   0.861  0.6962  1.0013  2.4309
 3620SOL    HW214007   1.148   7.496   0.871  0.7953  1.3607 -0.3706
 3621SOL     OW14008   3.040   2.105   7.093 -0.4867  0.2657 -0.2782
 3621SOL    HW114009   3.030   2.172   7.025 -1.5906 -1.6895 -2.1809
 3621SOL    HW214010   2.956   2.059   7.093  1.1215 -2.9530 -1.1703
 3622SOL     OW14011   0.561   4.166   4.271  0.2679  0.5960 -0.5019
 3622SOL    HW114012   0.583   4.208   4.354  1.9741 -0.5631 -0.3150
 3622SOL    HW214013   0.630   4.195   4.210  1.0701 -1.2685 -0.5546
 3623SOL     OW14014   6.295   7.432   5.802 -0.3054  0.4022 -0.1535
 3623SOL    HW114015   6.264   7.341   5.807  0.4489  0.1973  1.3695
 3623SOL    HW214016   6.368   7.428   5.740 -0.3305 -0.0138 -0.1630
 3624SOL     OW14017   0.813   4.502   2.287  0.9578  0.0934  0.3868
 3624SOL    HW114018   0.855   4.561   2.225  0.6274  1.6853  1.6267
 3624SOL    HW214019   0.861   4.514   2.369 -0.2818  0.0530  1.1505
 3625SOL     OW14020   4.206   6.163   6.769 -0.0147 -0.2769  0.6070
 3625SOL    HW114021   4.189   6.074   6.738  0.6639  0.0629 -0.8382
 3625SOL    HW214022   4.204   6.216   6.689  1.3652  0.7282  1.2144
 3626SOL     OW14023   3.334   1.138   7.993  0.6673 -0.3934  0.1013
 3626SOL    HW114024   3.429   1.149   7.986  0.6321 -0.3395 -0.3267
 3626SOL    HW214025   3.307   1.107   7.906  0.1163  0.9226 -0.2189
 3627SOL     OW14026   2.656   0.434   2.616  0.4714 -0.2377  0.4363
 3627SOL    HW114027   2.683   0.508   2.671  1.1398  0.2954 -0.5900
 3627SOL    HW214028   2.591   0.470   2.556  0.4833 -0.5817  0.2142
 3628SOL     OW14029   7.719   2.576   5.554 -0.2979 -0.0760 -0.1490
 3628SOL    HW114030   7.663   2.503   5.529 -0.1328 -0.2251 -0.0856
 3628SOL    HW214031   7.790   2.536   5.604 -0.4182  0.1756  0.2234
 3629SOL     OW14032   3.946   3.293   6.135  0.1172 -0.2443  0.0797
 3629SOL    HW114033   4.040   3.311   6.135  0.2930 -1.0909  0.6304
 3629SOL    HW214034   3.913   3.334   6.055  0.6821  1.3821  0.6491
 3630SOL     OW14035   2.893   4.938   7.843  0.3469  0.0341 -0.0369
 3630SOL    HW114036   2.949   5.001   7.889 -0.0684  0.1696  0.2911
 3630SOL    HW214037   2.945   4.911   7.767  0.7098  0.4320  0.0646
 3631SOL     OW14038   2.076   6.777   6.075  0.3733  0.0674  0.3872
 3631SOL    HW114039   2.089   6.855   6.129  1.6874  0.3721 -0.3087
 3631SOL    HW214040   2.050   6.811   5.990  1.7436 -0.1809 -0.1523
 3632SOL     OW14041   5.002   4.573   2.289  0.0988  0.1316  0.2695
 3632SOL    HW114042   5.057   4.510   2.335 -0.7843  0.2431  1.5318
 3632SOL    HW214043   4.913   4.538   2.297 -0.1194  0.3309 -1.0907
 3633SOL     OW14044   6.723   3.178   0.271  0.8418  0.3754 -0.1643
 3633SOL    HW114045   6.669   3.102   0.249 -1.2165  1.8209 -0.4382
 3633SOL    HW214046   6.798   3.172   0.211  0.6831 -1.3491 -0.2476
 3634SOL     OW14047   7.296   3.357   4.967  0.2085 -0.0988  0.3677
 3634SOL    HW114048   7.331   3.320   4.886  1.8179  0.5796  0.7202
 3634SOL    HW214049   7.357   3.428   4.990 -0.3585 -0.0974  2.0143
 3635SOL     OW14050   1.776   3.766   1.025 -0.3027 -0.5445 -0.1806
 3635SOL    HW114051   1.751   3.697   1.085  1.0298  0.0732  1.1320
 3635SOL    HW214052   1.715   3.757   0.951 -1.4806 -1.7844  0.9002
 3636SOL     OW14053   4.527   5.015   0.613 -0.1168  0.2564 -0.1070
 3636SOL    HW114054   4.514   4.959   0.689 -1.3406  1.7661  0.8542
 3636SOL    HW214055   4.483   5.097   0.635  0.7270  1.2535 -1.8708
 3637SOL     OW14056   2.987   6.181   5.415 -0.4495 -0.0484 -0.8452
 3637SOL    HW114057   2.934   6.257   5.391  0.5629  1.5035  1.4895
 3637SOL    HW214058   2.948   6.148   5.495  0.0998 -0.9951 -0.9494
 3638SOL     OW14059   3.223   5.759   7.316  0.6301  0.2233 -0.4625
 3638SOL    HW114060   3.127   5.756   7.310  0.3868 -0.1272  2.1888
 3638SOL    HW214061   3.254   5.700   7.247 -1.2270 -2.2594  0.6803
 3639SOL     OW14062   2.712   5.046   0.320 -0.0554 -0.0183  0.1001
 3639SOL    HW114063   2.757   5.111   0.266 -0.5609 -1.1303 -1.7199
 3639SOL    HW214064   2.633   5.090   0.350  0.3784  0.7127  0.2027
 3640SOL     OW14065   6.296   1.120   2.158 -0.4538  0.4630  0.0318
 3640SOL    HW114066   6.371   1.170   2.126  1.6481 -1.1190  2.1400
 3640SOL    HW214067   6.324   1.085   2.242 -3.0962 -1.3439  0.3042
 3641SOL     OW14068   2.500   0.783   5.475 -0.5926 -0.3109  0.2806
 3641SOL    HW114069   2.435   0.751   5.538 -0.5617 -0.5452  0.1923
 3641SOL    HW214070   2.480   0.876   5.467 -1.0191 -0.4094  0.1425
 3642SOL     OW14071   7.641   7.066   6.000 -0.3598 -0.1102  0.8277
 3642SOL    HW114072   7.678   7.008   5.934 -1.3492  0.6648 -0.4657
 3642SOL    HW214073   7.566   7.018   6.036 -0.6156 -0.0136  0.4291
 3643SOL     OW14074   0.232   7.784   3.434  0.5704  0.0402 -0.0313
 3643SOL    HW114075   0.269   7.802   3.521  1.1168 -0.7893 -0.0688
 3643SOL    HW214076   0.180   7.861   3.413  0.9018  0.5030  0.7848
 3644SOL     OW14077   2.956   0.702   6.312 -0.5116 -0.3129 -0.1122
 3644SOL    HW114078   2.875   0.714   6.262 -0.5406 -1.0797 -0.2499
 3644SOL    HW214079   2.932   0.728   6.401 -1.0670 -1.0676 -0.0322
 3645SOL     OW14080   0.867   5.192   5.088  0.2218 -0.6497 -0.1485
 3645SOL    HW114081   0.904   5.123   5.032 -1.0014 -0.4972 -1.1931
 3645SOL    HW214082   0.847   5.263   5.027  1.7843  0.8224  0.9497
 3646SOL     OW14083   3.576   5.893   1.956 -0.1835 -0.0935  0.1270
 3646SOL    HW114084   3.635   5.831   1.913  2.2907  1.4412  1.1144
 3646SOL    HW214085   3.631   5.940   2.018 -1.9921  2.9086 -0.3382
 3647SOL     OW14086   6.417   5.188   4.405  0.5510  0.8478  0.5055
 3647SOL    HW114087   6.490   5.216   4.461  1.8012  0.7452 -1.0321
 3647SOL    HW214088   6.456   5.172   4.319 -1.6301  2.8609 -0.9702
 3648SOL     OW14089   0.707   6.368   3.215  0.5438  0.7740 -1.1416
 3648SOL    HW114090   0.690   6.448   3.265  0.2083  0.6064 -0.9857
 3648SOL    HW214091   0.681   6.297   3.274  1.5596  0.5150 -0.9772
 3649SOL     OW14092   2.271   7.136   0.688  0.0899  0.3530  0.1397
 3649SOL    HW114093   2.293   7.219   0.730  2.3675  0.7839 -1.6956
 3649SOL    HW214094   2.298   7.069   0.751  2.1142  0.9955  0.0228
 3650SOL     OW14095   7.634   0.599   2.172  1.0860 -0.3375 -0.1678
 3650SOL    HW114096   7.680   0.664   2.119 -0.8025  0.4886 -0.8964
 3650SOL    HW214097   7.542   0.611   2.150  0.5390 -2.2655  0.8267
 3651SOL     OW14098   2.210   3.592   2.885 -0.0308 -0.4342  0.0357
 3651SOL    HW114099   2.210   3.498   2.902  0.3718 -0.2750  0.9813
 3651SOL    HW214100   2.256   3.602   2.802  0.8154 -0.9894  0.4269
 3652SOL     OW14101   4.194   2.479   0.920  0.1518 -0.0285 -0.5404
 3652SOL    HW114102   4.238   2.416   0.863  0.7022  0.1517 -0.3200
 3652SOL    HW214103   4.187   2.558   0.866  1.8233  0.5544  0.0471
 3653SOL     OW14104   7.859   5.483   1.391 -0.2258  0.3664 -0.4257
 3653SOL    HW114105   7.914   5.520   1.322  1.8101 -1.6363  0.0085
 3653SOL    HW214106   7.898   5.514   1.472  0.7574 -1.6090 -0.0908
 3654SOL     OW14107   2.242   2.918   1.018  0.2596  0.4789 -0.2987
 3654SOL    HW114108   2.258   2.958   1.104 -0.7301  2.4574 -0.9716
 3654SOL    HW214109   2.194   2.837   1.038 -1.5397  1.7662  1.0077
 3655SOL     OW14110   0.097   7.266   6.776  0.2727  0.4297 -0.1595
 3655SOL    HW114111   0.150   7.264   6.856 -0.0556 -0.8376  0.0505
 3655SOL    HW214112   0.139   7.202   6.719  0.3913  1.1932 -0.9359
 3656SOL     OW14113   7.098   4.353   1.758 -0.3072 -0.2146  0.0729
 3656SOL    HW114114   7.036   4.305   1.703  0.1862 -1.4040  0.5083
 3656SOL    HW214115   7.123   4.290   1.826  2.6249 -0.3955 -1.0286
 3657SOL     OW14116   1.801   2.988   3.611 -0.9270  0.2582 -0.1707
 3657SOL    HW114117   1.724   2.931   3.607 -0.0784 -0.9312 -0.2022
 3657SOL    HW214118   1.808   3.011   3.704  0.1770 -1.8297  0.3326
 3658SOL     OW14119   2.198   3.385   0.925  0.3321  0.2773 -0.2204
 3658SOL    HW114120   2.196   3.446   0.999 -1.2377  0.7502 -0.6139
 3658SOL    HW214121   2.106   3.373   0.902  0.8096  0.6515 -2.5273
 3659SOL     OW14122   7.906   0.407   1.435  0.6212 -0.3943  0.2090
 3659SOL    HW114123   7.854   0.348   1.490  1.1453 -1.2392 -0.1712
 3659SOL    HW214124   7.950   0.466   1.497  1.3404 -1.4383  0.7396
 3660SOL     OW14125   0.668   6.831   1.839  0.0704  0.4194 -0.4298
 3660SOL    HW114126   0.725   6.763   1.804  0.3279  0.0780  0.6318
 3660SOL    HW214127   0.726   6.908   1.848 -0.4279  1.1060 -2.5102
 3661SOL     OW14128   5.849   0.597   4.577  0.7267  0.0235  0.5189
 3661SOL    HW114129   5.923   0.652   4.601  0.0637  0.7070  1.0612
 3661SOL    HW214130   5.788   0.656   4.533  0.9348 -0.7494 -0.8672
 3662SOL     OW14131   0.614   0.346   5.354 -0.6136  0.4791  0.1976
 3662SOL    HW114132   0.520   0.337   5.343 -0.4244 -1.6914 -0.0195
 3662SOL    HW214133   0.649   0.258   5.340  1.5463  1.3920 -0.6876
 3663SOL     OW14134   0.117   7.530   4.935 -0.3825  0.0432  0.3099
 3663SOL    HW114135   0.165   7.612   4.931 -1.6246  0.7923  0.3691
 3663SOL    HW214136   0.112   7.501   4.844  0.8147 -0.4476  0.3758
 3664SOL     OW14137   0.501   8.038   2.968 -0.1585  0.0442  0.0763
 3664SOL    HW114138   0.480   8.016   3.059  1.0890 -0.7321  0.1945
 3664SOL    HW214139   0.428   8.001   2.918 -0.0798 -0.8966  0.6263
 3665SOL     OW14140   2.892   4.700   3.839  0.0055 -0.0134 -0.0882
 3665SOL    HW114141   2.842   4.781   3.828 -0.1359 -0.1437 -0.4220
 3665SOL    HW214142   2.897   4.663   3.751 -0.7345 -0.8430  0.2056
 3666SOL     OW14143   3.467   5.678   5.291 -0.7743  0.2126 -0.2617
 3666SOL    HW114144   3.530   5.716   5.230 -1.0897  0.8325 -0.2158
 3666SOL    HW214145   3.445   5.750   5.350 -1.3419 -0.0613 -0.1334
 3667SOL     OW14146   1.577   4.900   3.728 -0.0800 -0.1296  0.3385
 3667SOL    HW114147   1.574   4.846   3.806 -1.1664  0.0165  0.4180
 3667SOL    HW214148   1.670   4.913   3.710  0.2424 -2.5567 -0.0599
 3668SOL     OW14149   1.887   5.598   7.527 -0.1432  0.2160  0.1581
 3668SOL    HW114150   1.839   5.667   7.572  1.7902  2.4483 -0.9897
 3668SOL    HW214151   1.820   5.543   7.487 -1.7574  1.9826  0.3415
 3669SOL     OW14152   6.812   6.438   0.945 -0.3926 -0.0871  0.6905
 3669SOL    HW114153   6.877   6.404   0.883 -1.0506 -3.1161  1.4662
 3669SOL    HW214154   6.767   6.359   0.977 -2.1670  1.6241  2.6899
 3670SOL     OW14155   0.115   5.520   2.605  0.1431 -0.0562 -0.6253
 3670SOL    HW114156   0.122   5.462   2.529 -0.0973 -0.8670 -0.0500
 3670SOL    HW214157   0.036   5.489   2.650  0.4778  0.1849  0.1359
 3671SOL     OW14158   2.259   1.750   2.055 -0.4905 -0.5598 -0.1296
 3671SOL    HW114159   2.310   1.703   1.989 -2.7433 -2.4067 -0.6682
 3671SOL    HW214160   2.210   1.816   2.005 -1.7338 -1.5530 -0.2516
 3672SOL     OW14161   7.386   0.362   2.081 -0.2158 -0.9311  0.4406
 3672SOL    HW114162   7.294   0.339   2.068 -0.9337  1.4497  0.9806
 3672SOL    HW214163   7.385   0.452   2.112  2.1939 -1.5191  2.5916
 3673SOL     OW14164   6.894   6.108   5.478  0.1256  0.2169  0.0714
 3673SOL    HW114165   6.947   6.086   5.402  1.8464  1.7087  0.7605
 3673SOL    HW214166   6.898   6.203   5.484 -0.7699  0.2058  1.4722
 3674SOL     OW14167   5.360   2.153   1.751  0.2638  0.0359  0.0963
 3674SOL    HW114168   5.418   2.209   1.803  3.0906 -0.9016 -1.8036
 3674SOL    HW214169   5.316   2.212   1.690  1.6447  0.4647 -0.5176
 3675SOL     OW14170   1.370   5.942   7.717  0.2944 -0.0348 -0.0503
 3675SOL    HW114171   1.344   5.859   7.675  0.6643 -0.4728  0.5726
 3675SOL    HW214172   1.338   5.933   7.807 -2.0118  1.5877 -0.6119
 3676SOL     OW14173   1.038   0.660   4.440 -0.3109 -0.5043 -0.0938
 3676SOL    HW114174   0.993   0.741   4.464  0.9043  0.2523 -0.2804
 3676SOL    HW214175   1.034   0.658   4.344  3.4020  1.6913 -0.4933
 3677SOL     OW14176   6.694   5.426   0.099 -0.0834 -0.6122 -0.4065
 3677SOL    HW114177   6.720   5.429   0.191 -0.0482  1.0238 -0.4322
 3677SOL    HW214178   6.603   5.455   0.098  0.3951  0.9684 -1.0067
 3678SOL     OW14179   0.480   3.601   6.614 -0.4292 -0.2460 -0.2434
 3678SOL    HW114180   0.478   3.579   6.707 -1.9397 -0.7654 -0.3714
 3678SOL    HW214181   0.546   3.542   6.577  0.7175  0.4747  0.5976
 3679SOL     OW14182   6.610   2.906   3.680 -0.2670 -0.3350 -0.6153
 3679SOL    HW114183   6.603   2.878   3.771 -0.2755 -2.3830 -1.2053
 3679SOL    HW214184   6.616   2.825   3.630  2.9784  0.7030 -2.2152
 3680SOL     OW14185   7.700   4.305   2.369  0.2877  0.1037 -0.1310
 3680SOL    HW114186   7.618   4.256   2.366 -0.1377  0.7073  1.1195
 3680SOL    HW214187   7.750   4.265   2.440 -0.0143  1.3530  0.8220
 3681SOL     OW14188   5.352   3.414   3.890  0.1139  0.5069 -0.0978
 3681SOL    HW114189   5.319   3.458   3.969  0.8488  1.4852 -0.3087
 3681SOL    HW214190   5.274   3.395   3.839 -0.3611  0.0118  0.7847
 3682SOL     OW14191   0.870   3.424   2.903  0.3407 -0.0049  0.2711
 3682SOL    HW114192   0.891   3.340   2.943  0.2426  0.6480  1.7842
 3682SOL    HW214193   0.826   3.473   2.972  0.0376  1.1532 -0.7005
 3683SOL     OW14194   6.375   4.820   1.825 -0.2670  0.5186  0.3704
 3683SOL    HW114195   6.311   4.886   1.797  0.1650  0.0909 -1.8318
 3683SOL    HW214196   6.459   4.862   1.812 -0.0223  0.0011  0.2714
 3684SOL     OW14197   7.824   6.689   4.545 -0.4673  0.2219 -0.1626
 3684SOL    HW114198   7.895   6.685   4.609  0.5965 -0.4599 -1.3312
 3684SOL    HW214199   7.751   6.643   4.587  0.1383 -0.0453  0.6284
 3685SOL     OW14200   5.753   1.345   4.884 -0.2973  0.3525  0.0953
 3685SOL    HW114201   5.720   1.302   4.963  0.7989 -1.6607 -0.4858
 3685SOL    HW214202   5.833   1.390   4.913  0.1677 -0.4798  0.1292
 3686SOL     OW14203   4.361   3.999   6.504 -0.1551 -0.0938  0.3952
 3686SOL    HW114204   4.431   4.037   6.451 -0.0982 -0.9873 -0.1905
 3686SOL    HW214205   4.309   4.074   6.532 -1.3322  0.3593 -2.5431
 3687SOL     OW14206   5.252   2.108   6.229 -0.7088  0.1657 -0.1288
 3687SOL    HW114207   5.185   2.173   6.208 -2.8819 -2.0690 -0.5991
 3687SOL    HW214208   5.207   2.024   6.221  2.7469 -1.6724 -2.8837
 3688SOL     OW14209   1.672   1.043   6.909  0.1357 -0.1916 -0.1077
 3688SOL    HW114210   1.636   0.965   6.868  0.5472  0.8067 -2.5214
 3688SOL    HW214211   1.602   1.074   6.967 -0.1893 -2.0540  0.5619
 3689SOL     OW14212   2.282   2.997   0.413  0.1505  0.4518 -0.1324
 3689SOL    HW114213   2.207   3.042   0.374  0.6250  1.4084  0.0278
 3689SOL    HW214214   2.299   2.924   0.353  0.3646  1.4216 -1.3004
 3690SOL     OW14215   6.449   2.088   5.299 -0.2251 -0.3955  0.1388
 3690SOL    HW114216   6.360   2.054   5.285 -0.7365  1.2186 -0.7129
 3690SOL    HW214217   6.500   2.011   5.325 -2.7798 -0.8060  5.3214
 3691SOL     OW14218   7.362   5.478   7.705 -0.1825  0.5445 -0.6210
 3691SOL    HW114219   7.276   5.491   7.665 -1.3660 -0.7976  1.3061
 3691SOL    HW214220   7.358   5.526   7.787  1.1253  0.8803 -0.7232
 3692SOL     OW14221   4.053   3.218   1.498 -0.2579 -0.3478 -0.2390
 3692SOL    HW114222   4.052   3.164   1.577  0.4751 -0.7906 -0.5188
 3692SOL    HW214223   4.126   3.183   1.446  0.8508  1.4871 -0.0205
 3693SOL     OW14224   4.390   4.523   8.065 -0.0769  0.0847 -0.8919
 3693SOL    HW114225   4.422   4.564   7.984 -0.9528  1.2214 -0.6980
 3693SOL    HW214226   4.382   4.596   8.126 -1.1991 -0.4744 -0.3579
 3694SOL     OW14227   1.275   7.189   7.512  0.6112  0.4092 -0.3218
 3694SOL    HW114228   1.191   7.178   7.558  0.9943  0.3340  0.3649
 3694SOL    HW214229   1.250   7.218   7.424 -0.0649  2.2446  0.4426
 3695SOL     OW14230   0.154   1.444   4.972 -0.1334 -0.3204 -0.0303
 3695SOL    HW114231   0.176   1.526   5.018 -0.9793 -0.4835  0.7052
 3695SOL    HW214232   0.227   1.386   4.991 -0.5469 -0.4464  1.3163
 3696SOL     OW14233   4.215   2.892   5.771 -0.7393 -0.7443 -0.2710
 3696SOL    HW114234   4.251   2.833   5.837 -2.4988  0.2599  1.6996
 3696SOL    HW214235   4.188   2.970   5.819 -2.9183 -0.3088 -1.9934
 3697SOL     OW14236   5.322   0.662   6.132 -0.3965  0.0876 -0.1578
 3697SOL    HW114237   5.289   0.680   6.044  0.9138 -0.2099 -0.7361
 3697SOL    HW214238   5.382   0.588   6.120 -1.5663 -1.1670  1.2869
 3698SOL     OW14239   3.327   6.128   2.297 -0.2387 -0.3064  0.5278
 3698SOL    HW114240   3.317   6.180   2.217  1.3890 -0.6487  0.0696
 3698SOL    HW214241   3.323   6.037   2.267  0.6490 -0.4386  0.7724
 3699SOL     OW14242   2.872   0.137   1.432 -0.5739 -0.4297 -0.1641
 3699SOL    HW114243   2.884   0.047   1.464 -0.5819 -0.1704  0.5772
 3699SOL    HW214244   2.948   0.184   1.465  0.3652 -0.5361 -2.0185
 3700SOL     OW14245   0.024   7.637   6.823  0.3749 -0.3966 -0.2057
 3700SOL    HW114246  -0.016   7.722   6.844 -0.9974 -0.9008 -0.6597
 3700SOL    HW214247   0.117   7.650   6.839  0.0276  0.7885  1.0526
 3701SOL     OW14248   7.283   1.740   1.016 -0.7939 -0.4418 -0.3011
 3701SOL    HW114249   7.188   1.752   1.016 -0.7816 -0.3013 -1.0204
 3701SOL    HW214250   7.303   1.709   1.104 -1.4192  0.2040  0.0733
 3702SOL     OW14251   7.049   4.928   2.282 -0.0188 -0.0739  0.0061
 3702SOL    HW114252   7.104   4.859   2.319  2.4020  0.3580 -2.4604
 3702SOL    HW214253   7.003   4.885   2.209 -1.5066  0.0484  0.8359
 3703SOL     OW14254   1.862   7.448   7.083  0.5250  0.2857  0.0632
 3703SOL    HW114255   1.818   7.374   7.125  1.6267  0.1228  0.9924
 3703SOL    HW214256   1.955   7.429   7.095  0.8712  0.6848 -1.7055
 3704SOL     OW14257   6.977   5.598   5.515  0.4363 -0.0419  0.1316
 3704SOL    HW114258   6.892   5.583   5.557  0.9804 -1.1647  0.9004
 3704SOL    HW214259   6.981   5.534   5.444 -0.4721  1.8434 -1.6935
 3705SOL     OW14260   0.858   6.754   6.728  0.4497 -0.1604 -0.6440
 3705SOL    HW114261   0.804   6.825   6.762  2.0482 -0.1114  2.0312
 3705SOL    HW214262   0.811   6.674   6.752  0.0793 -0.0933 -1.1122
 3706SOL     OW14263   6.061   6.440   5.831  0.2552 -0.2192 -0.8130
 3706SOL    HW114264   6.034   6.354   5.863  0.6509 -0.7025 -1.7414
 3706SOL    HW214265   6.143   6.424   5.785  0.9537  0.8554 -0.0067
 3707SOL     OW14266   7.506   0.314   1.474 -0.4500 -0.0644  0.0939
 3707SOL    HW114267   7.597   0.343   1.483 -0.1352 -0.6518 -1.0227
 3707SOL    HW214268   7.457   0.372   1.531  0.5517  0.6632  0.2478
 3708SOL     OW14269   4.596   4.444   5.975 -0.1566 -0.7559  0.0796
 3708SOL    HW114270   4.680   4.487   5.964 -0.9358  1.2001  1.2967
 3708SOL    HW214271   4.571   4.416   5.886  0.1440  1.8602 -0.9104
 3709SOL     OW14272   2.459   6.983   6.761 -0.1275  0.4422  0.0117
 3709SOL    HW114273   2.413   6.977   6.677 -0.2662  1.8148 -0.0208
 3709SOL    HW214274   2.542   6.937   6.746 -1.1978 -1.5619 -0.0974
 3710SOL     OW14275   4.489   4.808   3.805 -0.4895 -0.1035  0.1720
 3710SOL    HW114276   4.567   4.783   3.755 -0.7144 -0.8998  0.1978
 3710SOL    HW214277   4.514   4.890   3.849 -0.0424  0.2156 -0.6563
 3711SOL     OW14278   3.139   3.733   3.984 -0.3163 -0.4189  0.2277
 3711SOL    HW114279   3.062   3.779   4.018  0.5085  0.7428  0.5880
 3711SOL    HW214280   3.211   3.796   3.994  1.1700 -2.2505  2.0667
 3712SOL     OW14281   6.359   2.464   5.652 -0.1853  0.0079  0.0404
 3712SOL    HW114282   6.380   2.469   5.559 -1.2339 -0.0586 -0.2085
 3712SOL    HW214283   6.439   2.431   5.693  0.0459 -0.6596 -0.9254
 3713SOL     OW14284   4.586   8.054   1.854  0.0369  0.3483  0.5489
 3713SOL    HW114285   4.644   8.127   1.877  0.0412  0.2311  0.9127
 3713SOL    HW214286   4.542   8.083   1.774 -0.4211  1.0066  1.0284
 3714SOL     OW14287   4.617   0.046   6.447  0.7972  0.1488  0.2479
 3714SOL    HW114288   4.555   0.100   6.497 -0.0444  0.0753 -0.6930
 3714SOL    HW214289   4.687   0.107   6.424  0.7661  0.3926  0.7746
 3715SOL     OW14290   2.700   1.048   7.056  0.0771 -0.3861 -0.1616
 3715SOL    HW114291   2.660   1.123   7.012  0.7068 -0.2532 -0.5257
 3715SOL    HW214292   2.784   1.037   7.011  0.6856 -0.3143  0.9434
 3716SOL     OW14293   1.672   0.509   7.752  0.1887  0.0558 -1.1824
 3716SOL    HW114294   1.745   0.568   7.732  0.4589  0.1114 -0.0571
 3716SOL    HW214295   1.712   0.433   7.794 -0.4588  0.4554  0.2208
 3717SOL     OW14296   3.270   2.480   6.963 -0.1023 -0.7213  0.4654
 3717SOL    HW114297   3.330   2.485   7.037 -0.2493  0.6872  0.5113
 3717SOL    HW214298   3.327   2.466   6.887  0.2120 -0.2923  0.6182
 3718SOL     OW14299   4.049   7.173   0.579  0.0023 -0.5459  0.0731
 3718SOL    HW114300   4.122   7.235   0.584  0.4643 -1.0667 -0.0787
 3718SOL    HW214301   3.973   7.223   0.609  0.2284  0.2982 -0.7261
 3719SOL     OW14302   7.021   7.237   5.372  0.3486  0.3776  0.0993
 3719SOL    HW114303   7.086   7.174   5.405 -0.3354  0.5188  1.8012
 3719SOL    HW214304   7.037   7.241   5.278  0.4085 -2.3660 -0.0757
 3720SOL     OW14305   2.865   7.527   5.602 -0.0308 -0.5309  1.1076
 3720SOL    HW114306   2.953   7.501   5.573  0.3161 -0.8406  2.3810
 3720SOL    HW214307   2.871   7.532   5.697 -1.0703  0.7036  1.1399
 3721SOL     OW14308   1.742   7.663   2.048  0.0456  0.3350  0.1908
 3721SOL    HW114309   1.676   7.719   2.007  0.2841 -0.3629 -1.2244
 3721SOL    HW214310   1.706   7.641   2.134 -1.2347  0.5597 -0.2756
 3722SOL     OW14311   5.639   7.308   6.253 -0.5813  0.2495  0.0736
 3722SOL    HW114312   5.583   7.281   6.326 -0.6788  1.0535  0.3021
 3722SOL    HW214313   5.677   7.391   6.281  3.1691 -1.6027  1.2878
 3723SOL     OW14314   3.092   3.451   5.421  0.5909  0.3712 -0.2887
 3723SOL    HW114315   3.165   3.458   5.482 -0.8103  0.8012  1.3977
 3723SOL    HW214316   3.061   3.541   5.410 -0.0036  0.1351 -0.5954
 3724SOL     OW14317   0.029   2.941   2.958  0.1946 -0.3924  0.2242
 3724SOL    HW114318   0.044   2.927   3.051  1.0411 -0.5109  0.0735
 3724SOL    HW214319   0.104   2.992   2.928 -0.2569 -0.0256 -0.3186
 3725SOL     OW14320   1.076   0.185   6.070  0.1739  0.2653  0.4163
 3725SOL    HW114321   1.006   0.170   6.135  0.7186 -2.2238  0.5299
 3725SOL    HW214322   1.157   0.165   6.117  0.6969 -0.1088 -0.6168
 3726SOL     OW14323   7.436   1.623   3.557  0.1217  0.0072 -0.2210
 3726SOL    HW114324   7.435   1.686   3.630  1.4457  1.0730 -1.0867
 3726SOL    HW214325   7.375   1.659   3.493 -0.7777 -0.7497  0.1925
 3727SOL     OW14326   4.361   4.351   5.355  0.1575 -0.5192  0.3967
 3727SOL    HW114327   4.449   4.388   5.347  0.5448 -1.0823  1.8373
 3727SOL    HW214328   4.365   4.268   5.307  0.0919 -0.0630 -0.4243
 3728SOL     OW14329   6.728   3.149   4.321 -0.0920  0.0602  0.1189
 3728SOL    HW114330   6.810   3.102   4.305  1.0076  1.9082  0.0333
 3728SOL    HW214331   6.703   3.124   4.410 -0.8701 -2.4771 -0.7089
 3729SOL     OW14332   7.881   6.310   7.349 -0.4686 -0.1843 -0.3381
 3729SOL    HW114333   7.792   6.338   7.326 -0.6179  0.4469  0.9156
 3729SOL    HW214334   7.888   6.222   7.312 -1.9633 -0.6267  0.3367
 3730SOL     OW14335   3.050   1.462   5.596 -0.2451 -0.7537  0.0163
 3730SOL    HW114336   3.046   1.531   5.530 -0.8311 -1.2445 -0.4798
 3730SOL    HW214337   2.961   1.426   5.598 -0.7030  0.2925  2.2278
 3731SOL     OW14338   5.206   4.114   2.295 -0.4314  0.0816 -0.4103
 3731SOL    HW114339   5.242   4.135   2.209 -1.5466  0.9590 -0.6946
 3731SOL    HW214340   5.111   4.108   2.280 -0.6575  0.3941  0.7810
 3732SOL     OW14341   1.398   1.077   5.486 -0.0216  0.2095  0.3012
 3732SOL    HW114342   1.472   1.137   5.493  0.0464  0.1533  0.0825
 3732SOL    HW214343   1.439   0.991   5.474 -0.1213  0.2188 -0.1432
 3733SOL     OW14344   3.432   4.107   0.845 -0.2781  0.2537 -0.3563
 3733SOL    HW114345   3.450   4.021   0.883 -3.0835 -0.9538 -1.4930
 3733SOL    HW214346   3.447   4.096   0.751 -2.0276  0.5349 -0.6984
 3734SOL     OW14347   4.446   6.407   2.357  0.0264  0.9592 -0.6767
 3734SOL    HW114348   4.399   6.433   2.278  0.8009  0.1003 -1.4447
 3734SOL    HW214349   4.423   6.474   2.422 -0.9952  1.4164 -1.4786
 3735SOL     OW14350   1.382   6.977   5.506  0.5281  0.2373 -0.2167
 3735SOL    HW114351   1.304   6.969   5.561  0.3651 -1.4492 -0.6354
 3735SOL    HW214352   1.455   6.963   5.565  0.4189 -0.0672 -0.1509
 3736SOL     OW14353   7.005   0.130   1.987 -0.6781 -0.0532 -0.1977
 3736SOL    HW114354   7.039   0.217   2.008  0.3465 -0.1429 -1.4072
 3736SOL    HW214355   6.932   0.147   1.928 -0.8674  0.0023  0.0488
 3737SOL     OW14356   7.066   0.260   7.775  0.2760 -0.5303 -0.4406
 3737SOL    HW114357   7.135   0.228   7.832  0.0195 -0.2418  0.0399
 3737SOL    HW214358   7.086   0.353   7.763 -0.5984 -0.2007  0.5482
 3738SOL     OW14359   0.121   6.024   5.107 -0.6346 -0.2172 -0.5461
 3738SOL    HW114360   0.067   6.064   5.039  0.9295 -0.0093 -1.7209
 3738SOL    HW214361   0.188   6.090   5.125 -1.1684 -0.1623  1.4292
 3739SOL     OW14362   4.033   4.890   5.749 -0.8381 -0.2112  0.3713
 3739SOL    HW114363   4.110   4.869   5.697 -0.3708 -2.0986  1.7037
 3739SOL    HW214364   3.967   4.827   5.720 -0.7384 -0.9294  1.6408
 3740SOL     OW14365   3.902   3.011   6.159  0.0359  0.2631 -0.5937
 3740SOL    HW114366   3.882   3.105   6.162 -0.3197  0.1657  1.8250
 3740SOL    HW214367   3.965   3.003   6.087  0.8280  2.5257 -0.2571
 3741SOL     OW14368   4.832   0.882   1.953  0.3209 -0.6342 -0.3830
 3741SOL    HW114369   4.877   0.872   1.869  0.8844  0.1259 -0.1849
 3741SOL    HW214370   4.739   0.877   1.931  0.4307  0.3924 -1.1935
 3742SOL     OW14371   2.140   3.391   4.114  0.1680 -0.3123 -0.1880
 3742SOL    HW114372   2.206   3.454   4.142 -2.3109  1.6946  1.6584
 3742SOL    HW214373   2.131   3.405   4.020  1.1411  0.6144 -0.1563
 3743SOL     OW14374   2.476   0.293   4.501  0.6117 -0.0668 -0.1524
 3743SOL    HW114375   2.513   0.244   4.574 -1.4011 -0.2508  0.8032
 3743SOL    HW214376   2.452   0.377   4.538  1.0719  0.4641 -1.0194
 3744SOL     OW14377   0.344   5.943   1.137 -0.5884  0.2880 -0.2449
 3744SOL    HW114378   0.276   5.988   1.085 -0.7455 -1.1705 -1.3457
 3744SOL    HW214379   0.303   5.929   1.223 -1.3139  0.3083 -0.5829
 3745SOL     OW14380   5.236   3.570   4.916 -0.1586  0.1137  0.0891
 3745SOL    HW114381   5.163   3.523   4.956 -0.7004 -0.5000 -1.5334
 3745SOL    HW214382   5.312   3.513   4.933 -0.5747 -0.6975 -0.6962
 3746SOL     OW14383   1.967   4.020   3.471 -0.1096  0.0689  0.4914
 3746SOL    HW114384   1.916   3.941   3.492 -0.4388  0.7782  2.5095
 3746SOL    HW214385   2.056   3.999   3.500 -0.2859  0.5738  1.4226
 3747SOL     OW14386   4.580   4.080   0.045  0.2961 -0.1536  0.0366
 3747SOL    HW114387   4.551   4.168   0.068  0.3818  0.7354 -2.7659
 3747SOL    HW214388   4.643   4.094  -0.026 -1.3872 -2.4876 -2.1134
 3748SOL     OW14389   0.651   2.465   7.676 -0.7260 -1.0670 -0.3279
 3748SOL    HW114390   0.630   2.488   7.767  0.7494 -2.5946  0.4519
 3748SOL    HW214391   0.674   2.549   7.635 -0.2188 -0.5023  1.0541
 3749SOL     OW14392   6.600   7.255   1.420  0.0595  0.0029  0.3266
 3749SOL    HW114393   6.638   7.336   1.387 -2.0467  0.8490 -0.1807
 3749SOL    HW214394   6.558   7.215   1.343 -0.9504 -0.3480  1.0438
 3750SOL     OW14395   3.352   3.666   6.388 -0.0742 -0.6338 -0.0214
 3750SOL    HW114396   3.399   3.589   6.422 -1.4891 -1.9446 -0.9036
 3750SOL    HW214397   3.398   3.687   6.306  0.6233 -0.2110  0.4684
 3751SOL     OW14398   1.712   7.006   6.807 -0.0671  0.1732 -0.4722
 3751SOL    HW114399   1.725   7.071   6.737 -0.4522  1.6566  0.7657
 3751SOL    HW214400   1.654   6.940   6.769  2.8228 -1.2389 -2.8265
 3752SOL     OW14401   8.093   7.633   3.578  0.6546  0.1562 -0.5350
 3752SOL    HW114402   8.079   7.579   3.501 -2.3988 -0.2526  0.1865
 3752SOL    HW214403   8.170   7.595   3.620  0.2027 -1.9237 -1.4557
 3753SOL     OW14404   0.318   7.881   1.474 -0.0093  0.1908 -0.0163
 3753SOL    HW114405   0.234   7.852   1.511  0.4296 -2.1351 -0.6928
 3753SOL    HW214406   0.373   7.803   1.474  1.8086  1.4078 -0.6042
 3754SOL     OW14407   7.175   5.576   4.769  0.4505 -0.1980  0.1222
 3754SOL    HW114408   7.228   5.571   4.690 -1.6583  2.9683 -1.7187
 3754SOL    HW214409   7.095   5.620   4.741 -0.6488  0.5558  3.9334
 3755SOL     OW14410   2.720   7.837   4.918  0.2359 -0.0716  0.2448
 3755SOL    HW114411   2.679   7.810   5.001  1.0503  1.0283  1.0278
 3755SOL    HW214412   2.647   7.853   4.859 -0.4150  0.5298  1.1962
 3756SOL     OW14413   0.833   0.799   2.678 -0.0911  0.0173  0.2217
 3756SOL    HW114414   0.755   0.771   2.726  1.1043 -0.6283  1.8805
 3756SOL    HW214415   0.874   0.717   2.650  1.2394  0.2104  1.4872
 3757SOL     OW14416   0.566   3.857   0.681 -0.0633 -0.1354  0.2538
 3757SOL    HW114417   0.627   3.819   0.618  1.7193  2.7030  0.1089
 3757SOL    HW214418   0.493   3.795   0.683  1.0799 -1.7754 -2.4359
 3758SOL     OW14419   1.323   6.857   0.544  0.2307  0.2681 -0.0240
 3758SOL    HW114420   1.308   6.928   0.481 -0.5641  1.0941  1.0645
 3758SOL    HW214421   1.395   6.807   0.506  1.3086  2.0712 -0.4977
 3759SOL     OW14422   4.879   6.716   7.686 -0.1484 -0.2272  0.3438
 3759SOL    HW114423   4.892   6.809   7.667  0.5422 -0.0105  1.7668
 3759SOL    HW214424   4.800   6.713   7.740  1.6728 -0.0512  3.1648
 3760SOL     OW14425   4.669   4.616   4.736  0.0506 -0.1670  0.1151
 3760SOL    HW114426   4.696   4.576   4.819 -0.4441  0.8523  0.7819
 3760SOL    HW214427   4.747   4.611   4.681  0.8794  0.5592  1.1860
 3761SOL     OW14428   7.112   2.392   5.196 -0.1125  0.5165 -0.0304
 3761SOL    HW114429   7.152   2.370   5.280 -1.3610  0.4500  0.5701
 3761SOL    HW214430   7.079   2.481   5.208 -0.7852  0.3066 -0.2497
 3762SOL     OW14431   6.409   3.454   1.966 -0.0435 -0.3726 -0.2458
 3762SOL    HW114432   6.379   3.519   1.901 -2.0222 -0.9206  0.0494
 3762SOL    HW214433   6.487   3.494   2.005  1.2817 -0.0542 -2.9718
 3763SOL     OW14434   3.760   5.569   3.284  0.1030 -0.3305 -0.5557
 3763SOL    HW114435   3.842   5.614   3.307  0.4788  0.2661 -2.8836
 3763SOL    HW214436   3.784   5.476   3.282  0.2928 -0.3148  0.3777
 3764SOL     OW14437   2.880   3.348   0.180 -0.2459  0.1111 -0.1827
 3764SOL    HW114438   2.854   3.256   0.173  2.4255 -0.7489  0.3182
 3764SOL    HW214439   2.836   3.379   0.259  0.3634 -1.3360  0.7737
 3765SOL     OW14440   7.595   6.638   3.419 -0.6121  0.3021  0.4179
 3765SOL    HW114441   7.558   6.712   3.467 -0.3344  0.6878  0.0570
 3765SOL    HW214442   7.688   6.660   3.410 -0.4839 -0.2001  0.5013
 3766SOL     OW14443   1.659   3.503   6.652 -0.1773 -0.3881 -0.2872
 3766SOL    HW114444   1.581   3.555   6.676  0.1816  0.5726 -1.1014
 3766SOL    HW214445   1.732   3.548   6.694  0.3879  0.9940 -2.5796
 3767SOL     OW14446   7.458   4.605   3.550  0.2557  0.1197  0.2119
 3767SOL    HW114447   7.517   4.573   3.618  1.8809 -2.0544 -2.1010
 3767SOL    HW214448   7.399   4.532   3.532  0.0668  0.5412 -0.9736
 3768SOL     OW14449   3.593   7.885   4.363 -0.3907  0.3045  0.0020
 3768SOL    HW114450   3.590   7.927   4.449  0.1732  0.9304 -0.2792
 3768SOL    HW214451   3.686   7.865   4.350 -0.6689 -1.3202  0.2656
 3769SOL     OW14452   2.805   7.982   2.706  0.9170  0.3392 -0.2389
 3769SOL    HW114453   2.833   7.894   2.732 -0.5140 -0.5562 -1.6108
 3769SOL    HW214454   2.732   8.002   2.764  1.6368  0.9201  0.4967
 3770SOL     OW14455   1.328   7.676   5.264  0.0265  0.2125  0.3765
 3770SOL    HW114456   1.275   7.754   5.277  0.6727  0.3732  2.3194
 3770SOL    HW214457   1.341   7.640   5.352  0.5372 -1.5642 -0.3628
 3771SOL     OW14458   0.135   1.370   1.451  0.0770 -0.3775 -0.1858
 3771SOL    HW114459   0.220   1.330   1.464 -0.5632 -2.0241 -0.7951
 3771SOL    HW214460   0.077   1.297   1.429 -1.3692  0.7688 -0.3450
 3772SOL     OW14461   4.636   6.787   2.621  0.0652 -0.1498  0.4218
 3772SOL    HW114462   4.706   6.721   2.622  1.0242  0.7843 -1.2047
 3772SOL    HW214463   4.560   6.740   2.586  1.2939 -0.0118 -2.8509
 3773SOL     OW14464   2.038   3.968   7.067 -0.2081 -0.0172 -0.7481
 3773SOL    HW114465   2.046   3.872   7.059  0.8332  0.0343 -0.4624
 3773SOL    HW214466   1.945   3.982   7.088 -0.0031 -1.1199  1.2060
 3774SOL     OW14467   2.073   3.000   3.899  0.3345  0.3516 -0.4967
 3774SOL    HW114468   2.048   2.978   3.989  1.1022  1.4859  0.0185
 3774SOL    HW214469   2.001   3.054   3.867  0.3161  0.4050 -0.3668
 3775SOL     OW14470   5.071   1.705   6.670 -0.6503  0.1032  0.3053
 3775SOL    HW114471   5.024   1.631   6.709  1.2260 -1.5701 -0.4411
 3775SOL    HW214472   5.125   1.739   6.741  0.4773 -1.0053  0.0292
 3776SOL     OW14473   3.447   2.187   1.825  0.0938  0.1322  0.4316
 3776SOL    HW114474   3.424   2.106   1.870  0.3131  0.7659  1.7103
 3776SOL    HW214475   3.476   2.158   1.738 -2.1365 -0.9692 -0.0297
 3777SOL     OW14476   7.000   2.676   5.341  0.1699  0.8873  0.0423
 3777SOL    HW114477   7.014   2.751   5.283 -0.4421  1.3374  0.4645
 3777SOL    HW214478   7.056   2.692   5.416  0.1727  0.8280  0.0534
 3778SOL     OW14479   0.374   7.511   6.649  0.3365 -0.0162 -0.5041
 3778SOL    HW114480   0.294   7.490   6.600  0.0801  0.9175 -0.4961
 3778SOL    HW214481   0.346   7.508   6.741 -0.4105  2.9617 -0.5425
 3779SOL     OW14482   1.377   2.146   1.180 -0.4542  0.0483  0.0183
 3779SOL    HW114483   1.429   2.066   1.174  1.1708  0.9804  0.9974
 3779SOL    HW214484   1.320   2.144   1.103  1.0137 -1.0303 -1.0795
 3780SOL     OW14485   1.380   0.825   6.505  0.0253  0.6534  0.0317
 3780SOL    HW114486   1.332   0.749   6.472  1.3526 -0.0404 -0.3303
 3780SOL    HW214487   1.316   0.896   6.502 -1.3139 -0.4722  0.5717
 3781SOL     OW14488   1.837   2.118   7.675 -0.0352  0.1088 -0.2096
 3781SOL    HW114489   1.765   2.060   7.651  0.1251 -0.0256 -0.3724
 3781SOL    HW214490   1.820   2.141   7.766 -2.0861  2.6975 -1.1263
 3782SOL     OW14491   1.473   4.521   7.350  0.5054 -0.3269 -0.8419
 3782SOL    HW114492   1.492   4.614   7.334  2.3945 -0.3075  1.1296
 3782SOL    HW214493   1.557   4.477   7.343 -0.2568 -1.8210 -1.0994
 3783SOL     OW14494   3.296   5.012   7.631  0.3243 -0.0482  0.0814
 3783SOL    HW114495   3.301   4.968   7.716 -0.1661 -0.6066 -0.1692
 3783SOL    HW214496   3.385   5.043   7.614  0.5700 -0.5188  0.4936
 3784SOL     OW14497   3.037   4.426   7.923  0.2217  0.3092 -0.1189
 3784SOL    HW114498   3.096   4.377   7.979  0.2868 -2.3264 -2.3315
 3784SOL    HW214499   2.964   4.451   7.981  1.4433 -0.0847  1.6556
 3785SOL     OW14500   2.644   1.361   7.222  0.1442  0.1600  0.0581
 3785SOL    HW114501   2.711   1.292   7.225  2.2949  2.0965 -0.4511
 3785SOL    HW214502   2.586   1.341   7.295  0.7349 -2.1159 -0.0236
 3786SOL     OW14503   2.606   0.589   1.411  0.5504 -0.1589  0.4786
 3786SOL    HW114504   2.561   0.576   1.327  2.1619 -2.1193 -0.1466
 3786SOL    HW214505   2.588   0.681   1.434 -1.6914 -0.1708 -0.9112
 3787SOL     OW14506   0.856   1.409   5.026 -0.4046  0.1163  0.2185
 3787SOL    HW114507   0.929   1.465   4.997 -0.8847  0.1157 -1.0805
 3787SOL    HW214508   0.876   1.323   4.988  0.0566 -0.4876  1.7628
 3788SOL     OW14509   4.680   2.848   7.829  0.3365  0.2774 -0.1596
 3788SOL    HW114510   4.671   2.781   7.760 -1.0909 -0.3480  0.5844
 3788SOL    HW214511   4.741   2.810   7.892  1.0694  0.5367 -0.6999
 3789SOL     OW14512   3.594   0.166   6.210  0.0893 -0.0999  0.3665
 3789SOL    HW114513   3.627   0.077   6.227 -2.9236 -1.1528  1.4427
 3789SOL    HW214514   3.571   0.199   6.296 -3.1819 -0.2202 -0.3483
 3790SOL     OW14515   3.349   2.932   7.103 -0.0435  0.1466 -0.3032
 3790SOL    HW114516   3.347   3.019   7.063  1.7642  0.0437 -0.7136
 3790SOL    HW214517   3.287   2.880   7.052 -0.8485  1.0804 -0.3013
 3791SOL     OW14518   2.476   4.745   6.551 -0.4164 -0.0854 -0.3477
 3791SOL    HW114519   2.497   4.806   6.621  0.7655 -0.0885 -0.6774
 3791SOL    HW214520   2.448   4.665   6.597 -1.5861  0.5590  0.0828
 3792SOL     OW14521   3.634   7.605   6.675  0.0995  0.1774  0.6912
 3792SOL    HW114522   3.687   7.539   6.720 -0.3331 -0.2995  0.5154
 3792SOL    HW214523   3.567   7.554   6.629 -0.0528  0.7231  0.3020
 3793SOL     OW14524   4.912   5.116   5.858  0.0525 -0.3675 -0.5342
 3793SOL    HW114525   4.968   5.077   5.926 -1.6851 -0.1768  1.0845
 3793SOL    HW214526   4.965   5.189   5.823  1.5968 -1.4337 -0.5322
 3794SOL     OW14527   2.381   2.142   2.348 -0.5855  0.6949  0.2881
 3794SOL    HW114528   2.323   2.116   2.420 -0.4195  0.7196  0.4301
 3794SOL    HW214529   2.420   2.224   2.376 -1.2750  1.2259 -0.2568
 3795SOL     OW14530   3.153   0.515   7.446  0.0210 -0.1677 -0.2406
 3795SOL    HW114531   3.089   0.448   7.470 -0.3975  0.4072  0.2664
 3795SOL    HW214532   3.206   0.474   7.378 -0.5153 -0.8572 -0.2503
 3796SOL     OW14533   8.031   0.721   3.956 -0.5491 -0.0189  0.5035
 3796SOL    HW114534   8.078   0.676   3.885 -1.6805 -0.8818  0.2694
 3796SOL    HW214535   8.090   0.791   3.983 -0.0912  0.3425 -1.3129
 3797SOL     OW14536   0.409   2.325   6.261 -0.0030  0.6914 -0.9132
 3797SOL    HW114537   0.432   2.379   6.186  1.6326  0.9775 -0.2445
 3797SOL    HW214538   0.482   2.335   6.322 -0.9692 -0.0676  0.4366
 3798SOL     OW14539   3.491   5.872   0.070 -0.6376  0.4479 -0.0453
 3798SOL    HW114540   3.557   5.934   0.100  0.5022  0.4107 -2.2467
 3798SOL    HW214541   3.416   5.926   0.046 -0.6722  0.6844  0.5694
 3799SOL     OW14542   4.477   7.274   0.047 -0.1779  0.0103  0.2710
 3799SOL    HW114543   4.503   7.355   0.090  1.2938 -1.2612  1.8887
 3799SOL    HW214544   4.486   7.292  -0.047 -1.0405  2.0613  0.5482
 3800SOL     OW14545   1.616   0.899   6.659 -0.0763 -0.8103 -0.2914
 3800SOL    HW114546   1.675   0.865   6.727  1.5316 -0.9533 -1.6699
 3800SOL    HW214547   1.568   0.822   6.629  0.9225 -1.2332 -0.8922
 3801SOL     OW14548   5.237   1.614   5.583 -0.2864 -0.3205 -0.2180
 3801SOL    HW114549   5.262   1.663   5.661  1.0227  0.6027 -1.1669
 3801SOL    HW214550   5.309   1.629   5.521 -1.5799 -0.4663 -1.8354
 3802SOL     OW14551   6.168   0.424   2.675  0.0363  0.3581  0.1712
 3802SOL    HW114552   6.164   0.336   2.637  1.2841 -0.3114  1.5181
 3802SOL    HW214553   6.245   0.464   2.636  0.1794  0.3947  0.4879
 3803SOL     OW14554   7.587   7.530   4.385 -0.5046 -0.1596  0.6817
 3803SOL    HW114555   7.493   7.519   4.370 -0.4770 -0.2862  0.5934
 3803SOL    HW214556   7.594   7.569   4.472 -0.6951  1.0215  0.1913
 3804SOL     OW14557   0.070   1.512   4.525 -0.0718  0.0841 -0.1356
 3804SOL    HW114558   0.126   1.520   4.602  1.8062  1.3886 -1.5455
 3804SOL    HW214559   0.087   1.425   4.490  0.3469  0.1259 -0.0313
 3805SOL     OW14560   7.619   5.646   3.573 -0.2050  0.2528  0.5122
 3805SOL    HW114561   7.582   5.579   3.630  0.4030 -0.6451 -0.1016
 3805SOL    HW214562   7.601   5.614   3.484  0.1198  0.8938  0.2054
 3806SOL     OW14563   7.746   3.363   2.823  0.3752 -0.1102 -0.3862
 3806SOL    HW114564   7.682   3.324   2.883  0.0724  0.7942 -0.1065
 3806SOL    HW214565   7.693   3.412   2.760  0.7651  0.2858 -0.4146
 3807SOL     OW14566   2.782   1.995   2.457  0.4477 -0.0796 -0.0874
 3807SOL    HW114567   2.743   2.029   2.538  0.9144 -1.7047  0.8689
 3807SOL    HW214568   2.739   1.910   2.444  2.1570 -0.9829 -0.1245
 3808SOL     OW14569   5.460   7.215   2.923  0.3391  0.4976  0.0130
 3808SOL    HW114570   5.550   7.184   2.911  0.9501  1.9947  0.5982
 3808SOL    HW214571   5.458   7.252   3.011 -1.2607 -0.7966  0.5808
 3809SOL     OW14572   5.499   7.676   0.074 -0.5620 -0.2819 -0.1713
 3809SOL    HW114573   5.573   7.617   0.057 -0.5034  0.0793 -1.2823
 3809SOL    HW214574   5.524   7.759   0.032  0.1882  1.2026  2.9313
 3810SOL     OW14575   1.461   5.904   5.119  1.0518  0.5100  0.2185
 3810SOL    HW114576   1.470   5.818   5.077  1.6209 -0.0022  1.3593
 3810SOL    HW214577   1.503   5.964   5.058  0.1196  0.0863 -0.8782
 3811SOL     OW14578   4.753   7.267   3.253  0.2093  0.1801  0.5289
 3811SOL    HW114579   4.788   7.232   3.171 -1.7378 -1.0796  0.1707
 3811SOL    HW214580   4.742   7.360   3.236  1.0889  0.1749 -0.1642
 3812SOL     OW14581   5.457   2.711   0.216 -0.0758 -0.3098  0.1073
 3812SOL    HW114582   5.428   2.622   0.194 -0.5596  0.2045 -1.4398
 3812SOL    HW214583   5.468   2.754   0.132  2.7355  0.3448  0.7174
 3813SOL     OW14584   5.020   0.282   1.652  0.2946 -0.0710  0.5542
 3813SOL    HW114585   5.004   0.236   1.734  0.6996 -1.9513 -0.3736
 3813SOL    HW214586   4.933   0.306   1.621 -0.0518 -1.3308  0.4784
 3814SOL     OW14587   5.001   2.508   0.964 -0.0924  0.0449 -0.0528
 3814SOL    HW114588   4.973   2.418   0.986  0.7015 -0.0748  0.5189
 3814SOL    HW214589   4.921   2.551   0.935 -0.0381 -1.5816 -2.9142
 3815SOL     OW14590   0.441   5.197   0.917 -0.0244 -0.1707  0.6369
 3815SOL    HW114591   0.394   5.119   0.946 -1.5772  0.2534 -0.5866
 3815SOL    HW214592   0.492   5.167   0.841  2.5223 -0.8377  2.4798
 3816SOL     OW14593   5.807   4.462   1.837  0.1026 -0.3506  0.0985
 3816SOL    HW114594   5.719   4.491   1.812 -0.8072 -1.1177  2.1752
 3816SOL    HW214595   5.810   4.370   1.811  0.9560  0.0808 -1.4736
 3817SOL     OW14596   4.199   2.151   5.452 -0.9922  0.2276 -0.2549
 3817SOL    HW114597   4.178   2.139   5.359 -0.5304 -0.3160 -0.2917
 3817SOL    HW214598   4.272   2.091   5.469 -2.0449 -0.8330  0.8139
 3818SOL     OW14599   0.541   2.597   4.251 -0.5349 -0.0607  0.3416
 3818SOL    HW114600   0.494   2.636   4.177 -1.8711 -1.0123  0.6353
 3818SOL    HW214601   0.608   2.661   4.274 -1.9550  1.5819  0.1483
 3819SOL     OW14602   5.035   5.994   0.776  0.1678  0.7490  0.3095
 3819SOL    HW114603   5.077   5.999   0.690 -1.6784  1.0141 -0.6144
 3819SOL    HW214604   4.963   6.056   0.772 -0.6146 -0.0172  1.6731
 3820SOL     OW14605   7.618   6.505   0.423 -0.0259 -0.2318  0.3928
 3820SOL    HW114606   7.612   6.442   0.495 -0.0207 -0.6796  0.0069
 3820SOL    HW214607   7.528   6.533   0.409 -0.1023 -0.5684  0.2029
 3821SOL     OW14608   4.866   3.577   0.761 -0.1783 -0.2767  0.2311
 3821SOL    HW114609   4.941   3.581   0.701  2.1179 -1.4458  2.7818
 3821SOL    HW214610   4.810   3.509   0.724  0.9066 -0.6487 -0.8411
 3822SOL     OW14611   0.659   7.004   5.100 -0.4620  0.1724 -0.7303
 3822SOL    HW114612   0.739   7.002   5.047 -0.6344 -0.2492 -0.9770
 3822SOL    HW214613   0.680   7.064   5.171  0.6317 -1.1222  0.1019
 3823SOL     OW14614   2.153   2.420   0.978 -0.5107 -0.0599  0.1045
 3823SOL    HW114615   2.196   2.337   0.958  1.2166  0.3584  1.7661
 3823SOL    HW214616   2.083   2.396   1.039  0.1279 -0.2898  0.7621
 3824SOL     OW14617   3.857   0.037   6.353 -0.3509  0.4202  0.0139
 3824SOL    HW114618   3.940   0.025   6.307  0.0146 -0.5177  0.8720
 3824SOL    HW214619   3.854  -0.036   6.416 -1.6025  0.7136  0.3189
 3825SOL     OW14620   2.344   4.227   1.605 -0.0480  0.3520 -0.2016
 3825SOL    HW114621   2.262   4.255   1.565 -0.6061 -1.3826 -0.3760
 3825SOL    HW214622   2.325   4.139   1.639  1.7315 -0.0838 -0.2296
 3826SOL     OW14623   4.818   5.485   1.828  0.2919 -0.2352  0.0582
 3826SOL    HW114624   4.892   5.538   1.798 -1.2821  1.2253 -1.4440
 3826SOL    HW214625   4.750   5.548   1.851 -0.4488 -1.5226  1.6395
 3827SOL     OW14626   6.728   1.574   6.634 -0.2694  0.4220  0.1786
 3827SOL    HW114627   6.747   1.490   6.591 -2.0110 -0.3483  0.8249
 3827SOL    HW214628   6.798   1.583   6.699 -0.0773 -0.5662  0.1358
 3828SOL     OW14629   7.408   4.102   2.592 -0.2180  0.2523  0.3195
 3828SOL    HW114630   7.448   4.017   2.571  0.2279  0.3798  0.6457
 3828SOL    HW214631   7.478   4.165   2.581 -0.8475  0.7494 -1.0955
 3829SOL     OW14632   3.703   2.802   7.265  0.4249  0.3073 -0.5906
 3829SOL    HW114633   3.775   2.863   7.278 -0.6535  1.5347 -0.2237
 3829SOL    HW214634   3.624   2.851   7.288 -0.4877 -1.2165 -0.2641
 3830SOL     OW14635   0.132   5.774   0.007  0.1876 -0.2526  0.1003
 3830SOL    HW114636   0.152   5.738  -0.080  0.6282 -1.7155  0.7841
 3830SOL    HW214637   0.070   5.845  -0.011  0.6044 -0.2257 -1.4469
 3831SOL     OW14638   4.675   1.425   5.644  0.1024 -0.3546 -0.3479
 3831SOL    HW114639   4.646   1.389   5.728 -1.8767 -1.2034 -1.3108
 3831SOL    HW214640   4.762   1.460   5.661 -0.9995  1.3507  2.5537
 3832SOL     OW14641   5.072   3.546   0.601 -0.0199 -1.0103  0.1036
 3832SOL    HW114642   5.027   3.464   0.581 -1.5763 -0.2997  0.5273
 3832SOL    HW214643   5.161   3.533   0.571 -1.3494 -1.1271 -4.4503
 3833SOL     OW14644   2.362   6.404   0.772  0.6111 -0.2664  0.0848
 3833SOL    HW114645   2.308   6.327   0.749  1.4404 -0.8977  0.1995
 3833SOL    HW214646   2.446   6.387   0.729  1.2109 -0.0197  1.1508
 3834SOL     OW14647   3.945   6.086   6.296 -0.3312  0.1063  0.6718
 3834SOL    HW114648   3.854   6.114   6.306 -0.2696  0.2721  0.7643
 3834SOL    HW214649   3.995   6.167   6.294 -0.3165  0.0803 -0.7923
 3835SOL     OW14650   4.851   0.636   7.717 -0.4388  0.0142  0.3297
 3835SOL    HW114651   4.904   0.644   7.796  0.2853  0.2483 -0.1636
 3835SOL    HW214652   4.773   0.689   7.735 -0.9028 -0.9844  1.3750
 3836SOL     OW14653   7.161   4.155   2.306  0.1778 -0.0773  0.1382
 3836SOL    HW114654   7.161   4.211   2.228 -1.5802 -1.1639 -0.7187
 3836SOL    HW214655   7.140   4.068   2.272  1.0418 -0.9098  1.6562
 3837SOL     OW14656   4.726   0.932   8.044  0.1296 -0.2779  0.3721
 3837SOL    HW114657   4.769   0.847   8.036  3.8368  1.4906 -0.7431
 3837SOL    HW214658   4.769   0.974   8.119 -0.9136  1.0145  0.2907
 3838SOL     OW14659   5.352   7.613   6.175  0.2084 -0.3919 -0.1069
 3838SOL    HW114660   5.290   7.611   6.248 -0.3013 -1.0367 -0.5408
 3838SOL    HW214661   5.438   7.618   6.217 -0.0722 -0.8129  0.5417
 3839SOL     OW14662   2.145   5.093   6.064  0.1064  0.9161 -0.6824
 3839SOL    HW114663   2.194   5.013   6.045  2.4625  2.6978 -2.8178
 3839SOL    HW214664   2.054   5.073   6.041  0.9206 -0.6682 -2.7396
 3840SOL     OW14665   3.751   1.484   0.733  0.6930 -0.5693  0.5865
 3840SOL    HW114666   3.686   1.509   0.799  1.8602 -1.2023  2.0379
 3840SOL    HW214667   3.720   1.523   0.652 -0.4091  0.8712  1.6636
 3841SOL     OW14668   6.407   7.223   4.954  0.1754  0.5376 -0.1355
 3841SOL    HW114669   6.335   7.218   5.017  1.6259 -0.9806  1.5432
 3841SOL    HW214670   6.478   7.265   5.003  0.8102  0.8948 -1.3376
 3842SOL     OW14671   6.845   7.475   2.105 -0.4015  0.0174  0.0741
 3842SOL    HW114672   6.844   7.407   2.037 -0.8958 -1.1878  1.2488
 3842SOL    HW214673   6.844   7.426   2.187  0.7025  1.4400  0.9673
 3843SOL     OW14674   3.039   4.208   6.819  0.0419  0.1543  0.4756
 3843SOL    HW114675   3.021   4.177   6.908  0.2100  0.7561  0.7193
 3843SOL    HW214676   3.134   4.200   6.811 -0.0224 -0.3735  0.1667
 3844SOL     OW14677   1.042   4.990   5.007  0.2299  0.2745 -0.2928
 3844SOL    HW114678   1.105   4.931   5.049 -1.9115 -0.7428  1.7170
 3844SOL    HW214679   0.960   4.941   5.006 -1.0493  2.3005 -0.8994
 3845SOL     OW14680   3.924   4.791   3.135  0.1323  1.1162 -0.5730
 3845SOL    HW114681   4.014   4.761   3.150  0.2256  0.7516 -1.7800
 3845SOL    HW214682   3.933   4.864   3.075 -0.4165  0.6925 -1.1755
 3846SOL     OW14683   3.303   8.091   0.575 -0.5498 -0.0774  0.4569
 3846SOL    HW114684   3.312   8.110   0.668 -0.6183  1.1360  0.2219
 3846SOL    HW214685   3.367   8.148   0.532  1.1374 -2.2522 -0.1035
 3847SOL     OW14686   6.847   4.472   2.507 -0.5799 -1.0120 -0.0692
 3847SOL    HW114687   6.924   4.527   2.523 -1.1018 -0.6713  1.4223
 3847SOL    HW214688   6.796   4.521   2.442 -0.3791 -0.3648  0.2449
 3848SOL     OW14689   6.483   4.820   0.871 -0.0717  0.1067  0.0978
 3848SOL    HW114690   6.412   4.758   0.892  2.1085 -1.8597  2.4222
 3848SOL    HW214691   6.451   4.869   0.795 -3.7383 -0.8601  0.8259
 3849SOL     OW14692   7.151   6.083   5.303 -0.5107  0.0933  0.2140
 3849SOL    HW114693   7.070   6.092   5.253 -1.1362 -1.2529  0.9432
 3849SOL    HW214694   7.131   6.019   5.371  1.1440 -0.2075  0.4707
 3850SOL     OW14695   4.635   5.990   7.938 -0.1640  0.0310  0.4208
 3850SOL    HW114696   4.561   6.029   7.892  0.3488  0.3752 -0.1152
 3850SOL    HW214697   4.608   5.988   8.030 -0.2472  1.5142  0.4391
 3851SOL     OW14698   3.555   2.772   1.104  0.4820 -0.1996 -0.1460
 3851SOL    HW114699   3.548   2.687   1.060  0.5237 -0.1491 -0.2530
 3851SOL    HW214700   3.465   2.798   1.120  0.4845 -0.5574  0.4640
 3852SOL     OW14701   2.366   1.477   7.780 -0.5534  0.5129 -0.0963
 3852SOL    HW114702   2.279   1.517   7.776 -0.6666  0.4258  1.1443
 3852SOL    HW214703   2.426   1.551   7.788 -0.5468  0.5424 -0.3828
 3853SOL     OW14704   3.981   5.303   0.249  0.0814  0.2411  0.4242
 3853SOL    HW114705   3.971   5.382   0.195  0.2267  1.1333  1.6624
 3853SOL    HW214706   4.052   5.255   0.208  1.1803  1.6271  0.6285
 3854SOL     OW14707   1.025   3.774   5.959  0.0421  0.5020 -0.0752
 3854SOL    HW114708   1.092   3.716   5.997  0.1436 -0.0323 -1.0369
 3854SOL    HW214709   0.967   3.716   5.910 -0.1238  1.1563 -0.6810
 3855SOL     OW14710   2.356   6.095   2.959 -0.1158 -0.3084  0.5739
 3855SOL    HW114711   2.309   6.054   2.886  2.3834 -2.1941 -0.1317
 3855SOL    HW214712   2.298   6.083   3.034 -1.0366 -2.0484 -0.3406
 3856SOL     OW14713   0.286   3.785   0.324 -0.6393  0.1106  0.0866
 3856SOL    HW114714   0.199   3.799   0.362 -0.0628  0.1513  1.4524
 3856SOL    HW214715   0.271   3.783   0.230 -2.1025  0.2453  0.2940
 3857SOL     OW14716   7.268   1.556   6.002  0.3060  0.3136  0.2222
 3857SOL    HW114717   7.274   1.606   5.921 -0.1574 -0.3621 -0.2401
 3857SOL    HW214718   7.174   1.551   6.020  0.4352  1.0621  1.1932
 3858SOL     OW14719   0.218   7.144   5.807 -0.0888  0.2166 -0.0520
 3858SOL    HW114720   0.206   7.073   5.871 -0.3928 -1.3389 -1.7388
 3858SOL    HW214721   0.132   7.186   5.802 -0.5738 -0.7977 -0.6753
 3859SOL     OW14722   2.841   0.763   2.351  0.2563 -0.5169  0.1821
 3859SOL    HW114723   2.929   0.792   2.329  0.3101 -0.6878  0.1673
 3859SOL    HW214724   2.849   0.668   2.358 -0.1443 -0.6314 -0.7950
 3860SOL     OW14725   3.017   3.827   6.731 -0.4262  0.4971 -0.1937
 3860SOL    HW114726   2.980   3.824   6.819  1.2778 -1.2178  0.5537
 3860SOL    HW214727   2.997   3.915   6.699 -2.6780  0.5441  1.1622
 3861SOL     OW14728   6.600   1.847   5.399 -0.6706 -0.3437 -0.5298
 3861SOL    HW114729   6.688   1.857   5.434  0.1824  1.2326 -2.8270
 3861SOL    HW214730   6.542   1.872   5.471  0.7775 -0.7042  0.8006
 3862SOL     OW14731   7.473   0.927   2.307 -0.2844  0.5350 -0.9783
 3862SOL    HW114732   7.382   0.952   2.295 -1.7542 -3.6453 -0.1206
 3862SOL    HW214733   7.491   0.945   2.399 -0.2979  1.1102 -1.0835
 3863SOL     OW14734   2.543   3.571   3.948  0.0613 -0.1678  0.6415
 3863SOL    HW114735   2.527   3.657   3.909  1.8746 -0.8320 -1.7717
 3863SOL    HW214736   2.634   3.576   3.978 -0.1537 -0.9282  1.4479
 3864SOL     OW14737   3.978   7.815   7.106 -0.2885  0.0606 -0.2976
 3864SOL    HW114738   4.037   7.788   7.177  1.7125 -0.7255 -2.1595
 3864SOL    HW214739   3.897   7.766   7.123  0.8124 -1.6184  0.3869
 3865SOL     OW14740   2.092   2.313   1.827  0.1191 -0.0182  0.1352
 3865SOL    HW114741   2.053   2.307   1.740  1.7211 -0.5049 -0.5787
 3865SOL    HW214742   2.037   2.257   1.882 -2.6326  2.4597  0.1677
 3866SOL     OW14743   6.632   2.309   2.511  0.7557 -0.1129 -0.5804
 3866SOL    HW114744   6.586   2.356   2.441  0.6183  1.3678  0.4641
 3866SOL    HW214745   6.681   2.241   2.465 -0.6896 -0.2904 -1.9347
 3867SOL     OW14746   3.636   4.605   4.663 -0.0375 -0.1297 -0.0113
 3867SOL    HW114747   3.663   4.552   4.588 -0.5247  2.7905 -2.4682
 3867SOL    HW214748   3.546   4.578   4.681 -0.0638 -0.5685 -0.7701
 3868SOL     OW14749   0.405   3.435   2.459 -0.2206  0.5099  0.2285
 3868SOL    HW114750   0.487   3.450   2.505 -0.6133  0.0303  1.1180
 3868SOL    HW214751   0.378   3.521   2.428  0.7898  0.6168 -0.3765
 3869SOL     OW14752   6.253   1.028   5.260 -0.4908  0.3987  0.2944
 3869SOL    HW114753   6.177   1.013   5.315 -0.3635  0.3059  0.4455
 3869SOL    HW214754   6.315   0.960   5.286 -0.8576 -0.3621 -0.7536
 3870SOL     OW14755   2.672   6.886   2.473  0.4814 -0.8453  0.4083
 3870SOL    HW114756   2.629   6.832   2.539  2.2716  0.7882  3.1276
 3870SOL    HW214757   2.760   6.848   2.465  2.0535  1.8567  2.9671
 3871SOL     OW14758   0.995   6.955   7.855  0.1319 -0.0481 -0.2451
 3871SOL    HW114759   1.038   6.902   7.922 -3.1779 -0.8125  1.5016
 3871SOL    HW214760   0.928   7.004   7.903 -0.0897  2.0951 -2.5476
 3872SOL     OW14761   4.674   2.253   4.142 -0.7434 -0.0340 -0.0342
 3872SOL    HW114762   4.720   2.177   4.179  1.0487  1.4914  1.0849
 3872SOL    HW214763   4.735   2.287   4.076 -1.1371  0.9199  0.0838
 3873SOL     OW14764   2.541   5.092   0.795  0.8564  0.3385  0.0801
 3873SOL    HW114765   2.575   5.174   0.758  0.1043  0.1914 -1.0026
 3873SOL    HW214766   2.605   5.067   0.861  0.5798  2.3398  1.1817
 3874SOL     OW14767   0.580   2.947   3.226  0.7542 -0.1871  0.2225
 3874SOL    HW114768   0.586   2.873   3.166  1.2847 -0.5616  0.7259
 3874SOL    HW214769   0.553   3.020   3.171  1.7134 -0.4115 -0.5752
 3875SOL     OW14770   2.774   3.633   4.098 -0.3793 -0.2535  0.1030
 3875SOL    HW114771   2.809   3.722   4.089 -0.5480 -0.1041  0.8260
 3875SOL    HW214772   2.738   3.631   4.187 -0.3682 -1.0519  0.0942
 3876SOL     OW14773   2.399   1.931   5.628  0.0031 -0.0653 -0.9629
 3876SOL    HW114774   2.429   2.010   5.672  0.0415 -1.0007  0.7725
 3876SOL    HW214775   2.304   1.943   5.619  0.2840  1.1123 -2.7448
 3877SOL     OW14776   3.206   7.614   7.089 -0.4066  0.0713  0.3847
 3877SOL    HW114777   3.186   7.698   7.130 -0.2693  0.3866 -0.1979
 3877SOL    HW214778   3.296   7.596   7.116 -0.1394  0.5240 -0.1851
 3878SOL     OW14779   3.161   3.357   8.076  0.2294 -0.4096  0.1224
 3878SOL    HW114780   3.221   3.374   8.003 -0.6806  0.2902 -0.4909
 3878SOL    HW214781   3.107   3.284   8.047 -1.9091  1.5243 -1.0908
 3879SOL     OW14782   0.350   1.108   0.968 -0.6733 -0.3069  0.5903
 3879SOL    HW114783   0.320   1.079   0.882  0.5596  0.1519 -0.0083
 3879SOL    HW214784   0.288   1.177   0.993 -0.1032  0.6872 -0.6592
 3880SOL     OW14785   4.598   5.761   6.819 -0.6668  0.4843 -0.0536
 3880SOL    HW114786   4.554   5.677   6.829 -0.0399  0.0917 -0.5603
 3880SOL    HW214787   4.632   5.761   6.730  0.1484  0.8730  0.2386
 3881SOL     OW14788   4.394   2.468   6.165  0.1319 -0.2055 -0.0944
 3881SOL    HW114789   4.338   2.536   6.203  0.7168 -0.4806  1.3439
 3881SOL    HW214790   4.372   2.468   6.072 -0.4034  1.4342 -0.0034
 3882SOL     OW14791   1.082   0.489   1.809  0.2370 -0.1618  0.0379
 3882SOL    HW114792   1.175   0.472   1.796  0.0524 -0.2990 -1.2713
 3882SOL    HW214793   1.039   0.437   1.741 -0.7497  0.3852  0.2313
 3883SOL     OW14794   7.886   7.681   0.236 -0.2148  0.3451 -0.1361
 3883SOL    HW114795   7.967   7.731   0.236  0.7886 -1.1738  1.2497
 3883SOL    HW214796   7.826   7.732   0.290  0.9917 -0.1642  1.7919
 3884SOL     OW14797   1.432   3.564   1.252 -0.4173 -0.0038 -0.5233
 3884SOL    HW114798   1.418   3.551   1.346 -0.2012 -0.4712 -0.5562
 3884SOL    HW214799   1.355   3.526   1.211  0.0151 -0.8115 -0.5955
 3885SOL     OW14800   4.778   6.526   3.560 -0.1029 -0.2936  0.1960
 3885SOL    HW114801   4.714   6.479   3.614 -1.3807 -1.5580 -2.2617
 3885SOL    HW214802   4.744   6.519   3.471  1.2570  2.7523 -0.6858
 3886SOL     OW14803   4.296   7.973   3.235 -0.6020 -0.4240 -0.0041
 3886SOL    HW114804   4.336   8.038   3.294  0.9876 -0.8262 -0.5928
 3886SOL    HW214805   4.357   7.900   3.236 -1.0196 -0.8112 -1.4472
 3887SOL     OW14806   7.818   6.734   7.418 -0.3418  0.5690  0.3710
 3887SOL    HW114807   7.886   6.682   7.377 -0.1167  0.1804  1.2272
 3887SOL    HW214808   7.738   6.712   7.370  0.0951  0.8963 -0.5182
 3888SOL     OW14809   3.853   2.014   7.229 -0.0663  0.1545 -0.4283
 3888SOL    HW114810   3.867   2.050   7.141 -2.6560 -0.1580 -1.0701
 3888SOL    HW214811   3.776   2.060   7.262  1.6538  1.2957  2.3686
 3889SOL     OW14812   2.065   6.471   4.139  0.1675 -0.4405  0.4572
 3889SOL    HW114813   2.032   6.434   4.221  1.1947 -2.6199 -0.0452
 3889SOL    HW214814   2.136   6.413   4.113  1.0641  1.2294 -1.0822
 3890SOL     OW14815   4.844   4.305   2.512 -0.2385  0.9163  0.4470
 3890SOL    HW114816   4.763   4.355   2.506 -0.9318 -0.3306 -1.6175
 3890SOL    HW214817   4.824   4.235   2.574 -1.1979 -0.0990 -0.9556
 3891SOL     OW14818   2.449   1.903   7.800 -0.0634 -0.3984 -0.0756
 3891SOL    HW114819   2.401   1.876   7.878  1.4518  0.2614  1.1348
 3891SOL    HW214820   2.439   1.998   7.797  0.6526 -0.3215 -0.1577
 3892SOL     OW14821   5.059   1.501   1.448  0.3104 -0.2967  0.0762
 3892SOL    HW114822   5.030   1.463   1.530 -0.9354 -1.8360 -1.0136
 3892SOL    HW214823   5.131   1.444   1.419  0.1012 -0.3462 -0.3575
 3893SOL     OW14824   4.021   3.825   0.781  0.3062 -0.0031  0.3966
 3893SOL    HW114825   4.004   3.735   0.808  1.5368  0.0608  1.4754
 3893SOL    HW214826   4.006   3.825   0.686  0.4883 -1.3848  0.3537
 3894SOL     OW14827   4.312   4.307   3.849  0.4209 -0.4593 -0.0971
 3894SOL    HW114828   4.363   4.293   3.929  0.8632 -1.0133 -0.4683
 3894SOL    HW214829   4.353   4.384   3.808  1.2947 -1.1803 -0.6339
 3895SOL     OW14830   1.318   0.688   1.439 -0.3355  0.4045  0.4143
 3895SOL    HW114831   1.341   0.695   1.347 -2.2610 -0.1004 -0.1530
 3895SOL    HW214832   1.387   0.636   1.478  0.5623  0.7267 -0.7119
 3896SOL     OW14833   7.258   4.667   1.873  0.3456  0.5671  0.4178
 3896SOL    HW114834   7.311   4.644   1.796  0.1689  3.0291 -0.5359
 3896SOL    HW214835   7.208   4.744   1.845 -2.6842 -0.7566  1.7610
 3897SOL     OW14836   7.999   5.690   0.180 -0.3599 -0.0675 -0.1545
 3897SOL    HW114837   8.056   5.623   0.217 -0.2953  0.2004  0.2377
 3897SOL    HW214838   8.045   5.722   0.103 -0.8712 -1.2162 -0.9732
 3898SOL     OW14839   7.526   0.324   7.227 -0.2176  0.1126  0.4056
 3898SOL    HW114840   7.502   0.341   7.318  1.7794  1.9380  0.6718
 3898SOL    HW214841   7.620   0.310   7.229 -0.0593  0.6565 -1.4180
 3899SOL     OW14842   7.580   1.811   5.466  0.2672  0.1035 -0.1970
 3899SOL    HW114843   7.606   1.890   5.514 -0.2259  0.0131  0.2234
 3899SOL    HW214844   7.662   1.773   5.436  0.6005  0.0413  0.7626
 3900SOL     OW14845   0.698   2.262   0.106  0.0549 -0.1875 -0.2824
 3900SOL    HW114846   0.722   2.187   0.051  1.5602 -1.0441  1.4159
 3900SOL    HW214847   0.622   2.232   0.156 -0.1705 -0.0862 -0.5634
 3901SOL     OW14848   7.127   2.627   3.042  0.2934 -0.2217  0.5379
 3901SOL    HW114849   7.069   2.576   3.099  0.5389 -0.2221  0.7870
 3901SOL    HW214850   7.098   2.606   2.954  1.2228 -1.7965  0.5688
 3902SOL     OW14851   7.848   6.864   1.144 -0.8144 -0.3162  0.4283
 3902SOL    HW114852   7.835   6.948   1.099 -1.5540 -0.5276  0.2493
 3902SOL    HW214853   7.922   6.881   1.203 -0.8793  0.4278  0.3099
 3903SOL     OW14854   7.369   2.748   5.266 -0.2547  0.4143 -0.1131
 3903SOL    HW114855   7.449   2.749   5.213 -0.6091 -2.1100 -0.7967
 3903SOL    HW214856   7.300   2.776   5.206 -0.6132 -2.1904 -1.0041
 3904SOL     OW14857   0.297   5.772   4.615 -0.0538 -0.1596  0.4251
 3904SOL    HW114858   0.372   5.810   4.661 -0.7770  1.0655  0.6316
 3904SOL    HW214859   0.294   5.818   4.531  0.1518 -1.0804 -0.0951
 3905SOL     OW14860   0.115   3.177   4.094  0.8814  0.5026 -0.2927
 3905SOL    HW114861   0.111   3.257   4.041  0.2096  1.0776  0.5955
 3905SOL    HW214862   0.199   3.182   4.140  1.3464  0.1317 -1.0915
 3906SOL     OW14863   2.301   6.428   6.706  0.8105  0.0154  0.1223
 3906SOL    HW114864   2.211   6.460   6.708  1.2703  1.4309 -0.5078
 3906SOL    HW214865   2.298   6.344   6.752 -0.8739 -0.0957 -0.1472
 3907SOL     OW14866   1.386   4.752   4.744  0.5000 -0.0901 -0.0499
 3907SOL    HW114867   1.322   4.693   4.784 -0.6322  0.3467 -1.1630
 3907SOL    HW214868   1.430   4.793   4.819 -2.3227  1.5341  0.8831
 3908SOL     OW14869   7.261   5.379   2.062  0.1138 -0.1611  0.1563
 3908SOL    HW114870   7.232   5.299   2.106  0.5992 -0.6106 -0.3131
 3908SOL    HW214871   7.347   5.356   2.026  0.1470  0.4920 -0.1982
 3909SOL     OW14872   7.061   1.426   4.389  0.2567  0.2312 -0.5649
 3909SOL    HW114873   7.007   1.482   4.445 -0.9503 -0.3290 -1.1347
 3909SOL    HW214874   7.123   1.486   4.348  2.0249  0.5020  2.2558
 3910SOL     OW14875   0.592   2.277   3.029 -0.2982 -0.0109  0.0740
 3910SOL    HW114876   0.511   2.259   2.981 -0.0575 -1.4124  0.1528
 3910SOL    HW214877   0.639   2.339   2.974 -0.7593 -0.3417 -0.7126
 3911SOL     OW14878   4.411   1.101   2.370  0.7224  0.3730  0.4910
 3911SOL    HW114879   4.325   1.104   2.329  1.0752  2.5461 -0.2558
 3911SOL    HW214880   4.394   1.105   2.464 -0.0303 -2.1778  0.5136
 3912SOL     OW14881   2.171   4.756   6.300 -0.1481 -0.6454 -0.2433
 3912SOL    HW114882   2.266   4.764   6.295 -0.3386  2.3097 -0.6900
 3912SOL    HW214883   2.141   4.765   6.210 -0.9047  0.1455  0.0744
 3913SOL     OW14884   3.708   7.464   2.020  0.4147 -0.2018  0.3302
 3913SOL    HW114885   3.689   7.387   2.074  0.0868  1.4610  2.7957
 3913SOL    HW214886   3.751   7.430   1.942  0.7841 -2.8164  1.5888
 3914SOL     OW14887   1.178   3.209   7.478 -0.1565  0.1992  0.0955
 3914SOL    HW114888   1.144   3.144   7.417  0.8984  0.6218 -0.9835
 3914SOL    HW214889   1.121   3.285   7.465 -0.2563  0.1113  0.0125
 3915SOL     OW14890   4.049   2.867   1.579 -0.1449  0.0366  0.1905
 3915SOL    HW114891   3.953   2.860   1.580 -0.2557  1.2629  0.5647
 3915SOL    HW214892   4.074   2.856   1.671 -0.0814  1.2123  0.3320
 3916SOL     OW14893   3.886   6.533   4.219 -0.0763  0.0625 -0.5793
 3916SOL    HW114894   3.796   6.509   4.197  0.1032  0.0030 -1.2837
 3916SOL    HW214895   3.924   6.453   4.256 -0.5686  0.3416  0.5920
 3917SOL     OW14896   7.169   0.641   3.635  0.3751  0.4761 -0.1889
 3917SOL    HW114897   7.240   0.640   3.699  0.9450 -0.4135 -0.8160
 3917SOL    HW214898   7.090   0.654   3.687  0.8024 -0.4636  0.7283
 3918SOL     OW14899   4.153   2.617   2.613 -0.6268 -0.5215 -0.2713
 3918SOL    HW114900   4.243   2.589   2.631 -0.9538 -1.7478 -0.4764
 3918SOL    HW214901   4.120   2.647   2.697  0.5010  1.5764 -0.5059
 3919SOL     OW14902   3.437   0.879   3.322  0.3337  0.1262  0.0299
 3919SOL    HW114903   3.527   0.848   3.307  1.8207  2.9919  2.0154
 3919SOL    HW214904   3.426   0.950   3.260 -0.8827 -0.6219 -0.6473
 3920SOL     OW14905   1.070   2.657   1.903  0.0832  0.4354  0.3964
 3920SOL    HW114906   1.137   2.707   1.857 -1.1993  2.4373  0.5411
 3920SOL    HW214907   1.106   2.643   1.990  0.7421  0.5052  0.1433
 3921SOL     OW14908   1.991   1.111   1.876  0.4046  0.5072 -0.0609
 3921SOL    HW114909   2.079   1.098   1.913  0.5645 -2.2813 -1.1938
 3921SOL    HW214910   2.005   1.118   1.782 -0.5680 -0.1520 -0.2748
 3922SOL     OW14911   0.804   7.461   5.520 -0.3974  0.1637 -0.1948
 3922SOL    HW114912   0.810   7.368   5.501 -0.2735 -0.1549  1.2620
 3922SOL    HW214913   0.711   7.482   5.513 -0.3788  0.0362 -0.9106
 3923SOL     OW14914   1.207   3.577   1.847 -0.6152  0.1435 -0.0845
 3923SOL    HW114915   1.117   3.548   1.863 -0.4469  0.5263  1.8155
 3923SOL    HW214916   1.203   3.672   1.856 -0.1134  0.2087 -0.5271
 3924SOL     OW14917   3.268   3.395   5.633 -0.0165  0.4183  0.2673
 3924SOL    HW114918   3.194   3.389   5.694 -0.1822  1.5891  0.1985
 3924SOL    HW214919   3.324   3.321   5.658 -1.0156 -0.2820  0.5565
 3925SOL     OW14920   7.228   7.442   4.982  0.3084 -1.3841  0.1676
 3925SOL    HW114921   7.220   7.427   4.888  0.2413 -3.5765  0.4745
 3925SOL    HW214922   7.322   7.440   4.999  0.8493  3.9513 -0.4472
 3926SOL     OW14923   7.470   2.211   2.129  0.6905  0.2975  0.1208
 3926SOL    HW114924   7.475   2.124   2.170  1.0609 -0.3009 -1.1349
 3926SOL    HW214925   7.404   2.258   2.181  0.3559 -0.7901  0.7198
 3927SOL     OW14926   7.511   5.168   2.192 -0.0200 -0.5705 -0.1101
 3927SOL    HW114927   7.449   5.101   2.164 -0.8962  0.0893  0.1740
 3927SOL    HW214928   7.474   5.201   2.275 -0.2935  1.0830 -0.8476
 3928SOL     OW14929   7.909   1.625   6.142  0.0718  0.2028 -0.2338
 3928SOL    HW114930   7.843   1.558   6.129 -0.2480  0.6742 -1.1013
 3928SOL    HW214931   7.863   1.696   6.186  0.1115  0.3425 -0.4162
 3929SOL     OW14932   3.350   5.709   7.883 -0.0073  0.0151 -0.4387
 3929SOL    HW114933   3.400   5.788   7.861  0.5877 -0.7906 -2.1233
 3929SOL    HW214934   3.407   5.661   7.942  0.8867 -0.4826 -1.6675
 3930SOL     OW14935   6.335   7.274   3.264 -0.5317 -0.5464  0.0407
 3930SOL    HW114936   6.360   7.286   3.172 -1.2275 -3.8018 -0.7115
 3930SOL    HW214937   6.302   7.359   3.291  0.8139  0.8643 -2.3258
 3931SOL     OW14938   0.105   7.347   1.860  0.1225  0.1130  0.0276
 3931SOL    HW114939   0.021   7.376   1.824  0.0883  0.7946  0.6371
 3931SOL    HW214940   0.164   7.345   1.785 -0.9432 -2.4550 -0.8247
 3932SOL     OW14941   3.792   0.364   6.149  0.2725 -0.1804  0.4057
 3932SOL    HW114942   3.747   0.296   6.199 -0.6536 -0.5730 -0.9156
 3932SOL    HW214943   3.735   0.441   6.157  0.8192  0.1630  1.0773
 3933SOL     OW14944   0.772   6.966   7.491 -0.4070 -0.1279 -0.9052
 3933SOL    HW114945   0.719   7.037   7.527  0.4120  0.1331 -0.1781
 3933SOL    HW214946   0.744   6.888   7.540 -0.4449 -0.0771 -0.8464
 3934SOL     OW14947   0.565   5.134   5.908  0.1714  0.0666  0.0741
 3934SOL    HW114948   0.555   5.211   5.852 -0.4732 -1.4206 -1.9607
 3934SOL    HW214949   0.562   5.169   5.997 -3.1543  2.1119 -0.6620
 3935SOL     OW14950   3.098   7.448   4.228 -0.3874 -0.3181 -0.7114
 3935SOL    HW114951   3.072   7.416   4.315 -0.2462 -1.1384 -0.9593
 3935SOL    HW214952   3.025   7.423   4.171 -0.5471  0.3523 -0.8054
 3936SOL     OW14953   3.085   1.461   0.032 -0.4309 -0.1629  0.6013
 3936SOL    HW114954   3.144   1.469  -0.043 -1.6729 -0.2217 -0.4214
 3936SOL    HW214955   3.011   1.410  -0.001 -1.3380  0.4068  1.6819
 3937SOL     OW14956   0.600   1.756   0.486 -0.0032  0.3249 -0.0659
 3937SOL    HW114957   0.518   1.805   0.499  0.8948  1.8476  0.1553
 3937SOL    HW214958   0.612   1.756   0.391  0.1147  0.7903 -0.0566
 3938SOL     OW14959   2.554   2.442   3.349 -0.5167  0.0889  0.4284
 3938SOL    HW114960   2.584   2.392   3.425  2.4213  0.6828 -0.2038
 3938SOL    HW214961   2.543   2.531   3.381 -1.5445 -0.0976  0.6238
 3939SOL     OW14962   5.650   7.686   7.493  0.8666 -0.3898 -0.2924
 3939SOL    HW114963   5.688   7.759   7.542  0.4450  0.4502 -1.1950
 3939SOL    HW214964   5.555   7.698   7.502  0.7940 -0.6620 -0.6913
 3940SOL     OW14965   2.639   6.432   3.378 -0.1517  0.3792 -0.1162
 3940SOL    HW114966   2.579   6.400   3.311  0.1064  1.6697 -0.9928
 3940SOL    HW214967   2.585   6.485   3.436 -1.0686 -3.2145  2.6676
 3941SOL     OW14968   3.776   7.030   0.001 -0.1558  0.5808  0.6063
 3941SOL    HW114969   3.748   6.948   0.043  0.0736 -1.3332 -2.6127
 3941SOL    HW214970   3.733   7.099   0.051 -3.4242 -1.7243  1.2923
 3942SOL     OW14971   4.153   2.931   7.024  0.4210 -0.1724  0.4959
 3942SOL    HW114972   4.202   2.915   7.105 -0.3274  0.7509  1.1461
 3942SOL    HW214973   4.203   2.998   6.978 -0.1287  0.6684  1.0942
 3943SOL     OW14974   2.886   6.488   5.631 -0.4778 -0.0794 -0.2723
 3943SOL    HW114975   2.811   6.475   5.689 -0.7213  0.3519 -0.4893
 3943SOL    HW214976   2.958   6.510   5.690  0.0112 -2.4862  0.1455
 3944SOL     OW14977   5.656   6.924   4.409 -0.2644 -0.0341  0.5905
 3944SOL    HW114978   5.646   6.830   4.425  1.5986 -0.2831  0.5265
 3944SOL    HW214979   5.570   6.961   4.429 -1.5102 -1.9273 -0.8363
 3945SOL     OW14980   4.089   2.970   1.337  0.2598  0.4901  0.2406
 3945SOL    HW114981   4.050   2.925   1.412  1.2394  0.0848  0.5327
 3945SOL    HW214982   4.108   2.900   1.274  0.6042  0.6557  0.1562
 3946SOL     OW14983   2.344   1.128   6.563 -0.2758  0.3693 -0.6941
 3946SOL    HW114984   2.316   1.175   6.642 -1.2426 -0.2470 -0.6604
 3946SOL    HW214985   2.263   1.102   6.520  0.2477  0.0973 -1.5429
 3947SOL     OW14986   2.015   6.747   4.136 -0.4937 -0.3471  0.1158
 3947SOL    HW114987   2.035   6.656   4.114  0.6272 -0.2280  0.6102
 3947SOL    HW214988   2.099   6.793   4.131 -0.8884  0.4796  0.7711
 3948SOL     OW14989   6.542   0.730   4.446  0.1417 -0.5270  0.1479
 3948SOL    HW114990   6.614   0.757   4.503  0.6691  2.4749 -1.7000
 3948SOL    HW214991   6.580   0.732   4.358 -1.0270 -3.5754 -0.5436
 3949SOL     OW14992   5.972   0.442   4.218  0.1803 -0.8017  0.2718
 3949SOL    HW114993   5.935   0.528   4.197  1.5588 -0.3769 -0.5658
 3949SOL    HW214994   5.909   0.403   4.279 -0.6807  0.6207  0.3431
 3950SOL     OW14995   4.933   6.292   4.677 -0.0660 -0.0810  0.1176
 3950SOL    HW114996   5.002   6.357   4.665 -0.2090  0.3811  1.5351
 3950SOL    HW214997   4.864   6.339   4.725 -0.3217 -1.1690  0.8701
 3951SOL     OW14998   1.966   8.071   4.993  0.1132  0.2094 -0.0877
 3951SOL    HW114999   1.962   8.060   4.898  0.0076  0.2318 -0.0856
 3951SOL    HW215000   1.886   8.118   5.016 -0.7489 -1.3552  0.2262
 3952SOL     OW15001   5.566   5.621   6.807  0.2523  0.5101  0.2926
 3952SOL    HW115002   5.552   5.533   6.775 -1.3007  1.0296 -0.5569
 3952SOL    HW215003   5.521   5.623   6.892 -0.9271  0.8619 -0.3258
 3953SOL     OW15004   0.068   0.307   6.294 -0.0225 -0.0364 -0.0486
 3953SOL    HW115005   0.009   0.238   6.262  0.3277 -1.5166  2.2611
 3953SOL    HW215006   0.149   0.292   6.246 -1.1145  1.4644 -2.6037
 3954SOL     OW15007   7.861   4.777   4.475 -0.2856 -0.6727 -0.5904
 3954SOL    HW115008   7.939   4.724   4.460  0.5998  0.7129 -0.9804
 3954SOL    HW215009   7.887   4.840   4.542 -2.3056 -2.7455  2.4746
 3955SOL     OW15010   4.647   4.167   0.355 -0.0249  0.0418 -0.2963
 3955SOL    HW115011   4.581   4.227   0.321 -1.7676  0.1020  2.7636
 3955SOL    HW215012   4.617   4.080   0.329 -0.1189  0.2022 -0.7256
 3956SOL     OW15013   7.237   4.796   5.498  0.3021  0.1212 -0.6586
 3956SOL    HW115014   7.332   4.790   5.487  0.3163 -0.3251 -0.3372
 3956SOL    HW215015   7.216   4.726   5.560  0.0137  1.3926  0.7499
 3957SOL     OW15016   0.261   6.823   2.743  0.0692 -0.0065  0.0122
 3957SOL    HW115017   0.336   6.804   2.686  0.4241  0.0863  0.4433
 3957SOL    HW215018   0.188   6.835   2.683 -0.0550 -2.1104 -0.3215
 3958SOL     OW15019   4.254   0.269   6.749  0.3039 -0.3379 -0.3793
 3958SOL    HW115020   4.220   0.357   6.766 -0.7105 -0.0595 -3.3520
 3958SOL    HW215021   4.208   0.213   6.812 -1.5975  0.8149 -0.6755
 3959SOL     OW15022   7.402   0.032   5.893  0.9365 -0.4780  0.3755
 3959SOL    HW115023   7.480   0.040   5.838  0.7156 -0.1491  0.1021
 3959SOL    HW215024   7.357   0.115   5.883 -0.5985 -1.4254 -1.2611
 3960SOL     OW15025   2.501   5.230   5.727  0.3855 -0.6337  0.2935
 3960SOL    HW115026   2.461   5.144   5.738 -0.6056 -0.2648 -0.3599
 3960SOL    HW215027   2.507   5.242   5.633  0.6867 -0.0627  0.3816
 3961SOL     OW15028   7.214   5.898   4.918  0.2740 -0.5794 -0.4889
 3961SOL    HW115029   7.283   5.883   4.853  0.5479 -0.5157 -0.2136
 3961SOL    HW215030   7.196   5.992   4.914  0.0581 -0.6277 -0.7033
 3962SOL     OW15031   2.084   2.448   3.305  0.3463 -0.1415  0.3061
 3962SOL    HW115032   2.138   2.407   3.238  1.6020  0.6212  0.8244
 3962SOL    HW215033   1.999   2.462   3.262  0.9965 -0.0399 -0.9773
 3963SOL     OW15034   7.427   5.931   2.476  0.1599  0.1109 -0.2252
 3963SOL    HW115035   7.424   5.976   2.392 -3.4191  1.0431  0.2378
 3963SOL    HW215036   7.389   5.993   2.538  0.7081 -1.3497  1.6807
 3964SOL     OW15037   3.188   2.018   1.161  0.4544  0.5100  0.1103
 3964SOL    HW115038   3.161   1.945   1.218  0.4066  1.5758  1.4970
 3964SOL    HW215039   3.107   2.066   1.144  0.4506  0.1403 -0.9813
 3965SOL     OW15040   3.909   3.800   0.525  0.2040  0.1472  0.5009
 3965SOL    HW115041   3.847   3.728   0.514  0.8482 -0.0183 -4.0926
 3965SOL    HW215042   3.867   3.875   0.483  1.4165  1.2138  1.1063
 3966SOL     OW15043   2.043   6.044   3.532 -0.3823 -0.3415  0.1659
 3966SOL    HW115044   2.117   6.073   3.584 -0.1203 -0.2865 -0.2347
 3966SOL    HW215045   1.974   6.108   3.550  0.1695  0.5172 -0.6708
 3967SOL     OW15046   2.821   6.814   4.935  0.5390 -0.2033  0.2116
 3967SOL    HW115047   2.755   6.845   4.873  1.1222 -0.1529 -0.3960
 3967SOL    HW215048   2.783   6.832   5.021  0.2504  0.8591 -0.1263
 3968SOL     OW15049   7.387   0.910   6.802 -0.7070  0.1382 -0.1470
 3968SOL    HW115050   7.464   0.957   6.772 -1.6548  2.5075  0.9303
 3968SOL    HW215051   7.320   0.929   6.736 -0.9561 -0.2189 -0.0029
 3969SOL     OW15052   3.312   4.551   0.805  0.5032  0.3541 -0.0821
 3969SOL    HW115053   3.376   4.570   0.874  1.2915 -0.4012 -0.5883
 3969SOL    HW215054   3.309   4.455   0.801 -1.9267  0.2939  1.0888
 3970SOL     OW15055   2.781   2.787   1.081 -0.3055 -0.2248  0.1932
 3970SOL    HW115056   2.822   2.842   1.149 -1.6627 -0.8041  1.5324
 3970SOL    HW215057   2.739   2.850   1.022 -1.5941  0.2299  1.5469
 3971SOL     OW15058   6.569   3.499   4.990  0.2363 -0.1163 -0.5959
 3971SOL    HW115059   6.655   3.534   5.015  0.7851 -2.4212  1.0699
 3971SOL    HW215060   6.585   3.406   4.974 -2.3282 -1.1322  2.0335
 3972SOL     OW15061   6.971   4.337   6.182  0.3458 -0.4481  0.4573
 3972SOL    HW115062   6.976   4.290   6.266  1.8050 -0.5968  0.3022
 3972SOL    HW215063   7.059   4.372   6.168  0.0674 -0.2406 -0.9182
 3973SOL     OW15064   2.529   5.537   4.916  0.5952 -0.1910  0.5419
 3973SOL    HW115065   2.450   5.570   4.959  0.4985  0.6549 -0.2621
 3973SOL    HW215066   2.600   5.589   4.952  0.8072 -0.9540  1.2668
 3974SOL     OW15067   5.009   6.954   2.476  0.1657 -0.2218  0.4231
 3974SOL    HW115068   4.997   6.928   2.385  0.5305 -0.2585  0.3815
 3974SOL    HW215069   5.024   6.871   2.522  0.8871 -0.1354  0.3630
 3975SOL     OW15070   7.117   3.442   1.498  0.3022 -0.0073 -0.0774
 3975SOL    HW115071   7.113   3.351   1.469  0.5552 -0.2341  0.5960
 3975SOL    HW215072   7.065   3.490   1.433  0.0663 -0.6456 -0.3634
 3976SOL     OW15073   5.680   5.379   5.382  0.0664 -0.0420  0.2313
 3976SOL    HW115074   5.775   5.369   5.377  0.0162 -0.4778  0.1015
 3976SOL    HW215075   5.665   5.426   5.463  0.3899 -0.0347  0.2895
 3977SOL     OW15076   7.348   6.040   4.258 -0.7777 -0.2585  0.3924
 3977SOL    HW115077   7.405   6.110   4.292 -0.1699 -1.1702  1.2958
 3977SOL    HW215078   7.366   5.965   4.314 -1.9273 -0.9556 -0.1374
 3978SOL     OW15079   6.933   0.248   3.188  0.6766 -0.1261  0.3143
 3978SOL    HW115080   7.006   0.307   3.172  0.6805  0.5723  2.5439
 3978SOL    HW215081   6.859   0.288   3.141  1.4093 -0.1718 -0.9151
 3979SOL     OW15082   0.628   4.529   2.556 -0.9907  0.3440  0.3858
 3979SOL    HW115083   0.605   4.531   2.463 -0.2226  0.8442  0.2011
 3979SOL    HW215084   0.556   4.480   2.597 -0.9338 -0.5982 -0.5810
 3980SOL     OW15085   1.839   7.547   1.199  0.1943  0.2539 -0.2887
 3980SOL    HW115086   1.834   7.515   1.109  0.3588  1.2566 -0.6731
 3980SOL    HW215087   1.751   7.534   1.234 -0.6150  2.1706 -1.4405
 3981SOL     OW15088   2.322   3.821   4.645 -0.5308 -0.1037 -0.0504
 3981SOL    HW115089   2.388   3.752   4.635 -0.1984  0.1183  0.5064
 3981SOL    HW215090   2.337   3.854   4.734 -1.2258  0.1262 -0.0184
 3982SOL     OW15091   6.805   8.061   6.554 -0.3699  0.4872 -0.5034
 3982SOL    HW115092   6.797   8.140   6.501  0.5307  0.7266 -0.2996
 3982SOL    HW215093   6.715   8.040   6.581 -0.6078  1.4531 -0.5322
 3983SOL     OW15094   3.075   5.220   6.854 -0.1902 -0.0819 -1.5366
 3983SOL    HW115095   3.156   5.181   6.821 -0.5328 -1.7811 -0.4648
 3983SOL    HW215096   3.006   5.171   6.809 -0.6965  1.8280 -2.9977
 3984SOL     OW15097   3.847   4.467   7.056  0.2931 -0.1718 -0.3290
 3984SOL    HW115098   3.775   4.469   7.119  0.9096 -0.3458  0.3934
 3984SOL    HW215099   3.809   4.503   6.975 -0.6634 -0.4979 -0.0362
 3985SOL     OW15100   4.492   1.573   2.057 -0.7121 -0.1200 -0.6566
 3985SOL    HW115101   4.572   1.623   2.070 -1.5514  1.2953 -0.6728
 3985SOL    HW215102   4.508   1.489   2.099  0.9757 -0.0902 -1.1677
 3986SOL     OW15103   1.933   1.773   1.285  0.5446 -0.3069  0.3574
 3986SOL    HW115104   1.989   1.715   1.337 -0.3823 -2.2265 -0.6869
 3986SOL    HW215105   1.913   1.723   1.206  0.5270  1.8631 -1.1182
 3987SOL     OW15106   6.178   4.228   2.777 -0.1574 -0.0364  0.5213
 3987SOL    HW115107   6.111   4.205   2.842 -0.6548 -0.6656 -0.1999
 3987SOL    HW215108   6.149   4.186   2.696  0.0460  1.3923 -0.3227
 3988SOL     OW15109   7.989   3.033   2.496  0.1396 -0.0468 -0.0722
 3988SOL    HW115110   7.907   3.079   2.513 -0.2676 -0.0336 -1.8775
 3988SOL    HW215111   7.980   2.950   2.541 -0.0583  0.7077  1.3306
 3989SOL     OW15112   0.153   1.698   3.269 -0.2636 -0.3714  0.3270
 3989SOL    HW115113   0.186   1.787   3.281  1.0134 -0.7802 -0.0337
 3989SOL    HW215114   0.066   1.710   3.231  0.5101  0.7064 -1.2010
 3990SOL     OW15115   2.302   7.965   4.012  0.6704 -0.3059  0.5098
 3990SOL    HW115116   2.286   8.058   4.000 -2.6646 -0.8402 -0.1670
 3990SOL    HW215117   2.275   7.924   3.930 -1.7657 -2.1288  2.0503
 3991SOL     OW15118   7.823   3.451   4.898  0.2101  0.3000 -0.8451
 3991SOL    HW115119   7.890   3.448   4.967  1.1017  1.0654 -1.6553
 3991SOL    HW215120   7.812   3.359   4.872  0.4378  0.0915 -0.2383
 3992SOL     OW15121   1.844   8.037   4.249 -0.2763 -0.1157  0.1910
 3992SOL    HW115122   1.853   8.022   4.343  4.4107 -0.2622 -0.0610
 3992SOL    HW215123   1.867   8.129   4.237 -0.4383 -0.1937 -0.8271
 3993SOL     OW15124   4.897   3.095   3.252 -0.3343  0.7321  0.5795
 3993SOL    HW115125   4.816   3.113   3.205 -0.7574  1.6302  1.6296
 3993SOL    HW215126   4.871   3.043   3.328  0.3803 -0.9278 -0.2516
 3994SOL     OW15127   3.974   7.642   7.712 -0.4441 -0.0154 -0.0893
 3994SOL    HW115128   3.947   7.633   7.803  0.4410 -2.0009  0.0333
 3994SOL    HW215129   4.069   7.629   7.713 -0.2280  1.2119 -1.1663
 3995SOL     OW15130   1.737   1.440   0.742  0.0007 -0.0781 -0.4804
 3995SOL    HW115131   1.748   1.355   0.784  0.9784  0.5836  0.6527
 3995SOL    HW215132   1.825   1.478   0.740 -0.5380  1.2671 -0.1608
 3996SOL     OW15133   7.263   4.994   3.508 -0.2123 -0.0554 -0.1909
 3996SOL    HW115134   7.229   4.904   3.505 -2.4723  0.6854  0.7204
 3996SOL    HW215135   7.311   4.999   3.591  0.2736 -0.5285 -0.4421
 3997SOL     OW15136   4.472   3.051   6.777  0.1248 -0.2711 -0.1834
 3997SOL    HW115137   4.566   3.066   6.776  0.0590  0.1624 -1.8129
 3997SOL    HW215138   4.437   3.125   6.826  0.6786 -1.0197  1.4406
 3998SOL     OW15139   7.996   7.472   6.047  0.0441 -0.3449 -0.4164
 3998SOL    HW115140   8.081   7.436   6.071  0.1981 -0.4217 -1.0377
 3998SOL    HW215141   7.932   7.419   6.094  0.3507 -0.0130  0.3919
 3999SOL     OW15142   3.452   4.704   5.599  0.1507  0.9252 -0.6371
 3999SOL    HW115143   3.503   4.624   5.611  0.8861  1.6151  1.2377
 3999SOL    HW215144   3.449   4.716   5.504 -1.2896 -2.0975 -1.1160
 4000SOL     OW15145   5.225   3.528   4.100  0.4678  0.9165 -0.1958
 4000SOL    HW115146   5.256   3.593   4.162 -0.2653 -0.7659  2.0548
 4000SOL    HW215147   5.179   3.464   4.153  0.5469 -1.0901 -2.3846
 4001SOL     OW15148   7.504   2.409   7.613  0.0932 -0.4897  0.4626
 4001SOL    HW115149   7.546   2.492   7.593  1.8665 -2.1094 -3.5748
 4001SOL    HW215150   7.563   2.366   7.675  1.1511 -0.1969 -0.3171
 4002SOL     OW15151   7.204   1.201   7.481  0.6850  0.7359 -0.2720
 4002SOL    HW115152   7.193   1.242   7.568 -0.0724 -0.1099  0.0433
 4002SOL    HW215153   7.174   1.111   7.493  0.6725  0.5809 -1.3965
 4003SOL     OW15154   7.664   4.801   1.116 -0.2071 -0.1377  0.1735
 4003SOL    HW115155   7.628   4.807   1.028 -1.0014 -1.8046  0.3637
 4003SOL    HW215156   7.589   4.785   1.172 -0.0783  3.1961  1.5570
 4004SOL     OW15157   0.280   7.428   2.724  0.1140 -0.2940 -0.2165
 4004SOL    HW115158   0.252   7.421   2.815  0.3189  1.2235 -0.0106
 4004SOL    HW215159   0.270   7.340   2.688  0.2384 -0.9584  1.3316
 4005SOL     OW15160   7.088   4.616   7.602 -0.2923  0.4624  0.0071
 4005SOL    HW115161   7.138   4.697   7.617 -0.9456  0.7583  0.7242
 4005SOL    HW215162   7.104   4.594   7.511 -1.9104  2.7125 -0.9321
 4006SOL     OW15163   3.071   0.490   2.641 -0.5586 -0.2202  0.6222
 4006SOL    HW115164   3.094   0.403   2.675  0.2824 -0.5004 -0.5936
 4006SOL    HW215165   3.138   0.509   2.577 -0.8777  1.2451  0.6837
 4007SOL     OW15166   4.847   2.111   2.166 -0.3542  0.2890 -0.2939
 4007SOL    HW115167   4.921   2.171   2.162 -0.2778  0.2946  0.8629
 4007SOL    HW215168   4.782   2.158   2.218 -1.2404  0.3414 -1.4005
 4008SOL     OW15169   5.898   2.245   1.639  0.1454 -0.4998  0.6360
 4008SOL    HW115170   5.987   2.242   1.673  0.7968 -0.3065 -0.9287
 4008SOL    HW215171   5.870   2.335   1.654 -0.3369 -0.9163  2.3835
 4009SOL     OW15172   1.650   0.824   1.264  0.1301  0.1989  0.1424
 4009SOL    HW115173   1.735   0.821   1.219  0.0092  0.1169 -0.0808
 4009SOL    HW215174   1.655   0.903   1.319  1.6818 -1.5669  2.7882
 4010SOL     OW15175   5.638   0.289   6.975  0.3547  0.0197  0.6385
 4010SOL    HW115176   5.549   0.293   6.938  0.4679  1.8521  0.4694
 4010SOL    HW215177   5.625   0.306   7.069  0.5179  0.1626  0.6347
 4011SOL     OW15178   7.317   5.043   5.682 -0.2393 -0.1872  0.0965
 4011SOL    HW115179   7.328   5.131   5.719 -0.9553  1.1215 -2.5737
 4011SOL    HW215180   7.340   5.052   5.590 -1.9181 -2.4275 -0.6327
 4012SOL     OW15181   2.107   1.336   5.386 -0.5607  0.1176  0.2111
 4012SOL    HW115182   2.192   1.309   5.422 -0.2382  0.9078  0.0732
 4012SOL    HW215183   2.078   1.406   5.444 -0.4595  0.7889 -0.5356
 4013SOL     OW15184   7.541   6.106   2.826  0.2869  0.0476  0.7318
 4013SOL    HW115185   7.618   6.092   2.771 -0.3214 -1.5230  0.2197
 4013SOL    HW215186   7.467   6.108   2.765 -0.2246  0.0079  1.3314
 4014SOL     OW15187   0.922   6.360   4.832 -0.5271 -0.0496 -0.1518
 4014SOL    HW115188   0.891   6.355   4.741 -0.6199 -3.1447 -0.0687
 4014SOL    HW215189   0.972   6.280   4.845 -1.2886 -0.1758  2.7929
 4015SOL     OW15190   2.413   4.690   4.376  0.3660  0.0202  0.7992
 4015SOL    HW115191   2.487   4.634   4.354 -0.1029 -0.7971  1.2652
 4015SOL    HW215192   2.336   4.635   4.358 -0.1443  0.9555  0.0222
 4016SOL     OW15193   6.645   5.111   4.210 -0.3028  0.1367 -0.5738
 4016SOL    HW115194   6.614   5.126   4.121 -2.1704 -0.7051 -0.1257
 4016SOL    HW215195   6.667   5.017   4.212  1.6054  0.5388 -0.6395
 4017SOL     OW15196   7.501   1.501   4.343  0.2829 -0.7554  0.0105
 4017SOL    HW115197   7.440   1.429   4.363  0.3561 -0.6222  0.7288
 4017SOL    HW215198   7.529   1.533   4.428  0.6143 -0.1728 -0.3139
 4018SOL     OW15199   4.018   0.187   5.286  0.4424 -1.0944  0.6245
 4018SOL    HW115200   4.063   0.158   5.207  0.1159  0.7863 -0.3106
 4018SOL    HW215201   4.089   0.219   5.343  0.4299  2.5932 -1.1561
 4019SOL     OW15202   2.371   7.469   3.334  0.5449 -0.6380 -0.0050
 4019SOL    HW115203   2.312   7.536   3.298  0.4938  0.1256  1.4052
 4019SOL    HW215204   2.393   7.414   3.259 -1.6941 -0.7634 -0.6595
 4020SOL     OW15205   1.391   6.503   2.995 -0.4403 -0.2573 -0.6717
 4020SOL    HW115206   1.412   6.421   2.950  1.1590 -0.5181  0.4901
 4020SOL    HW215207   1.452   6.567   2.958  0.8384 -0.4524  0.9830
 4021SOL     OW15208   4.952   7.080   3.449  0.2432 -0.0416 -0.2419
 4021SOL    HW115209   5.039   7.096   3.485 -0.2193  1.1861  0.3950
 4021SOL    HW215210   4.968   7.055   3.358  1.2567  0.3392 -0.1825
 4022SOL     OW15211   3.888   6.864   6.117 -0.2913 -0.1070 -0.1516
 4022SOL    HW115212   3.806   6.890   6.159  0.1909 -0.5584  1.1270
 4022SOL    HW215213   3.876   6.771   6.097 -0.2645 -0.0585 -0.3927
 4023SOL     OW15214   4.879   2.090   3.946 -0.1342  0.0955  0.1898
 4023SOL    HW115215   4.940   2.017   3.948  1.9170  1.6424 -1.1741
 4023SOL    HW215216   4.932   2.166   3.973 -2.0320  1.1873  1.0764
 4024SOL     OW15217   1.935   1.592   2.667 -0.4227 -0.2031  0.3188
 4024SOL    HW115218   2.005   1.528   2.682 -0.8249 -0.6091  0.4931
 4024SOL    HW215219   1.942   1.614   2.574  1.1817  1.2448  0.7329
 4025SOL     OW15220   1.980   0.130   7.147 -0.3422  0.3151 -0.0017
 4025SOL    HW115221   1.972   0.207   7.091 -2.7365  0.8321  0.9226
 4025SOL    HW215222   2.004   0.059   7.087  1.8106  1.7085 -0.8722
 4026SOL     OW15223   4.459   6.931   7.420 -0.2479  0.0848 -0.1791
 4026SOL    HW115224   4.421   6.897   7.501 -1.6426 -0.2368 -0.9329
 4026SOL    HW215225   4.536   6.979   7.449 -0.4395 -0.4188  1.2959
 4027SOL     OW15226   3.183   3.085   4.914 -0.3588  0.3673  0.7452
 4027SOL    HW115227   3.181   2.993   4.940  0.6146 -0.2915 -1.2778
 4027SOL    HW215228   3.092   3.114   4.920 -1.1732 -1.5256 -1.0698
 4028SOL     OW15229   4.255   8.025   4.623 -0.6766 -0.6073 -0.8820
 4028SOL    HW115230   4.212   8.020   4.708 -1.7668  1.1010 -1.2839
 4028SOL    HW215231   4.224   8.107   4.585  1.0428 -0.5256 -2.2553
 4029SOL     OW15232   6.905   4.285   2.700 -0.3117 -0.4265  0.0497
 4029SOL    HW115233   6.968   4.224   2.662  0.8036  0.8814 -0.2823
 4029SOL    HW215234   6.867   4.331   2.625 -0.4167 -0.0448  0.3305
 4030SOL     OW15235   5.696   4.758   5.215 -0.4491  0.0601  0.1234
 4030SOL    HW115236   5.699   4.854   5.211  0.4466  0.0238 -0.6012
 4030SOL    HW215237   5.656   4.738   5.299 -1.6917  1.0751 -0.1990
 4031SOL     OW15238   5.923   7.997   3.398  0.1438 -0.3658 -0.3835
 4031SOL    HW115239   5.987   7.971   3.464 -0.8508 -1.9190  0.0422
 4031SOL    HW215240   5.967   8.063   3.345  1.8548 -0.9421  0.2746
 4032SOL     OW15241   3.657   7.116   2.865  0.3491 -0.2761 -0.7973
 4032SOL    HW115242   3.604   7.126   2.945  0.3443 -1.7366 -0.5950
 4032SOL    HW215243   3.598   7.075   2.802  0.1237  1.5153 -1.8464
 4033SOL     OW15244   5.869   1.937   3.868 -0.0167  0.5799 -0.0302
 4033SOL    HW115245   5.941   1.980   3.822  0.6890 -1.4180 -0.8560
 4033SOL    HW215246   5.830   1.878   3.804 -0.6161 -0.4314  1.2272
 4034SOL     OW15247   5.690   2.325   7.863 -0.5365 -0.1364 -0.2940
 4034SOL    HW115248   5.613   2.334   7.918 -0.4678 -0.2438 -0.1807
 4034SOL    HW215249   5.756   2.286   7.920 -0.4358 -0.1579 -0.4246
 4035SOL     OW15250   6.893   4.801   5.698 -0.0574  0.0682  0.2624
 4035SOL    HW115251   6.900   4.881   5.751 -1.7611  1.3082 -1.2690
 4035SOL    HW215252   6.910   4.830   5.608  0.5344 -1.5553 -0.1746
 4036SOL     OW15253   3.436   3.117   4.812 -0.3053 -0.1275  0.1509
 4036SOL    HW115254   3.452   3.025   4.790 -0.9645  0.1457 -1.7109
 4036SOL    HW215255   3.348   3.117   4.848 -0.3854 -0.2072 -0.0409
 4037SOL     OW15256   2.901   6.516   6.309 -0.2138 -0.5133 -0.0430
 4037SOL    HW115257   2.849   6.436   6.305 -0.1388 -0.5393 -0.7497
 4037SOL    HW215258   2.991   6.486   6.320 -0.1342 -0.5499 -0.7580
 4038SOL     OW15259   6.375   3.001   2.132 -0.3957  0.0715  0.2942
 4038SOL    HW115260   6.359   3.094   2.116  0.5475 -0.1662 -2.4477
 4038SOL    HW215261   6.470   2.995   2.141 -0.2757 -0.8228 -1.3158
 4039SOL     OW15262   5.077   6.941   7.618 -0.2770  0.3166  0.2082
 4039SOL    HW115263   5.112   7.019   7.660  2.1096 -0.2659 -0.5554
 4039SOL    HW215264   5.114   6.868   7.668 -1.8175 -0.3540  0.4124
 4040SOL     OW15265   1.655   5.601   5.692  0.0245 -0.1323  0.0028
 4040SOL    HW115266   1.592   5.651   5.744  0.5642  0.7054 -0.1135
 4040SOL    HW215267   1.622   5.606   5.603 -0.1329 -0.3157  0.0519
 4041SOL     OW15268   0.797   5.639   3.572 -0.1749 -0.1689  1.2025
 4041SOL    HW115269   0.818   5.730   3.592  1.0651  0.1060 -1.0808
 4041SOL    HW215270   0.868   5.609   3.516 -2.7698 -1.0919 -1.8833
 4042SOL     OW15271   6.628   2.713   5.221 -0.2637 -0.1183 -0.4664
 4042SOL    HW115272   6.585   2.783   5.271 -0.6736 -1.3820  1.0286
 4042SOL    HW215273   6.595   2.632   5.260  1.6719 -1.1553 -0.8493
 4043SOL     OW15274   5.211   0.246   2.634 -0.0077  0.6539  0.3268
 4043SOL    HW115275   5.252   0.215   2.715 -0.1311  0.4789  0.3232
 4043SOL    HW215276   5.160   0.323   2.660  0.1480  0.7422  0.3708
 4044SOL     OW15277   0.557   1.702   7.644  0.2067  0.2391  0.3905
 4044SOL    HW115278   0.619   1.767   7.676  0.3545  0.4047 -0.2296
 4044SOL    HW215279   0.610   1.624   7.626 -0.0409 -0.2243  1.5961
 4045SOL     OW15280   7.666   3.425   8.035 -0.0800 -0.3811 -0.1426
 4045SOL    HW115281   7.654   3.356   8.100 -1.0736 -0.4083 -0.3442
 4045SOL    HW215282   7.609   3.496   8.063 -1.0502 -0.6529 -1.3243
 4046SOL     OW15283   7.138   6.946   7.900 -0.4853 -0.4582  0.4697
 4046SOL    HW115284   7.148   6.851   7.898 -0.5254 -0.4479 -1.3944
 4046SOL    HW215285   7.059   6.964   7.850 -0.2105  0.5846  0.3761
 4047SOL     OW15286   1.551   3.280   7.737  0.6914  0.2462  0.5103
 4047SOL    HW115287   1.562   3.281   7.832  0.2803  1.0799  0.5583
 4047SOL    HW215288   1.459   3.303   7.724  1.2903  2.5534 -0.1389
 4048SOL     OW15289   6.384   7.049   3.404  0.0690 -0.0725  0.2163
 4048SOL    HW115290   6.359   6.976   3.348  2.3996 -0.7055 -0.1330
 4048SOL    HW215291   6.373   7.127   3.349 -0.0674 -0.4296 -0.2646
 4049SOL     OW15292   7.714   0.204   6.597  0.4458  0.3159  0.3744
 4049SOL    HW115293   7.766   0.282   6.618 -1.4261  1.4597  0.9584
 4049SOL    HW215294   7.682   0.173   6.681  0.2530 -0.4389  0.0302
 4050SOL     OW15295   4.411   1.077   7.021  0.7910  0.0408  0.1345
 4050SOL    HW115296   4.477   1.040   6.962  1.8138  0.4248  1.0003
 4050SOL    HW215297   4.334   1.090   6.966  1.1141 -1.3328 -0.6790
 4051SOL     OW15298   2.712   6.309   4.320  0.6606  0.1105 -0.2651
 4051SOL    HW115299   2.710   6.219   4.353 -0.8183 -0.3932 -1.5946
 4051SOL    HW215300   2.773   6.307   4.247 -1.9032 -0.7664 -2.5744
 4052SOL     OW15301   1.905   7.403   0.066  0.6165 -0.0730  0.1222
 4052SOL    HW115302   1.934   7.321   0.105  3.2040  0.6854 -0.0218
 4052SOL    HW215303   1.861   7.377  -0.015  0.0958 -1.3662  0.7989
 4053SOL     OW15304   2.808   2.806   3.037  0.2451  0.4936  0.5855
 4053SOL    HW115305   2.863   2.864   3.089  1.4401  0.6862 -0.8444
 4053SOL    HW215306   2.768   2.863   2.972  0.8114 -0.1586 -0.3430
 4054SOL     OW15307   5.980   5.647   5.943  0.3391  0.2577  0.5804
 4054SOL    HW115308   5.942   5.735   5.942 -1.9476 -0.6365  1.9472
 4054SOL    HW215309   5.909   5.590   5.973  1.7698 -2.0684 -0.1642
 4055SOL     OW15310   2.529   4.156   5.051 -0.1951 -0.2575  0.0068
 4055SOL    HW115311   2.545   4.149   4.957 -0.3645 -3.2314  0.1266
 4055SOL    HW215312   2.521   4.250   5.067  0.8848  0.3817 -2.7543
 4056SOL     OW15313   1.530   7.133   7.007 -0.3737  0.2184 -0.0830
 4056SOL    HW115314   1.580   7.187   7.068 -2.3166  1.7326  0.2620
 4056SOL    HW215315   1.593   7.107   6.940  0.8907  1.9983  0.3512
 4057SOL     OW15316   5.918   3.671   5.849 -0.4512  0.3672  0.4714
 4057SOL    HW115317   5.966   3.748   5.881 -1.3501  0.8082  0.7871
 4057SOL    HW215318   5.831   3.679   5.889 -0.7413 -0.4927  0.0198
 4058SOL     OW15319   5.491   4.575   4.763  0.0580  0.3158  0.1810
 4058SOL    HW115320   5.505   4.480   4.770 -0.2108  0.2254 -0.3773
 4058SOL    HW215321   5.562   4.606   4.707 -1.3115 -0.0017 -1.8932
 4059SOL     OW15322   7.866   3.812   1.930 -0.3050 -0.5225  0.3418
 4059SOL    HW115323   7.899   3.868   1.859 -2.0911  1.1722  0.7814
 4059SOL    HW215324   7.771   3.825   1.929 -0.5730 -2.0696  1.7406
 4060SOL     OW15325   2.669   0.430   6.670 -0.1730 -0.6615  1.0374
 4060SOL    HW115326   2.654   0.484   6.748  2.7212  1.4993  0.2588
 4060SOL    HW215327   2.687   0.343   6.705  0.2748  0.0729  2.7782
 4061SOL     OW15328   7.978   1.847   3.698 -0.0530  0.1649 -0.7031
 4061SOL    HW115329   8.066   1.834   3.662 -0.4279 -0.2997 -1.4824
 4061SOL    HW215330   7.983   1.813   3.787  0.4764 -0.1469 -0.8467
 4062SOL     OW15331   2.757   7.335   0.158  0.1202  0.4484 -0.2252
 4062SOL    HW115332   2.780   7.403   0.222 -1.5945 -0.0368  0.9879
 4062SOL    HW215333   2.750   7.255   0.211 -0.6896 -0.0997 -1.1432
 4063SOL     OW15334   6.784   5.748   7.137  0.4540 -0.6008 -0.0929
 4063SOL    HW115335   6.797   5.716   7.226  2.1252  0.7802  0.2188
 4063SOL    HW215336   6.707   5.701   7.106 -0.1185 -1.1999  2.0297
 4064SOL     OW15337   4.798   2.206   0.017 -0.4900  0.1773 -0.5212
 4064SOL    HW115338   4.834   2.139  -0.042  1.1780  0.2068  0.3957
 4064SOL    HW215339   4.875   2.245   0.058 -1.5656  0.0677  1.7659
 4065SOL     OW15340   5.430   2.622   2.898  0.3289  0.0104 -0.3821
 4065SOL    HW115341   5.413   2.665   2.981 -0.2819 -0.1264 -0.4359
 4065SOL    HW215342   5.354   2.567   2.882 -0.1758  1.0094 -1.6636
 4066SOL     OW15343   6.125   0.132   1.761  0.3264 -0.6228 -0.5373
 4066SOL    HW115344   6.216   0.135   1.789  0.2349 -0.0894 -0.2755
 4066SOL    HW215345   6.085   0.067   1.819  0.0938  0.6284  0.7749
 4067SOL     OW15346   3.494   0.451   7.915 -0.0449  0.0676 -0.1320
 4067SOL    HW115347   3.514   0.404   7.834  1.0629 -0.1392  0.2435
 4067SOL    HW215348   3.526   0.393   7.985  0.3629  0.8865  0.3799
 4068SOL     OW15349   5.333   5.209   1.921 -0.0827  0.2999  0.2739
 4068SOL    HW115350   5.368   5.298   1.929  0.9856 -0.1878  1.3967
 4068SOL    HW215351   5.411   5.153   1.922 -0.7862 -0.6911  0.5305
 4069SOL     OW15352   2.477   5.938   3.675  0.2596 -0.5241 -0.6392
 4069SOL    HW115353   2.402   5.917   3.731 -0.4402  1.2992 -0.8202
 4069SOL    HW215354   2.533   5.993   3.730 -0.5023  1.4091 -1.7144
 4070SOL     OW15355   6.003   2.977   7.329 -0.1510 -0.4840  0.1296
 4070SOL    HW115356   5.978   3.059   7.372 -1.3816  0.1896 -1.7203
 4070SOL    HW215357   5.928   2.919   7.342 -0.8498 -0.0383 -1.5548
 4071SOL     OW15358   7.357   7.810   0.902  0.5611 -0.0393 -0.4101
 4071SOL    HW115359   7.452   7.802   0.901  0.7066  1.2818 -1.6617
 4071SOL    HW215360   7.326   7.723   0.924  2.0608 -0.1673  1.4485
 4072SOL     OW15361   2.166   3.565   1.138  0.4379 -0.2811  0.7099
 4072SOL    HW115362   2.105   3.610   1.079  1.8503  2.1434  0.9585
 4072SOL    HW215363   2.135   3.588   1.226  0.5114 -0.8088  0.8792
 4073SOL     OW15364   1.903   1.509   4.937 -0.3096  0.2611 -0.0291
 4073SOL    HW115365   1.985   1.492   4.890 -0.2685 -0.8591  0.4147
 4073SOL    HW215366   1.854   1.427   4.930 -0.0742 -0.1537  2.3082
 4074SOL     OW15367   6.037   5.521   4.979  0.1029 -0.1037 -0.0204
 4074SOL    HW115368   6.032   5.429   5.006  1.7909 -0.1679  0.2206
 4074SOL    HW215369   5.963   5.533   4.920  0.0691 -1.7315 -0.3596
 4075SOL     OW15370   0.712   4.525   3.206  0.1868 -0.4912 -0.4595
 4075SOL    HW115371   0.658   4.518   3.128 -0.9575 -1.2983  0.3711
 4075SOL    HW215372   0.702   4.441   3.250  2.3588 -0.7742 -0.3949
 4076SOL     OW15373   0.563   3.377   0.560  0.5557  0.6364 -0.2711
 4076SOL    HW115374   0.601   3.419   0.484  0.2082 -0.3950 -1.0367
 4076SOL    HW215375   0.469   3.375   0.542  0.1594  2.5017  1.2640
 4077SOL     OW15376   0.259   6.618   7.594 -0.4445 -0.3080  0.2425
 4077SOL    HW115377   0.172   6.658   7.595 -0.4529 -0.2257 -1.2677
 4077SOL    HW215378   0.245   6.529   7.562 -0.1037 -0.6660  1.0667
 4078SOL     OW15379   8.066   7.563   5.635 -0.0882  0.4652  0.2339
 4078SOL    HW115380   8.140   7.603   5.590  0.9452 -0.2394  1.2667
 4078SOL    HW215381   8.054   7.617   5.714 -0.7343  0.6174  0.0400
 4079SOL     OW15382   4.732   0.974   5.343  0.0360  0.1714 -0.3013
 4079SOL    HW115383   4.738   1.028   5.423  2.3661  1.4724 -1.2372
 4079SOL    HW215384   4.645   0.992   5.309 -0.1872  1.3389  0.7888
 4080SOL     OW15385   8.021   4.691   7.694 -0.5309  0.3107 -0.0000
 4080SOL    HW115386   7.990   4.737   7.772  0.3955 -0.1528  0.6574
 4080SOL    HW215387   8.010   4.598   7.715  0.5139  0.1554 -0.0734
 4081SOL     OW15388   5.363   0.702   3.936  0.6566  0.4582  0.2465
 4081SOL    HW115389   5.422   0.743   3.998  0.5898 -0.5581  1.0190
 4081SOL    HW215390   5.276   0.732   3.962  0.5407 -0.7214  1.2755
 4082SOL     OW15391   6.529   6.298   3.194 -0.4156  0.0851  0.0844
 4082SOL    HW115392   6.448   6.305   3.143  0.8475  1.0177 -1.9347
 4082SOL    HW215393   6.537   6.383   3.238 -0.4799  0.0333  0.1965
 4083SOL     OW15394   3.763   5.221   4.580  0.2723 -0.1313 -0.1617
 4083SOL    HW115395   3.707   5.244   4.654  2.6276 -0.6594  1.9023
 4083SOL    HW215396   3.806   5.303   4.556 -0.1156 -0.0653 -0.6616
 4084SOL     OW15397   2.668   3.042   1.559  0.4182  0.1668  0.7520
 4084SOL    HW115398   2.611   3.080   1.625 -0.0387  1.1442 -0.1803
 4084SOL    HW215399   2.614   3.040   1.479  1.2240 -0.2178  0.2067
 4085SOL     OW15400   0.251   6.330   8.057 -0.1871  0.2583  0.3183
 4085SOL    HW115401   0.222   6.284   8.135  2.4021  2.0117  2.5281
 4085SOL    HW215402   0.238   6.423   8.077 -0.2863  0.7504 -1.7470
 4086SOL     OW15403   7.333   1.516   6.409  0.3476  0.1572  0.1144
 4086SOL    HW115404   7.383   1.575   6.466 -0.6354  0.6335  0.5114
 4086SOL    HW215405   7.263   1.571   6.373  1.9937  0.3763 -3.0709
 4087SOL     OW15406   4.960   3.085   2.081  0.3984 -0.1662 -0.5840
 4087SOL    HW115407   4.957   3.180   2.068 -2.1729 -0.0013  0.4820
 4087SOL    HW215408   4.998   3.074   2.168 -0.6729  0.0364 -0.0653
 4088SOL     OW15409   1.023   1.820   2.697 -0.3136  0.2832 -0.2760
 4088SOL    HW115410   1.034   1.864   2.781  0.7655  0.6409 -0.5877
 4088SOL    HW215411   1.019   1.891   2.632  0.2635 -0.0311 -0.6630
 4089SOL     OW15412   0.877   1.921   4.322 -0.2466  0.1199  0.2729
 4089SOL    HW115413   0.832   1.942   4.240 -2.5208  2.1449  1.9014
 4089SOL    HW215414   0.827   1.850   4.361  0.5285 -0.4911  0.1963
 4090SOL     OW15415   0.479   0.450   3.382  0.4654  0.1696  0.1210
 4090SOL    HW115416   0.443   0.410   3.461  0.0221 -0.0771 -0.2068
 4090SOL    HW215417   0.494   0.541   3.407  0.6311  0.0178  0.5892
 4091SOL     OW15418   0.980   1.685   6.762 -0.6244  0.8654  0.5148
 4091SOL    HW115419   0.960   1.720   6.675  0.1960  0.6822  0.2501
 4091SOL    HW215420   0.895   1.656   6.795 -0.8158  0.0046 -0.6455
 4092SOL     OW15421   7.620   3.052   2.789  0.1083  0.0534  0.2900
 4092SOL    HW115422   7.555   2.986   2.812  0.2072  0.2973  1.3396
 4092SOL    HW215423   7.704   3.012   2.812  0.4794 -0.7511 -2.2047
 4093SOL     OW15424   5.373   7.975   2.427  0.2770  0.1011  0.3450
 4093SOL    HW115425   5.315   8.049   2.409 -1.0902 -1.1470 -0.6317
 4093SOL    HW215426   5.348   7.945   2.514  2.4153  2.1200  1.7772
 4094SOL     OW15427   0.184   2.584   6.087 -0.0567 -0.6296 -0.2300
 4094SOL    HW115428   0.161   2.586   6.180 -1.0563  2.0067 -0.4601
 4094SOL    HW215429   0.254   2.649   6.078 -0.6075 -0.1813 -1.4629
 4095SOL     OW15430   3.763   7.209   7.716 -0.2797  0.5098 -0.1755
 4095SOL    HW115431   3.843   7.222   7.768 -0.4684  0.5821  0.0953
 4095SOL    HW215432   3.788   7.237   7.628 -0.1260  0.9387  0.0005
 4096SOL     OW15433   8.048   1.335   0.458 -0.1714 -0.4336  0.1741
 4096SOL    HW115434   8.041   1.428   0.436  2.3774  0.3788  2.2052
 4096SOL    HW215435   8.013   1.328   0.546  1.6748 -0.8836  0.9244
 4097SOL     OW15436   1.645   6.504   7.059  0.5077 -0.0971  0.4355
 4097SOL    HW115437   1.604   6.418   7.070  0.4957 -0.1763 -0.1836
 4097SOL    HW215438   1.578   6.558   7.018  1.2490 -0.4550 -1.3268
 4098SOL     OW15439   2.002   3.118   6.207  0.0171 -0.0075  0.0652
 4098SOL    HW115440   1.971   3.049   6.148 -1.3394 -0.3736  1.1518
 4098SOL    HW215441   2.048   3.179   6.150  0.5399 -1.3875 -1.0552
 4099SOL     OW15442   3.476   6.805   5.467 -0.6465 -0.5508  0.0038
 4099SOL    HW115443   3.539   6.814   5.396 -0.9164  1.3685 -0.0521
 4099SOL    HW215444   3.399   6.854   5.438 -2.2621 -2.8909  0.0283
 4100SOL     OW15445   5.018   0.043   0.451 -0.1265  0.8105 -0.0622
 4100SOL    HW115446   5.050  -0.031   0.503  0.7451  1.2998  0.1293
 4100SOL    HW215447   4.955   0.087   0.508 -2.8824 -1.3454 -1.1867
 4101SOL     OW15448   0.765   2.868   2.117 -0.0447  0.1388 -0.1989
 4101SOL    HW115449   0.750   2.776   2.139  0.3260  0.2100  0.3694
 4101SOL    HW215450   0.808   2.904   2.194 -1.0661  1.0274 -0.0319
 4102SOL     OW15451   7.339   1.990   0.331  0.0007 -0.1646 -0.1743
 4102SOL    HW115452   7.403   1.925   0.301  0.3409  0.4942 -0.9273
 4102SOL    HW215453   7.378   2.029   0.409 -0.5563 -1.3866  0.7377
 4103SOL     OW15454   7.463   3.535   1.807 -0.0019 -0.4090 -0.1198
 4103SOL    HW115455   7.479   3.442   1.823 -0.9420 -1.1980 -3.1747
 4103SOL    HW215456   7.551   3.572   1.794  0.2596 -1.6705 -2.4004
 4104SOL     OW15457   0.537   2.236   0.335 -0.2918 -0.4907  0.7013
 4104SOL    HW115458   0.506   2.315   0.380  1.4982 -0.8713  2.7805
 4104SOL    HW215459   0.488   2.165   0.374 -1.6244 -0.4968 -0.8985
 4105SOL     OW15460   3.221   1.243   5.660 -0.2059 -0.7468  0.3733
 4105SOL    HW115461   3.158   1.313   5.649 -0.0586 -0.6085  0.4103
 4105SOL    HW215462   3.210   1.187   5.583 -0.7463 -1.0174  0.6399
 4106SOL     OW15463   6.710   6.321   5.863  0.4273  0.4228 -0.1900
 4106SOL    HW115464   6.677   6.402   5.824 -0.6660  0.9132  1.6052
 4106SOL    HW215465   6.655   6.308   5.941  1.0404 -1.6792 -0.0416
 4107SOL     OW15466   3.871   0.542   5.281 -0.7663 -0.5533 -0.2147
 4107SOL    HW115467   3.928   0.519   5.209 -0.2605 -0.5744  0.1880
 4107SOL    HW215468   3.840   0.459   5.316  0.4816 -0.6318  0.7758
 4108SOL     OW15469   3.245   3.924   4.724 -0.1049 -0.4445 -0.8146
 4108SOL    HW115470   3.270   3.855   4.663  1.6467  0.9729 -1.8190
 4108SOL    HW215471   3.325   3.976   4.734 -0.9348  0.5442  1.1156
 4109SOL     OW15472   2.070   2.920   7.286 -0.4251 -0.0528 -0.2042
 4109SOL    HW115473   2.123   2.965   7.220 -0.9411  0.2502 -0.4115
 4109SOL    HW215474   2.106   2.831   7.289  1.0781  0.5353  0.7179
 4110SOL     OW15475   7.866   7.640   2.319 -0.4385  0.2995  0.4690
 4110SOL    HW115476   7.942   7.635   2.378  0.5006  0.2761 -0.7047
 4110SOL    HW215477   7.797   7.680   2.373  0.0281 -0.7453  1.9171
 4111SOL     OW15478   2.640   5.087   2.106 -0.2296 -0.2429 -0.5076
 4111SOL    HW115479   2.640   5.006   2.157  0.3189  0.0356 -0.0524
 4111SOL    HW215480   2.595   5.150   2.162  0.9083  0.2249 -0.0829
 4112SOL     OW15481   4.861   0.115   4.407 -0.2879  0.0658  0.9090
 4112SOL    HW115482   4.825   0.198   4.438 -2.0536  0.2452 -1.3697
 4112SOL    HW215483   4.788   0.053   4.414 -0.5858 -0.0516 -1.9532
 4113SOL     OW15484   2.416   3.810   0.032  0.2174 -0.3557 -0.2624
 4113SOL    HW115485   2.361   3.745  -0.014 -0.0259 -1.2429  1.2201
 4113SOL    HW215486   2.360   3.887   0.040 -0.5309 -0.9411  0.4236
 4114SOL     OW15487   0.946   6.797   2.295  0.0025  0.4320 -0.0494
 4114SOL    HW115488   0.946   6.893   2.298 -0.5068  0.5067 -1.5906
 4114SOL    HW215489   1.020   6.771   2.350  0.8219  1.7535 -0.4916
 4115SOL     OW15490   4.058   6.787   3.978  0.0813 -0.0708  0.2134
 4115SOL    HW115491   4.003   6.865   3.982  0.3171  0.0914  0.3383
 4115SOL    HW215492   4.042   6.750   3.892 -0.4209 -0.1689  0.3478
 4116SOL     OW15493   2.816   8.095   7.064 -0.3866 -0.4850 -0.1511
 4116SOL    HW115494   2.825   8.108   6.969 -1.7195  1.0911 -0.1101
 4116SOL    HW215495   2.900   8.125   7.100 -0.8123  1.4704 -0.6646
 4117SOL     OW15496   3.101   7.727   5.832  0.4275  0.6664  0.3798
 4117SOL    HW115497   3.132   7.660   5.893  0.0274 -0.5005 -0.6616
 4117SOL    HW215498   3.006   7.728   5.843  0.4066  0.8609  0.1838
 4118SOL     OW15499   3.130   6.118   7.024  0.1865  0.1069  0.2216
 4118SOL    HW115500   3.196   6.181   6.996  0.6312  0.0084  1.0156
 4118SOL    HW215501   3.167   6.077   7.102 -1.0069  0.3929  0.9686
 4119SOL     OW15502   0.229   3.014   7.542 -0.3751  0.3064 -0.2722
 4119SOL    HW115503   0.196   2.998   7.631  1.3293 -1.6463  0.0890
 4119SOL    HW215504   0.311   3.063   7.556 -0.2800  0.2942 -0.7876
 4120SOL     OW15505   0.708   2.209   3.727 -0.1111 -0.3592  0.3173
 4120SOL    HW115506   0.794   2.194   3.768  0.4301  0.0362 -0.6447
 4120SOL    HW215507   0.728   2.227   3.636 -1.0986  1.5044  0.4340
 4121SOL     OW15508   5.359   3.201   5.986 -0.0771  0.0770  0.3263
 4121SOL    HW115509   5.327   3.132   5.928  1.1056 -2.0206  2.0085
 4121SOL    HW215510   5.427   3.245   5.935 -1.6259  0.8275 -1.1889
 4122SOL     OW15511   6.461   4.831   6.793  0.3990 -0.4084  0.3083
 4122SOL    HW115512   6.434   4.906   6.740  0.9914 -0.8673 -0.6501
 4122SOL    HW215513   6.382   4.779   6.804 -0.1852  0.6658  1.5474
 4123SOL     OW15514   6.387   1.355   1.569 -0.2941 -0.2184  0.0998
 4123SOL    HW115515   6.309   1.314   1.607 -0.6918  0.8145  0.4159
 4123SOL    HW215516   6.422   1.409   1.640  0.6085 -0.5185 -0.1031
 4124SOL     OW15517   1.736   2.870   0.075 -0.1463  0.4746  0.3166
 4124SOL    HW115518   1.691   2.952   0.097  1.4442  1.1269  1.2528
 4124SOL    HW215519   1.737   2.820   0.157  0.9279  0.5231  0.3437
 4125SOL     OW15520   6.303   1.242   5.734  0.0267  0.7566 -0.0524
 4125SOL    HW115521   6.301   1.162   5.681 -2.0412 -0.0514  1.1202
 4125SOL    HW215522   6.372   1.226   5.799  1.0383  0.8210 -1.0819
 4126SOL     OW15523   0.105   1.891   6.785 -0.1496  0.5075  0.0845
 4126SOL    HW115524   0.074   1.812   6.741 -1.0082  0.5426  0.5949
 4126SOL    HW215525   0.062   1.888   6.871  0.5906  1.0188  0.4787
 4127SOL     OW15526   1.222   0.099   4.948 -0.1106  0.0534 -0.9390
 4127SOL    HW115527   1.173   0.017   4.953  0.5566 -0.2718  1.4687
 4127SOL    HW215528   1.166   0.163   4.991  1.4007 -0.2934  1.7218
 4128SOL     OW15529   6.085   1.882   5.005  0.5121 -0.5738  0.3722
 4128SOL    HW115530   6.077   1.890   4.910  0.5733  1.7452  0.5123
 4128SOL    HW215531   5.999   1.906   5.039  0.8832 -0.0009  0.9340
 4129SOL     OW15532   4.547   1.307   6.667  0.1548 -0.1458  0.3278
 4129SOL    HW115533   4.601   1.237   6.703 -1.1157 -2.5347 -2.1208
 4129SOL    HW215534   4.583   1.323   6.580 -1.5733 -0.1073 -0.4145
 4130SOL     OW15535   2.400   0.828   1.448 -0.3806  0.2222 -0.1652
 4130SOL    HW115536   2.411   0.821   1.353 -0.3165  2.0002 -0.3331
 4130SOL    HW215537   2.324   0.886   1.459  0.0044  0.5654  0.8540
 4131SOL     OW15538   0.357   3.747   0.971  0.1579 -0.3860  0.6028
 4131SOL    HW115539   0.365   3.681   1.039 -1.5889 -1.0111  0.2617
 4131SOL    HW215540   0.294   3.810   1.006 -0.7421 -0.7013 -0.3823
 4132SOL     OW15541   7.953   2.546   0.649  0.9350  0.1980  0.0368
 4132SOL    HW115542   8.032   2.492   0.639  1.8962  1.6552 -0.6378
 4132SOL    HW215543   7.985   2.636   0.641 -0.7373  0.8449  0.2960
 4133SOL     OW15544   3.027   1.838   7.796 -0.4281  0.4009 -0.3303
 4133SOL    HW115545   3.062   1.767   7.744  1.3481  0.1888  1.0511
 4133SOL    HW215546   2.934   1.818   7.805 -0.0161 -1.6480 -0.1454
 4134SOL     OW15547   7.913   7.664   0.918  0.0652  0.0137  0.1652
 4134SOL    HW115548   7.928   7.724   0.846  0.0528  1.4843  1.3365
 4134SOL    HW215549   7.991   7.608   0.920  0.8705  1.1021  0.0862
 4135SOL     OW15550   7.348   5.915   7.622 -0.0007 -0.3233 -0.4146
 4135SOL    HW115551   7.340   6.009   7.638  3.0102 -0.2554  1.3409
 4135SOL    HW215552   7.341   5.906   7.527 -2.6753  1.2928 -0.4857
 4136SOL     OW15553   4.993   1.828   5.794 -0.4260  0.0410 -0.2693
 4136SOL    HW115554   5.088   1.843   5.785 -0.4040  0.6094  0.7382
 4136SOL    HW215555   4.953   1.910   5.767 -0.5572  0.2742  0.6089
 4137SOL     OW15556   6.509   4.075   6.751 -0.5093  0.6789  0.1813
 4137SOL    HW115557   6.467   3.992   6.725  0.9193 -0.2342  0.6811
 4137SOL    HW215558   6.462   4.142   6.700 -1.5070 -0.4547 -0.4594
 4138SOL     OW15559   1.808   0.641   2.992 -0.3441 -0.2426  0.4897
 4138SOL    HW115560   1.819   0.620   3.085  1.6563  1.5691  0.7614
 4138SOL    HW215561   1.830   0.734   2.987 -4.1783  0.7599 -1.2474
 4139SOL     OW15562   6.048   8.031   1.936 -0.5314  0.4625 -0.0130
 4139SOL    HW115563   6.074   7.940   1.922 -1.0140  0.3998 -0.5369
 4139SOL    HW215564   6.029   8.036   2.030 -2.9106 -0.6406 -0.3657
 4140SOL     OW15565   3.152   3.670   3.430 -0.1362  0.1236 -0.1840
 4140SOL    HW115566   3.114   3.678   3.517 -0.1791 -2.2516  0.0956
 4140SOL    HW215567   3.216   3.599   3.439 -1.5795 -1.6220 -2.5004
 4141SOL     OW15568   2.392   1.594   6.470  0.1877  0.2086  0.7567
 4141SOL    HW115569   2.430   1.513   6.505 -0.6139 -0.3570  0.3514
 4141SOL    HW215570   2.315   1.609   6.526  0.5725  0.9211  1.0946
 4142SOL     OW15571   3.787   2.289   0.079  0.7525 -1.2509  0.2120
 4142SOL    HW115572   3.753   2.295  -0.010  1.6777  0.1514 -0.0833
 4142SOL    HW215573   3.747   2.210   0.115  0.7154 -2.1013 -1.5968
 4143SOL     OW15574   4.100   3.249   6.840 -0.2831 -0.8086  0.4254
 4143SOL    HW115575   4.064   3.330   6.877 -0.6903 -0.8699  0.1650
 4143SOL    HW215576   4.165   3.221   6.904 -0.2314 -0.3454  0.5829
 4144SOL     OW15577   5.123   1.768   1.400  0.5641  0.0541 -0.1627
 4144SOL    HW115578   5.108   1.774   1.305  0.2694  0.5022 -0.0954
 4144SOL    HW215579   5.099   1.679   1.423  0.1203  0.0995 -0.4313
 4145SOL     OW15580   7.221   0.175   1.266 -0.1593  0.4583 -0.1119
 4145SOL    HW115581   7.151   0.184   1.330 -0.3200 -0.9713 -0.0445
 4145SOL    HW215582   7.180   0.133   1.190  0.8215 -1.6776  0.4359
 4146SOL     OW15583   6.661   6.292   0.189  0.0503  0.4123  0.5345
 4146SOL    HW115584   6.665   6.373   0.139  2.1211 -0.0729 -0.2087
 4146SOL    HW215585   6.687   6.224   0.127 -0.1881 -0.6256  1.5256
 4147SOL     OW15586   2.933   1.355   6.196  0.1114 -0.4773  0.4453
 4147SOL    HW115587   2.926   1.262   6.179 -0.7544 -0.3805  0.2124
 4147SOL    HW215588   2.889   1.397   6.122 -0.6842  0.0554  1.1944
 4148SOL     OW15589   5.014   7.662   7.010 -0.0557  0.9211 -0.9730
 4148SOL    HW115590   5.053   7.748   7.024  1.0965  0.0177  2.4847
 4148SOL    HW215591   4.923   7.672   7.040 -0.0991  1.0543 -1.1460
 4149SOL     OW15592   4.020   4.759   0.275  0.5026 -0.1456  0.1578
 4149SOL    HW115593   4.045   4.768   0.183  1.4399  0.6536  0.4693
 4149SOL    HW215594   4.086   4.701   0.312  1.1782  0.9243  0.6951
 4150SOL     OW15595   2.858   2.865   1.638  0.1471  0.3082 -0.5428
 4150SOL    HW115596   2.787   2.925   1.613 -1.9498 -2.0499 -0.6594
 4150SOL    HW215597   2.816   2.803   1.698  2.1208 -1.2288 -0.6599
 4151SOL     OW15598   1.505   5.283   3.116 -0.2363 -0.3469  0.0601
 4151SOL    HW115599   1.551   5.365   3.099 -2.8504  1.0715 -0.6367
 4151SOL    HW215600   1.493   5.281   3.211 -1.7967  1.0921 -0.0671
 4152SOL     OW15601   2.558   3.838   6.276  0.5023 -0.3308 -0.7449
 4152SOL    HW115602   2.594   3.871   6.358 -1.4540  1.8419 -0.6503
 4152SOL    HW215603   2.628   3.851   6.212  1.2003  0.2334  0.1114
 4153SOL     OW15604   0.686   1.250   3.561  0.0938 -0.1479 -0.0485
 4153SOL    HW115605   0.734   1.286   3.636 -0.0622 -0.5452  0.2440
 4153SOL    HW215606   0.731   1.168   3.541  0.0741 -0.0905 -0.3313
 4154SOL     OW15607   3.845   2.566   2.258 -0.4486  0.5267 -0.4040
 4154SOL    HW115608   3.756   2.544   2.229  0.1820 -1.2425 -1.0884
 4154SOL    HW215609   3.902   2.506   2.210  1.1029  1.3617  0.3188
 4155SOL     OW15610   5.100   0.640   0.364  0.0506 -0.8723  0.0412
 4155SOL    HW115611   5.145   0.718   0.333  1.8552 -2.0520 -0.4326
 4155SOL    HW215612   5.034   0.673   0.424  0.9920  0.9937  0.1146
 4156SOL     OW15613   7.238   5.534   1.360 -0.1242 -0.4504 -0.1304
 4156SOL    HW115614   7.280   5.493   1.435 -0.1920  0.1665  0.2520
 4156SOL    HW215615   7.144   5.528   1.379 -0.1317  0.0002  0.0026
 4157SOL     OW15616   6.635   5.024   7.249  0.2043 -0.2344 -0.2102
 4157SOL    HW115617   6.549   4.991   7.275  0.7776 -1.9817 -0.3862
 4157SOL    HW215618   6.696   4.957   7.279  1.2730 -0.2589 -2.2615
 4158SOL     OW15619   1.201   0.972   7.849 -0.6859  0.0262 -0.3399
 4158SOL    HW115620   1.277   1.030   7.843  1.0199 -2.0205  0.0841
 4158SOL    HW215621   1.218   0.905   7.783 -2.7644  0.1271 -1.0561
 4159SOL     OW15622   5.905   5.737   5.066  0.7632 -0.0722  0.4840
 4159SOL    HW115623   5.959   5.789   5.125  1.9028 -0.5889 -0.0686
 4159SOL    HW215624   5.967   5.675   5.026  0.2401  0.9201 -2.0145
 4160SOL     OW15625   7.743   1.020   4.170 -0.1572  0.4570 -0.0382
 4160SOL    HW115626   7.690   0.980   4.239  0.8065  0.7191  0.8784
 4160SOL    HW215627   7.691   1.093   4.139 -0.5630  0.3916  0.4811
 4161SOL     OW15628   6.620   1.925   2.437  0.0162 -0.0722  0.3666
 4161SOL    HW115629   6.714   1.914   2.428 -0.0937 -1.4215  0.7082
 4161SOL    HW215630   6.582   1.879   2.362 -0.3896  0.1005  0.4594
 4162SOL     OW15631   4.611   7.751   1.006  0.0695  0.4482  0.3425
 4162SOL    HW115632   4.586   7.763   0.915 -0.1819  1.4255  0.5270
 4162SOL    HW215633   4.603   7.657   1.021  1.8149  0.0051 -1.1132
 4163SOL     OW15634   1.276   2.675   0.881  0.2949 -0.6220 -0.0263
 4163SOL    HW115635   1.299   2.597   0.930  1.2848 -0.5300 -0.3328
 4163SOL    HW215636   1.281   2.746   0.945  1.2321 -0.5525 -0.1667
 4164SOL     OW15637   0.955   4.917   2.102  0.0530  0.3379  0.4794
 4164SOL    HW115638   1.023   4.854   2.126  0.7298  0.9963  0.3227
 4164SOL    HW215639   1.002   4.987   2.057 -0.6561  1.0775  0.8699
 4165SOL     OW15640   0.264   7.883   6.330 -0.0317  0.9674  0.1233
 4165SOL    HW115641   0.200   7.891   6.260  0.5465 -0.1152 -0.5598
 4165SOL    HW215642   0.213   7.858   6.407 -0.6950  2.3306  0.1623
 4166SOL     OW15643   3.395   7.294   5.847  0.1705 -0.0851 -0.8233
 4166SOL    HW115644   3.340   7.251   5.912  0.6184  0.7724  0.1556
 4166SOL    HW215645   3.367   7.257   5.763 -2.2842  0.7405 -0.4327
 4167SOL     OW15646   0.791   7.451   7.574 -0.1298 -0.0777  0.1304
 4167SOL    HW115647   0.740   7.462   7.653 -0.4309  1.6973 -0.2765
 4167SOL    HW215648   0.882   7.459   7.602 -0.2748  2.6659  0.0740
 4168SOL     OW15649   6.112   4.957   3.002 -0.2840  0.5238 -0.1458
 4168SOL    HW115650   6.157   4.922   3.079 -0.3920 -0.0616 -0.3443
 4168SOL    HW215651   6.073   5.039   3.032  0.7711  0.9613  0.0723
 4169SOL     OW15652   7.517   5.277   6.587  0.3061 -0.3503 -0.0501
 4169SOL    HW115653   7.607   5.260   6.558  0.4671  1.7093 -0.9476
 4169SOL    HW215654   7.503   5.215   6.658  2.1912 -1.2010 -0.3523
 4170SOL     OW15655   3.866   7.478   0.883  0.3521 -0.4374 -0.7211
 4170SOL    HW115656   3.903   7.399   0.923 -1.5239 -1.5939 -1.1623
 4170SOL    HW215657   3.866   7.459   0.789  0.6983  0.4628 -0.9066
 4171SOL     OW15658   5.522   2.265   6.646  0.1353 -0.2306  0.2891
 4171SOL    HW115659   5.500   2.301   6.560  0.2706  0.6482  0.6133
 4171SOL    HW215660   5.617   2.279   6.653  0.0865 -0.0953  0.6706
 4172SOL     OW15661   7.437   4.517   7.853 -0.2750 -0.6067 -0.4920
 4172SOL    HW115662   7.386   4.587   7.894 -0.7529 -1.5490  0.5816
 4172SOL    HW215663   7.513   4.562   7.815 -0.3455  0.4393  0.5335
 4173SOL     OW15664   7.703   0.787   1.699  0.3355  0.2006  1.0452
 4173SOL    HW115665   7.613   0.803   1.670 -0.0858 -1.8784  1.0599
 4173SOL    HW215666   7.748   0.755   1.621  0.7947  0.2481  1.2875
 4174SOL     OW15667   7.411   3.822   3.622 -0.5614  0.1499  0.4543
 4174SOL    HW115668   7.479   3.889   3.625 -0.3206 -0.1031  0.6910
 4174SOL    HW215669   7.353   3.850   3.552 -0.7324  0.8641  0.8777
 4175SOL     OW15670   4.446   0.413   0.424  0.5236  0.1767  0.5821
 4175SOL    HW115671   4.405   0.336   0.387  0.1833 -0.4500  2.1815
 4175SOL    HW215672   4.457   0.473   0.350  1.2474 -1.5712 -0.7756
 4176SOL     OW15673   2.313   4.357   1.854  0.2717 -0.3162 -0.7209
 4176SOL    HW115674   2.286   4.282   1.907 -0.3475 -0.2934 -0.9970
 4176SOL    HW215675   2.299   4.329   1.764  3.3018 -1.1329 -1.0178
 4177SOL     OW15676   6.133   6.233   7.585  0.5018 -0.3222 -0.2070
 4177SOL    HW115677   6.055   6.192   7.547  0.4640 -1.7737  1.3390
 4177SOL    HW215678   6.101   6.316   7.621  0.0995  0.0143 -1.2830
 4178SOL     OW15679   1.693   1.160   2.908  0.3128  0.3307  0.2971
 4178SOL    HW115680   1.610   1.184   2.949  0.8293  0.1100  1.5351
 4178SOL    HW215681   1.704   1.222   2.835 -1.3932 -0.2715 -0.5071
 4179SOL     OW15682   1.463   2.700   2.388  0.6887  0.6659 -0.0826
 4179SOL    HW115683   1.430   2.733   2.305  0.7978 -0.1225 -0.4512
 4179SOL    HW215684   1.396   2.722   2.452 -0.5561 -0.8337 -0.7981
 4180SOL     OW15685   3.246   2.334   1.209 -0.0282  0.1125 -0.6022
 4180SOL    HW115686   3.210   2.362   1.293  0.4227 -0.0585 -0.3516
 4180SOL    HW215687   3.237   2.239   1.209  1.4845 -0.0458 -0.0387
 4181SOL     OW15688   7.613   4.380   8.004 -0.1671  0.3632 -0.1493
 4181SOL    HW115689   7.532   4.425   7.979 -1.4339 -0.3671  2.3353
 4181SOL    HW215690   7.653   4.436   8.070  1.0427  0.3894 -0.8793
 4182SOL     OW15691   7.325   1.342   4.479  0.2182 -0.5088  0.2150
 4182SOL    HW115692   7.245   1.382   4.447  0.1968 -0.5173  0.2572
 4182SOL    HW215693   7.324   1.357   4.574  2.5564  3.6922 -0.1983
 4183SOL     OW15694   0.902   0.990   1.572 -0.0092  0.1919 -0.5269
 4183SOL    HW115695   0.859   0.963   1.491  3.6378 -0.6811 -2.4105
 4183SOL    HW215696   0.933   0.909   1.611  0.9391  0.8242  0.0762
 4184SOL     OW15697   3.709   2.044   2.344  0.3783  0.4679 -0.1589
 4184SOL    HW115698   3.796   2.079   2.363  1.0627 -0.6220 -1.1124
 4184SOL    HW215699   3.661   2.116   2.303  1.0993  0.8464 -0.3469
 4185SOL     OW15700   8.060   6.733   3.640 -0.7620 -0.3134  0.5261
 4185SOL    HW115701   8.086   6.733   3.733 -1.7923  0.7259  0.8406
 4185SOL    HW215702   8.111   6.804   3.601 -1.5497  0.3697  0.6943
 4186SOL     OW15703   2.153   4.379   0.230  0.2790  0.4532 -0.1466
 4186SOL    HW115704   2.202   4.313   0.181 -0.9074 -0.7258  0.1882
 4186SOL    HW215705   2.181   4.462   0.193  0.5853 -0.3265 -1.7312
 4187SOL     OW15706   3.042   4.130   0.310 -0.3381 -0.6076 -0.2184
 4187SOL    HW115707   2.949   4.136   0.291 -0.0676 -0.3664 -1.5451
 4187SOL    HW215708   3.074   4.220   0.305 -0.4094 -0.3471  2.4890
 4188SOL     OW15709   2.343   4.202   4.344 -0.1207  0.3534 -0.3328
 4188SOL    HW115710   2.335   4.107   4.350  0.9888  0.3274  1.1513
 4188SOL    HW215711   2.271   4.236   4.398  0.5576  0.3199  0.6062
 4189SOL     OW15712   0.522   6.168   1.406 -0.2585 -0.2411  0.1215
 4189SOL    HW115713   0.566   6.083   1.404  1.3308  0.5499 -1.5712
 4189SOL    HW215714   0.493   6.182   1.316  0.6215  1.5220  0.0650
 4190SOL     OW15715   3.525   6.682   1.269 -0.3581 -0.1852  0.6375
 4190SOL    HW115716   3.528   6.773   1.298  0.9507  0.1640 -0.4726
 4190SOL    HW215717   3.476   6.685   1.186  0.5071 -0.3132  0.1042
 4191SOL     OW15718   5.669   6.237   0.259 -0.1718 -0.0310 -0.7609
 4191SOL    HW115719   5.732   6.305   0.281  1.2050 -1.0191 -1.5075
 4191SOL    HW215720   5.635   6.207   0.344  0.1012  0.7609 -0.3686
 4192SOL     OW15721   7.711   4.324   7.134  0.2788  0.1444 -0.2575
 4192SOL    HW115722   7.768   4.313   7.057 -2.4375 -1.4039 -2.1924
 4192SOL    HW215723   7.719   4.418   7.155  3.1130  0.1000 -0.6550
 4193SOL     OW15724   1.038   4.798   4.590 -0.4460 -0.7955  0.2622
 4193SOL    HW115725   1.053   4.813   4.496 -0.5320 -0.6458  0.2727
 4193SOL    HW215726   1.031   4.885   4.627  0.8482 -0.8180  0.6152
 4194SOL     OW15727   4.393   0.145   6.569 -0.2260  0.0525 -0.5557
 4194SOL    HW115728   4.361   0.213   6.628  0.6037  1.2141 -1.3776
 4194SOL    HW215729   4.322   0.131   6.507  0.5832  2.3452 -2.1517
 4195SOL     OW15730   4.320   1.176   5.216 -0.2823  0.1462  0.2471
 4195SOL    HW115731   4.309   1.198   5.309  0.8513 -0.6667  0.5911
 4195SOL    HW215732   4.334   1.082   5.215 -0.1009  0.1749 -0.7323
 4196SOL     OW15733   6.134   7.720   2.219 -0.2730 -0.0473  0.4061
 4196SOL    HW115734   6.128   7.812   2.246 -0.7423  0.3545 -0.9857
 4196SOL    HW215735   6.108   7.720   2.127  5.5289 -0.5526 -1.6549
 4197SOL     OW15736   4.966   2.107   1.247 -0.3498 -0.3053  0.3116
 4197SOL    HW115737   4.912   2.108   1.327 -0.7738 -1.5187  0.0553
 4197SOL    HW215738   5.055   2.121   1.279 -0.4374 -1.3579  1.0933
 4198SOL     OW15739   5.716   4.140   6.996  0.2288  0.6719 -0.4287
 4198SOL    HW115740   5.807   4.112   6.998  0.4526  1.2568 -1.6174
 4198SOL    HW215741   5.687   4.121   6.907 -0.8544  0.3664 -0.0239
 4199SOL     OW15742   3.346   0.705   4.492 -0.0546 -1.0422  0.4439
 4199SOL    HW115743   3.440   0.713   4.475 -0.4839  1.1007 -1.3795
 4199SOL    HW215744   3.315   0.643   4.427  0.0184 -1.4774  0.8166
 4200SOL     OW15745   2.490   7.711   0.738  0.1817  0.8325  0.2219
 4200SOL    HW115746   2.547   7.651   0.785  0.9858  1.4723  0.0975
 4200SOL    HW215747   2.423   7.736   0.801 -1.5555 -1.9252 -0.3755
 4201SOL     OW15748   1.941   7.120   2.487  0.1895 -0.4140  0.0457
 4201SOL    HW115749   1.900   7.100   2.403  0.4311 -0.7414  0.0012
 4201SOL    HW215750   2.035   7.119   2.468  0.2247  0.0601  0.2014
 4202SOL     OW15751   0.318   0.337   1.182  1.3213  0.4046  0.1500
 4202SOL    HW115752   0.308   0.326   1.276  2.2378  1.2387  0.3610
 4202SOL    HW215753   0.270   0.417   1.161  0.3532 -0.2613 -0.2574
 4203SOL     OW15754   4.058   4.972   2.662 -0.4004  0.1474  0.0890
 4203SOL    HW115755   4.049   4.970   2.757  0.1605 -0.5314  0.1375
 4203SOL    HW215756   3.971   4.953   2.628 -0.9311  1.8122  0.4458
 4204SOL     OW15757   4.144   4.021   6.801 -0.0768 -0.2005 -0.1742
 4204SOL    HW115758   4.054   4.045   6.780  0.1444  1.2996  0.4976
 4204SOL    HW215759   4.150   4.028   6.896  0.9889  0.6217 -0.2895
 4205SOL     OW15760   1.597   5.990   3.831 -0.2283  0.1986 -0.2602
 4205SOL    HW115761   1.620   5.916   3.775  1.1410  0.6112 -0.2743
 4205SOL    HW215762   1.641   5.972   3.914 -2.0763 -0.3104  0.6733
 4206SOL     OW15763   7.203   0.172   3.404  0.3799 -0.3453  0.4274
 4206SOL    HW115764   7.267   0.239   3.426  0.1653  0.2725 -0.7556
 4206SOL    HW215765   7.217   0.154   3.311  0.5863 -2.1246  0.7616
 4207SOL     OW15766   3.584   0.215   2.370 -0.3302  0.2183 -0.0569
 4207SOL    HW115767   3.673   0.245   2.384 -0.2992 -0.0736  0.3813
 4207SOL    HW215768   3.570   0.223   2.275  0.0858  0.4586 -0.0977
 4208SOL     OW15769   1.536   2.582   1.998 -0.2020  0.5860  0.2120
 4208SOL    HW115770   1.556   2.666   1.958 -0.2687  1.1859  1.4035
 4208SOL    HW215771   1.459   2.599   2.053  0.3385 -0.0214  1.1861
 4209SOL     OW15772   4.708   1.533   2.424 -0.0996  0.7205 -0.5499
 4209SOL    HW115773   4.657   1.477   2.482  1.4769 -1.6436 -1.2982
 4209SOL    HW215774   4.727   1.611   2.476 -1.5540  0.1536  0.9005
 4210SOL     OW15775   2.341   2.847   7.122  1.0049 -0.3991 -0.8090
 4210SOL    HW115776   2.326   2.811   7.035 -1.3208  0.0614 -0.6563
 4210SOL    HW215777   2.382   2.775   7.171  0.5205 -1.3379 -1.7440
 4211SOL     OW15778   2.986   1.984   6.065  0.2689  0.2186 -0.1248
 4211SOL    HW115779   3.056   2.002   6.002 -0.6068 -0.6378 -1.3915
 4211SOL    HW215780   3.030   1.984   6.150  1.4347  1.7215 -0.6752
 4212SOL     OW15781   0.322   1.568   3.973  0.2303 -0.0129 -0.3734
 4212SOL    HW115782   0.262   1.532   3.908  0.0644  0.0405 -0.2520
 4212SOL    HW215783   0.367   1.639   3.927 -0.4025  0.4957 -0.2278
 4213SOL     OW15784   4.100   5.409   5.643  0.2903  0.0665 -0.4885
 4213SOL    HW115785   4.146   5.421   5.726  0.7809 -1.7147 -0.4549
 4213SOL    HW215786   4.083   5.498   5.611  4.0938  0.8796 -0.7089
 4214SOL     OW15787   4.979   1.531   0.607 -0.3677  0.4118 -0.1034
 4214SOL    HW115788   5.066   1.566   0.588  0.0602 -0.2231  0.6249
 4214SOL    HW215789   4.931   1.539   0.525  0.6422  0.0106 -0.7452
 4215SOL     OW15790   1.613   6.316   7.720 -0.2659 -0.8695 -0.5105
 4215SOL    HW115791   1.525   6.317   7.759  0.1591  1.6359  0.6255
 4215SOL    HW215792   1.612   6.242   7.660 -2.9943 -1.2212 -0.1666
 4216SOL     OW15793   4.550   6.172   2.832  0.0514  0.2660 -0.1717
 4216SOL    HW115794   4.572   6.167   2.739 -1.3571 -1.2922 -0.4676
 4216SOL    HW215795   4.600   6.101   2.872 -0.4164  0.0410  0.0184
 4217SOL     OW15796   0.724   4.660   6.520  0.6129 -0.2018 -0.1610
 4217SOL    HW115797   0.792   4.650   6.454 -1.2880  0.2668 -2.3193
 4217SOL    HW215798   0.732   4.751   6.549  1.4585 -0.4110  0.3019
 4218SOL     OW15799   3.248   4.893   6.935  0.3657  0.3070 -0.5368
 4218SOL    HW115800   3.156   4.888   6.961  0.5026 -1.1855 -0.2762
 4218SOL    HW215801   3.257   4.982   6.898 -1.1205  0.5448 -0.4065
 4219SOL     OW15802   1.686   0.008   5.509  0.0297  0.5516  0.6452
 4219SOL    HW115803   1.754  -0.026   5.450 -0.3969 -0.0955  0.5163
 4219SOL    HW215804   1.667   0.096   5.477 -0.5004  0.0512 -0.4495
 4220SOL     OW15805   4.983   2.481   3.096 -0.3291 -0.4563 -0.6678
 4220SOL    HW115806   4.955   2.470   3.006 -3.6915  1.8839 -0.1224
 4220SOL    HW215807   4.931   2.417   3.146 -1.7120  1.0526 -0.0645
 4221SOL     OW15808   7.573   1.214   1.009 -0.0313 -0.6127 -0.2975
 4221SOL    HW115809   7.513   1.248   1.075  2.2638  0.9672  1.1075
 4221SOL    HW215810   7.582   1.121   1.030 -0.0928 -0.3341  1.0253
 4222SOL     OW15811   1.716   6.935   3.969 -0.1056  0.1469 -0.0931
 4222SOL    HW115812   1.732   6.935   4.063 -0.2043 -0.8128 -0.0675
 4222SOL    HW215813   1.796   6.971   3.931  0.2274 -0.1603  0.3129
 4223SOL     OW15814   0.997   7.675   5.216  0.4573 -0.5726 -0.4433
 4223SOL    HW115815   1.017   7.694   5.125 -0.4086 -1.2681 -0.7987
 4223SOL    HW215816   1.030   7.587   5.231 -0.9878 -1.1837 -0.6384
 4224SOL     OW15817   0.469   0.853   1.931 -0.1451  0.1214 -0.4170
 4224SOL    HW115818   0.444   0.816   2.016  1.7633 -0.2041  0.0462
 4224SOL    HW215819   0.514   0.934   1.953  2.4740 -1.1024 -0.8880
 4225SOL     OW15820   6.895   0.399   0.118  0.0862 -0.2640  0.0283
 4225SOL    HW115821   6.869   0.437   0.035 -0.5395 -2.0032 -0.6265
 4225SOL    HW215822   6.857   0.311   0.117  1.1875 -0.8052  1.5799
 4226SOL     OW15823   7.016   3.630   6.622 -1.3148  0.8209  0.4055
 4226SOL    HW115824   7.012   3.565   6.692 -1.7037  0.4311  0.0276
 4226SOL    HW215825   7.109   3.634   6.598 -1.4484 -0.5347 -0.4236
 4227SOL     OW15826   1.129   0.977   4.463  0.5048 -0.4912 -0.0029
 4227SOL    HW115827   1.201   0.914   4.473  0.8471  0.1655  2.2008
 4227SOL    HW215828   1.140   1.012   4.374  3.2064 -0.0721  0.4226
 4228SOL     OW15829   4.343   2.005   3.468  0.2326  0.2043 -0.3488
 4228SOL    HW115830   4.385   2.013   3.383 -0.3896 -2.0438 -0.9294
 4228SOL    HW215831   4.253   2.033   3.454  0.4374  1.0062 -0.1128
 4229SOL     OW15832   2.019   2.615   7.089 -0.2554  0.3637  0.2403
 4229SOL    HW115833   2.074   2.559   7.145  0.4310  0.1395 -0.6372
 4229SOL    HW215834   2.027   2.577   7.002 -1.5043  0.5706  0.0190
 4230SOL     OW15835   0.182   6.347   7.788 -0.1358  0.4992  0.0715
 4230SOL    HW115836   0.206   6.334   7.879  1.5644 -0.0776 -0.4137
 4230SOL    HW215837   0.216   6.434   7.765  4.8226 -1.4681 -1.4642
 4231SOL     OW15838   3.235   6.994   8.045  0.0118  0.4285  0.8503
 4231SOL    HW115839   3.241   7.089   8.056  1.1181  0.3689  0.8460
 4231SOL    HW215840   3.142   6.978   8.033 -0.1546  1.5647  0.4444
 4232SOL     OW15841   7.917   0.195   1.812  0.3716 -0.0717 -0.4788
 4232SOL    HW115842   8.009   0.169   1.808  0.3709 -0.7909  2.3513
 4232SOL    HW215843   7.874   0.127   1.864 -1.5699  0.8143 -0.7997
 4233SOL     OW15844   2.575   6.642   6.464  0.0004  0.1035  0.6096
 4233SOL    HW115845   2.665   6.671   6.447 -0.0050 -0.3260 -0.1999
 4233SOL    HW215846   2.567   6.559   6.417 -0.9240  0.3058  0.3857
 4234SOL     OW15847   7.230   0.648   6.245 -0.0555 -0.5124 -0.2670
 4234SOL    HW115848   7.320   0.616   6.244  0.5569  1.0576  0.4629
 4234SOL    HW215849   7.225   0.707   6.170 -0.1105  0.2776  0.3452
 4235SOL     OW15850   0.152   6.983   3.179 -0.1128  0.2530  0.0602
 4235SOL    HW115851   0.112   7.060   3.219 -1.2358 -0.1997 -0.1468
 4235SOL    HW215852   0.163   6.921   3.252  3.2936  1.5068  0.7958
 4236SOL     OW15853   2.607   6.534   1.850  0.1400  0.4273  0.4758
 4236SOL    HW115854   2.602   6.510   1.757 -0.4133  0.3399  0.5298
 4236SOL    HW215855   2.531   6.493   1.890  0.6003  0.1136  1.0540
 4237SOL     OW15856   3.009   0.928   7.779 -1.1079  0.0025  0.2790
 4237SOL    HW115857   3.011   0.860   7.712 -0.3813  0.3307 -0.0526
 4237SOL    HW215858   3.040   1.006   7.734 -0.5399  0.2112  1.0103
 4238SOL     OW15859   2.391   1.139   2.156 -0.6471  0.3335 -0.2927
 4238SOL    HW115860   2.433   1.071   2.209  1.8791  1.1129 -1.1469
 4238SOL    HW215861   2.356   1.092   2.080  0.1555 -0.1459 -0.3720
 4239SOL     OW15862   3.021   2.693   5.160  0.3020 -0.3701 -0.2595
 4239SOL    HW115863   3.053   2.742   5.084  1.9395 -0.6185  0.2284
 4239SOL    HW215864   3.090   2.630   5.178 -0.1057 -0.3937  1.3680
 4240SOL     OW15865   6.461   5.663   5.405  0.3460  0.7611  0.2726
 4240SOL    HW115866   6.525   5.594   5.385  0.8000  1.2556 -0.0058
 4240SOL    HW215867   6.496   5.707   5.482 -1.2979 -0.9991  2.1482
 4241SOL     OW15868   2.302   5.527   7.707  0.2316 -0.0880  0.2474
 4241SOL    HW115869   2.380   5.533   7.762 -0.4542  1.1001  1.1330
 4241SOL    HW215870   2.229   5.519   7.768 -0.6208  2.0263 -0.3792
 4242SOL     OW15871   7.614   0.592   0.066 -0.1910 -0.1160  0.1958
 4242SOL    HW115872   7.692   0.560   0.022  0.3166  2.3499 -0.8692
 4242SOL    HW215873   7.551   0.607  -0.005 -0.7105  0.3573  0.7497
 4243SOL     OW15874   1.196   4.199   4.616 -0.1085  0.9427 -1.1167
 4243SOL    HW115875   1.209   4.116   4.662 -0.2983  1.2999 -0.3996
 4243SOL    HW215876   1.272   4.207   4.558  0.0065  0.3620 -1.0464
 4244SOL     OW15877   8.093   1.706   0.550  0.3838 -0.1841  0.5800
 4244SOL    HW115878   8.090   1.650   0.472 -2.1230 -1.1192  1.2436
 4244SOL    HW215879   8.028   1.774   0.533  2.1129  1.5638  0.5626
 4245SOL     OW15880   5.172   6.090   5.340  0.3522 -0.8112 -0.0123
 4245SOL    HW115881   5.148   6.142   5.417  0.5694 -1.7790  0.7292
 4245SOL    HW215882   5.173   6.000   5.372  3.1602 -1.0014 -0.4234
 4246SOL     OW15883   5.231   0.315   0.609  0.1220 -0.4046 -0.0297
 4246SOL    HW115884   5.217   0.225   0.640 -2.4761 -0.3429 -0.8137
 4246SOL    HW215885   5.297   0.306   0.540  2.5507 -1.1579  2.2324
 4247SOL     OW15886   7.331   0.154   7.926 -0.4730 -0.0232 -0.5163
 4247SOL    HW115887   7.424   0.131   7.921 -0.2552  0.4281  0.9671
 4247SOL    HW215888   7.328   0.249   7.915 -0.8882 -0.1671 -1.7442
 4248SOL     OW15889   3.758   1.411   7.872 -0.1641 -0.0772 -0.1394
 4248SOL    HW115890   3.821   1.471   7.912  1.1376 -0.0343 -2.0890
 4248SOL    HW215891   3.779   1.415   7.778 -2.4383 -0.8388 -0.7283
 4249SOL     OW15892   6.562   4.358   2.636  0.0296 -0.2343 -0.2222
 4249SOL    HW115893   6.607   4.281   2.603  0.3768 -1.1262  2.1212
 4249SOL    HW215894   6.603   4.375   2.721 -1.6743  1.0710  0.3988
 4250SOL     OW15895   7.992   0.428   3.938  0.2417 -0.1814  0.0297
 4250SOL    HW115896   7.986   0.514   3.978  0.1055 -0.0090 -0.3602
 4250SOL    HW215897   8.073   0.391   3.974 -0.3964 -0.4477  1.2576
 4251SOL     OW15898   0.167   4.869   2.703 -0.6796 -0.3044  0.1470
 4251SOL    HW115899   0.152   4.778   2.729 -1.4381 -0.4080 -0.6088
 4251SOL    HW215900   0.079   4.906   2.695 -0.3677  0.7060  1.1223
 4252SOL     OW15901   0.092   4.355   5.940  0.3762  0.1540 -0.4961
 4252SOL    HW115902   0.042   4.296   5.996 -0.5189  1.0920 -0.2784
 4252SOL    HW215903   0.084   4.318   5.852 -1.4324  0.7259 -0.6069
 4253SOL     OW15904   0.553   4.956   6.179 -0.8860 -0.1148  0.1471
 4253SOL    HW115905   0.490   4.968   6.108  0.1889  0.3209 -0.7609
 4253SOL    HW215906   0.563   4.861   6.186 -0.6213 -0.1505 -0.6363
 4254SOL     OW15907   3.895   5.080   0.752  0.1056  0.0180 -0.2131
 4254SOL    HW115908   3.918   5.158   0.802 -0.5802 -0.9418  1.7412
 4254SOL    HW215909   3.909   5.104   0.661  0.3025  2.2695  0.3540
 4255SOL     OW15910   7.949   5.353   5.756 -0.7109 -0.6925  0.2860
 4255SOL    HW115911   7.959   5.281   5.819  0.0886 -0.2425  0.6843
 4255SOL    HW215912   8.028   5.405   5.766 -1.2895  0.2624  0.0124
 4256SOL     OW15913   3.341   2.183   0.222  0.1863  0.6407  0.0317
 4256SOL    HW115914   3.296   2.099   0.228 -1.2216  1.2900 -0.9414
 4256SOL    HW215915   3.296   2.230   0.152  1.1036  2.1084  0.3774
 4257SOL     OW15916   0.047   1.996   5.749 -0.0208 -0.3167  0.6454
 4257SOL    HW115917  -0.011   2.060   5.708 -0.8024 -0.8985  0.8039
 4257SOL    HW215918   0.135   2.032   5.739 -0.3380  0.2196 -0.2921
 4258SOL     OW15919   1.428   6.373   6.375  0.3928  0.2898 -0.5224
 4258SOL    HW115920   1.371   6.448   6.357 -0.5101 -0.0825  0.6780
 4258SOL    HW215921   1.458   6.345   6.289 -1.3490  0.4261 -1.2191
 4259SOL     OW15922   4.383   1.479   2.948 -0.3592 -0.3175  0.4513
 4259SOL    HW115923   4.468   1.462   2.908 -0.4095  1.8181 -0.6810
 4259SOL    HW215924   4.380   1.420   3.023  2.5310  0.2110  1.0913
 4260SOL     OW15925   5.092   7.818   2.977  0.0386  0.5890 -0.5613
 4260SOL    HW115926   5.138   7.734   2.970  0.1639  0.4846  1.0359
 4260SOL    HW215927   5.099   7.840   3.070 -0.5340  2.0709 -0.8571
 4261SOL     OW15928   2.798   5.519   5.801  0.2084  0.3149  0.2079
 4261SOL    HW115929   2.800   5.518   5.706 -0.1572 -0.6099  0.1962
 4261SOL    HW215930   2.889   5.534   5.827  0.3674  0.2106 -0.2837
 4262SOL     OW15931   2.424   1.648   6.999 -0.1735  0.2339  0.6111
 4262SOL    HW115932   2.397   1.606   6.918  0.5703  0.1931  0.3713
 4262SOL    HW215933   2.508   1.607   7.020  0.0968  0.9163  0.8866
 4263SOL     OW15934   5.958   4.929   5.681 -0.1619 -0.0215  0.1358
 4263SOL    HW115935   5.941   5.013   5.725  0.4516  0.8137 -1.1730
 4263SOL    HW215936   5.877   4.880   5.692  0.3469 -0.3815  3.2540
 4264SOL     OW15937   5.175   7.733   6.749 -0.1040  0.5120 -0.8765
 4264SOL    HW115938   5.260   7.737   6.704 -1.1295 -1.3381 -3.1643
 4264SOL    HW215939   5.182   7.656   6.806 -0.6054 -0.3839 -1.9866
 4265SOL     OW15940   1.670   6.113   7.563  0.2976  0.0292 -0.1397
 4265SOL    HW115941   1.648   6.084   7.474 -1.1674 -1.8920  0.7807
 4265SOL    HW215942   1.755   6.155   7.554  0.7124 -1.1267 -2.2688
 4266SOL     OW15943   2.361   0.317   6.999 -0.1979  0.0536  0.2316
 4266SOL    HW115944   2.345   0.411   7.003  2.0506  0.4763  1.0172
 4266SOL    HW215945   2.303   0.285   6.930 -0.6455  2.0946 -0.4033
 4267SOL     OW15946   4.086   2.386   5.190 -0.1575 -0.3078  0.5502
 4267SOL    HW115947   4.058   2.406   5.100 -0.7333  1.4976  1.0832
 4267SOL    HW215948   4.135   2.463   5.218  0.1774 -0.9201  1.7215
 4268SOL     OW15949   7.894   5.008   0.982 -0.2158  0.0800  0.9260
 4268SOL    HW115950   7.953   4.962   0.922  0.8318 -0.6417  2.4382
 4268SOL    HW215951   7.830   4.942   1.008  0.0771  0.0236  1.5336
 4269SOL     OW15952   4.859   2.373   5.693  0.0363  0.3749 -0.0962
 4269SOL    HW115953   4.872   2.351   5.601 -1.6123  0.4232 -0.3807
 4269SOL    HW215954   4.769   2.345   5.711 -0.2201  1.8193  1.0548
 4270SOL     OW15955   3.007   7.575   1.241  0.0570  0.1771 -0.0047
 4270SOL    HW115956   2.917   7.556   1.267  0.9837 -3.0849  1.4003
 4270SOL    HW215957   3.057   7.567   1.323  1.8485 -0.1076 -1.0820
 4271SOL     OW15958   6.146   3.614   4.216 -0.4498 -0.3337  0.0363
 4271SOL    HW115959   6.225   3.568   4.242  0.6108  1.2609 -0.2131
 4271SOL    HW215960   6.078   3.547   4.216  0.6648 -1.5229  1.3136
 4272SOL     OW15961   6.939   3.426   5.528  0.1848  0.5722 -0.6384
 4272SOL    HW115962   6.881   3.360   5.565  0.4891  1.1269  0.8956
 4272SOL    HW215963   6.924   3.420   5.433 -2.0323  0.3849 -0.3395
 4273SOL     OW15964   1.847   7.902   0.256 -0.2051  0.7402 -0.0573
 4273SOL    HW115965   1.874   7.987   0.291  1.9150  0.7781 -1.6128
 4273SOL    HW215966   1.805   7.923   0.172 -0.9006  0.3265  0.1792
 4274SOL     OW15967   7.644   4.108   6.219  0.6381  0.2004  0.6858
 4274SOL    HW115968   7.636   4.067   6.305  0.8491  0.6076  0.9011
 4274SOL    HW215969   7.625   4.200   6.235  1.2422  0.3772  0.3950
 4275SOL     OW15970   6.904   5.051   3.961 -0.4562  0.1319 -0.1277
 4275SOL    HW115971   6.924   5.142   3.938  1.1920 -0.6265 -1.9851
 4275SOL    HW215972   6.811   5.041   3.939 -0.0479  0.7279 -2.3426
 4276SOL     OW15973   6.218   5.600   4.025  0.0824  0.0430 -0.3287
 4276SOL    HW115974   6.229   5.532   3.959  4.9632 -0.5209  0.7009
 4276SOL    HW215975   6.202   5.552   4.107 -1.3902  0.4924 -0.3228
 4277SOL     OW15976   5.792   5.209   6.609  0.0581 -0.4738 -0.5757
 4277SOL    HW115977   5.798   5.131   6.664 -0.1252 -0.2966 -0.3068
 4277SOL    HW215978   5.882   5.228   6.584  0.4172  0.7537  1.4759
 4278SOL     OW15979   7.085   3.995   6.430  0.1557 -0.2167 -0.0990
 4278SOL    HW115980   7.102   3.998   6.336 -0.5934  0.0408 -0.2406
 4278SOL    HW215981   7.076   4.087   6.456 -1.8963 -0.3131 -0.2468
 4279SOL     OW15982   7.335   3.145   1.669  0.6683  0.1360 -0.3354
 4279SOL    HW115983   7.331   3.240   1.659  2.1032  0.3617  0.8807
 4279SOL    HW215984   7.308   3.129   1.759  0.8996 -0.5639 -0.3854
 4280SOL     OW15985   6.542   6.295   1.703  0.3703 -0.4333 -0.0508
 4280SOL    HW115986   6.576   6.384   1.717 -0.6592  0.0706 -0.6089
 4280SOL    HW215987   6.582   6.266   1.622 -0.9367  0.4011 -1.0419
 4281SOL     OW15988   1.110   4.402   7.525  0.3239 -0.2988 -0.4038
 4281SOL    HW115989   1.041   4.458   7.491  0.7732  0.3522 -0.2681
 4281SOL    HW215990   1.065   4.323   7.556 -0.4023  0.3046  0.0982
 4282SOL     OW15991   1.900   2.485   2.314  0.0732  0.2180 -0.3436
 4282SOL    HW115992   1.856   2.556   2.267  0.7382  1.5882  1.0143
 4282SOL    HW215993   1.834   2.451   2.375 -0.1429 -0.1216 -0.7603
 4283SOL     OW15994   2.987   2.954   3.231  0.2158 -0.4255  0.3563
 4283SOL    HW115995   3.079   2.955   3.207 -0.0825  1.5321 -0.9035
 4283SOL    HW215996   2.979   3.018   3.302 -0.3770  0.4839 -0.5048
 4284SOL     OW15997   3.105   3.109   5.973 -0.2913  0.1171  0.2065
 4284SOL    HW115998   3.011   3.127   5.982 -1.1161 -3.3092 -0.3780
 4284SOL    HW215999   3.115   3.082   5.882  1.9132  3.1052 -0.6193
 4285SOL     OW16000   3.991   1.033   0.722 -0.6061  0.0388  0.5400
 4285SOL    HW116001   3.967   1.039   0.630 -0.6974 -0.3577  0.5349
 4285SOL    HW216002   4.082   1.002   0.721 -0.9435 -1.0007  0.5896
 4286SOL     OW16003   0.257   6.273   4.737 -0.3536  0.1176 -0.0025
 4286SOL    HW116004   0.205   6.223   4.674 -0.8958  1.2700 -0.4878
 4286SOL    HW216005   0.325   6.315   4.685 -1.5229  2.0486 -0.0664
 4287SOL     OW16006   3.057   5.484   5.204  0.0649  0.4260 -0.8819
 4287SOL    HW116007   3.004   5.416   5.247 -0.6917  2.1956  1.1881
 4287SOL    HW216008   3.147   5.463   5.229  0.0877 -0.9462 -1.9974
 4288SOL     OW16009   5.877   6.397   1.115  0.2876 -0.0741 -0.3979
 4288SOL    HW116010   5.788   6.364   1.106 -0.7659  2.1353  0.9515
 4288SOL    HW216011   5.915   6.388   1.027 -0.9978 -1.6683 -0.8466
 4289SOL     OW16012   2.241   3.315   3.395  0.0824 -0.2957 -0.5019
 4289SOL    HW116013   2.175   3.268   3.344 -2.1845  1.5515  0.5441
 4289SOL    HW216014   2.258   3.259   3.471 -0.3452 -0.7393 -0.7334
 4290SOL     OW16015   3.126   0.639   0.897  0.1367 -0.0680  0.2277
 4290SOL    HW116016   3.198   0.701   0.885  0.6132 -0.2284  2.0507
 4290SOL    HW216017   3.064   0.685   0.953 -0.6348 -0.3800 -0.3493
 4291SOL     OW16018   1.931   5.891   7.612 -0.2960  0.0377  0.0941
 4291SOL    HW116019   1.934   5.986   7.599 -0.1237  0.1053  0.6104
 4291SOL    HW216020   1.977   5.855   7.536  0.6775  0.4192  0.4899
 4292SOL     OW16021   4.568   6.609   4.457  0.5114 -0.2296 -0.3393
 4292SOL    HW116022   4.607   6.679   4.509  0.7272 -0.7895  0.2517
 4292SOL    HW216023   4.488   6.648   4.421  0.5830  0.2885  0.0587
 4293SOL     OW16024   4.857   3.146   6.450 -0.2136  0.1009  0.2343
 4293SOL    HW116025   4.813   3.146   6.535  0.7486 -1.7237  0.7869
 4293SOL    HW216026   4.827   3.226   6.407 -0.9928  0.8851  2.1448
 4294SOL     OW16027   3.558   1.509   1.613 -0.0105  0.1942  0.1259
 4294SOL    HW116028   3.631   1.455   1.583 -0.8342 -1.8688  1.5395
 4294SOL    HW216029   3.506   1.449   1.667 -0.9900  2.4677  1.8308
 4295SOL     OW16030   6.006   2.275   2.479 -0.1610 -0.4015  0.0126
 4295SOL    HW116031   5.973   2.321   2.556 -0.8337 -1.0440  0.1189
 4295SOL    HW216032   6.070   2.335   2.441 -0.9177  0.5709  0.2281
 4296SOL     OW16033   8.013   4.144   4.452 -0.0911 -0.3290  1.0585
 4296SOL    HW116034   7.930   4.114   4.488 -0.1900 -0.5627  0.6440
 4296SOL    HW216035   7.993   4.164   4.360  0.4516 -0.9833  0.7911
 4297SOL     OW16036   5.861   0.611   7.369  0.3419 -0.7721  0.4785
 4297SOL    HW116037   5.771   0.625   7.337  0.3378 -1.4836  0.1482
 4297SOL    HW216038   5.916   0.648   7.300  0.3346 -2.4204 -0.4477
 4298SOL     OW16039   7.031   5.427   4.443  0.6415 -0.2693  0.2459
 4298SOL    HW116040   7.104   5.366   4.434  1.2539  0.6206 -0.9592
 4298SOL    HW216041   7.003   5.446   4.354  0.1287  0.8261  0.6165
 4299SOL     OW16042   2.705   1.140   4.189 -0.3097 -0.3154 -0.3574
 4299SOL    HW116043   2.667   1.188   4.262  1.3489  0.8661 -0.1989
 4299SOL    HW216044   2.647   1.158   4.116 -0.1892  1.3270 -0.1048
 4300SOL     OW16045   3.840   1.466   2.505  0.3841  0.2114 -0.4125
 4300SOL    HW116046   3.877   1.378   2.501 -0.3876 -0.2765  1.6180
 4300SOL    HW216047   3.752   1.453   2.540  1.5708  1.9490  3.9682
 4301SOL     OW16048   5.514   5.522   0.966  0.7313  0.0294 -0.5037
 4301SOL    HW116049   5.483   5.564   1.046  0.1006  0.1865 -0.8235
 4301SOL    HW216050   5.437   5.519   0.909  1.2453  0.2068 -1.2248
 4302SOL     OW16051   5.714   0.059   5.235 -0.3107  0.2191  0.2171
 4302SOL    HW116052   5.792   0.006   5.221 -0.8986 -0.2689 -1.3997
 4302SOL    HW216053   5.743   0.149   5.221 -0.1094  0.0097 -0.7667
 4303SOL     OW16054   4.493   1.880   2.484 -0.8374  0.3117 -0.4001
 4303SOL    HW116055   4.448   1.849   2.405 -0.8633  1.9754 -1.0727
 4303SOL    HW216056   4.425   1.882   2.551 -1.3678  1.0581 -0.9384
 4304SOL     OW16057   0.562   0.949   5.392  0.1538  0.6399 -0.2110
 4304SOL    HW116058   0.610   0.907   5.462 -0.0248  1.7200  0.5769
 4304SOL    HW216059   0.525   0.876   5.341  1.3016 -0.1624  0.0815
 4305SOL     OW16060   7.417   7.598   3.985  0.4150 -0.7731  0.2296
 4305SOL    HW116061   7.377   7.685   3.976  0.8996 -0.3962  1.3922
 4305SOL    HW216062   7.428   7.566   3.896  0.5346  0.5136 -0.2327
 4306SOL     OW16063   3.990   5.988   3.963 -0.2210 -0.1021 -0.5010
 4306SOL    HW116064   4.063   6.012   4.020  0.0263 -0.5327 -0.6348
 4306SOL    HW216065   3.960   6.072   3.926 -0.5660  0.2206  0.4651
 4307SOL     OW16066   7.641   1.281   2.572 -0.3085 -0.1090 -0.4845
 4307SOL    HW116067   7.563   1.285   2.628 -1.1785 -2.3738 -1.4452
 4307SOL    HW216068   7.607   1.263   2.485  1.0976  2.5283 -1.7059
 4308SOL     OW16069   4.415   4.698   1.557 -0.1393  0.2403  0.4553
 4308SOL    HW116070   4.388   4.617   1.514 -0.8350  0.1784  0.9798
 4308SOL    HW216071   4.503   4.714   1.525  0.8091 -1.7883  1.8226
 4309SOL     OW16072   2.694   5.843   7.303  0.0259  0.1453  0.0943
 4309SOL    HW116073   2.623   5.781   7.321  1.0901 -0.7698  1.2741
 4309SOL    HW216074   2.672   5.880   7.217 -1.1726 -1.0940 -0.1641
 4310SOL     OW16075   7.639   3.268   5.478  0.8626 -0.1729  0.3035
 4310SOL    HW116076   7.730   3.259   5.449  0.5903  0.4833 -0.8290
 4310SOL    HW216077   7.612   3.179   5.500  1.3597 -0.5862 -0.6915
 4311SOL     OW16078   0.158   7.978   5.257 -0.3246 -0.2592  0.4456
 4311SOL    HW116079   0.111   7.898   5.282  0.7903 -0.8887  0.5984
 4311SOL    HW216080   0.229   7.947   5.200 -2.0409  0.9949 -2.6263
 4312SOL     OW16081   7.784   0.748   4.772 -0.5554  0.2334  0.2791
 4312SOL    HW116082   7.825   0.747   4.859 -1.2283  1.4700  0.6325
 4312SOL    HW216083   7.792   0.839   4.743 -0.9432 -0.0244 -0.6578
 4313SOL     OW16084   1.703   5.454   6.920 -0.1340 -0.5416  0.0002
 4313SOL    HW116085   1.625   5.457   6.975 -0.6047  0.6495 -0.6988
 4313SOL    HW216086   1.684   5.513   6.847  1.5579  0.0516 -0.0120
 4314SOL     OW16087   0.409   6.703   6.966  0.0132  0.4173  0.1074
 4314SOL    HW116088   0.394   6.641   7.037 -1.3191  1.0279  0.3984
 4314SOL    HW216089   0.343   6.772   6.980  0.8715  1.4431 -0.7107
 4315SOL     OW16090   7.695   1.504   1.632  0.0603  0.1845  0.3690
 4315SOL    HW116091   7.738   1.496   1.546 -1.6043 -1.3230 -0.4020
 4315SOL    HW216092   7.705   1.417   1.671 -1.4957  0.0461  0.5177
 4316SOL     OW16093   6.908   7.004   7.789 -0.2376  0.4743  0.1856
 4316SOL    HW116094   6.830   6.967   7.831 -0.7677  0.3114 -0.8995
 4316SOL    HW216095   6.888   7.002   7.695  1.2679 -0.0287 -0.1629
 4317SOL     OW16096   1.590   6.310   0.166 -0.0918  0.2375 -0.1517
 4317SOL    HW116097   1.555   6.366   0.096  0.1951  0.2114 -0.3178
 4317SOL    HW216098   1.570   6.358   0.246  1.6680  1.4635 -0.3705
 4318SOL     OW16099   1.143   3.747   0.565  0.8099 -0.4102  0.2245
 4318SOL    HW116100   1.216   3.788   0.612 -0.5362  1.7088  0.6118
 4318SOL    HW216101   1.127   3.806   0.492 -1.6436  0.2245  1.1816
 4319SOL     OW16102   3.533   2.216   4.840  0.5529  0.4557  0.7991
 4319SOL    HW116103   3.533   2.228   4.745 -1.3864 -0.3956  0.6461
 4319SOL    HW216104   3.557   2.124   4.852 -1.8400 -0.2274  0.9139
 4320SOL     OW16105   6.149   3.872   7.032 -0.2533  0.5439  0.4278
 4320SOL    HW116106   6.127   3.901   7.121 -0.4070  0.6834  0.3441
 4320SOL    HW216107   6.237   3.835   7.040 -0.4928  0.0252  0.7586
 4321SOL     OW16108   4.738   6.823   7.131 -0.0519  0.4238 -0.3708
 4321SOL    HW116109   4.765   6.784   7.214  2.4571  1.1894 -0.7387
 4321SOL    HW216110   4.745   6.751   7.068  1.4335  0.6097 -0.4725
 4322SOL     OW16111   2.157   7.568   0.944  0.3732 -0.5064 -0.7870
 4322SOL    HW116112   2.078   7.608   0.907 -0.0316 -0.7447 -0.1818
 4322SOL    HW216113   2.220   7.640   0.946 -0.5417  0.3112  0.8858
 4323SOL     OW16114   5.344   1.890   0.229  0.5771 -0.1168 -0.3184
 4323SOL    HW116115   5.263   1.942   0.226  0.3006 -0.4732  0.5629
 4323SOL    HW216116   5.330   1.829   0.302  1.2717 -0.8072 -0.7509
 4324SOL     OW16117   2.314   4.161   4.825  0.6045 -0.2615  0.9170
 4324SOL    HW116118   2.277   4.243   4.857 -0.7132 -0.3921 -0.1654
 4324SOL    HW216119   2.358   4.184   4.743 -0.4731 -0.7329  0.1783
 4325SOL     OW16120   5.369   4.764   1.443 -0.2269 -0.2571  0.1304
 4325SOL    HW116121   5.366   4.827   1.515  1.5784 -1.0449  0.9487
 4325SOL    HW216122   5.375   4.679   1.486  0.6899 -0.7540 -0.9501
 4326SOL     OW16123   0.661   5.026   8.096 -0.3800  0.4542 -0.4206
 4326SOL    HW116124   0.705   4.985   8.170  0.5385 -0.4533 -1.4268
 4326SOL    HW216125   0.731   5.040   8.032 -1.0946  1.5259 -0.9985
 4327SOL     OW16126   5.425   3.946   0.489  0.1065 -0.1436  0.3144
 4327SOL    HW116127   5.336   3.937   0.454 -0.5566  1.1061  1.6032
 4327SOL    HW216128   5.415   3.996   0.569  1.7173 -1.9174  1.7278
 4328SOL     OW16129   0.646   4.159   6.070  0.5625  0.3292 -0.2203
 4328SOL    HW116130   0.711   4.096   6.038 -0.1796 -0.8323  0.4755
 4328SOL    HW216131   0.596   4.184   5.992  0.8959  0.0906 -0.5133
 4329SOL     OW16132   7.555   3.619   0.960 -0.1344 -0.2228 -0.2314
 4329SOL    HW116133   7.576   3.582   1.046  0.0923  1.6943  0.5930
 4329SOL    HW216134   7.515   3.704   0.980 -0.5010  0.0582 -2.0206
 4330SOL     OW16135   1.661   6.734   5.530 -0.1895 -0.4642  0.0178
 4330SOL    HW116136   1.663   6.789   5.452  0.8657 -2.2902 -1.3088
 4330SOL    HW216137   1.702   6.652   5.503 -1.6566 -1.9110  1.9164
 4331SOL     OW16138   7.529   7.692   5.839 -0.5970 -0.0830  0.2437
 4331SOL    HW116139   7.555   7.605   5.869 -0.7852  0.6770  2.8512
 4331SOL    HW216140   7.450   7.711   5.889 -1.4802  0.9616 -1.4871
 4332SOL     OW16141   5.594   6.830   5.316 -0.5402  0.3749  0.7161
 4332SOL    HW116142   5.559   6.741   5.309  0.5754 -0.1840  1.7857
 4332SOL    HW216143   5.623   6.851   5.228  1.2111 -1.2452  0.8117
 4333SOL     OW16144   7.361   7.227   2.760 -0.0810  0.1903 -0.5206
 4333SOL    HW116145   7.359   7.209   2.854  0.2478 -0.3122 -0.6097
 4333SOL    HW216146   7.274   7.263   2.742 -0.5476 -0.7479 -0.2262
 4334SOL     OW16147   1.387   3.932   3.770  0.1694  0.5695  0.0167
 4334SOL    HW116148   1.336   3.960   3.695  0.5732 -1.3544 -1.0534
 4334SOL    HW216149   1.478   3.951   3.746  0.3126 -0.1906 -0.0655
 4335SOL     OW16150   2.172   4.263   1.046 -0.6729  0.7992 -0.6978
 4335SOL    HW116151   2.136   4.311   0.971  0.6704  2.3579 -0.3937
 4335SOL    HW216152   2.191   4.330   1.111  2.9617  0.1569 -0.9271
 4336SOL     OW16153   5.632   3.900   2.455 -0.0802  0.4005  0.5665
 4336SOL    HW116154   5.558   3.868   2.506  1.4327 -1.4541  1.7403
 4336SOL    HW216155   5.628   3.850   2.373  1.9090 -2.6772  2.1405
 4337SOL     OW16156   3.099   3.527   6.949  0.1542  0.3805  0.0476
 4337SOL    HW116157   3.194   3.525   6.934  0.3726  0.3571  1.2775
 4337SOL    HW216158   3.073   3.617   6.928  0.3390  0.2148 -0.8927
 4338SOL     OW16159   6.564   0.951   3.233  0.2034  0.1712  0.6111
 4338SOL    HW116160   6.575   0.861   3.202  2.3957  0.1907  1.1337
 4338SOL    HW216161   6.488   0.984   3.186 -0.7378 -1.9793  0.4990
 4339SOL     OW16162   4.569   1.845   4.392  0.2317  0.3346  0.2709
 4339SOL    HW116163   4.638   1.800   4.440  0.8793  0.1343 -0.8070
 4339SOL    HW216164   4.496   1.784   4.390  0.1494  0.4055  1.1160
 4340SOL     OW16165   5.141   5.509   7.904 -0.4433 -0.1272  0.5598
 4340SOL    HW116166   5.170   5.586   7.854 -1.3415  1.2358  2.0572
 4340SOL    HW216167   5.206   5.442   7.883  0.4640  1.0679 -0.6769
 4341SOL     OW16168   7.313   6.694   1.584  0.1841 -0.4141 -0.0145
 4341SOL    HW116169   7.356   6.744   1.515 -0.4759  0.9377  0.5107
 4341SOL    HW216170   7.371   6.704   1.660  0.7322 -1.6038 -0.2576
 4342SOL     OW16171   0.789   6.974   5.740  0.2449 -0.6529 -0.3079
 4342SOL    HW116172   0.861   6.947   5.797  0.2463 -1.8048 -0.8448
 4342SOL    HW216173   0.732   7.026   5.797  1.5792  0.4679  0.0854
 4343SOL     OW16174   2.808   2.845   0.020 -0.3618  0.0580  0.6483
 4343SOL    HW116175   2.823   2.840  -0.074  1.0718  0.0721  0.8457
 4343SOL    HW216176   2.877   2.790   0.058 -2.4225 -2.0149  1.6097
 4344SOL     OW16177   1.353   5.202   1.788 -0.0544 -0.0145  0.0567
 4344SOL    HW116178   1.383   5.293   1.793  1.7333 -0.4366 -1.4003
 4344SOL    HW216179   1.327   5.190   1.696 -0.0243 -1.0270  0.1617
 4345SOL     OW16180   1.871   0.346   7.889 -0.4010 -1.0727 -0.3067
 4345SOL    HW116181   1.914   0.332   7.804  1.1752 -1.5174  0.5287
 4345SOL    HW216182   1.943   0.348   7.952 -1.5578 -0.8623  1.0450
 4346SOL     OW16183   0.138   0.516   5.622 -0.3650  0.0410  0.0312
 4346SOL    HW116184   0.100   0.520   5.709  0.0009 -2.1628  0.3573
 4346SOL    HW216185   0.082   0.454   5.574 -0.9302  1.6828 -1.5309
 4347SOL     OW16186   1.307   1.965   3.451  0.1874 -0.1893  0.6040
 4347SOL    HW116187   1.359   1.889   3.479  1.3209 -0.3828 -1.7426
 4347SOL    HW216188   1.364   2.040   3.467  0.5624 -0.2354 -0.4345
 4348SOL     OW16189   1.247   5.978   0.907 -0.1564  0.2877  1.0853
 4348SOL    HW116190   1.229   5.924   0.830  0.6958  1.3526  0.0920
 4348SOL    HW216191   1.188   5.945   0.974 -1.7043  0.0163 -0.3411
 4349SOL     OW16192   2.456   5.354   3.962  0.5472  0.5709  0.2029
 4349SOL    HW116193   2.473   5.444   3.988  0.2449  0.9586 -0.9077
 4349SOL    HW216194   2.398   5.320   4.030  1.4994  0.8640  1.1919
 4350SOL     OW16195   0.434   0.034   3.699  0.5808  0.1991  0.4054
 4350SOL    HW116196   0.424   0.094   3.774 -0.6055 -0.3669  0.7229
 4350SOL    HW216197   0.497   0.078   3.642 -0.4401  1.8808  0.5058
 4351SOL     OW16198   1.057   6.926   0.593 -0.3903  0.2628  0.0368
 4351SOL    HW116199   1.003   6.881   0.658 -3.1683  0.9969 -1.5746
 4351SOL    HW216200   1.146   6.894   0.608 -1.5775 -2.6320  1.5508
 4352SOL     OW16201   1.849   0.725   3.360 -0.9304 -0.1768  0.2308
 4352SOL    HW116202   1.848   0.819   3.340 -0.9155 -0.1816  0.2072
 4352SOL    HW216203   1.784   0.688   3.301 -1.4488 -0.0824  0.7365
 4353SOL     OW16204   2.300   5.556   5.757  0.3402  0.8876  0.6377
 4353SOL    HW116205   2.261   5.490   5.813  1.7045  1.3937  2.2841
 4353SOL    HW216206   2.250   5.552   5.676 -2.2009  0.6165  2.1254
 4354SOL     OW16207   6.290   8.026   1.543 -0.7459 -0.0853 -0.3220
 4354SOL    HW116208   6.259   7.957   1.601 -2.3924 -0.3076 -1.3976
 4354SOL    HW216209   6.211   8.063   1.504  0.1258  2.0754 -0.1874
 4355SOL     OW16210   7.159   6.468   6.342 -0.1377 -0.4064  0.3781
 4355SOL    HW116211   7.195   6.485   6.429 -1.5107  0.8913  0.7360
 4355SOL    HW216212   7.127   6.553   6.312 -1.0437 -1.1198 -0.7596
 4356SOL     OW16213   3.114   0.335   6.736 -0.6166 -0.4330  0.1484
 4356SOL    HW116214   3.059   0.347   6.813  1.9429 -1.8599  2.4083
 4356SOL    HW216215   3.133   0.241   6.734  0.9404 -0.1534 -1.0652
 4357SOL     OW16216   1.389   0.849   4.426 -0.0498  0.3145 -0.6471
 4357SOL    HW116217   1.414   0.804   4.345  1.3733  1.3457 -0.8274
 4357SOL    HW216218   1.457   0.824   4.488 -0.7013  0.1555  0.0060
 4358SOL     OW16219   1.441   1.275   2.166  0.3047 -0.0106 -0.2099
 4358SOL    HW116220   1.409   1.270   2.076 -0.9188 -0.0523  0.2152
 4358SOL    HW216221   1.409   1.195   2.208 -1.0106  1.0247  0.8367
 4359SOL     OW16222   3.345   2.782   6.267 -0.2121 -0.0604  0.0865
 4359SOL    HW116223   3.435   2.752   6.272 -1.0867 -3.6131 -1.9321
 4359SOL    HW216224   3.296   2.724   6.325 -1.4659  0.2695 -0.5911
 4360SOL     OW16225   0.237   5.721   7.829 -0.6345 -0.3489  0.1214
 4360SOL    HW116226   0.271   5.800   7.872 -1.8200 -0.5900  1.5987
 4360SOL    HW216227   0.201   5.752   7.746 -0.8545  0.6388  0.5730
 4361SOL     OW16228   7.340   6.364   0.169 -0.1836  0.5462 -0.0885
 4361SOL    HW116229   7.285   6.302   0.216  1.6296 -0.1437  1.2634
 4361SOL    HW216230   7.355   6.435   0.233 -0.1056  1.0763 -0.6878
 4362SOL     OW16231   0.850   5.572   4.160 -0.6239 -0.1897 -0.1560
 4362SOL    HW116232   0.789   5.555   4.089 -1.4010 -0.2428  0.5126
 4362SOL    HW216233   0.798   5.563   4.240 -0.4556  2.4909  0.3553
 4363SOL     OW16234   5.322   2.617   5.872  0.3026 -0.8326  0.1619
 4363SOL    HW116235   5.326   2.536   5.821  0.3903  0.2390 -1.5918
 4363SOL    HW216236   5.244   2.662   5.840  0.0302 -0.3662  1.4005
 4364SOL     OW16237   6.665   2.450   1.708 -0.2410 -0.0329 -0.2459
 4364SOL    HW116238   6.708   2.402   1.779 -1.4014  0.6716  1.0066
 4364SOL    HW216239   6.698   2.410   1.628  0.6090 -1.3252  0.7015
 4365SOL     OW16240   1.715   1.376   0.236  0.1932 -0.3106  0.3257
 4365SOL    HW116241   1.687   1.360   0.146 -1.2687  2.2098  0.2383
 4365SOL    HW216242   1.810   1.375   0.232  0.1671  0.2943 -1.3666
 4366SOL     OW16243   5.727   6.972   6.231 -0.1495 -0.0924  0.2035
 4366SOL    HW116244   5.696   6.962   6.141 -0.4568  0.3817  0.2527
 4366SOL    HW216245   5.648   6.963   6.285 -0.1679  0.8356  0.3452
 4367SOL     OW16246   2.991   6.990   1.980  0.2192  0.0439  0.3099
 4367SOL    HW116247   2.919   7.008   2.040 -0.8452 -0.3367 -0.8145
 4367SOL    HW216248   2.964   6.910   1.934  1.4041 -0.1487 -0.0771
 4368SOL     OW16249   4.688   2.806   5.713 -0.1466  0.1716 -0.0012
 4368SOL    HW116250   4.605   2.820   5.666  0.0016 -0.6728 -0.5316
 4368SOL    HW216251   4.673   2.729   5.767 -0.1237  0.8017  0.9270
 4369SOL     OW16252   0.881   1.991   2.078  0.1453  0.2317 -0.1273
 4369SOL    HW116253   0.826   2.061   2.043 -0.2918 -0.2325 -0.3809
 4369SOL    HW216254   0.852   1.980   2.168 -0.3030 -0.1330 -0.3139
 4370SOL     OW16255   3.824   0.586   4.411  0.2734  0.0736 -0.3469
 4370SOL    HW116256   3.754   0.526   4.384  0.1828  0.3498 -0.7417
 4370SOL    HW216257   3.903   0.531   4.415 -0.0363 -0.3266  0.5135
 4371SOL     OW16258   0.180   2.309   6.077  0.6455 -0.3571  0.2211
 4371SOL    HW116259   0.155   2.325   5.986  1.5154 -0.4402 -0.0516
 4371SOL    HW216260   0.204   2.395   6.111  0.7056 -0.3830  0.2446
 4372SOL     OW16261   6.446   1.615   6.074 -0.6348 -0.3648 -0.1536
 4372SOL    HW116262   6.397   1.588   6.152 -2.2310  0.4237 -0.8254
 4372SOL    HW216263   6.535   1.629   6.105 -0.9714 -1.2002  1.2749
 4373SOL     OW16264   3.349   1.616   1.857 -0.1548  0.3474 -0.3892
 4373SOL    HW116265   3.357   1.629   1.952  1.1592  1.3518 -0.6106
 4373SOL    HW216266   3.300   1.692   1.826 -1.8533 -0.6979 -0.3607
 4374SOL     OW16267   0.342   5.499   6.450 -0.2403 -0.7366  0.3182
 4374SOL    HW116268   0.377   5.553   6.520  1.7209 -1.0348 -0.3819
 4374SOL    HW216269   0.292   5.560   6.395  2.5427  0.6156 -0.8877
 4375SOL     OW16270   6.027   1.389   2.550 -0.5460 -0.1187 -0.1636
 4375SOL    HW116271   6.068   1.379   2.463  1.4330 -1.0706  0.8126
 4375SOL    HW216272   6.034   1.483   2.568 -0.0966 -0.0510 -0.6456
 4376SOL     OW16273   1.302   6.364   2.242  0.3122 -0.0896 -0.1303
 4376SOL    HW116274   1.311   6.459   2.245 -0.8554  0.0319  0.1541
 4376SOL    HW216275   1.209   6.350   2.222  0.1085 -1.1763  1.4639
 4377SOL     OW16276   5.374   7.340   7.646  0.0679 -0.0031 -0.1327
 4377SOL    HW116277   5.345   7.424   7.682 -0.2359  0.4465 -1.3781
 4377SOL    HW216278   5.330   7.333   7.561 -0.8962 -1.9974  0.4455
 4378SOL     OW16279   4.624   4.060   5.628 -0.0543 -0.4057 -0.3945
 4378SOL    HW116280   4.634   4.056   5.723 -0.2729 -0.9472 -0.3887
 4378SOL    HW216281   4.665   4.142   5.602  0.7723 -0.6596  0.0754
 4379SOL     OW16282   1.856   6.121   5.548  0.0452 -0.5401  0.6404
 4379SOL    HW116283   1.855   6.063   5.624 -1.5217 -1.0183  0.3028
 4379SOL    HW216284   1.803   6.196   5.575  0.2481 -0.2862  0.3345
 4380SOL     OW16285   2.833   4.076   7.672  0.1615  0.1812 -0.9699
 4380SOL    HW116286   2.742   4.049   7.674  0.7956 -2.1592  0.8556
 4380SOL    HW216287   2.838   4.151   7.732 -0.4245 -0.1480 -0.5117
 4381SOL     OW16288   7.589   2.597   4.579  0.0939 -0.3897 -0.0486
 4381SOL    HW116289   7.585   2.581   4.484 -1.5176  0.3833 -0.1458
 4381SOL    HW216290   7.520   2.661   4.595  0.1539 -0.7284  1.7123
 4382SOL     OW16291   5.539   1.029   6.792  0.3515 -0.2179 -0.4372
 4382SOL    HW116292   5.628   1.006   6.820  0.7746  1.1834 -0.5227
 4382SOL    HW216293   5.507   1.087   6.861 -0.1911 -0.0803 -0.8039
 4383SOL     OW16294   6.540   4.159   2.283 -0.2770  0.3102 -0.5206
 4383SOL    HW116295   6.582   4.139   2.367 -1.0237  0.1056 -0.1909
 4383SOL    HW216296   6.613   4.174   2.223  0.3003 -1.3748 -0.2872
 4384SOL     OW16297   5.087   4.133   2.664 -0.1740 -0.0675  0.0118
 4384SOL    HW116298   5.077   4.044   2.632  0.3689 -0.7985  1.7860
 4384SOL    HW216299   5.009   4.148   2.718 -0.5336  0.7502 -0.7029
 4385SOL     OW16300   4.075   4.317   7.865 -0.5800  0.0394  0.2906
 4385SOL    HW116301   4.129   4.238   7.874 -0.3799  0.2077  0.5471
 4385SOL    HW216302   4.116   4.365   7.793 -1.7219 -0.9259 -1.0655
 4386SOL     OW16303   6.186   0.885   2.064 -0.4632 -0.2496  0.4881
 4386SOL    HW116304   6.269   0.842   2.087  0.0082  0.5786  0.3883
 4386SOL    HW216305   6.193   0.972   2.103 -1.1469 -0.0564  0.1901
 4387SOL     OW16306   1.702   7.871   3.689  0.3239 -0.0158  0.2077
 4387SOL    HW116307   1.749   7.954   3.684  2.3856 -1.0617  0.9188
 4387SOL    HW216308   1.726   7.836   3.775 -0.3473 -1.4123 -0.1536
 4388SOL     OW16309   3.456   0.245   0.577 -0.0727 -0.1782 -0.1239
 4388SOL    HW116310   3.500   0.212   0.655 -0.2257 -1.4346 -0.5532
 4388SOL    HW216311   3.420   0.330   0.604 -0.3753 -0.7276  1.2537
 4389SOL     OW16312   5.319   3.020   1.456 -0.5712  0.3602  0.5187
 4389SOL    HW116313   5.333   3.115   1.457  0.2108  0.2539  0.4327
 4389SOL    HW216314   5.224   3.010   1.454 -0.7024  1.1746 -2.6590
 4390SOL     OW16315   7.263   4.446   0.023  0.0690 -0.5086 -0.1313
 4390SOL    HW116316   7.316   4.434   0.102 -1.2652  0.1913  0.9182
 4390SOL    HW216317   7.230   4.358   0.004 -0.2125 -0.5659  0.5613
 4391SOL     OW16318   7.533   3.609   2.433 -0.1548 -0.3073 -0.0247
 4391SOL    HW116319   7.548   3.610   2.338  0.8994  1.1755  0.1296
 4391SOL    HW216320   7.615   3.579   2.471 -0.0961  0.4285  0.4650
 4392SOL     OW16321   1.879   5.789   2.085 -0.7776  0.3302  0.0979
 4392SOL    HW116322   1.825   5.856   2.127  0.2561  1.3162 -0.0932
 4392SOL    HW216323   1.933   5.753   2.156 -1.0200  0.0072  0.1199
 4393SOL     OW16324   1.401   6.275   1.019 -0.3076 -0.5369  0.3907
 4393SOL    HW116325   1.408   6.369   1.039  1.3298 -0.7780  1.2073
 4393SOL    HW216326   1.371   6.272   0.929  1.1427  0.8490 -0.2073
 4394SOL     OW16327   3.158   2.724   0.950  0.1746  0.1959 -0.3063
 4394SOL    HW116328   3.226   2.725   0.882 -1.1956  1.4324 -1.7365
 4394SOL    HW216329   3.089   2.669   0.913  0.0525 -0.4261  0.8014
 4395SOL     OW16330   0.977   3.286   3.627  0.2270  0.1062  0.4545
 4395SOL    HW116331   0.999   3.379   3.634 -0.4109  0.4176 -1.2016
 4395SOL    HW216332   0.887   3.285   3.592 -0.1630 -1.1406  1.3945
 4396SOL     OW16333   6.535   4.736   7.993 -0.1879 -0.3289 -0.4059
 4396SOL    HW116334   6.623   4.722   7.959 -0.0121 -3.6715  1.1096
 4396SOL    HW216335   6.477   4.693   7.930 -0.1937 -2.8498  1.1846
 4397SOL     OW16336   1.122   7.038   6.581  0.1357  0.3256 -0.2696
 4397SOL    HW116337   1.174   6.996   6.650  0.0054  1.0293  0.2699
 4397SOL    HW216338   1.175   7.112   6.553  0.4909 -0.3441 -1.4145
 4398SOL     OW16339   7.861   1.428   1.398  0.1217  0.6852 -0.3524
 4398SOL    HW116340   7.846   1.334   1.404  0.0061  0.7220 -0.0102
 4398SOL    HW216341   7.834   1.452   1.310  1.7149  0.1144 -1.0222
 4399SOL     OW16342   0.304   4.135   0.548 -0.2290 -0.1937 -0.6909
 4399SOL    HW116343   0.359   4.159   0.622  0.7596 -0.1952 -1.4008
 4399SOL    HW216344   0.236   4.078   0.585 -1.1045  1.5892  0.5775
 4400SOL     OW16345   7.083   4.014   0.979  0.5623  0.0705 -0.2957
 4400SOL    HW116346   7.148   3.947   1.003  1.2890  1.0027  0.4108
 4400SOL    HW216347   7.008   3.995   1.035  0.1895 -1.0257 -1.1268
 4401SOL     OW16348   1.933   0.910   8.088  0.2346 -0.0043 -0.1892
 4401SOL    HW116349   2.022   0.884   8.110  0.1257 -1.3044 -1.1855
 4401SOL    HW216350   1.943   0.974   8.017  0.3617 -0.6720 -0.7811
 4402SOL     OW16351   4.773   3.266   2.915  0.4881  0.0125  0.6014
 4402SOL    HW116352   4.857   3.310   2.929  1.0859 -1.1703  0.8787
 4402SOL    HW216353   4.779   3.230   2.826  0.7764 -1.0868  1.0479
 4403SOL     OW16354   7.289   4.948   7.228  0.1165  0.0413  0.1509
 4403SOL    HW116355   7.265   4.927   7.138  1.7654 -2.7484  0.2352
 4403SOL    HW216356   7.259   4.873   7.279  2.4344 -0.2055  1.2805
 4404SOL     OW16357   4.229   2.333   2.004 -0.1403 -0.5885  0.1830
 4404SOL    HW116358   4.225   2.290   2.090  0.9777 -2.4350 -0.6224
 4404SOL    HW216359   4.210   2.263   1.942 -0.8083  0.6953 -1.1049
 4405SOL     OW16360   5.581   6.641   4.379 -0.1365  0.6140  0.0895
 4405SOL    HW116361   5.650   6.583   4.345 -0.2652  0.7015 -0.3288
 4405SOL    HW216362   5.580   6.625   4.473  1.8365  2.0965  0.4200
 4406SOL     OW16363   7.813   1.232   5.009 -0.0401  0.6736  0.4815
 4406SOL    HW116364   7.850   1.223   5.097 -0.1627  2.5720  0.7697
 4406SOL    HW216365   7.884   1.206   4.951  0.8090  1.4964  1.1093
 4407SOL     OW16366   0.877   2.726   0.879  0.4166  0.0861  0.4991
 4407SOL    HW116367   0.910   2.815   0.891 -0.0829  0.1410  1.6676
 4407SOL    HW216368   0.885   2.709   0.785  0.3211  1.4449  0.2303
 4408SOL     OW16369   4.103   4.810   0.030 -0.3350  0.8311 -0.2954
 4408SOL    HW116370   4.068   4.760  -0.044  0.5214  0.3064 -0.3489
 4408SOL    HW216371   4.196   4.791   0.031  0.0163  2.3685 -0.2713
 4409SOL     OW16372   7.984   1.706   6.776 -0.0470  0.0980 -0.2209
 4409SOL    HW116373   7.962   1.703   6.869  0.0404  0.3713 -0.1910
 4409SOL    HW216374   7.999   1.614   6.752  2.8997  0.1957  0.7656
 4410SOL     OW16375   5.829   4.464   1.323 -0.1087  0.0186  0.0645
 4410SOL    HW116376   5.747   4.512   1.310 -0.3755 -0.7636 -1.2549
 4410SOL    HW216377   5.830   4.398   1.254  1.8015  0.2334 -0.1773
 4411SOL     OW16378   7.202   1.630   4.287  0.2753  0.0131  0.1729
 4411SOL    HW116379   7.149   1.644   4.208 -0.1204  1.3946  0.6583
 4411SOL    HW216380   7.292   1.644   4.259  0.2901 -0.9649 -0.3411
 4412SOL     OW16381   3.811   3.922   4.077  0.5066 -0.8555  0.3856
 4412SOL    HW116382   3.806   3.929   4.172 -1.7644  2.3740  0.2178
 4412SOL    HW216383   3.735   3.869   4.053 -1.3530  1.6670  0.3174
 4413SOL     OW16384   3.100   3.082   0.315 -0.3582  0.4036 -0.3880
 4413SOL    HW116385   3.109   3.173   0.345 -2.2866 -0.1609  2.1899
 4413SOL    HW216386   3.019   3.083   0.264 -0.5156  0.0830 -0.1420
 4414SOL     OW16387   1.852   2.226   6.912 -0.1466  0.7119 -0.6692
 4414SOL    HW116388   1.785   2.165   6.879  0.5563  0.9214 -2.6153
 4414SOL    HW216389   1.840   2.224   7.007 -1.4341 -0.9656 -0.7955
 4415SOL     OW16390   3.040   2.001   4.240  0.2194  0.6346  0.5317
 4415SOL    HW116391   2.980   1.959   4.301 -0.7261  0.6290 -0.3917
 4415SOL    HW216392   3.039   1.945   4.162  0.3754  1.3576 -0.0005
 4416SOL     OW16393   2.319   4.160   7.109  0.0424  0.3739  0.4458
 4416SOL    HW116394   2.336   4.185   7.200 -0.6863 -0.4459  0.8191
 4416SOL    HW216395   2.368   4.079   7.097  0.1522  0.4885  0.0841
 4417SOL     OW16396   2.975   6.731   0.683 -0.3881  0.4532  0.5705
 4417SOL    HW116397   2.882   6.733   0.657 -0.3000  0.1480  0.2231
 4417SOL    HW216398   3.023   6.736   0.600 -0.0957  0.2841  0.7287
 4418SOL     OW16399   2.740   1.057   3.678 -0.2548 -0.2540 -0.6811
 4418SOL    HW116400   2.782   1.024   3.598  2.8961 -2.5314  1.6831
 4418SOL    HW216401   2.783   1.141   3.694  1.0754 -1.0344 -0.0325
 4419SOL     OW16402   7.003   3.136   5.705 -0.0550  0.1896 -0.0742
 4419SOL    HW116403   6.924   3.154   5.655 -0.2029 -1.0838 -0.3168
 4419SOL    HW216404   7.074   3.172   5.651 -0.2067 -1.2115 -1.2602
 4420SOL     OW16405   1.800   7.932   1.055 -0.4613 -0.4337 -0.3878
 4420SOL    HW116406   1.730   7.874   1.025 -2.4098 -0.3932  3.4275
 4420SOL    HW216407   1.763   8.020   1.045  0.0944 -0.2283 -0.6779
 4421SOL     OW16408   2.108   1.829   5.205  0.3325  0.4032 -0.3522
 4421SOL    HW116409   2.173   1.897   5.189  0.1627  0.7060  0.1989
 4421SOL    HW216410   2.066   1.814   5.121 -0.7453  2.1403 -0.1814
 4422SOL     OW16411   1.007   5.863   1.111 -0.0655 -0.0519  0.3728
 4422SOL    HW116412   0.981   5.804   1.182  0.2060 -0.3324  0.2410
 4422SOL    HW216413   0.956   5.942   1.126  0.0017 -0.1021  0.8943
 4423SOL     OW16414   1.685   1.702   2.075 -0.0142  0.5345  0.2808
 4423SOL    HW116415   1.780   1.693   2.069  0.2423  2.3763  0.8746
 4423SOL    HW216416   1.659   1.636   2.139  0.8766  0.0480  0.1578
 4424SOL     OW16417   7.102   4.139   3.964 -0.0713  0.0109  0.4540
 4424SOL    HW116418   7.148   4.101   3.889 -1.7322 -0.3903 -0.4209
 4424SOL    HW216419   7.035   4.195   3.925  1.9770  3.6561  1.6776
 4425SOL     OW16420   5.272   8.056   7.777  0.6526 -0.5132 -0.0288
 4425SOL    HW116421   5.236   8.125   7.832  1.9193  0.0281  0.1540
 4425SOL    HW216422   5.258   7.975   7.827 -0.0601 -0.2880  0.1420
 4426SOL     OW16423   3.674   3.359   3.587 -0.1208 -0.5218 -0.3854
 4426SOL    HW116424   3.677   3.396   3.499 -1.2023  0.9232  0.1605
 4426SOL    HW216425   3.608   3.410   3.633  0.7626 -0.9176  1.4260
 4427SOL     OW16426   0.914   3.260   3.956 -0.0075 -0.5171 -0.1044
 4427SOL    HW116427   0.958   3.314   4.021 -0.5015 -0.7704  0.4489
 4427SOL    HW216428   0.979   3.248   3.887  0.3998  0.0568  0.1684
 4428SOL     OW16429   6.894   5.491   0.728  0.2493 -0.0140  0.1376
 4428SOL    HW116430   6.873   5.556   0.662  0.4622 -0.4202 -0.3346
 4428SOL    HW216431   6.979   5.517   0.763  0.0688  0.2833  0.3634
 4429SOL     OW16432   6.790   3.754   6.746  0.0299  0.9129 -0.1445
 4429SOL    HW116433   6.870   3.728   6.701 -0.0441 -0.4817  0.4653
 4429SOL    HW216434   6.732   3.678   6.738  0.0133  0.5792  2.2221
 4430SOL     OW16435   5.915   4.135   7.857 -0.2433  0.1388  0.4218
 4430SOL    HW116436   5.859   4.057   7.857  0.1314 -0.1320 -0.0023
 4430SOL    HW216437   5.975   4.122   7.930 -0.8266  0.5041  0.9794
 4431SOL     OW16438   6.051   0.023   5.635  0.3503 -0.3287  0.9149
 4431SOL    HW116439   6.118  -0.016   5.692  0.2975 -1.7346  0.0645
 4431SOL    HW216440   6.099   0.088   5.584  0.5766  0.3160  1.9136
 4432SOL     OW16441   6.104   5.744   3.285  0.4345  0.1841 -0.3892
 4432SOL    HW116442   6.102   5.799   3.364 -0.7499 -0.7502  0.2690
 4432SOL    HW216443   6.185   5.694   3.293  0.0367 -0.3440  0.5743
 4433SOL     OW16444   0.554   2.639   3.151 -0.1063 -0.6189 -0.8571
 4433SOL    HW116445   0.585   2.646   3.061  0.9312 -0.4248 -0.4993
 4433SOL    HW216446   0.490   2.567   3.149 -0.0098 -0.6920 -1.7147
 4434SOL     OW16447   6.088   6.140   1.161 -0.6181 -0.2747  0.0119
 4434SOL    HW116448   6.170   6.153   1.112 -0.5695 -3.3523 -0.9444
 4434SOL    HW216449   6.024   6.196   1.118  0.0820 -0.8684 -1.8746
 4435SOL     OW16450   6.320   7.421   5.486 -0.3350  0.1846  0.2579
 4435SOL    HW116451   6.247   7.482   5.488 -0.4517  0.0338  0.5818
 4435SOL    HW216452   6.282   7.338   5.456  0.1184  0.6620 -1.8649
 4436SOL     OW16453   6.423   0.110   8.077 -0.0280  0.4707 -0.1427
 4436SOL    HW116454   6.460   0.198   8.082 -0.0343  0.4328  0.6156
 4436SOL    HW216455   6.449   0.068   8.159 -0.4410 -0.0735 -0.2861
 4437SOL     OW16456   3.690   2.811   7.749 -0.2356  0.1213 -0.0191
 4437SOL    HW116457   3.673   2.896   7.790  0.4155  0.6688 -0.8293
 4437SOL    HW216458   3.786   2.805   7.747 -0.2384  0.2197 -1.6048
 4438SOL     OW16459   3.842   6.136   3.269  0.3393 -0.5277 -0.1325
 4438SOL    HW116460   3.836   6.158   3.176  0.8738 -1.0969 -0.3151
 4438SOL    HW216461   3.843   6.220   3.314 -0.7142 -0.2658 -0.5837
 4439SOL     OW16462   2.673   3.956   1.986  0.1462  0.3243 -0.2256
 4439SOL    HW116463   2.633   3.992   1.907 -0.2480  2.3486  0.8303
 4439SOL    HW216464   2.613   3.885   2.013 -0.7377  0.8752 -0.7021
 4440SOL     OW16465   6.286   1.767   5.164  0.0258 -0.4046 -0.3637
 4440SOL    HW116466   6.247   1.741   5.248  1.2129 -0.6809  0.1238
 4440SOL    HW216467   6.217   1.814   5.119 -0.9987 -1.2294  0.2971
 4441SOL     OW16468   4.162   6.856   3.677  0.2849 -0.3231  0.1885
 4441SOL    HW116469   4.069   6.838   3.663  0.1344  0.0522  0.6886
 4441SOL    HW216470   4.202   6.769   3.685 -0.0615 -0.4820  0.2099
 4442SOL     OW16471   4.560   1.578   3.631 -0.2035  0.1214 -0.7344
 4442SOL    HW116472   4.508   1.546   3.705 -0.9528  0.2955 -1.1686
 4442SOL    HW216473   4.534   1.670   3.623 -0.6637 -0.0725 -1.6405
 4443SOL     OW16474   0.717   3.264   4.228 -0.3202 -0.1704  0.1926
 4443SOL    HW116475   0.720   3.320   4.305 -0.3934  1.1778 -0.7568
 4443SOL    HW216476   0.698   3.177   4.263  0.5129  0.2343  1.7639
 4444SOL     OW16477   7.217   0.628   0.919 -0.0419 -0.1161  0.0399
 4444SOL    HW116478   7.225   0.709   0.968  2.5169 -0.2473 -0.0264
 4444SOL    HW216479   7.154   0.647   0.849 -1.3096  1.0289  1.4428
 4445SOL     OW16480   5.829   2.752   0.849 -0.0809  0.7272  0.0249
 4445SOL    HW116481   5.846   2.703   0.930  0.7477 -2.3139 -1.8131
 4445SOL    HW216482   5.737   2.778   0.855 -0.4403 -0.6912  1.3487
 4446SOL     OW16483   2.507   3.445   5.076 -0.1127  0.1105 -0.0579
 4446SOL    HW116484   2.455   3.524   5.062  0.4103  0.4736  0.0021
 4446SOL    HW216485   2.470   3.405   5.155  1.1695  1.6158  1.3747
 4447SOL     OW16486   3.185   2.281   0.729 -0.1484  0.5253 -0.1710
 4447SOL    HW116487   3.238   2.208   0.762  1.0164  1.1278 -0.6471
 4447SOL    HW216488   3.155   2.327   0.807  0.8806  0.7486  0.1029
 4448SOL     OW16489   0.818   7.208   5.278 -0.3056 -0.4186  0.5527
 4448SOL    HW116490   0.878   7.226   5.205  0.3414 -4.2865 -0.1148
 4448SOL    HW216491   0.872   7.220   5.356  0.5488 -1.1239  0.0918
 4449SOL     OW16492   2.441   3.488   2.565 -0.4066 -0.2679  0.0053
 4449SOL    HW116493   2.370   3.430   2.595  0.4640 -1.2368  0.2612
 4449SOL    HW216494   2.404   3.576   2.572 -1.5082 -0.7309  0.3504
 4450SOL     OW16495   2.925   0.749   4.389 -0.5145  0.0371  0.1909
 4450SOL    HW116496   2.874   0.787   4.318 -0.4390  0.1087  0.1742
 4450SOL    HW216497   2.943   0.822   4.448  1.2247  0.4512 -0.7717
 4451SOL     OW16498   4.848   4.364   4.226  0.1636 -0.0309  0.4076
 4451SOL    HW116499   4.788   4.366   4.151  0.0500  0.1876  0.5023
 4451SOL    HW216500   4.899   4.445   4.219 -0.4564  0.4341  1.0547
 4452SOL     OW16501   4.702   7.791   5.781  0.1894 -0.1857 -0.4016
 4452SOL    HW116502   4.739   7.871   5.816 -1.2188  0.3393 -0.0427
 4452SOL    HW216503   4.647   7.756   5.851  0.7138 -1.4294 -0.5773
 4453SOL     OW16504   3.879   7.775   4.353 -0.1972  0.0704 -0.4361
 4453SOL    HW116505   3.921   7.841   4.408 -1.7798  1.6797 -1.0665
 4453SOL    HW216506   3.836   7.717   4.415 -3.4955  2.8828  0.2048
 4454SOL     OW16507   6.261   2.852   3.460 -0.0127 -0.6031  0.1596
 4454SOL    HW116508   6.280   2.758   3.455 -1.8126 -0.9541 -1.0703
 4454SOL    HW216509   6.231   2.875   3.372  0.9134  1.2760  0.2850
 4455SOL     OW16510   7.100   3.199   1.373 -0.3888  0.2676  0.0326
 4455SOL    HW116511   7.017   3.184   1.328 -1.1183 -0.6560  1.5850
 4455SOL    HW216512   7.130   3.111   1.396  0.6296  0.6424  0.1729
 4456SOL     OW16513   2.601   5.674   7.835  0.7073 -0.6604  0.5699
 4456SOL    HW116514   2.546   5.722   7.773  0.9575 -1.8790 -0.6528
 4456SOL    HW216515   2.539   5.633   7.896  0.3868 -0.3123  0.4782
 4457SOL     OW16516   4.685   4.474   0.257 -0.0896  0.4171 -0.4654
 4457SOL    HW116517   4.729   4.548   0.215 -1.4309  1.0495 -0.8303
 4457SOL    HW216518   4.674   4.502   0.348 -2.5825  1.7115 -1.0672
 4458SOL     OW16519   3.435   4.376   7.866  0.4006  0.3894  0.7766
 4458SOL    HW116520   3.412   4.353   7.776  1.4620  0.1378  0.5492
 4458SOL    HW216521   3.363   4.431   7.897 -1.4923 -1.9122  0.7892
 4459SOL     OW16522   5.623   0.688   7.274  0.4950  0.3712  0.3090
 4459SOL    HW116523   5.637   0.726   7.187  0.3872 -0.3178 -0.0123
 4459SOL    HW216524   5.629   0.763   7.334  1.4148  0.7258 -0.2068
 4460SOL     OW16525   6.534   6.582   5.058  0.1916  0.1080  0.1939
 4460SOL    HW116526   6.603   6.521   5.085 -1.4094 -1.9763 -0.1997
 4460SOL    HW216527   6.469   6.578   5.127 -1.3389 -1.0185 -1.2217
 4461SOL     OW16528   4.275   6.944   6.539 -0.3555 -0.1243  0.0609
 4461SOL    HW116529   4.261   6.860   6.583 -0.6620 -0.7350 -1.1668
 4461SOL    HW216530   4.197   6.995   6.559 -0.6143 -0.4970  0.0060
 4462SOL     OW16531   7.991   4.248   1.322 -0.7314 -0.0198  0.1708
 4462SOL    HW116532   7.940   4.167   1.324 -1.4049  0.4082  1.2527
 4462SOL    HW216533   8.065   4.228   1.265 -2.1569 -0.6227 -1.5776
 4463SOL     OW16534   2.391   4.474   2.525 -0.6095 -0.2782 -0.0550
 4463SOL    HW116535   2.371   4.567   2.539 -1.2704  0.0619 -2.6537
 4463SOL    HW216536   2.485   4.472   2.507 -0.2780 -0.3717  1.5655
 4464SOL     OW16537   0.718   3.051   3.934 -0.4028 -0.3306  0.6082
 4464SOL    HW116538   0.798   3.097   3.912 -2.0111  0.9927 -3.2523
 4464SOL    HW216539   0.657   3.120   3.960 -1.9332 -0.4508 -2.2862
 4465SOL     OW16540   7.596   4.855   5.088 -0.0713  0.1631 -0.2094
 4465SOL    HW116541   7.644   4.872   5.169  0.1180  1.4166 -0.5632
 4465SOL    HW216542   7.520   4.803   5.115  0.9656 -1.0478  0.4815
 4466SOL     OW16543   0.775   6.054   7.721  0.0548  0.2907 -0.1218
 4466SOL    HW116544   0.756   5.993   7.793 -2.0795  0.1405 -0.7342
 4466SOL    HW216545   0.726   6.133   7.745 -0.0170  0.5223 -1.0247
 4467SOL     OW16546   7.235   6.747   5.197  0.1160 -0.7082 -0.5853
 4467SOL    HW116547   7.254   6.658   5.226  3.2079 -0.4720 -1.5267
 4467SOL    HW216548   7.282   6.803   5.258 -0.6097  0.2295 -0.8528
 4468SOL     OW16549   5.777   3.851   6.730  0.0664 -0.1818  0.7021
 4468SOL    HW116550   5.742   3.940   6.732  1.0741  0.2518  0.0142
 4468SOL    HW216551   5.707   3.797   6.765 -0.6130  0.8689  1.0120
 4469SOL     OW16552   4.906   0.295   3.972  0.2074 -0.3072 -0.0689
 4469SOL    HW116553   4.826   0.336   4.006  0.3087 -0.3565  0.2312
 4469SOL    HW216554   4.929   0.230   4.039 -0.4350 -1.4574 -0.9259
 4470SOL     OW16555   7.761   8.007   3.945  0.1692  0.2553  0.3778
 4470SOL    HW116556   7.750   7.959   3.864  2.3549  1.2718 -0.5995
 4470SOL    HW216557   7.776   7.939   4.011 -1.2392 -0.5586 -0.0824
 4471SOL     OW16558   0.001   5.566   3.943 -0.2286 -0.2097  0.2623
 4471SOL    HW116559   0.055   5.495   3.910  1.0502  0.2623  1.2702
 4471SOL    HW216560  -0.014   5.622   3.867  0.2346 -0.6309 -0.1463
 4472SOL     OW16561   7.737   1.337   4.558  0.1769  0.0693  0.4128
 4472SOL    HW116562   7.671   1.406   4.548  1.2725  1.3530  1.5820
 4472SOL    HW216563   7.717   1.298   4.643  0.9441  0.5189  0.8099
 4473SOL     OW16564   5.980   3.429   7.595  0.5413  0.2066 -0.5709
 4473SOL    HW116565   6.063   3.458   7.558  0.9661 -0.6205 -0.3154
 4473SOL    HW216566   5.986   3.452   7.688  1.1445 -1.1733 -0.2350
 4474SOL     OW16567   7.234   2.700   5.570  0.2290 -0.3240 -0.0170
 4474SOL    HW116568   7.158   2.693   5.628  0.3353 -1.0272  0.0433
 4474SOL    HW216569   7.272   2.786   5.589  0.2138 -0.5176  0.8993
 4475SOL     OW16570   5.803   1.231   2.551 -0.2515 -0.5062 -1.3769
 4475SOL    HW116571   5.730   1.281   2.516 -0.3582 -0.3673 -0.9543
 4475SOL    HW216572   5.866   1.296   2.582 -0.4564 -0.6268 -0.6900
 4476SOL     OW16573   7.115   3.302   4.395 -0.6576  0.1654 -0.2264
 4476SOL    HW116574   7.200   3.269   4.367  0.2933  1.7045  0.7090
 4476SOL    HW216575   7.091   3.365   4.327  0.1381  1.5279  0.7086
 4477SOL     OW16576   1.749   7.398   4.627  0.5269  0.1979 -0.2185
 4477SOL    HW116577   1.831   7.401   4.579  2.4858 -0.1276  2.8367
 4477SOL    HW216578   1.690   7.347   4.572  1.4833  2.4587 -3.6037
 4478SOL     OW16579   4.459   4.867   2.204 -0.4078  0.2026  0.0659
 4478SOL    HW116580   4.370   4.873   2.169  0.0670  0.6401 -1.1138
 4478SOL    HW216581   4.469   4.944   2.259  0.4639  2.2682 -2.7748
 4479SOL     OW16582   6.088   2.409   1.980 -0.6605 -0.2057 -0.7791
 4479SOL    HW116583   6.166   2.389   2.032 -0.0513  2.4649 -0.4831
 4479SOL    HW216584   6.122   2.457   1.904 -1.8383 -1.2629 -2.0287
 4480SOL     OW16585   7.771   1.958   2.686 -0.4614  0.0455  0.3967
 4480SOL    HW116586   7.810   1.895   2.625  0.0834  0.2530  0.5266
 4480SOL    HW216587   7.720   2.017   2.630  0.6436  0.6977  0.0291
 4481SOL     OW16588   1.238   4.900   3.962  0.0974  0.4238 -0.3441
 4481SOL    HW116589   1.210   4.927   3.874 -0.9702  0.2687 -0.0637
 4481SOL    HW216590   1.159   4.864   4.003  0.7400 -0.1317  0.4457
 4482SOL     OW16591   5.646   2.827   5.660  0.7133  0.0195 -0.0065
 4482SOL    HW116592   5.714   2.761   5.664 -1.4660 -2.5277 -1.4648
 4482SOL    HW216593   5.613   2.834   5.749  1.6853 -0.0372  0.3605
 4483SOL     OW16594   7.108   7.812   6.626 -0.2701  0.1318 -0.5204
 4483SOL    HW116595   7.111   7.897   6.582 -1.3492  1.6676  2.1313
 4483SOL    HW216596   7.021   7.808   6.665  0.3163 -1.5039  0.7195
 4484SOL     OW16597   7.325   1.324   5.414 -0.3646 -0.1447  0.0238
 4484SOL    HW116598   7.289   1.271   5.485 -1.6863  0.8316  0.1345
 4484SOL    HW216599   7.284   1.289   5.335  3.1309 -3.0212 -0.7460
 4485SOL     OW16600   2.052   2.966   2.983 -0.1939 -0.3709  0.2484
 4485SOL    HW116601   2.076   3.012   3.064  1.5436  0.5822 -0.7350
 4485SOL    HW216602   1.967   3.001   2.959  1.1538  2.6046 -0.5740
 4486SOL     OW16603   3.600   1.863   7.641  0.1531  0.5632 -0.4805
 4486SOL    HW116604   3.580   1.846   7.734 -1.1651 -1.3230 -1.0283
 4486SOL    HW216605   3.691   1.835   7.631  0.0067 -0.1727  0.0704
 4487SOL     OW16606   7.242   1.755   3.424  0.1033 -0.1414 -0.4030
 4487SOL    HW116607   7.173   1.749   3.358  0.0122  0.0013 -0.3192
 4487SOL    HW216608   7.289   1.836   3.403  0.0769 -0.0987 -0.2930
 4488SOL     OW16609   7.586   4.835   2.355 -0.7924  0.1871 -0.1726
 4488SOL    HW116610   7.560   4.754   2.399 -1.0708  1.1010  1.4254
 4488SOL    HW216611   7.611   4.807   2.267  0.4444 -1.8243  0.7391
 4489SOL     OW16612   7.717   1.430   1.146 -0.1039 -0.5638 -0.2517
 4489SOL    HW116613   7.672   1.513   1.135  2.7067  0.9377 -1.5342
 4489SOL    HW216614   7.686   1.375   1.074  1.4184  1.1259 -2.2992
 4490SOL     OW16615   2.096   4.939   4.540 -0.1057 -0.3962  0.1079
 4490SOL    HW116616   2.005   4.962   4.560 -0.2886 -1.3697  0.4206
 4490SOL    HW216617   2.144   4.959   4.620  0.1176  0.9229 -0.3331
 4491SOL     OW16618   1.706   7.827   2.954 -0.2207  0.5422 -0.0717
 4491SOL    HW116619   1.788   7.869   2.925  0.1279  0.6084  0.9617
 4491SOL    HW216620   1.677   7.881   3.028 -0.4865 -0.2438  0.4132
 4492SOL     OW16621   3.528   6.200   1.645 -0.5025 -0.5016 -0.7910
 4492SOL    HW116622   3.552   6.244   1.564  1.3675  0.7020  0.3345
 4492SOL    HW216623   3.552   6.108   1.632  0.5460 -0.1636 -1.3267
 4493SOL     OW16624   6.840   6.698   6.996 -0.2523  0.0919  0.1929
 4493SOL    HW116625   6.839   6.789   6.967 -0.7606 -0.0387 -0.2218
 4493SOL    HW216626   6.812   6.701   7.087 -0.7117  0.3172  0.0512
 4494SOL     OW16627   0.659   6.091   7.459  0.4964 -0.2208  0.2709
 4494SOL    HW116628   0.662   6.180   7.423  1.4274 -0.4346 -0.2321
 4494SOL    HW216629   0.726   6.091   7.528 -0.7355 -0.0361  1.4913
 4495SOL     OW16630   1.304   2.572   1.238 -0.0812  0.3156 -0.2735
 4495SOL    HW116631   1.224   2.603   1.281  0.5828  0.9556  0.5356
 4495SOL    HW216632   1.336   2.503   1.296  0.1579  0.3259 -0.3938
 4496SOL     OW16633   3.166   4.735   4.511  0.7983  0.0916  0.2959
 4496SOL    HW116634   3.111   4.698   4.580  0.9728 -1.2813 -0.2524
 4496SOL    HW216635   3.108   4.791   4.461  0.1948 -0.3873  0.4435
 4497SOL     OW16636   0.582   0.346   2.637  0.4133 -0.5514  0.4982
 4497SOL    HW116637   0.627   0.355   2.553  2.2330  1.4204  1.5957
 4497SOL    HW216638   0.582   0.252   2.655 -0.9612 -1.1436 -2.1184
 4498SOL     OW16639   6.997   0.624   2.662 -0.1804 -0.8357 -0.6132
 4498SOL    HW116640   6.976   0.714   2.685  1.3932 -0.6017  0.0114
 4498SOL    HW216641   6.981   0.618   2.568 -1.3227 -0.2240 -0.4706
 4499SOL     OW16642   5.894   7.754   5.804  0.1493  0.1809 -0.1670
 4499SOL    HW116643   5.959   7.798   5.858  1.8962  0.2222 -2.1720
 4499SOL    HW216644   5.933   7.669   5.783 -1.2155 -0.5099 -0.0067
 4500SOL     OW16645   0.827   6.297   2.790  0.0233 -0.0013 -0.0123
 4500SOL    HW116646   0.830   6.342   2.706 -2.4148  1.1794  0.4412
 4500SOL    HW216647   0.908   6.247   2.793  0.1513 -0.1824 -3.0953
 4501SOL     OW16648   3.190   4.120   0.542  0.5578 -0.3393 -0.0913
 4501SOL    HW116649   3.279   4.118   0.508  0.2298 -3.5439 -1.0480
 4501SOL    HW216650   3.134   4.119   0.465 -0.4638  2.4441  0.4618
 4502SOL     OW16651   0.579   0.072   1.067  0.0875 -0.5517  0.4224
 4502SOL    HW116652   0.536   0.011   1.007 -0.7996 -0.0421  0.5158
 4502SOL    HW216653   0.670   0.076   1.037 -0.4501  0.1301 -1.2616
 4503SOL     OW16654   0.519   1.275   0.286  0.2285 -0.4127  0.4219
 4503SOL    HW116655   0.462   1.350   0.302 -0.4240 -1.1173  1.4636
 4503SOL    HW216656   0.604   1.314   0.265  0.2921  0.6391  2.4394
 4504SOL     OW16657   5.426   2.067   4.917  0.1826 -0.5877  0.2656
 4504SOL    HW116658   5.520   2.066   4.902  0.3973 -1.5788  1.5088
 4504SOL    HW216659   5.410   1.993   4.975 -1.1527  0.4477  1.3044
 4505SOL     OW16660   4.048   1.110   7.205  0.1699 -0.4413  0.5345
 4505SOL    HW116661   4.100   1.182   7.239 -3.1084  0.8860  3.3336
 4505SOL    HW216662   4.023   1.137   7.116 -1.8893  2.5753  1.8878
 4506SOL     OW16663   2.266   4.694   2.650  0.7051 -0.1010  0.0981
 4506SOL    HW116664   2.192   4.642   2.680  1.9616 -0.3751  3.1581
 4506SOL    HW216665   2.229   4.778   2.624 -0.7624 -0.5510  0.6623
 4507SOL     OW16666   7.992   3.428   0.176 -0.2950 -0.4105  0.4132
 4507SOL    HW116667   8.076   3.426   0.130  0.2157 -0.2258  1.3291
 4507SOL    HW216668   7.938   3.490   0.125  0.3203 -0.0653  0.1728
 4508SOL     OW16669   7.839   0.289   4.693  0.4066 -0.1175 -0.0369
 4508SOL    HW116670   7.881   0.210   4.658 -1.6974 -1.2161 -0.2740
 4508SOL    HW216671   7.877   0.361   4.643  0.4957 -1.2557 -1.6874
 4509SOL     OW16672   2.096   6.860   3.797 -0.0873  0.0878  0.4870
 4509SOL    HW116673   2.026   6.815   3.844 -1.9171  1.8433 -0.3786
 4509SOL    HW216674   2.096   6.949   3.832  2.2845 -0.0512  0.9941
 4510SOL     OW16675   7.941   5.278   0.956  0.1675 -0.0716  0.7420
 4510SOL    HW116676   7.954   5.184   0.969 -0.5977 -0.0623  1.7133
 4510SOL    HW216677   8.030   5.314   0.955  0.5741 -0.9740 -1.3924
 4511SOL     OW16678   8.009   0.144   1.058  0.1136 -0.0880 -0.0381
 4511SOL    HW116679   8.099   0.154   1.028 -1.0649  1.2948 -3.5491
 4511SOL    HW216680   7.998   0.212   1.124  1.3410  0.3786 -0.2913
 4512SOL     OW16681   5.994   2.986   6.111 -0.1381  0.4128 -0.3820
 4512SOL    HW116682   5.925   3.036   6.067 -1.2659 -0.2861  0.5359
 4512SOL    HW216683   5.955   2.959   6.194  1.3388  0.2063  0.2771
 4513SOL     OW16684   4.503   2.284   0.543  0.4678  0.0773  0.0592
 4513SOL    HW116685   4.436   2.219   0.522 -1.0800  1.6524 -0.1801
 4513SOL    HW216686   4.585   2.236   0.541 -0.6614 -2.0167  0.6477
 4514SOL     OW16687   1.495   0.021   0.133 -0.6776  0.6836 -0.0265
 4514SOL    HW116688   1.494   0.116   0.141  0.1178  0.6781  0.3017
 4514SOL    HW216689   1.488   0.005   0.039  3.9811  1.2878 -0.7530
 4515SOL     OW16690   5.534   2.948   5.934 -0.2310 -0.2273  0.3380
 4515SOL    HW116691   5.442   2.928   5.949 -0.3579  0.0502 -0.0470
 4515SOL    HW216692   5.579   2.864   5.945 -0.4978 -0.3162  0.7667
 4516SOL     OW16693   5.889   5.747   4.743 -0.1293  0.4139 -0.3342
 4516SOL    HW116694   5.821   5.717   4.803  0.0790  2.0372  0.7694
 4516SOL    HW216695   5.842   5.769   4.662 -0.6664 -0.1067 -0.1662
 4517SOL     OW16696   7.999   7.491   2.719 -0.1570 -0.5155  0.0244
 4517SOL    HW116697   7.932   7.536   2.769  0.6936 -1.2138  1.8627
 4517SOL    HW216698   8.036   7.559   2.662 -0.8071  0.4289  0.7105
 4518SOL     OW16699   4.954   6.332   7.099  0.1157 -0.3874 -0.1547
 4518SOL    HW116700   4.884   6.296   7.153 -0.3680  1.4856  0.5271
 4518SOL    HW216701   5.003   6.389   7.158  2.0658 -1.4236 -0.7004
 4519SOL     OW16702   0.534   0.524   1.300  0.1659 -0.3429  0.5400
 4519SOL    HW116703   0.614   0.540   1.350  2.0473 -0.2940 -2.2681
 4519SOL    HW216704   0.509   0.609   1.265 -0.0400 -0.6546 -0.0921
 4520SOL     OW16705   3.178   7.141   6.692 -0.1571  0.5513 -0.3961
 4520SOL    HW116706   3.233   7.179   6.623  1.0156 -1.0304 -0.3742
 4520SOL    HW216707   3.112   7.092   6.644  0.3094 -0.0694 -0.4138
 4521SOL     OW16708   4.496   0.570   5.188 -0.6613  0.0957 -0.1623
 4521SOL    HW116709   4.541   0.575   5.272  0.4508 -1.3476 -0.6377
 4521SOL    HW216710   4.540   0.635   5.133  0.8168 -1.2093 -0.5822
 4522SOL     OW16711   2.886   3.347   1.941 -0.1830  0.2630  0.2673
 4522SOL    HW116712   2.801   3.304   1.954 -0.2609  0.8775  1.9165
 4522SOL    HW216713   2.888   3.366   1.847 -1.2547 -1.0151 -0.0525
 4523SOL     OW16714   5.599   3.727   0.503  0.2022  0.4237  0.1851
 4523SOL    HW116715   5.535   3.798   0.499 -1.3489 -0.7824  1.9596
 4523SOL    HW216716   5.548   3.650   0.528  2.0550 -1.0310 -0.2724
 4524SOL     OW16717   0.023   4.969   0.012 -0.1423 -0.3105  0.0217
 4524SOL    HW116718  -0.040   5.038  -0.009  0.5423  0.5243  0.6350
 4524SOL    HW216719  -0.031   4.891   0.028 -0.9344  0.1105 -0.5421
 4525SOL     OW16720   7.932   2.554   7.951 -0.1512 -0.1962  0.4310
 4525SOL    HW116721   8.001   2.592   8.005 -0.9778 -0.5893  1.8055
 4525SOL    HW216722   7.890   2.629   7.909 -0.8170  0.3257  1.9638
 4526SOL     OW16723   2.328   0.685   5.122 -0.0359  0.1099  0.2253
 4526SOL    HW116724   2.347   0.635   5.043  0.3071  1.0256 -0.2912
 4526SOL    HW216725   2.413   0.693   5.166 -0.2498 -0.5072  0.7591
 4527SOL     OW16726   3.685   1.054   6.337 -0.9147  0.2977  0.2617
 4527SOL    HW116727   3.699   1.096   6.253  0.7997  1.1558  0.9339
 4527SOL    HW216728   3.725   0.968   6.328 -1.3138  0.1385 -0.0034
 4528SOL     OW16729   4.754   7.584   3.191  0.6513 -0.4036  0.2159
 4528SOL    HW116730   4.768   7.677   3.178 -0.4593 -0.1128  0.9606
 4528SOL    HW216731   4.800   7.564   3.273 -2.2600  0.3714  2.1967
 4529SOL     OW16732   6.395   1.973   6.718 -0.3360 -0.2288 -0.3868
 4529SOL    HW116733   6.409   1.886   6.680  3.1519  0.9238 -2.2025
 4529SOL    HW216734   6.455   1.976   6.793  0.2574  0.8561 -0.8832
 4530SOL     OW16735   6.144   4.347   3.568  0.3197  0.2003  0.1223
 4530SOL    HW116736   6.171   4.351   3.659  0.9942 -0.0234 -0.0608
 4530SOL    HW216737   6.107   4.433   3.549  1.9657  0.9131  0.0643
 4531SOL     OW16738   7.648   2.046   1.442  0.0690 -0.0482 -0.0423
 4531SOL    HW116739   7.726   1.995   1.423 -0.4697 -0.5672 -0.9752
 4531SOL    HW216740   7.579   2.004   1.390 -0.9718  0.0020  1.2410
 4532SOL     OW16741   7.842   6.220   5.421  0.1579 -0.4691 -0.0201
 4532SOL    HW116742   7.765   6.268   5.389 -0.4679 -2.6223 -2.0283
 4532SOL    HW216743   7.831   6.217   5.516 -3.6240 -2.7724 -0.3317
 4533SOL     OW16744   0.918   2.058   5.336 -0.0099  0.2348 -0.0800
 4533SOL    HW116745   0.971   2.014   5.270  0.4755 -1.1507  1.1763
 4533SOL    HW216746   0.829   2.028   5.318 -0.2707  1.6886 -1.4922
 4534SOL     OW16747   1.898   5.912   2.709 -0.1565  0.1393 -0.2868
 4534SOL    HW116748   1.901   5.971   2.784  1.3455  0.6700 -0.7153
 4534SOL    HW216749   1.822   5.941   2.658 -1.9317 -1.0115  1.5909
 4535SOL     OW16750   2.845   3.641   0.601 -0.0026  0.2612 -0.4366
 4535SOL    HW116751   2.759   3.672   0.628 -0.0587  0.3128 -0.6713
 4535SOL    HW216752   2.907   3.697   0.649 -0.0597 -1.1201  1.3304
 4536SOL     OW16753   4.894   0.638   0.572  0.4519  0.3348 -0.5720
 4536SOL    HW116754   4.860   0.576   0.507 -1.9788  0.4502  0.4846
 4536SOL    HW216755   4.931   0.582   0.641 -1.2693  0.0069  0.1332
 4537SOL     OW16756   6.560   7.857   7.424  0.1001 -0.0359 -0.1166
 4537SOL    HW116757   6.597   7.770   7.408 -1.6408 -0.5092 -2.0915
 4537SOL    HW216758   6.613   7.916   7.369 -0.2078 -0.2472 -0.6480
 4538SOL     OW16759   1.714   6.880   7.123  0.3122 -0.0919 -0.1051
 4538SOL    HW116760   1.678   6.944   7.062  0.4575  1.8110  1.6717
 4538SOL    HW216761   1.643   6.818   7.139 -0.6469  0.9580 -0.1501
 4539SOL     OW16762   0.553   2.046   0.841 -0.0586 -0.1821  0.0601
 4539SOL    HW116763   0.462   2.020   0.853 -0.2616  0.3067 -0.4113
 4539SOL    HW216764   0.603   1.971   0.873 -0.6329 -1.0240 -0.9629
 4540SOL     OW16765   7.242   7.116   5.526 -0.2300 -0.1464 -0.4258
 4540SOL    HW116766   7.320   7.137   5.475 -0.2876  1.2579  0.0304
 4540SOL    HW216767   7.206   7.039   5.482  0.6307  0.0204 -1.4945
 4541SOL     OW16768   1.878   3.958   4.995 -0.2352  0.8378  0.0922
 4541SOL    HW116769   1.969   3.963   4.963  0.2696 -0.2962  1.2576
 4541SOL    HW216770   1.826   3.999   4.926  1.0071  0.1978 -1.2800
 4542SOL     OW16771   3.430   2.873   7.325 -0.3992  0.1306 -0.3537
 4542SOL    HW116772   3.441   2.961   7.363  2.3746 -0.1167 -0.3703
 4542SOL    HW216773   3.408   2.889   7.233 -0.1879  0.8325 -0.2892
 4543SOL     OW16774   4.653   7.158   0.871 -0.1645 -0.6560  0.4572
 4543SOL    HW116775   4.570   7.152   0.919 -0.1942  1.8941  0.8655
 4543SOL    HW216776   4.708   7.214   0.925  0.8105  0.0048 -1.1518
 4544SOL     OW16777   5.795   2.113   7.523 -0.1956 -0.0470  0.2492
 4544SOL    HW116778   5.717   2.156   7.487  0.6132  2.1613  0.9704
 4544SOL    HW216779   5.868   2.148   7.472  0.4091 -1.7586 -0.1322
 4545SOL     OW16780   7.447   4.344   0.567 -0.1678  0.0075 -0.1534
 4545SOL    HW116781   7.531   4.340   0.613 -0.5342 -1.0270  0.4477
 4545SOL    HW216782   7.402   4.263   0.591 -1.2261  0.4122 -0.7004
 4546SOL     OW16783   6.842   1.003   0.195  0.1584 -0.6678  0.2574
 4546SOL    HW116784   6.820   0.913   0.173  0.5293 -0.8727  0.7158
 4546SOL    HW216785   6.888   0.997   0.279  0.3747 -0.0754  0.1874
 4547SOL     OW16786   5.209   4.721   5.096 -0.1835  0.2693 -0.3683
 4547SOL    HW116787   5.197   4.673   5.178 -1.0690  0.6338 -0.2689
 4547SOL    HW216788   5.304   4.725   5.084 -0.0673 -0.4046  0.2705
 4548SOL     OW16789   4.286   0.546   4.248 -0.1676  0.6816 -0.2845
 4548SOL    HW116790   4.358   0.607   4.267 -0.1942  0.5874  0.1266
 4548SOL    HW216791   4.249   0.578   4.166  0.0675  0.9883 -0.2736
 4549SOL     OW16792   1.325   0.975   4.957 -0.3200 -0.0716  0.3468
 4549SOL    HW116793   1.302   0.902   4.899  2.3009 -0.9632  0.3099
 4549SOL    HW216794   1.244   1.025   4.964 -1.6210 -1.7310 -1.4397
 4550SOL     OW16795   3.288   2.426   7.544 -0.3759 -0.1519 -0.4215
 4550SOL    HW116796   3.337   2.494   7.498 -2.5250  1.1401 -0.9095
 4550SOL    HW216797   3.244   2.377   7.475  1.0338 -2.0457 -0.0705
 4551SOL     OW16798   2.127   5.663   7.370  0.1065  0.3182  0.2291
 4551SOL    HW116799   2.061   5.679   7.303 -1.1578 -2.3237  0.7355
 4551SOL    HW216800   2.078   5.633   7.446  1.7105  0.9261  1.5818
 4552SOL     OW16801   1.743   3.209   6.205  0.2415 -0.0060  0.1036
 4552SOL    HW116802   1.731   3.295   6.246 -2.0044  0.2463 -0.9004
 4552SOL    HW216803   1.836   3.189   6.216  0.9954  2.8727 -0.2455
 4553SOL     OW16804   1.688   2.387   4.641  0.0776  0.6927  0.0382
 4553SOL    HW116805   1.709   2.309   4.590 -2.1665  0.6087 -0.8977
 4553SOL    HW216806   1.698   2.460   4.580  2.0302  1.1844  0.8701
 4554SOL     OW16807   7.389   1.843   3.757 -0.1871 -0.4242 -0.3045
 4554SOL    HW116808   7.404   1.935   3.776 -0.5763 -0.5138  0.4699
 4554SOL    HW216809   7.321   1.816   3.818 -0.1673 -1.1974 -0.6054
 4555SOL     OW16810   5.024   7.660   4.673  0.5802 -0.3664  0.7657
 4555SOL    HW116811   5.107   7.631   4.710  1.4718 -0.4745 -1.2170
 4555SOL    HW216812   5.010   7.747   4.711  0.9912 -0.8051  1.9747
 4556SOL     OW16813   6.868   2.413   0.932  0.1833 -0.2747  1.0459
 4556SOL    HW116814   6.963   2.414   0.945  0.3024 -0.2532  0.2252
 4556SOL    HW216815   6.856   2.379   0.843 -0.5031  1.2598  0.5128
 4557SOL     OW16816   4.948   3.374   2.005  0.3244 -0.0154 -0.0375
 4557SOL    HW116817   4.870   3.326   1.976 -0.3630  1.6979 -1.1229
 4557SOL    HW216818   5.000   3.384   1.926  0.0641  1.7204 -0.0118
 4558SOL     OW16819   7.808   5.762   0.357  0.2601  0.1312  0.2938
 4558SOL    HW116820   7.858   5.819   0.415  1.9535 -0.9498 -0.0557
 4558SOL    HW216821   7.873   5.719   0.302 -1.0930 -0.9115 -0.5786
 4559SOL     OW16822   0.799   2.214   1.030  0.2088 -0.2369  0.1104
 4559SOL    HW116823   0.846   2.168   0.960  0.7866 -0.5444  0.6833
 4559SOL    HW216824   0.740   2.147   1.066  1.7248 -0.8839  1.5755
 4560SOL     OW16825   4.241   6.748   7.889 -0.5935  0.4018 -0.6663
 4560SOL    HW116826   4.216   6.759   7.981  1.0871 -0.8859 -0.0059
 4560SOL    HW216827   4.158   6.742   7.842 -1.4820  0.6187  0.8202
 4561SOL     OW16828   3.378   7.036   0.986 -0.3017 -0.4215 -0.4000
 4561SOL    HW116829   3.329   7.016   1.066 -0.1615  1.5048  0.2261
 4561SOL    HW216830   3.447   6.970   0.983 -2.0870 -2.3920 -0.6059
 4562SOL     OW16831   5.428   6.497   1.097 -0.0494  0.4222  0.2458
 4562SOL    HW116832   5.462   6.413   1.070  3.1360  1.6146  0.1641
 4562SOL    HW216833   5.461   6.509   1.187 -1.4767  1.0910  0.7228
 4563SOL     OW16834   1.106   6.685   4.179 -0.4468  0.1921 -0.0466
 4563SOL    HW116835   1.028   6.704   4.232  0.5001  0.5285  1.2784
 4563SOL    HW216836   1.164   6.637   4.238  0.5123  0.3045 -0.8759
 4564SOL     OW16837   0.097   8.016   3.058 -0.0263 -0.0943 -0.4150
 4564SOL    HW116838   0.135   8.099   3.088 -0.9891 -0.3032  1.5890
 4564SOL    HW216839   0.012   8.041   3.022 -0.6969 -0.2367  0.9789
 4565SOL     OW16840   3.539   7.354   5.129 -0.5243  0.5862  0.0313
 4565SOL    HW116841   3.533   7.326   5.220  0.1286  1.1855  0.2680
 4565SOL    HW216842   3.605   7.424   5.129  0.1202  0.0175 -1.0312
 4566SOL     OW16843   3.593   6.375   1.436 -0.2960 -0.5866 -0.1268
 4566SOL    HW116844   3.578   6.380   1.341 -1.5901  0.0795  0.0921
 4566SOL    HW216845   3.640   6.456   1.457 -1.6742  0.1913  0.0641
 4567SOL     OW16846   7.952   5.961   5.761  0.1935 -0.0241 -0.5845
 4567SOL    HW116847   7.920   5.907   5.689  1.0060  0.2240 -1.1459
 4567SOL    HW216848   8.028   6.007   5.725  2.1451 -1.7253  1.1002
 4568SOL     OW16849   6.336   2.434   0.888  0.7665  0.1981 -0.1379
 4568SOL    HW116850   6.293   2.514   0.857  0.6119  0.1054 -0.1667
 4568SOL    HW216851   6.428   2.458   0.898  0.4924  0.7935  1.2378
 4569SOL     OW16852   2.024   6.935   5.631  0.6447  0.4071 -0.2334
 4569SOL    HW116853   2.073   7.009   5.668 -0.3238  0.5979  0.7266
 4569SOL    HW216854   2.091   6.879   5.593  1.4925  1.2810 -0.0764
 4570SOL     OW16855   7.911   4.023   2.139  0.0249 -0.2789  0.3682
 4570SOL    HW116856   7.910   4.108   2.094 -0.4171 -0.2748  0.3877
 4570SOL    HW216857   7.819   4.004   2.156  0.1556 -0.5547  0.7617
 4571SOL     OW16858   2.760   1.959   1.827  0.0152 -0.7325  0.2148
 4571SOL    HW116859   2.758   1.965   1.922  0.1678  0.8265  0.1389
 4571SOL    HW216860   2.670   1.980   1.800  0.3045  0.2285 -0.0349
 4572SOL     OW16861   6.043   6.593   6.073  0.3808 -0.2745 -0.4210
 4572SOL    HW116862   6.075   6.572   5.985 -1.6802 -1.2286 -0.9811
 4572SOL    HW216863   6.019   6.686   6.068 -3.1275 -1.1061 -2.0741
 4573SOL     OW16864   6.085   4.881   7.251  0.3835  0.0123 -0.1566
 4573SOL    HW116865   6.120   4.823   7.319 -1.0657 -0.4279  0.2343
 4573SOL    HW216866   5.995   4.899   7.278  0.2591  1.0719 -1.1768
 4574SOL     OW16867   0.292   5.283   2.595  0.8014  0.4041  0.2225
 4574SOL    HW116868   0.330   5.214   2.650  0.2710 -1.4073 -1.5385
 4574SOL    HW216869   0.366   5.334   2.565  1.7262 -1.7562 -1.4378
 4575SOL     OW16870   3.805   3.078   7.083 -0.1386  0.9085  0.6357
 4575SOL    HW116871   3.776   3.034   7.004  0.5187  0.8138  0.4441
 4575SOL    HW216872   3.886   3.033   7.108  1.0104  2.4732 -0.0231
 4576SOL     OW16873   6.412   0.985   0.966  0.3828  0.1311 -0.1751
 4576SOL    HW116874   6.471   1.056   0.990  0.9851 -0.4020 -0.0708
 4576SOL    HW216875   6.452   0.906   1.001 -0.7404 -0.1638  0.5183
 4577SOL     OW16876   0.642   6.208   0.336  0.4506 -0.1218  0.2091
 4577SOL    HW116877   0.705   6.224   0.266  0.8157  0.2032  0.6089
 4577SOL    HW216878   0.667   6.122   0.372  0.5648 -0.0676  0.2598
 4578SOL     OW16879   2.425   1.881   2.292  0.7198 -0.3475  0.7144
 4578SOL    HW116880   2.381   1.835   2.363 -0.8935 -0.6988 -0.4609
 4578SOL    HW216881   2.410   1.974   2.311 -0.9892 -0.4627  0.1040
 4579SOL     OW16882   5.306   0.932   3.075  0.8256  0.2680 -0.1729
 4579SOL    HW116883   5.290   0.883   2.994  0.2975  0.6274 -0.2926
 4579SOL    HW216884   5.396   0.911   3.098  0.1164 -2.0725  0.6974
 4580SOL     OW16885   2.275   7.153   3.980  0.5134  0.2605  0.1322
 4580SOL    HW116886   2.254   7.210   4.054 -1.0088  0.0997 -0.1391
 4580SOL    HW216887   2.215   7.180   3.911  1.6116  0.1200 -0.9216
 4581SOL     OW16888   5.822   2.494   6.882 -0.7294  0.1349 -0.6424
 4581SOL    HW116889   5.761   2.423   6.903 -0.9012  0.3383 -0.4542
 4581SOL    HW216890   5.857   2.522   6.967  0.4270 -0.6825 -0.8237
 4582SOL     OW16891   2.466   2.877   1.804 -0.1633 -0.1669  0.2958
 4582SOL    HW116892   2.504   2.862   1.717 -0.5988  1.8212 -0.2867
 4582SOL    HW216893   2.388   2.930   1.787  0.0047  0.6512  1.9469
 4583SOL     OW16894   6.363   7.050   6.119 -0.6623 -0.3942 -0.1453
 4583SOL    HW116895   6.295   7.116   6.102 -0.7098 -0.3222  0.2952
 4583SOL    HW216896   6.443   7.100   6.130 -0.7347 -0.3906  0.3855
 4584SOL     OW16897   0.119   2.171   0.281  0.3958  0.0105 -0.0813
 4584SOL    HW116898   0.069   2.252   0.286 -0.7539 -0.6752 -0.1186
 4584SOL    HW216899   0.116   2.146   0.189  0.9776  0.0610 -0.1187
 4585SOL     OW16900   7.111   0.845   3.474 -0.4692  0.2718  0.1064
 4585SOL    HW116901   7.157   0.837   3.390  0.1973  0.9841  0.3929
 4585SOL    HW216902   7.127   0.762   3.519 -1.8430 -0.6198 -0.9433
 4586SOL     OW16903   0.900   2.950   6.548  0.1668  0.0268 -1.0824
 4586SOL    HW116904   0.934   2.861   6.544 -2.3513 -1.0071 -1.6301
 4586SOL    HW216905   0.863   2.965   6.461 -1.1878  0.8265 -0.4032
 4587SOL     OW16906   0.083   1.861   2.808 -0.7650  0.7838 -0.1287
 4587SOL    HW116907   0.166   1.878   2.854 -1.6317  1.2732  1.3135
 4587SOL    HW216908   0.020   1.846   2.877 -1.9930  0.8451 -1.1968
 4588SOL     OW16909   7.990   2.762   7.507 -0.6683  0.2289 -0.1805
 4588SOL    HW116910   8.051   2.716   7.450  0.2116  0.2957  0.6850
 4588SOL    HW216911   7.978   2.847   7.466 -0.0248  0.2861 -0.2573
 4589SOL     OW16912   4.288   0.598   1.341  0.0983  0.1996 -0.0392
 4589SOL    HW116913   4.334   0.617   1.259  0.6579  0.8237  0.4074
 4589SOL    HW216914   4.257   0.508   1.330 -0.6384  0.5793 -1.2996
 4590SOL     OW16915   4.686   4.700   6.178  0.0390  0.5071  0.0076
 4590SOL    HW116916   4.655   4.790   6.186 -1.4294  0.0249  0.1795
 4590SOL    HW216917   4.755   4.703   6.111  2.1237  2.2084  2.1065
 4591SOL     OW16918   6.999   0.741   4.889 -0.1411  0.1260 -0.5205
 4591SOL    HW116919   6.916   0.693   4.879  1.0015 -2.2546  0.5737
 4591SOL    HW216920   7.001   0.801   4.815 -1.5030 -1.8530 -2.3005
 4592SOL     OW16921   2.157   2.670   1.161  0.4469 -0.3177 -0.9665
 4592SOL    HW116922   2.086   2.626   1.209 -0.2899 -0.6647 -2.3381
 4592SOL    HW216923   2.125   2.677   1.072  1.3461  1.3182 -1.1992
 4593SOL     OW16924   5.022   3.164   7.108 -0.2071  0.8476  0.4396
 4593SOL    HW116925   4.952   3.211   7.155 -0.0603  0.2707  1.2547
 4593SOL    HW216926   4.976   3.099   7.056 -0.2559 -0.1027  1.6262
 4594SOL     OW16927   6.436   0.581   6.914 -0.0678  0.1710 -0.6108
 4594SOL    HW116928   6.431   0.598   6.820  0.2250 -0.2263 -0.7012
 4594SOL    HW216929   6.348   0.550   6.937 -1.2737  3.5664 -0.0576
 4595SOL     OW16930   2.483   4.719   6.266 -0.5076  0.0642  0.6128
 4595SOL    HW116931   2.508   4.634   6.228  0.8922  1.3371 -1.5219
 4595SOL    HW216932   2.490   4.705   6.360  0.0923 -2.0676  0.3227
 4596SOL     OW16933   3.826   7.963   6.567  0.1700 -0.1142  0.3739
 4596SOL    HW116934   3.749   7.927   6.612 -0.6973  1.6604  0.4099
 4596SOL    HW216935   3.887   7.986   6.637 -0.2788  0.6617  0.5208
 4597SOL     OW16936   2.260   0.637   0.976 -0.6283  0.7867  0.1660
 4597SOL    HW116937   2.270   0.551   0.933 -0.7375 -0.5313  2.5932
 4597SOL    HW216938   2.175   0.631   1.020 -0.5396  2.0788  0.5371
 4598SOL     OW16939   7.700   7.633   7.868 -0.1797 -0.2306  0.5847
 4598SOL    HW116940   7.662   7.684   7.940  0.1283 -0.0622  0.6266
 4598SOL    HW216941   7.627   7.580   7.836 -0.0836 -1.1048  1.7230
 4599SOL     OW16942   1.786   7.968   3.362  0.2947  0.1822 -0.3394
 4599SOL    HW116943   1.836   8.042   3.328 -1.2497  1.0398 -0.8387
 4599SOL    HW216944   1.774   7.988   3.455  1.6925 -0.5263  0.0188
 4600SOL     OW16945   7.451   1.026   4.539  0.4599  0.1629 -0.2954
 4600SOL    HW116946   7.437   0.944   4.585 -0.1545  0.2435 -0.3309
 4600SOL    HW216947   7.365   1.051   4.507  0.4402  1.3243  0.5685
 4601SOL     OW16948   1.270   4.328   7.337  0.8811  0.0727 -0.0523
 4601SOL    HW116949   1.213   4.354   7.410  0.7737  0.1792 -0.1720
 4601SOL    HW216950   1.324   4.405   7.320 -0.3129  0.7105 -1.2464
 4602SOL     OW16951   6.740   8.046   1.206  0.0748 -0.1191 -0.2585
 4602SOL    HW116952   6.671   8.001   1.156  0.5324 -1.4086  0.2243
 4602SOL    HW216953   6.694   8.081   1.283 -0.3606  0.5853 -0.8316
 4603SOL     OW16954   0.286   1.368   1.854  0.0996 -0.1593 -0.4907
 4603SOL    HW116955   0.240   1.311   1.916 -0.3895  1.8378  1.1191
 4603SOL    HW216956   0.339   1.425   1.909  0.0962  1.3349 -1.9358
 4604SOL     OW16957   0.756   4.372   2.054  0.1186 -0.2057 -0.7292
 4604SOL    HW116958   0.800   4.442   2.004  1.3176  0.0509  0.6084
 4604SOL    HW216959   0.761   4.401   2.145 -0.1994 -1.6025 -0.2454
 4605SOL     OW16960   1.071   7.538   7.153  0.0186  0.1568  0.1357
 4605SOL    HW116961   0.983   7.550   7.118  1.3343  2.3358 -2.7938
 4605SOL    HW216962   1.079   7.606   7.220  0.0424  1.2345 -0.9253
 4606SOL     OW16963   0.843   4.928   2.948  0.5506 -0.4362  0.3316
 4606SOL    HW116964   0.865   4.871   2.874  0.2212 -1.0377  0.6864
 4606SOL    HW216965   0.803   4.869   3.012  2.5443 -0.2970  1.7916
 4607SOL     OW16966   7.901   0.399   6.614 -0.0304 -0.2137 -0.8093
 4607SOL    HW116967   7.977   0.441   6.655  0.3435 -2.7540  1.3803
 4607SOL    HW216968   7.916   0.408   6.520  1.4466  1.8826 -0.4479
 4608SOL     OW16969   0.842   0.990   0.164 -0.2798  0.3081  0.2154
 4608SOL    HW116970   0.822   1.022   0.076 -1.0767 -0.5406  0.0736
 4608SOL    HW216971   0.757   0.967   0.201  0.0815  0.3551  1.0883
 4609SOL     OW16972   5.488   7.458   3.593 -0.3090 -0.3754  0.1821
 4609SOL    HW116973   5.470   7.394   3.524 -0.6041 -0.6884  0.5479
 4609SOL    HW216974   5.464   7.542   3.553  2.0043 -0.2063 -1.0269
 4610SOL     OW16975   3.322   0.936   1.749  0.1871 -0.2276 -0.9381
 4610SOL    HW116976   3.260   0.891   1.691 -0.6137 -0.3904  0.0268
 4610SOL    HW216977   3.367   0.866   1.795  1.1949 -0.1117 -1.7215
 4611SOL     OW16978   4.454   3.015   2.144  0.0486  0.3855  0.0764
 4611SOL    HW116979   4.528   2.979   2.095  1.3104  1.0203  1.4099
 4611SOL    HW216980   4.419   2.942   2.195  0.3208  0.2614  0.0835
 4612SOL     OW16981   8.078   4.200   2.507  0.1886 -0.1469  0.3252
 4612SOL    HW116982   8.150   4.262   2.496  0.6729 -0.4947  1.4341
 4612SOL    HW216983   8.087   4.139   2.434  0.4635  0.3508 -0.0609
 4613SOL     OW16984   1.894   7.595   0.269 -0.4321  0.1645 -0.1496
 4613SOL    HW116985   1.801   7.606   0.291 -0.3765 -0.8962  0.7451
 4613SOL    HW216986   1.893   7.544   0.188 -0.6868 -2.3759  1.3440
 4614SOL     OW16987   3.595   7.212   7.264  0.0569 -0.5068  0.2978
 4614SOL    HW116988   3.580   7.121   7.241 -2.8014  0.1172 -0.6894
 4614SOL    HW216989   3.545   7.225   7.345 -1.4337  0.6772 -0.7665
 4615SOL     OW16990   6.336   4.921   6.168  0.4615 -0.0334 -0.1322
 4615SOL    HW116991   6.252   4.928   6.122 -0.7129  0.5858  2.0003
 4615SOL    HW216992   6.357   4.828   6.165 -0.0801 -0.1408 -1.0512
 4616SOL     OW16993   5.665   0.757   1.923 -0.4162 -0.1561  0.3719
 4616SOL    HW116994   5.662   0.853   1.930  0.5487 -0.1891  1.5959
 4616SOL    HW216995   5.619   0.738   1.842  4.6900  1.7953 -3.5787
 4617SOL     OW16996   2.935   0.797   1.817 -0.1427 -0.0578  0.0143
 4617SOL    HW116997   2.888   0.714   1.823 -0.7772  0.3563  0.9875
 4617SOL    HW216998   3.004   0.780   1.753 -1.3188 -0.8195 -1.1100
 4618SOL     OW16999   6.687   2.844   0.332 -0.2733  0.0027  0.0945
 4618SOL    HW117000   6.604   2.843   0.378 -1.2435  1.5780 -1.4830
 4618SOL    HW217001   6.668   2.803   0.247  0.1242  1.6791 -0.8569
 4619SOL     OW17002   2.323   7.418   4.768 -0.1019  0.1197  0.4911
 4619SOL    HW117003   2.396   7.448   4.822  0.5225 -0.3515 -0.0716
 4619SOL    HW217004   2.275   7.498   4.746  2.1382  0.9591 -1.8642
 4620SOL     OW17005   0.060   6.768   7.987  0.8111  0.0138 -0.2236
 4620SOL    HW117006   0.114   6.847   7.986 -0.1102  0.6430 -1.3607
 4620SOL    HW217007   0.039   6.751   7.895  0.3110 -1.0827  0.0740
 4621SOL     OW17008   2.813   8.087   5.013 -0.4435 -0.5674  0.3687
 4621SOL    HW117009   2.856   8.060   5.094 -1.5011 -0.5304  0.9579
 4621SOL    HW217010   2.767   8.009   4.983 -1.0655 -0.2414  0.4674
 4622SOL     OW17011   4.821   2.354   6.740  0.3569 -0.0093 -0.2224
 4622SOL    HW117012   4.739   2.398   6.718  1.3462  1.9573 -0.1687
 4622SOL    HW217013   4.812   2.333   6.833  0.2969  1.1530  0.0527
 4623SOL     OW17014   1.749   2.571   1.744  0.3438  0.3133 -0.0919
 4623SOL    HW117015   1.733   2.505   1.812 -0.2348  0.1470 -0.3811
 4623SOL    HW217016   1.822   2.623   1.778 -1.9326  2.2630  2.2050
 4624SOL     OW17017   1.255   2.376   7.360 -0.3270 -0.0673  0.8545
 4624SOL    HW117018   1.214   2.422   7.434 -0.8914  1.6111 -0.4390
 4624SOL    HW217019   1.305   2.444   7.315  1.5417 -1.4728  0.7206
 4625SOL     OW17020   1.206   6.355   2.591 -0.0785 -0.1562  0.3918
 4625SOL    HW117021   1.195   6.297   2.667  2.6318 -0.3728  0.7202
 4625SOL    HW217022   1.117   6.383   2.570 -1.4282 -3.5684  0.8679
 4626SOL     OW17023   2.837   7.152   7.646 -0.1886  0.2100  0.0214
 4626SOL    HW117024   2.793   7.187   7.724  0.2450 -0.3641  0.5377
 4626SOL    HW217025   2.921   7.197   7.643 -0.8114  1.3564 -1.0059
 4627SOL     OW17026   1.557   4.391   5.356  0.0868  0.4264 -0.6203
 4627SOL    HW117027   1.607   4.454   5.304  0.6660 -1.3333 -2.3082
 4627SOL    HW217028   1.622   4.349   5.412 -0.0367  0.3192 -0.5561
 4628SOL     OW17029   0.697   6.457   3.914  0.3669 -0.3263  0.0143
 4628SOL    HW117030   0.785   6.432   3.889  0.2099 -1.1091  0.2249
 4628SOL    HW217031   0.694   6.443   4.009 -0.0681 -0.5863 -0.0330
 4629SOL     OW17032   2.153   1.512   3.428 -0.0209  0.2341 -0.2694
 4629SOL    HW117033   2.118   1.525   3.340 -0.0603 -2.2134 -0.7016
 4629SOL    HW217034   2.237   1.469   3.415 -0.2968 -0.7225  0.8654
 4630SOL     OW17035   2.513   1.994   2.013 -0.1868 -0.1779  0.3678
 4630SOL    HW117036   2.428   1.983   1.970  0.5560 -0.4567 -1.1107
 4630SOL    HW217037   2.495   1.983   2.106 -1.7673 -0.2119  0.0837
 4631SOL     OW17038   7.943   6.997   2.523 -0.2100 -0.2516  0.4306
 4631SOL    HW117039   7.956   7.033   2.611 -1.8619 -0.6713  0.8866
 4631SOL    HW217040   8.027   7.011   2.479  0.2865  1.0189  1.6855
 4632SOL     OW17041   7.903   0.471   3.245  0.3526 -0.2762  0.0785
 4632SOL    HW117042   7.862   0.445   3.327  1.6233  0.0296  0.8353
 4632SOL    HW217043   7.855   0.423   3.177  0.3670 -1.8178  1.1292
 4633SOL     OW17044   1.411   4.838   6.047 -0.0366 -0.0358 -0.0577
 4633SOL    HW117045   1.458   4.911   6.088  0.2876 -0.6140  0.6153
 4633SOL    HW217046   1.477   4.770   6.035 -0.1168  0.1108 -1.5811
 4634SOL     OW17047   7.480   2.290   7.340  0.0007 -0.0717 -0.5249
 4634SOL    HW117048   7.432   2.331   7.412  1.8020  0.2965  0.5324
 4634SOL    HW217049   7.561   2.340   7.334  0.0816 -0.3594 -2.5670
 4635SOL     OW17050   3.644   4.712   3.341 -0.0109  0.0524 -0.3470
 4635SOL    HW117051   3.715   4.728   3.404  0.0820 -0.9585 -0.1900
 4635SOL    HW217052   3.581   4.783   3.359  1.0108  1.0517 -0.5934
 4636SOL     OW17053   2.534   4.979   6.709  0.1890 -0.1911  0.8608
 4636SOL    HW117054   2.581   4.961   6.791 -1.0788 -0.4269  1.5616
 4636SOL    HW217055   2.478   5.054   6.730 -1.8964 -1.6863  0.9704
 4637SOL     OW17056   1.304   3.751   7.998 -0.2096  0.3000 -0.1538
 4637SOL    HW117057   1.313   3.697   7.919  2.5721 -0.2302  0.4049
 4637SOL    HW217058   1.356   3.829   7.980  1.7811 -0.5020  1.5945
 4638SOL     OW17059   2.639   1.565   7.876 -0.1422  0.2533  0.3153
 4638SOL    HW117060   2.628   1.586   7.969  0.3382 -1.1582  0.7102
 4638SOL    HW217061   2.650   1.470   7.874  0.9570  0.3826 -1.0787
 4639SOL     OW17062   5.290   1.491   6.479 -0.3768 -0.2020 -0.5444
 4639SOL    HW117063   5.263   1.447   6.559 -0.8583  0.0741 -0.5566
 4639SOL    HW217064   5.252   1.578   6.485  1.3153  0.5464 -0.0991
 4640SOL     OW17065   5.431   7.608   4.701  0.4245 -0.5923  0.1899
 4640SOL    HW117066   5.524   7.594   4.689  0.1655 -1.6229 -0.8034
 4640SOL    HW217067   5.404   7.660   4.626  0.0867 -0.8284  0.1445
 4641SOL     OW17068   6.194   7.729   2.842  0.1506  0.0530 -0.0102
 4641SOL    HW117069   6.207   7.741   2.936  1.8297 -1.6045  0.0220
 4641SOL    HW217070   6.106   7.691   2.835  0.6735 -1.4527  1.0776
 4642SOL     OW17071   7.335   0.448   2.742 -0.2150  0.2469  0.4156
 4642SOL    HW117072   7.344   0.542   2.727 -1.2676 -0.0555 -2.8198
 4642SOL    HW217073   7.254   0.439   2.793 -1.7350  1.0620 -1.6843
 4643SOL     OW17074   6.516   4.572   4.301  0.3642  0.0245 -0.0729
 4643SOL    HW117075   6.568   4.494   4.283  1.2378  0.4944  0.3437
 4643SOL    HW217076   6.473   4.553   4.385 -1.8835 -1.2255 -1.3981
 4644SOL     OW17077   4.866   4.286   4.499 -0.3303  0.6132 -0.5233
 4644SOL    HW117078   4.811   4.211   4.519 -1.5119  1.7455  0.6652
 4644SOL    HW217079   4.833   4.318   4.414  0.2593 -0.2618 -1.0920
 4645SOL     OW17080   2.308   1.180   3.748 -0.4908 -0.5002 -0.5237
 4645SOL    HW117081   2.280   1.201   3.837 -0.5189 -0.1332 -0.6183
 4645SOL    HW217082   2.230   1.141   3.708 -1.2149  1.4211 -1.0965
 4646SOL     OW17083   7.166   4.874   6.387  0.0800 -0.0591 -0.1241
 4646SOL    HW117084   7.145   4.941   6.452 -0.4169 -1.0327  0.7517
 4646SOL    HW217085   7.240   4.827   6.424 -1.3394 -1.7893  0.6497
 4647SOL     OW17086   1.854   3.062   6.918  0.2916  0.1776  0.0076
 4647SOL    HW117087   1.856   2.988   6.857  0.0321  0.0756  0.1185
 4647SOL    HW217088   1.908   3.129   6.878  2.5185 -0.9329  0.9973
 4648SOL     OW17089   0.669   6.861   6.236 -0.3451  0.1643  0.4079
 4648SOL    HW117090   0.706   6.948   6.249  1.0950 -0.6039  1.6928
 4648SOL    HW217091   0.742   6.809   6.203 -1.1131 -0.6429 -0.0514
 4649SOL     OW17092   3.787   5.825   7.738 -0.2148 -0.0489 -0.3460
 4649SOL    HW117093   3.746   5.810   7.824  0.1023  0.4706 -0.0971
 4649SOL    HW217094   3.715   5.822   7.676 -0.6560  0.9174  0.0937
 4650SOL     OW17095   2.895   0.039   3.618 -0.2267  0.3170  0.1409
 4650SOL    HW117096   2.959  -0.024   3.653 -0.2504 -0.1679 -0.6568
 4650SOL    HW217097   2.816   0.025   3.670  0.1974  0.6555  0.8827
 4651SOL     OW17098   1.385   5.235   5.976  0.2610  0.3073  0.0474
 4651SOL    HW117099   1.324   5.304   5.950  1.1191  0.2312 -2.5100
 4651SOL    HW217100   1.406   5.191   5.894  0.3335 -2.5422  1.4890
 4652SOL     OW17101   0.056   2.702   8.025  0.0763 -0.1824 -0.2191
 4652SOL    HW117102   0.118   2.708   8.097 -0.6743  0.4334  0.3960
 4652SOL    HW217103   0.110   2.686   7.947  0.9548 -0.0804  0.3631
 4653SOL     OW17104   4.916   3.060   1.251 -0.8050  0.5929 -0.8272
 4653SOL    HW117105   5.008   3.067   1.224 -0.5082 -0.5620 -0.1898
 4653SOL    HW217106   4.866   3.089   1.175  0.0584 -0.3186 -1.7699
 4654SOL     OW17107   4.394   6.919   3.916  0.4957  0.3417  0.4979
 4654SOL    HW117108   4.344   6.881   3.843  2.5489 -0.3533 -0.6107
 4654SOL    HW217109   4.381   7.014   3.907  0.7561  0.2688 -0.8189
 4655SOL     OW17110   7.014   1.249   1.773 -0.0542  0.3448  0.5385
 4655SOL    HW117111   7.061   1.239   1.856 -0.7601 -0.2776  0.8833
 4655SOL    HW217112   7.079   1.284   1.712  0.3935  1.1183  1.4347
 4656SOL     OW17113   6.297   5.439   3.419 -0.4530 -0.7998 -0.4083
 4656SOL    HW117114   6.333   5.443   3.330 -2.3652 -0.9151 -1.2461
 4656SOL    HW217115   6.312   5.349   3.448  1.1586 -0.4765 -0.1355
 4657SOL     OW17116   6.566   0.546   1.476 -0.3242  0.0032 -0.1796
 4657SOL    HW117117   6.552   0.575   1.566 -0.1971  0.7678 -0.3913
 4657SOL    HW217118   6.617   0.617   1.436  0.0153 -0.5407 -0.7232
 4658SOL     OW17119   0.867   3.190   7.154  0.1155 -0.3614  0.0488
 4658SOL    HW117120   0.916   3.270   7.130 -1.4321  1.1115  1.5409
 4658SOL    HW217121   0.869   3.189   7.250 -0.4286 -1.8054  0.0610
 4659SOL     OW17122   3.431   7.193   1.852 -0.2341 -0.0289  0.2961
 4659SOL    HW117123   3.375   7.150   1.787  0.4875  1.2306 -1.2236
 4659SOL    HW217124   3.515   7.147   1.844  0.8800  2.1810 -2.1072
 4660SOL     OW17125   3.939   7.748   3.862 -0.0119 -0.4955  0.5314
 4660SOL    HW117126   3.964   7.738   3.954 -0.2733  1.2360  0.8360
 4660SOL    HW217127   3.844   7.757   3.864 -0.0859 -1.1202  0.0133
 4661SOL     OW17128   5.753   4.701   2.772  0.6279  0.4062  0.6947
 4661SOL    HW117129   5.698   4.767   2.813  0.6857  1.3118 -0.6001
 4661SOL    HW217130   5.797   4.657   2.844 -1.0237  0.3490  1.6909
 4662SOL     OW17131   7.481   7.185   5.412  0.3313  0.6201 -0.0316
 4662SOL    HW117132   7.570   7.152   5.397  0.2324  1.0554 -1.7984
 4662SOL    HW217133   7.492   7.253   5.480  0.9152 -1.1160  1.6959
 4663SOL     OW17134   5.709   2.309   0.576 -0.2135  0.1526 -0.3623
 4663SOL    HW117135   5.758   2.392   0.574 -0.3683  0.2235 -1.3607
 4663SOL    HW217136   5.771   2.244   0.545 -0.4374  0.0745 -0.6437
 4664SOL     OW17137   3.060   4.951   4.883 -0.1894  0.2045 -0.4466
 4664SOL    HW117138   3.075   4.967   4.976  0.7519  0.0852 -0.5741
 4664SOL    HW217139   2.967   4.928   4.878  0.0352 -1.0745  0.6417
 4665SOL     OW17140   6.987   5.388   1.986  0.3129 -0.0690 -0.0114
 4665SOL    HW117141   7.073   5.356   2.010  0.2313  0.7430  1.5196
 4665SOL    HW217142   6.942   5.312   1.948  1.0638 -0.9986  0.9092
 4666SOL     OW17143   7.591   4.318   2.022  0.4292 -0.7301  0.1445
 4666SOL    HW117144   7.599   4.288   1.931  1.4368 -0.3406  0.0945
 4666SOL    HW217145   7.505   4.359   2.025  0.5017 -0.4768 -0.7216
 4667SOL     OW17146   5.666   7.665   3.547 -0.1632  0.7194  0.4395
 4667SOL    HW117147   5.709   7.692   3.466  1.0628 -1.5114  0.2774
 4667SOL    HW217148   5.736   7.661   3.612 -0.5006 -0.7708  0.7435
 4668SOL     OW17149   5.965   7.842   4.301 -0.0003 -0.2836 -0.4035
 4668SOL    HW117150   5.906   7.786   4.251  1.0086  0.4003 -2.4437
 4668SOL    HW217151   6.053   7.817   4.273  0.6335 -0.0123  1.2130
 4669SOL     OW17152   0.612   2.053   8.017  0.6047  0.3334  0.2360
 4669SOL    HW117153   0.595   2.009   8.100 -1.2023 -0.4567 -0.5093
 4669SOL    HW217154   0.526   2.082   7.987  0.6889 -2.1387 -2.8377
 4670SOL     OW17155   4.811   5.937   7.601  1.0921 -0.1215 -0.3836
 4670SOL    HW117156   4.879   5.925   7.534  0.9262 -1.3411 -0.3667
 4670SOL    HW217157   4.756   5.859   7.593 -1.1466  1.4513 -1.3215
 4671SOL     OW17158   2.139   0.991   6.435  0.2150  0.1099  0.4494
 4671SOL    HW117159   2.155   0.917   6.493 -0.0859 -1.0824 -0.9309
 4671SOL    HW217160   2.044   0.988   6.418  0.4116 -0.0611 -0.7077
 4672SOL     OW17161   3.482   1.498   7.750  0.1659 -0.1545 -0.0610
 4672SOL    HW117162   3.462   1.489   7.657 -0.4846 -0.5127  0.1059
 4672SOL    HW217163   3.577   1.495   7.755  0.3051  1.7329 -0.8978
 4673SOL     OW17164   3.593   4.968   3.138  0.1671 -0.6568 -0.3613
 4673SOL    HW117165   3.600   4.882   3.097  0.0219 -0.7846 -0.1155
 4673SOL    HW217166   3.673   4.976   3.190  0.8869 -0.0500 -1.5032
 4674SOL     OW17167   6.187   5.707   6.651  0.1171  0.0595  0.1091
 4674SOL    HW117168   6.133   5.707   6.572 -0.6913 -0.8849  0.6286
 4674SOL    HW217169   6.123   5.715   6.723  0.7487 -0.1751  0.7024
 4675SOL     OW17170   0.106   2.507   2.500  0.6487 -0.1583  0.2700
 4675SOL    HW117171   0.125   2.457   2.579  0.2847 -0.8223 -0.0610
 4675SOL    HW217172   0.160   2.467   2.432  1.9247  1.1975  0.4241
 4676SOL     OW17173   7.608   5.511   1.720  0.2210  0.5421 -0.4643
 4676SOL    HW117174   7.699   5.510   1.691  0.2251  0.0003 -0.4507
 4676SOL    HW217175   7.609   5.461   1.802 -0.6413 -2.7152 -2.2488
 4677SOL     OW17176   0.257   1.670   2.630 -0.0865 -1.0052 -0.1331
 4677SOL    HW117177   0.199   1.710   2.695  0.7315 -0.5928  0.3591
 4677SOL    HW217178   0.229   1.707   2.546  1.3698  1.5701  0.4061
 4678SOL     OW17179   5.118   3.839   8.005 -0.3899  0.0916 -0.9397
 4678SOL    HW117180   5.149   3.922   7.968  0.2694  0.5164  0.4826
 4678SOL    HW217181   5.198   3.790   8.025 -0.7629 -0.6496 -1.2304
 4679SOL     OW17182   7.881   0.111   7.529 -0.2577  0.1934  0.1297
 4679SOL    HW117183   7.848   0.189   7.483 -0.5962  0.2555  0.4691
 4679SOL    HW217184   7.968   0.097   7.493 -0.9983 -0.5019 -1.4548
 4680SOL     OW17185   4.125   5.220   6.868  0.3811  0.1512 -0.6966
 4680SOL    HW117186   4.088   5.261   6.790 -2.2940 -1.4627 -0.3710
 4680SOL    HW217187   4.172   5.143   6.835  0.0242 -0.0321 -0.7726
 4681SOL     OW17188   7.436   4.560   4.562  0.2679 -0.4753  0.4091
 4681SOL    HW117189   7.428   4.652   4.585 -1.0819 -1.1744  3.1194
 4681SOL    HW217190   7.528   4.540   4.579  0.7290  0.4682 -0.8154
 4682SOL     OW17191   4.080   2.425   7.134 -0.3272  0.6028  0.3238
 4682SOL    HW117192   4.020   2.399   7.064 -1.3430  1.0060  1.0210
 4682SOL    HW217193   4.040   2.504   7.172  0.6517  0.8852  0.8073
 4683SOL     OW17194   3.783   0.784   2.169  0.3925 -0.1626 -0.1054
 4683SOL    HW117195   3.818   0.760   2.083 -0.0019 -1.6941  0.1331
 4683SOL    HW217196   3.815   0.716   2.227  1.0519  1.1134  1.0922
 4684SOL     OW17197   7.675   5.243   8.080  0.1257 -0.8883 -0.4262
 4684SOL    HW117198   7.640   5.330   8.065 -0.0580 -0.5784  1.5539
 4684SOL    HW217199   7.597   5.186   8.080  0.0700 -0.8154 -0.2397
 4685SOL     OW17200   2.876   7.411   6.147 -0.2428  0.1756 -0.3654
 4685SOL    HW117201   2.820   7.375   6.216 -0.6078  1.4109  0.0091
 4685SOL    HW217202   2.936   7.339   6.126 -1.3211 -0.8471 -0.0911
 4686SOL     OW17203   1.084   4.363   0.435  0.2427  0.3335  0.0727
 4686SOL    HW117204   1.141   4.386   0.509 -1.7409 -0.1019  1.8139
 4686SOL    HW217205   1.034   4.443   0.418  1.4105  0.7639 -1.5569
 4687SOL     OW17206   3.063   0.157   6.123 -0.1646 -0.5318  0.2441
 4687SOL    HW117207   3.116   0.217   6.071 -0.8480  1.5134  1.7674
 4687SOL    HW217208   3.042   0.206   6.203 -0.1826 -3.0655  1.9274
 4688SOL     OW17209   2.434   5.753   4.500  1.0240  0.3466  0.4392
 4688SOL    HW117210   2.403   5.663   4.497 -0.3485  0.8107 -0.2062
 4688SOL    HW217211   2.422   5.780   4.591  1.4650 -0.1259  0.6402
 4689SOL     OW17212   0.533   3.827   8.046 -0.1733 -0.9633  0.5341
 4689SOL    HW117213   0.524   3.921   8.063 -1.0425 -1.0515  0.6336
 4689SOL    HW217214   0.612   3.802   8.093 -0.1158 -0.3441  0.7868
 4690SOL     OW17215   8.091   7.320   3.666  0.6277  0.1333  0.1803
 4690SOL    HW117216   8.021   7.345   3.606  1.0000  3.8010  1.0472
 4690SOL    HW217217   8.155   7.391   3.659  1.4802 -0.1339  3.6246
 4691SOL     OW17218   2.203   6.869   0.353  0.3250  0.1669 -0.0149
 4691SOL    HW117219   2.161   6.804   0.409  1.7421 -0.7302  0.0583
 4691SOL    HW217220   2.134   6.932   0.332 -0.9511 -1.0904  0.3227
 4692SOL     OW17221   4.010   0.058   6.650  0.0891 -0.2814 -0.2389
 4692SOL    HW117222   4.013   0.108   6.568 -0.5177 -0.7879 -0.5864
 4692SOL    HW217223   4.098   0.023   6.661  0.1974 -0.1379 -0.6409
 4693SOL     OW17224   2.687   2.266   6.442  0.0572  0.2326  0.4290
 4693SOL    HW117225   2.646   2.321   6.375 -1.5138 -1.4817 -0.0981
 4693SOL    HW217226   2.658   2.304   6.525  1.1681  1.7421  0.1726
 4694SOL     OW17227   3.056   1.100   6.190  0.1314  0.0910 -0.4104
 4694SOL    HW117228   3.038   1.061   6.104 -2.1094 -0.2319  0.1319
 4694SOL    HW217229   3.025   1.035   6.253  1.3463  0.4986  0.6575
 4695SOL     OW17230   1.652   0.546   3.222 -0.2046  0.5296  0.4314
 4695SOL    HW117231   1.557   0.539   3.223 -0.1607 -0.2793  2.2440
 4695SOL    HW217232   1.684   0.465   3.261  1.4428 -0.9207 -3.4215
 4696SOL     OW17233   0.619   2.057   5.070  0.1770 -0.0054  0.5857
 4696SOL    HW117234   0.660   2.123   5.125  0.5696 -0.8452  1.3269
 4696SOL    HW217235   0.629   1.975   5.119  1.2311 -0.9211 -1.0432
 4697SOL     OW17236   0.640   1.525   3.180 -0.3770 -0.1357 -0.3421
 4697SOL    HW117237   0.592   1.474   3.245 -0.3666 -0.1609 -0.3543
 4697SOL    HW217238   0.649   1.612   3.219  3.0732 -1.1122  1.4744
 4698SOL     OW17239   2.380   1.389   3.364 -0.0774 -0.6033 -0.0404
 4698SOL    HW117240   2.418   1.306   3.394  2.8453  0.6142 -0.0285
 4698SOL    HW217241   2.377   1.381   3.269 -2.4455 -1.6788  0.0440
 4699SOL     OW17242   0.807   5.986   1.476 -0.2293 -0.2812  0.4219
 4699SOL    HW117243   0.725   5.943   1.453  0.3523 -1.1348 -0.0938
 4699SOL    HW217244   0.849   5.926   1.537 -0.4947  0.6842  1.5980
 4700SOL     OW17245   4.614   6.186   3.540  0.2026 -0.3079 -0.1409
 4700SOL    HW117246   4.581   6.273   3.561 -2.7773 -1.3023 -0.3022
 4700SOL    HW217247   4.624   6.142   3.624 -4.0784 -1.6511 -0.1063
 4701SOL     OW17248   4.186   6.134   7.605  0.8245  0.1131 -0.2175
 4701SOL    HW117249   4.221   6.221   7.587  1.0356  0.2171  0.6541
 4701SOL    HW217250   4.229   6.077   7.542  0.1576  0.7429 -1.2654
 4702SOL     OW17251   4.184   1.083   6.845  0.1447  0.2004 -0.3730
 4702SOL    HW117252   4.110   1.133   6.879  1.3711  1.5399  0.4325
 4702SOL    HW217253   4.192   1.111   6.753  0.2777  0.8343 -0.1702
 4703SOL     OW17254   3.679   7.261   5.767 -0.3704  0.0175  0.1483
 4703SOL    HW117255   3.642   7.174   5.756  2.1297 -1.5295  2.5325
 4703SOL    HW217256   3.650   7.288   5.854 -0.4457  1.2157 -0.2366
 4704SOL     OW17257   2.343   4.608   4.684 -0.0709  0.1193 -0.0843
 4704SOL    HW117258   2.321   4.647   4.600 -0.7908  0.3841  0.2237
 4704SOL    HW217259   2.262   4.611   4.734 -0.0005 -1.2944  0.1389
 4705SOL     OW17260   6.857   0.319   2.783  0.0862 -0.4829  0.0860
 4705SOL    HW117261   6.938   0.368   2.795  1.2390 -1.8015 -1.8478
 4705SOL    HW217262   6.819   0.354   2.703 -0.4663 -0.8827  0.1661
 4706SOL     OW17263   6.978   7.814   5.338 -0.0602 -0.4107  0.0694
 4706SOL    HW117264   7.072   7.803   5.356  0.0294 -2.3902 -1.2396
 4706SOL    HW217265   6.941   7.845   5.420  1.7651  0.7361  0.5353
 4707SOL     OW17266   0.478   6.324   4.236  0.0869 -0.0473 -0.3577
 4707SOL    HW117267   0.392   6.286   4.255  0.4601 -1.2673 -0.9821
 4707SOL    HW217268   0.540   6.257   4.265  0.8522  0.9017  0.2805
 4708SOL     OW17269   5.846   7.334   2.260 -0.2889 -0.8453 -0.2896
 4708SOL    HW117270   5.763   7.289   2.279 -1.2036  1.0458  0.4430
 4708SOL    HW217271   5.824   7.427   2.262  1.6295 -0.3138 -1.2726
 4709SOL     OW17272   5.774   0.131   4.069 -0.1402  0.4359 -0.1228
 4709SOL    HW117273   5.699   0.100   4.019  0.4138 -0.8241 -0.2265
 4709SOL    HW217274   5.756   0.102   4.159 -0.2239  0.9701  0.0319
 4710SOL     OW17275   0.076   5.345   4.649  0.1422 -0.6569  0.0446
 4710SOL    HW117276   0.104   5.427   4.688 -2.1570 -0.1708  0.8142
 4710SOL    HW217277   0.117   5.345   4.562  0.1447  1.3474 -0.0029
 4711SOL     OW17278   5.159   3.899   3.884  0.0545  0.3434 -0.1205
 4711SOL    HW117279   5.218   3.835   3.845 -1.1465 -1.8269  1.3480
 4711SOL    HW217280   5.072   3.860   3.873 -0.6754  1.5133  1.2328
 4712SOL     OW17281   5.913   2.411   4.292 -0.1738  0.5259  0.7219
 4712SOL    HW117282   5.912   2.320   4.321 -0.1572 -0.3451 -1.7842
 4712SOL    HW217283   5.917   2.406   4.196  0.3237  3.1721  0.5250
 4713SOL     OW17284   7.738   3.024   5.051 -0.3538  0.4111  0.0433
 4713SOL    HW117285   7.718   3.003   4.960  0.4398 -1.7864  0.3073
 4713SOL    HW217286   7.653   3.017   5.096 -0.5294  0.1559 -0.3187
 4714SOL     OW17287   8.066   5.219   7.670 -0.6064 -0.5581 -0.1412
 4714SOL    HW117288   8.076   5.310   7.695 -0.6912 -0.2145 -1.2987
 4714SOL    HW217289   8.027   5.177   7.747  0.4793  0.1223  0.8097
 4715SOL     OW17290   4.730   5.806   3.235 -0.1432 -0.3339 -0.0406
 4715SOL    HW117291   4.698   5.718   3.217 -2.4093  0.3182  0.4936
 4715SOL    HW217292   4.686   5.832   3.316 -0.3044  1.6293 -0.6979
 4716SOL     OW17293   6.567   6.639   6.572  0.3040  0.0646  0.3814
 4716SOL    HW117294   6.555   6.719   6.623 -0.5664 -0.0632  0.3966
 4716SOL    HW217295   6.630   6.587   6.621 -0.0731  0.2050  1.0224
 4717SOL     OW17296   4.907   6.751   3.718 -0.0251 -0.3754  0.0954
 4717SOL    HW117297   4.823   6.753   3.764 -0.2530 -0.6924 -0.2970
 4717SOL    HW217298   4.887   6.709   3.634 -0.2545  2.7482 -1.5487
 4718SOL     OW17299   1.046   0.893   7.176  0.5319 -0.2025 -0.0726
 4718SOL    HW117300   1.099   0.827   7.221  1.1971  1.3621  1.5654
 4718SOL    HW217301   0.995   0.935   7.245 -1.2760 -0.2169 -1.3284
 4719SOL     OW17302   1.371   1.515   6.240  0.0236  0.3812  0.2625
 4719SOL    HW117303   1.398   1.490   6.152 -0.5126  1.7501 -0.3135
 4719SOL    HW217304   1.407   1.446   6.296  1.5435  0.2103 -0.8612
 4720SOL     OW17305   4.314   3.638   7.810 -0.5482  0.2810 -0.0487
 4720SOL    HW117306   4.230   3.612   7.771  0.1148 -1.3774 -0.4608
 4720SOL    HW217307   4.349   3.557   7.847  0.9746  0.8974 -0.0673
 4721SOL     OW17308   4.091   3.090   6.609  0.2668 -0.3083  0.4557
 4721SOL    HW117309   4.071   3.125   6.695  0.7537 -0.6964  0.7362
 4721SOL    HW217310   4.018   3.116   6.554 -0.4833 -0.8038  1.1947
 4722SOL     OW17311   4.226   1.601   0.322 -0.3602 -0.3401  0.0961
 4722SOL    HW117312   4.252   1.512   0.301 -1.6757 -0.4156 -1.4201
 4722SOL    HW217313   4.307   1.644   0.349  0.7429 -1.3963 -1.3437
 4723SOL     OW17314   1.388   1.128   4.589 -0.8181 -0.4408 -0.3269
 4723SOL    HW117315   1.372   1.202   4.530 -1.8031 -1.8054 -1.8807
 4723SOL    HW217316   1.307   1.076   4.583  0.7511 -2.9502 -1.3239
 4724SOL     OW17317   0.226   7.055   4.497 -0.7507 -0.0476 -0.0798
 4724SOL    HW117318   0.311   7.057   4.453 -1.1976 -0.2581 -0.9645
 4724SOL    HW217319   0.228   6.974   4.549 -0.5810 -0.2716 -0.4341
 4725SOL     OW17320   7.586   4.217   6.802 -0.2901  0.1259  0.2952
 4725SOL    HW117321   7.567   4.148   6.739 -0.7188 -0.3608  0.9464
 4725SOL    HW217322   7.523   4.203   6.873 -0.6417  1.4164  0.2636
 4726SOL     OW17323   4.807   6.688   6.811 -0.1996 -0.0878  0.3175
 4726SOL    HW117324   4.841   6.648   6.890 -2.8646 -1.3961  0.9343
 4726SOL    HW217325   4.712   6.684   6.821 -0.6271  1.4680 -2.1034
 4727SOL     OW17326   8.000   1.546   1.720 -0.8553 -0.4366  0.4540
 4727SOL    HW117327   8.008   1.639   1.740 -0.4145 -0.7554  1.9326
 4727SOL    HW217328   8.076   1.527   1.664  0.4833 -0.3596  2.1391
 4728SOL     OW17329   3.487   1.503   3.242 -0.2302 -0.2205  0.3183
 4728SOL    HW117330   3.503   1.409   3.249 -1.8159 -0.5981 -0.7750
 4728SOL    HW217331   3.502   1.524   3.150 -0.9533  0.3692  0.3215
 4729SOL     OW17332   6.143   5.105   6.497 -0.1617  0.2007 -0.1716
 4729SOL    HW117333   6.138   5.150   6.412 -2.5241  0.8049  0.2155
 4729SOL    HW217334   6.135   5.176   6.561  1.5613 -0.2566  0.5913
 4730SOL     OW17335   4.373   2.142   1.548 -0.4857  0.0955  0.2497
 4730SOL    HW117336   4.410   2.109   1.630  2.2578  0.5758 -0.6980
 4730SOL    HW217337   4.347   2.232   1.569  0.2199  0.2269  0.5968
 4731SOL     OW17338   7.359   0.667   2.119  0.8563 -0.0727 -0.2438
 4731SOL    HW117339   7.373   0.672   2.213  2.2163  1.5799 -0.4883
 4731SOL    HW217340   7.295   0.737   2.101  1.2853  0.2232 -0.6465
 4732SOL     OW17341   5.882   6.711   5.033 -0.1771  0.2334  0.5994
 4732SOL    HW117342   5.857   6.648   5.101 -1.7844 -0.4754 -0.5689
 4732SOL    HW217343   5.977   6.719   5.041  0.0210 -2.0255  1.0557
 4733SOL     OW17344   5.223   4.711   6.345 -0.1680 -0.1929  0.2045
 4733SOL    HW117345   5.274   4.781   6.305 -0.7207  0.0950 -0.0196
 4733SOL    HW217346   5.191   4.749   6.427  0.8243 -0.7248  0.8513
 4734SOL     OW17347   2.540   4.995   3.099 -0.0601  0.1255  0.5070
 4734SOL    HW117348   2.574   5.069   3.048  0.2868 -0.0368  0.4978
 4734SOL    HW217349   2.451   5.020   3.120 -0.2041  0.2047 -0.1631
 4735SOL     OW17350   0.800   3.773   2.950 -0.2305  0.1686 -0.7941
 4735SOL    HW117351   0.711   3.738   2.939 -0.4195  0.8378 -1.4268
 4735SOL    HW217352   0.788   3.867   2.958  0.4983  0.3790 -1.9400
 4736SOL     OW17353   2.428   2.987   6.539  0.2636  0.2080  0.3396
 4736SOL    HW117354   2.388   3.073   6.549  1.2007  0.8571 -1.1303
 4736SOL    HW217355   2.444   2.957   6.628 -4.4613 -0.6247  1.1574
 4737SOL     OW17356   1.852   4.602   4.997 -0.0917 -0.5276  0.6740
 4737SOL    HW117357   1.757   4.592   4.985 -0.0060 -0.5777  0.0519
 4737SOL    HW217358   1.886   4.616   4.909  0.3969  0.2334  0.9814
 4738SOL     OW17359   0.537   7.508   7.125  0.7369  0.1221 -0.3170
 4738SOL    HW117360   0.544   7.529   7.219  1.0529 -0.4700 -0.2039
 4738SOL    HW217361   0.529   7.413   7.123 -1.8769  0.2896 -0.7557
 4739SOL     OW17362   3.118   1.758   1.243 -0.2647 -0.0270  0.2226
 4739SOL    HW117363   3.083   1.771   1.154  0.2340 -3.1806 -0.5522
 4739SOL    HW217364   3.040   1.760   1.299 -0.5570  2.3884 -0.1238
 4740SOL     OW17365   2.521   0.139   0.693  0.3033 -0.0371 -0.2591
 4740SOL    HW117366   2.469   0.148   0.773 -1.2652  1.3019 -1.3765
 4740SOL    HW217367   2.554   0.049   0.696 -0.9979 -0.5055  1.1340
 4741SOL     OW17368   5.706   5.744   0.222 -0.2700 -0.7083 -0.0412
 4741SOL    HW117369   5.757   5.670   0.190 -1.4559 -1.5094 -0.1474
 4741SOL    HW217370   5.646   5.706   0.286  1.6420  0.7402  2.8245
 4742SOL     OW17371   6.850   5.957   1.706 -0.6301  0.2033  0.4020
 4742SOL    HW117372   6.838   6.011   1.629  0.0324 -0.6959 -0.3611
 4742SOL    HW217373   6.917   6.002   1.757 -2.8796  2.1859  1.8149
 4743SOL     OW17374   2.484   6.678   3.072  0.5882  0.0031  0.3376
 4743SOL    HW117375   2.394   6.669   3.041  0.7151 -1.2852  0.2651
 4743SOL    HW217376   2.506   6.770   3.059 -1.1283  0.6175  1.4977
 4744SOL     OW17377   7.370   4.590   0.864  0.0142 -0.5623 -0.2315
 4744SOL    HW117378   7.411   4.525   0.921 -1.1119 -0.1916  1.0427
 4744SOL    HW217379   7.315   4.538   0.805 -1.3641 -0.7984  1.1807
 4745SOL     OW17380   7.504   7.757   2.046  0.5153  0.2983 -0.3891
 4745SOL    HW117381   7.590   7.781   2.081  0.4715  0.4192 -0.3658
 4745SOL    HW217382   7.442   7.812   2.094  0.1505 -1.6567  1.5274
 4746SOL     OW17383   5.577   4.731   6.849 -0.1528 -0.2679  0.1992
 4746SOL    HW117384   5.535   4.760   6.930 -0.3789 -0.4535  0.1502
 4746SOL    HW217385   5.505   4.725   6.786  0.0381 -0.0243 -0.0410
 4747SOL     OW17386   3.275   4.024   6.140 -0.2595 -0.0367  0.3434
 4747SOL    HW117387   3.232   3.997   6.059 -0.7539 -0.8113  0.8439
 4747SOL    HW217388   3.224   3.981   6.209  0.0068  0.7940  1.0805
 4748SOL     OW17389   7.051   4.896   7.446 -0.3675 -0.4781 -0.1617
 4748SOL    HW117390   7.104   4.907   7.525 -1.4634  0.9462  0.4313
 4748SOL    HW217391   7.094   4.826   7.398  0.4694 -1.2271  1.5807
 4749SOL     OW17392   4.491   8.070   7.361 -0.1727  0.1543  0.5328
 4749SOL    HW117393   4.419   8.059   7.423  0.6452 -1.2665  1.2940
 4749SOL    HW217394   4.558   8.118   7.410 -0.3496  0.9430  0.0222
 4750SOL     OW17395   5.361   5.133   6.183 -0.2378  0.0254 -0.3422
 4750SOL    HW117396   5.327   5.204   6.237  0.8794  2.0602 -2.1153
 4750SOL    HW217397   5.285   5.100   6.135 -0.6477  0.5865 -0.0822
 4751SOL     OW17398   5.870   7.368   0.922  0.1869 -0.3899  0.1580
 4751SOL    HW117399   5.882   7.331   0.834  0.7036  2.1699 -0.9720
 4751SOL    HW217400   5.788   7.330   0.953 -0.4492 -0.7625 -1.7991
 4752SOL     OW17401   1.625   5.550   0.540  0.4038 -0.1559  0.1941
 4752SOL    HW117402   1.550   5.596   0.502 -0.8190 -1.0070  1.4828
 4752SOL    HW217403   1.662   5.611   0.603  0.8879  0.3106 -0.5302
 4753SOL     OW17404   7.421   1.796   6.135 -0.2575  0.0032  0.7487
 4753SOL    HW117405   7.350   1.801   6.199  0.1837 -1.0172  1.3472
 4753SOL    HW217406   7.417   1.706   6.102 -0.0295  0.3078 -0.1517
 4754SOL     OW17407   7.467   6.868   0.385  0.1733  0.2133 -0.2343
 4754SOL    HW117408   7.553   6.894   0.352 -0.2159  0.9869 -0.6821
 4754SOL    HW217409   7.445   6.936   0.449 -0.4612  0.5045 -0.7461
 4755SOL     OW17410   1.045   6.184   7.468 -0.1482 -0.4781  0.1431
 4755SOL    HW117411   0.972   6.180   7.407  1.8311 -2.1359 -2.2811
 4755SOL    HW217412   1.007   6.221   7.548 -3.4266 -0.5931 -1.2166
 4756SOL     OW17413   1.887   5.200   3.237  0.5364  0.4366 -0.0260
 4756SOL    HW117414   1.939   5.173   3.162 -0.4977 -0.5660 -0.4005
 4756SOL    HW217415   1.914   5.291   3.253  1.4966  0.3365 -0.9632
 4757SOL     OW17416   4.651   3.496   3.064 -0.5075 -0.3396 -0.0655
 4757SOL    HW117417   4.665   3.418   3.011 -0.9619  0.0003 -0.7003
 4757SOL    HW217418   4.556   3.504   3.072 -0.4438 -0.7424  1.3576
 4758SOL     OW17419   0.327   6.510   3.385 -0.4190 -0.5294 -0.4817
 4758SOL    HW117420   0.340   6.499   3.479 -2.0106 -1.5480 -0.3221
 4758SOL    HW217421   0.321   6.420   3.352  2.3089 -0.2615 -1.9591
 4759SOL     OW17422   4.037   1.055   5.727 -0.0371  0.6513  0.5665
 4759SOL    HW117423   4.098   0.995   5.685  0.0913  1.3934 -0.3481
 4759SOL    HW217424   4.085   1.092   5.801 -0.2725 -0.6881  1.4300
 4760SOL     OW17425   6.229   2.255   7.559 -0.4564  0.3762  0.2011
 4760SOL    HW117426   6.223   2.291   7.647 -1.7607 -0.2278  0.3840
 4760SOL    HW217427   6.294   2.310   7.514 -2.4984  3.0870  0.3724
 4761SOL     OW17428   5.648   3.037   5.470  0.3048  0.0939  0.0685
 4761SOL    HW117429   5.561   3.027   5.432  0.4969 -0.2582 -0.2837
 4761SOL    HW217430   5.659   2.960   5.526  0.1264  0.4787  0.6467
 4762SOL     OW17431   4.194   7.907   2.424  0.1700  0.2422 -0.1378
 4762SOL    HW117432   4.219   7.985   2.374  0.2341 -0.4112 -1.1660
 4762SOL    HW217433   4.107   7.928   2.458  0.5450  1.0936  0.3423
 4763SOL     OW17434   1.837   7.233   0.467  0.0399  0.1357 -0.4903
 4763SOL    HW117435   1.774   7.298   0.497 -3.1488 -2.5146 -0.8148
 4763SOL    HW217436   1.894   7.217   0.542  0.3456  2.5523 -0.1411
 4764SOL     OW17437   5.665   4.142   6.711 -0.1126  0.3954  0.5014
 4764SOL    HW117438   5.585   4.155   6.661  0.5645  0.3273 -0.6241
 4764SOL    HW217439   5.702   4.230   6.719  0.4799  0.2359 -0.3356
 4765SOL     OW17440   4.270   1.975   7.363 -0.6997 -0.5385  0.0000
 4765SOL    HW117441   4.225   2.052   7.328  1.8568  1.0148 -0.1115
 4765SOL    HW217442   4.290   1.997   7.454 -0.3968 -1.3072  0.1310
 4766SOL     OW17443   0.790   0.359   1.826  0.5750 -0.0785 -0.2079
 4766SOL    HW117444   0.845   0.308   1.767 -1.8325 -2.3688 -0.6391
 4766SOL    HW217445   0.714   0.384   1.773 -0.8598 -0.7577  1.4263
 4767SOL     OW17446   0.985   1.015   1.242  0.4192  0.2241 -0.2181
 4767SOL    HW117447   0.894   1.023   1.271  0.5944  2.1682 -0.1049
 4767SOL    HW217448   0.994   1.081   1.174  1.1708 -1.4578 -1.8418
 4768SOL     OW17449   4.169   3.173   7.833 -0.6161  0.2437  0.0085
 4768SOL    HW117450   4.118   3.100   7.867 -0.0654  0.1320  0.6315
 4768SOL    HW217451   4.113   3.250   7.845 -1.3782 -0.1330 -1.0779
 4769SOL     OW17452   2.222   6.613   1.641  0.3287  0.3883  0.1856
 4769SOL    HW117453   2.290   6.666   1.682  0.6742 -0.1959  0.3837
 4769SOL    HW217454   2.232   6.628   1.547  0.5637  0.5039  0.2302
 4770SOL     OW17455   5.161   3.675   7.228 -0.6114 -0.0842 -0.1956
 4770SOL    HW117456   5.089   3.696   7.286  0.4213  0.6155  0.8765
 4770SOL    HW217457   5.149   3.582   7.207 -2.1251  0.1632 -0.5170
 4771SOL     OW17458   5.514   4.463   0.125 -0.5263 -0.0950  0.1851
 4771SOL    HW117459   5.493   4.425   0.211  0.5788  0.4517  0.7114
 4771SOL    HW217460   5.590   4.414   0.095  0.6114  1.3214  0.6485
 4772SOL     OW17461   6.534   2.173   4.785 -0.5521 -0.6407 -0.6243
 4772SOL    HW117462   6.553   2.188   4.878  0.5638  0.8550 -1.0543
 4772SOL    HW217463   6.439   2.175   4.780 -0.6067  1.5871  0.1761
 4773SOL     OW17464   3.988   6.085   0.581  0.4115  0.0031  0.2084
 4773SOL    HW117465   4.067   6.116   0.625  0.8465  1.0884 -1.2641
 4773SOL    HW217466   4.009   6.087   0.488 -1.4437  0.6484 -0.2574
 4774SOL     OW17467   5.055   2.349   5.026 -0.0857 -0.2464  0.0947
 4774SOL    HW117468   5.149   2.332   5.021  0.1222  1.0432 -1.3756
 4774SOL    HW217469   5.021   2.318   4.942 -0.9822 -0.6556  0.5941
 4775SOL     OW17470   4.666   5.674   3.555  0.3533 -0.7399  0.8766
 4775SOL    HW117471   4.723   5.600   3.538  1.2915 -0.4266  2.4496
 4775SOL    HW217472   4.698   5.711   3.637 -0.9126  0.6193  0.8093
 4776SOL     OW17473   0.820   6.095   3.872  0.1123  0.1926  0.0882
 4776SOL    HW117474   0.727   6.084   3.893 -0.2427 -2.0965 -2.2162
 4776SOL    HW217475   0.863   6.018   3.910  0.6107 -0.1311 -1.0719
 4777SOL     OW17476   2.627   0.085   1.135 -0.3742  0.2041  0.2062
 4777SOL    HW117477   2.577   0.010   1.166 -1.5554  1.4773  1.5065
 4777SOL    HW217478   2.649   0.063   1.044 -3.1777 -0.5060 -0.3820
 4778SOL     OW17479   7.239   2.325   5.670  0.3811 -0.5100  0.1963
 4778SOL    HW117480   7.323   2.371   5.672  1.0842 -1.7755  0.8360
 4778SOL    HW217481   7.247   2.257   5.737 -0.7218 -1.3946 -0.5314
 4779SOL     OW17482   1.265   5.937   6.176 -0.3593 -0.3761  0.0859
 4779SOL    HW117483   1.351   5.981   6.178 -0.1471 -0.5713 -1.9273
 4779SOL    HW217484   1.274   5.864   6.237  0.4729  0.3256  0.8427
 4780SOL     OW17485   5.157   2.353   6.257  0.1186 -0.2606 -0.1223
 4780SOL    HW117486   5.063   2.367   6.260  0.0541 -0.1614 -1.5973
 4780SOL    HW217487   5.189   2.424   6.200  1.0307 -0.5210  0.0540
 4781SOL     OW17488   4.077   1.850   1.594 -0.1181 -0.5482 -0.3590
 4781SOL    HW117489   4.114   1.766   1.619 -0.9816 -0.1596  2.6071
 4781SOL    HW217490   4.151   1.901   1.561  1.1003 -1.3283  1.0795
 4782SOL     OW17491   4.464   4.066   7.323 -0.4319  0.1682 -0.4106
 4782SOL    HW117492   4.368   4.071   7.330 -0.3761  0.6794  0.0746
 4782SOL    HW217493   4.485   4.116   7.244 -0.4889  0.9561  0.0674
 4783SOL     OW17494   0.195   3.517   7.849  0.0735 -0.2648 -0.0705
 4783SOL    HW117495   0.287   3.528   7.824  0.4179 -1.4203  0.5887
 4783SOL    HW217496   0.160   3.606   7.852  1.1366  0.1855 -0.4625
 4784SOL     OW17497   1.612   2.991   5.725 -0.2453  0.8006  0.0092
 4784SOL    HW117498   1.565   3.073   5.709 -1.2497  0.6370  1.8229
 4784SOL    HW217499   1.602   2.975   5.819  0.6428 -0.9850 -0.1419
 4785SOL     OW17500   4.138   8.001   0.220 -0.3089 -0.2992 -0.1109
 4785SOL    HW117501   4.234   7.994   0.221  0.0928  3.3734  0.2549
 4785SOL    HW217502   4.116   8.007   0.127  0.2546  2.1517 -0.1393
 4786SOL     OW17503   7.658   5.955   2.161  0.3749  0.2525  0.0660
 4786SOL    HW117504   7.747   5.990   2.159  1.0605 -1.1850  2.0802
 4786SOL    HW217505   7.605   6.025   2.199  0.9524  0.5527  0.3313
 4787SOL     OW17506   6.965   1.369   5.748  0.0175 -0.1508 -0.1845
 4787SOL    HW117507   6.949   1.289   5.699  1.4241  0.3017 -1.4749
 4787SOL    HW217508   6.880   1.394   5.784 -0.9899 -0.7424 -2.0532
 4788SOL     OW17509   2.622   2.365   0.695 -0.4171 -0.3172  0.1588
 4788SOL    HW117510   2.632   2.332   0.785  0.3168 -1.0019 -0.1611
 4788SOL    HW217511   2.555   2.432   0.702  1.3766  1.4439  1.6839
 4789SOL     OW17512   1.026   3.839   5.493 -0.5622  0.8363 -0.3534
 4789SOL    HW117513   0.999   3.921   5.535 -1.9281  0.6381 -0.7858
 4789SOL    HW217514   1.005   3.852   5.400  1.1559  0.7574 -0.7915
 4790SOL     OW17515   4.286   5.292   7.120  0.0748 -0.3633  0.0565
 4790SOL    HW117516   4.197   5.328   7.125  0.0666 -0.4347  0.5313
 4790SOL    HW217517   4.279   5.218   7.060  0.1202  0.5066 -1.0582
 4791SOL     OW17518   7.755   8.082   2.315  0.2135 -0.0955  0.5833
 4791SOL    HW117519   7.773   8.024   2.389  0.5090  0.3386  0.8547
 4791SOL    HW217520   7.733   8.166   2.355 -2.1004 -0.4759  0.2804
 4792SOL     OW17521   4.944   4.318   0.195  0.2255  0.1584  0.0360
 4792SOL    HW117522   4.875   4.367   0.241  0.4691  0.3849  0.1649
 4792SOL    HW217523   4.981   4.382   0.134  0.7470  0.2226  0.4143
 4793SOL     OW17524   6.929   4.789   0.611  0.8792 -0.5650  0.4404
 4793SOL    HW117525   6.948   4.704   0.652  1.8245 -0.9245 -0.6797
 4793SOL    HW217526   7.013   4.835   0.613  0.4339  0.2423  0.7850
 4794SOL     OW17527   0.159   3.784   5.437  0.5864 -0.5572  0.0862
 4794SOL    HW117528   0.138   3.877   5.433  1.9617 -0.2644 -2.4935
 4794SOL    HW217529   0.211   3.775   5.517  0.8468  0.9987  0.1318
 4795SOL     OW17530   8.089   4.472   2.177 -0.2653  0.0473 -0.0988
 4795SOL    HW117531   8.010   4.519   2.202 -1.8553 -1.4116 -2.0451
 4795SOL    HW217532   8.131   4.450   2.260 -2.1792  0.3974  1.0295
 4796SOL     OW17533   3.006   5.089   5.628 -0.4584  0.2024  0.2148
 4796SOL    HW117534   2.992   5.119   5.538 -1.6987 -0.4941  0.1560
 4796SOL    HW217535   2.935   5.128   5.678  1.3321  2.2561  1.3559
 4797SOL     OW17536   0.900   0.658   4.759 -0.2064 -0.1028  0.6871
 4797SOL    HW117537   0.904   0.715   4.682  4.0752  0.3390  0.9857
 4797SOL    HW217538   0.865   0.713   4.828 -0.9276  0.5587 -0.1801
 4798SOL     OW17539   7.173   7.727   7.942  0.0359  0.2184 -0.1257
 4798SOL    HW117540   7.236   7.716   8.013  1.0903  0.1951 -1.0503
 4798SOL    HW217541   7.092   7.751   7.986  1.1227  2.0394  1.0005
 4799SOL     OW17542   4.012   6.025   2.867  0.5435 -0.2777  0.0335
 4799SOL    HW117543   4.019   5.967   2.944  0.0107 -0.7269 -0.2486
 4799SOL    HW217544   4.091   6.078   2.871  0.1334  0.2808  1.3544
 4800SOL     OW17545   6.520   2.823   6.277 -0.5180  0.1983 -0.1220
 4800SOL    HW117546   6.482   2.740   6.306  0.2123 -0.5543 -1.2611
 4800SOL    HW217547   6.454   2.861   6.219 -0.5065  0.0187 -0.2514
 4801SOL     OW17548   7.515   6.142   0.789  0.0058  0.0571 -0.4735
 4801SOL    HW117549   7.441   6.133   0.729  0.4592  0.6361 -1.1306
 4801SOL    HW217550   7.539   6.052   0.811 -1.6529 -0.1480  0.7153
 4802SOL     OW17551   5.837   2.868   1.747  0.4156  0.1753  0.0865
 4802SOL    HW117552   5.893   2.887   1.672  0.2028 -0.1313 -0.1509
 4802SOL    HW217553   5.761   2.824   1.710 -1.5825  3.4362 -0.0463
 4803SOL     OW17554   3.351   0.922   4.160  0.4021  0.2272 -0.0131
 4803SOL    HW117555   3.394   0.984   4.219  0.3799  1.2155 -0.9997
 4803SOL    HW217556   3.257   0.936   4.175  0.3907 -0.8920  1.0848
 4804SOL     OW17557   6.861   2.221   7.161 -0.3383  0.7334 -0.1048
 4804SOL    HW117558   6.787   2.239   7.103 -0.6982  1.6215  0.5912
 4804SOL    HW217559   6.841   2.272   7.240  0.0902 -0.5114  0.8327
 4805SOL     OW17560   7.359   2.244   2.803  0.2143  0.3134  0.2696
 4805SOL    HW117561   7.396   2.219   2.718 -0.6726 -1.3216  0.3210
 4805SOL    HW217562   7.402   2.185   2.866  0.0332  0.7354  0.7920
 4806SOL     OW17563   7.017   6.095   0.601  0.1830 -0.2720  0.1361
 4806SOL    HW117564   7.002   6.144   0.682  0.2978  0.7879 -0.4743
 4806SOL    HW217565   6.984   6.152   0.532  0.8706 -0.7944 -0.6355
 4807SOL     OW17566   7.414   4.138   0.280 -0.3450  0.1441 -0.3203
 4807SOL    HW117567   7.322   4.125   0.257 -0.4547  0.5903 -0.1560
 4807SOL    HW217568   7.416   4.134   0.376 -0.0998 -0.4234 -0.3473
 4808SOL     OW17569   1.265   5.775   2.449 -0.2326 -0.2223  0.0323
 4808SOL    HW117570   1.336   5.821   2.405 -0.2750 -0.5218 -0.3614
 4808SOL    HW217571   1.274   5.684   2.421 -0.4994 -0.3475  0.3347
 4809SOL     OW17572   2.036   7.685   2.759  0.0343  0.3386 -0.6354
 4809SOL    HW117573   2.059   7.753   2.821 -0.2873  0.5747 -0.7729
 4809SOL    HW217574   2.072   7.605   2.796  0.5073  0.6006 -0.5284
 4810SOL     OW17575   0.797   0.622   0.807 -0.3252  0.4177  0.0102
 4810SOL    HW117576   0.853   0.545   0.798  0.9013  1.0813  1.5259
 4810SOL    HW217577   0.854   0.690   0.842 -1.8860  1.3952  0.7896
 4811SOL     OW17578   2.520   2.366   1.284  0.7403 -0.5316 -0.1661
 4811SOL    HW117579   2.461   2.326   1.221 -1.6920  0.2152  1.4937
 4811SOL    HW217580   2.526   2.302   1.355 -0.8791  0.7236  1.1954
 4812SOL     OW17581   2.887   6.803   5.877 -0.2269 -0.6501  0.3567
 4812SOL    HW117582   2.917   6.816   5.787 -1.1045 -0.3900  0.0848
 4812SOL    HW217583   2.805   6.754   5.868 -0.0154 -1.1499  1.0542
 4813SOL     OW17584   2.295   4.950   0.877  0.1771 -0.5426 -0.0447
 4813SOL    HW117585   2.202   4.972   0.871  0.2569  0.1073  0.8568
 4813SOL    HW217586   2.340   5.029   0.847  0.4855  1.0235  3.8707
 4814SOL     OW17587   5.429   5.810   7.498  0.7033  0.3770  0.1159
 4814SOL    HW117588   5.375   5.731   7.502 -0.6819  1.3278  2.0465
 4814SOL    HW217589   5.474   5.805   7.414 -2.1541 -0.6479 -1.4823
 4815SOL     OW17590   7.880   0.633   6.399 -0.6323  0.4651 -0.4256
 4815SOL    HW117591   7.946   0.662   6.461 -0.0477 -0.8839 -0.4011
 4815SOL    HW217592   7.797   0.656   6.440 -0.2469 -0.0524  0.6745
 4816SOL     OW17593   3.637   4.474   7.229  0.0672  0.0289 -0.0686
 4816SOL    HW117594   3.573   4.536   7.265 -0.6955 -1.1210  0.6434
 4816SOL    HW217595   3.583   4.408   7.185  0.7026 -1.2655  1.0189
 4817SOL     OW17596   3.070   4.278   1.979  0.2173 -0.5212 -0.2083
 4817SOL    HW117597   3.139   4.309   1.920 -0.1519 -0.1665 -0.4621
 4817SOL    HW217598   2.989   4.307   1.937 -0.0428 -0.1067  0.5709
 4818SOL     OW17599   3.282   5.342   3.599 -0.4496 -0.1804  0.2245
 4818SOL    HW117600   3.200   5.307   3.635  0.2091  0.6342  2.7695
 4818SOL    HW217601   3.343   5.340   3.673  1.4643  0.4200 -1.2597
 4819SOL     OW17602   7.196   2.851   7.688  0.0574 -0.8479 -0.3532
 4819SOL    HW117603   7.175   2.796   7.764 -0.1090  0.2654  0.4369
 4819SOL    HW217604   7.247   2.923   7.725  0.7443 -0.7537 -1.4556
 4820SOL     OW17605   3.018   5.365   0.566  0.2622 -0.0531  0.9012
 4820SOL    HW117606   2.952   5.433   0.576  1.1152  0.7469  1.3431
 4820SOL    HW217607   3.064   5.388   0.485 -0.7605 -1.2970 -0.0593
 4821SOL     OW17608   7.342   4.387   2.454  0.5177  0.2618  0.0934
 4821SOL    HW117609   7.278   4.335   2.502  1.1706  0.8510  1.6456
 4821SOL    HW217610   7.396   4.322   2.408 -0.6662 -0.2650 -0.5787
 4822SOL     OW17611   4.250   0.911   0.735  0.0794  0.1534 -0.9163
 4822SOL    HW117612   4.208   0.827   0.714 -1.4118  0.1401  1.6449
 4822SOL    HW217613   4.315   0.889   0.802  0.9006  0.8522 -1.4596
 4823SOL     OW17614   6.393   0.839   5.394 -0.0789  0.0545 -0.1939
 4823SOL    HW117615   6.338   0.766   5.423  0.9480 -0.4834  0.4871
 4823SOL    HW217616   6.478   0.799   5.375  0.4094  1.0194 -0.1251
 4824SOL     OW17617   4.056   7.066   0.199 -0.0416  0.2036  0.2346
 4824SOL    HW117618   4.066   7.022   0.115 -0.0493 -0.8083  0.7476
 4824SOL    HW217619   4.106   7.013   0.261 -0.8237  0.3860  1.0510
 4825SOL     OW17620   3.019   3.457   3.689 -0.1303  0.0063  0.2478
 4825SOL    HW117621   3.084   3.437   3.756  0.6294 -0.0479 -0.4838
 4825SOL    HW217622   3.008   3.552   3.695  0.0766  0.0269  0.3227
 4826SOL     OW17623   2.479   7.970   7.841 -0.4519  0.1839 -0.0635
 4826SOL    HW117624   2.452   8.028   7.769 -1.2137 -1.1214 -0.8766
 4826SOL    HW217625   2.419   7.991   7.912  0.9743  2.2314  0.6280
 4827SOL     OW17626   2.045   3.470   7.770 -0.1194  0.0900 -0.1711
 4827SOL    HW117627   1.998   3.549   7.746 -1.0648 -0.9385 -1.9603
 4827SOL    HW217628   2.138   3.492   7.761 -0.3483  1.1913  0.1045
 4828SOL     OW17629   3.441   3.927   7.104  0.2017  0.0740  0.2971
 4828SOL    HW117630   3.516   3.980   7.132 -1.3660  1.8579  1.3740
 4828SOL    HW217631   3.367   3.961   7.155 -2.2754  1.3813 -3.6432
 4829SOL     OW17632   7.117   7.106   4.980 -0.3430  0.2175  0.0043
 4829SOL    HW117633   7.207   7.096   5.012  0.0842  0.9426 -0.9581
 4829SOL    HW217634   7.126   7.115   4.885 -1.4830 -0.3299 -0.1671
 4830SOL     OW17635   7.189   0.821   0.387 -0.5479  0.9497  0.0546
 4830SOL    HW117636   7.108   0.864   0.412 -0.7443  0.5449  0.1180
 4830SOL    HW217637   7.257   0.886   0.407 -0.8202  1.1572  0.3298
 4831SOL     OW17638   0.546   7.043   7.793 -0.0503 -1.0624  0.4461
 4831SOL    HW117639   0.561   6.949   7.804 -0.3118 -1.4105 -1.7643
 4831SOL    HW217640   0.505   7.051   7.707  2.3068  1.3092 -0.5887
 4832SOL     OW17641   3.344   3.953   4.259  0.1227  0.6710  0.7898
 4832SOL    HW117642   3.321   3.889   4.326  0.5053 -1.0190 -0.6328
 4832SOL    HW217643   3.383   4.026   4.307  0.5659 -0.5754  2.3799
 4833SOL     OW17644   6.097   1.245   6.148 -0.1062  0.5331  0.4131
 4833SOL    HW117645   6.105   1.202   6.064 -0.9334 -3.3781  2.1320
 4833SOL    HW217646   6.004   1.235   6.172  0.2060  1.0622  2.0107
 4834SOL     OW17647   4.523   0.865   0.152 -0.3283 -0.0572 -0.3405
 4834SOL    HW117648   4.437   0.889   0.119 -0.8679 -1.1475  0.2204
 4834SOL    HW217649   4.577   0.853   0.073 -1.1225 -0.9051 -0.7685
 4835SOL     OW17650   3.281   7.104   5.081  0.2263 -0.0448 -0.3168
 4835SOL    HW117651   3.207   7.147   5.123 -0.0735  0.1388 -1.0175
 4835SOL    HW217652   3.350   7.103   5.148 -0.4649 -0.3819  0.4008
 4836SOL     OW17653   7.740   1.526   6.521  0.5059  0.1875  0.1714
 4836SOL    HW117654   7.703   1.587   6.457  1.2168  1.1459  0.6424
 4836SOL    HW217655   7.832   1.520   6.497  1.1142  1.6834  1.9127
 4837SOL     OW17656   4.235   6.444   4.347  0.4938  0.1673  0.3809
 4837SOL    HW117657   4.151   6.435   4.300  0.1267 -3.5524  1.4191
 4837SOL    HW217658   4.299   6.462   4.278 -0.4452 -2.3068 -1.2856
 4838SOL     OW17659   7.052   3.141   6.216  0.2974  0.0404 -0.2093
 4838SOL    HW117660   7.112   3.215   6.205  0.2625 -0.2122 -2.4007
 4838SOL    HW217661   7.036   3.109   6.128  1.3170 -3.4224  0.7094
 4839SOL     OW17662   0.932   7.463   4.842 -0.6908  0.8300  0.1298
 4839SOL    HW117663   0.947   7.478   4.749 -1.2093 -0.3748 -0.1632
 4839SOL    HW217664   0.837   7.464   4.852 -0.7379 -1.0916  0.2516
 4840SOL     OW17665   7.143   4.218   3.006  0.5693 -0.3871  0.0534
 4840SOL    HW117666   7.112   4.132   3.035 -0.2205 -0.2515 -0.3585
 4840SOL    HW217667   7.063   4.265   2.982  1.0080  0.4066  0.1159
 4841SOL     OW17668   5.559   1.574   5.684  0.3010 -0.8745  0.4644
 4841SOL    HW117669   5.608   1.563   5.765  0.1036  0.5415  0.7955
 4841SOL    HW217670   5.626   1.586   5.617  0.4908  2.0582  1.0607
 4842SOL     OW17671   5.766   3.469   5.175  0.1095 -0.1372  0.3971
 4842SOL    HW117672   5.699   3.434   5.234 -1.0274  0.5669 -0.4568
 4842SOL    HW217673   5.840   3.408   5.185 -0.8648 -1.2717  0.8992
 4843SOL     OW17674   6.622   7.005   3.594 -0.0814 -0.1101  0.3040
 4843SOL    HW117675   6.611   6.952   3.673 -0.8709  0.1836  0.3970
 4843SOL    HW217676   6.545   6.984   3.540 -1.2365  2.0347  0.9822
 4844SOL     OW17677   7.978   3.253   1.180 -0.0183  0.2811 -0.7386
 4844SOL    HW117678   7.900   3.200   1.163 -0.1418  0.5008 -0.8487
 4844SOL    HW217679   8.007   3.225   1.267  0.0565 -0.1447 -0.8978
 4845SOL     OW17680   5.115   2.052   2.508  0.0169  0.0522 -0.3974
 4845SOL    HW117681   5.129   2.135   2.555 -2.2693 -0.3622  1.2215
 4845SOL    HW217682   5.119   2.076   2.416 -1.4323  2.1954  0.0168
 4846SOL     OW17683   5.527   0.822   7.745  0.2348  0.2816 -0.0808
 4846SOL    HW117684   5.554   0.816   7.836 -0.4019  0.3283  0.1198
 4846SOL    HW217685   5.434   0.801   7.747  0.7289 -2.2306 -1.0538
 4847SOL     OW17686   2.069   3.475   0.500 -0.2341  0.2730 -0.0573
 4847SOL    HW117687   2.007   3.413   0.461 -0.9640  1.5706 -1.0371
 4847SOL    HW217688   2.074   3.547   0.436 -0.2048  1.7015  1.4970
 4848SOL     OW17689   1.065   1.545   2.368  0.1434  0.1869  0.0935
 4848SOL    HW117690   1.002   1.524   2.437  0.1555 -0.6768 -0.1422
 4848SOL    HW217691   1.025   1.511   2.287  0.8953 -0.3738 -0.0572
 4849SOL     OW17692   5.934   3.646   2.385  0.4504 -0.4908 -0.2598
 4849SOL    HW117693   5.939   3.710   2.314 -0.0502 -0.5091 -0.3154
 4849SOL    HW217694   6.007   3.586   2.368  1.4666  0.5550  0.2878
 4850SOL     OW17695   7.043   3.733   7.339  0.1769  0.7662 -0.0761
 4850SOL    HW117696   7.061   3.697   7.252 -1.1769 -0.5432  0.1366
 4850SOL    HW217697   7.127   3.728   7.385  0.3635 -0.9105 -0.5107
 4851SOL     OW17698   7.536   2.537   4.309  0.0180 -0.0559 -0.3815
 4851SOL    HW117699   7.504   2.449   4.326  0.0854  0.3755  2.3006
 4851SOL    HW217700   7.599   2.526   4.237  1.0465 -2.4136  0.7698
 4852SOL     OW17701   3.462   4.412   0.274  0.0254 -0.0408 -0.0565
 4852SOL    HW117702   3.532   4.381   0.216 -0.9094 -1.5303 -0.4474
 4852SOL    HW217703   3.500   4.487   0.319  2.6817 -2.0702  1.3682
 4853SOL     OW17704   1.297   3.759   2.956 -0.0874  0.4838  0.4220
 4853SOL    HW117705   1.292   3.842   3.004  0.9919 -0.2165  1.8147
 4853SOL    HW217706   1.223   3.708   2.990 -1.1331  1.0605 -0.8898
 4854SOL     OW17707   0.412   7.858   2.549 -0.1150  0.3566 -0.3982
 4854SOL    HW117708   0.366   7.778   2.523  0.5211 -0.3705  0.6440
 4854SOL    HW217709   0.489   7.861   2.491 -0.3050  0.3876 -0.6500
 4855SOL     OW17710   7.416   1.951   2.222 -0.5881  0.0408 -0.4136
 4855SOL    HW117711   7.369   1.889   2.166 -0.4416 -0.7753  0.3456
 4855SOL    HW217712   7.496   1.905   2.246  0.5787  1.3593 -1.5799
 4856SOL     OW17713   7.064   0.385   6.592  0.1779  0.3332 -0.5936
 4856SOL    HW117714   7.033   0.340   6.671  1.2736 -1.9807 -1.4188
 4856SOL    HW217715   7.151   0.418   6.616  1.5763 -2.4454 -1.4395
 4857SOL     OW17716   0.159   1.915   4.576  0.5444  0.2338 -0.6508
 4857SOL    HW117717   0.175   1.847   4.512  0.9651  0.4580 -0.7872
 4857SOL    HW217718   0.133   1.868   4.655 -0.7828 -0.0080 -1.2098
 4858SOL     OW17719   1.481   1.909   1.175  0.2504  0.0543 -0.1839
 4858SOL    HW117720   1.450   1.836   1.121  0.7145 -0.3732  0.1307
 4858SOL    HW217721   1.527   1.868   1.247  0.9536  0.6739 -0.2741
 4859SOL     OW17722   0.170   6.221   0.772 -0.3069 -0.6654 -0.1691
 4859SOL    HW117723   0.247   6.278   0.770 -1.6787  1.6176  3.4301
 4859SOL    HW217724   0.101   6.273   0.730 -0.8569 -0.8881  0.4407
 4860SOL     OW17725   7.600   2.417   1.399 -0.0562 -0.2305  0.2865
 4860SOL    HW117726   7.608   2.377   1.485  0.3836 -1.7320 -0.4072
 4860SOL    HW217727   7.519   2.469   1.404 -0.0199 -0.2718  1.5949
 4861SOL     OW17728   7.511   0.149   1.784 -0.2217 -0.0369  0.2230
 4861SOL    HW117729   7.443   0.105   1.835 -0.2690 -1.0316 -0.6727
 4861SOL    HW217730   7.592   0.131   1.832 -0.6278  1.8647  1.7674
 4862SOL     OW17731   4.867   3.574   2.715 -0.6384  0.8101 -0.7543
 4862SOL    HW117732   4.918   3.654   2.701  0.5762  0.2339  0.2200
 4862SOL    HW217733   4.792   3.602   2.767 -0.3765  1.3669 -0.6680
 4863SOL     OW17734   2.693   6.846   5.178  0.2699  0.1595 -0.0680
 4863SOL    HW117735   2.669   6.793   5.253  0.9348 -0.5161 -0.3177
 4863SOL    HW217736   2.654   6.932   5.195  1.6879  0.4946  1.8018
 4864SOL     OW17737   6.851   7.328   2.683  0.2071  0.4533 -0.3827
 4864SOL    HW117738   6.778   7.271   2.659 -1.8373  3.0330 -0.6527
 4864SOL    HW217739   6.869   7.308   2.775  1.1674 -2.1909 -1.0406
 4865SOL     OW17740   7.476   0.602   0.504 -0.2185  0.4372 -0.0064
 4865SOL    HW117741   7.495   0.567   0.591 -1.1389  0.5390  0.2515
 4865SOL    HW217742   7.391   0.564   0.481 -0.1207  0.6418 -0.7376
 4866SOL     OW17743   1.730   1.163   7.494  0.1146  0.1031  0.0971
 4866SOL    HW117744   1.731   1.152   7.399  0.0336  3.1605 -0.3537
 4866SOL    HW217745   1.823   1.168   7.518  0.1368 -0.7305  0.2184
 4867SOL     OW17746   3.083   2.022   3.840  0.1220  0.1213  0.5583
 4867SOL    HW117747   3.103   1.986   3.753  0.2395  0.1886  0.5578
 4867SOL    HW217748   3.151   2.087   3.855  0.8579 -0.7676  1.2307
 4868SOL     OW17749   1.106   3.754   5.132 -0.2341 -0.1975 -0.6727
 4868SOL    HW117750   1.107   3.690   5.061  0.0498 -0.7055 -0.2213
 4868SOL    HW217751   1.180   3.728   5.188  0.4961  1.1176 -0.9968
 4869SOL     OW17752   0.602   7.455   6.536 -0.2182  1.0739  0.2656
 4869SOL    HW117753   0.638   7.378   6.579 -1.0595  0.2281 -0.5223
 4869SOL    HW217754   0.527   7.480   6.591  0.5150  1.8331  0.9625
 4870SOL     OW17755   0.336   7.144   4.848 -0.1016  0.1307 -0.5083
 4870SOL    HW117756   0.359   7.186   4.931 -1.2317 -0.7993  0.3081
 4870SOL    HW217757   0.262   7.196   4.815  1.6742  1.8264 -2.0700
 4871SOL     OW17758   3.380   5.749   4.886 -0.0153 -0.1198  0.5159
 4871SOL    HW117759   3.435   5.684   4.929  1.4891  2.0360  2.0822
 4871SOL    HW217760   3.321   5.698   4.829  1.2254 -2.7550  1.4537
 4872SOL     OW17761   3.665   1.617   7.274 -0.1598  0.1347  0.1016
 4872SOL    HW117762   3.756   1.645   7.265 -0.2342  0.5724  0.6243
 4872SOL    HW217763   3.654   1.548   7.209  0.0165  1.3573 -1.2599
 4873SOL     OW17764   4.345   3.793   7.027  0.4754 -0.2505 -0.6656
 4873SOL    HW117765   4.319   3.795   6.935  0.4389  0.0411 -0.6509
 4873SOL    HW217766   4.307   3.872   7.065  0.0689 -0.6247 -0.2837
 4874SOL     OW17767   3.787   6.676   1.077  0.0077  0.2630 -0.4503
 4874SOL    HW117768   3.830   6.631   1.150 -2.7038  1.3827  2.0532
 4874SOL    HW217769   3.844   6.660   1.002  1.9810 -2.6341  1.4464
 4875SOL     OW17770   5.782   4.403   6.599 -0.7456  0.0006  0.6769
 4875SOL    HW117771   5.705   4.449   6.567  0.9505  3.2903  0.8412
 4875SOL    HW217772   5.806   4.449   6.680  2.1592  0.1639 -0.1363
 4876SOL     OW17773   3.201   4.114   6.432  0.5645  0.2957  0.3702
 4876SOL    HW117774   3.116   4.074   6.448 -0.3369  1.5371 -1.1138
 4876SOL    HW217775   3.264   4.052   6.470 -0.7429 -2.5326 -1.6638
 4877SOL     OW17776   3.462   0.417   5.004  0.0973 -0.0931  0.2405
 4877SOL    HW117777   3.550   0.389   4.977  0.1803  0.7349 -0.3913
 4877SOL    HW217778   3.454   0.506   4.970 -1.0723 -0.2341  0.1138
 4878SOL     OW17779   1.667   5.616   6.067 -0.4607 -0.7654  0.8400
 4878SOL    HW117780   1.614   5.686   6.030 -1.1692 -0.9720  1.4353
 4878SOL    HW217781   1.755   5.633   6.034 -0.9319 -0.5620 -0.3728
 4879SOL     OW17782   7.295   5.233   7.121 -0.7150  0.5614 -0.4513
 4879SOL    HW117783   7.388   5.256   7.126 -0.8443  0.8829  0.7189
 4879SOL    HW217784   7.294   5.137   7.128 -0.4165  0.4786 -1.4783
 4880SOL     OW17785   7.284   3.219   7.059  0.2850  0.0238 -0.3419
 4880SOL    HW117786   7.289   3.164   6.981  1.7297  2.7773 -2.3498
 4880SOL    HW217787   7.193   3.245   7.064 -0.0077 -0.9117 -0.5285
 4881SOL     OW17788   3.249   3.789   1.456 -0.2190 -0.0418  0.7623
 4881SOL    HW117789   3.264   3.707   1.502  1.4922  0.9323  2.0516
 4881SOL    HW217790   3.193   3.766   1.382  1.1929 -2.5769  0.3875
 4882SOL     OW17791   0.176   3.879   2.671  0.1398  0.1522 -0.4104
 4882SOL    HW117792   0.141   3.847   2.588  2.2689  2.0697 -2.1747
 4882SOL    HW217793   0.152   3.971   2.673  2.5688  0.8517 -0.3812
 4883SOL     OW17794   5.195   1.068   6.353 -0.5194  0.0403  0.6604
 4883SOL    HW117795   5.269   1.096   6.407 -0.1045  0.2169  0.0100
 4883SOL    HW217796   5.194   0.972   6.361  0.4415 -0.0582 -0.1470
 4884SOL     OW17797   3.765   6.637   3.504 -0.1916 -0.0551 -0.1731
 4884SOL    HW117798   3.800   6.688   3.578  1.4420 -0.4006 -0.6698
 4884SOL    HW217799   3.681   6.678   3.486  1.0996  2.6850 -0.6666
 4885SOL     OW17800   1.030   3.355   6.956 -0.2034  0.1928  0.0045
 4885SOL    HW117801   0.993   3.386   6.874 -1.5347 -0.9288  0.1466
 4885SOL    HW217802   1.071   3.433   6.995 -0.2263  0.9043 -1.3406
 4886SOL     OW17803   0.148   6.721   3.333 -0.8886  0.2166 -0.4121
 4886SOL    HW117804   0.070   6.710   3.387 -0.4328  0.4140  0.3026
 4886SOL    HW217805   0.205   6.648   3.359  0.6681  2.0454  1.7422
 4887SOL     OW17806   2.096   8.012   5.566  0.2990 -0.3525 -0.1715
 4887SOL    HW117807   2.173   7.960   5.542 -0.5133 -1.3545 -0.7121
 4887SOL    HW217808   2.023   7.965   5.526 -0.3279  2.1896 -2.2337
 4888SOL     OW17809   1.092   1.241   4.924  0.4414 -0.2938  0.4077
 4888SOL    HW117810   1.148   1.275   4.855  0.3468 -0.5561  0.1961
 4888SOL    HW217811   1.014   1.211   4.878  0.1883 -0.0623  0.6824
 4889SOL     OW17812   7.383   2.354   0.400  0.0970  0.5005 -0.3292
 4889SOL    HW117813   7.383   2.422   0.333 -1.4487  0.1073 -0.7719
 4889SOL    HW217814   7.441   2.286   0.366  0.3175  0.8577 -0.6690
 4890SOL     OW17815   0.706   4.496   3.945  0.3313  0.7136 -0.4769
 4890SOL    HW117816   0.708   4.582   3.987  1.3476  0.7146 -0.4997
 4890SOL    HW217817   0.797   4.467   3.945  0.0093 -0.3562 -0.4956
 4891SOL     OW17818   1.112   7.429   0.325  0.1689  0.4380  0.5759
 4891SOL    HW117819   1.180   7.369   0.295 -0.3279  0.3503 -0.4017
 4891SOL    HW217820   1.070   7.461   0.245 -1.1504  0.2409  1.1616
 4892SOL     OW17821   7.880   2.000   6.278  0.0226 -0.0299  0.1481
 4892SOL    HW117822   7.910   1.960   6.360  0.3830  0.7096  0.3808
 4892SOL    HW217823   7.784   1.990   6.280  0.1593 -1.6557 -0.2144
 4893SOL     OW17824   1.141   6.524   0.905  0.3536  0.0664 -0.3019
 4893SOL    HW117825   1.063   6.469   0.899  1.3388 -1.3439 -0.4628
 4893SOL    HW217826   1.189   6.508   0.824  0.3878  1.6342 -0.6302
 4894SOL     OW17827   0.743   6.235   2.019  0.2354  0.3991 -0.4041
 4894SOL    HW117828   0.805   6.237   1.947  0.2890 -0.8421 -0.4075
 4894SOL    HW217829   0.657   6.238   1.977  0.2712  0.8117 -0.4560
 4895SOL     OW17830   2.034   3.697   0.926 -0.4782  0.1576  0.6597
 4895SOL    HW117831   2.024   3.673   0.834  0.6083  1.0249  0.2956
 4895SOL    HW217832   1.952   3.669   0.967 -0.0814 -2.4241 -0.0715
 4896SOL     OW17833   0.514   3.870   2.479  0.1879  0.2508  0.3377
 4896SOL    HW117834   0.427   3.874   2.439  1.2438  2.0497 -1.9771
 4896SOL    HW217835   0.543   3.780   2.466 -1.5602 -0.5893  1.8145
 4897SOL     OW17836   2.001   0.050   3.295  0.6239 -0.7432 -0.4298
 4897SOL    HW117837   2.034   0.093   3.374  0.3642 -0.4416 -0.4846
 4897SOL    HW217838   2.053   0.086   3.224 -0.0230 -0.0329 -0.5554
 4898SOL     OW17839   5.726   0.899   0.742 -0.5334  0.6975 -0.0627
 4898SOL    HW117840   5.752   0.814   0.778  0.1230  1.5080  1.4488
 4898SOL    HW217841   5.642   0.918   0.784 -0.9057  0.6274 -0.7430
 4899SOL     OW17842   6.015   2.162   4.381  0.3742 -0.3385  0.2988
 4899SOL    HW117843   6.109   2.154   4.364  0.2727  0.0968 -0.5074
 4899SOL    HW217844   6.007   2.152   4.476  1.6483  2.9306  0.8953
 4900SOL     OW17845   3.132   4.808   2.974  0.4867 -0.1543 -0.2418
 4900SOL    HW117846   3.059   4.747   2.984  0.4595 -0.1572 -0.4548
 4900SOL    HW217847   3.169   4.815   3.062 -1.1827  1.6393  0.3924
 4901SOL     OW17848   7.236   5.047   4.095 -0.2349  0.0383 -0.3793
 4901SOL    HW117849   7.177   4.973   4.112  0.8830 -0.6951  0.3936
 4901SOL    HW217850   7.274   5.068   4.180  1.3331 -0.1338 -1.0138
 4902SOL     OW17851   2.029   4.411   5.124  0.8901 -0.1632  0.0631
 4902SOL    HW117852   1.962   4.460   5.076  1.9955 -0.8698 -2.3037
 4902SOL    HW217853   1.989   4.326   5.141  1.2293 -0.6982 -1.6284
 4903SOL     OW17854   2.928   2.145   1.108 -0.0945  0.1434  0.2295
 4903SOL    HW117855   2.879   2.142   1.190  0.8495  0.5797  0.8344
 4903SOL    HW217856   2.905   2.229   1.069  0.6451  0.6297  0.8249
 4904SOL     OW17857   1.330   7.812   4.059 -0.2034 -0.0537  0.0054
 4904SOL    HW117858   1.258   7.757   4.030 -1.0914  0.4528  1.1768
 4904SOL    HW217859   1.405   7.783   4.007 -1.0698 -1.0907 -0.7034
 4905SOL     OW17860   0.602   6.163   6.690  0.2451  0.8146  0.0171
 4905SOL    HW117861   0.643   6.091   6.643  0.2198  1.8860 -1.7484
 4905SOL    HW217862   0.670   6.230   6.697 -0.2816  1.3803 -0.1387
 4906SOL     OW17863   6.746   5.875   7.499  0.0970  0.0983 -0.4926
 4906SOL    HW117864   6.703   5.955   7.469 -0.8233  0.8977  2.5317
 4906SOL    HW217865   6.693   5.804   7.463  0.3686  0.8318 -2.4382
 4907SOL     OW17866   1.306   2.674   5.235 -0.7873 -0.5716 -0.0671
 4907SOL    HW117867   1.266   2.695   5.320 -0.2700  0.3499 -0.0419
 4907SOL    HW217868   1.233   2.639   5.183 -0.9020 -2.1291  1.0689
 4908SOL     OW17869   5.723   1.390   1.004 -0.3151 -0.1028 -0.7287
 4908SOL    HW117870   5.759   1.350   1.083  0.8720 -0.4587 -1.4287
 4908SOL    HW217871   5.676   1.319   0.961 -0.5405 -0.0333 -0.6007
 4909SOL     OW17872   3.085   1.467   4.706 -0.2214  0.0022 -0.3710
 4909SOL    HW117873   2.991   1.449   4.709 -0.1662 -0.3381 -0.6234
 4909SOL    HW217874   3.126   1.382   4.721  0.0719  0.5281  2.3084
 4910SOL     OW17875   5.988   0.602   0.734  0.4559  0.2698  0.7796
 4910SOL    HW117876   6.049   0.616   0.807 -0.1027 -4.4300  2.4911
 4910SOL    HW217877   5.902   0.620   0.772  0.2027 -1.7484  1.2838
 4911SOL     OW17878   5.595   2.019   7.724 -0.1480  0.2396 -0.2556
 4911SOL    HW117879   5.652   2.088   7.691 -0.1695 -0.6242 -2.2211
 4911SOL    HW217880   5.651   1.968   7.782  1.0670 -0.4604 -1.9786
 4912SOL     OW17881   0.524   0.400   0.497 -0.3121  0.2968  0.7765
 4912SOL    HW117882   0.560   0.392   0.585  2.7492 -2.7719 -0.5281
 4912SOL    HW217883   0.450   0.340   0.495 -0.2858  0.2480  1.2258
 4913SOL     OW17884   7.110   1.133   0.770  0.5462  0.1166  0.4388
 4913SOL    HW117885   7.035   1.159   0.823  0.0586 -0.5857  0.1126
 4913SOL    HW217886   7.090   1.165   0.682  0.6425 -0.0402  0.3588
 4914SOL     OW17887   7.533   4.855   7.151  0.8128 -0.2937 -0.1244
 4914SOL    HW117888   7.467   4.915   7.185 -0.3083 -2.6658  2.3434
 4914SOL    HW217889   7.608   4.910   7.130 -0.8902  2.1531 -0.1413
 4915SOL     OW17890   6.293   4.311   2.292 -0.0230  0.1177  0.2758
 4915SOL    HW117891   6.288   4.348   2.380 -0.5088 -0.2782  0.4205
 4915SOL    HW217892   6.377   4.266   2.289  0.2651  0.6547  0.3297
 4916SOL     OW17893   6.265   6.678   2.067 -0.0326  0.0059 -0.1893
 4916SOL    HW117894   6.277   6.766   2.102  0.2924 -0.3353  0.5760
 4916SOL    HW217895   6.187   6.644   2.112  0.5920 -0.5648  0.4959
 4917SOL     OW17896   5.294   3.938   2.518  0.1452 -0.1903  0.1705
 4917SOL    HW117897   5.222   3.891   2.559 -0.1374  0.0583 -0.0321
 4917SOL    HW217898   5.252   3.991   2.450  0.2481  1.5626  1.4073
 4918SOL     OW17899   1.062   2.495   6.956  0.2397 -0.6237  0.3499
 4918SOL    HW117900   0.977   2.530   6.981 -0.7756 -3.3507  1.1095
 4918SOL    HW217901   1.071   2.516   6.863 -1.0313  0.1600  0.3857
 4919SOL     OW17902   7.713   2.234   4.239 -0.2384  0.1153  0.5264
 4919SOL    HW117903   7.794   2.188   4.263  0.1148  0.3626 -0.1669
 4919SOL    HW217904   7.692   2.287   4.316 -0.0719 -0.4043  0.9362
 4920SOL     OW17905   4.554   6.502   6.480 -0.3477  0.3444  0.3754
 4920SOL    HW117906   4.614   6.433   6.506  0.4993  0.1311 -1.9723
 4920SOL    HW217907   4.565   6.510   6.386 -0.9905  3.1494  0.4474
 4921SOL     OW17908   4.933   0.591   1.668  0.1288  0.0630  0.1538
 4921SOL    HW117909   4.862   0.552   1.616  0.1826 -0.7687  0.6840
 4921SOL    HW217910   5.006   0.597   1.607 -0.2335  0.4286 -0.2543
 4922SOL     OW17911   7.195   6.258   1.977  0.1181  0.2696  0.0380
 4922SOL    HW117912   7.278   6.213   1.989  0.0236 -0.1628 -0.8413
 4922SOL    HW217913   7.209   6.345   2.015  1.5173  0.7833 -1.4845
 4923SOL     OW17914   1.753   4.785   0.322  0.4219  0.5840 -0.0202
 4923SOL    HW117915   1.682   4.811   0.262 -0.1387 -0.2754  0.2579
 4923SOL    HW217916   1.814   4.859   0.320 -0.7076  1.5495  0.0876
 4924SOL     OW17917   1.911   7.451   5.234  0.0655 -0.1500 -0.5514
 4924SOL    HW117918   1.872   7.433   5.148 -1.1769  1.1036 -0.2956
 4924SOL    HW217919   1.836   7.455   5.293  0.6863  1.1341  0.1888
 4925SOL     OW17920   7.650   4.755   1.831 -0.3722  0.0134 -0.4105
 4925SOL    HW117921   7.637   4.844   1.799 -1.2350 -0.5219 -1.5948
 4925SOL    HW217922   7.581   4.703   1.790  0.1714 -1.2298  0.1727
 4926SOL     OW17923   8.027   0.075   1.513 -0.1382 -0.0529  0.0911
 4926SOL    HW117924   7.947   0.128   1.510 -1.6354 -2.2141 -0.0200
 4926SOL    HW217925   8.048   0.068   1.606 -1.1345 -0.9650  0.2585
 4927SOL     OW17926   2.095   4.564   3.728 -0.1726 -0.0071 -0.0317
 4927SOL    HW117927   2.174   4.532   3.683 -0.9929  0.0972 -1.6347
 4927SOL    HW217928   2.023   4.523   3.680 -1.1233  0.6780  0.7868
 4928SOL     OW17929   6.385   3.154   2.509 -0.5354 -0.2891  0.2816
 4928SOL    HW117930   6.346   3.161   2.422  0.7232  0.9810 -0.2275
 4928SOL    HW217931   6.439   3.075   2.505 -0.3828 -0.1643 -0.1367
 4929SOL     OW17932   1.312   0.788   5.730 -0.3301 -0.0239  0.2313
 4929SOL    HW117933   1.334   0.706   5.686 -0.7575 -0.5302  0.9408
 4929SOL    HW217934   1.234   0.820   5.685  0.0004  0.1445 -0.2280
 4930SOL     OW17935   6.636   3.064   4.596 -0.4893  0.1611 -0.0564
 4930SOL    HW117936   6.696   3.092   4.665 -1.6310 -0.2489  1.1279
 4930SOL    HW217937   6.626   2.970   4.609  0.6664 -0.2776 -1.9135
 4931SOL     OW17938   3.681   7.079   1.863 -0.1981 -0.5647  0.0287
 4931SOL    HW117939   3.725   7.038   1.938  1.7109  0.7424 -0.2902
 4931SOL    HW217940   3.747   7.138   1.827 -1.8167  0.4667 -1.3684
 4932SOL     OW17941   6.162   0.128   2.757  0.1771 -0.1402  0.2308
 4932SOL    HW117942   6.193   0.151   2.670  1.1088 -1.3549  0.2020
 4932SOL    HW217943   6.067   0.137   2.752  0.1110 -1.2098 -1.2511
 4933SOL     OW17944   1.591   3.644   5.305  0.2919  0.1574  0.2866
 4933SOL    HW117945   1.634   3.569   5.348  0.2761 -0.9046 -1.4333
 4933SOL    HW217946   1.661   3.708   5.293  0.7044 -0.2947  0.2476
 4934SOL     OW17947   2.156   2.997   5.768 -0.4087 -0.6498 -0.2027
 4934SOL    HW117948   2.198   2.914   5.790 -0.6992 -1.4541 -2.4456
 4934SOL    HW217949   2.158   3.001   5.673 -0.7248  1.7801 -0.1725
 4935SOL     OW17950   6.732   2.315   2.025 -0.0212 -0.4719 -0.6404
 4935SOL    HW117951   6.824   2.339   2.031 -0.3942  0.6958  3.7715
 4935SOL    HW217952   6.732   2.219   2.022  1.4537 -0.6830  2.4353
 4936SOL     OW17953   1.474   7.406   2.747 -0.2210 -0.4164 -0.0334
 4936SOL    HW117954   1.517   7.445   2.823 -1.3540  0.6533  0.0966
 4936SOL    HW217955   1.381   7.428   2.758 -0.3576  0.1623 -1.9371
 4937SOL     OW17956   4.940   4.822   7.853  0.4580 -0.2054  0.6628
 4937SOL    HW117957   4.857   4.821   7.901 -0.0764 -0.8227 -0.2424
 4937SOL    HW217958   5.006   4.799   7.918 -0.1874 -0.5422  1.2117
 4938SOL     OW17959   6.823   1.158   4.902 -0.0845  0.5373  0.0129
 4938SOL    HW117960   6.765   1.092   4.864 -0.2493  1.0099 -0.5728
 4938SOL    HW217961   6.826   1.227   4.837  0.4458  0.9104  0.4265
 4939SOL     OW17962   2.877   0.158   1.834 -0.1588 -0.5854 -0.4210
 4939SOL    HW117963   2.813   0.094   1.805  0.1518 -0.8709 -0.4761
 4939SOL    HW217964   2.955   0.140   1.782  0.3119 -0.9258  0.3833
 4940SOL     OW17965   6.260   7.523   3.416 -0.2451  0.2596  0.2369
 4940SOL    HW117966   6.195   7.593   3.413  0.3444  0.8070  0.0308
 4940SOL    HW217967   6.343   7.566   3.394  0.0124 -0.6500 -0.6132
 4941SOL     OW17968   6.534   0.258   5.815  0.0301 -0.0987 -0.3614
 4941SOL    HW117969   6.594   0.211   5.757  0.9093  0.3748  0.1414
 4941SOL    HW217970   6.458   0.276   5.760  1.0743  0.8435 -1.5860
 4942SOL     OW17971   2.927   7.961   7.609  0.1410  0.5660 -0.4971
 4942SOL    HW117972   2.962   7.937   7.695  0.9775  0.6853 -0.7939
 4942SOL    HW217973   2.846   8.008   7.628  0.3453  0.6306  0.2320
 4943SOL     OW17974   7.369   5.413   1.590 -0.1503 -0.0986 -0.0209
 4943SOL    HW117975   7.460   5.435   1.609 -0.2721  0.8111 -0.4362
 4943SOL    HW217976   7.365   5.318   1.598  0.9376 -0.1909 -0.4107
 4944SOL     OW17977   5.588   2.037   2.006  0.2787  0.4018 -0.4388
 4944SOL    HW117978   5.616   2.069   1.920 -0.5910  2.1589 -0.1169
 4944SOL    HW217979   5.519   1.973   1.987  1.0069 -0.2121 -1.0705
 4945SOL     OW17980   0.970   5.523   7.943  0.3572 -0.0678 -0.2083
 4945SOL    HW117981   1.024   5.449   7.970  1.3044  0.3587 -0.8612
 4945SOL    HW217982   0.908   5.536   8.015  0.2921 -1.3673 -0.0024
 4946SOL     OW17983   4.567   3.596   1.659  0.1098 -0.2864 -0.3048
 4946SOL    HW117984   4.560   3.560   1.570  0.1662 -0.6153 -0.1784
 4946SOL    HW217985   4.477   3.614   1.685  0.1835  1.1889 -0.9819
 4947SOL     OW17986   0.343   1.639   7.475 -0.1108  0.1030  0.0652
 4947SOL    HW117987   0.415   1.659   7.535 -0.4187  0.2342  0.3938
 4947SOL    HW217988   0.356   1.701   7.403  1.8971 -1.8870 -1.4137
 4948SOL     OW17989   7.414   4.723   1.266 -0.2800  0.0401 -0.2366
 4948SOL    HW117990   7.443   4.672   1.341  0.3477  1.2609  0.3870
 4948SOL    HW217991   7.416   4.662   1.193  0.6010 -0.7800  0.4551
 4949SOL     OW17992   4.287   3.051   1.927 -0.0544 -0.6656 -0.0798
 4949SOL    HW117993   4.340   2.990   1.876  0.8957  0.3111 -0.3029
 4949SOL    HW217994   4.331   3.056   2.012 -0.5063 -0.7848  0.1654
 4950SOL     OW17995   4.034   7.658   4.117 -0.4981 -0.1444  0.2366
 4950SOL    HW117996   3.963   7.652   4.181 -0.5296 -1.7344  0.0895
 4950SOL    HW217997   4.079   7.740   4.139 -2.1005  0.6873  0.5920
 4951SOL     OW17998   4.790   3.346   4.791  0.3278  0.1115 -0.0827
 4951SOL    HW117999   4.831   3.375   4.710 -0.3274  0.2505 -0.3702
 4951SOL    HW218000   4.820   3.256   4.803  0.0596 -0.0676 -0.7291
 4952SOL     OW18001   5.173   6.231   0.032  0.2707 -0.3870  0.1199
 4952SOL    HW118002   5.200   6.283   0.108  0.2609 -0.6944  0.3321
 4952SOL    HW218003   5.255   6.199  -0.005  0.2826 -0.1570 -0.0602
 4953SOL     OW18004   5.932   3.404   4.716 -0.0833  0.4583 -0.4504
 4953SOL    HW118005   5.878   3.460   4.771 -1.4175 -0.6871 -0.5449
 4953SOL    HW218006   5.894   3.317   4.725  1.8298 -0.4323 -0.4436
 4954SOL     OW18007   7.914   4.711   1.820  0.7399  0.0506 -0.0006
 4954SOL    HW118008   7.819   4.720   1.824  0.8425  0.8748  2.7878
 4954SOL    HW218009   7.946   4.800   1.806  1.1245  0.1099  1.1525
 4955SOL     OW18010   0.440   0.155   5.034 -0.0213 -0.3659 -0.2361
 4955SOL    HW118011   0.522   0.140   5.081 -0.4142  0.3087  0.6937
 4955SOL    HW218012   0.389   0.212   5.091 -0.7201  0.0886 -1.2674
 4956SOL     OW18013   3.034   4.578   4.728  0.3012  0.6689  0.0749
 4956SOL    HW118014   2.945   4.562   4.759  0.9483 -1.2708  1.1260
 4956SOL    HW218015   3.087   4.584   4.808  1.3356  0.1818 -0.5438
 4957SOL     OW18016   6.500   7.677   7.867  0.1996  0.1306 -0.3367
 4957SOL    HW118017   6.553   7.755   7.850  1.0398 -0.0494  1.2447
 4957SOL    HW218018   6.540   7.609   7.814  0.4343  0.4160 -0.5313
 4958SOL     OW18019   1.116   7.274   6.009  0.7699  0.3094  0.2469
 4958SOL    HW118020   1.203   7.308   5.987  1.0403 -0.5213  0.0118
 4958SOL    HW218021   1.065   7.285   5.929  0.2969  1.8769  0.7247
 4959SOL     OW18022   7.587   3.723   3.397  0.0571 -0.1406  0.2035
 4959SOL    HW118023   7.634   3.647   3.363  0.1138 -0.1332  0.2644
 4959SOL    HW218024   7.527   3.686   3.462 -2.1289 -0.5296 -1.9090
 4960SOL     OW18025   0.004   0.775   5.394  0.3882 -0.3093  0.5971
 4960SOL    HW118026   0.037   0.859   5.364 -0.6145 -0.0942  0.0723
 4960SOL    HW218027   0.082   0.720   5.401  1.0149  0.5727  0.6761
 4961SOL     OW18028   4.888   2.666   4.961 -0.4352  0.2960 -0.3666
 4961SOL    HW118029   4.835   2.668   5.040 -2.4523  0.4667 -1.6593
 4961SOL    HW218030   4.946   2.590   4.973 -1.9153 -0.7406  0.5154
 4962SOL     OW18031   7.014   6.879   5.102  0.2252 -0.5963 -0.5288
 4962SOL    HW118032   7.087   6.828   5.135  1.7880  2.9472  2.0956
 4962SOL    HW218033   7.054   6.954   5.057 -1.4832  2.1475  2.0737
 4963SOL     OW18034   0.571   6.048   8.036 -0.4071 -0.0352 -0.8677
 4963SOL    HW118035   0.560   6.141   8.016  1.0696  0.3797  0.0844
 4963SOL    HW218036   0.539   6.038   8.126 -0.8294 -0.5103 -1.0662
 4964SOL     OW18037   0.491   3.099   6.906  0.1394 -0.1050 -0.2445
 4964SOL    HW118038   0.493   3.005   6.886 -1.2531 -0.4614  1.1753
 4964SOL    HW218039   0.584   3.124   6.912  0.5252 -1.5966  0.3309
 4965SOL     OW18040   6.746   2.834   3.141 -0.2776 -0.0043  0.0914
 4965SOL    HW118041   6.788   2.904   3.092 -0.7163 -0.6531 -1.2733
 4965SOL    HW218042   6.793   2.755   3.113 -0.3488 -0.3528  0.9503
 4966SOL     OW18043   0.339   6.544   0.426  0.8614 -0.4857 -0.4715
 4966SOL    HW118044   0.371   6.592   0.502  0.7591  0.8633 -1.2491
 4966SOL    HW218045   0.367   6.454   0.441 -0.9594 -0.7297  2.1807
 4967SOL     OW18046   7.998   6.014   6.798  0.0395 -0.4102 -0.1172
 4967SOL    HW118047   7.911   6.033   6.763 -0.7773 -3.1222  0.2654
 4967SOL    HW218048   7.986   5.937   6.854  2.4605 -0.0695  1.0244
 4968SOL     OW18049   2.305   6.918   4.644 -0.3093 -0.3617 -0.0758
 4968SOL    HW118050   2.276   7.009   4.649 -0.4829 -0.3215 -1.3363
 4968SOL    HW218051   2.293   6.894   4.552 -0.1011 -1.6102  0.1983
 4969SOL     OW18052   3.595   7.088   6.848  0.4946  0.0199  0.2988
 4969SOL    HW118053   3.507   7.067   6.877  1.0383 -0.4452  1.7102
 4969SOL    HW218054   3.643   7.108   6.929  1.6907  0.2345 -0.4293
 4970SOL     OW18055   5.463   1.915   1.591 -0.3697 -0.0627  0.0962
 4970SOL    HW118056   5.440   1.872   1.508  0.4166  0.7548 -0.5637
 4970SOL    HW218057   5.386   1.968   1.612  0.1296  1.2005 -1.1156
 4971SOL     OW18058   6.888   4.246   7.669 -0.1360 -0.2211  0.1767
 4971SOL    HW118059   6.885   4.332   7.712  2.7296 -0.2328  0.6324
 4971SOL    HW218060   6.883   4.266   7.575 -2.4705  0.1333  0.3235
 4972SOL     OW18061   2.477   6.177   0.326 -0.3071  0.1729  0.4750
 4972SOL    HW118062   2.467   6.108   0.260  0.8757 -0.2054  0.6726
 4972SOL    HW218063   2.564   6.162   0.363 -0.9871  0.3069  2.2115
 4973SOL     OW18064   0.064   7.301   8.066 -0.1035 -0.4265 -0.4986
 4973SOL    HW118065  -0.028   7.327   8.061 -0.0240 -0.0567 -0.0900
 4973SOL    HW218066   0.110   7.381   8.091 -0.0570 -1.3181  2.6724
 4974SOL     OW18067   0.930   7.966   0.545  0.2568 -0.4895  0.2318
 4974SOL    HW118068   0.982   7.985   0.467  0.5511 -0.8297  0.3414
 4974SOL    HW218069   0.972   7.890   0.584 -0.0099 -0.4464  0.6137
 4975SOL     OW18070   5.997   6.127   2.692 -0.3013 -0.5867  0.7365
 4975SOL    HW118071   6.053   6.153   2.619  1.6922 -0.7290  2.1118
 4975SOL    HW218072   5.966   6.209   2.730 -0.1250 -0.4513  0.5880
 4976SOL     OW18073   1.254   2.434   1.592  0.1571 -0.4017 -0.0560
 4976SOL    HW118074   1.244   2.353   1.641 -0.3449 -0.4434 -0.2139
 4976SOL    HW218075   1.305   2.411   1.515  0.4409 -0.4613  0.1504
 4977SOL     OW18076   6.104   3.711   7.876 -0.2932  0.1511  0.0988
 4977SOL    HW118077   6.037   3.704   7.944 -1.0442 -1.6686 -0.7680
 4977SOL    HW218078   6.134   3.802   7.881 -3.9172  1.5308 -0.4987
 4978SOL     OW18079   2.003   1.508   6.828 -0.0888 -0.4546  0.1961
 4978SOL    HW118080   1.921   1.549   6.857 -0.0839 -0.7521  0.6494
 4978SOL    HW218081   2.024   1.551   6.746 -0.1375  0.3838  0.6123
 4979SOL     OW18082   6.214   4.234   5.486  0.2267 -0.6695  0.2973
 4979SOL    HW118083   6.271   4.274   5.420 -3.2006  2.1075 -1.2943
 4979SOL    HW218084   6.221   4.140   5.471 -0.6244 -0.1979 -4.4411
 4980SOL     OW18085   7.967   1.234   1.168 -0.0500 -0.3952 -0.0751
 4980SOL    HW118086   8.031   1.203   1.232 -0.4103  1.3874  1.2403
 4980SOL    HW218087   7.882   1.223   1.213 -0.3466  0.4308 -0.4135
 4981SOL     OW18088   1.090   3.983   5.805 -0.2780 -0.3254 -0.3382
 4981SOL    HW118089   1.184   4.000   5.815 -0.5547  0.5400  0.9539
 4981SOL    HW218090   1.080   3.892   5.834  0.5026 -1.3372 -2.9196
 4982SOL     OW18091   1.320   1.049   2.640  0.3327  0.2936  0.2523
 4982SOL    HW118092   1.279   1.012   2.561  0.3555 -0.6439  0.6636
 4982SOL    HW218093   1.348   1.136   2.613 -0.6028  0.4000 -0.4775
 4983SOL     OW18094   1.173   2.017   5.572 -0.0727  0.7459 -0.0284
 4983SOL    HW118095   1.187   1.936   5.524 -1.3177  0.7179 -0.3829
 4983SOL    HW218096   1.107   1.995   5.638 -1.3737  1.7240 -0.9337
 4984SOL     OW18097   1.493   7.062   3.846 -0.4901 -0.4984  0.7959
 4984SOL    HW118098   1.539   7.010   3.913 -1.3826  0.3693  2.1232
 4984SOL    HW218099   1.491   7.150   3.882 -1.7936 -0.2041  0.0329
 4985SOL     OW18100   3.867   5.217   0.511 -0.3168  0.0232  0.4704
 4985SOL    HW118101   3.954   5.207   0.474  0.2472 -0.3309  1.8344
 4985SOL    HW218102   3.814   5.149   0.469 -0.7648  2.0957 -2.5923
 4986SOL     OW18103   3.396   4.336   4.013 -0.1290  0.6106 -0.0509
 4986SOL    HW118104   3.474   4.381   3.981  0.6231 -1.2104 -0.9366
 4986SOL    HW218105   3.428   4.248   4.037 -1.6143  0.3422  1.1143
 4987SOL     OW18106   3.287   7.216   0.516  0.3648  0.1832  0.5613
 4987SOL    HW118107   3.284   7.256   0.430  1.2483 -1.4610 -0.2823
 4987SOL    HW218108   3.300   7.289   0.577 -0.7825  1.4245 -0.6109
 4988SOL     OW18109   0.495   4.218   1.604  0.2003  0.6137  0.9823
 4988SOL    HW118110   0.575   4.262   1.635  0.4788  0.2682  0.7705
 4988SOL    HW218111   0.424   4.277   1.628  0.5122  0.8778  1.2711
 4989SOL     OW18112   4.933   2.401   4.095 -0.0545 -0.3672  0.2982
 4989SOL    HW118113   4.987   2.368   4.167  2.4015  1.5532 -0.5256
 4989SOL    HW218114   4.904   2.487   4.125  0.6948  0.2995 -0.8396
 4990SOL     OW18115   7.363   2.908   3.686  0.2681  0.1846  0.0236
 4990SOL    HW118116   7.445   2.874   3.720  0.5100  0.3555 -0.3776
 4990SOL    HW218117   7.368   2.892   3.591 -0.7295 -1.0194  0.1492
 4991SOL     OW18118   5.552   5.799   3.777  0.5947 -0.0440 -0.4047
 4991SOL    HW118119   5.468   5.814   3.735  0.6907 -0.5524 -0.7788
 4991SOL    HW218120   5.545   5.845   3.861 -1.0018 -2.1743  0.7131
 4992SOL     OW18121   0.682   2.686   5.427 -0.4646  0.0743  0.2120
 4992SOL    HW118122   0.600   2.732   5.407 -0.9840 -1.3739 -1.1991
 4992SOL    HW218123   0.722   2.670   5.341  1.4302  0.9371  0.8837
 4993SOL     OW18124   4.314   0.963   7.268 -0.1654  0.4444 -0.0530
 4993SOL    HW118125   4.359   0.996   7.189  0.0519 -1.7490 -0.9162
 4993SOL    HW218126   4.221   0.973   7.248 -0.1565 -1.3665 -1.2488
 4994SOL     OW18127   4.203   0.898   3.058  0.1043 -0.2929  0.0968
 4994SOL    HW118128   4.270   0.830   3.051  0.4264 -0.4340  3.0402
 4994SOL    HW218129   4.120   0.851   3.051  0.2435 -0.2720 -2.4412
 4995SOL     OW18130   1.306   7.010   7.776 -0.1683 -0.2390 -0.0241
 4995SOL    HW118131   1.309   7.072   7.849 -1.8922 -0.3479  0.1872
 4995SOL    HW218132   1.229   7.036   7.725  0.0351 -1.1937 -0.8605
 4996SOL     OW18133   3.104   1.650   6.594  0.3244  1.2994 -0.4416
 4996SOL    HW118134   3.023   1.700   6.583 -1.2428 -1.2711 -1.4364
 4996SOL    HW218135   3.109   1.595   6.516  2.1604  0.1758  0.4092
 4997SOL     OW18136   1.251   6.241   5.230  0.0664 -0.4601  0.1520
 4997SOL    HW118137   1.215   6.268   5.315 -1.1574 -1.0225 -0.1676
 4997SOL    HW218138   1.302   6.317   5.201  1.1164 -0.5188  1.6998
 4998SOL     OW18139   2.702   7.438   7.462 -0.6738  0.0421  0.2533
 4998SOL    HW118140   2.715   7.526   7.497  0.7637 -0.0028 -0.1116
 4998SOL    HW218141   2.785   7.416   7.420 -1.4176 -1.0231 -0.7157
 4999SOL     OW18142   0.009   6.366   4.481  0.2723  0.2518 -0.2027
 4999SOL    HW118143   0.070   6.426   4.524  0.6294 -0.2066 -0.0641
 4999SOL    HW218144   0.051   6.281   4.486 -0.0100  0.0665 -0.8274
 5000SOL     OW18145   0.500   5.310   7.029 -0.2200 -0.5622  0.2263
 5000SOL    HW118146   0.549   5.235   7.062 -0.3165 -1.0669 -0.7344
 5000SOL    HW218147   0.565   5.363   6.983 -0.1103  0.0663  1.0848
 5001SOL     OW18148   3.676   0.418   4.264  0.5171  0.5245  0.4490
 5001SOL    HW118149   3.614   0.350   4.291  1.2148 -0.1764  0.3236
 5001SOL    HW218150   3.677   0.412   4.168  1.0334  0.2879  0.4642
 5002SOL     OW18151   7.227   3.863   0.103 -0.1904  0.2676 -0.2094
 5002SOL    HW118152   7.168   3.877   0.029  0.3771  1.9969 -0.3646
 5002SOL    HW218153   7.314   3.860   0.065 -0.0222 -0.5993  0.2150
 5003SOL     OW18154   7.713   0.655   2.427 -0.7080 -0.5994  0.1065
 5003SOL    HW118155   7.669   0.624   2.348  0.5588 -2.5646  0.1077
 5003SOL    HW218156   7.758   0.735   2.399  0.2599 -1.6094 -1.3569
 5004SOL     OW18157   1.974   7.964   4.484  0.2842  0.0285  0.3523
 5004SOL    HW118158   1.994   7.897   4.550 -0.7179 -0.0745  0.5701
 5004SOL    HW218159   2.037   7.948   4.413  2.0646  0.7752  1.6878
 5005SOL     OW18160   6.692   0.104   4.235 -0.2333  0.6378 -0.3557
 5005SOL    HW118161   6.693   0.011   4.210  1.8690  0.3355  0.6510
 5005SOL    HW218162   6.685   0.151   4.152 -0.2959 -0.4090 -0.9559
 5006SOL     OW18163   1.088   7.166   6.271 -0.0607 -0.3424 -0.7815
 5006SOL    HW118164   1.174   7.141   6.235  0.0300  0.1875 -0.9438
 5006SOL    HW218165   1.047   7.216   6.201  0.2750  1.0407 -0.0355
 5007SOL     OW18166   5.230   0.308   4.040 -0.3389  0.2551 -0.7098
 5007SOL    HW118167   5.171   0.250   3.992 -0.4433  0.7545 -1.2072
 5007SOL    HW218168   5.306   0.318   3.983 -0.1800  0.3445 -0.4846
 5008SOL     OW18169   2.091   3.740   7.968  0.4789  0.3472  0.0214
 5008SOL    HW118170   2.171   3.764   7.922  0.4185 -0.0079 -0.2669
 5008SOL    HW218171   2.032   3.708   7.900  1.1056 -2.1714  0.5510
 5009SOL     OW18172   6.622   6.439   7.701  0.1424 -0.2129 -0.2506
 5009SOL    HW118173   6.534   6.405   7.688  0.0639 -0.2555  0.3444
 5009SOL    HW218174   6.673   6.365   7.733  0.1091  0.0765  0.5020
 5010SOL     OW18175   2.233   1.793   4.243 -0.1960 -0.2250  0.1426
 5010SOL    HW118176   2.301   1.762   4.303  1.6988 -1.0372 -2.3031
 5010SOL    HW218177   2.192   1.713   4.210 -0.4342  0.1564 -0.5008
 5011SOL     OW18178   5.553   2.278   1.090  0.5482 -0.3179 -0.0383
 5011SOL    HW118179   5.610   2.266   1.014  2.5074 -2.3073  1.5852
 5011SOL    HW218180   5.474   2.228   1.069  0.1099  0.9646 -1.6022
 5012SOL     OW18181   7.345   7.618   7.283 -0.9048  0.0128 -0.0578
 5012SOL    HW118182   7.413   7.628   7.215 -0.1694  2.0493  0.8834
 5012SOL    HW218183   7.263   7.624   7.236 -0.4118 -0.0147 -0.9453
 5013SOL     OW18184   3.776   0.758   6.326 -0.4976  0.7668  0.3518
 5013SOL    HW118185   3.700   0.709   6.295  0.1604  0.5576 -1.0177
 5013SOL    HW218186   3.832   0.693   6.368 -0.0951  0.5166 -0.5567
 5014SOL     OW18187   3.588   1.714   1.330  0.1862 -0.3907  0.0035
 5014SOL    HW118188   3.521   1.708   1.262  0.0705 -1.3651  0.1849
 5014SOL    HW218189   3.539   1.725   1.411  0.1874 -1.8835  0.2296
 5015SOL     OW18190   6.865   2.285   6.304  0.0533 -0.3223  0.4814
 5015SOL    HW118191   6.856   2.364   6.250 -1.5667 -0.3697  0.6197
 5015SOL    HW218192   6.904   2.316   6.385  0.7020  0.0904  0.0196
 5016SOL     OW18193   3.744   7.535   3.049 -0.5221  0.0627  0.0507
 5016SOL    HW118194   3.784   7.621   3.059 -0.0253 -0.0231 -1.0594
 5016SOL    HW218195   3.662   7.541   3.098 -0.2989  1.0277  0.3329
 5017SOL     OW18196   0.101   1.018   7.545  0.2961 -0.4908  0.4467
 5017SOL    HW118197   0.065   1.106   7.557 -0.5741 -1.1393  3.4721
 5017SOL    HW218198   0.171   1.029   7.481 -0.0749  2.3105  0.4085
 5018SOL     OW18199   4.276   7.046   0.440  0.2597 -0.1509 -0.0536
 5018SOL    HW118200   4.315   7.125   0.404 -1.1825  0.9459  0.7014
 5018SOL    HW218201   4.326   7.030   0.521 -0.7282  1.1798  0.8545
 5019SOL     OW18202   1.804   1.255   4.931  0.3518  0.4033  0.1785
 5019SOL    HW118203   1.718   1.249   4.890  0.7255  2.9863 -1.1907
 5019SOL    HW218204   1.848   1.174   4.906 -1.7770 -1.2290  1.3531
 5020SOL     OW18205   7.421   6.893   5.355 -0.1900  0.3722  0.5618
 5020SOL    HW118206   7.465   6.962   5.405  1.2975 -0.0184 -0.1555
 5020SOL    HW218207   7.443   6.812   5.402  0.5917  0.0819 -0.2892
 5021SOL     OW18208   6.984   8.083   6.812 -0.6028  0.1098 -0.2337
 5021SOL    HW118209   6.922   8.071   6.740 -0.7627  0.0892 -0.0934
 5021SOL    HW218210   6.989   7.997   6.854 -0.5603  0.1389 -0.1785
 5022SOL     OW18211   5.211   1.166   5.691 -0.0263 -0.6248  0.1826
 5022SOL    HW118212   5.145   1.162   5.622 -0.8554 -0.6767  0.9599
 5022SOL    HW218213   5.294   1.174   5.645 -0.6499  0.3422 -0.7972
 5023SOL     OW18214   4.912   1.703   1.855  0.2774  0.7102  0.1748
 5023SOL    HW118215   4.820   1.726   1.867 -1.0529 -2.4847 -2.3031
 5023SOL    HW218216   4.955   1.785   1.835 -2.8288  1.9268 -2.3786
 5024SOL     OW18217   4.144   1.228   1.844 -0.3779  0.1453 -0.1224
 5024SOL    HW118218   4.225   1.266   1.809  0.1490 -1.0375 -0.2399
 5024SOL    HW218219   4.171   1.180   1.922 -1.2757  1.2619  0.9136
 5025SOL     OW18220   5.771   4.879   2.535  0.2724  0.5068 -0.2092
 5025SOL    HW118221   5.791   4.823   2.610 -0.9790  0.0169 -0.2039
 5025SOL    HW218222   5.680   4.856   2.512  0.5768  0.7437 -1.7801
 5026SOL     OW18223   0.918   7.233   6.690 -0.3953 -0.3116  0.1554
 5026SOL    HW118224   0.968   7.208   6.768  1.7439 -0.4221 -1.1918
 5026SOL    HW218225   0.958   7.185   6.618 -2.1687 -0.0295 -1.0910
 5027SOL     OW18226   3.616   5.747   7.139 -0.0481  0.2260 -0.0098
 5027SOL    HW118227   3.557   5.738   7.065  1.3770 -0.8321 -1.0780
 5027SOL    HW218228   3.590   5.829   7.181 -2.5969 -0.4615 -0.0885
 5028SOL     OW18229   5.701   0.115   1.772 -0.5178 -0.1905 -0.4362
 5028SOL    HW118230   5.769   0.057   1.740 -1.2559 -1.8089  0.7741
 5028SOL    HW218231   5.684   0.175   1.700  1.3534 -0.4879 -1.1705
 5029SOL     OW18232   1.802   2.000   6.541 -0.0057  0.1198  0.1519
 5029SOL    HW118233   1.803   2.060   6.466 -3.3820 -0.5183 -0.5850
 5029SOL    HW218234   1.784   1.914   6.503 -0.5094 -0.4303  1.5740
 5030SOL     OW18235   5.226   2.256   2.654 -0.4123 -0.3129  0.6224
 5030SOL    HW118236   5.219   2.183   2.716 -0.1882  0.2068  1.2658
 5030SOL    HW218237   5.254   2.330   2.707  2.1295 -0.3843 -0.4417
 5031SOL     OW18238   2.528   5.923   7.107  0.1088 -0.2884 -0.1910
 5031SOL    HW118239   2.476   5.857   7.061  1.1165 -0.8853 -0.5308
 5031SOL    HW218240   2.552   5.986   7.039 -0.6952  0.3368  0.0948
 5032SOL     OW18241   4.734   6.771   2.234  0.2441 -0.1344 -0.6865
 5032SOL    HW118242   4.719   6.685   2.274  0.9399 -0.6284 -1.4641
 5032SOL    HW218243   4.659   6.784   2.177 -0.0096 -0.0954 -0.3460
 5033SOL     OW18244   7.688   3.724   7.019 -0.1059  0.1780  0.3054
 5033SOL    HW118245   7.633   3.730   7.097 -2.0372  0.5717 -0.9984
 5033SOL    HW218246   7.628   3.694   6.951  1.7401 -1.0957 -0.8342
 5034SOL     OW18247   3.856   6.686   1.751 -0.8562  0.3480  0.5441
 5034SOL    HW118248   3.898   6.711   1.668  0.1482 -1.9337  0.2869
 5034SOL    HW218249   3.762   6.698   1.736 -0.7114 -0.3402 -1.0597
 5035SOL     OW18250   7.460   4.498   1.126 -0.4336 -0.8106  0.4296
 5035SOL    HW118251   7.550   4.469   1.107  0.3231  1.3956  0.4439
 5035SOL    HW218252   7.446   4.471   1.217  1.2199  1.0685  1.3141
 5036SOL     OW18253   3.727   7.105   3.875 -0.2023 -0.1478  0.0659
 5036SOL    HW118254   3.650   7.104   3.817 -1.2133 -1.9691  1.3603
 5036SOL    HW218255   3.765   7.018   3.867  0.1910 -0.1214  1.4016
 5037SOL     OW18256   6.931   4.460   0.447 -0.2278 -0.1042 -0.0325
 5037SOL    HW118257   7.006   4.410   0.481  1.3226  2.1756  0.1631
 5037SOL    HW218258   6.963   4.499   0.366 -2.3847 -1.7601 -1.7898
 5038SOL     OW18259   5.941   3.299   2.594 -0.4348 -0.1820 -0.0936
 5038SOL    HW118260   6.034   3.306   2.615 -0.6656  2.1974  0.4731
 5038SOL    HW218261   5.932   3.345   2.510 -1.0018 -1.0204 -0.5009
 5039SOL     OW18262   2.445   1.775   0.952  0.7727 -0.4690  0.1951
 5039SOL    HW118263   2.541   1.777   0.955  0.8781 -1.7284 -1.2442
 5039SOL    HW218264   2.422   1.824   0.874  0.4258 -2.3718 -0.9728
 5040SOL     OW18265   2.172   1.673   1.463 -0.2933 -0.1714 -0.8253
 5040SOL    HW118266   2.262   1.647   1.479 -0.2978 -0.1785 -0.8119
 5040SOL    HW218267   2.135   1.602   1.412  0.2965  0.7418 -2.6221
 5041SOL     OW18268   0.482   6.420   2.149  0.0244  0.0569 -0.6083
 5041SOL    HW118269   0.495   6.347   2.088 -0.8974 -0.0023 -0.7491
 5041SOL    HW218270   0.428   6.384   2.219  0.9821  0.1585  0.2071
 5042SOL     OW18271   7.977   3.265   2.765  0.0202  0.0091 -0.9243
 5042SOL    HW118272   7.906   3.321   2.794  1.7856  2.0201 -0.2201
 5042SOL    HW218273   7.988   3.286   2.672  0.4885  0.6597 -0.7308
 5043SOL     OW18274   1.337   1.028   7.108  0.2321  0.2852 -0.0573
 5043SOL    HW118275   1.251   1.000   7.137  0.5856 -1.2425 -0.3420
 5043SOL    HW218276   1.330   1.033   7.013  0.4633  0.1023 -0.0865
 5044SOL     OW18277   2.631   7.979   0.706  0.3192 -0.1002 -0.4969
 5044SOL    HW118278   2.626   7.980   0.610 -0.1294 -0.8108 -0.4920
 5044SOL    HW218279   2.625   7.886   0.729  1.2767 -0.0044  0.1843
 5045SOL     OW18280   1.546   1.225   5.854  0.1338  0.0377 -0.6324
 5045SOL    HW118281   1.473   1.164   5.860 -0.3116  0.6742  0.5874
 5045SOL    HW218282   1.600   1.190   5.782 -0.6182 -1.2231 -0.6162
 5046SOL     OW18283   7.246   7.875   1.603 -0.0904  0.0485  0.0739
 5046SOL    HW118284   7.210   7.835   1.523 -0.6528 -0.9508  0.8035
 5046SOL    HW218285   7.171   7.917   1.644  0.1416  0.3174  0.2223
 5047SOL     OW18286   0.917   6.486   2.981  0.0063  0.5845  0.3523
 5047SOL    HW118287   0.862   6.564   2.982 -0.9174 -0.0444  0.0206
 5047SOL    HW218288   0.903   6.448   2.894 -2.3112 -1.8352  1.6276
 5048SOL     OW18289   1.299   1.176   0.366  0.5841  0.3803 -0.2294
 5048SOL    HW118290   1.380   1.134   0.337  1.9913  0.5242  3.0406
 5048SOL    HW218291   1.229   1.125   0.325  2.2847 -1.6792 -0.7386
 5049SOL     OW18292   2.663   6.415   7.184  0.0497  0.2886  0.3405
 5049SOL    HW118293   2.587   6.423   7.127  0.3507  0.3103 -0.0579
 5049SOL    HW218294   2.673   6.321   7.199  0.9174  0.1462 -0.9377
 5050SOL     OW18295   4.531   4.655   5.584 -0.0886  0.2612 -0.0502
 5050SOL    HW118296   4.449   4.647   5.535  0.1791  1.2524 -0.6736
 5050SOL    HW218297   4.595   4.684   5.519  0.6972 -0.2250  0.4962
 5051SOL     OW18298   7.432   2.101   7.884 -0.0891  0.3763  0.9043
 5051SOL    HW118299   7.348   2.146   7.880 -1.2011 -1.6266  0.2039
 5051SOL    HW218300   7.440   2.073   7.976 -0.2139  0.4990  0.9527
 5052SOL     OW18301   0.260   6.693   6.136 -0.3900  0.3076 -0.1107
 5052SOL    HW118302   0.292   6.606   6.160  2.1743  0.9656 -0.8185
 5052SOL    HW218303   0.337   6.749   6.143 -1.3064  1.9941 -2.3097
 5053SOL     OW18304   1.072   0.650   3.304  0.0837 -0.0243 -0.5456
 5053SOL    HW118305   1.096   0.703   3.379  1.5262 -1.8072  0.3196
 5053SOL    HW218306   1.040   0.713   3.239  0.6654  1.7473  0.8159
 5054SOL     OW18307   4.700   4.054   6.905 -0.7217  0.0298  0.3856
 5054SOL    HW118308   4.651   4.097   6.835 -2.5955  0.6200  1.9647
 5054SOL    HW218309   4.703   3.962   6.879  0.7906  0.5846 -1.6195
 5055SOL     OW18310   0.838   5.592   0.126 -0.0582 -0.0180 -0.4422
 5055SOL    HW118311   0.743   5.596   0.111  0.0546  0.2050 -1.1322
 5055SOL    HW218312   0.858   5.498   0.128 -0.6673 -0.1534  2.2825
 5056SOL     OW18313   5.865   1.326   1.790  1.0332 -0.5384 -0.4468
 5056SOL    HW118314   5.931   1.324   1.859 -0.3272  1.1069  1.0037
 5056SOL    HW218315   5.865   1.416   1.759  0.4100 -0.8441 -1.3819
 5057SOL     OW18316   6.747   0.428   1.004  0.7280  0.4758 -0.0998
 5057SOL    HW118317   6.836   0.416   0.973  1.1234  2.0001  0.3518
 5057SOL    HW218318   6.755   0.434   1.099  0.1044  0.4073 -0.0352
 5058SOL     OW18319   1.522   2.082   1.463  0.3573  0.8750 -0.0019
 5058SOL    HW118320   1.562   2.011   1.513 -0.1945  1.2131  0.9487
 5058SOL    HW218321   1.428   2.073   1.479  0.3739  2.8847  1.6597
 5059SOL     OW18322   3.820   3.088   6.464  0.1928  0.1839  0.3367
 5059SOL    HW118323   3.737   3.053   6.496 -0.1344  0.4840 -0.1701
 5059SOL    HW218324   3.833   3.046   6.379  1.3821 -1.1143  1.1165
 5060SOL     OW18325   4.502   7.064   5.746 -0.5924 -0.2477  0.2886
 5060SOL    HW118326   4.463   7.111   5.672 -0.9720 -0.4493  0.3553
 5060SOL    HW218327   4.558   6.998   5.704  0.6670  0.8369  0.2015
 5061SOL     OW18328   7.815   7.265   6.127  0.1010 -0.1906 -0.1431
 5061SOL    HW118329   7.830   7.188   6.181 -0.8435 -0.3100 -0.0335
 5061SOL    HW218330   7.749   7.237   6.063 -2.2316  1.1793  1.4624
 5062SOL     OW18331   3.590   7.219   6.036  0.2704  0.0621  0.1674
 5062SOL    HW118332   3.568   7.172   6.117 -0.4880  0.5890  0.2813
 5062SOL    HW218333   3.506   7.248   6.002  0.6523  0.5416 -0.3896
 5063SOL     OW18334   3.830   7.928   3.007  0.3033 -0.1823  0.2748
 5063SOL    HW118335   3.892   7.939   3.080  0.7290 -1.7528  0.1970
 5063SOL    HW218336   3.768   7.861   3.038 -1.6210  1.6080  0.4804
 5064SOL     OW18337   2.370   7.422   7.180  0.0019  0.2257 -0.2182
 5064SOL    HW118338   2.376   7.342   7.128 -0.0846 -0.2153  0.4413
 5064SOL    HW218339   2.440   7.478   7.146  0.4248 -0.3515 -0.3038
 5065SOL     OW18340   0.898   5.570   3.093 -0.5487 -0.2985 -0.8098
 5065SOL    HW118341   0.812   5.573   3.052 -0.8499 -2.0799 -0.4049
 5065SOL    HW218342   0.925   5.479   3.086  0.2767 -0.2654  1.1192
 5066SOL     OW18343   6.476   1.416   6.580  0.4950 -0.3313  0.0079
 5066SOL    HW118344   6.396   1.365   6.589  1.0199 -1.0376  0.7886
 5066SOL    HW218345   6.544   1.351   6.563  0.7449  0.3428 -1.8136
 5067SOL     OW18346   5.118   7.864   5.082  0.3522 -0.3461 -0.5095
 5067SOL    HW118347   5.093   7.924   5.153  1.0147 -0.6797  0.0202
 5067SOL    HW218348   5.083   7.905   5.003 -0.6138 -0.0828  0.0332
 5068SOL     OW18349   3.738   4.078   7.996  0.2024  0.1029  0.2966
 5068SOL    HW118350   3.714   4.137   7.925  0.4117  1.9904  1.7114
 5068SOL    HW218351   3.661   4.023   8.009  0.0471 -0.0586 -1.1484
 5069SOL     OW18352   4.756   5.859   2.446 -0.7477  0.0466  0.1503
 5069SOL    HW118353   4.825   5.897   2.500 -0.6274 -1.5597  1.1827
 5069SOL    HW218354   4.803   5.823   2.370 -0.4644 -0.7815  0.7053
 5070SOL     OW18355   0.476   6.074   1.703  0.2704  0.2099  0.2483
 5070SOL    HW118356   0.399   6.025   1.673 -1.5108  1.6399  2.2218
 5070SOL    HW218357   0.537   6.007   1.732 -0.1608 -0.9648 -1.3785
 5071SOL     OW18358   7.097   5.509   0.177 -0.2796 -0.0235 -0.0411
 5071SOL    HW118359   7.077   5.518   0.270 -0.3403 -0.9976  0.0529
 5071SOL    HW218360   7.038   5.570   0.134 -0.5327  0.1481  0.5375
 5072SOL     OW18361   5.009   5.840   2.095  0.0044  0.2131 -0.7274
 5072SOL    HW118362   4.916   5.831   2.076 -0.2021 -1.7815  0.9019
 5072SOL    HW218363   5.053   5.798   2.022 -0.6419 -3.7622  0.9285
 5073SOL     OW18364   5.186   0.230   0.968 -0.1349  0.4825  0.2992
 5073SOL    HW118365   5.210   0.141   0.994  0.5088  0.6662  0.3645
 5073SOL    HW218366   5.255   0.255   0.906 -2.3185 -0.4548 -2.7547
 5074SOL     OW18367   3.966   5.970   7.534  0.4806  0.2453  0.8296
 5074SOL    HW118368   3.922   5.894   7.572  2.5239 -1.3191  0.2840
 5074SOL    HW218369   4.033   5.993   7.598  1.4891 -0.0455 -0.0657
 5075SOL     OW18370   3.222   6.723   8.056  0.3820 -0.5369 -0.0599
 5075SOL    HW118371   3.131   6.731   8.027  1.0226  0.6226 -1.9634
 5075SOL    HW218372   3.250   6.814   8.072  0.3565 -1.0339  3.5864
 5076SOL     OW18373   4.773   5.697   0.351 -0.4173  0.4612  0.3451
 5076SOL    HW118374   4.813   5.783   0.343 -0.1613  0.5534  2.3200
 5076SOL    HW218375   4.741   5.677   0.262 -1.6521  3.1230  0.1231
 5077SOL     OW18376   2.238   4.034   0.065 -0.4025 -0.2361 -0.1506
 5077SOL    HW118377   2.265   4.056   0.155 -2.4816  0.3048  0.3897
 5077SOL    HW218378   2.144   4.020   0.071 -0.9129  1.4681 -2.5423
 5078SOL     OW18379   3.426   4.320   3.034  0.3139 -0.1628 -0.1107
 5078SOL    HW118380   3.461   4.395   3.082  0.8537  0.2009 -1.0399
 5078SOL    HW218381   3.404   4.256   3.102 -3.0961  1.9490  0.9973
 5079SOL     OW18382   1.156   4.684   2.983  0.1681  0.3036 -0.6965
 5079SOL    HW118383   1.098   4.627   3.032 -0.0660  1.2022  0.1150
 5079SOL    HW218384   1.100   4.725   2.917  0.0549  0.5613 -0.4410
 5080SOL     OW18385   6.569   0.233   5.074 -0.3531  0.0105  0.1343
 5080SOL    HW118386   6.531   0.320   5.085 -0.8145 -0.1959  0.2159
 5080SOL    HW218387   6.623   0.240   4.995  0.1297  0.5423  0.5082
 5081SOL     OW18388   6.574   2.729   0.765  0.6524  0.4112 -0.3778
 5081SOL    HW118389   6.637   2.708   0.697 -1.5545 -0.1279 -2.3732
 5081SOL    HW218390   6.578   2.654   0.825  1.4250  0.0947 -0.8102
 5082SOL     OW18391   7.663   6.980   1.851  0.7989  0.0166  0.0808
 5082SOL    HW118392   7.664   7.061   1.901  1.4366  0.1813 -0.1880
 5082SOL    HW218393   7.624   7.004   1.767  2.1146  0.3386 -0.4602
 5083SOL     OW18394   1.252   7.208   0.789  0.2010  0.0254  0.0795
 5083SOL    HW118395   1.208   7.146   0.847  1.0782 -1.0045 -0.3157
 5083SOL    HW218396   1.190   7.222   0.717 -0.6923  0.9392  0.9889
 5084SOL     OW18397   3.732   4.593   6.809 -0.1630 -0.7226  0.1836
 5084SOL    HW118398   3.812   4.629   6.771  0.7180 -1.5665  1.1451
 5084SOL    HW218399   3.674   4.668   6.818  0.1732 -0.2381 -1.3411
 5085SOL     OW18400   4.893   3.785   2.112 -0.1119 -0.1756  0.2857
 5085SOL    HW118401   4.962   3.755   2.171  1.2383  2.8315  0.4426
 5085SOL    HW218402   4.830   3.829   2.168 -1.5258 -1.7278 -0.0207
 5086SOL     OW18403   6.360   2.518   4.529 -0.8717 -0.5180  0.6915
 5086SOL    HW118404   6.367   2.518   4.433 -0.3421  0.7262  0.7173
 5086SOL    HW218405   6.443   2.481   4.559 -1.1765 -1.2321  0.6734
 5087SOL     OW18406   7.132   7.986   3.014 -0.2927 -0.3898 -0.0767
 5087SOL    HW118407   7.205   8.045   2.996  1.2208 -2.7617 -2.4452
 5087SOL    HW218408   7.117   7.994   3.108  2.0137  1.2786  0.2274
 5088SOL     OW18409   6.299   5.369   3.134 -0.0561 -0.0226  0.0257
 5088SOL    HW118410   6.356   5.386   3.059  0.7811 -0.5107  0.5440
 5088SOL    HW218411   6.223   5.426   3.119  0.2968  0.2127 -0.9613
 5089SOL     OW18412   1.928   0.274   5.769  0.0008 -0.0198  0.3610
 5089SOL    HW118413   1.920   0.346   5.707 -1.5040 -1.4154 -1.1575
 5089SOL    HW218414   2.007   0.228   5.741 -0.2399 -0.1944 -0.0386
 5090SOL     OW18415   0.441   6.896   4.927 -0.3344 -0.5119  0.2839
 5090SOL    HW118416   0.520   6.933   4.965  0.0421  0.1155 -1.0576
 5090SOL    HW218417   0.397   6.970   4.885 -0.7849 -1.1547 -0.4029
 5091SOL     OW18418   5.857   1.017   4.765  0.6874 -0.1319 -0.2756
 5091SOL    HW118419   5.897   0.946   4.715 -0.2449 -1.3134  0.5858
 5091SOL    HW218420   5.808   0.972   4.834  2.6573  1.4082  2.3151
 5092SOL     OW18421   5.442   1.184   2.064  0.0014  0.0496 -0.4337
 5092SOL    HW118422   5.380   1.250   2.092  1.8758  1.6328  0.1597
 5092SOL    HW218423   5.494   1.227   1.995 -0.1659 -1.5596 -1.6407
 5093SOL     OW18424   7.466   2.377   6.551  0.1227  0.1588  0.2084
 5093SOL    HW118425   7.520   2.406   6.624 -1.1991 -0.1275  1.3429
 5093SOL    HW218426   7.424   2.457   6.519  1.2178  0.3931 -0.7221
 5094SOL     OW18427   0.645   6.138   3.339  0.2931 -0.2957  0.3504
 5094SOL    HW118428   0.676   6.050   3.316 -0.0476 -0.5660  0.9057
 5094SOL    HW218429   0.551   6.126   3.357  0.3247  0.1140  0.7906
 5095SOL     OW18430   2.052   1.921   6.922 -0.1474 -0.6559 -0.1491
 5095SOL    HW118431   2.122   1.866   6.889  2.3082  1.1270  1.7032
 5095SOL    HW218432   2.060   2.003   6.873 -0.8524 -0.3816  0.1768
 5096SOL     OW18433   2.225   1.105   7.904  0.2525 -0.1861 -0.3826
 5096SOL    HW118434   2.141   1.110   7.859  0.7416 -1.1065 -1.4627
 5096SOL    HW218435   2.252   1.196   7.917 -1.9726  0.2476  2.1407
 5097SOL     OW18436   2.853   6.746   3.694  0.0717  0.7762  0.2905
 5097SOL    HW118437   2.905   6.814   3.738  1.8115  0.3530 -1.0056
 5097SOL    HW218438   2.813   6.792   3.620 -0.1391  0.7585  0.3935
 5098SOL     OW18439   0.708   0.270   6.323  0.2113 -0.4760 -0.7585
 5098SOL    HW118440   0.643   0.340   6.318  0.9077  0.2920  0.5257
 5098SOL    HW218441   0.754   0.274   6.239 -0.9421 -0.6111 -1.4255
 5099SOL     OW18442   4.183   2.464   3.069 -0.4771 -0.0669 -0.9257
 5099SOL    HW118443   4.193   2.496   3.159  0.3046  0.5814 -1.2305
 5099SOL    HW218444   4.155   2.373   3.079 -1.3078  0.2671 -0.0332
 5100SOL     OW18445   3.228   2.796   5.589 -0.3752  0.0541 -0.2911
 5100SOL    HW118446   3.237   2.790   5.494 -1.0045  0.3471 -0.3741
 5100SOL    HW218447   3.195   2.884   5.605 -1.3406 -0.3728  0.1186
 5101SOL     OW18448   1.032   1.385   5.824 -0.0619 -0.2103 -0.1723
 5101SOL    HW118449   1.045   1.313   5.761  1.0161 -1.5786  1.5250
 5101SOL    HW218450   0.939   1.382   5.844  0.0395 -1.4620  0.2094
 5102SOL     OW18451   2.629   5.307   2.288 -0.4432 -0.1060 -0.3070
 5102SOL    HW118452   2.614   5.397   2.315 -1.3730 -0.1138 -0.7353
 5102SOL    HW218453   2.687   5.270   2.354 -1.9691  0.1139  1.2059
 5103SOL     OW18454   7.761   0.514   4.275 -0.5532  0.3968 -0.5008
 5103SOL    HW118455   7.732   0.491   4.363  2.6027 -0.3063  0.4944
 5103SOL    HW218456   7.775   0.609   4.278 -0.7224  0.4189 -0.3685
 5104SOL     OW18457   6.379   8.033   2.147 -0.3788 -0.4832 -0.2858
 5104SOL    HW118458   6.374   7.942   2.116 -0.1684 -0.1888 -1.2239
 5104SOL    HW218459   6.414   8.081   2.073 -1.9884  0.6425 -0.3693
 5105SOL     OW18460   5.364   1.436   3.079 -0.3861 -0.0525 -0.3934
 5105SOL    HW118461   5.297   1.481   3.027 -1.1252 -0.1931  0.4136
 5105SOL    HW218462   5.316   1.365   3.122  0.1735  0.2017  0.6603
 5106SOL     OW18463   0.404   2.346   5.283 -0.5488 -0.0832 -0.2345
 5106SOL    HW118464   0.416   2.322   5.375  0.4771  0.6232 -0.1677
 5106SOL    HW218465   0.492   2.345   5.246 -0.6412  1.8860 -0.6317
 5107SOL     OW18466   7.473   3.423   2.791 -0.3256 -0.3749  0.0817
 5107SOL    HW118467   7.476   3.513   2.823 -1.5912 -0.1092 -0.5019
 5107SOL    HW218468   7.380   3.401   2.791 -0.2076 -0.9878 -1.6934
 5108SOL     OW18469   6.197   4.283   7.300  0.2283  0.2573  0.0733
 5108SOL    HW118470   6.268   4.283   7.365  0.9684 -0.7443 -0.7077
 5108SOL    HW218471   6.173   4.191   7.292  0.0279  0.3897 -0.9415
 5109SOL     OW18472   7.833   4.684   5.579  0.3336 -0.0180  0.8563
 5109SOL    HW118473   7.886   4.697   5.657  0.8693  1.3936  0.3032
 5109SOL    HW218474   7.834   4.590   5.564  0.0669 -0.3188  2.6331
 5110SOL     OW18475   2.306   5.713   0.377 -0.4474 -0.8356  0.1396
 5110SOL    HW118476   2.373   5.713   0.445 -0.1598 -1.3255 -0.1375
 5110SOL    HW218477   2.289   5.805   0.360  0.8221 -0.6782 -0.4195
 5111SOL     OW18478   0.935   6.218   6.881 -0.3271  0.8367  0.1345
 5111SOL    HW118479   1.016   6.249   6.922  0.2208 -1.1087  0.5950
 5111SOL    HW218480   0.867   6.233   6.947  0.3605 -1.2203  1.3937
 5112SOL     OW18481   0.991   7.290   5.070 -0.4027 -0.0183  0.4270
 5112SOL    HW118482   1.083   7.317   5.073 -0.3515 -0.1028 -0.3380
 5112SOL    HW218483   0.956   7.331   4.991 -0.6119 -1.2798 -0.1587
 5113SOL     OW18484   8.095   0.603   0.153 -0.5527  0.3196 -0.7675
 5113SOL    HW118485   8.072   0.612   0.061 -2.1008  3.2601 -0.2288
 5113SOL    HW218486   8.122   0.691   0.180  0.0159 -0.4732  1.5727
 5114SOL     OW18487   1.765   7.906   6.452  0.5526 -0.1614  0.1864
 5114SOL    HW118488   1.696   7.896   6.517  2.0397 -0.0932  1.8497
 5114SOL    HW218489   1.761   7.999   6.426 -0.3986 -0.3186 -0.2436
 5115SOL     OW18490   2.915   6.752   1.865  0.1232 -0.2376 -0.1127
 5115SOL    HW118491   2.931   6.731   1.773  0.2120 -1.5073  0.1766
 5115SOL    HW218492   2.990   6.713   1.911  0.4197  0.9583  0.4391
 5116SOL     OW18493   6.609   2.232   5.059  0.1132 -0.3848  0.2386
 5116SOL    HW118494   6.564   2.294   5.117  0.9789  0.4150  0.0693
 5116SOL    HW218495   6.687   2.278   5.030  0.8872 -1.6256  0.2490
 5117SOL     OW18496   3.239   2.852   1.789 -0.3113  0.2202  0.3316
 5117SOL    HW118497   3.279   2.873   1.704  1.8670  1.1945  1.5303
 5117SOL    HW218498   3.217   2.759   1.783  0.4771  0.0940 -1.0240
 5118SOL     OW18499   1.882   4.882   7.199  0.1863 -0.3971 -0.4292
 5118SOL    HW118500   1.919   4.917   7.119 -0.1486  3.6159  0.9420
 5118SOL    HW218501   1.791   4.910   7.198  0.2633  0.0761  1.4773
 5119SOL     OW18502   5.891   4.895   0.104 -0.1739  0.5352 -0.1867
 5119SOL    HW118503   5.973   4.918   0.148  0.0950 -0.3611 -0.2087
 5119SOL    HW218504   5.900   4.802   0.082 -0.6835  0.7254 -1.2953
 5120SOL     OW18505   7.725   7.918   6.788 -0.8268  0.2435 -0.1737
 5120SOL    HW118506   7.710   8.013   6.785 -0.4279  0.2911 -1.7770
 5120SOL    HW218507   7.742   7.894   6.697 -1.6426 -1.5051  0.0972
 5121SOL     OW18508   6.056   2.299   1.000 -0.5436 -0.2991  0.0487
 5121SOL    HW118509   6.070   2.212   1.038  0.3662  0.5905  1.8481
 5121SOL    HW218510   6.143   2.328   0.973 -1.1613 -0.9161 -2.8914
 5122SOL     OW18511   2.176   1.310   1.965 -0.4445  0.1800  0.0788
 5122SOL    HW118512   2.097   1.301   1.913 -0.1251  0.3491 -0.4515
 5122SOL    HW218513   2.247   1.315   1.900  0.1254 -1.2000  0.5643
 5123SOL     OW18514   2.350   6.520   5.309  0.4581 -0.5197 -0.1302
 5123SOL    HW118515   2.297   6.520   5.230 -0.5777 -0.2190  0.5467
 5123SOL    HW218516   2.305   6.579   5.369  0.9374 -1.1260  0.8679
 5124SOL     OW18517   5.353   0.208   4.491  0.3820 -0.3701  0.2011
 5124SOL    HW118518   5.271   0.172   4.524 -0.2173  1.3762  0.7543
 5124SOL    HW218519   5.416   0.193   4.562 -0.3856  1.4668  1.3570
 5125SOL     OW18520   4.551   5.080   7.878  0.0200  0.0145  0.3217
 5125SOL    HW118521   4.591   5.154   7.925  0.6064  0.8578 -1.4117
 5125SOL    HW218522   4.614   5.060   7.809 -0.5536 -1.5659  0.2337
 5126SOL     OW18523   4.252   7.505   5.862  0.8352 -0.6089  0.1139
 5126SOL    HW118524   4.201   7.501   5.942  1.5076  0.6925  0.6508
 5126SOL    HW218525   4.206   7.448   5.800 -2.0612  1.4972  0.1113
 5127SOL     OW18526   2.426   3.756   1.211 -0.5010 -0.1172  0.7781
 5127SOL    HW118527   2.371   3.776   1.136 -0.5898 -0.3137  0.7889
 5127SOL    HW218528   2.394   3.813   1.281 -1.0158 -0.5678  0.9257
 5128SOL     OW18529   7.461   1.286   2.078  0.2572  0.1748 -1.0041
 5128SOL    HW118530   7.550   1.252   2.064  0.2158  0.5688 -2.4166
 5128SOL    HW218531   7.470   1.381   2.072  0.1641  0.4279  1.6800
 5129SOL     OW18532   7.779   0.693   1.435  0.1215 -0.4693 -0.1727
 5129SOL    HW118533   7.756   0.673   1.345  0.2247 -0.2141 -0.2584
 5129SOL    HW218534   7.861   0.646   1.450  0.1632 -0.4212 -0.2487
 5130SOL     OW18535   4.116   1.951   3.164  0.6346  0.4973  0.0293
 5130SOL    HW118536   4.198   1.902   3.174 -0.0145 -0.8726 -1.0773
 5130SOL    HW218537   4.050   1.884   3.148 -0.6017  1.6323  0.2546
 5131SOL     OW18538   5.660   1.201   7.523  0.2533 -0.2899  0.0711
 5131SOL    HW118539   5.622   1.163   7.603  0.0398  0.3980  0.3038
 5131SOL    HW218540   5.614   1.285   7.513  0.2192 -0.4123 -0.8257
 5132SOL     OW18541   3.342   6.542   7.880  0.5708 -0.2204  0.4451
 5132SOL    HW118542   3.300   6.583   7.956 -1.3339  0.3036 -0.8178
 5132SOL    HW218543   3.346   6.612   7.815  0.2928 -1.1888 -0.6358
 5133SOL     OW18544   2.280   7.918   1.977  1.0027  0.1010  0.0980
 5133SOL    HW118545   2.360   7.870   1.997  1.8452  1.8595  1.2711
 5133SOL    HW218546   2.242   7.937   2.063 -0.7908 -0.8196 -0.4388
 5134SOL     OW18547   1.668   3.717   8.029  0.0866  0.6071 -0.2851
 5134SOL    HW118548   1.664   3.693   7.937  0.3599  1.8287 -0.6278
 5134SOL    HW218549   1.648   3.810   8.031  0.1482  0.6129  0.8873
 5135SOL     OW18550   0.229   6.390   5.322 -0.4446  0.3970  0.5576
 5135SOL    HW118551   0.145   6.347   5.305 -1.9602  2.9559  0.8780
 5135SOL    HW218552   0.295   6.327   5.294 -2.5073 -0.9843 -1.5781
 5136SOL     OW18553   2.397   6.109   2.281 -0.0783 -0.1702 -0.0606
 5136SOL    HW118554   2.379   6.119   2.375  0.3582 -0.3590  0.0448
 5136SOL    HW218555   2.353   6.184   2.240  0.0211  0.1039  0.3281
 5137SOL     OW18556   1.420   0.738   0.924 -0.0223 -0.1677 -0.0346
 5137SOL    HW118557   1.438   0.792   0.847  1.7533 -3.2726 -2.0539
 5137SOL    HW218558   1.341   0.689   0.901 -0.3436 -0.0430  0.7775
 5138SOL     OW18559   4.354   7.355   7.148  0.2255  0.0389 -0.4851
 5138SOL    HW118560   4.407   7.389   7.220 -0.7185 -0.7591  0.6397
 5138SOL    HW218561   4.417   7.308   7.092  0.6249 -1.8857  1.4293
 5139SOL     OW18562   1.334   2.697   4.633 -0.1781  0.0650  0.2423
 5139SOL    HW118563   1.398   2.697   4.704  0.3492 -0.7132 -0.2266
 5139SOL    HW218564   1.362   2.626   4.575 -0.8348  0.4289 -0.5350
 5140SOL     OW18565   5.058   3.178   7.989  0.3075  0.6457 -0.4204
 5140SOL    HW118566   5.091   3.098   8.029 -0.5724 -0.4182 -1.7294
 5140SOL    HW218567   5.137   3.230   7.971  0.7689  0.8175  1.8650
 5141SOL     OW18568   5.700   5.765   5.650 -0.4746  0.0969  0.7936
 5141SOL    HW118569   5.717   5.791   5.559 -1.0768 -0.0566  0.6333
 5141SOL    HW218570   5.678   5.847   5.694 -1.8887 -0.0428  0.3982
 5142SOL     OW18571   5.625   4.963   3.116 -0.3813  0.2108 -0.0916
 5142SOL    HW118572   5.630   4.897   3.185 -1.8445 -0.0195 -0.1782
 5142SOL    HW218573   5.686   5.031   3.144 -0.0428 -0.4488  0.8083
 5143SOL     OW18574   4.019   4.554   1.526 -0.1321  0.4118 -0.1827
 5143SOL    HW118575   4.084   4.487   1.550 -1.9152 -0.8204  1.4841
 5143SOL    HW218576   3.994   4.531   1.437  0.1515 -0.4241 -0.0602
 5144SOL     OW18577   0.469   6.475   0.943  0.1546  0.1954 -0.0627
 5144SOL    HW118578   0.383   6.504   0.912  0.4732  0.4767 -0.7026
 5144SOL    HW218579   0.523   6.474   0.864 -0.0043 -2.8938 -0.2288
 5145SOL     OW18580   7.747   0.318   1.148  0.1814 -0.6409 -0.2347
 5145SOL    HW118581   7.658   0.349   1.131  1.2452  1.4295 -2.7821
 5145SOL    HW218582   7.770   0.357   1.232 -1.1740 -0.9063  0.2874
 5146SOL     OW18583   2.206   3.761   5.508  0.7372 -0.2025  0.1176
 5146SOL    HW118584   2.235   3.840   5.554  2.9249 -0.7264 -0.2303
 5146SOL    HW218585   2.274   3.696   5.528 -1.0908 -2.0745  0.5355
 5147SOL     OW18586   3.733   7.995   4.034  0.3720 -0.0384 -0.7777
 5147SOL    HW118587   3.649   8.029   4.065  0.7958  0.8437 -0.5500
 5147SOL    HW218588   3.752   7.921   4.091  0.0486  0.1556 -0.4160
 5148SOL     OW18589   0.059   2.503   3.773 -0.1050  0.6104 -0.3946
 5148SOL    HW118590   0.146   2.542   3.781  0.5241 -0.4111 -1.7937
 5148SOL    HW218591   0.034   2.482   3.863  1.4484  0.2039 -0.0251
 5149SOL     OW18592   4.213   5.389   4.338  0.0931 -0.4360 -0.1630
 5149SOL    HW118593   4.163   5.310   4.316 -0.4170  0.1975 -1.3983
 5149SOL    HW218594   4.147   5.451   4.370  0.2826 -0.0311 -0.5533
 5150SOL     OW18595   5.577   0.739   6.866 -0.1531 -0.4460  0.4248
 5150SOL    HW118596   5.535   0.799   6.803 -3.1190 -0.9234  1.7870
 5150SOL    HW218597   5.586   0.791   6.946 -0.9848 -1.2563  1.0540
 5151SOL     OW18598   3.535   4.339   3.660  0.0069  0.2953  0.3658
 5151SOL    HW118599   3.591   4.379   3.726 -0.4355 -1.8470  2.1977
 5151SOL    HW218600   3.489   4.269   3.707  0.2979 -1.9662 -2.3778
 5152SOL     OW18601   1.472   5.241   0.002 -0.2736  0.1592  0.0399
 5152SOL    HW118602   1.516   5.316  -0.037 -1.4597  0.6754 -0.3491
 5152SOL    HW218603   1.438   5.192  -0.073  1.6018 -1.5310  0.1957
 5153SOL     OW18604   4.441   7.837   0.732  0.0652 -0.5487 -0.3733
 5153SOL    HW118605   4.464   7.813   0.642  0.3155 -1.7897 -0.0031
 5153SOL    HW218606   4.433   7.753   0.778  3.7623 -0.0068  1.7153
 5154SOL     OW18607   0.924   2.166   7.816  0.0477 -0.2026  0.1256
 5154SOL    HW118608   0.832   2.138   7.821  0.0810 -0.4765 -0.5439
 5154SOL    HW218609   0.928   2.217   7.735  0.1970  0.9768  0.8633
 5155SOL     OW18610   6.039   6.107   1.931  0.7135  0.1709  0.0446
 5155SOL    HW118611   6.017   6.014   1.934 -0.0544  0.3707  0.9144
 5155SOL    HW218612   6.022   6.133   1.840  0.7427 -0.4882 -0.1529
 5156SOL     OW18613   5.294   2.821   6.609  0.3118  0.2486  0.5824
 5156SOL    HW118614   5.367   2.765   6.636  1.0035  1.0613  0.4351
 5156SOL    HW218615   5.294   2.816   6.514  0.6838  0.8797  0.5478
 5157SOL     OW18616   7.570   4.491   3.774  0.0001  0.3907 -0.2295
 5157SOL    HW118617   7.641   4.428   3.779  0.2190  0.4979 -1.5179
 5157SOL    HW218618   7.498   4.450   3.821  1.7105  1.5379  3.8511
 5158SOL     OW18619   6.117   2.790   0.791 -0.1838  0.1753 -0.1257
 5158SOL    HW118620   6.109   2.810   0.884  1.3151 -0.2384  0.1088
 5158SOL    HW218621   6.029   2.763   0.765 -0.9429  1.5934  0.8409
 5159SOL     OW18622   0.623   4.327   0.913 -0.1876  0.1331  0.1045
 5159SOL    HW118623   0.614   4.247   0.964 -0.1832 -0.4739 -0.8268
 5159SOL    HW218624   0.539   4.372   0.925 -0.0292  0.2134  0.9812
 5160SOL     OW18625   5.332   3.511   0.904  0.1350 -0.0644  0.0854
 5160SOL    HW118626   5.316   3.416   0.902 -3.3020  0.4260 -0.7961
 5160SOL    HW218627   5.337   3.537   0.812  0.0265  0.7650  0.3090
 5161SOL     OW18628   5.045   2.504   5.285  0.0457  0.0413 -0.0664
 5161SOL    HW118629   5.032   2.449   5.208 -0.6656  0.0778  0.0234
 5161SOL    HW218630   4.971   2.564   5.285  0.6903  0.8457 -0.0242
 5162SOL     OW18631   3.879   2.489   4.229  0.0595 -0.0216 -0.1043
 5162SOL    HW118632   3.790   2.522   4.216 -0.5834 -0.6787  2.1038
 5162SOL    HW218633   3.882   2.465   4.322  1.4242 -3.3509 -0.8638
 5163SOL     OW18634   7.790   5.931   6.547  0.7453  0.0869 -0.2873
 5163SOL    HW118635   7.719   5.981   6.506 -1.0018 -0.4706  1.8851
 5163SOL    HW218636   7.760   5.916   6.637  3.4316 -0.5961  0.5789
 5164SOL     OW18637   7.697   7.699   1.696  0.2664 -0.7144 -0.1620
 5164SOL    HW118638   7.738   7.782   1.721  0.2612 -1.0550  0.9923
 5164SOL    HW218639   7.769   7.645   1.663  0.3383 -0.4195 -0.4962
 5165SOL     OW18640   3.508   2.482   1.173  0.6573 -0.4303 -0.7160
 5165SOL    HW118641   3.420   2.456   1.143  1.3607 -3.7731 -0.2120
 5165SOL    HW218642   3.492   2.528   1.256 -0.6807  0.3760 -1.3840
 5166SOL     OW18643   0.854   2.552   4.530  0.6688 -0.3814 -0.3377
 5166SOL    HW118644   0.940   2.567   4.570 -0.0267 -1.9409  1.9387
 5166SOL    HW218645   0.802   2.628   4.556  0.5737 -0.8008  0.7303
 5167SOL     OW18646   6.839   2.192   1.774 -0.3900 -0.6368 -0.0030
 5167SOL    HW118647   6.908   2.162   1.834  0.5990 -1.7422 -1.5985
 5167SOL    HW218648   6.816   2.114   1.723 -2.0964 -0.0377 -0.2282
 5168SOL     OW18649   2.987   5.606   0.209 -0.2878  0.4078  0.0521
 5168SOL    HW118650   2.917   5.570   0.264  1.0407 -1.7449  0.4540
 5168SOL    HW218651   3.023   5.531   0.162  1.6791  1.4392 -0.2306
 5169SOL     OW18652   0.882   6.001   3.049 -0.3245  0.6197 -1.0568
 5169SOL    HW118653   0.958   5.944   3.057 -0.6769  0.3721  1.0971
 5169SOL    HW218654   0.915   6.089   3.071 -0.4909  0.6419 -0.8894
 5170SOL     OW18655   1.676   1.423   7.102  0.1129  0.0139  0.9474
 5170SOL    HW118656   1.585   1.409   7.078  0.2767  0.3961  0.0526
 5170SOL    HW218657   1.704   1.339   7.140 -0.2623 -0.5053  0.0981
 5171SOL     OW18658   4.324   5.895   3.846 -0.6052 -0.4586 -0.1769
 5171SOL    HW118659   4.264   5.830   3.810 -0.2300 -0.0064 -1.6573
 5171SOL    HW218660   4.287   5.917   3.932 -1.5656 -1.4830 -0.3115
 5172SOL     OW18661   1.371   2.736   5.704 -0.2757 -0.1662  0.5233
 5172SOL    HW118662   1.326   2.697   5.779  0.4891  0.5564  1.3874
 5172SOL    HW218663   1.417   2.812   5.741  1.1351 -0.5204 -0.4278
 5173SOL     OW18664   5.843   8.051   6.603  0.2463 -0.4354  0.3781
 5173SOL    HW118665   5.788   8.115   6.649  1.8766  2.1023 -0.9815
 5173SOL    HW218666   5.927   8.056   6.648  0.6712 -0.9195 -0.3516
 5174SOL     OW18667   4.723   2.645   0.780  0.0677  0.0222 -0.3726
 5174SOL    HW118668   4.709   2.556   0.749  0.0848  0.0925 -0.5803
 5174SOL    HW218669   4.642   2.691   0.761 -0.4712 -0.3030  0.9993
 5175SOL     OW18670   5.773   5.178   6.247  0.2168  0.9920  0.2907
 5175SOL    HW118671   5.845   5.181   6.310  2.4924  1.8154 -2.1497
 5175SOL    HW218672   5.780   5.090   6.208 -1.4898  0.2982  1.4272
 5176SOL     OW18673   2.112   6.165   2.033 -0.3502  0.2444  0.0195
 5176SOL    HW118674   2.076   6.134   1.950 -1.1779 -0.6560  0.6935
 5176SOL    HW218675   2.149   6.086   2.074 -2.2472  0.1261  1.6482
 5177SOL     OW18676   2.275   1.772   2.495  0.5145 -0.8304  0.1912
 5177SOL    HW118677   2.344   1.722   2.539 -0.0744 -1.4580  0.4271
 5177SOL    HW218678   2.225   1.706   2.446 -0.3347 -0.4903  0.5801
 5178SOL     OW18679   6.477   2.058   2.029 -0.6065 -0.5764 -0.0656
 5178SOL    HW118680   6.456   2.085   2.119  1.4507 -0.8497  0.5509
 5178SOL    HW218681   6.572   2.058   2.026 -0.6211 -1.7841 -1.9003
 5179SOL     OW18682   1.441   1.507   3.846  0.0213 -0.2979 -0.5121
 5179SOL    HW118683   1.445   1.413   3.864  1.9275 -0.0241  0.9446
 5179SOL    HW218684   1.499   1.519   3.771 -0.3553 -0.3105 -0.8037
 5180SOL     OW18685   5.456   2.976   2.200 -0.3590 -0.2244  0.3733
 5180SOL    HW118686   5.388   3.025   2.153 -0.5913 -1.1055 -0.2262
 5180SOL    HW218687   5.507   3.044   2.244 -1.7709  0.4477  1.0560
 5181SOL     OW18688   5.268   3.666   3.738 -0.2518  0.0474 -0.2522
 5181SOL    HW118689   5.289   3.585   3.784 -1.6017 -0.0641  0.2391
 5181SOL    HW218690   5.176   3.655   3.711 -0.5192  1.4712 -0.0226
 5182SOL     OW18691   5.962   5.880   8.089 -0.2821 -0.1479  0.3150
 5182SOL    HW118692   5.872   5.895   8.060 -0.3265  0.6236  0.8229
 5182SOL    HW218693   5.993   5.809   8.034 -0.4493  1.0871 -1.4673
 5183SOL     OW18694   7.703   4.481   5.936  0.2335 -0.4960 -0.0402
 5183SOL    HW118695   7.751   4.457   5.857 -0.0256  0.6055 -0.5473
 5183SOL    HW218696   7.741   4.565   5.963  0.9327 -1.2798  1.5355
 5184SOL     OW18697   7.501   1.629   0.589 -0.2983  0.2514 -0.2197
 5184SOL    HW118698   7.555   1.689   0.640  0.2783 -0.4990  0.0485
 5184SOL    HW218699   7.479   1.679   0.510 -0.2843  1.0133  0.2451
 5185SOL     OW18700   5.974   3.811   1.522  0.4072  0.4656  0.1284
 5185SOL    HW118701   6.040   3.790   1.456 -0.5413 -0.1710 -0.6478
 5185SOL    HW218702   5.941   3.726   1.550  0.4775  0.7523  1.1079
 5186SOL     OW18703   0.417   4.260   2.320  0.6228  0.1994  0.0704
 5186SOL    HW118704   0.415   4.206   2.241  0.9741  1.9634 -1.2011
 5186SOL    HW218705   0.473   4.211   2.381 -1.3831 -2.2649  0.1100
 5187SOL     OW18706   0.434   0.314   0.014 -0.1920  0.3243 -0.2729
 5187SOL    HW118707   0.527   0.301   0.032 -0.0377 -1.4209 -1.9931
 5187SOL    HW218708   0.432   0.383  -0.053 -0.0792 -0.1328 -0.7506
 5188SOL     OW18709   2.661   5.385   2.712 -0.4982 -0.0995  0.2333
 5188SOL    HW118710   2.711   5.323   2.660 -2.2574 -2.5701  1.2638
 5188SOL    HW218711   2.586   5.408   2.657 -1.2008 -0.9763  0.7971
 5189SOL     OW18712   3.920   5.394   7.634  0.2419 -0.4124  0.1947
 5189SOL    HW118713   3.886   5.478   7.665 -0.2139 -0.1270 -1.0316
 5189SOL    HW218714   3.930   5.342   7.714 -1.9630 -0.0927  0.7522
 5190SOL     OW18715   0.107   3.464   3.202  0.1971 -0.5372  0.6584
 5190SOL    HW118716   0.111   3.544   3.149  1.8753 -1.2531 -0.3697
 5190SOL    HW218717   0.198   3.437   3.212 -0.2931 -1.9537  1.5834
 5191SOL     OW18718   2.355   5.181   3.204 -0.1483  0.1388 -0.1438
 5191SOL    HW118719   2.278   5.154   3.254  0.9319 -1.7754  0.5857
 5191SOL    HW218720   2.403   5.239   3.264 -0.0267 -0.2826  0.1738
 5192SOL     OW18721   5.046   1.041   7.203  0.0461 -0.3832 -0.3060
 5192SOL    HW118722   5.035   0.957   7.248 -0.7186 -0.0649  0.1270
 5192SOL    HW218723   4.970   1.092   7.230 -0.4261 -0.1575 -1.9316
 5193SOL     OW18724   0.642   6.221   3.673  0.1994 -0.0355  0.5403
 5193SOL    HW118725   0.688   6.185   3.597 -0.8814  0.5622 -0.4279
 5193SOL    HW218726   0.706   6.217   3.744  1.4374 -0.0469 -0.5494
 5194SOL     OW18727   0.679   4.504   5.638 -0.0104 -0.2660 -0.2272
 5194SOL    HW118728   0.691   4.422   5.687  0.7681  0.0714  0.1599
 5194SOL    HW218729   0.746   4.500   5.570 -0.3346 -0.1980 -0.5518
 5195SOL     OW18730   3.399   5.536   6.840 -0.4218 -0.6356  0.3642
 5195SOL    HW118731   3.459   5.463   6.856 -1.9861 -1.5185  2.7728
 5195SOL    HW218732   3.454   5.614   6.851  1.0791 -1.3579 -1.3971
 5196SOL     OW18733   3.497   4.669   7.359  0.2363  0.3672  0.2882
 5196SOL    HW118734   3.420   4.655   7.414  0.7408 -0.1590  0.8638
 5196SOL    HW218735   3.477   4.750   7.311 -0.4608  0.5024  0.7884
 5197SOL     OW18736   2.160   0.161   5.663 -0.3529 -0.0684  0.4493
 5197SOL    HW118737   2.109   0.098   5.612 -1.8314  0.5576  1.0933
 5197SOL    HW218738   2.192   0.110   5.738  0.5292 -0.6142 -0.2767
 5198SOL     OW18739   3.460   3.747   4.124  0.2081 -0.5173  0.0710
 5198SOL    HW118740   3.512   3.693   4.183 -1.4507 -1.8962  0.3435
 5198SOL    HW218741   3.416   3.810   4.182 -0.8718 -1.4154  0.2503
 5199SOL     OW18742   1.093   5.406   2.666  0.4238 -0.4346 -0.3537
 5199SOL    HW118743   1.105   5.361   2.582 -1.9433  0.1621 -1.0972
 5199SOL    HW218744   1.153   5.361   2.726  1.3045 -1.6784 -2.0682
 5200SOL     OW18745   2.626   4.297   0.649  0.4576  0.4171  0.3213
 5200SOL    HW118746   2.676   4.260   0.721 -0.4185  0.7163  1.1056
 5200SOL    HW218747   2.689   4.308   0.578  1.4344  0.5451  1.1955
 5201SOL     OW18748   6.423   5.715   6.979  0.0391 -0.3068 -0.4367
 5201SOL    HW118749   6.412   5.810   6.984  2.6976  0.0903 -0.5785
 5201SOL    HW218750   6.430   5.696   6.885 -2.1116 -0.9297 -0.5183
 5202SOL     OW18751   5.606   6.319   7.889  0.3545 -0.1422 -0.6091
 5202SOL    HW118752   5.590   6.328   7.983  0.8011  1.0995 -0.6266
 5202SOL    HW218753   5.569   6.398   7.851  0.8150 -0.2947 -1.3880
 5203SOL     OW18754   6.898   0.467   1.853  0.5262  0.1203 -0.3334
 5203SOL    HW118755   6.976   0.516   1.878 -0.5119  0.8845  1.5820
 5203SOL    HW218756   6.850   0.454   1.935 -1.3068 -0.4041 -1.4290
 5204SOL     OW18757   1.617   0.242   1.344 -0.3783  0.4950 -0.3931
 5204SOL    HW118758   1.665   0.324   1.329  1.7154 -0.9126 -2.0488
 5204SOL    HW218759   1.609   0.203   1.257 -0.1544 -1.6616  0.4866
 5205SOL     OW18760   6.709   4.144   2.499  0.1839  0.1169 -0.2232
 5205SOL    HW118761   6.762   4.078   2.544 -1.0641 -0.2108  0.8320
 5205SOL    HW218762   6.772   4.209   2.469  1.4650 -1.5931 -1.4068
 5206SOL     OW18763   7.013   3.042   4.325  0.2462 -0.5324 -0.4010
 5206SOL    HW118764   7.092   2.992   4.306  1.3066  1.2512 -0.9745
 5206SOL    HW218765   7.045   3.130   4.347 -1.5885  0.5844 -1.8005
 5207SOL     OW18766   4.195   5.383   7.823 -0.3870 -0.1242  0.6023
 5207SOL    HW118767   4.157   5.470   7.811 -1.3548 -0.8544 -2.6002
 5207SOL    HW218768   4.144   5.344   7.895 -1.3736  1.1795  0.6471
 5208SOL     OW18769   0.990   2.177   0.004  0.5017  0.2104  0.2331
 5208SOL    HW118770   1.028   2.091   0.024 -2.2647 -1.1880 -0.0889
 5208SOL    HW218771   0.967   2.172  -0.089  0.2770  1.3149  0.2164
 5209SOL     OW18772   7.582   3.640   0.679  0.1555 -0.1686 -0.3483
 5209SOL    HW118773   7.566   3.607   0.767  0.6411  0.9302  0.1682
 5209SOL    HW218774   7.677   3.647   0.672  0.0866  0.5189 -0.6604
 5210SOL     OW18775   3.791   3.520   0.772 -0.1157  0.7499 -0.0837
 5210SOL    HW118776   3.877   3.482   0.757 -0.9526 -1.3953  0.2092
 5210SOL    HW218777   3.764   3.553   0.687 -0.1861 -1.1894 -0.8504
 5211SOL     OW18778   0.822   1.070   5.711 -0.0589 -0.0874 -0.4476
 5211SOL    HW118779   0.789   1.148   5.756 -0.8043 -0.0160 -1.0959
 5211SOL    HW218780   0.745   1.035   5.666  0.4393 -0.7771 -0.7667
 5212SOL     OW18781   3.868   7.571   0.366 -0.1436 -0.3671  0.2082
 5212SOL    HW118782   3.883   7.479   0.343  2.9145 -0.2285  1.1901
 5212SOL    HW218783   3.933   7.619   0.314 -0.4751  1.0505  1.0650
 5213SOL     OW18784   6.866   5.640   0.057  1.0205  0.3208 -0.6104
 5213SOL    HW118785   6.792   5.699   0.045  0.3120 -0.5318 -0.5450
 5213SOL    HW218786   6.827   5.553   0.062  1.8594  0.0090  1.2281
 5214SOL     OW18787   2.452   4.091   0.735 -0.5623 -0.2898 -0.3824
 5214SOL    HW118788   2.400   4.061   0.660  0.3472 -0.6839 -0.8685
 5214SOL    HW218789   2.493   4.172   0.705 -0.2639 -0.4023 -0.2877
 5215SOL     OW18790   3.235   1.851   7.985  0.0916  0.0223 -0.1104
 5215SOL    HW118791   3.200   1.785   8.044 -0.1499  0.2513  0.0009
 5215SOL    HW218792   3.168   1.862   7.918  0.4502 -0.3891 -0.5539
 5216SOL     OW18793   6.071   5.174   3.388 -0.0424  0.1032 -0.4292
 5216SOL    HW118794   6.079   5.122   3.468  0.0757 -0.8879 -1.0748
 5216SOL    HW218795   6.071   5.265   3.419  2.1894 -0.1721  0.5335
 5217SOL     OW18796   5.250   3.378   3.364  0.1500 -0.2847 -0.1200
 5217SOL    HW118797   5.212   3.295   3.392 -1.8886  1.3812  2.5117
 5217SOL    HW218798   5.296   3.411   3.441 -1.4312  2.2460 -0.1429
 5218SOL     OW18799   1.245   5.211   4.099 -0.0899  0.0609 -0.4261
 5218SOL    HW118800   1.174   5.248   4.152  1.9357  1.0883  1.7646
 5218SOL    HW218801   1.236   5.255   4.014 -2.7399 -0.7766 -0.6803
 5219SOL     OW18802   7.063   5.166   5.483  0.1066  0.3227  0.5021
 5219SOL    HW118803   7.077   5.112   5.405  2.3674 -0.0862  1.1282
 5219SOL    HW218804   7.109   5.119   5.553  2.2046  3.0204  1.0753
 5220SOL     OW18805   5.770   5.176   7.387  0.1515  0.0622  0.2495
 5220SOL    HW118806   5.768   5.081   7.393 -0.4819 -0.0963 -1.8831
 5220SOL    HW218807   5.765   5.195   7.294 -1.5810  2.2133  0.6939
 5221SOL     OW18808   1.859   3.648   3.914  0.1504 -0.2442  0.0146
 5221SOL    HW118809   1.889   3.617   3.828 -1.3837 -0.4714 -0.4654
 5221SOL    HW218810   1.791   3.712   3.894 -0.5573 -0.6525  1.0706
 5222SOL     OW18811   6.746   7.316   5.231  0.3638  0.1028  0.3418
 5222SOL    HW118812   6.805   7.241   5.239  0.2882 -0.4590 -3.0912
 5222SOL    HW218813   6.801   7.386   5.196 -0.7857 -0.3591 -2.6882
 5223SOL     OW18814   6.034   5.972   3.734 -0.8863  0.0237 -0.0931
 5223SOL    HW118815   5.943   5.995   3.718 -0.5513  1.5028  0.0524
 5223SOL    HW218816   6.033   5.926   3.818 -1.5692 -0.6110 -0.4322
 5224SOL     OW18817   0.843   1.182   4.838 -0.1792  0.1362  0.3694
 5224SOL    HW118818   0.894   1.105   4.813  0.7945  0.7591  0.3441
 5224SOL    HW218819   0.785   1.198   4.763  1.9672  1.3631 -1.1796
 5225SOL     OW18820   0.422   7.830   1.775 -0.4867 -0.7213  0.3184
 5225SOL    HW118821   0.430   7.740   1.744  2.0006 -0.9268  1.3147
 5225SOL    HW218822   0.435   7.823   1.870  0.3651  0.7287  0.3350
 5226SOL     OW18823   1.000   2.657   6.019 -0.4758  0.3868 -0.1473
 5226SOL    HW118824   1.010   2.746   6.054  0.5692  0.1766  0.1338
 5226SOL    HW218825   0.972   2.605   6.094  1.4273  0.0040  0.3669
 5227SOL     OW18826   5.313   3.437   5.778  0.2871  0.5231  0.1392
 5227SOL    HW118827   5.290   3.530   5.772 -1.7252  0.2253  1.8972
 5227SOL    HW218828   5.228   3.393   5.785  1.2221 -1.4337 -0.4008
 5228SOL     OW18829   3.737   4.728   5.982 -0.3145 -0.7924 -0.4093
 5228SOL    HW118830   3.674   4.749   5.913 -1.2812 -1.3344  0.2699
 5228SOL    HW218831   3.737   4.632   5.986 -1.4784 -0.7840  1.3399
 5229SOL     OW18832   4.019   0.961   8.091  0.3341 -0.3308 -0.1893
 5229SOL    HW118833   3.978   1.011   8.020  1.5968 -0.9713 -1.4204
 5229SOL    HW218834   4.009   0.869   8.064  1.2266 -0.5568  0.2237
 5230SOL     OW18835   2.885   4.755   5.161  0.3387 -0.6754 -0.5286
 5230SOL    HW118836   2.939   4.737   5.238  1.2160 -1.7355 -1.3519
 5230SOL    HW218837   2.870   4.849   5.163  0.3851 -0.6752  0.8967
 5231SOL     OW18838   3.377   1.862   4.284  0.4177 -0.3548 -0.0255
 5231SOL    HW118839   3.330   1.922   4.342  1.7962  0.8665 -0.0914
 5231SOL    HW218840   3.337   1.777   4.299 -0.7031  0.3399  1.0988
 5232SOL     OW18841   6.047   4.602   3.760  0.1833  0.2302 -0.7515
 5232SOL    HW118842   6.140   4.607   3.784  0.7092 -0.7758 -2.3846
 5232SOL    HW218843   6.002   4.584   3.843  1.4298  0.7610  0.0787
 5233SOL     OW18844   7.898   1.649   4.653  0.1859  0.2242 -0.2273
 5233SOL    HW118845   7.974   1.628   4.599 -1.2449 -1.2306 -1.7655
 5233SOL    HW218846   7.891   1.576   4.714 -0.1832  0.1688 -0.3333
 5234SOL     OW18847   5.182   7.062   2.996 -0.8194  0.1776 -0.0439
 5234SOL    HW118848   5.272   7.069   3.028 -0.8656  2.7056 -0.2821
 5234SOL    HW218849   5.172   7.136   2.936 -2.0961 -1.8774 -2.5694
 5235SOL     OW18850   2.042   3.108   1.950 -0.2312 -0.2544  0.2633
 5235SOL    HW118851   2.003   3.022   1.966 -1.6006  0.0782 -1.0430
 5235SOL    HW218852   2.095   3.096   1.870  0.7369 -0.2064  0.8811
 5236SOL     OW18853   3.358   3.510   3.511 -0.0946 -0.3376 -0.5059
 5236SOL    HW118854   3.369   3.418   3.535  1.1785 -0.2584 -0.7077
 5236SOL    HW218855   3.376   3.558   3.592  1.4029 -0.1964 -0.8843
 5237SOL     OW18856   5.921   7.881   0.567  0.0295  0.3145  0.5903
 5237SOL    HW118857   5.830   7.852   0.564  0.2441 -0.4637  1.2641
 5237SOL    HW218858   5.968   7.811   0.612  0.8201  1.0784  1.0053
 5238SOL     OW18859   4.111   6.230   1.898  0.0482  0.0135  0.2399
 5238SOL    HW118860   4.035   6.264   1.851 -1.1441 -0.2529  1.8880
 5238SOL    HW218861   4.186   6.269   1.854 -0.9888 -0.2699 -1.8931
 5239SOL     OW18862   4.564   0.095   4.414 -0.1541 -0.4361  0.2122
 5239SOL    HW118863   4.604   0.141   4.488 -0.3567 -1.5379  1.0264
 5239SOL    HW218864   4.513   0.163   4.369 -0.0235  0.2501  1.0704
 5240SOL     OW18865   2.353   4.829   3.460 -0.2345  0.3165  0.8305
 5240SOL    HW118866   2.362   4.829   3.555  1.3785 -1.5477  0.7547
 5240SOL    HW218867   2.436   4.864   3.428 -0.6142  0.5697  0.1081
 5241SOL     OW18868   5.639   1.850   1.207  0.1744 -0.1128 -0.2068
 5241SOL    HW118869   5.548   1.850   1.236 -0.3768 -0.3793 -1.8088
 5241SOL    HW218870   5.678   1.926   1.250 -0.1297 -1.3060  2.3599
 5242SOL     OW18871   1.078   1.811   6.021  0.3347  0.6046 -0.2784
 5242SOL    HW118872   1.140   1.744   6.051 -0.5930 -0.8098 -1.3960
 5242SOL    HW218873   1.095   1.819   5.927 -0.5207  0.9142 -0.4158
 5243SOL     OW18874   2.695   0.293   6.058 -0.1337 -0.1355  0.1537
 5243SOL    HW118875   2.688   0.240   5.979 -0.1248  0.5282 -0.2990
 5243SOL    HW218876   2.743   0.239   6.120  1.0083 -0.1571 -0.7334
 5244SOL     OW18877   7.575   4.803   6.822  0.0695 -0.1224 -0.1641
 5244SOL    HW118878   7.567   4.709   6.837  0.5726 -0.3188 -1.0602
 5244SOL    HW218879   7.517   4.843   6.887 -0.2650 -1.0551  0.1208
 5245SOL     OW18880   1.290   3.469   2.114  0.1075 -0.2456  0.4912
 5245SOL    HW118881   1.242   3.498   2.037 -1.0159  0.2603  1.3623
 5245SOL    HW218882   1.309   3.376   2.097  1.6160  0.3156 -1.2393
 5246SOL     OW18883   3.591   0.032   5.312  0.4554 -0.5885 -0.2708
 5246SOL    HW118884   3.595  -0.034   5.381  1.0864  0.6121  0.8801
 5246SOL    HW218885   3.547   0.107   5.352  2.4290  0.8132 -0.5386
 5247SOL     OW18886   2.716   7.850   2.419 -0.0372  0.2065  0.1979
 5247SOL    HW118887   2.725   7.761   2.385 -4.9921 -0.5374  0.1223
 5247SOL    HW218888   2.749   7.845   2.509  1.5290 -1.1141 -0.3926
 5248SOL     OW18889   5.183   0.513   7.431 -0.0028 -0.6456 -0.0269
 5248SOL    HW118890   5.237   0.532   7.508  1.0168  1.0875 -1.1078
 5248SOL    HW218891   5.246   0.481   7.366 -0.7913 -1.6871 -0.2951
 5249SOL     OW18892   2.079   7.878   3.461  0.3721  0.6127 -0.0592
 5249SOL    HW118893   2.027   7.945   3.505  0.5025  1.3286 -0.9591
 5249SOL    HW218894   2.144   7.927   3.412  0.4406 -0.1747 -0.7778
 5250SOL     OW18895   4.252   1.923   3.865  0.0963  0.5717  0.3419
 5250SOL    HW118896   4.329   1.956   3.912 -1.3362  1.7519  2.0015
 5250SOL    HW218897   4.248   1.975   3.785  0.1341  1.6530  1.0243
 5251SOL     OW18898   5.291   2.842   5.622 -0.3406  0.3399  0.5641
 5251SOL    HW118899   5.359   2.776   5.620  2.0171  2.5796 -2.4776
 5251SOL    HW218900   5.223   2.810   5.563  1.1657  0.8533 -1.5486
 5252SOL     OW18901   3.341   5.805   6.337  0.5454 -0.0141  0.2085
 5252SOL    HW118902   3.288   5.882   6.315 -0.2036 -0.2014  1.2830
 5252SOL    HW218903   3.281   5.746   6.381 -0.4833 -3.8456 -5.3614
 5253SOL     OW18904   3.212   0.573   1.259  0.0727 -0.2962 -0.0565
 5253SOL    HW118905   3.187   0.640   1.195 -0.7391 -1.1224 -0.6264
 5253SOL    HW218906   3.220   0.493   1.208 -0.5775 -0.9751  0.8714
 5254SOL     OW18907   2.160   3.839   7.318  0.1979 -0.3248 -0.3919
 5254SOL    HW118908   2.247   3.804   7.299 -0.8557 -3.2317 -0.3887
 5254SOL    HW218909   2.107   3.813   7.243 -0.8439  0.8285 -0.0983
 5255SOL     OW18910   5.927   3.627   6.785 -0.1472 -0.4771 -0.6571
 5255SOL    HW118911   5.874   3.700   6.752 -0.3243 -0.3162 -0.0256
 5255SOL    HW218912   5.870   3.582   6.848  0.1140 -0.9064 -0.7203
 5256SOL     OW18913   7.559   3.884   5.141 -0.1891 -0.5898  0.1009
 5256SOL    HW118914   7.577   3.793   5.165  2.7847  0.1135  0.9650
 5256SOL    HW218915   7.550   3.929   5.225  0.8571  0.2849 -0.2277
 5257SOL     OW18916   2.274   4.278   3.098  0.2270 -0.1822  0.3163
 5257SOL    HW118917   2.341   4.229   3.049 -0.7408 -1.9472  0.6720
 5257SOL    HW218918   2.204   4.214   3.113 -1.1878  1.3861  0.6691
 5258SOL     OW18919   1.289   3.033   7.993  0.3432 -0.4662  0.3438
 5258SOL    HW118920   1.217   2.970   8.004 -1.1936  1.3396  1.2710
 5258SOL    HW218921   1.246   3.115   7.966  2.1787  0.4344 -0.0566
 5259SOL     OW18922   4.201   0.371   2.225 -0.1535  0.3903 -0.8336
 5259SOL    HW118923   4.171   0.280   2.237 -2.0177  1.0219 -0.3432
 5259SOL    HW218924   4.279   0.378   2.279 -0.6925 -0.6022  0.1162
 5260SOL     OW18925   6.337   7.599   4.719 -0.5426 -0.3421 -0.7550
 5260SOL    HW118926   6.410   7.618   4.661 -0.5451 -1.6058 -1.2153
 5260SOL    HW218927   6.326   7.678   4.771  2.4071 -0.7564  0.6872
 5261SOL     OW18928   5.472   4.272   0.329 -0.6516  0.4040  0.1825
 5261SOL    HW118929   5.451   4.264   0.422 -0.3547  1.1457  0.3247
 5261SOL    HW218930   5.548   4.216   0.316 -0.6960  0.2975  0.3803
 5262SOL     OW18931   2.395   2.455   5.218  0.4131  0.6721  0.1115
 5262SOL    HW118932   2.338   2.521   5.177  1.2239  0.7965 -0.8405
 5262SOL    HW218933   2.453   2.426   5.148  0.3446 -0.7704  0.6252
 5263SOL     OW18934   7.397   6.015   7.370  0.2896 -0.3160 -0.2582
 5263SOL    HW118935   7.381   6.108   7.352 -0.7771 -0.1403  1.3300
 5263SOL    HW218936   7.319   5.971   7.337  1.6425 -0.9684 -2.8405
 5264SOL     OW18937   6.392   1.900   0.982 -0.5636  0.5363  0.6078
 5264SOL    HW118938   6.421   1.842   1.052 -0.5062  0.9006  0.8887
 5264SOL    HW218939   6.305   1.869   0.959  0.2724 -0.9845 -0.6877
 5265SOL     OW18940   0.512   5.132   4.002 -0.5428  0.6197  0.7464
 5265SOL    HW118941   0.438   5.165   4.053  0.7392  0.9605  2.5145
 5265SOL    HW218942   0.532   5.047   4.042  1.2636  1.4387  1.7384
 5266SOL     OW18943   4.185   6.257   3.158 -0.8399  0.4602 -0.4316
 5266SOL    HW118944   4.163   6.197   3.085  1.2745 -0.0614 -0.6954
 5266SOL    HW218945   4.165   6.206   3.237  2.1775 -1.2458 -0.6245
 5267SOL     OW18946   5.277   1.140   4.696  0.2981 -0.2909 -0.3244
 5267SOL    HW118947   5.315   1.192   4.625 -0.1950 -1.7270 -1.6879
 5267SOL    HW218948   5.189   1.118   4.665  0.5216 -1.9804  0.1809
 5268SOL     OW18949   5.558   0.169   1.067 -0.0657 -0.8684  0.1453
 5268SOL    HW118950   5.495   0.124   1.123 -0.6868 -1.2088 -0.8066
 5268SOL    HW218951   5.642   0.154   1.109 -0.4497 -1.6259  0.6672
 5269SOL     OW18952   6.621   5.019   3.484  0.3037 -0.3044  0.2278
 5269SOL    HW118953   6.714   4.996   3.489  0.5069  0.7059  2.0332
 5269SOL    HW218954   6.610   5.057   3.397  2.0856  1.4497  0.6990
 5270SOL     OW18955   2.921   7.748   0.075 -0.4802 -0.0784 -0.3486
 5270SOL    HW118956   2.919   7.798   0.157  0.5706  0.8240 -0.8449
 5270SOL    HW218957   2.858   7.793   0.019 -0.5724 -0.1767 -0.3242
 5271SOL     OW18958   0.591   4.781   2.684  0.3039 -0.2019  0.1788
 5271SOL    HW118959   0.557   4.776   2.773 -1.2225 -2.2817 -0.4514
 5271SOL    HW218960   0.603   4.690   2.658  0.2675  0.3404 -1.9191
 5272SOL     OW18961   1.255   5.462   3.770  0.2775  0.1374 -0.4812
 5272SOL    HW118962   1.277   5.532   3.707 -1.1825 -0.0914 -1.2980
 5272SOL    HW218963   1.183   5.499   3.821 -0.4660 -0.7227 -0.8833
 5273SOL     OW18964   7.199   3.517   2.197 -0.0581  0.1413  0.0292
 5273SOL    HW118965   7.118   3.564   2.216  0.8469  1.2738  1.2909
 5273SOL    HW218966   7.170   3.430   2.172 -1.6783  0.5897  0.1908
 5274SOL     OW18967   7.598   5.929   7.792 -0.0600 -0.3321  0.2190
 5274SOL    HW118968   7.518   5.926   7.741  0.3510  0.5407 -0.5030
 5274SOL    HW218969   7.576   5.980   7.869  0.2009  1.3006 -0.7509
 5275SOL     OW18970   3.056   6.620   6.701  0.2937 -0.2003  0.1742
 5275SOL    HW118971   3.078   6.659   6.786  1.0081  0.8134 -0.4496
 5275SOL    HW218972   3.041   6.695   6.644 -2.5435 -0.8596 -0.0481
 5276SOL     OW18973   1.881   5.993   1.864  0.6598 -0.2119 -0.0651
 5276SOL    HW118974   1.874   5.935   1.940 -0.4200  0.3641  0.2957
 5276SOL    HW218975   1.791   6.000   1.831  0.9189  0.5509 -0.6353
 5277SOL     OW18976   4.455   5.810   3.394 -0.3818 -0.2864 -0.1585
 5277SOL    HW118977   4.513   5.736   3.409  2.4835  1.1600 -2.9493
 5277SOL    HW218978   4.383   5.774   3.342 -0.9542 -1.7048  1.5302
 5278SOL     OW18979   6.988   7.354   4.523 -0.7816  0.1886  0.0158
 5278SOL    HW118980   6.937   7.386   4.448 -1.1048  0.4093  0.3305
 5278SOL    HW218981   7.079   7.365   4.496 -0.8971  0.1778 -0.3844
 5279SOL     OW18982   3.231   1.759   5.544 -0.8938 -0.4587 -0.0486
 5279SOL    HW118983   3.139   1.760   5.518 -1.1206  2.4476  0.4872
 5279SOL    HW218984   3.280   1.757   5.461 -1.4611 -0.4842 -0.3854
 5280SOL     OW18985   1.106   3.097   2.781 -0.0249  0.6830 -0.0437
 5280SOL    HW118986   1.104   3.192   2.789 -1.0718  0.4866  3.4661
 5280SOL    HW218987   1.189   3.071   2.822 -1.0380 -0.0140  1.6522
 5281SOL     OW18988   1.455   6.047   2.616 -0.0826  0.2584 -0.1590
 5281SOL    HW118989   1.416   6.077   2.534  1.3833 -1.9521 -1.7580
 5281SOL    HW218990   1.550   6.052   2.601  0.2245 -2.0140  0.6194
 5282SOL     OW18991   1.668   6.666   3.878  0.2594  0.8040 -0.4491
 5282SOL    HW118992   1.582   6.624   3.886  0.9691 -0.7158 -0.5323
 5282SOL    HW218993   1.654   6.755   3.911 -1.6648  1.0367 -1.7767
 5283SOL     OW18994   2.196   4.162   5.886  0.0514  0.1821  0.1283
 5283SOL    HW118995   2.135   4.183   5.814 -0.6685 -0.8850  0.4034
 5283SOL    HW218996   2.234   4.078   5.861  0.3239  0.1443  0.6678
 5284SOL     OW18997   5.526   7.849   6.070 -1.0207 -0.2468  0.6765
 5284SOL    HW118998   5.471   7.771   6.077 -0.7046 -0.5643 -0.3528
 5284SOL    HW218999   5.546   7.857   5.977  0.9597 -0.3244  1.0635
 5285SOL     OW19000   0.457   8.076   7.963  0.2295  0.4169  0.6259
 5285SOL    HW119001   0.494   8.151   8.010  0.3281  0.7299  0.0536
 5285SOL    HW219002   0.467   8.098   7.871  0.1894 -0.2687  0.4521
 5286SOL     OW19003   7.008   3.438   4.959  0.8238 -0.4991 -0.3059
 5286SOL    HW119004   6.954   3.399   4.891  0.8657 -2.5787  0.7635
 5286SOL    HW219005   7.094   3.398   4.947  0.9724 -0.4747  0.6161
 5287SOL     OW19006   3.720   7.266   6.437 -0.0737 -0.0407  0.0553
 5287SOL    HW119007   3.814   7.255   6.449 -0.1428  0.0799  0.7515
 5287SOL    HW219008   3.707   7.261   6.342  0.2442 -3.1940  0.0640
 5288SOL     OW19009   6.986   1.770   0.956  0.3049 -0.2933 -0.3586
 5288SOL    HW119010   6.908   1.772   1.011  0.1584  0.6590 -0.5738
 5288SOL    HW219011   6.995   1.679   0.929  1.0459 -1.0376  2.1463
 5289SOL     OW19012   0.226   5.413   7.643 -0.4482  0.3529 -0.0031
 5289SOL    HW119013   0.258   5.433   7.731 -2.2797  0.8507  0.5961
 5289SOL    HW219014   0.165   5.485   7.623 -1.7395 -0.9068 -0.7662
 5290SOL     OW19015   1.888   5.964   7.939 -0.1085 -0.1072  0.1195
 5290SOL    HW119016   1.805   5.979   7.894  0.7959 -0.6721 -1.8337
 5290SOL    HW219017   1.874   6.001   8.026 -1.8859  1.2018 -0.6458
 5291SOL     OW19018   0.137   1.496   5.585 -0.4534 -0.0032  0.1551
 5291SOL    HW119019   0.043   1.483   5.579 -0.1930 -1.3240 -2.1100
 5291SOL    HW219020   0.168   1.495   5.495  1.6200  1.5403  0.7694
 5292SOL     OW19021   1.949   7.089   3.933 -0.3099  0.2633  0.2031
 5292SOL    HW119022   2.010   7.130   3.871 -1.7365  1.4902 -0.4343
 5292SOL    HW219023   1.877   7.151   3.941 -1.7689 -1.3918  0.5132
 5293SOL     OW19024   7.398   0.276   4.315  0.3708 -0.0200 -0.3320
 5293SOL    HW119025   7.476   0.273   4.370  1.6791 -1.6829 -2.1529
 5293SOL    HW219026   7.376   0.185   4.298 -2.2383  0.3749  0.4071
 5294SOL     OW19027   0.518   2.809   3.838  0.4262 -0.2008  0.1539
 5294SOL    HW119028   0.589   2.871   3.821  0.0464 -0.1271 -1.3062
 5294SOL    HW219029   0.549   2.726   3.803  0.2871 -0.4660  0.6479
 5295SOL     OW19030   4.736   5.397   2.991 -0.2086  0.5686  0.2465
 5295SOL    HW119031   4.773   5.382   3.077 -0.6202 -0.3065  0.2922
 5295SOL    HW219032   4.648   5.430   3.008 -0.8298 -0.9502  0.2186
 5296SOL     OW19033   3.701   2.029   7.861  0.0177 -0.2555 -0.3726
 5296SOL    HW119034   3.733   2.087   7.792 -0.1718 -0.9083 -1.0259
 5296SOL    HW219035   3.778   2.010   7.915  0.6127 -1.2765 -1.5375
 5297SOL     OW19036   0.781   5.918   0.765  0.1149  0.1651 -0.0510
 5297SOL    HW119037   0.840   5.993   0.773 -0.9525  1.1114 -0.5332
 5297SOL    HW219038   0.732   5.918   0.848 -3.1586  3.0294 -1.6814
 5298SOL     OW19039   2.883   5.813   0.016  0.5056 -0.0562  0.5768
 5298SOL    HW119040   2.946   5.854  -0.044  0.0378  0.5570  0.4944
 5298SOL    HW219041   2.925   5.732   0.043  0.4978 -0.6445 -1.0463
 5299SOL     OW19042   1.720   4.708   1.214  0.0695  0.4403  0.1766
 5299SOL    HW119043   1.631   4.710   1.250  0.2261  1.9531  0.5430
 5299SOL    HW219044   1.725   4.624   1.168 -1.5736  0.3551  0.0823
 5300SOL     OW19045   5.785   3.374   6.919  0.3116  0.6121  0.5331
 5300SOL    HW119046   5.838   3.323   6.857  0.7707 -0.1534  1.5390
 5300SOL    HW219047   5.697   3.372   6.881  1.2636  3.7261 -2.3333
 5301SOL     OW19048   5.895   1.070   1.693  0.2355  0.3600  0.4181
 5301SOL    HW119049   5.982   1.041   1.719  0.4491  1.1914  0.6564
 5301SOL    HW219050   5.887   1.158   1.730 -0.8927  0.1009  0.8305
 5302SOL     OW19051   3.266   0.991   4.503 -0.5409  0.2527  0.3133
 5302SOL    HW119052   3.215   0.982   4.422 -0.4218 -0.4634  0.3160
 5302SOL    HW219053   3.274   0.902   4.536 -0.9617  0.5943  1.3512
 5303SOL     OW19054   4.697   2.599   4.740 -0.0322 -0.1962  0.3086
 5303SOL    HW119055   4.752   2.649   4.801  1.3293  1.1079 -1.8507
 5303SOL    HW219056   4.709   2.642   4.656 -0.4886 -2.8974 -1.2784
 5304SOL     OW19057   3.296   3.223   3.570  0.1165  0.4176  0.2031
 5304SOL    HW119058   3.228   3.228   3.638 -0.7425 -0.5764 -0.5456
 5304SOL    HW219059   3.330   3.133   3.577 -0.4918  0.0589 -1.1254
 5305SOL     OW19060   0.264   2.306   7.222 -0.4220  0.2363  0.1832
 5305SOL    HW119061   0.357   2.313   7.199 -0.8847  0.3760 -1.7935
 5305SOL    HW219062   0.225   2.256   7.150 -1.9304  0.3627  0.8723
 5306SOL     OW19063   6.455   7.388   4.261  0.0332 -0.0526 -0.0123
 5306SOL    HW119064   6.533   7.408   4.209 -0.0027 -0.1130 -0.0899
 5306SOL    HW219065   6.489   7.371   4.349  0.1115 -0.1035 -0.0513
 5307SOL     OW19066   1.517   4.395   1.942  0.1599 -0.2656 -0.4452
 5307SOL    HW119067   1.564   4.435   1.869 -1.2836  1.4864 -0.4899
 5307SOL    HW219068   1.466   4.325   1.901  0.2117 -0.0253 -0.9314
 5308SOL     OW19069   3.498   3.516   4.907  0.0133 -0.7198  0.2394
 5308SOL    HW119070   3.568   3.457   4.935  1.3089  0.4750 -0.3745
 5308SOL    HW219071   3.422   3.459   4.896  1.6158 -2.6216 -1.9938
 5309SOL     OW19072   3.003   3.907   6.264  0.1184  0.4231  0.6797
 5309SOL    HW119073   2.942   3.877   6.197  0.2398 -0.2338  0.8582
 5309SOL    HW219074   3.018   3.830   6.320 -0.3511  1.0804  1.7455
 5310SOL     OW19075   4.515   2.136   6.967  0.6948 -0.1538 -0.1725
 5310SOL    HW119076   4.549   2.047   6.976 -0.5440 -0.5434  1.0403
 5310SOL    HW219077   4.501   2.148   6.873  1.7540 -0.8773 -0.4354
 5311SOL     OW19078   2.947   4.407   3.926 -0.1307 -0.2445  0.1498
 5311SOL    HW119079   3.014   4.410   3.858 -0.8551 -2.1228 -0.7049
 5311SOL    HW219080   2.924   4.499   3.941  0.1349  0.2217 -2.0609
 5312SOL     OW19081   2.096   6.654   3.209 -0.0991 -0.0445  0.3292
 5312SOL    HW119082   2.149   6.734   3.213 -0.3375  0.1083  0.5229
 5312SOL    HW219083   2.054   6.649   3.296 -2.2911  1.1571 -0.5649
 5313SOL     OW19084   4.502   1.152   0.271  0.1154  0.2462 -0.0719
 5313SOL    HW119085   4.505   1.100   0.191  1.3176 -0.7335  0.5858
 5313SOL    HW219086   4.467   1.092   0.337 -0.2676  0.8537  0.2908
 5314SOL     OW19087   6.051   1.630   5.896  0.3773 -0.6458 -0.2851
 5314SOL    HW119088   6.109   1.701   5.868 -0.5884 -0.2759 -1.4582
 5314SOL    HW219089   6.108   1.553   5.900  1.5404  0.2485  1.4602
 5315SOL     OW19090   3.653   2.320   5.113 -0.3648 -0.4527 -0.0419
 5315SOL    HW119091   3.599   2.312   5.034 -3.0657  0.9071  1.5258
 5315SOL    HW219092   3.679   2.412   5.114  0.8878 -0.7934 -0.0489
 5316SOL     OW19093   1.237   7.806   3.335  0.2917  0.4520 -0.3613
 5316SOL    HW119094   1.156   7.798   3.386  0.5069 -0.9342 -0.2145
 5316SOL    HW219095   1.268   7.895   3.353 -1.6543  1.3403 -1.1334
 5317SOL     OW19096   0.380   6.517   7.154  0.0493  0.1840  0.7671
 5317SOL    HW119097   0.355   6.429   7.124  0.4532  0.6449 -1.0003
 5317SOL    HW219098   0.299   6.555   7.187 -0.9959  0.4709 -1.8987
 5318SOL     OW19099   2.151   3.613   0.113  0.0256 -0.0810 -0.9068
 5318SOL    HW119100   2.122   3.528   0.082  0.3802  0.0144 -1.5230
 5318SOL    HW219101   2.121   3.675   0.047  0.2661  0.2033 -0.7575
 5319SOL     OW19102   1.164   7.722   7.677 -0.2253  0.2557  0.9931
 5319SOL    HW119103   1.179   7.814   7.654  1.0521  0.3424  2.0354
 5319SOL    HW219104   1.192   7.715   7.768 -1.8531 -0.8278  1.4513
 5320SOL     OW19105   1.474   2.845   6.753  0.4009 -0.4421 -0.8264
 5320SOL    HW119106   1.422   2.771   6.785  0.0275  0.0411 -0.2917
 5320SOL    HW219107   1.523   2.875   6.829 -0.9419  1.0906 -0.5130
 5321SOL     OW19108   1.185   4.569   4.132  0.1838  0.0047  0.5460
 5321SOL    HW119109   1.107   4.521   4.105 -0.6728  1.6171  0.0491
 5321SOL    HW219110   1.255   4.535   4.076 -0.6134  0.0366 -0.5003
 5322SOL     OW19111   2.424   2.530   2.014 -0.1153 -0.0473  0.3854
 5322SOL    HW119112   2.503   2.584   2.016 -0.5432  0.5697  1.1543
 5322SOL    HW219113   2.454   2.445   1.982  0.8854  0.1375  0.7911
 5323SOL     OW19114   0.152   6.110   4.549 -0.3449 -0.0651  0.3352
 5323SOL    HW119115   0.097   6.041   4.585 -0.7196 -0.3229 -0.7066
 5323SOL    HW219116   0.207   6.065   4.484 -0.3737  0.5473 -0.1212
 5324SOL     OW19117   2.334   4.476   6.645 -0.2880  0.2421 -0.1768
 5324SOL    HW119118   2.388   4.447   6.719  0.0948  1.1935 -0.0690
 5324SOL    HW219119   2.361   4.421   6.572 -0.5397 -0.5838  0.3435
 5325SOL     OW19120   0.304   3.529   5.761  0.4517  0.3104 -0.0456
 5325SOL    HW119121   0.236   3.503   5.824  2.9659 -0.4788  2.5426
 5325SOL    HW219122   0.285   3.477   5.683 -2.0684  0.3795  0.4137
 5326SOL     OW19123   5.090   1.409   8.032  0.2461  0.4322  0.1327
 5326SOL    HW119124   5.079   1.409   7.937 -0.2758  0.9314  0.1881
 5326SOL    HW219125   5.112   1.319   8.054 -3.0594 -0.5563 -0.0901
 5327SOL     OW19126   4.676   2.738   2.162 -0.1436 -0.1729 -0.1089
 5327SOL    HW119127   4.766   2.717   2.139 -0.0755 -3.6332  2.4617
 5327SOL    HW219128   4.684   2.807   2.228  0.5189  0.2172 -0.5834
 5328SOL     OW19129   1.046   5.378   2.052 -0.2388  0.3605  0.6411
 5328SOL    HW119130   0.975   5.371   2.116 -1.0666 -0.4280 -0.3244
 5328SOL    HW219131   1.076   5.288   2.040 -0.1376  0.4887 -0.1232
 5329SOL     OW19132   3.421   5.540   6.538 -0.1145 -0.5668  0.2709
 5329SOL    HW119133   3.400   5.543   6.632  1.3804  1.1922  0.6061
 5329SOL    HW219134   3.336   5.549   6.494 -0.6641  0.7372  1.4998
 5330SOL     OW19135   4.002   2.371   1.090 -0.1393  0.6794 -0.5515
 5330SOL    HW119136   4.030   2.432   1.158  0.9116  0.2001 -0.5334
 5330SOL    HW219137   4.064   2.384   1.018  0.3271 -0.5887 -0.4089
 5331SOL     OW19138   4.909   0.226   0.928  0.1342 -1.1872  0.4274
 5331SOL    HW119139   4.997   0.258   0.950 -0.4780  0.2586  0.8632
 5331SOL    HW219140   4.897   0.150   0.984  0.7472 -0.8278  1.0657
 5332SOL     OW19141   7.583   5.039   1.855 -0.2576 -0.3800  0.0028
 5332SOL    HW119142   7.489   5.037   1.871 -0.4145  0.3799 -0.7234
 5332SOL    HW219143   7.616   5.104   1.918 -0.4164  0.2758 -0.5693
 5333SOL     OW19144   0.647   1.902   4.634  0.3353  0.0070  0.8763
 5333SOL    HW119145   0.648   1.892   4.539 -0.4139 -0.4311  0.9025
 5333SOL    HW219146   0.619   1.993   4.648  0.8176  0.1868  0.6766
 5334SOL     OW19147   6.129   0.194   7.199  0.0299  0.5753 -0.1016
 5334SOL    HW119148   6.121   0.100   7.217 -0.3318  0.5996 -0.1279
 5334SOL    HW219149   6.218   0.216   7.228  0.9852 -0.2482 -2.2031
 5335SOL     OW19150   2.440   6.461   1.423  0.5013  0.5928  0.2533
 5335SOL    HW119151   2.350   6.454   1.390 -0.4351  3.5116  1.8402
 5335SOL    HW219152   2.449   6.387   1.483 -0.9078  0.3534  0.2156
 5336SOL     OW19153   4.238   3.733   2.118  0.0398 -0.4844 -0.3285
 5336SOL    HW119154   4.211   3.822   2.142  2.8664 -0.3288  2.9172
 5336SOL    HW219155   4.326   3.743   2.084  0.7020 -2.0702  0.7950
 5337SOL     OW19156   1.825   6.275   3.567 -0.2094 -0.3964 -0.1236
 5337SOL    HW119157   1.775   6.206   3.525 -3.1433  1.4234  0.1166
 5337SOL    HW219158   1.831   6.247   3.659 -1.1431 -0.4781 -0.0795
 5338SOL     OW19159   1.916   6.245   6.750  0.4869  0.1641 -0.0017
 5338SOL    HW119160   1.932   6.241   6.656  1.0088  0.8550  0.0527
 5338SOL    HW219161   1.954   6.328   6.778 -0.6416  0.4872  0.6342
 5339SOL     OW19162   5.595   1.657   2.789  0.2265 -0.4728 -0.2669
 5339SOL    HW119163   5.512   1.629   2.751 -0.0171 -0.6569  0.3982
 5339SOL    HW219164   5.592   1.627   2.880  0.2016  1.1766  0.3116
 5340SOL     OW19165   4.906   0.657   5.129 -0.6254  0.1258 -0.2973
 5340SOL    HW119166   4.904   0.752   5.123 -0.8413  0.0930 -0.7511
 5340SOL    HW219167   4.998   0.634   5.110 -0.6276  0.2269 -0.4319
 5341SOL     OW19168   5.119   5.594   4.969  0.6882  0.4826  0.1716
 5341SOL    HW119169   5.208   5.572   4.943 -0.5886 -2.5300 -2.3021
 5341SOL    HW219170   5.105   5.545   5.050  0.3312 -1.8271 -1.2106
 5342SOL     OW19171   4.878   4.810   2.492 -0.3080 -0.6486  0.8245
 5342SOL    HW119172   4.861   4.821   2.398 -0.1498  1.3314  0.9946
 5342SOL    HW219173   4.973   4.820   2.500 -0.5546  1.6927  1.4480
 5343SOL     OW19174   1.079   7.203   7.701 -0.5166  0.0091 -0.1403
 5343SOL    HW119175   1.041   7.283   7.737 -0.5458 -0.5080  1.0014
 5343SOL    HW219176   1.058   7.135   7.765  0.0485 -0.8014 -0.7892
 5344SOL     OW19177   7.400   4.093   4.293  0.6962  0.2316  0.1464
 5344SOL    HW119178   7.444   4.164   4.338 -0.2825 -0.0665  1.6344
 5344SOL    HW219179   7.308   4.100   4.319  0.1910 -0.3250 -1.3407
 5345SOL     OW19180   1.602   4.449   3.155 -0.1276 -0.0717 -0.5270
 5345SOL    HW119181   1.631   4.498   3.232  0.0652 -0.3975 -0.3929
 5345SOL    HW219182   1.645   4.492   3.081 -1.8090  1.4910 -0.6923
 5346SOL     OW19183   3.579   7.785   2.366 -0.3152  0.1096 -0.0201
 5346SOL    HW119184   3.517   7.857   2.380  0.1226  0.5511 -0.2985
 5346SOL    HW219185   3.572   7.765   2.273 -0.2038  0.0059 -0.0063
 5347SOL     OW19186   1.736   0.195   0.442  0.0350  0.2789  0.0037
 5347SOL    HW119187   1.697   0.111   0.417  0.5890 -0.0262  0.1412
 5347SOL    HW219188   1.830   0.181   0.432  0.1045  1.0750 -0.5628
 5348SOL     OW19189   2.087   5.290   0.241  0.8073 -0.1465 -0.2634
 5348SOL    HW119190   2.080   5.381   0.213  0.2763  0.1927  0.9141
 5348SOL    HW219191   2.000   5.254   0.226  0.2345  0.2989  1.7369
 5349SOL     OW19192   0.794   4.489   7.556 -0.7762  0.1762  0.4215
 5349SOL    HW119193   0.812   4.503   7.649 -0.0311 -1.0809  0.4900
 5349SOL    HW219194   0.729   4.417   7.554 -2.3594  1.5497  0.0133
 5350SOL     OW19195   2.411   7.139   1.371  0.2765 -0.1223  0.2912
 5350SOL    HW119196   2.385   7.164   1.283  0.5698 -0.2267  0.1713
 5350SOL    HW219197   2.443   7.049   1.361  1.7081  0.3602  0.2147
 5351SOL     OW19198   3.168   1.347   3.414 -0.1428 -0.2125  0.5450
 5351SOL    HW119199   3.209   1.429   3.444 -1.1691  0.3862  0.3447
 5351SOL    HW219200   3.211   1.279   3.466 -0.6493  0.6364  2.1397
 5352SOL     OW19201   3.070   3.736   7.507 -0.5932  0.0044  0.5533
 5352SOL    HW119202   2.985   3.692   7.512 -0.7373  0.0164 -1.1428
 5352SOL    HW219203   3.052   3.818   7.460  0.1261  0.6858  1.4254
 5353SOL     OW19204   4.018   1.729   3.910  0.0441 -0.7039 -0.0208
 5353SOL    HW119205   4.089   1.709   3.972 -0.7400 -0.7373  0.8916
 5353SOL    HW219206   4.045   1.812   3.870  0.8305 -0.9637 -0.0444
 5354SOL     OW19207   5.103   1.121   3.499  0.2573 -0.0775  0.1404
 5354SOL    HW119208   5.109   1.111   3.594 -1.1146  0.1741  0.2720
 5354SOL    HW219209   5.068   1.209   3.486  1.3807  0.2796 -0.6475
 5355SOL     OW19210   7.084   4.487   3.134  0.7141 -0.6359 -0.4503
 5355SOL    HW119211   7.037   4.445   3.062 -3.2296  2.9734 -0.3812
 5355SOL    HW219212   7.063   4.580   3.126  2.9133  0.4443  3.4164
 5356SOL     OW19213   6.476   5.260   6.793  0.1423  0.0266 -0.5907
 5356SOL    HW119214   6.396   5.312   6.794 -0.2398 -0.5507 -0.7272
 5356SOL    HW219215   6.502   5.253   6.885 -1.4066 -1.9673 -0.2469
 5357SOL     OW19216   5.525   4.575   6.071 -0.0152  0.4107  0.1290
 5357SOL    HW119217   5.450   4.551   6.126  0.4365 -1.0541  0.1363
 5357SOL    HW219218   5.531   4.506   6.006  0.4662  1.2690 -0.7650
 5358SOL     OW19219   6.659   7.920   0.598 -0.0101  0.1942  0.2370
 5358SOL    HW119220   6.738   7.886   0.641  0.4710  0.2727 -0.5672
 5358SOL    HW219221   6.591   7.854   0.618  0.0788  0.4420  1.4637
 5359SOL     OW19222   1.305   2.372   2.902  0.7235 -0.2272  0.1267
 5359SOL    HW119223   1.344   2.286   2.918  1.7494  0.5134  1.8365
 5359SOL    HW219224   1.290   2.374   2.808 -0.1910 -2.6304  0.1385
 5360SOL     OW19225   1.062   0.040   1.494 -0.0867  0.1106 -0.2955
 5360SOL    HW119226   0.998  -0.006   1.439 -0.8707 -1.3241  1.6991
 5360SOL    HW219227   1.023   0.039   1.581  1.2253  2.0978  0.3770
 5361SOL     OW19228   1.043   7.925   4.340  0.0770  0.2609  0.1175
 5361SOL    HW119229   1.102   7.910   4.414 -0.1733 -0.9960  0.0916
 5361SOL    HW219230   1.066   8.012   4.308  0.6599  0.5378  1.2419
 5362SOL     OW19231   3.275   0.643   7.120 -0.4991 -0.0477 -0.1482
 5362SOL    HW119232   3.340   0.707   7.092  0.9483 -1.2132  0.3988
 5362SOL    HW219233   3.191   0.688   7.111  0.3233  1.3178 -1.4180
 5363SOL     OW19234   3.501   1.717   5.343 -0.3211  0.1793  0.3563
 5363SOL    HW119235   3.420   1.721   5.291  1.0707  0.6928 -1.8935
 5363SOL    HW219236   3.531   1.627   5.333 -1.0087 -0.2557  1.9109
 5364SOL     OW19237   2.225   3.263   1.525 -0.6446  0.5482  0.1323
 5364SOL    HW119238   2.256   3.287   1.437 -1.0034 -1.5771 -0.6266
 5364SOL    HW219239   2.133   3.239   1.512 -0.8243  0.6465  1.1850
 5365SOL     OW19240   1.609   1.440   5.990 -0.5850 -0.5718  0.5470
 5365SOL    HW119241   1.704   1.431   5.984 -0.6656 -0.4457 -1.6377
 5365SOL    HW219242   1.576   1.370   5.933 -1.6989  1.0709 -0.9162
 5366SOL     OW19243   0.568   7.129   1.328  0.0514 -0.3736 -0.3543
 5366SOL    HW119244   0.572   7.225   1.324  0.9878 -0.4284 -0.9309
 5366SOL    HW219245   0.476   7.109   1.310  0.1595  0.3646 -1.9486
 5367SOL     OW19246   3.685   1.593   0.445 -0.3136 -0.0258  0.2601
 5367SOL    HW119247   3.706   1.517   0.392 -0.1930  1.0591 -1.3260
 5367SOL    HW219248   3.604   1.628   0.406  1.0531  2.1675 -0.8413
 5368SOL     OW19249   0.945   1.187   2.144 -0.3820  0.5466  0.2000
 5368SOL    HW119250   0.900   1.149   2.220 -1.1288  0.3838 -0.3165
 5368SOL    HW219251   1.015   1.126   2.125 -0.5164  0.3173  0.4349
 5369SOL     OW19252   0.407   4.838   4.532 -0.0250  0.1545  0.3375
 5369SOL    HW119253   0.418   4.813   4.624 -3.4621 -1.0138  0.5838
 5369SOL    HW219254   0.351   4.770   4.495  1.3457  0.5315 -2.7221
 5370SOL     OW19255   5.247   1.996   3.247 -0.3258  0.2584  0.4765
 5370SOL    HW119256   5.183   1.950   3.193 -1.2183  1.9896 -0.0251
 5370SOL    HW219257   5.224   1.972   3.337 -1.0506  0.0589  0.2453
 5371SOL     OW19258   2.772   6.660   6.816 -0.0725 -0.0567 -0.3989
 5371SOL    HW119259   2.688   6.699   6.790  0.1676 -0.0010 -1.0961
 5371SOL    HW219260   2.825   6.660   6.737  0.1124 -1.3372 -0.3034
 5372SOL     OW19261   5.747   0.087   4.825 -0.1794  0.3765 -0.2812
 5372SOL    HW119262   5.818   0.037   4.866  0.7555  1.8928  0.0455
 5372SOL    HW219263   5.730   0.159   4.886 -1.8397  0.1887 -0.4871
 5373SOL     OW19264   2.279   1.095   2.511 -0.2300 -0.2977 -0.1963
 5373SOL    HW119265   2.201   1.126   2.557 -0.1900 -0.3519 -0.0917
 5373SOL    HW219266   2.352   1.135   2.559 -0.2050 -0.0106 -0.4700
 5374SOL     OW19267   4.246   0.972   4.493 -0.2656 -0.0713 -0.1279
 5374SOL    HW119268   4.169   0.917   4.485 -1.4267  1.0487  2.2263
 5374SOL    HW219269   4.219   1.057   4.459 -0.0303  0.2622  0.4878
 5375SOL     OW19270   6.024   6.807   7.569 -0.0936 -0.0929  0.7497
 5375SOL    HW119271   6.037   6.715   7.595  0.3617 -0.5392 -0.9119
 5375SOL    HW219272   5.937   6.829   7.600 -0.9319 -1.6756 -0.3463
 5376SOL     OW19273   6.621   4.457   5.527 -0.2171 -0.5879  0.2830
 5376SOL    HW119274   6.673   4.474   5.605  0.9751 -0.0047 -0.6024
 5376SOL    HW219275   6.657   4.375   5.491 -0.8093 -0.8964  0.3721
 5377SOL     OW19276   4.180   7.965   1.305 -0.1228 -0.3668 -0.3638
 5377SOL    HW119277   4.178   8.042   1.248  0.1412  0.2730  0.4753
 5377SOL    HW219278   4.148   7.996   1.389 -0.4678 -1.2918 -0.1366
 5378SOL     OW19279   2.198   0.349   2.098  0.5713 -0.3440  0.6012
 5378SOL    HW119280   2.214   0.255   2.107 -0.4542 -0.5902  0.0076
 5378SOL    HW219281   2.103   0.356   2.094  0.6494  0.7142  0.4927
 5379SOL     OW19282   6.481   0.326   1.019 -0.0773 -0.0803 -0.0251
 5379SOL    HW119283   6.573   0.321   0.992  0.0398 -2.0717  0.5945
 5379SOL    HW219284   6.482   0.384   1.095  0.6582 -0.0039 -0.0787
 5380SOL     OW19285   1.410   4.434   4.985  0.0706  0.6320  0.5537
 5380SOL    HW119286   1.443   4.371   4.922 -0.3084  0.3979  0.5834
 5380SOL    HW219287   1.488   4.476   5.021  0.3003  0.5635  0.1418
 5381SOL     OW19288   4.199   2.333   6.509 -0.1521 -0.2035 -0.1414
 5381SOL    HW119289   4.198   2.314   6.603 -2.3302 -0.2329 -0.1170
 5381SOL    HW219290   4.236   2.421   6.503 -0.5421  0.0481  0.8287
 5382SOL     OW19291   7.984   6.960   4.811  0.2805 -0.2501 -0.0279
 5382SOL    HW119292   8.032   6.879   4.793  0.7988  0.0168  0.1351
 5382SOL    HW219293   8.002   6.978   4.904 -0.0512 -0.0906  0.0078
 5383SOL     OW19294   1.934   3.659   1.975  0.1721  0.2172  0.2252
 5383SOL    HW119295   1.912   3.669   2.067 -1.6243 -1.2485  0.0239
 5383SOL    HW219296   1.849   3.659   1.930  1.0270  1.4108 -1.5095
 5384SOL     OW19297   7.649   7.918   5.973 -0.1521  0.0737  0.3142
 5384SOL    HW119298   7.619   7.912   5.882  0.0113 -2.5401  0.3639
 5384SOL    HW219299   7.571   7.903   6.025  0.2396 -1.3877  0.5232
 5385SOL     OW19300   7.441   7.924   0.301  0.0036 -0.1262  0.4336
 5385SOL    HW119301   7.365   7.936   0.358  1.2821 -0.4251  2.2828
 5385SOL    HW219302   7.455   8.010   0.261 -0.2595  0.4056  1.4582
 5386SOL     OW19303   1.286   4.730   0.243 -0.2769 -0.3896 -0.7515
 5386SOL    HW119304   1.318   4.646   0.210  0.1846 -0.0795 -1.1050
 5386SOL    HW219305   1.192   4.719   0.250 -0.1195 -1.2983  0.2321
 5387SOL     OW19306   6.855   0.738   3.216  0.0655 -0.1590 -0.4313
 5387SOL    HW119307   6.766   0.701   3.218  0.3131 -0.8588  2.7550
 5387SOL    HW219308   6.912   0.662   3.225  1.0944  0.2639 -2.6880
 5388SOL     OW19309   0.092   5.874   2.202  0.0765 -0.3575  0.0531
 5388SOL    HW119310   0.179   5.899   2.171 -0.8365 -0.3400 -2.7647
 5388SOL    HW219311   0.104   5.787   2.240  1.3585 -0.2192  0.0106
 5389SOL     OW19312   5.398   6.166   0.184  0.0014 -0.0736 -0.4121
 5389SOL    HW119313   5.449   6.101   0.232  0.0783  2.6987  3.8114
 5389SOL    HW219314   5.461   6.208   0.125  0.9524 -0.9511 -0.0493
 5390SOL     OW19315   4.590   7.007   2.778 -0.1457  0.3871 -0.0127
 5390SOL    HW119316   4.528   7.060   2.729  0.9932 -0.1896 -2.2133
 5390SOL    HW219317   4.621   6.942   2.715  2.0195  0.1071  1.2383
 5391SOL     OW19318   4.439   6.975   0.678  0.1050 -0.1679 -0.3519
 5391SOL    HW119319   4.442   6.894   0.729 -1.4690 -0.4043 -0.5766
 5391SOL    HW219320   4.454   7.044   0.742  0.3211 -0.5817  0.0481
 5392SOL     OW19321   4.086   0.802   2.022  0.4767 -0.4283 -0.1465
 5392SOL    HW119322   4.075   0.736   2.090 -0.1182 -0.6986 -0.5012
 5392SOL    HW219323   4.004   0.801   1.974  1.5158 -1.5011 -2.0049
 5393SOL     OW19324   3.975   6.551   1.229  0.1314  0.0546 -0.2223
 5393SOL    HW119325   4.059   6.524   1.266 -0.0540 -1.4252 -0.8229
 5393SOL    HW219326   3.918   6.564   1.305  0.9959  1.5471  0.2225
 5394SOL     OW19327   3.537   2.639   6.639  0.2555  0.4833 -0.1142
 5394SOL    HW119328   3.533   2.560   6.694  0.5552  0.6492  0.1465
 5394SOL    HW219329   3.467   2.695   6.673  0.8846  0.8761  0.5550
 5395SOL     OW19330   0.807   1.903   3.467  0.7288  0.0335 -0.1220
 5395SOL    HW119331   0.902   1.912   3.456  1.2580 -1.0151  2.6644
 5395SOL    HW219332   0.797   1.828   3.526 -1.9388 -0.6761 -1.3228
 5396SOL     OW19333   0.557   7.660   3.664 -0.1459 -0.3651  0.1071
 5396SOL    HW119334   0.634   7.674   3.609  1.0625 -0.7112  1.6589
 5396SOL    HW219335   0.541   7.566   3.661  1.4615 -0.7817  2.2413
 5397SOL     OW19336   3.844   0.066   0.188  0.3364 -0.5834  0.1630
 5397SOL    HW119337   3.896   0.040   0.112  0.7067 -1.1852  0.6181
 5397SOL    HW219338   3.902   0.054   0.263 -0.2196 -0.5609  0.6069
 5398SOL     OW19339   2.812   3.968   3.617  0.2835  0.3663 -0.6086
 5398SOL    HW119340   2.760   4.003   3.689  0.9998  0.1080  0.0520
 5398SOL    HW219341   2.749   3.951   3.547 -0.3251  1.2707 -0.2971
 5399SOL     OW19342   5.689   4.804   3.333 -0.1193  0.3806  0.2837
 5399SOL    HW119343   5.659   4.824   3.422  1.8647  2.4759  0.5897
 5399SOL    HW219344   5.762   4.865   3.319  0.5963 -0.9452 -2.2336
 5400SOL     OW19345   3.308   4.205   6.837 -0.5155  0.4308 -0.0648
 5400SOL    HW119346   3.328   4.285   6.788  0.8071 -0.3854 -0.9130
 5400SOL    HW219347   3.307   4.233   6.928 -0.5022  1.4977 -0.3750
 5401SOL     OW19348   1.236   5.105   3.450  0.7232 -0.6236 -0.5968
 5401SOL    HW119349   1.200   5.189   3.477  2.8634  0.5461 -1.1489
 5401SOL    HW219350   1.219   5.100   3.356  2.9995  0.5436 -1.1255
 5402SOL     OW19351   7.114   4.850   0.145  0.3289 -0.3862 -0.8322
 5402SOL    HW119352   7.150   4.938   0.138 -1.7509  0.5210 -0.9250
 5402SOL    HW219353   7.184   4.798   0.185  1.4286  1.4193 -0.3107
 5403SOL     OW19354   4.917   4.273   7.583  0.2517 -0.1556  0.1132
 5403SOL    HW119355   4.895   4.348   7.639  2.1294 -0.0732  0.8275
 5403SOL    HW219356   4.833   4.241   7.551 -0.8128  0.4763  2.1125
 5404SOL     OW19357   7.093   5.841   5.435 -0.0703 -0.1995 -0.3068
 5404SOL    HW119358   7.160   5.801   5.379 -1.4171  0.2130 -2.3409
 5404SOL    HW219359   7.038   5.767   5.462 -0.3042 -0.2222 -0.8289
 5405SOL     OW19360   0.470   1.538   2.513 -0.6866  0.0764 -0.4873
 5405SOL    HW119361   0.439   1.455   2.477 -0.4430 -1.8903  3.3150
 5405SOL    HW219362   0.394   1.574   2.559 -0.7369  1.9972 -1.9219
 5406SOL     OW19363   5.853   6.456   3.389  0.3943  0.0458  0.3669
 5406SOL    HW119364   5.782   6.510   3.423 -0.2958  0.2273 -1.2678
 5406SOL    HW219365   5.926   6.517   3.377  0.1376  0.2960  0.0625
 5407SOL     OW19366   2.013   1.635   6.585  0.0577  0.3451  0.5327
 5407SOL    HW119367   1.920   1.619   6.601 -0.4135 -0.0452 -2.1070
 5407SOL    HW219368   2.028   1.723   6.619 -1.3900  0.5553  0.7024
 5408SOL     OW19369   2.940   7.366   4.442  0.1547 -0.1019 -0.1816
 5408SOL    HW119370   2.963   7.356   4.535  0.8020  0.3423 -0.2884
 5408SOL    HW219371   2.905   7.281   4.417  1.5188 -0.7518  0.0399
 5409SOL     OW19372   3.581   1.800   6.535 -0.3705 -0.2843  0.4122
 5409SOL    HW119373   3.618   1.874   6.487 -1.0786  0.7587  1.4131
 5409SOL    HW219374   3.504   1.774   6.484 -0.9745  0.6545  0.8044
 5410SOL     OW19375   2.133   1.005   7.615  0.3343 -0.0504  0.5038
 5410SOL    HW119376   2.106   1.086   7.573  1.3883  0.5536  0.9606
 5410SOL    HW219377   2.228   1.002   7.604  0.6005 -0.0892  2.4218
 5411SOL     OW19378   4.932   5.900   6.512 -0.3289  0.5327  0.1494
 5411SOL    HW119379   4.922   5.831   6.577  1.3135 -0.6455 -0.7945
 5411SOL    HW219380   4.847   5.944   6.511 -1.6174 -1.8019  0.4068
 5412SOL     OW19381   5.285   4.486   3.331  0.0933 -0.7302 -0.1208
 5412SOL    HW119382   5.258   4.395   3.338  1.7517 -1.2555 -0.1631
 5412SOL    HW219383   5.343   4.489   3.255 -1.2000  0.7141 -1.1206
 5413SOL     OW19384   4.328   6.131   7.009  0.6444  0.5296  0.0672
 5413SOL    HW119385   4.280   6.154   6.929  0.1174  0.5639  0.3856
 5413SOL    HW219386   4.410   6.093   6.977  0.3424  0.3284 -0.4966
 5414SOL     OW19387   6.406   3.854   3.872  0.0293  0.2213  0.2555
 5414SOL    HW119388   6.500   3.841   3.857  0.0161  0.9366 -0.4717
 5414SOL    HW219389   6.394   3.834   3.965  0.4235 -2.5330 -0.1936
 5415SOL     OW19390   4.464   2.922   6.251 -0.1425  0.3892  0.5952
 5415SOL    HW119391   4.516   2.849   6.284 -0.5301 -0.7006 -1.0917
 5415SOL    HW219392   4.394   2.932   6.315 -0.7874 -1.5537  0.2596
 5416SOL     OW19393   7.536   6.908   6.730 -0.5786  0.3999  0.5611
 5416SOL    HW119394   7.618   6.954   6.745 -0.1162  0.7008 -2.2214
 5416SOL    HW219395   7.538   6.835   6.792  2.4719 -0.3736 -0.2516
 5417SOL     OW19396   6.870   2.382   3.896  0.3280  0.3656 -0.1734
 5417SOL    HW119397   6.820   2.325   3.838  2.4554 -2.2070  0.3171
 5417SOL    HW219398   6.886   2.461   3.845  0.6069 -1.0877 -2.4442
 5418SOL     OW19399   4.482   0.514   3.684 -0.2926  0.3007  0.5488
 5418SOL    HW119400   4.491   0.597   3.731 -0.8860  1.0495 -0.6089
 5418SOL    HW219401   4.422   0.534   3.612  0.1054 -0.9607 -0.1556
 5419SOL     OW19402   6.962   4.190   1.336 -0.0359  0.2031 -0.0130
 5419SOL    HW119403   7.014   4.232   1.405 -0.7849  0.0020  0.6803
 5419SOL    HW219404   6.899   4.257   1.309 -1.0130 -0.3341  0.8623
 5420SOL     OW19405   0.439   3.635   1.267  0.5031  0.1205 -0.2434
 5420SOL    HW119406   0.352   3.662   1.296  1.1625  1.0934  0.9214
 5420SOL    HW219407   0.435   3.539   1.266 -0.4954  0.1446  0.0599
 5421SOL     OW19408   7.972   1.782   2.275  0.1580 -0.1305  1.0750
 5421SOL    HW119409   8.033   1.833   2.329  0.9407 -0.8242  0.8658
 5421SOL    HW219410   8.016   1.774   2.190 -1.9279  2.7295 -0.4387
 5422SOL     OW19411   1.233   4.634   5.059  0.0328  0.1726 -0.2619
 5422SOL    HW119412   1.307   4.585   5.024  0.8618  1.5969 -0.5771
 5422SOL    HW219413   1.245   4.630   5.154 -0.1289 -0.5411 -0.2640
 5423SOL     OW19414   1.950   5.770   3.523 -0.2918 -0.2155  0.0847
 5423SOL    HW119415   2.008   5.847   3.513 -0.5090 -0.1616 -0.8753
 5423SOL    HW219416   2.003   5.707   3.570  0.0892  0.3245  0.3961
 5424SOL     OW19417   3.871   5.658   7.128 -0.0021  0.7949 -0.3849
 5424SOL    HW119418   3.782   5.692   7.136  0.7351  2.5093  1.3827
 5424SOL    HW219419   3.888   5.655   7.034 -1.2343  2.3175 -0.6895
 5425SOL     OW19420   1.907   5.746   4.059 -0.5384  0.0698 -0.1594
 5425SOL    HW119421   1.917   5.838   4.036 -2.5814 -0.0100 -1.5894
 5425SOL    HW219422   1.881   5.746   4.151  1.1491  0.7792  0.3518
 5426SOL     OW19423   6.420   3.110   0.831  0.2761 -0.7742  0.2404
 5426SOL    HW119424   6.326   3.125   0.841  0.4633  0.4250  0.3405
 5426SOL    HW219425   6.427   3.049   0.758 -0.5297  0.1161 -0.6043
 5427SOL     OW19426   6.663   5.860   6.778 -0.0786 -0.2548  0.2046
 5427SOL    HW119427   6.739   5.809   6.808 -1.0766 -1.5488  0.6010
 5427SOL    HW219428   6.625   5.895   6.858 -1.1749 -1.4748  0.2562
 5428SOL     OW19429   2.809   3.206   5.894  0.5163 -0.0550  0.0881
 5428SOL    HW119430   2.747   3.151   5.846  0.6769 -1.3781  1.3387
 5428SOL    HW219431   2.757   3.245   5.964  1.2588 -2.0201  1.8053
 5429SOL     OW19432   2.638   3.326   1.195 -0.0790 -0.3213 -0.3810
 5429SOL    HW119433   2.609   3.385   1.264  1.8857 -0.8441  0.9587
 5429SOL    HW219434   2.560   3.312   1.142 -0.7424  3.1181 -0.5551
 5430SOL     OW19435   2.460   4.838   0.675  0.7402  0.4152  0.1423
 5430SOL    HW119436   2.435   4.893   0.602  1.8104  0.5897 -0.1082
 5430SOL    HW219437   2.478   4.899   0.747  0.9041  0.3293  0.1758
 5431SOL     OW19438   5.866   4.598   0.075 -0.2267 -0.2026 -0.3501
 5431SOL    HW119439   5.811   4.547   0.134  0.7750 -0.5156  0.3412
 5431SOL    HW219440   5.955   4.570   0.096  0.3453  1.7489 -0.0070
 5432SOL     OW19441   2.419   0.519   6.682  0.0526 -0.4280  0.1520
 5432SOL    HW119442   2.495   0.491   6.631 -0.2452 -0.8319 -0.0765
 5432SOL    HW219443   2.366   0.440   6.692 -0.6419 -0.0224 -0.2288
 5433SOL     OW19444   4.199   3.839   3.578 -0.0429  1.0808  0.0456
 5433SOL    HW119445   4.226   3.856   3.488 -0.3743  3.1647  0.2863
 5433SOL    HW219446   4.119   3.891   3.589  0.0963  1.0136  1.5817
 5434SOL     OW19447   0.147   2.808   6.378  0.0404 -0.3120  0.2550
 5434SOL    HW119448   0.105   2.818   6.464 -1.7123  0.0113 -0.5760
 5434SOL    HW219449   0.143   2.895   6.339 -1.2023 -0.8654 -0.9730
 5435SOL     OW19450   1.077   7.353   1.279  0.1427 -0.2120 -0.3806
 5435SOL    HW119451   1.134   7.303   1.221  0.6939  1.5038 -1.4124
 5435SOL    HW219452   0.988   7.336   1.246  0.3205 -0.5360 -0.6996
 5436SOL     OW19453   1.033   3.069   2.012 -0.2331  0.0217 -0.5236
 5436SOL    HW119454   1.056   3.030   2.096 -0.7384 -1.0273 -0.8527
 5436SOL    HW219455   0.984   3.000   1.966  1.4938 -0.0790 -2.3759
 5437SOL     OW19456   7.010   1.646   5.061 -0.4528  0.0820  0.7960
 5437SOL    HW119457   7.034   1.558   5.091 -1.0139  0.5250  2.6946
 5437SOL    HW219458   6.917   1.640   5.040 -0.4026  0.1427  0.5473
 5438SOL     OW19459   1.829   7.109   0.855 -0.1721  0.6900  0.0425
 5438SOL    HW119460   1.852   7.021   0.886  0.5055  0.5670 -0.7563
 5438SOL    HW219461   1.885   7.122   0.778 -1.0249  1.4054 -0.4740
 5439SOL     OW19462   3.130   0.684   4.177 -0.3607  0.3443 -0.2598
 5439SOL    HW119463   3.060   0.638   4.129 -1.5484 -0.1125  1.7938
 5439SOL    HW219464   3.154   0.624   4.248  2.2813  0.4278 -0.9709
 5440SOL     OW19465   1.040   4.910   6.771 -0.5238  0.1060  0.0942
 5440SOL    HW119466   1.017   4.819   6.791  1.1727 -0.5503 -0.7505
 5440SOL    HW219467   1.103   4.934   6.839 -1.5029  0.9170  0.7373
 5441SOL     OW19468   2.618   5.635   1.281  0.2522  0.6352  0.2427
 5441SOL    HW119469   2.692   5.669   1.331  1.6760 -2.6753  0.6220
 5441SOL    HW219470   2.657   5.577   1.216 -1.9706 -1.1146  0.3533
 5442SOL     OW19471   6.637   8.086   6.988 -0.5260 -0.0342 -0.3543
 5442SOL    HW119472   6.719   8.135   6.996 -1.2898  1.0216  1.6272
 5442SOL    HW219473   6.600   8.116   6.904  0.1737  0.9816 -0.3190
 5443SOL     OW19474   6.188   0.511   4.386 -0.3694  0.0018 -0.6918
 5443SOL    HW119475   6.105   0.525   4.339 -0.1973  1.7520 -0.5333
 5443SOL    HW219476   6.245   0.471   4.321 -1.2715 -1.1003 -0.8477
 5444SOL     OW19477   7.816   7.099   4.657  0.6471  0.9329  0.6762
 5444SOL    HW119478   7.883   7.064   4.716  0.3824 -0.1496  0.3557
 5444SOL    HW219479   7.856   7.176   4.618  2.0448 -0.1731 -0.1554
 5445SOL     OW19480   0.369   5.066   1.542 -0.2979 -0.0086  0.7605
 5445SOL    HW119481   0.435   5.064   1.611 -1.7142  0.5276  2.2176
 5445SOL    HW219482   0.345   4.974   1.529  0.6547 -0.1994  0.2638
 5446SOL     OW19483   3.658   5.556   7.339  0.4545  0.5402 -0.6606
 5446SOL    HW119484   3.627   5.599   7.260 -0.6416  0.5356 -0.2466
 5446SOL    HW219485   3.659   5.626   7.405 -1.8339 -0.1134  0.1477
 5447SOL     OW19486   1.467   7.015   4.589  0.1405  0.0814 -0.1243
 5447SOL    HW119487   1.497   6.975   4.671 -1.1781  0.6307  0.6597
 5447SOL    HW219488   1.489   6.951   4.522  2.0049 -0.0242  0.5209
 5448SOL     OW19489   4.471   1.500   6.072 -0.2220  0.5633 -0.1761
 5448SOL    HW119490   4.466   1.590   6.041 -1.5165  0.3909 -0.5423
 5448SOL    HW219491   4.507   1.451   5.997 -0.2376  0.6593 -0.2473
 5449SOL     OW19492   5.291   3.216   0.665  0.0558 -0.1655  0.1849
 5449SOL    HW119493   5.209   3.206   0.617  1.0507  0.5034 -1.7363
 5449SOL    HW219494   5.318   3.306   0.649  1.1145 -0.3363  0.8981
 5450SOL     OW19495   3.525   1.186   0.820  0.5148 -0.0940  0.3632
 5450SOL    HW119496   3.610   1.215   0.852  0.6478 -0.9572  0.8168
 5450SOL    HW219497   3.470   1.264   0.821  0.4471 -0.1185  2.8967
 5451SOL     OW19498   4.624   0.635   4.182 -0.0869 -0.1713 -0.7242
 5451SOL    HW119499   4.586   0.633   4.269  0.6120  0.8908 -0.3738
 5451SOL    HW219500   4.695   0.571   4.185 -0.0769 -0.1514 -0.5194
 5452SOL     OW19501   8.051   1.898   2.008 -0.6255 -0.4217 -0.5790
 5452SOL    HW119502   8.114   1.893   1.936  0.1766 -1.6331  0.1552
 5452SOL    HW219503   8.059   1.987   2.042  1.7569 -0.9253  0.3730
 5453SOL     OW19504   5.163   1.475   2.897 -0.5180  0.2482 -0.0551
 5453SOL    HW119505   5.090   1.414   2.905  0.1000 -0.5296 -0.1965
 5453SOL    HW219506   5.130   1.557   2.932 -0.7269 -0.7104  2.1720
 5454SOL     OW19507   3.807   4.226   4.575  0.3422 -0.3471  0.5141
 5454SOL    HW119508   3.878   4.192   4.521 -0.3808 -0.1190 -0.6147
 5454SOL    HW219509   3.836   4.211   4.665  1.1320 -1.6624  0.0698
 5455SOL     OW19510   3.158   7.780   6.487 -0.0584 -0.0538  0.0478
 5455SOL    HW119511   3.150   7.805   6.395  0.3978 -1.1390 -0.2955
 5455SOL    HW219512   3.219   7.843   6.524 -1.0556  1.0447 -0.1231
 5456SOL     OW19513   5.185   6.743   3.707 -0.5702  0.1692 -0.0519
 5456SOL    HW119514   5.212   6.662   3.665 -0.6905 -0.9218  1.8414
 5456SOL    HW219515   5.092   6.731   3.726 -0.4942  0.5685  0.6157
 5457SOL     OW19516   3.676   0.842   3.102 -0.2549  0.0038 -0.3265
 5457SOL    HW119517   3.603   0.814   3.047  0.2731  1.6116 -1.9716
 5457SOL    HW219518   3.719   0.761   3.129 -2.1045 -0.9286 -0.0559
 5458SOL     OW19519   4.002   6.915   6.736 -0.2409  0.6987  0.2579
 5458SOL    HW119520   3.947   6.887   6.810 -0.4234  0.5427  0.0639
 5458SOL    HW219521   3.977   6.856   6.665 -1.0213  1.6988 -0.3244
 5459SOL     OW19522   1.713   2.721   5.781 -0.6042 -0.3146 -0.1346
 5459SOL    HW119523   1.805   2.749   5.784 -0.8495  0.9111 -1.9788
 5459SOL    HW219524   1.663   2.801   5.794 -1.4640 -1.0912  1.6026
 5460SOL     OW19525   7.412   3.244   2.079  0.0810  0.0765 -0.5762
 5460SOL    HW119526   7.490   3.289   2.045  0.4132  0.3494  0.4979
 5460SOL    HW219527   7.447   3.169   2.127 -0.5040 -2.1362 -3.3219
 5461SOL     OW19528   0.431   2.550   6.942 -0.1338 -0.0278 -0.7514
 5461SOL    HW119529   0.487   2.604   6.997 -2.3044  1.1272  0.4560
 5461SOL    HW219530   0.367   2.611   6.905 -1.1603 -1.3922 -1.3384
 5462SOL     OW19531   4.328   2.430   5.906  0.2024  0.0612 -0.7924
 5462SOL    HW119532   4.300   2.346   5.942 -0.8749  0.8538  0.2763
 5462SOL    HW219533   4.301   2.426   5.814 -1.7792  0.0496 -0.2475
 5463SOL     OW19534   5.801   1.629   4.482 -0.2748 -0.1027 -0.1326
 5463SOL    HW119535   5.758   1.559   4.433 -1.9223  0.3826  0.5685
 5463SOL    HW219536   5.756   1.709   4.454 -0.7749  0.2632  1.6125
 5464SOL     OW19537   5.170   0.973   5.242  0.2682 -0.0933 -0.2193
 5464SOL    HW119538   5.095   0.981   5.182 -0.1762  1.4216  0.4995
 5464SOL    HW219539   5.133   0.985   5.329  1.1581 -0.6881  0.2603
 5465SOL     OW19540   0.924   2.286   1.782  0.7733  0.3141 -0.4711
 5465SOL    HW119541   0.884   2.237   1.710  2.1534 -1.4865 -0.1065
 5465SOL    HW219542   0.886   2.247   1.861  0.9300  0.7286 -0.1908
 5466SOL     OW19543   0.571   4.258   6.938  0.3223  0.5052 -0.0308
 5466SOL    HW119544   0.636   4.223   6.999  0.4033  1.2128  0.2928
 5466SOL    HW219545   0.619   4.319   6.883 -0.3916  2.5136  1.4563
 5467SOL     OW19546   1.770   1.163   7.217 -0.1357  0.4267  0.1613
 5467SOL    HW119547   1.772   1.069   7.199 -0.7284  0.5575 -0.6664
 5467SOL    HW219548   1.858   1.193   7.196  0.2104 -0.0292  0.9433
 5468SOL     OW19549   7.309   5.635   7.149  0.4312  0.5396 -0.4295
 5468SOL    HW119550   7.250   5.585   7.093 -0.7612  1.2202  0.1746
 5468SOL    HW219551   7.327   5.577   7.224 -0.3035  0.7028 -0.1190
 5469SOL     OW19552   7.833   5.592   6.837 -0.3155  0.2064 -0.2910
 5469SOL    HW119553   7.871   5.505   6.838  0.6722  0.5997 -1.3396
 5469SOL    HW219554   7.765   5.590   6.905 -0.7936 -1.5798 -0.7711
 5470SOL     OW19555   1.185   5.681   1.043  0.2714  0.0832 -0.2509
 5470SOL    HW119556   1.182   5.629   0.962  0.9309  0.8174 -0.7584
 5470SOL    HW219557   1.101   5.728   1.044  0.4769  0.4689 -0.7829
 5471SOL     OW19558   5.994   6.851   6.061  0.0390  0.5266 -0.2096
 5471SOL    HW119559   5.902   6.875   6.062  0.1824  1.1890 -1.1755
 5471SOL    HW219560   6.034   6.906   6.129 -0.2582  0.3069  0.1424
 5472SOL     OW19561   0.227   3.723   0.605  0.4150 -0.0767  0.0613
 5472SOL    HW119562   0.297   3.685   0.658  0.8917  0.2304 -0.3348
 5472SOL    HW219563   0.243   3.690   0.517  0.5319  0.6206 -0.1865
 5473SOL     OW19564   6.971   2.696   1.088  0.3745 -0.3148 -0.3142
 5473SOL    HW119565   6.906   2.647   1.037  1.5037 -3.2786  0.8888
 5473SOL    HW219566   6.927   2.712   1.172  0.2883  0.0582 -0.4286
 5474SOL     OW19567   7.649   3.777   1.194  0.1671 -0.3537  0.0147
 5474SOL    HW119568   7.612   3.848   1.246  1.2427 -1.6600  2.7595
 5474SOL    HW219569   7.693   3.821   1.121 -1.3786  1.5769  0.1721
 5475SOL     OW19570   6.157   4.071   6.750  0.0669  0.4062 -0.3625
 5475SOL    HW119571   6.222   4.125   6.705  0.7020  1.0437  1.2667
 5475SOL    HW219572   6.140   3.998   6.689  0.1886  1.7022 -2.0220
 5476SOL     OW19573   4.421   1.275   6.225 -0.3135  0.1274  0.0585
 5476SOL    HW119574   4.491   1.295   6.287 -1.2306  1.4876  0.7103
 5476SOL    HW219575   4.427   1.343   6.158 -0.4166 -0.3093 -0.4041
 5477SOL     OW19576   2.563   4.341   7.840  0.3081  0.0131 -0.2645
 5477SOL    HW119577   2.567   4.436   7.844  0.7965 -0.0611  1.9060
 5477SOL    HW219578   2.652   4.312   7.858 -0.0009 -0.8592 -0.0866
 5478SOL     OW19579   3.137   4.835   6.590 -0.2442  0.1674 -0.4884
 5478SOL    HW119580   3.141   4.839   6.494 -3.1638  1.4279 -0.6759
 5478SOL    HW219581   3.098   4.918   6.615 -3.0832 -1.5778  1.4401
 5479SOL     OW19582   8.085   0.254   2.386 -0.1019  0.6792 -0.7154
 5479SOL    HW119583   8.031   0.271   2.309 -1.1329  0.3640 -0.0782
 5479SOL    HW219584   8.031   0.279   2.460 -0.2573 -1.7010  0.0746
 5480SOL     OW19585   5.079   4.452   8.087 -0.4632 -0.3806  0.2037
 5480SOL    HW119586   5.137   4.528   8.092 -0.9177 -0.0115 -0.0624
 5480SOL    HW219587   5.095   4.416   8.000 -0.5822 -0.3236  0.1590
 5481SOL     OW19588   2.949   7.785   3.164  0.5204  0.0404  0.0203
 5481SOL    HW119589   2.990   7.870   3.179  0.5906  0.0698 -0.3302
 5481SOL    HW219590   2.881   7.779   3.230  1.5838 -0.3392  1.1243
 5482SOL     OW19591   2.996   4.056   5.691  0.1393 -0.0412  0.5588
 5482SOL    HW119592   2.997   4.151   5.685  1.0077 -0.0275  0.8393
 5482SOL    HW219593   2.933   4.029   5.624  0.9056  0.6630 -0.4878
 5483SOL     OW19594   0.946   4.894   1.332 -0.2325 -0.1550  0.3861
 5483SOL    HW119595   1.019   4.840   1.361 -0.4204 -0.7241 -0.1894
 5483SOL    HW219596   0.881   4.832   1.299 -0.9464  0.3436  0.8112
 5484SOL     OW19597   6.904   2.517   1.337 -0.0429 -0.3746 -0.0274
 5484SOL    HW119598   6.938   2.558   1.417  0.8614 -2.8357  0.9390
 5484SOL    HW219599   6.982   2.481   1.294 -0.5612  0.6152 -1.9144
 5485SOL     OW19600   6.235   0.880   7.121 -0.2404 -0.0952 -0.1727
 5485SOL    HW119601   6.282   0.960   7.099  0.8631 -0.5660  0.3905
 5485SOL    HW219602   6.303   0.813   7.125 -1.0837 -0.9722 -0.1612
 5486SOL     OW19603   0.394   7.184   6.067  0.1282 -0.0695  0.3958
 5486SOL    HW119604   0.459   7.166   6.134 -0.3153 -0.1157  0.8144
 5486SOL    HW219605   0.433   7.253   6.013  1.1971 -1.1783 -0.3019
 5487SOL     OW19606   5.599   2.728   4.360  0.4906  0.3097 -0.2937
 5487SOL    HW119607   5.504   2.727   4.370  0.4781  0.1392 -0.4455
 5487SOL    HW219608   5.624   2.637   4.345  0.8457  0.1055  1.2944
 5488SOL     OW19609   1.517   5.868   3.547  0.5290 -0.0177  0.4405
 5488SOL    HW119610   1.592   5.897   3.496  0.7323 -0.0267  0.7298
 5488SOL    HW219611   1.442   5.916   3.511  0.3051 -1.5077 -1.2138
 5489SOL     OW19612   7.391   0.717   2.561  0.4687 -0.0176  0.3964
 5489SOL    HW119613   7.454   0.785   2.536 -1.7797  2.2846  0.6118
 5489SOL    HW219614   7.310   0.741   2.516 -1.0052 -1.3306  2.1656
 5490SOL     OW19615   2.587   3.976   7.633  0.9552  0.1046 -0.5174
 5490SOL    HW119616   2.520   4.008   7.694  0.6884  1.3922 -1.4504
 5490SOL    HW219617   2.615   3.893   7.671  0.2211  0.4764  0.9282
 5491SOL     OW19618   6.715   6.090   0.712 -0.3078  0.9371  0.0169
 5491SOL    HW119619   6.732   6.010   0.761  1.7890  2.0565  1.2777
 5491SOL    HW219620   6.646   6.067   0.651  0.4347 -1.9012  0.1240
 5492SOL     OW19621   1.572   1.682   2.482  0.6257 -0.4654 -0.0108
 5492SOL    HW119622   1.537   1.625   2.413 -0.0136 -1.2537  0.9401
 5492SOL    HW219623   1.581   1.768   2.439 -0.5069 -0.7417 -0.8745
 5493SOL     OW19624   6.744   0.734   1.404  0.3671 -0.2930 -0.5120
 5493SOL    HW119625   6.815   0.775   1.453 -1.1637  0.0492  1.5301
 5493SOL    HW219626   6.720   0.800   1.339  1.1081  0.0686 -0.4341
 5494SOL     OW19627   7.630   0.109   6.838  0.3232 -0.0217  0.2247
 5494SOL    HW119628   7.540   0.114   6.870 -0.5267 -2.4709 -1.5519
 5494SOL    HW219629   7.683   0.140   6.912 -1.8299 -0.5896  2.1097
 5495SOL     OW19630   7.976   1.318   7.210  0.1474 -0.3457 -0.5623
 5495SOL    HW119631   7.891   1.360   7.220 -0.4026 -1.6506  0.5596
 5495SOL    HW219632   8.037   1.390   7.194 -1.0855  0.6526 -0.9468
 5496SOL     OW19633   1.699   5.652   4.642 -0.6186  0.5575  0.3260
 5496SOL    HW119634   1.616   5.690   4.613 -1.0496  0.8753  1.9000
 5496SOL    HW219635   1.682   5.558   4.644 -0.1649  0.3779 -1.6403
 5497SOL     OW19636   5.576   4.068   1.376  0.8696  0.4065 -0.6014
 5497SOL    HW119637   5.561   3.981   1.414 -1.8049  1.5048  1.1408
 5497SOL    HW219638   5.671   4.079   1.379  1.0694 -0.5538  3.8768
 5498SOL     OW19639   2.220   2.767   5.348  0.4537 -0.1225 -0.4939
 5498SOL    HW119640   2.188   2.678   5.363  2.0761 -0.3309  2.3111
 5498SOL    HW219641   2.279   2.759   5.273  1.5618 -1.6994  0.5041
 5499SOL     OW19642   6.204   2.120   6.250 -0.3979  0.0983  0.0241
 5499SOL    HW119643   6.271   2.090   6.312  0.1150 -1.2213 -1.1091
 5499SOL    HW219644   6.135   2.156   6.305  1.2097  1.4933  1.2394
 5500SOL     OW19645   0.369   1.338   5.694 -0.1015  0.0231 -0.5218
 5500SOL    HW119646   0.323   1.295   5.766 -0.2860  1.9555  0.5802
 5500SOL    HW219647   0.307   1.402   5.659  0.7081  0.5680 -1.0183
 5501SOL     OW19648   6.650   4.253   0.977  0.1307  0.5224 -0.3093
 5501SOL    HW119649   6.732   4.241   0.930  1.1255  1.2574  1.1926
 5501SOL    HW219650   6.589   4.283   0.909  1.2078  0.4457 -1.3527
 5502SOL     OW19651   4.614   6.821   5.659  0.2473  0.0766 -0.4740
 5502SOL    HW119652   4.637   6.731   5.682  1.4209  0.3296 -0.5708
 5502SOL    HW219653   4.568   6.814   5.575 -1.5985 -0.6006  0.5365
 5503SOL     OW19654   2.657   3.780   2.929 -0.1076 -0.7045  0.1204
 5503SOL    HW119655   2.715   3.834   2.982 -0.6235 -1.3712  1.4231
 5503SOL    HW219656   2.626   3.712   2.989 -2.4629 -0.2078 -0.4303
 5504SOL     OW19657   0.536   6.738   6.468 -0.4722 -0.0449  0.0800
 5504SOL    HW119658   0.619   6.746   6.514  0.3438 -2.9127 -0.7302
 5504SOL    HW219659   0.554   6.768   6.379 -0.1510 -1.0768 -0.2144
 5505SOL     OW19660   7.596   6.376   5.364 -0.1482  0.1383  0.0662
 5505SOL    HW119661   7.567   6.401   5.452  0.3059  0.7155  0.0591
 5505SOL    HW219662   7.526   6.320   5.331 -0.7775  0.6860  0.4378
 5506SOL     OW19663   1.496   6.463   3.693 -0.7318 -0.4453  0.0067
 5506SOL    HW119664   1.487   6.368   3.698 -1.6930 -0.4253 -0.8565
 5506SOL    HW219665   1.440   6.497   3.763  0.7732 -0.5193  1.2967
 5507SOL     OW19666   5.295   4.934   3.669  0.0098 -0.1372 -0.7683
 5507SOL    HW119667   5.207   4.942   3.706  0.1117  1.8925 -0.8531
 5507SOL    HW219668   5.343   4.880   3.732 -0.3347  1.7070  1.2164
 5508SOL     OW19669   0.849   6.363   7.630  0.0922 -0.2142  0.7836
 5508SOL    HW119670   0.799   6.350   7.550  0.0097 -0.1121  0.8189
 5508SOL    HW219671   0.788   6.341   7.701  0.1873 -0.3759  0.8151
 5509SOL     OW19672   4.652   3.475   1.406  0.3256  0.2476  0.7877
 5509SOL    HW119673   4.718   3.407   1.420 -1.2356 -1.0774  2.0532
 5509SOL    HW219674   4.570   3.434   1.433 -1.0515  1.8053 -0.8442
 5510SOL     OW19675   0.514   2.216   7.228  0.0003  0.0943  0.3771
 5510SOL    HW119676   0.604   2.209   7.195  0.2974  0.0349  1.1862
 5510SOL    HW219677   0.480   2.127   7.224 -0.7906  0.4117 -1.9691
 5511SOL     OW19678   1.205   3.957   3.099  0.4160  0.0997 -0.0797
 5511SOL    HW119679   1.164   4.034   3.138 -0.0955  0.2067 -0.8010
 5511SOL    HW219680   1.176   3.884   3.153 -1.1117  0.1160 -0.8466
 5512SOL     OW19681   7.265   4.816   2.089  0.0098 -0.0799  0.4370
 5512SOL    HW119682   7.263   4.776   2.176  0.6080 -0.3588  0.3295
 5512SOL    HW219683   7.225   4.750   2.031 -0.9613  0.3585  0.5891
 5513SOL     OW19684   3.986   8.023   8.094  0.0798 -0.2126  0.1017
 5513SOL    HW119685   3.968   8.050   8.004 -0.2066  1.4896  0.6268
 5513SOL    HW219686   3.992   7.928   8.090 -0.7099 -0.2277 -1.5678
 5514SOL     OW19687   3.616   5.796   7.542 -0.6781 -0.2878  0.4644
 5514SOL    HW119688   3.607   5.868   7.478 -1.4939  0.8611  1.8124
 5514SOL    HW219689   3.526   5.777   7.569 -0.2889 -0.1059  1.9393
 5515SOL     OW19690   1.109   8.020   0.325 -0.0824  0.2949 -0.0092
 5515SOL    HW119691   1.111   8.094   0.265 -0.7774 -0.1235 -0.5699
 5515SOL    HW219692   1.036   7.966   0.294  0.3926 -0.6079  0.4077
 5516SOL     OW19693   0.132   2.643   7.775  0.0970 -0.3453  0.4335
 5516SOL    HW119694   0.198   2.679   7.716  0.8811 -0.3213  1.3082
 5516SOL    HW219695   0.102   2.563   7.732 -0.3651  0.3915 -0.6638
 5517SOL     OW19696   2.253   4.788   6.739  0.0277  0.5081  0.0374
 5517SOL    HW119697   2.202   4.867   6.755 -0.0471  0.4941 -0.1377
 5517SOL    HW219698   2.313   4.812   6.668 -1.8159 -0.3918 -1.9201
 5518SOL     OW19699   7.948   4.533   7.316  0.0184 -0.3940 -0.6559
 5518SOL    HW119700   8.030   4.492   7.289  0.3544  0.2136 -0.5780
 5518SOL    HW219701   7.910   4.472   7.380  0.7687 -0.3365 -0.1413
 5519SOL     OW19702   1.206   0.670   7.887 -0.7825  0.9904 -0.0561
 5519SOL    HW119703   1.250   0.609   7.947 -0.4639  0.0408 -1.2191
 5519SOL    HW219704   1.215   0.755   7.929 -0.8441  0.3088  1.3989
 5520SOL     OW19705   4.191   7.452   1.938  0.8016  0.3694 -0.4876
 5520SOL    HW119706   4.134   7.519   1.977  1.2427  0.7939 -0.5568
 5520SOL    HW219707   4.131   7.389   1.900  0.3224 -0.5199  1.5922
 5521SOL     OW19708   1.420   3.199   5.645 -0.0465 -0.3698  0.1406
 5521SOL    HW119709   1.349   3.161   5.697 -0.1083 -1.7100 -0.8785
 5521SOL    HW219710   1.430   3.288   5.679 -1.7091 -0.4087  0.7917
 5522SOL     OW19711   5.449   1.778   0.485 -0.2835  0.5842 -0.7321
 5522SOL    HW119712   5.405   1.722   0.548 -1.8526  0.0825 -2.1932
 5522SOL    HW219713   5.419   1.866   0.505 -1.1085  0.3765 -0.9934
 5523SOL     OW19714   0.502   4.695   0.450 -1.0383 -0.4074  0.6233
 5523SOL    HW119715   0.412   4.689   0.419 -0.8114 -2.4016  0.2404
 5523SOL    HW219716   0.494   4.733   0.538 -1.8943  2.8893 -0.7178
 5524SOL     OW19717   3.170   3.106   4.423  0.2772 -0.6893 -0.0039
 5524SOL    HW119718   3.254   3.068   4.449 -0.5465 -1.0118  2.4372
 5524SOL    HW219719   3.106   3.039   4.445 -0.7882  0.2944 -0.0415
 5525SOL     OW19720   2.350   7.971   5.359  0.2328  0.4808  0.0416
 5525SOL    HW119721   2.332   8.065   5.354 -2.4529  0.2720  2.8751
 5525SOL    HW219722   2.276   7.930   5.314 -0.8906 -0.2733  2.4289
 5526SOL     OW19723   4.070   0.112   2.281  0.0863  0.3337 -0.4222
 5526SOL    HW119724   4.072   0.052   2.206  0.6890  1.2737 -1.1781
 5526SOL    HW219725   4.140   0.081   2.339 -0.2337 -0.2613 -0.3491
 5527SOL     OW19726   4.191   0.685   0.977  0.6880 -0.3401  0.3149
 5527SOL    HW119727   4.126   0.746   0.942  1.4892  0.6568  0.5148
 5527SOL    HW219728   4.271   0.705   0.929  1.0835 -0.9056  0.7308
 5528SOL     OW19729   0.112   1.709   4.772 -0.3726 -0.5789  0.4445
 5528SOL    HW119730   0.165   1.773   4.820 -2.7239  0.4588  1.8418
 5528SOL    HW219731   0.076   1.652   4.839 -1.3071 -1.0167 -0.3994
 5529SOL     OW19732   3.846   3.977   4.794  0.0832 -0.1630 -0.2939
 5529SOL    HW119733   3.878   4.060   4.759 -0.6279  0.1871 -0.1273
 5529SOL    HW219734   3.822   3.926   4.716 -0.3666  0.1560 -0.3719
 5530SOL     OW19735   7.256   5.897   4.018 -0.4205  0.2176  0.1608
 5530SOL    HW119736   7.264   5.947   4.099 -0.4238  0.2013  0.1709
 5530SOL    HW219737   7.345   5.895   3.982 -0.7935  2.3688 -1.0927
 5531SOL     OW19738   6.340   6.197   4.126 -0.6387 -0.2216 -0.0088
 5531SOL    HW119739   6.289   6.116   4.132 -0.8413 -0.0151  1.5510
 5531SOL    HW219740   6.324   6.229   4.037 -2.1498 -0.8697  0.0013
 5532SOL     OW19741   5.672   8.051   0.879 -0.2775  0.0009  0.5238
 5532SOL    HW119742   5.678   8.100   0.797 -1.0878 -0.3071  0.2786
 5532SOL    HW219743   5.600   8.092   0.927 -0.5602 -0.5632  0.5809
 5533SOL     OW19744   1.987   6.236   5.816  0.3138 -0.1657  0.6026
 5533SOL    HW119745   2.035   6.221   5.734 -0.6690 -1.2714  0.2018
 5533SOL    HW219746   1.937   6.316   5.800 -0.3668 -0.7205 -0.1362
 5534SOL     OW19747   1.389   2.703   7.049 -0.9132 -0.3648 -0.8754
 5534SOL    HW119748   1.416   2.641   6.981 -0.3793  0.9466 -1.9074
 5534SOL    HW219749   1.430   2.671   7.129 -1.3076 -1.7731 -1.2069
 5535SOL     OW19750   6.958   2.851   4.528 -0.2258  0.6669 -0.6843
 5535SOL    HW119751   6.918   2.814   4.450  1.5092 -0.4877 -1.1041
 5535SOL    HW219752   7.002   2.931   4.497  0.3367  0.2884 -0.8911
 5536SOL     OW19753   5.037   6.830   4.528 -0.5133  0.2167  0.1701
 5536SOL    HW119754   5.068   6.903   4.582  0.4096 -0.2900  0.3373
 5536SOL    HW219755   4.942   6.832   4.539 -0.6713  2.2481 -0.9237
 5537SOL     OW19756   2.272   3.854   1.007  0.0111 -0.1108 -0.2708
 5537SOL    HW119757   2.225   3.932   1.035 -0.8654 -0.1622 -1.4955
 5537SOL    HW219758   2.203   3.794   0.978  0.7802 -0.5067 -1.3577
 5538SOL     OW19759   4.830   3.935   4.343  0.8141  0.0982  0.1540
 5538SOL    HW119760   4.899   3.978   4.292 -0.6768  1.0029 -1.1706
 5538SOL    HW219761   4.808   4.000   4.411  0.6270  0.2048 -0.0066
 5539SOL     OW19762   5.871   0.576   1.820 -0.6267  0.3466 -0.1557
 5539SOL    HW119763   5.786   0.618   1.804 -1.4599 -0.7334  1.2502
 5539SOL    HW219764   5.896   0.606   1.907  0.2075  0.2407 -0.3522
 5540SOL     OW19765   5.672   0.717   1.089  0.5600  0.2437  0.2166
 5540SOL    HW119766   5.708   0.801   1.060  1.3763 -0.1970 -0.0970
 5540SOL    HW219767   5.718   0.699   1.171  2.2948 -1.0849 -0.9836
 5541SOL     OW19768   5.116   1.438   6.084  0.8199  0.0115  0.2011
 5541SOL    HW119769   5.057   1.513   6.073  0.4548 -0.2318  0.4545
 5541SOL    HW219770   5.148   1.420   5.996  0.1061 -0.1780 -0.0298
 5542SOL     OW19771   1.620   0.702   1.528  0.4972  0.0188  0.2249
 5542SOL    HW119772   1.585   0.790   1.517 -1.2721 -0.7063 -0.3257
 5542SOL    HW219773   1.691   0.697   1.465  1.3340  1.3783  1.0057
 5543SOL     OW19774   2.508   5.426   0.254  0.3783 -0.4613 -0.1357
 5543SOL    HW119775   2.475   5.350   0.207 -0.7417  0.1452 -0.3576
 5543SOL    HW219776   2.444   5.495   0.236  1.3592  0.5286  0.0793
 5544SOL     OW19777   4.932   8.018   7.323 -0.1986 -0.1112  0.6067
 5544SOL    HW119778   4.999   8.009   7.255 -1.0876  0.5928 -0.3892
 5544SOL    HW219779   4.980   8.007   7.405  1.1220  0.3132 -0.0820
 5545SOL     OW19780   4.853   5.849   0.091  0.1289 -0.3353 -0.3558
 5545SOL    HW119781   4.929   5.885   0.137 -0.7271 -0.0990  0.9442
 5545SOL    HW219782   4.867   5.871  -0.001  0.6039  1.6260  0.1301
 5546SOL     OW19783   7.455   6.734   1.812 -0.1024 -0.0066  0.2167
 5546SOL    HW119784   7.393   6.805   1.828 -0.1476  0.0598 -0.2587
 5546SOL    HW219785   7.541   6.772   1.830 -0.1955 -0.1112  0.9216
 5547SOL     OW19786   2.158   1.803   3.923 -0.0726 -0.0072 -0.1158
 5547SOL    HW119787   2.175   1.882   3.974  1.5062 -0.2445 -0.2263
 5547SOL    HW219788   2.114   1.835   3.844 -0.4461  0.6271  0.3440
 5548SOL     OW19789   3.434   3.997   6.518 -0.6885  0.1101  0.0304
 5548SOL    HW119790   3.484   4.053   6.458 -1.2777  0.5696 -0.0428
 5548SOL    HW219791   3.491   3.988   6.594 -0.3014  0.2487 -0.2349
 5549SOL     OW19792   4.851   1.019   7.538  0.3165  0.9045 -0.2391
 5549SOL    HW119793   4.810   1.015   7.451  0.1534  0.9057 -0.1625
 5549SOL    HW219794   4.891   1.106   7.541  0.6365  0.7680 -0.4527
 5550SOL     OW19795   0.919   4.499   1.616  0.2670 -0.3346 -0.3715
 5550SOL    HW119796   0.874   4.584   1.621 -0.7333 -0.7540 -1.6788
 5550SOL    HW219797   0.926   4.482   1.522 -0.9689 -2.4292 -0.1331
 5551SOL     OW19798   6.605   3.842   7.853 -0.3424  0.0277  0.4982
 5551SOL    HW119799   6.693   3.815   7.826 -1.0952 -0.6528 -1.4562
 5551SOL    HW219800   6.613   3.937   7.867  0.9634 -0.2120  1.6067
 5552SOL     OW19801   0.162   7.132   6.428  0.1914 -0.2667  0.1639
 5552SOL    HW119802   0.128   7.073   6.360 -1.9138 -0.8106  1.5961
 5552SOL    HW219803   0.256   7.113   6.430  0.3401 -0.2221 -2.5446
 5553SOL     OW19804   1.613   0.553   1.828  0.1919 -0.8071 -0.2190
 5553SOL    HW119805   1.659   0.629   1.793 -0.2117 -0.1917  0.5403
 5553SOL    HW219806   1.659   0.478   1.792  2.5751 -0.2555  1.4535
 5554SOL     OW19807   3.821   0.623   3.194 -0.3046  0.7519  0.6354
 5554SOL    HW119808   3.830   0.610   3.289 -1.8262  0.0341  0.7227
 5554SOL    HW219809   3.781   0.542   3.163  1.2472  0.5000 -0.8402
 5555SOL     OW19810   3.712   1.035   5.425  0.6980 -0.2533  0.6004
 5555SOL    HW119811   3.703   1.046   5.520  0.6002  0.0255  0.5617
 5555SOL    HW219812   3.674   0.949   5.407  0.2121 -0.0781  0.7497
 5556SOL     OW19813   6.503   7.707   3.037  0.3846  0.2135  0.3775
 5556SOL    HW119814   6.542   7.653   3.106  0.9350 -0.2491 -0.2846
 5556SOL    HW219815   6.409   7.704   3.055  0.5021 -0.0831  0.9803
 5557SOL     OW19816   4.016   2.037   7.698 -0.2137 -0.1418 -0.0389
 5557SOL    HW119817   3.995   2.060   7.789 -1.0047 -0.9979  0.0071
 5557SOL    HW219818   4.111   2.032   7.696 -0.2237 -1.1191  1.0021
 5558SOL     OW19819   2.190   5.345   7.898  0.2971  0.2610 -0.2566
 5558SOL    HW119820   2.151   5.292   7.829 -0.5390  0.1604  0.2782
 5558SOL    HW219821   2.238   5.282   7.951 -0.0425  0.1511 -0.0744
 5559SOL     OW19822   1.555   5.359   6.197  0.0754  0.8587  0.2947
 5559SOL    HW119823   1.480   5.313   6.159  1.0802 -0.3586 -0.2530
 5559SOL    HW219824   1.564   5.438   6.144  1.0285 -0.4698 -1.6214
 5560SOL     OW19825   1.818   2.481   3.468 -0.2053  0.8668  0.0918
 5560SOL    HW119826   1.868   2.400   3.463 -2.0635 -0.3734  0.4499
 5560SOL    HW219827   1.874   2.541   3.518  0.7336 -0.5707  0.8281
 5561SOL     OW19828   5.966   4.828   6.981  0.7578 -0.1378  0.4120
 5561SOL    HW119829   6.020   4.893   7.026  1.8629 -0.5149 -0.3421
 5561SOL    HW219830   5.947   4.762   7.048  0.7374  0.2881  0.8300
 5562SOL     OW19831   0.298   6.800   6.600 -0.3537 -0.4226  0.0906
 5562SOL    HW119832   0.290   6.713   6.640  1.7962 -0.6656  0.1311
 5562SOL    HW219833   0.374   6.792   6.542 -1.0694  1.0193 -1.1034
 5563SOL     OW19834   3.861   0.879   6.598  0.0568 -0.0440  0.1304
 5563SOL    HW119835   3.773   0.856   6.565 -1.0837  4.1743 -0.3469
 5563SOL    HW219836   3.921   0.842   6.533 -1.4142 -1.7211 -0.3669
 5564SOL     OW19837   0.198   0.598   1.505  0.6836 -0.0659 -0.0601
 5564SOL    HW119838   0.224   0.618   1.595 -1.0790 -0.2089  0.5239
 5564SOL    HW219839   0.273   0.550   1.468  1.1011 -0.7681  1.6109
 5565SOL     OW19840   0.260   2.262   3.995  0.0868 -0.2847 -0.4693
 5565SOL    HW119841   0.168   2.238   3.999  0.1117 -0.2758  0.4359
 5565SOL    HW219842   0.274   2.292   3.905 -0.5058 -1.3913 -0.9348
 5566SOL     OW19843   0.965   2.629   2.281  0.8422 -0.0197 -0.1295
 5566SOL    HW119844   1.013   2.546   2.282  0.3986 -0.2846  0.2678
 5566SOL    HW219845   0.877   2.604   2.251  0.4789  0.1629  0.7372
 5567SOL     OW19846   4.027   7.035   1.721 -0.5527 -0.1039  0.1385
 5567SOL    HW119847   4.007   6.943   1.733  3.5188 -1.3250 -0.9337
 5567SOL    HW219848   3.996   7.055   1.633 -3.1730  0.2206  1.0524
 5568SOL     OW19849   4.966   2.263   7.823 -0.0442  0.2557 -0.2692
 5568SOL    HW119850   4.941   2.171   7.833 -1.2181  0.4181 -1.4397
 5568SOL    HW219851   4.884   2.308   7.803  0.5359  1.5472  0.1473
 5569SOL     OW19852   4.607   0.845   6.347 -0.1141 -0.0782  0.3621
 5569SOL    HW119853   4.650   0.809   6.424 -0.8229 -1.2165  0.2451
 5569SOL    HW219854   4.656   0.809   6.273 -2.2910 -2.9460  0.1517
 5570SOL     OW19855   3.375   2.550   5.579 -0.6130  0.0269  0.0344
 5570SOL    HW119856   3.409   2.613   5.642  0.6121  0.8561 -1.3785
 5570SOL    HW219857   3.447   2.490   5.564 -0.3192  0.7486 -1.6815
 5571SOL     OW19858   7.879   5.433   4.099  0.4989 -0.0790 -0.0846
 5571SOL    HW119859   7.959   5.481   4.078  0.5867 -0.1757  0.0291
 5571SOL    HW219860   7.824   5.497   4.142  0.8206 -0.2110  0.5349
 5572SOL     OW19861   5.119   4.842   6.550  0.4749  0.0548 -0.6787
 5572SOL    HW119862   5.029   4.829   6.520 -0.0178  0.4633  0.5532
 5572SOL    HW219863   5.111   4.905   6.622  1.7501  0.1123 -0.5726
 5573SOL     OW19864   6.195   4.834   0.667  0.5778  0.0765  0.0634
 5573SOL    HW119865   6.163   4.781   0.740 -0.3039 -0.5072 -0.7232
 5573SOL    HW219866   6.215   4.771   0.598  1.4775  0.6136 -0.1894
 5574SOL     OW19867   7.259   1.788   2.085 -0.2061 -0.2652 -0.1170
 5574SOL    HW119868   7.320   1.774   2.012  2.3858 -1.5684  2.1353
 5574SOL    HW219869   7.189   1.842   2.047  2.3172  1.3745 -2.9082
 5575SOL     OW19870   0.315   2.262   1.802 -0.1296  0.4893 -0.2106
 5575SOL    HW119871   0.297   2.335   1.862 -0.2767  0.1901  0.1106
 5575SOL    HW219872   0.398   2.286   1.760  0.0441  0.6339  0.2111
 5576SOL     OW19873   5.871   7.669   0.186  0.5476 -0.3140  0.0934
 5576SOL    HW119874   5.924   7.624   0.120 -0.7359 -0.5344 -0.8352
 5576SOL    HW219875   5.836   7.746   0.141 -0.7543 -0.7369  0.3291
 5577SOL     OW19876   6.065   4.492   0.219  0.4380  0.1015  0.6427
 5577SOL    HW119877   6.097   4.581   0.232  1.0491  0.0152 -0.1779
 5577SOL    HW219878   6.136   4.436   0.251 -0.0251 -0.0967  1.3363
 5578SOL     OW19879   5.160   2.049   5.597  0.2115 -0.2083 -0.4937
 5578SOL    HW119880   5.120   2.109   5.534 -2.2054 -0.6952  0.4527
 5578SOL    HW219881   5.219   1.994   5.545  0.7694  1.4986 -1.7349
 5579SOL     OW19882   1.848   4.914   4.215 -0.1999  0.3659  0.2999
 5579SOL    HW119883   1.821   4.831   4.176 -0.0290  0.6746 -0.5114
 5579SOL    HW219884   1.941   4.904   4.233  0.0548  0.7159 -0.7423
 5580SOL     OW19885   4.251   5.756   1.165 -0.0426 -0.5164  0.3041
 5580SOL    HW119886   4.301   5.702   1.226  0.1695 -0.4464  0.1941
 5580SOL    HW219887   4.294   5.743   1.080  1.0551  1.0723  0.5613
 5581SOL     OW19888   6.863   5.470   7.881 -0.1216  0.2322 -0.1575
 5581SOL    HW119889   6.796   5.402   7.887  0.2477 -0.0347  2.7836
 5581SOL    HW219890   6.898   5.462   7.793 -1.1349 -2.4024 -0.4097
 5582SOL     OW19891   3.271   0.138   2.324 -0.0848 -0.1690  0.0456
 5582SOL    HW119892   3.361   0.159   2.301  0.2302 -0.0342  1.3325
 5582SOL    HW219893   3.224   0.221   2.319  0.0427 -0.0902  0.1521
 5583SOL     OW19894   1.797   2.662   5.327 -0.4081  0.5137  0.3654
 5583SOL    HW119895   1.743   2.695   5.255 -3.1411 -0.3033  1.9095
 5583SOL    HW219896   1.821   2.740   5.377 -0.3353  0.8616 -0.2003
 5584SOL     OW19897   2.047   5.045   1.478 -0.7076  0.1589  0.0458
 5584SOL    HW119898   2.084   4.965   1.443 -1.3606 -0.9689  1.8024
 5584SOL    HW219899   2.029   5.099   1.401  1.1884 -0.7063 -1.0636
 5585SOL     OW19900   7.230   4.464   0.649  0.6512  0.0078 -0.2776
 5585SOL    HW119901   7.314   4.474   0.605  0.3021  1.3635 -0.6735
 5585SOL    HW219902   7.186   4.394   0.600  1.7038 -1.0619  0.2404
 5586SOL     OW19903   2.774   1.046   1.804 -0.4662  0.4909 -0.0787
 5586SOL    HW119904   2.716   0.982   1.846 -0.0876 -0.9837 -1.6654
 5586SOL    HW219905   2.850   0.995   1.776 -0.3096  1.5285 -1.7311
 5587SOL     OW19906   1.787   2.172   0.668 -0.2210  0.5933 -0.1171
 5587SOL    HW119907   1.719   2.148   0.730 -1.5831  0.9577 -1.3989
 5587SOL    HW219908   1.852   2.219   0.720 -0.3788 -0.7354  1.3478
 5588SOL     OW19909   3.828   0.422   0.298 -0.0818 -0.9119 -0.2507
 5588SOL    HW119910   3.911   0.443   0.256 -0.6188 -0.1121 -0.9310
 5588SOL    HW219911   3.767   0.409   0.225 -0.2403 -2.9689  0.1803
 5589SOL     OW19912   0.575   4.879   6.823  0.0658 -0.1429  0.4945
 5589SOL    HW119913   0.624   4.865   6.904  0.6916 -1.6382 -0.1119
 5589SOL    HW219914   0.641   4.887   6.755 -0.4745  0.5407  0.0280
 5590SOL     OW19915   5.730   2.683   1.113  0.2639  0.0922  0.0752
 5590SOL    HW119916   5.755   2.591   1.120 -0.8915 -0.3637 -1.3085
 5590SOL    HW219917   5.634   2.682   1.108  0.0522  1.5602  2.3182
 5591SOL     OW19918   2.132   2.507   5.373 -0.1198  0.3953 -0.5812
 5591SOL    HW119919   2.078   2.492   5.295 -0.3283 -0.5536 -0.2702
 5591SOL    HW219920   2.220   2.481   5.346 -0.3625 -0.8871 -0.2421
 5592SOL     OW19921   1.514   6.785   0.850 -0.0539 -0.0485 -0.2204
 5592SOL    HW119922   1.512   6.878   0.830  0.7684  0.4104  1.6197
 5592SOL    HW219923   1.543   6.743   0.769 -1.4170  1.1526 -1.3936
 5593SOL     OW19924   6.960   0.919   0.989 -0.1763  0.3309  0.6948
 5593SOL    HW119925   6.982   0.888   1.077  0.2386  2.8021  1.5245
 5593SOL    HW219926   7.044   0.922   0.943  0.1466  2.2213  1.3328
 5594SOL     OW19927   3.673   1.242   7.346  0.4091 -0.5590  0.3774
 5594SOL    HW119928   3.757   1.229   7.390 -0.0706  0.5960  1.6760
 5594SOL    HW219929   3.695   1.288   7.266  1.0813 -0.9121  0.3470
 5595SOL     OW19930   0.868   6.684   5.321 -0.3024 -0.0069 -0.2507
 5595SOL    HW119931   0.847   6.764   5.273  0.1536  0.7879  0.8366
 5595SOL    HW219932   0.944   6.649   5.276 -1.9272 -1.2021 -2.2565
 5596SOL     OW19933   5.384   4.920   5.623  0.3538 -0.3699  0.1492
 5596SOL    HW119934   5.354   4.999   5.668 -1.0870 -1.1869  0.6857
 5596SOL    HW219935   5.374   4.940   5.530 -0.3770 -0.0450  0.2888
 5597SOL     OW19936   6.955   2.081   0.827 -0.5389  0.0874 -0.2674
 5597SOL    HW119937   6.991   1.999   0.795 -0.5413 -0.2432  0.5541
 5597SOL    HW219938   6.963   2.075   0.922 -0.5269  1.0406 -0.1965
 5598SOL     OW19939   0.666   0.143   3.591 -0.1803 -1.1680 -0.3181
 5598SOL    HW119940   0.672   0.212   3.658 -1.2507 -0.2849 -1.0883
 5598SOL    HW219941   0.685   0.188   3.509 -1.8379 -1.5539 -0.9501
 5599SOL     OW19942   2.289   0.649   7.976  0.5716 -0.2686  0.2442
 5599SOL    HW119943   2.329   0.663   7.890 -1.6279 -0.5507 -0.9215
 5599SOL    HW219944   2.349   0.590   8.021  0.8866 -1.6846 -1.8703
 5600SOL     OW19945   7.268   2.321   1.530  0.0130  0.0595 -0.1758
 5600SOL    HW119946   7.228   2.332   1.443 -0.2185 -2.9754 -0.5585
 5600SOL    HW219947   7.219   2.249   1.570  1.3541  0.1334  1.7395
 5601SOL     OW19948   1.823   0.954   3.024 -0.3748 -0.2818  0.3604
 5601SOL    HW119949   1.811   0.977   3.117  1.0780  0.4106  0.4139
 5601SOL    HW219950   1.769   1.018   2.977 -0.2024  0.1169  0.6947
 5602SOL     OW19951   0.086   7.916   1.656 -0.2972 -0.9733  0.1172
 5602SOL    HW119952   0.010   7.919   1.714 -0.7265  0.7691 -0.4686
 5602SOL    HW219953   0.144   7.985   1.687 -0.0888 -0.6596 -0.9067
 5603SOL     OW19954   2.992   2.033   0.829 -0.0945 -0.2360 -0.5447
 5603SOL    HW119955   2.951   2.059   0.911 -0.1812 -1.6969 -0.1046
 5603SOL    HW219956   2.934   2.069   0.761  0.6322  2.0533 -0.0355
 5604SOL     OW19957   6.257   4.350   3.821  0.6474 -0.1090 -0.2793
 5604SOL    HW119958   6.251   4.426   3.878  2.0015  0.0298 -0.2915
 5604SOL    HW219959   6.310   4.287   3.869  1.1192 -0.3065 -1.0325
 5605SOL     OW19960   1.808   6.017   6.262 -0.2844 -0.0849  0.3952
 5605SOL    HW119961   1.848   6.078   6.200  1.3414  1.1250  2.5203
 5605SOL    HW219962   1.879   5.957   6.285 -1.2577 -1.4131  0.0818
 5606SOL     OW19963   0.030   5.536   2.194 -0.4200 -0.4436  0.2179
 5606SOL    HW119964   0.093   5.483   2.242  1.2230  0.0961 -1.2103
 5606SOL    HW219965  -0.045   5.545   2.253  0.4574 -1.8780  1.6188
 5607SOL     OW19966   6.587   2.997   6.599  0.0426  0.3482 -0.0547
 5607SOL    HW119967   6.679   2.980   6.618  0.2214 -0.6922 -1.6638
 5607SOL    HW219968   6.583   3.092   6.582  0.9911  0.2640 -0.8245
 5608SOL     OW19969   5.356   4.820   0.743 -0.3516 -0.2584 -0.1903
 5608SOL    HW119970   5.407   4.742   0.764  1.3617  0.5540 -1.1993
 5608SOL    HW219971   5.330   4.855   0.828  3.3204  0.9386  0.5742
 5609SOL     OW19972   6.347   5.457   0.829 -0.1440  0.2927  0.2082
 5609SOL    HW119973   6.412   5.526   0.815 -0.5393  0.2731 -2.0241
 5609SOL    HW219974   6.379   5.383   0.777 -3.0209  1.0296 -2.9706
 5610SOL     OW19975   6.584   2.086   2.817 -0.6316  0.4680  0.3221
 5610SOL    HW119976   6.604   1.997   2.790 -1.0548  0.5955 -0.4505
 5610SOL    HW219977   6.572   2.134   2.735 -1.5221  0.9737  0.7263
 5611SOL     OW19978   1.297   6.861   6.734  0.1507 -1.2458  0.7241
 5611SOL    HW119979   1.251   6.856   6.818  0.9119 -0.8333  1.1681
 5611SOL    HW219980   1.387   6.834   6.754  1.3258  2.2962  0.8105
 5612SOL     OW19981   4.870   2.375   4.536 -0.1796 -0.3687 -0.2844
 5612SOL    HW119982   4.774   2.372   4.530 -0.1255 -1.1669 -0.8093
 5612SOL    HW219983   4.899   2.288   4.509  0.6011 -0.9057  2.1054
 5613SOL     OW19984   0.041   7.809   7.091  0.0435  0.0883  0.5763
 5613SOL    HW119985  -0.022   7.843   7.027 -1.3900 -2.6149  0.3971
 5613SOL    HW219986  -0.002   7.823   7.176  1.1647  2.0578  0.8867
 5614SOL     OW19987   4.964   5.466   4.085  0.4330 -0.1544  0.6396
 5614SOL    HW119988   4.944   5.559   4.080  0.3176 -0.1917  0.4171
 5614SOL    HW219989   4.911   5.426   4.017 -0.2187 -0.5034  1.3408
 5615SOL     OW19990   1.738   4.484   1.758  0.0667  0.4559 -0.5924
 5615SOL    HW119991   1.812   4.545   1.749 -0.6825  1.1685 -2.6118
 5615SOL    HW219992   1.676   4.513   1.691 -2.2721  0.1609  1.3279
 5616SOL     OW19993   2.113   7.165   2.885 -0.3439 -0.0333  0.0785
 5616SOL    HW119994   2.186   7.213   2.923  0.7190 -1.9208  0.5437
 5616SOL    HW219995   2.071   7.122   2.960 -2.2039  1.2951 -0.1185
 5617SOL     OW19996   7.930   5.662   3.276 -0.5894 -0.2584 -0.0273
 5617SOL    HW119997   7.915   5.567   3.275 -3.1302  0.0004  2.0608
 5617SOL    HW219998   7.892   5.693   3.194 -0.4110 -0.9647 -0.3834
 5618SOL     OW19999   4.462   2.512   7.033 -0.2149 -0.5687  0.4312
 5618SOL    HW120000   4.424   2.579   6.976  0.4612 -0.8016 -0.3067
 5618SOL    HW220001   4.503   2.561   7.104  0.7677 -0.1499 -0.3978
 5619SOL     OW20002   6.557   7.234   3.073  0.2197  0.4777  0.3373
 5619SOL    HW120003   6.498   7.299   3.034 -0.2876 -0.0814  0.1653
 5619SOL    HW220004   6.576   7.269   3.160 -0.7266  0.4544  0.5680
 5620SOL     OW20005   1.554   3.244   3.598 -0.4670  0.2451  0.5352
 5620SOL    HW120006   1.476   3.192   3.617 -0.3834  0.2124  0.7999
 5620SOL    HW220007   1.567   3.298   3.676 -0.2177  0.2394  0.5013
 5621SOL     OW20008   0.995   3.811   4.438  0.3131 -0.3932 -0.2844
 5621SOL    HW120009   0.994   3.833   4.532  4.3296  0.7960 -0.3262
 5621SOL    HW220010   0.939   3.878   4.398 -1.4873 -0.9243  1.1904
 5622SOL     OW20011   5.564   1.248   1.456 -0.0175 -0.2866 -0.1996
 5622SOL    HW120012   5.534   1.232   1.545  1.2133  0.8814  0.4339
 5622SOL    HW220013   5.531   1.335   1.434  0.5222 -0.1645 -0.5383
 5623SOL     OW20014   4.109   1.308   5.481 -0.1803 -0.2762 -0.2265
 5623SOL    HW120015   4.101   1.394   5.523 -0.9729 -0.3620 -0.1805
 5623SOL    HW220016   4.120   1.247   5.554  0.2573 -0.2251 -0.2513
 5624SOL     OW20017   2.715   4.542   4.154 -0.1591  0.6398 -0.2461
 5624SOL    HW120018   2.769   4.479   4.106  1.0473  0.7916  0.8590
 5624SOL    HW220019   2.648   4.488   4.197  0.3868  0.1915  0.0537
 5625SOL     OW20020   0.186   7.420   1.485  0.5666  0.1069  0.1002
 5625SOL    HW120021   0.110   7.364   1.467  0.7488  0.2786 -1.3057
 5625SOL    HW220022   0.153   7.509   1.477  0.7393  0.1817  0.2271
 5626SOL     OW20023   4.843   6.247   3.365 -0.0230  0.5185  0.0348
 5626SOL    HW120024   4.871   6.156   3.356 -0.9307  0.1608  0.6615
 5626SOL    HW220025   4.797   6.249   3.449  0.8093  1.7758  0.4784
 5627SOL     OW20026   3.270   4.458   1.856 -0.2364 -0.1498  0.0365
 5627SOL    HW120027   3.340   4.516   1.825 -0.2512 -0.4671 -0.6261
 5627SOL    HW220028   3.205   4.459   1.785 -0.2107 -1.0145 -0.0140
 5628SOL     OW20029   1.101   1.587   4.528 -0.0738 -0.3903 -0.4509
 5628SOL    HW120030   1.023   1.542   4.559  1.5733 -2.0821  1.4815
 5628SOL    HW220031   1.168   1.519   4.522  2.0150  1.4104  0.7227
 5629SOL     OW20032   2.970   6.086   5.867 -0.2496  0.0684 -0.0691
 5629SOL    HW120033   2.950   6.083   5.774 -1.3540  3.1022 -0.0255
 5629SOL    HW220034   3.046   6.145   5.873  3.0255 -3.7498  0.6754
 5630SOL     OW20035   1.599   7.987   6.052 -0.8033 -0.2400 -0.6348
 5630SOL    HW120036   1.528   8.040   6.017 -1.1598 -1.4861 -1.8930
 5630SOL    HW220037   1.634   7.941   5.976  0.9720 -0.1059  0.0523
 5631SOL     OW20038   0.086   7.582   0.925 -0.2780  0.5012 -0.2589
 5631SOL    HW120039   0.103   7.509   0.865  1.2815  1.0209 -0.5108
 5631SOL    HW220040   0.129   7.556   1.007 -0.2143  0.8724 -0.1742
 5632SOL     OW20041   2.452   0.782   1.183  0.0242 -0.3320  0.1521
 5632SOL    HW120042   2.503   0.824   1.113  1.4747 -0.8170  0.8759
 5632SOL    HW220043   2.455   0.689   1.162 -1.5925 -0.2726 -0.4276
 5633SOL     OW20044   4.946   3.436   7.556 -0.1750 -0.5640 -0.3945
 5633SOL    HW120045   4.963   3.516   7.506  1.1598 -1.5616 -1.6033
 5633SOL    HW220046   4.857   3.411   7.532  0.2934 -0.7873 -1.9572
 5634SOL     OW20047   5.878   1.854   7.420 -0.2263 -0.5777 -0.1626
 5634SOL    HW120048   5.971   1.877   7.421 -0.7340  1.6892  0.0013
 5634SOL    HW220049   5.841   1.901   7.494 -1.3539 -2.3170  0.4388
 5635SOL     OW20050   3.074   2.221   4.782  0.0926 -0.1303 -0.6385
 5635SOL    HW120051   3.156   2.217   4.830  0.1711 -1.4911 -0.8456
 5635SOL    HW220052   3.045   2.130   4.776 -0.6374  0.1597 -1.9245
 5636SOL     OW20053   7.556   5.459   4.162  0.1629 -0.2519  0.3274
 5636SOL    HW120054   7.500   5.422   4.230 -1.4256  1.6626  0.1560
 5636SOL    HW220055   7.637   5.483   4.207  1.2205 -3.6313  0.4614
 5637SOL     OW20056   6.778   1.989   1.611  0.2037 -0.6162 -0.0959
 5637SOL    HW120057   6.694   1.945   1.627  0.2119 -0.7067 -0.2985
 5637SOL    HW220058   6.770   2.025   1.523  0.2178 -0.2521  0.0475
 5638SOL     OW20059   0.093   1.381   2.567 -0.2729  0.2743  0.3990
 5638SOL    HW120060   0.041   1.453   2.530  1.3266  0.7665 -1.0024
 5638SOL    HW220061   0.100   1.402   2.660  1.3920  2.8035 -0.2003
 5639SOL     OW20062   5.728   1.096   7.176 -0.2366  0.0497 -0.8048
 5639SOL    HW120063   5.794   1.165   7.184  0.8224 -0.7333 -2.3690
 5639SOL    HW220064   5.722   1.059   7.264 -1.5619  2.7023  0.3486
 5640SOL     OW20065   2.127   6.242   4.485 -0.0132 -0.0650  0.4272
 5640SOL    HW120066   2.128   6.173   4.551  0.4521  1.0268  1.6226
 5640SOL    HW220067   2.071   6.310   4.523 -0.2636  0.3131 -0.6009
 5641SOL     OW20068   3.658   7.714   5.817  0.5179  0.8004 -0.1636
 5641SOL    HW120069   3.623   7.803   5.806 -1.9153 -0.3429 -2.9462
 5641SOL    HW220070   3.597   7.672   5.879  1.1686  0.8100  0.4918
 5642SOL     OW20071   0.550   2.996   2.027 -0.6114  0.1501  0.2745
 5642SOL    HW120072   0.530   3.062   2.094 -1.5612 -2.4058  2.7198
 5642SOL    HW220073   0.642   2.974   2.041 -1.0573 -1.0914  1.5458
 5643SOL     OW20074   6.396   1.636   1.423  0.4221 -0.3878 -0.3839
 5643SOL    HW120075   6.375   1.543   1.418  0.9130 -0.4752 -0.9001
 5643SOL    HW220076   6.411   1.652   1.516  2.0406 -1.2128 -0.4633
 5644SOL     OW20077   4.111   5.841   0.126  0.9511  0.3186  0.3847
 5644SOL    HW120078   4.019   5.817   0.112  1.2460  0.5124 -2.5008
 5644SOL    HW220079   4.108   5.928   0.165 -0.0807  0.0900  0.8403
 5645SOL     OW20080   2.973   2.565   0.260 -0.2184 -0.4976  0.2970
 5645SOL    HW120081   3.062   2.590   0.286 -0.3399  1.3244 -0.8895
 5645SOL    HW220082   2.985   2.490   0.201  0.4066 -1.1247  1.1904
 5646SOL     OW20083   3.234   3.158   1.640 -0.4782 -0.3029 -0.7287
 5646SOL    HW120084   3.189   3.209   1.573 -1.3955 -1.2864 -0.8873
 5646SOL    HW220085   3.168   3.096   1.672  0.3006 -0.6885  0.2015
 5647SOL     OW20086   5.199   5.970   0.220 -0.1508 -0.5323  0.7174
 5647SOL    HW120087   5.260   6.043   0.211  0.3215 -1.2183 -2.9370
 5647SOL    HW220088   5.250   5.893   0.193 -1.9118 -1.5115  0.0647
 5648SOL     OW20089   4.690   1.208   4.155  0.0440 -0.0542  0.3358
 5648SOL    HW120090   4.739   1.127   4.169  1.5306  0.5623 -0.9955
 5648SOL    HW220091   4.599   1.185   4.175  0.8107 -1.2879  2.6915
 5649SOL     OW20092   2.551   4.572   3.589 -0.0513 -0.5114  0.0933
 5649SOL    HW120093   2.466   4.549   3.551 -0.0838 -0.9733  0.4330
 5649SOL    HW220094   2.552   4.527   3.674  1.3821 -2.3170 -0.7896
 5650SOL     OW20095   2.917   7.136   3.865 -0.0607 -0.0485  0.8463
 5650SOL    HW120096   2.876   7.134   3.951 -3.0723 -1.0077 -0.4792
 5650SOL    HW220097   2.970   7.057   3.861 -1.0822 -0.7792  1.3314
 5651SOL     OW20098   2.542   0.625   0.600  0.2784  0.2586 -1.0839
 5651SOL    HW120099   2.532   0.662   0.688  1.5665 -1.3277 -0.1878
 5651SOL    HW220100   2.494   0.542   0.604  1.5567 -0.5313 -1.3501
 5652SOL     OW20101   2.852   3.536   7.975 -0.7105  0.6792  0.5161
 5652SOL    HW120102   2.913   3.502   7.909 -0.1896  0.0504  1.3013
 5652SOL    HW220103   2.908   3.575   8.042 -1.1004 -0.5538  1.6090
 5653SOL     OW20104   6.471   7.138   1.218  0.3236  0.4365  0.5341
 5653SOL    HW120105   6.505   7.070   1.160 -1.5743  0.0620 -0.2146
 5653SOL    HW220106   6.405   7.184   1.166 -0.7907  0.6870  2.0746
 5654SOL     OW20107   7.988   6.581   6.379 -0.3796 -0.6576 -0.7490
 5654SOL    HW120108   8.073   6.575   6.423 -0.0984 -1.8062 -1.4129
 5654SOL    HW220109   7.931   6.524   6.429 -0.3598 -1.0638 -1.1814
 5655SOL     OW20110   3.305   1.030   7.720  0.0685 -0.2431 -0.3630
 5655SOL    HW120111   3.400   1.025   7.728 -0.0163  0.7354  1.8998
 5655SOL    HW220112   3.290   1.094   7.650  1.1199  1.0458  0.5372
 5656SOL     OW20113   1.100   2.630   0.432 -0.1214  0.3280 -0.2609
 5656SOL    HW120114   1.188   2.630   0.469 -1.1074  0.0814  2.2932
 5656SOL    HW220115   1.070   2.540   0.439 -0.0996  0.0621 -2.5570
 5657SOL     OW20116   5.391   6.089   6.563  0.2286 -0.2442 -0.1734
 5657SOL    HW120117   5.453   6.128   6.502  0.9833 -4.0594 -2.1309
 5657SOL    HW220118   5.315   6.068   6.509 -1.0353  0.4202  1.2777
 5658SOL     OW20119   1.770   6.442   6.420 -1.0652 -0.3004 -0.3525
 5658SOL    HW120120   1.854   6.485   6.431 -0.9062 -0.7359  0.2250
 5658SOL    HW220121   1.735   6.477   6.339  1.0315 -2.3180 -2.2827
 5659SOL     OW20122   2.235   6.324   7.775  0.0400 -0.0858  0.2003
 5659SOL    HW120123   2.207   6.232   7.772  2.1600 -0.7756  0.2140
 5659SOL    HW220124   2.193   6.363   7.698 -0.8168 -1.0739  0.1314
 5660SOL     OW20125   5.081   7.107   0.470 -0.4385 -0.0017 -0.2572
 5660SOL    HW120126   5.001   7.055   0.466 -1.1984  1.1050  0.0360
 5660SOL    HW220127   5.087   7.148   0.384 -1.2708  1.4399  0.3379
 5661SOL     OW20128   5.866   7.784   4.786  0.5338 -0.1048  0.2281
 5661SOL    HW120129   5.873   7.859   4.845 -2.6690  1.8533 -1.5918
 5661SOL    HW220130   5.920   7.807   4.711 -0.9618  0.7651 -0.6169
 5662SOL     OW20131   5.670   4.756   7.160  0.7413 -0.1671 -0.4280
 5662SOL    HW120132   5.759   4.724   7.171  0.9549 -0.0973 -1.8571
 5662SOL    HW220133   5.617   4.677   7.150  0.6474 -0.2037  0.3028
 5663SOL     OW20134   3.351   4.778   0.232 -0.8490 -0.7039  0.3140
 5663SOL    HW120135   3.385   4.866   0.214 -1.3387 -0.2503  1.4414
 5663SOL    HW220136   3.428   4.724   0.244 -0.5335 -0.2856  0.2108
 5664SOL     OW20137   6.293   7.810   7.293 -0.0109 -0.5024  0.2669
 5664SOL    HW120138   6.238   7.739   7.325 -0.5542 -1.7945 -3.0970
 5664SOL    HW220139   6.365   7.766   7.247 -0.2140  1.0357 -1.6825
 5665SOL     OW20140   3.533   3.776   5.839 -0.5100  0.0888  0.4656
 5665SOL    HW120141   3.526   3.868   5.866 -0.3473  0.6590 -1.2628
 5665SOL    HW220142   3.450   3.759   5.793  0.3286  0.0986 -1.1331
 5666SOL     OW20143   4.559   1.476   4.472  0.5550  0.2782  0.3499
 5666SOL    HW120144   4.521   1.414   4.533  2.7930 -1.4360  0.1230
 5666SOL    HW220145   4.591   1.548   4.527  0.6654 -0.2421  0.9722
 5667SOL     OW20146   2.131   4.745   5.028 -0.2232 -0.3705  0.1600
 5667SOL    HW120147   2.058   4.729   5.088 -0.0443  1.6650  1.0256
 5667SOL    HW220148   2.110   4.695   4.950 -2.7080  0.3904  0.2714
 5668SOL     OW20149   5.680   6.007   0.076  0.7424 -0.2031 -0.0543
 5668SOL    HW120150   5.709   6.063   0.148  1.9966 -0.3906 -0.3980
 5668SOL    HW220151   5.689   5.918   0.111  4.3017 -0.5033 -1.3733
 5669SOL     OW20152   2.603   6.100   6.264  0.0278  0.5743  0.8288
 5669SOL    HW120153   2.526   6.102   6.206 -1.4178 -0.6776  2.5841
 5669SOL    HW220154   2.656   6.027   6.231  0.0532  0.9155  0.1008
 5670SOL     OW20155   2.062   0.818   6.796 -0.6380  0.1644  0.3305
 5670SOL    HW120156   2.000   0.855   6.734 -0.2239  0.7139  0.2394
 5670SOL    HW220157   2.115   0.758   6.744 -0.8600 -0.0423  0.3389
 5671SOL     OW20158   4.369   2.723   3.043  0.4445  0.2753  0.5250
 5671SOL    HW120159   4.328   2.664   3.106 -0.3608  0.4684  0.1944
 5671SOL    HW220160   4.320   2.804   3.051 -0.2734  0.0152 -0.9981
 5672SOL     OW20161   5.169   7.605   5.017 -0.1046  0.0219  0.2588
 5672SOL    HW120162   5.172   7.572   4.928 -2.4865 -0.2974  0.2289
 5672SOL    HW220163   5.149   7.698   5.008 -0.6517 -0.0727  0.4454
 5673SOL     OW20164   7.076   6.938   5.402  0.4315  0.3263 -0.5176
 5673SOL    HW120165   7.045   6.913   5.315 -0.4133  3.5205 -1.2767
 5673SOL    HW220166   7.004   6.916   5.460  1.2315 -2.3915 -0.4180
 5674SOL     OW20167   6.753   0.734   4.621  0.6587  0.9737 -0.0418
 5674SOL    HW120168   6.740   0.679   4.699  0.1252 -0.0662 -0.8382
 5674SOL    HW220169   6.846   0.727   4.601  0.3717 -0.8376 -0.9575
 5675SOL     OW20170   4.660   1.679   8.065  0.0034 -0.0055  0.2314
 5675SOL    HW120171   4.744   1.633   8.061 -1.2794 -2.4861 -3.6405
 5675SOL    HW220172   4.600   1.616   8.102 -0.7727  0.5322 -0.0891
 5676SOL     OW20173   5.540   2.170   1.340  0.2961  0.4705 -0.0174
 5676SOL    HW120174   5.533   2.190   1.247  0.5530  1.1676  0.1118
 5676SOL    HW220175   5.451   2.147   1.367  0.2916 -0.1051 -0.5147
 5677SOL     OW20176   7.007   1.718   1.630  0.2482  0.0711  0.4206
 5677SOL    HW120177   6.925   1.692   1.587  0.2795 -1.6208  1.3238
 5677SOL    HW220178   7.072   1.718   1.559 -0.5047  1.5259 -0.3252
 5678SOL     OW20179   4.215   0.703   3.252 -0.3131 -0.1017 -0.4113
 5678SOL    HW120180   4.201   0.774   3.315  1.8138  0.6727 -0.7320
 5678SOL    HW220181   4.137   0.704   3.196 -0.7843  1.2739  0.2385
 5679SOL     OW20182   6.663   1.995   6.487 -0.1075 -0.3982  0.4062
 5679SOL    HW120183   6.580   2.043   6.492  0.9347  1.5280  0.0305
 5679SOL    HW220184   6.639   1.911   6.448 -1.9732 -0.1429  0.8944
 5680SOL     OW20185   5.956   5.190   1.584 -0.1576 -0.1698 -0.2854
 5680SOL    HW120186   5.910   5.260   1.631  0.1867 -0.0438 -0.1323
 5680SOL    HW220187   6.025   5.161   1.645  0.6528  0.3802 -0.9210
 5681SOL     OW20188   4.157   3.071   6.007  0.0486 -0.1088  0.0404
 5681SOL    HW120189   4.239   3.034   5.977  0.1701 -0.0931  0.3529
 5681SOL    HW220190   4.182   3.146   6.060 -0.1568 -0.2837  0.3893
 5682SOL     OW20191   6.287   6.009   6.145 -0.0644 -0.4579 -0.4422
 5682SOL    HW120192   6.274   5.989   6.238  2.2633 -0.8351 -0.1352
 5682SOL    HW220193   6.255   6.099   6.135 -0.8370 -0.5977  0.5782
 5683SOL     OW20194   4.984   7.620   5.693 -0.1223 -0.4082  0.3064
 5683SOL    HW120195   4.927   7.545   5.709 -0.2871 -0.6558 -1.2948
 5683SOL    HW220196   4.930   7.681   5.643  0.7665 -0.3095 -0.5667
 5684SOL     OW20197   6.525   5.778   5.645 -0.4023  0.1283 -0.1694
 5684SOL    HW120198   6.552   5.843   5.709  0.8919 -0.2317 -0.3205
 5684SOL    HW220199   6.445   5.741   5.681  0.7663 -0.6996  1.7202
 5685SOL     OW20200   7.373   3.477   7.144 -0.3236  0.3001 -0.2009
 5685SOL    HW120201   7.348   3.386   7.157 -2.2531  0.8464  0.2429
 5685SOL    HW220202   7.432   3.497   7.217  0.4960 -0.6870 -0.5629
 5686SOL     OW20203   6.974   2.263   5.606 -0.0771  0.7901  0.7297
 5686SOL    HW120204   7.068   2.276   5.588  0.1244 -0.1443  1.0321
 5686SOL    HW220205   6.967   2.170   5.628 -1.3518  0.4126 -1.0379
 5687SOL     OW20206   2.374   3.675   5.055  0.1133  0.6716  0.1856
 5687SOL    HW120207   2.283   3.703   5.044 -0.1904  0.2717  1.4757
 5687SOL    HW220208   2.426   3.745   5.016 -0.7343  1.0557 -0.2794
 5688SOL     OW20209   4.503   1.849   3.623 -0.0478  0.4335  0.2741
 5688SOL    HW120210   4.443   1.914   3.586  0.2565  0.7101  0.2709
 5688SOL    HW220211   4.560   1.899   3.682  0.3256  0.2060  0.1081
 5689SOL     OW20212   6.746   2.017   2.006  0.2123  0.2570 -0.5322
 5689SOL    HW120213   6.798   1.993   2.082  0.2473  0.2028 -0.5738
 5689SOL    HW220214   6.755   1.944   1.946 -0.4575 -0.0553 -0.2622
 5690SOL     OW20215   3.942   4.754   1.165  0.0580  0.5031 -0.2035
 5690SOL    HW120216   3.909   4.827   1.216  1.3725 -0.5942  2.4229
 5690SOL    HW220217   4.034   4.774   1.150  0.3463 -0.3989  0.2423
 5691SOL     OW20218   5.930   1.515   5.675 -0.2235 -0.0902 -0.4047
 5691SOL    HW120219   5.971   1.572   5.740 -0.7804  0.9991 -0.9687
 5691SOL    HW220220   5.863   1.467   5.724 -1.6570  1.8066 -0.4050
 5692SOL     OW20221   3.439   3.120   7.439  0.0458  0.3821 -0.1560
 5692SOL    HW120222   3.435   3.174   7.359 -3.2424 -1.2779 -1.2943
 5692SOL    HW220223   3.362   3.145   7.489 -0.2371 -1.5278  0.4440
 5693SOL     OW20224   1.578   5.939   6.890  0.6644  0.6259  0.2001
 5693SOL    HW120225   1.527   5.935   6.971  0.7927  0.1986  0.2657
 5693SOL    HW220226   1.515   5.965   6.823  0.7263  1.7751  0.5667
 5694SOL     OW20227   6.992   6.606   1.900 -0.4549 -0.0039  0.1100
 5694SOL    HW120228   6.961   6.696   1.914 -1.9639 -0.4615 -0.1847
 5694SOL    HW220229   7.026   6.579   1.986 -1.2916  0.3610  0.5640
 5695SOL     OW20230   6.819   1.913   4.326 -0.0618 -0.0796 -0.1943
 5695SOL    HW120231   6.739   1.932   4.376  0.9352  1.5339  0.8846
 5695SOL    HW220232   6.794   1.842   4.267 -2.4515  0.7607 -0.3003
 5696SOL     OW20233   4.141   7.290   7.578  0.1054  0.7840  0.1016
 5696SOL    HW120234   4.181   7.326   7.499 -0.5377  0.7970 -0.2271
 5696SOL    HW220235   4.160   7.355   7.646 -0.2309  1.2908 -0.2761
 5697SOL     OW20236   0.321   0.215   6.183 -0.7066 -0.0724 -0.0837
 5697SOL    HW120237   0.309   0.187   6.092  1.1414 -1.5767  0.0672
 5697SOL    HW220238   0.373   0.146   6.223  0.4373  1.6053  1.5172
 5698SOL     OW20239   5.207   2.643   6.139 -0.5080  0.4520 -0.1665
 5698SOL    HW120240   5.174   2.732   6.123 -1.2997  0.4071  1.0781
 5698SOL    HW220241   5.247   2.617   6.056 -0.7737  1.7516 -0.7265
 5699SOL     OW20242   6.557   3.383   2.397  0.0290 -0.0482  0.2725
 5699SOL    HW120243   6.566   3.310   2.458 -0.1081  1.0785  1.7023
 5699SOL    HW220244   6.481   3.361   2.343  1.5836 -2.2054 -1.2080
 5700SOL     OW20245   3.968   7.212   7.146 -0.2559 -0.3069  0.2907
 5700SOL    HW120246   3.943   7.123   7.171 -1.5408  0.7142  3.0853
 5700SOL    HW220247   3.888   7.249   7.109 -0.0399 -0.0071  0.1308
 5701SOL     OW20248   1.249   0.067   3.848 -0.3855 -0.2986  0.2862
 5701SOL    HW120249   1.319   0.003   3.839 -2.1449 -2.2275 -0.6292
 5701SOL    HW220250   1.288   0.150   3.820  1.9874 -0.8810  1.5563
 5702SOL     OW20251   3.324   1.656   5.788 -0.1946  0.4395 -0.1869
 5702SOL    HW120252   3.278   1.685   5.710  0.8735  1.9704 -0.2986
 5702SOL    HW220253   3.414   1.640   5.758  0.3280  1.4255  0.7554
 5703SOL     OW20254   5.495   3.142   7.515  0.5394 -0.1404  0.1314
 5703SOL    HW120255   5.496   3.049   7.540 -0.6165 -0.5178 -1.0758
 5703SOL    HW220256   5.583   3.159   7.482  0.8957 -0.6789  0.7788
 5704SOL     OW20257   1.781   1.480   5.283 -0.0655  0.2185 -0.6204
 5704SOL    HW120258   1.735   1.415   5.335 -1.0002  1.8023  0.6282
 5704SOL    HW220259   1.718   1.506   5.215 -0.2111  0.8154 -0.2596
 5705SOL     OW20260   7.296   7.817   6.851  0.2878  0.0183 -0.4324
 5705SOL    HW120261   7.311   7.911   6.839 -0.4439 -0.1409 -3.2768
 5705SOL    HW220262   7.236   7.793   6.781  2.0487 -2.9826 -1.1108
 5706SOL     OW20263   3.009   2.291   4.462 -0.0238  0.0766 -0.3406
 5706SOL    HW120264   3.073   2.277   4.393 -0.8550 -0.9152 -0.9453
 5706SOL    HW220265   2.977   2.204   4.483 -1.0665  0.5303  0.0425
 5707SOL     OW20266   3.207   7.402   3.702  0.6636  0.2410  0.2700
 5707SOL    HW120267   3.203   7.450   3.619  1.6757  0.6659  0.4585
 5707SOL    HW220268   3.279   7.340   3.690  0.7858  0.2756  0.8074
 5708SOL     OW20269   3.498   7.258   8.036  0.3278 -0.0895 -0.4772
 5708SOL    HW120270   3.501   7.290   8.126  0.4483 -3.6217  0.9246
 5708SOL    HW220271   3.406   7.263   8.012  0.1641  0.0712  0.1615
 5709SOL     OW20272   2.589   4.617   7.869 -0.3572  0.4368  0.3894
 5709SOL    HW120273   2.641   4.669   7.931  2.1883 -2.4449  0.9389
 5709SOL    HW220274   2.628   4.636   7.784  1.6046 -1.4856  0.7655
 5710SOL     OW20275   0.350   2.112   3.235 -0.2027  0.0287 -0.1266
 5710SOL    HW120276   0.266   2.089   3.275 -1.2394  0.1629 -2.0571
 5710SOL    HW220277   0.386   2.029   3.204  0.5015 -0.0549  0.8813
 5711SOL     OW20278   5.854   1.147   8.048  0.5386 -0.0784 -0.2949
 5711SOL    HW120279   5.777   1.112   8.004  0.1633 -0.9020  0.9556
 5711SOL    HW220280   5.917   1.164   7.978 -0.0750 -1.2234 -1.1450
 5712SOL     OW20281   2.594   5.906   2.968 -0.0051 -0.6209  0.2860
 5712SOL    HW120282   2.677   5.928   2.926  1.2455  2.4676  3.8089
 5712SOL    HW220283   2.538   5.982   2.950 -0.3241 -0.4551  1.8590
 5713SOL     OW20284   2.843   3.170   1.138 -0.0171 -0.2237  0.1901
 5713SOL    HW120285   2.839   3.101   1.205 -1.7296  0.7851  1.1961
 5713SOL    HW220286   2.759   3.215   1.144  0.1233  0.4760 -2.0810
 5714SOL     OW20287   6.584   6.862   2.078  0.1938  0.1592 -0.8745
 5714SOL    HW120288   6.634   6.890   2.155  0.4119 -1.6868 -0.3086
 5714SOL    HW220289   6.502   6.827   2.113 -1.1799  2.2613 -1.7339
 5715SOL     OW20290   7.136   1.221   7.048 -0.0655 -0.3180 -0.1642
 5715SOL    HW120291   7.172   1.277   7.117 -0.0666  0.0698 -0.4743
 5715SOL    HW220292   7.208   1.212   6.985 -0.2789 -0.1362 -0.4317
 5716SOL     OW20293   6.217   7.525   7.086 -0.4231  0.7073  0.3570
 5716SOL    HW120294   6.255   7.480   7.011 -1.6320 -0.5344  0.4505
 5716SOL    HW220295   6.183   7.455   7.142 -0.7024  1.6592  1.4350
 5717SOL     OW20296   0.928   2.601   4.201  0.0099  0.3229 -0.9634
 5717SOL    HW120297   0.940   2.679   4.255  1.9756  0.2162 -1.1803
 5717SOL    HW220298   0.911   2.530   4.263 -0.9967  0.7591 -0.7203
 5718SOL     OW20299   7.610   5.717   5.239 -0.5698 -0.0953 -0.0451
 5718SOL    HW120300   7.622   5.625   5.217 -1.1739 -0.5702  1.4691
 5718SOL    HW220301   7.634   5.723   5.332 -0.0325  1.3760 -0.2540
 5719SOL     OW20302   0.544   5.116   0.341 -0.4234  0.0244 -0.0475
 5719SOL    HW120303   0.595   5.187   0.302 -1.4867  0.8725  0.0424
 5719SOL    HW220304   0.609   5.055   0.376  0.5326 -0.2293 -2.1778
 5720SOL     OW20305   1.921   7.386   6.828  0.2385  0.2110  0.2140
 5720SOL    HW120306   1.880   7.382   6.914 -0.0188 -3.4497  0.0768
 5720SOL    HW220307   1.878   7.460   6.785 -0.4876  1.3866  2.7602
 5721SOL     OW20308   7.175   4.454   2.782 -0.0797 -0.2552  0.6290
 5721SOL    HW120309   7.225   4.533   2.806  0.1993 -0.1812 -0.1600
 5721SOL    HW220310   7.217   4.384   2.831  1.6991 -0.4235 -0.9972
 5722SOL     OW20311   7.609   5.171   0.390  0.0526 -0.2280 -0.0645
 5722SOL    HW120312   7.671   5.099   0.376  1.1159  0.2426  1.7567
 5722SOL    HW220313   7.663   5.250   0.381 -1.0923  0.3783 -2.0032
 5723SOL     OW20314   2.457   6.446   4.579 -0.5499 -0.8558  0.5190
 5723SOL    HW120315   2.461   6.525   4.634 -0.3314  1.1767 -2.2142
 5723SOL    HW220316   2.436   6.375   4.640  2.0611  0.7608  3.6206
 5724SOL     OW20317   1.526   7.044   1.808 -0.1357 -0.2394 -0.3938
 5724SOL    HW120318   1.567   6.986   1.743 -0.9733  0.6804 -1.7800
 5724SOL    HW220319   1.456   7.088   1.760 -0.7590  0.5041  1.1422
 5725SOL     OW20320   1.422   4.167   4.839 -0.1762 -0.1210 -0.3358
 5725SOL    HW120321   1.441   4.086   4.792  0.8932  1.1043 -2.1526
 5725SOL    HW220322   1.464   4.236   4.786  0.7006  1.4210  2.1729
 5726SOL     OW20323   1.968   1.768   0.472  0.0785 -0.3034  0.0507
 5726SOL    HW120324   1.894   1.707   0.468 -0.3922  0.2168  0.7131
 5726SOL    HW220325   1.960   1.821   0.393  0.7543 -1.3716 -0.7761
 5727SOL     OW20326   3.493   1.238   4.885 -0.0106 -0.3102 -0.5924
 5727SOL    HW120327   3.537   1.308   4.934  0.5516 -0.7112 -0.5145
 5727SOL    HW220328   3.478   1.275   4.798 -1.0781  0.4367 -0.1096
 5728SOL     OW20329   7.655   5.051   4.202  0.0838  0.0748 -0.6239
 5728SOL    HW120330   7.707   5.083   4.128 -0.3716 -1.7629 -1.8150
 5728SOL    HW220331   7.650   4.956   4.189 -0.6473 -0.2266  1.3816
 5729SOL     OW20332   1.416   0.003   1.247  0.1973 -0.1909 -0.5261
 5729SOL    HW120333   1.380   0.087   1.217  0.5713  0.0970 -0.1761
 5729SOL    HW220334   1.488  -0.015   1.187  1.0156  0.4387  0.2415
 5730SOL     OW20335   5.323   7.063   4.903 -0.3328 -0.5763 -0.0545
 5730SOL    HW120336   5.408   7.090   4.869 -0.3889  1.0443  1.0084
 5730SOL    HW220337   5.261   7.086   4.834 -0.1217  0.0132 -0.0477
 5731SOL     OW20338   2.541   5.045   1.584 -0.1255 -0.0634 -0.7529
 5731SOL    HW120339   2.560   5.081   1.670  2.2871 -0.0335 -1.2184
 5731SOL    HW220340   2.518   5.121   1.530  0.7042  0.2575 -0.6780
 5732SOL     OW20341   7.093   5.386   4.024  0.3945 -0.2576 -0.1924
 5732SOL    HW120342   7.053   5.443   3.959  0.6967 -0.1863 -0.3215
 5732SOL    HW220343   7.152   5.330   3.974 -0.0484 -0.8148 -0.0872
 5733SOL     OW20344   5.303   5.851   6.353  0.1437  0.2689 -0.0753
 5733SOL    HW120345   5.292   5.872   6.260 -1.0410  0.5167  0.1052
 5733SOL    HW220346   5.274   5.761   6.361 -1.0226  0.6538  0.2601
 5734SOL     OW20347   7.681   6.411   3.111 -0.4058  0.1675 -0.1213
 5734SOL    HW120348   7.649   6.328   3.145 -0.5963  0.7957  1.3183
 5734SOL    HW220349   7.645   6.417   3.022 -1.6252 -0.6030  0.2978
 5735SOL     OW20350   6.481   0.760   2.585 -0.2402  0.4247 -0.2708
 5735SOL    HW120351   6.423   0.771   2.509 -0.5691  1.5895  0.1228
 5735SOL    HW220352   6.458   0.833   2.643  1.8752  1.1320 -0.2601
 5736SOL     OW20353   2.728   2.030   7.514 -0.0262  0.3196 -0.6087
 5736SOL    HW120354   2.732   1.937   7.491  0.4066 -0.4455  2.2227
 5736SOL    HW220355   2.818   2.061   7.504 -0.2979  0.6628 -2.2343
 5737SOL     OW20356   0.241   3.890   5.911  0.1924 -0.2259  0.2005
 5737SOL    HW120357   0.160   3.922   5.872  0.2039  0.4847  0.7353
 5737SOL    HW220358   0.212   3.828   5.979  0.0139  0.9708  1.2602
 5738SOL     OW20359   4.311   3.080   7.606  0.7350  0.1482  0.1774
 5738SOL    HW120360   4.268   3.123   7.681 -1.1842  0.7054 -1.1636
 5738SOL    HW220361   4.291   2.987   7.618  1.1428  0.1312  0.7787
 5739SOL     OW20362   1.247   0.192   5.407 -0.3410  0.2303 -0.0726
 5739SOL    HW120363   1.191   0.263   5.375  0.8359  0.6635 -1.3099
 5739SOL    HW220364   1.255   0.133   5.333  2.3345  1.1705 -0.6634
 5740SOL     OW20365   1.671   3.504   4.296 -0.1379  0.2791 -0.0281
 5740SOL    HW120366   1.699   3.493   4.387 -0.0825 -0.3708 -0.1220
 5740SOL    HW220367   1.589   3.553   4.302  0.1285  0.6843  0.3421
 5741SOL     OW20368   0.628   2.967   1.050  0.4778  0.7233 -0.5098
 5741SOL    HW120369   0.536   2.940   1.051  0.8608 -0.7722 -2.0244
 5741SOL    HW220370   0.636   3.027   1.125 -1.1670 -0.9079  1.0734
 5742SOL     OW20371   6.624   4.488   7.096  0.3497  0.3151  0.0050
 5742SOL    HW120372   6.715   4.459   7.088 -0.0328 -0.6780 -1.1447
 5742SOL    HW220373   6.574   4.425   7.044 -0.8822  1.4462 -0.2518
 5743SOL     OW20374   5.359   4.499   1.599 -0.2684 -0.5771  0.0227
 5743SOL    HW120375   5.374   4.429   1.536  2.9265 -1.3707  1.4564
 5743SOL    HW220376   5.329   4.453   1.678 -0.2659 -0.0669  0.3225
 5744SOL     OW20377   3.179   2.342   6.186 -0.1439  0.5746  0.1584
 5744SOL    HW120378   3.169   2.424   6.138 -0.5031  0.3725 -0.1183
 5744SOL    HW220379   3.136   2.359   6.270 -2.4402 -0.0947 -0.8017
 5745SOL     OW20380   3.943   3.949   3.581 -0.0745  0.2021  0.1302
 5745SOL    HW120381   3.936   3.922   3.672 -0.2096  1.1773  0.4203
 5745SOL    HW220382   3.893   3.883   3.533  0.3470 -0.5535  0.7011
 5746SOL     OW20383   6.480   2.381   3.451  0.2911  0.0163  0.3974
 5746SOL    HW120384   6.474   2.288   3.476  0.2166  0.3967  1.9241
 5746SOL    HW220385   6.508   2.379   3.360 -0.0776 -1.5167  0.2792
 5747SOL     OW20386   1.677   5.220   3.401 -0.4481 -0.4887  0.0294
 5747SOL    HW120387   1.730   5.183   3.330 -0.5466  1.0392 -0.9103
 5747SOL    HW220388   1.736   5.282   3.444 -0.6332 -0.8353  0.7947
 5748SOL     OW20389   1.959   3.378   6.486 -0.5105  0.3737 -0.5586
 5748SOL    HW120390   1.941   3.368   6.393 -0.8739  0.9520 -0.5573
 5748SOL    HW220391   2.055   3.385   6.491 -0.5041  0.5956 -0.9205
 5749SOL     OW20392   5.255   4.178   2.017  0.2549  0.0585  0.3039
 5749SOL    HW120393   5.319   4.115   1.985  0.1815  0.7211 -1.2152
 5749SOL    HW220394   5.177   4.163   1.964 -0.2047  0.5626  0.8140
 5750SOL     OW20395   2.563   2.326   4.334  0.0596 -0.2029 -0.4391
 5750SOL    HW120396   2.631   2.268   4.299 -0.9674 -0.5034 -2.0414
 5750SOL    HW220397   2.510   2.349   4.258 -1.2759  0.5154  0.6691
 5751SOL     OW20398   0.670   4.321   2.816 -0.2044  0.3576  0.3403
 5751SOL    HW120399   0.741   4.385   2.807  0.2104 -0.1614 -0.2356
 5751SOL    HW220400   0.627   4.343   2.898  0.7038  0.6153  0.7579
 5752SOL     OW20401   6.444   2.095   3.458  0.2665 -0.0849  0.7069
 5752SOL    HW120402   6.463   2.089   3.552  1.5747 -0.5325  0.4468
 5752SOL    HW220403   6.517   2.049   3.417  0.7070  1.6840 -0.6193
 5753SOL     OW20404   0.577   0.983   1.609 -0.2659 -0.2173 -0.0944
 5753SOL    HW120405   0.563   1.070   1.648 -2.8834  0.4143 -2.1205
 5753SOL    HW220406   0.542   0.922   1.674 -0.7296  0.4542  0.3041
 5754SOL     OW20407   3.072   1.322   0.478  0.5213  0.3174  0.0305
 5754SOL    HW120408   3.127   1.395   0.448  1.3593  0.0851  0.9562
 5754SOL    HW220409   3.025   1.358   0.553 -0.4298  0.4395 -0.6106
 5755SOL     OW20410   6.634   1.100   7.190 -0.4287 -0.0598 -1.1731
 5755SOL    HW120411   6.690   1.023   7.198  1.8252  1.6288  0.4259
 5755SOL    HW220412   6.612   1.123   7.280 -1.7760  0.6950 -1.6686
 5756SOL     OW20413   0.055   2.067   6.565 -0.2347 -0.3951  0.6824
 5756SOL    HW120414   0.099   2.007   6.625 -0.8090 -1.5057  0.0174
 5756SOL    HW220415  -0.035   2.033   6.559  0.4556 -2.0222 -2.9135
 5757SOL     OW20416   1.127   7.584   4.966 -0.0605 -0.1073 -0.0251
 5757SOL    HW120417   1.056   7.542   4.918  1.2671 -0.4412 -1.8358
 5757SOL    HW220418   1.180   7.511   4.999 -0.5367  0.1344  1.3092
 5758SOL     OW20419   5.918   6.579   0.084 -0.1548  0.5214  0.0089
 5758SOL    HW120420   5.902   6.521   0.158 -0.5920 -0.0081 -0.4839
 5758SOL    HW220421   5.923   6.666   0.122 -1.1870  0.3529  0.5748
 5759SOL     OW20422   0.613   6.126   4.799  0.1307  0.3149 -0.2711
 5759SOL    HW120423   0.619   6.187   4.873  2.6247 -1.3034  1.0394
 5759SOL    HW220424   0.616   6.181   4.721  1.1466  1.9270  0.8461
 5760SOL     OW20425   4.229   2.052   6.986 -0.3749 -0.5003  0.0469
 5760SOL    HW120426   4.177   2.088   7.058 -0.0568 -0.5590  0.3125
 5760SOL    HW220427   4.315   2.037   7.025 -0.0066  0.0837 -0.5160
 5761SOL     OW20428   0.257   0.513   2.601 -0.2754 -0.6003  0.3577
 5761SOL    HW120429   0.205   0.568   2.543  1.1985 -0.7002 -1.1188
 5761SOL    HW220430   0.216   0.523   2.687 -1.4125  0.9811 -0.3330
 5762SOL     OW20431   1.846   0.391   7.225 -0.9619  0.0194 -0.1080
 5762SOL    HW120432   1.908   0.391   7.153  1.4632 -0.6739  1.8495
 5762SOL    HW220433   1.797   0.472   7.215  0.0757  0.4649 -1.8803
 5763SOL     OW20434   5.442   7.341   6.839 -0.0423 -0.4002  0.5860
 5763SOL    HW120435   5.348   7.362   6.845 -0.3862 -0.9676 -1.9203
 5763SOL    HW220436   5.445   7.246   6.829  0.6777 -0.2571 -0.7769
 5764SOL     OW20437   5.500   0.974   4.386  0.3217 -0.1752  0.1611
 5764SOL    HW120438   5.577   0.986   4.441  0.8560 -0.6423 -0.4844
 5764SOL    HW220439   5.456   1.060   4.388  0.1733 -0.2638  1.5290
 5765SOL     OW20440   0.078   0.109   1.731 -0.3651  0.2427 -0.2624
 5765SOL    HW120441   0.111   0.191   1.694  1.2380 -0.2369  0.0274
 5765SOL    HW220442   0.154   0.069   1.774 -0.7286 -2.0533 -1.5519
 5766SOL     OW20443   2.642   4.292   6.427 -0.4105 -1.1382  0.1561
 5766SOL    HW120444   2.708   4.326   6.487 -0.1892 -1.6629  0.2152
 5766SOL    HW220445   2.679   4.209   6.397 -0.0448 -0.4214 -1.4830
 5767SOL     OW20446   6.675   2.298   3.702  0.0116  0.3056  0.1440
 5767SOL    HW120447   6.579   2.297   3.700 -0.0322 -0.8682 -2.2471
 5767SOL    HW220448   6.699   2.206   3.714  0.7477  0.1665 -1.9825
 5768SOL     OW20449   5.396   5.037   0.556  0.1257  0.0102  0.3267
 5768SOL    HW120450   5.405   4.960   0.613  0.6448  0.5079  0.9362
 5768SOL    HW220451   5.481   5.044   0.513  0.2469  0.5127  0.6353
 5769SOL     OW20452   5.799   2.528   1.738 -0.4106  0.0975 -0.6164
 5769SOL    HW120453   5.849   2.570   1.669  2.0182 -3.8475 -1.5777
 5769SOL    HW220454   5.721   2.583   1.748  0.8712  2.8716 -3.8148
 5770SOL     OW20455   0.994   5.420   7.246 -0.0588  0.0882  0.0643
 5770SOL    HW120456   0.959   5.449   7.161 -1.0155 -0.0658  0.3964
 5770SOL    HW220457   0.931   5.355   7.277 -0.3445  0.9686  1.4262
 5771SOL     OW20458   5.369   1.161   6.137 -0.5885  0.4097 -0.1140
 5771SOL    HW120459   5.291   1.130   6.181 -0.2806  0.3103  0.3742
 5771SOL    HW220460   5.418   1.207   6.206 -0.8982  1.7197 -0.7458
 5772SOL     OW20461   2.003   5.567   6.517 -0.1937  0.6696 -0.1394
 5772SOL    HW120462   1.939   5.506   6.553  1.4377 -1.5365 -0.7118
 5772SOL    HW220463   2.083   5.549   6.566  0.9499  0.6550 -1.9194
 5773SOL     OW20464   6.885   6.883   3.700  0.3355  0.0338  0.6389
 5773SOL    HW120465   6.819   6.882   3.769 -0.0624 -0.1484  0.2580
 5773SOL    HW220466   6.966   6.859   3.745 -0.2706 -2.1424  0.7041
 5774SOL     OW20467   1.499   4.170   0.180  0.7601  0.1426 -0.3149
 5774SOL    HW120468   1.561   4.244   0.179 -1.2413  1.9097 -1.1618
 5774SOL    HW220469   1.432   4.198   0.242 -0.5022 -0.5504 -1.3420
 5775SOL     OW20470   2.415   1.875   0.691 -0.0016  0.1094  0.1945
 5775SOL    HW120471   2.321   1.859   0.686 -0.1324  0.3431  1.6169
 5775SOL    HW220472   2.448   1.845   0.606 -1.2871 -0.3659 -0.1709
 5776SOL     OW20473   7.534   3.710   7.606  0.6795  0.3562  0.2634
 5776SOL    HW120474   7.495   3.788   7.566  0.6062  0.7349  1.0535
 5776SOL    HW220475   7.497   3.708   7.694  2.0273  0.4128  0.8463
 5777SOL     OW20476   4.688   4.381   6.824  0.4362 -0.6769  0.2231
 5777SOL    HW120477   4.676   4.440   6.749  0.5053  0.5452  1.1375
 5777SOL    HW220478   4.601   4.345   6.840 -0.2902  1.3530  1.3413
 5778SOL     OW20479   1.243   3.396   3.864  0.0151  0.1394  0.6868
 5778SOL    HW120480   1.219   3.306   3.839 -3.1585  1.4230 -1.5029
 5778SOL    HW220481   1.330   3.387   3.904  0.5643 -3.6560 -0.9096
 5779SOL     OW20482   3.052   5.697   1.241  0.1238 -0.2200  0.0734
 5779SOL    HW120483   2.987   5.744   1.293 -0.6684 -0.3524 -0.7507
 5779SOL    HW220484   3.019   5.606   1.239  1.3877 -0.7254  1.2720
 5780SOL     OW20485   0.143   0.579   1.123 -0.2738 -0.8756 -0.3529
 5780SOL    HW120486   0.074   0.513   1.125 -0.9958 -0.2225 -2.1685
 5780SOL    HW220487   0.113   0.646   1.185 -1.0848 -0.7839 -0.8292
 5781SOL     OW20488   2.016   0.871   0.533  0.0472  0.3971 -0.2133
 5781SOL    HW120489   2.035   0.960   0.505  0.2793  0.4815  0.2096
 5781SOL    HW220490   2.071   0.816   0.477  0.9679  0.5976  0.4710
 5782SOL     OW20491   6.871   1.550   4.530  0.2907 -0.2049  0.1609
 5782SOL    HW120492   6.897   1.635   4.565 -0.1784 -0.6638  1.7049
 5782SOL    HW220493   6.783   1.564   4.497  0.9095  0.3492 -1.3660
 5783SOL     OW20494   6.396   4.998   0.639  0.1878  0.5991  0.1778
 5783SOL    HW120495   6.318   4.944   0.652 -1.4552  3.0162  0.9736
 5783SOL    HW220496   6.429   4.971   0.553 -1.6891 -0.2845 -0.3213
 5784SOL     OW20497   4.154   3.352   7.513 -0.0902  0.3273 -0.1438
 5784SOL    HW120498   4.113   3.277   7.557  0.8905  0.4095  0.9600
 5784SOL    HW220499   4.245   3.325   7.499  0.0932  1.0360 -0.3704
 5785SOL     OW20500   0.896   1.778   0.302 -0.1182  0.5006 -0.6293
 5785SOL    HW120501   0.837   1.745   0.234 -3.0142  1.7765  1.0702
 5785SOL    HW220502   0.881   1.872   0.305  1.7599  0.8259  0.1644
 5786SOL     OW20503   1.963   2.383   0.770  0.4809  0.1205  0.9206
 5786SOL    HW120504   2.044   2.363   0.723  0.9123 -1.4840  2.2367
 5786SOL    HW220505   1.992   2.428   0.849  0.1846 -1.0656  1.7303
 5787SOL     OW20506   6.155   4.841   3.256  0.2400 -0.4182 -0.1644
 5787SOL    HW120507   6.072   4.794   3.249  0.6219 -0.9188 -1.5447
 5787SOL    HW220508   6.188   4.817   3.342 -1.2761  0.2115  0.6452
 5788SOL     OW20509   0.361   4.063   7.826  0.3816 -0.9082  0.2187
 5788SOL    HW120510   0.341   4.036   7.915 -0.3797  0.6190  0.5361
 5788SOL    HW220511   0.406   4.147   7.835 -0.3289 -0.3900 -0.8407
 5789SOL     OW20512   6.739   2.486   8.055 -0.1654 -0.1045 -0.1318
 5789SOL    HW120513   6.665   2.425   8.052 -1.1489  1.0615 -0.5259
 5789SOL    HW220514   6.735   2.532   7.971  0.8632  0.1466 -0.0520
 5790SOL     OW20515   5.038   2.740   0.050 -0.3171  0.1877 -0.0284
 5790SOL    HW120516   5.078   2.827   0.054  0.7742 -0.3338  1.3483
 5790SOL    HW220517   5.068   2.703  -0.033 -1.1824  1.2806 -0.8539
 5791SOL     OW20518   2.887   1.320   7.977 -0.0673  0.0237  0.2905
 5791SOL    HW120519   2.867   1.351   7.889 -0.0267  1.2951  0.7054
 5791SOL    HW220520   2.878   1.225   7.972 -1.7814  0.2069 -0.6484
 5792SOL     OW20521   5.997   7.910   3.083 -0.2574  0.4449  0.0990
 5792SOL    HW120522   5.938   7.985   3.091 -1.7146 -0.6396 -0.1197
 5792SOL    HW220523   5.942   7.840   3.047  0.8564 -0.9863  1.0863
 5793SOL     OW20524   6.723   7.494   6.935  0.1665 -0.4623  0.3981
 5793SOL    HW120525   6.768   7.529   6.858 -1.6384  0.4125 -0.3310
 5793SOL    HW220526   6.722   7.567   6.997 -0.9358 -0.1904  0.0777
 5794SOL     OW20527   4.857   3.577   0.296 -0.2420 -0.0194 -0.0639
 5794SOL    HW120528   4.815   3.628   0.366 -0.8265  0.4112 -0.7076
 5794SOL    HW220529   4.917   3.639   0.254 -1.1771  0.2656 -1.0439
 5795SOL     OW20530   2.224   2.582   0.628 -0.5848  0.4626 -0.1252
 5795SOL    HW120531   2.165   2.636   0.576 -1.6084 -0.6749 -0.1941
 5795SOL    HW220532   2.232   2.500   0.579 -0.5876 -0.1700  0.8943
 5796SOL     OW20533   0.320   0.598   1.769  0.5736  0.4366 -0.0356
 5796SOL    HW120534   0.350   0.547   1.844 -1.4772  0.8115  1.1192
 5796SOL    HW220535   0.355   0.686   1.784  2.4138 -0.0901 -0.9752
 5797SOL     OW20536   7.386   3.448   7.701 -0.6025 -0.5343  0.5174
 5797SOL    HW120537   7.292   3.428   7.708 -1.0162  0.8353 -0.6113
 5797SOL    HW220538   7.391   3.543   7.712  0.7093 -0.6400  0.9332
 5798SOL     OW20539   0.946   1.349   5.346 -0.0172  0.2324  0.0128
 5798SOL    HW120540   0.992   1.321   5.267  2.2157  0.9880  0.9479
 5798SOL    HW220541   0.934   1.268   5.396  3.5778  0.3200  1.3008
 5799SOL     OW20542   6.965   1.679   3.282  0.3646 -0.0977  0.4396
 5799SOL    HW120543   6.993   1.681   3.190 -1.2967 -1.9053 -0.1845
 5799SOL    HW220544   6.957   1.586   3.303 -3.1702  0.2093  1.0677
 5800SOL     OW20545   4.194   1.694   6.335 -0.3097 -0.0343  0.0187
 5800SOL    HW120546   4.112   1.665   6.294 -0.2652 -0.2561  0.0875
 5800SOL    HW220547   4.247   1.728   6.262  0.3288 -1.6977 -0.3245
 5801SOL     OW20548   4.565   3.229   4.250  0.1379  0.0022 -0.1229
 5801SOL    HW120549   4.598   3.139   4.248  0.1102 -0.0120  0.1110
 5801SOL    HW220550   4.470   3.220   4.242  0.2324  0.0833 -1.8560
 5802SOL     OW20551   2.145   1.128   3.989  0.4208  0.2943 -0.1993
 5802SOL    HW120552   2.147   1.188   4.063 -1.2159 -1.9192  1.7902
 5802SOL    HW220553   2.055   1.098   3.985  0.6698 -0.3499 -2.5881
 5803SOL     OW20554   1.313   2.259   6.661 -0.3991 -0.2438 -0.0945
 5803SOL    HW120555   1.256   2.201   6.610  0.5543 -1.0779 -0.2355
 5803SOL    HW220556   1.310   2.225   6.750  1.3055 -1.4604 -0.4536
 5804SOL     OW20557   3.770   4.925   5.500  0.5016 -0.2852 -0.1762
 5804SOL    HW120558   3.736   4.957   5.584 -0.1714 -1.8401  0.1699
 5804SOL    HW220559   3.694   4.884   5.458  0.9688 -0.0347 -1.3098
 5805SOL     OW20560   6.232   7.958   0.788 -0.6487 -0.2726 -0.0596
 5805SOL    HW120561   6.294   7.903   0.741 -1.2696  0.4091 -1.7580
 5805SOL    HW220562   6.147   7.918   0.771 -0.9303  0.2454  0.1163
 5806SOL     OW20563   4.522   0.399   1.273 -0.1384 -0.0202  0.2563
 5806SOL    HW120564   4.488   0.328   1.219 -0.7857 -0.7884  1.6086
 5806SOL    HW220565   4.496   0.479   1.227 -0.5280 -0.6482 -0.6334
 5807SOL     OW20566   4.772   4.347   4.858  0.8012 -0.2790 -0.3845
 5807SOL    HW120567   4.795   4.305   4.941 -2.9602 -4.7638 -1.1689
 5807SOL    HW220568   4.851   4.337   4.804  2.1791 -0.4804  1.5428
 5808SOL     OW20569   1.423   4.298   1.552 -0.7554 -0.3124  0.1499
 5808SOL    HW120570   1.409   4.234   1.482  1.2296  0.5348 -1.0858
 5808SOL    HW220571   1.455   4.245   1.626 -0.2299 -0.8904 -0.4786
 5809SOL     OW20572   4.357   6.417   6.038  0.4689  0.0431  0.0018
 5809SOL    HW120573   4.441   6.374   6.054  0.3670 -0.8709 -1.6290
 5809SOL    HW220574   4.360   6.497   6.090  1.7319 -0.6927  1.1217
 5810SOL     OW20575   1.252   4.049   6.171 -0.4744  0.1373 -0.4447
 5810SOL    HW120576   1.303   4.038   6.251  0.5874  2.4724 -0.7061
 5810SOL    HW220577   1.164   4.020   6.195  0.6893 -3.1478  0.2803
 5811SOL     OW20578   3.556   1.294   0.302  0.0117  0.7701  0.3484
 5811SOL    HW120579   3.520   1.224   0.248 -0.5927  0.9746  0.4790
 5811SOL    HW220580   3.490   1.309   0.369  0.7882  0.4656  1.1965
 5812SOL     OW20581   6.150   1.085   1.377  0.1119  0.3042 -0.3948
 5812SOL    HW120582   6.070   1.137   1.392  1.0668  2.3987 -1.9956
 5812SOL    HW220583   6.159   1.083   1.282  1.6842 -0.3523 -0.2487
 5813SOL     OW20584   1.820   3.040   5.525  0.0423 -0.0961 -0.1806
 5813SOL    HW120585   1.754   3.020   5.591 -0.1157  0.4953 -0.1539
 5813SOL    HW220586   1.866   2.957   5.512  0.2676 -0.1618  0.8853
 5814SOL     OW20587   7.043   5.073   2.513 -0.5025  0.0004  0.1831
 5814SOL    HW120588   7.014   5.031   2.432  0.3662  1.2445 -0.8054
 5814SOL    HW220589   7.091   5.004   2.560  1.6401  0.0223 -1.7899
 5815SOL     OW20590   4.671   1.565   5.197 -0.0477 -0.1357  0.4941
 5815SOL    HW120591   4.683   1.497   5.264  2.7068  0.1539  0.3986
 5815SOL    HW220592   4.583   1.549   5.162 -0.3885 -2.1650  2.0839
 5816SOL     OW20593   1.085   0.479   4.853  0.1069  0.7192 -0.0323
 5816SOL    HW120594   1.031   0.465   4.931  0.1348 -1.0904 -0.2941
 5816SOL    HW220595   1.027   0.520   4.790 -0.7154 -0.2841  0.0387
 5817SOL     OW20596   5.791   6.577   2.793 -0.0856  0.5265  0.4163
 5817SOL    HW120597   5.758   6.663   2.819 -1.6047  0.1074 -0.0268
 5817SOL    HW220598   5.774   6.572   2.699  0.6396  0.0071  0.3058
 5818SOL     OW20599   0.917   5.847   4.252  0.4018 -0.2739 -0.0404
 5818SOL    HW120600   0.932   5.761   4.212  0.2890  0.1604 -1.0256
 5818SOL    HW220601   0.848   5.832   4.317  0.0379 -0.8314 -0.5491
 5819SOL     OW20602   0.130   5.715   5.339 -0.4741 -0.6030 -0.0901
 5819SOL    HW120603   0.209   5.757   5.305 -0.9637 -0.4330 -1.0731
 5819SOL    HW220604   0.118   5.638   5.283  1.0582 -2.8377  2.3947
 5820SOL     OW20605   2.603   3.132   0.352 -0.6079  0.3983  1.0457
 5820SOL    HW120606   2.616   3.115   0.445 -2.1532 -0.0442  1.2115
 5820SOL    HW220607   2.517   3.174   0.348  0.3122  2.3442  0.0051
 5821SOL     OW20608   4.132   4.788   7.264  0.4216 -0.2400  0.4240
 5821SOL    HW120609   4.092   4.867   7.300  0.4995  1.5894 -3.1360
 5821SOL    HW220610   4.068   4.755   7.201  1.8275 -0.9547 -0.6986
 5822SOL     OW20611   0.625   3.921   4.564  0.1192 -0.0835 -0.0186
 5822SOL    HW120612   0.667   3.964   4.490  1.2729 -1.2496 -0.0797
 5822SOL    HW220613   0.635   3.983   4.637  1.7134 -0.1757 -0.1121
 5823SOL     OW20614   6.873   4.079   7.905 -0.2327 -0.5093  0.0331
 5823SOL    HW120615   6.882   4.153   7.965 -1.5591 -1.6357  1.7152
 5823SOL    HW220616   6.864   4.120   7.819 -1.1623  1.3244  0.9303
 5824SOL     OW20617   5.615   7.207   7.625  0.1487  0.3303  0.0276
 5824SOL    HW120618   5.523   7.232   7.620  0.9915  3.8738 -1.0789
 5824SOL    HW220619   5.638   7.214   7.717 -0.9404 -2.0591  0.5459
 5825SOL     OW20620   2.918   2.620   1.492 -0.2632 -0.7399  0.1362
 5825SOL    HW120621   2.842   2.612   1.434 -2.0056 -0.9111  2.3072
 5825SOL    HW220622   2.902   2.700   1.542  1.4925 -0.2719  0.0180
 5826SOL     OW20623   6.686   4.329   4.540 -0.3934 -0.0411  0.2513
 5826SOL    HW120624   6.608   4.381   4.558  0.5628  0.8108  2.1380
 5826SOL    HW220625   6.661   4.240   4.564 -1.1906 -0.0084 -0.4249
 5827SOL     OW20626   3.567   0.600   0.901  0.7645 -0.3693 -0.0716
 5827SOL    HW120627   3.629   0.633   0.966  1.0418 -1.9781  0.5458
 5827SOL    HW220628   3.619   0.536   0.851  0.0112 -0.6164 -0.5422
 5828SOL     OW20629   4.905   0.665   6.281 -0.1142 -0.2105  0.0074
 5828SOL    HW120630   4.919   0.585   6.231 -1.4837 -0.6839  0.3283
 5828SOL    HW220631   4.839   0.641   6.346 -0.6914  1.2382 -0.0185
 5829SOL     OW20632   6.955   6.973   5.718  0.1637 -0.0619 -0.0007
 5829SOL    HW120633   6.897   7.015   5.654 -0.9495 -3.0182 -1.0576
 5829SOL    HW220634   6.897   6.920   5.772  1.4248  0.3286  1.8287
 5830SOL     OW20635   1.798   3.070   7.817  0.0545  0.4488  0.8407
 5830SOL    HW120636   1.783   3.084   7.724 -0.1009 -0.5026  0.7145
 5830SOL    HW220637   1.713   3.044   7.852  0.7163 -2.1821  0.6595
 5831SOL     OW20638   0.312   3.369   5.521 -0.4757  0.1040 -0.2519
 5831SOL    HW120639   0.406   3.385   5.520 -0.6717  1.3738  0.1778
 5831SOL    HW220640   0.289   3.355   5.429  0.2703 -1.1417 -0.2632
 5832SOL     OW20641   5.220   2.116   2.173  0.3650 -0.1326  0.3024
 5832SOL    HW120642   5.307   2.149   2.151 -0.1562  1.0195 -0.1046
 5832SOL    HW220643   5.165   2.194   2.180 -0.4953 -0.7912  1.2372
 5833SOL     OW20644   2.329   3.110   4.948  0.6033 -0.1380  0.1897
 5833SOL    HW120645   2.377   3.100   4.866 -1.1251 -0.2454 -0.8744
 5833SOL    HW220646   2.377   3.176   4.997  2.0786 -0.5983 -0.5776
 5834SOL     OW20647   1.529   2.242   5.717 -0.3143 -0.6772 -0.1223
 5834SOL    HW120648   1.550   2.205   5.631 -0.9111 -0.3502 -0.4165
 5834SOL    HW220649   1.549   2.336   5.708 -1.2720 -0.4730 -0.2153
 5835SOL     OW20650   1.327   5.534   2.393  0.6332  0.7137  0.3073
 5835SOL    HW120651   1.381   5.496   2.463  1.2767 -0.7890 -0.9468
 5835SOL    HW220652   1.388   5.549   2.321 -0.1259  1.6899 -0.1528
 5836SOL     OW20653   0.449   0.952   6.802  0.5446  0.2779  0.6780
 5836SOL    HW120654   0.500   1.029   6.825  0.0761  0.2480  1.8599
 5836SOL    HW220655   0.493   0.879   6.846  0.6042 -0.0339  0.1104
 5837SOL     OW20656   5.888   3.587   6.450 -0.1966  0.2289 -0.1043
 5837SOL    HW120657   5.896   3.605   6.543 -0.4886 -0.0610 -0.0196
 5837SOL    HW220658   5.940   3.508   6.435  0.5368  0.7564 -0.3471
 5838SOL     OW20659   0.033   7.504   7.146 -0.1345 -0.1865  0.2244
 5838SOL    HW120660   0.074   7.588   7.167  1.3139 -0.6698 -0.5259
 5838SOL    HW220661   0.041   7.497   7.050  0.9425 -1.7238  0.3886
 5839SOL     OW20662   4.992   0.011   6.042  0.7478 -0.4228  0.1253
 5839SOL    HW120663   4.997   0.029   6.136 -1.7351  0.2743  0.2025
 5839SOL    HW220664   5.024   0.092   6.001 -1.3344  0.6658  0.4615
 5840SOL     OW20665   2.634   2.341   0.957 -0.4046  0.0736  0.3741
 5840SOL    HW120666   2.577   2.275   0.997 -1.1367  0.0165 -0.7166
 5840SOL    HW220667   2.593   2.424   0.979 -0.8638  0.0373 -0.3275
 5841SOL     OW20668   4.426   1.153   5.944  0.4605 -0.1650 -0.3907
 5841SOL    HW120669   4.331   1.161   5.947  0.0918 -3.1423 -1.0936
 5841SOL    HW220670   4.451   1.114   6.027  1.0328  0.1920 -0.3831
 5842SOL     OW20671   5.474   2.382   7.685 -0.0690 -0.0611  0.1421
 5842SOL    HW120672   5.412   2.322   7.726  1.7190 -0.3307  2.7056
 5842SOL    HW220673   5.560   2.344   7.704  0.9819  1.2766 -1.6144
 5843SOL     OW20674   0.713   7.737   3.376  0.0067  0.4254 -0.0630
 5843SOL    HW120675   0.754   7.808   3.425  0.6831  0.7930 -1.1120
 5843SOL    HW220676   0.786   7.681   3.348 -0.5684 -1.0695  1.2979
 5844SOL     OW20677   5.301   6.745   0.519  0.0302 -0.5227 -0.3619
 5844SOL    HW120678   5.346   6.660   0.519  0.9431 -0.0463 -0.4445
 5844SOL    HW220679   5.339   6.792   0.445  0.5640  0.4942  0.5377
 5845SOL     OW20680   3.346   7.994   7.728  0.2879 -0.0873  0.2237
 5845SOL    HW120681   3.409   8.057   7.693 -0.6199  0.1869 -0.9769
 5845SOL    HW220682   3.400   7.927   7.769  1.3497  0.3974 -0.3355
 5846SOL     OW20683   7.066   1.017   2.095 -0.2911  0.2337 -0.5387
 5846SOL    HW120684   7.110   0.952   2.040 -1.6069 -0.7826 -0.4233
 5846SOL    HW220685   7.112   1.099   2.075  2.1164 -0.8651  0.0861
 5847SOL     OW20686   1.279   2.921   5.481  0.2149 -0.3867 -0.4505
 5847SOL    HW120687   1.343   2.935   5.550  1.7449 -2.2372 -1.3869
 5847SOL    HW220688   1.206   2.876   5.523  0.5549 -0.3159  0.2131
 5848SOL     OW20689   0.256   2.378   4.242  0.4999  0.7668  0.3230
 5848SOL    HW120690   0.273   2.332   4.160  0.1541  1.7934 -0.3470
 5848SOL    HW220691   0.217   2.461   4.215 -0.5046  0.7329  1.5739
 5849SOL     OW20692   3.606   2.486   4.119 -0.3694 -0.1943  0.0032
 5849SOL    HW120693   3.570   2.566   4.082 -0.8176 -0.5787 -0.4113
 5849SOL    HW220694   3.636   2.436   4.043  0.3501 -0.2112  0.2925
 5850SOL     OW20695   4.082   0.199   7.566 -0.0025 -0.0483 -0.2449
 5850SOL    HW120696   4.044   0.132   7.623  1.2158 -0.5232  0.0264
 5850SOL    HW220697   4.085   0.277   7.621 -1.7189  0.3588 -0.6601
 5851SOL     OW20698   1.453   3.487   0.908 -0.0603  0.1729 -0.6950
 5851SOL    HW120699   1.505   3.427   0.853  0.5887 -0.4420  0.5473
 5851SOL    HW220700   1.501   3.569   0.905 -0.8401  0.6146 -2.2387
 5852SOL     OW20701   4.759   5.441   5.841  0.8682  0.0168 -0.0713
 5852SOL    HW120702   4.688   5.416   5.900  0.3232 -0.3401 -0.8475
 5852SOL    HW220703   4.810   5.505   5.889  0.6442 -0.5241  0.9118
 5853SOL     OW20704   0.241   6.420   1.273  0.1742  0.1148 -0.1355
 5853SOL    HW120705   0.243   6.377   1.359 -1.3629 -1.3587 -0.7662
 5853SOL    HW220706   0.321   6.391   1.230 -0.3550 -1.4046 -0.1696
 5854SOL     OW20707   5.608   1.035   0.273  0.8607  0.8079 -0.1507
 5854SOL    HW120708   5.598   0.976   0.347  0.7298  0.8102 -0.1673
 5854SOL    HW220709   5.590   0.981   0.196  0.7378  0.8706 -0.1656
 5855SOL     OW20710   0.760   3.490   0.387 -0.1479  0.5957  0.1690
 5855SOL    HW120711   0.834   3.532   0.431 -0.9427  1.9467  0.2835
 5855SOL    HW220712   0.738   3.549   0.315  0.3184 -0.9511 -1.3006
 5856SOL     OW20713   1.297   7.150   2.849  0.4824  0.3394  0.0454
 5856SOL    HW120714   1.302   7.086   2.778  0.6025  0.3099  0.0809
 5856SOL    HW220715   1.246   7.222   2.812  0.8697  0.4924 -0.2012
 5857SOL     OW20716   7.340   0.188   6.306  0.3839  0.5823 -0.3235
 5857SOL    HW120717   7.360   0.106   6.262 -1.4760  0.5806 -1.2712
 5857SOL    HW220718   7.262   0.221   6.261 -0.1934  1.7745  1.4426
 5858SOL     OW20719   3.709   3.038   0.423  0.3198 -0.1503 -0.0555
 5858SOL    HW120720   3.741   2.950   0.402 -0.7266 -0.8870  1.3188
 5858SOL    HW220721   3.615   3.028   0.431  0.0734  1.3025 -0.7433
 5859SOL     OW20722   3.026   7.867   1.600 -0.1366 -0.1130  0.8330
 5859SOL    HW120723   2.993   7.783   1.633 -0.0246 -0.1258  0.9163
 5859SOL    HW220724   2.948   7.915   1.573 -0.2183 -0.1609  0.9847
 5860SOL     OW20725   0.919   2.036   0.837  0.2364 -0.9324  0.2909
 5860SOL    HW120726   0.935   1.964   0.776  2.0632 -0.5220  0.2269
 5860SOL    HW220727   0.892   1.993   0.918  0.2209 -1.6228 -0.0768
 5861SOL     OW20728   5.223   6.843   2.809 -0.1154  0.3027  0.2980
 5861SOL    HW120729   5.306   6.881   2.781  1.0849 -0.4174  2.7102
 5861SOL    HW220730   5.189   6.905   2.874 -0.1275 -0.6989  1.2735
 5862SOL     OW20731   1.080   3.640   3.062  0.0927 -0.4637  0.0490
 5862SOL    HW120732   1.087   3.650   3.157  3.8150  0.0423 -0.1304
 5862SOL    HW220733   0.991   3.668   3.042  0.7860  4.9702  2.8205
 5863SOL     OW20734   2.194   4.843   5.405 -0.3203  0.4564  0.1965
 5863SOL    HW120735   2.215   4.840   5.312  2.2776 -0.1694  0.7475
 5863SOL    HW220736   2.199   4.936   5.428  0.1542  0.4940 -0.0560
 5864SOL     OW20737   1.054   3.247   2.303 -0.1310  0.1085  0.0740
 5864SOL    HW120738   1.109   3.302   2.359 -0.2016  0.0374  0.2167
 5864SOL    HW220739   1.067   3.158   2.339  2.1844 -0.4435 -1.8696
 5865SOL     OW20740   4.089   2.602   3.279 -0.5971 -0.1369 -0.7138
 5865SOL    HW120741   4.015   2.659   3.260 -1.4573 -1.0258 -0.1120
 5865SOL    HW220742   4.068   2.562   3.364 -0.0150 -1.3208 -1.1032
 5866SOL     OW20743   7.126   1.385   4.780 -0.0940  0.0146  0.1391
 5866SOL    HW120744   7.108   1.477   4.765 -0.9629  0.2766  2.3521
 5866SOL    HW220745   7.044   1.349   4.814  0.4038 -1.4285 -0.1152
 5867SOL     OW20746   5.454   7.521   4.121  0.8007  0.2501 -0.2904
 5867SOL    HW120747   5.448   7.614   4.144  0.0901 -0.0723  0.8876
 5867SOL    HW220748   5.479   7.521   4.028 -1.4539  1.6505 -0.9933
 5868SOL     OW20749   4.051   1.397   6.032  0.2968  0.7743 -0.4619
 5868SOL    HW120750   4.002   1.396   6.114  0.4109 -0.0896 -0.4009
 5868SOL    HW220751   3.984   1.385   5.964  0.5095 -1.5946 -0.3176
 5869SOL     OW20752   0.302   4.259   3.901  0.5375 -0.0508 -0.4476
 5869SOL    HW120753   0.275   4.172   3.872  1.2009 -0.2422 -0.4991
 5869SOL    HW220754   0.260   4.271   3.986 -0.1232 -0.1349 -0.7611
 5870SOL     OW20755   7.119   4.150   2.584  0.2345 -0.5638  0.0636
 5870SOL    HW120756   7.211   4.149   2.608  0.3641  0.4825 -0.3439
 5870SOL    HW220757   7.118   4.155   2.489 -0.2459 -0.9363  0.0442
 5871SOL     OW20758   5.486   2.128   0.585  0.2811  0.4414 -0.2884
 5871SOL    HW120759   5.409   2.183   0.574  1.0172  1.5686 -0.0884
 5871SOL    HW220760   5.560   2.190   0.582  1.3638 -0.8082 -2.7436
 5872SOL     OW20761   3.445   6.879   3.180  0.1010  0.3394 -0.0901
 5872SOL    HW120762   3.513   6.836   3.127 -0.1924 -0.7655  0.4042
 5872SOL    HW220763   3.367   6.825   3.167 -0.5053  1.1946 -0.0925
 5873SOL     OW20764   5.156   7.440   7.926 -0.6556 -0.1557 -0.3196
 5873SOL    HW120765   5.102   7.490   7.987 -1.0925  1.1256 -1.7082
 5873SOL    HW220766   5.216   7.390   7.982 -1.4900  0.4637  1.1571
 5874SOL     OW20767   7.544   2.246   5.148  0.5690  0.8100  0.6166
 5874SOL    HW120768   7.469   2.297   5.117 -1.1701  0.2745  3.5567
 5874SOL    HW220769   7.517   2.155   5.137  1.7879  0.5380 -0.3788
 5875SOL     OW20770   6.467   1.219   3.683  0.2603 -0.9350  0.5572
 5875SOL    HW120771   6.409   1.295   3.676  0.6359 -0.7275 -0.5734
 5875SOL    HW220772   6.459   1.190   3.774 -1.3130 -0.6873  0.5155
 5876SOL     OW20773   2.043   6.107   4.276 -0.0343  0.1886 -0.1427
 5876SOL    HW120774   1.956   6.146   4.266 -0.7265 -1.1307  0.5085
 5876SOL    HW220775   2.088   6.164   4.339 -1.5309 -0.7687  1.9211
 5877SOL     OW20776   5.649   0.001   2.033  0.4830  0.6769 -0.0175
 5877SOL    HW120777   5.661   0.018   1.940  1.1621  0.0582 -0.0470
 5877SOL    HW220778   5.558  -0.030   2.039  0.3294  1.0300 -0.4207
 5878SOL     OW20779   4.147   7.815   7.378 -0.1278  0.5698  0.2649
 5878SOL    HW120780   4.187   7.897   7.348  1.3722  0.1174  0.9344
 5878SOL    HW220781   4.128   7.830   7.471  1.3784 -0.2462  0.7410
 5879SOL     OW20782   2.498   5.470   0.698  0.0872 -0.5350 -0.0252
 5879SOL    HW120783   2.408   5.438   0.689 -0.0229 -1.1444  2.4805
 5879SOL    HW220784   2.548   5.394   0.727  0.8069  0.4281  1.3666
 5880SOL     OW20785   8.010   1.630   2.892 -0.5099 -0.1986  0.2824
 5880SOL    HW120786   7.977   1.654   2.979  0.1337 -1.5067  0.9226
 5880SOL    HW220787   7.937   1.584   2.851 -1.3768  1.7930 -0.5379
 5881SOL     OW20788   2.818   3.088   0.191 -0.3102 -0.1019 -0.0864
 5881SOL    HW120789   2.736   3.102   0.239  0.0469 -1.4769  0.9915
 5881SOL    HW220790   2.799   3.018   0.129  0.4441 -1.7485  1.4177
 5882SOL     OW20791   1.695   3.548   1.118  0.5206 -0.3533  0.4895
 5882SOL    HW120792   1.734   3.463   1.140 -0.1108 -0.7405  0.1060
 5882SOL    HW220793   1.608   3.546   1.158 -0.6406 -1.0435 -1.9058
 5883SOL     OW20794   1.252   7.979   4.521  0.2497 -0.5937  0.2059
 5883SOL    HW120795   1.247   7.929   4.603  1.8745 -0.5565  0.3747
 5883SOL    HW220796   1.268   8.069   4.550  2.2828 -0.8010 -0.1130
 5884SOL     OW20797   0.609   7.236   3.085  0.3333 -0.2824  0.2356
 5884SOL    HW120798   0.613   7.322   3.044  0.6796 -0.3154  0.1998
 5884SOL    HW220799   0.681   7.236   3.149 -0.9472  0.2364  1.7440
 5885SOL     OW20800   6.469   7.675   5.075  0.2712 -0.2167  0.2370
 5885SOL    HW120801   6.438   7.762   5.049  0.1377 -0.6801 -1.2095
 5885SOL    HW220802   6.548   7.692   5.127 -0.3083  0.7981  0.8227
 5886SOL     OW20803   5.106   1.596   2.536 -0.1036 -0.3301  0.8252
 5886SOL    HW120804   5.119   1.565   2.446 -0.1512  0.2027  0.6324
 5886SOL    HW220805   5.069   1.520   2.582  0.1047 -0.6669  0.4437
 5887SOL     OW20806   5.907   1.587   7.017 -0.5334  0.2048  0.3399
 5887SOL    HW120807   5.987   1.570   6.967  0.9942 -0.9842  2.9506
 5887SOL    HW220808   5.883   1.677   6.993  0.9153  0.1891 -1.3869
 5888SOL     OW20809   2.421   0.875   0.490  0.3855 -0.6020  0.3287
 5888SOL    HW120810   2.478   0.915   0.424 -1.7499 -0.8172 -1.8029
 5888SOL    HW220811   2.465   0.794   0.515  2.9966  1.1896  1.9750
 5889SOL     OW20812   7.053   3.460   6.822 -0.7032  0.2135 -0.4401
 5889SOL    HW120813   7.018   3.417   6.899 -0.8512  3.5655  1.5716
 5889SOL    HW220814   7.144   3.430   6.816 -0.0219  1.3834  2.3884
 5890SOL     OW20815   4.036   2.206   0.541 -0.1128  0.0898 -0.6626
 5890SOL    HW120816   3.978   2.174   0.471 -1.0641  0.6640 -0.1545
 5890SOL    HW220817   4.096   2.133   0.557 -0.3924 -0.3489 -1.5250
 5891SOL     OW20818   0.196   0.161   3.148  0.2693 -0.2889 -0.0868
 5891SOL    HW120819   0.249   0.222   3.199 -1.7952 -0.3563  2.3482
 5891SOL    HW220820   0.169   0.212   3.071  2.6681  0.1258 -0.7411
 5892SOL     OW20821   1.851   7.024   4.505  0.1585  0.1353  0.5633
 5892SOL    HW120822   1.941   7.015   4.534 -0.2911 -0.6108  1.8610
 5892SOL    HW220823   1.799   6.995   4.580 -1.1440  0.0770 -0.3158
 5893SOL     OW20824   5.185   1.692   2.044 -0.1071  0.0117 -0.0237
 5893SOL    HW120825   5.129   1.742   1.984  1.7642  0.6659 -1.3415
 5893SOL    HW220826   5.197   1.750   2.119 -0.5369  0.1979 -0.0968
 5894SOL     OW20827   6.855   1.874   2.993 -0.0529  0.7520  0.4083
 5894SOL    HW120828   6.799   1.825   2.932  0.5164  1.0322 -0.3636
 5894SOL    HW220829   6.932   1.897   2.941  1.6103 -1.1081  1.8910
 5895SOL     OW20830   1.199   2.137   7.602 -0.2727  0.3525 -0.2024
 5895SOL    HW120831   1.226   2.160   7.513  0.3589 -0.3268 -0.1867
 5895SOL    HW220832   1.110   2.103   7.591  0.0990 -0.5040 -0.6984
 5896SOL     OW20833   1.167   5.770   4.582  0.2696  0.1798 -0.1894
 5896SOL    HW120834   1.084   5.792   4.539  0.7735  1.1633 -0.6660
 5896SOL    HW220835   1.200   5.695   4.532  0.7127  1.1375 -1.3762
 5897SOL     OW20836   3.786   6.576   3.848  0.5072  0.0573 -0.3566
 5897SOL    HW120837   3.828   6.656   3.817  1.9050  0.6695  2.7222
 5897SOL    HW220838   3.850   6.507   3.828  0.7161  0.2058 -0.2088
 5898SOL     OW20839   2.239   4.823   5.993 -0.6292  0.3174  0.0095
 5898SOL    HW120840   2.245   4.728   6.001  2.6327  0.5547  2.4874
 5898SOL    HW220841   2.292   4.844   5.916 -2.1489  0.1315 -1.1213
 5899SOL     OW20842   3.122   0.558   8.044  0.8704  0.0552  0.0533
 5899SOL    HW120843   3.138   0.470   8.078 -2.0966 -1.1934 -1.4575
 5899SOL    HW220844   3.032   0.578   8.069  0.1038  0.9291 -3.0118
 5900SOL     OW20845   8.053   1.960   4.225  0.2747  0.0706  0.3625
 5900SOL    HW120846   8.036   1.866   4.224 -2.3344  0.4643 -1.1537
 5900SOL    HW220847   8.148   1.968   4.218  0.4111 -2.4696 -2.6027
 5901SOL     OW20848   1.089   7.399   1.759 -0.3612  0.3786  0.2183
 5901SOL    HW120849   1.078   7.339   1.685  0.2146  1.2180 -0.5808
 5901SOL    HW220850   1.099   7.485   1.717  3.8504  0.4542  1.0069
 5902SOL     OW20851   3.838   6.218   3.015  0.4466  0.3482  0.0208
 5902SOL    HW120852   3.892   6.152   2.972 -0.4235 -0.2131 -0.2506
 5902SOL    HW220853   3.831   6.289   2.952  0.8639  0.4231  0.0585
 5903SOL     OW20854   4.347   6.015   1.200 -0.0204 -0.3577 -0.1774
 5903SOL    HW120855   4.267   6.045   1.157  0.3234 -0.1400 -0.6704
 5903SOL    HW220856   4.343   5.919   1.194  0.5930 -0.3110 -1.7727
 5904SOL     OW20857   1.707   7.369   4.195  0.3215  0.2980 -0.1429
 5904SOL    HW120858   1.698   7.460   4.221 -1.2034  0.1950 -0.1901
 5904SOL    HW220859   1.650   7.321   4.255  2.0914 -0.8237  0.7415
 5905SOL     OW20860   1.612   6.739   1.349 -0.6036  0.4773  0.2117
 5905SOL    HW120861   1.698   6.780   1.338 -0.4852 -0.1451 -1.5272
 5905SOL    HW220862   1.610   6.711   1.441  0.3223  2.0563  0.7510
 5906SOL     OW20863   4.921   5.027   0.403 -0.1082 -1.0333  0.1371
 5906SOL    HW120864   4.871   5.104   0.377 -2.4493 -2.5547 -0.1771
 5906SOL    HW220865   5.012   5.058   0.410 -1.1287  2.0047  1.3405
 5907SOL     OW20866   1.685   5.535   3.161  0.0561 -0.5532 -0.3144
 5907SOL    HW120867   1.721   5.532   3.250  0.4110  0.2349 -0.4218
 5907SOL    HW220868   1.761   5.534   3.104  0.0467  2.4300 -0.5130
 5908SOL     OW20869   1.867   6.663   0.755  0.1218  0.4766 -0.3442
 5908SOL    HW120870   1.773   6.646   0.766  0.1942  0.6728  0.5945
 5908SOL    HW220871   1.872   6.715   0.674 -0.3346 -1.7244 -1.8918
 5909SOL     OW20872   1.627   2.103   0.453  0.1669  0.3832 -0.2615
 5909SOL    HW120873   1.694   2.129   0.515  0.6297  1.5524 -1.1985
 5909SOL    HW220874   1.585   2.186   0.427 -0.9000 -0.2106 -0.5147
 5910SOL     OW20875   2.299   1.797   6.654 -0.0465 -0.4570  0.1370
 5910SOL    HW120876   2.365   1.852   6.696  0.8095 -0.5627 -1.0093
 5910SOL    HW220877   2.249   1.857   6.599  3.0399 -1.0986 -3.8207
 5911SOL     OW20878   2.666   3.155   3.073 -0.8780 -0.3000  0.2968
 5911SOL    HW120879   2.686   3.193   3.159 -2.0456 -1.6880  1.2119
 5911SOL    HW220880   2.584   3.107   3.086 -1.1099 -0.4878 -1.6182
 5912SOL     OW20881   0.049   7.091   5.457 -0.3233  0.2975 -0.2867
 5912SOL    HW120882   0.119   7.080   5.393 -0.0487  1.0694 -0.1293
 5912SOL    HW220883   0.046   7.007   5.503  0.1554  0.0810 -0.6413
 5913SOL     OW20884   4.640   6.605   0.171  0.3045  0.3724 -0.2246
 5913SOL    HW120885   4.672   6.680   0.221  1.6338  0.2901 -0.9175
 5913SOL    HW220886   4.710   6.586   0.109 -0.1199 -1.2824 -0.2390
 5914SOL     OW20887   4.019   1.851   6.874 -0.4268  0.4507  0.0550
 5914SOL    HW120888   4.062   1.919   6.926  1.8490 -1.9071  1.5359
 5914SOL    HW220889   3.966   1.803   6.938  0.9227 -1.3486 -0.1089
 5915SOL     OW20890   5.850   1.414   7.480 -0.2441 -0.4124 -0.1673
 5915SOL    HW120891   5.878   1.506   7.473  0.8896 -0.4031  2.8020
 5915SOL    HW220892   5.756   1.416   7.463  0.0558  0.9379 -2.0489
 5916SOL     OW20893   1.533   1.369   3.400  0.0983  0.2786 -0.3388
 5916SOL    HW120894   1.624   1.383   3.375 -0.0806 -0.7653 -1.7088
 5916SOL    HW220895   1.487   1.447   3.368  0.7986  1.9288  2.3998
 5917SOL     OW20896   1.716   1.986   3.302  0.2540  0.3124 -0.1284
 5917SOL    HW120897   1.677   1.982   3.389 -0.1423  0.7022 -0.2891
 5917SOL    HW220898   1.787   1.922   3.305 -0.0384  0.0058  0.3396
 5918SOL     OW20899   1.449   3.150   7.488  0.0887 -0.2942  0.3396
 5918SOL    HW120900   1.357   3.161   7.512 -0.0454 -0.1661 -0.2110
 5918SOL    HW220901   1.449   3.153   7.392  0.6868 -0.1031  0.3411
 5919SOL     OW20902   3.995   6.415   5.797  0.2206  0.5018  0.1730
 5919SOL    HW120903   3.927   6.347   5.802 -0.0145  0.7405  0.2383
 5919SOL    HW220904   3.996   6.453   5.885 -0.0415  0.9609 -0.0198
 5920SOL     OW20905   5.764   3.685   0.278 -0.2828  0.3188  0.2212
 5920SOL    HW120906   5.723   3.727   0.354 -1.7814 -0.0728 -0.3489
 5920SOL    HW220907   5.748   3.592   0.291  2.1534 -0.0859  0.9591
 5921SOL     OW20908   3.460   7.584   6.206  0.0593  0.5196 -0.0395
 5921SOL    HW120909   3.369   7.555   6.208  0.5568 -1.0516  1.8465
 5921SOL    HW220910   3.471   7.635   6.286  1.1858 -0.4510  0.4346
 5922SOL     OW20911   7.926   3.845   3.627  0.0937 -0.2221 -0.3235
 5922SOL    HW120912   7.892   3.756   3.625 -2.5362  0.4770  3.2743
 5922SOL    HW220913   7.888   3.887   3.549  0.6837 -1.9740 -1.5978
 5923SOL     OW20914   3.479   1.049   7.288 -0.4029 -0.6299  0.3414
 5923SOL    HW120915   3.501   1.138   7.261 -1.1605 -0.0004  1.6887
 5923SOL    HW220916   3.534   1.033   7.364 -1.2211 -0.7941  0.9139
 5924SOL     OW20917   1.790   5.489   0.055  0.2241 -0.2004 -0.0406
 5924SOL    HW120918   1.768   5.475   0.147  1.2488 -0.5457  0.1640
 5924SOL    HW220919   1.884   5.507   0.055  0.8835 -3.0615 -1.2582
 5925SOL     OW20920   5.293   1.274   4.445 -0.2931 -0.2766  0.2415
 5925SOL    HW120921   5.354   1.264   4.371 -0.6968 -3.6929  0.2029
 5925SOL    HW220922   5.207   1.254   4.408 -0.6845 -0.7471  1.3661
 5926SOL     OW20923   4.497   3.737   6.229 -0.0655 -0.4466 -0.3477
 5926SOL    HW120924   4.592   3.737   6.220 -0.0682 -1.7937 -0.5087
 5926SOL    HW220925   4.481   3.715   6.320 -0.2350 -1.8825 -0.7117
 5927SOL     OW20926   1.362   7.601   0.092 -0.5940 -0.7101 -0.0096
 5927SOL    HW120927   1.347   7.548   0.171  1.0103 -0.9216  0.1895
 5927SOL    HW220928   1.352   7.691   0.122  0.5684 -0.7612  0.6009
 5928SOL     OW20929   4.158   3.580   0.206 -0.2484 -0.3419 -0.2077
 5928SOL    HW120930   4.175   3.656   0.262 -0.7340 -1.6145  1.7696
 5928SOL    HW220931   4.178   3.505   0.261  2.2611 -1.7345 -2.7477
 5929SOL     OW20932   5.136   6.180   3.938 -0.1137 -0.1393 -0.0898
 5929SOL    HW120933   5.102   6.175   3.849 -0.9253  1.6655  0.0899
 5929SOL    HW220934   5.075   6.238   3.984  1.0399  0.0320  1.2767
 5930SOL     OW20935   4.900   1.166   0.748  0.1966 -0.2639 -0.6202
 5930SOL    HW120936   4.983   1.138   0.712  0.0261  2.0858 -3.1581
 5930SOL    HW220937   4.837   1.101   0.717  0.9172 -1.7468  0.8596
 5931SOL     OW20938   5.894   5.537   5.469 -0.9162 -0.5721 -0.4202
 5931SOL    HW120939   5.941   5.539   5.385  1.3727  0.7188  0.7922
 5931SOL    HW220940   5.839   5.615   5.467 -3.2713 -2.1299 -1.8812
 5932SOL     OW20941   1.025   7.298   6.925 -0.3153  0.0592 -0.3535
 5932SOL    HW120942   1.108   7.343   6.941 -0.6578  0.4865  0.2534
 5932SOL    HW220943   1.025   7.225   6.987 -0.9010  0.7381  0.4587
 5933SOL     OW20944   7.871   3.721   7.283 -0.7692 -0.2617 -0.2120
 5933SOL    HW120945   7.813   3.783   7.327 -1.1243 -0.0437 -0.9731
 5933SOL    HW220946   7.812   3.657   7.243 -0.4381 -0.6477 -0.0814
 5934SOL     OW20947   5.296   3.785   1.409  1.0126  0.1644 -0.2738
 5934SOL    HW120948   5.226   3.757   1.350  0.9418  0.5602 -0.3846
 5934SOL    HW220949   5.259   3.860   1.456  1.1950  0.0757  0.0140
 5935SOL     OW20950   4.936   2.583   0.593 -0.6378  0.6418 -0.8370
 5935SOL    HW120951   4.886   2.618   0.667 -0.7545 -2.0335  0.4845
 5935SOL    HW220952   4.894   2.499   0.574  1.7863 -0.5290 -1.3753
 5936SOL     OW20953   6.773   2.692   3.923  0.4583 -0.1851  0.5679
 5936SOL    HW120954   6.795   2.759   3.988 -0.7628  1.6237 -0.7956
 5936SOL    HW220955   6.691   2.654   3.955  0.3413  0.0670  0.5757
 5937SOL     OW20956   2.440   3.991   4.119  0.0368  0.5193  0.9797
 5937SOL    HW120957   2.533   4.004   4.102  0.0091  0.4124  0.7269
 5937SOL    HW220958   2.398   4.070   4.084  0.0495  0.6569  1.2727
 5938SOL     OW20959   0.935   5.354   5.485  0.1502 -0.0191 -0.6870
 5938SOL    HW120960   0.919   5.366   5.391 -0.7787 -0.4331 -0.5922
 5938SOL    HW220961   0.884   5.277   5.508  1.4546 -0.7411 -0.1102
 5939SOL     OW20962   2.169   2.051   0.458 -0.6293  0.1205  0.2050
 5939SOL    HW120963   2.154   1.995   0.534 -2.4424 -0.4934 -0.5318
 5939SOL    HW220964   2.081   2.077   0.431  0.1225  2.7846  0.0915
 5940SOL     OW20965   6.592   6.756   3.201  0.0862  0.3230 -0.3997
 5940SOL    HW120966   6.618   6.719   3.116 -1.9570  1.5311 -1.6323
 5940SOL    HW220967   6.640   6.839   3.206  0.3973  0.1355 -0.2464
 5941SOL     OW20968   6.553   1.358   6.311 -0.0458  0.3807  0.5444
 5941SOL    HW120969   6.484   1.297   6.338 -0.4544  0.6684  0.1750
 5941SOL    HW220970   6.548   1.429   6.374 -1.0778  1.1095 -0.3132
 5942SOL     OW20971   4.510   6.763   2.081  0.3045  0.4103 -0.1444
 5942SOL    HW120972   4.421   6.732   2.065  0.2598 -0.0941  0.9945
 5942SOL    HW220973   4.510   6.854   2.052 -0.1616 -0.0038 -1.5357
 5943SOL     OW20974   2.954   7.449   7.929  0.1619  0.4498  0.3079
 5943SOL    HW120975   3.007   7.397   7.990  1.3044  0.8279 -0.3366
 5943SOL    HW220976   2.906   7.383   7.878 -1.8761  0.1392  2.4629
 5944SOL     OW20977   7.168   7.925   0.116  0.4496  0.6563  0.4282
 5944SOL    HW120978   7.177   8.018   0.137 -1.9351  1.1013 -0.1981
 5944SOL    HW220979   7.178   7.880   0.200 -1.7921  1.7951  1.3824
 5945SOL     OW20980   5.979   4.615   6.115 -0.1636 -0.0146  0.2652
 5945SOL    HW120981   5.953   4.554   6.184 -0.5559  2.3889  2.3887
 5945SOL    HW220982   5.900   4.666   6.098 -0.3654 -1.1444 -2.7594
 5946SOL     OW20983   1.547   0.117   1.594  0.0611 -0.1833  0.2989
 5946SOL    HW120984   1.610   0.170   1.643  0.0104 -0.1341  0.3119
 5946SOL    HW220985   1.555   0.148   1.504 -1.2369  1.1266  0.5818
 5947SOL     OW20986   3.038   1.127   1.524  0.7936 -0.2087 -0.4112
 5947SOL    HW120987   3.125   1.166   1.535  0.4575  0.7390 -0.9380
 5947SOL    HW220988   2.999   1.175   1.451  0.0590 -1.0461 -0.5930
 5948SOL     OW20989   5.648   6.767   7.909  0.7528  0.1641 -0.2516
 5948SOL    HW120990   5.658   6.860   7.928 -0.9564  0.7266 -1.8001
 5948SOL    HW220991   5.683   6.757   7.820  0.5585 -0.5850 -0.2499
 5949SOL     OW20992   1.360   5.910   4.700  0.0972  0.1284 -0.0434
 5949SOL    HW120993   1.407   5.950   4.627 -0.5798  1.2838  0.1347
 5949SOL    HW220994   1.295   5.853   4.658  0.3764  0.0019 -0.3140
 5950SOL     OW20995   4.177   1.254   1.409 -0.2427  0.3636 -0.4014
 5950SOL    HW120996   4.129   1.323   1.455  1.2205  1.8940 -1.0513
 5950SOL    HW220997   4.242   1.301   1.357  1.2501 -1.5437 -0.3800
 5951SOL     OW20998   0.557   5.310   6.483  0.2137 -0.1867  0.5004
 5951SOL    HW120999   0.492   5.359   6.432 -0.3889 -1.7025 -0.2475
 5951SOL    HW221000   0.590   5.373   6.546  1.1044  1.8416 -1.8225
 5952SOL     OW21001   0.149   3.663   3.015 -0.3421 -0.4789 -0.0202
 5952SOL    HW121002   0.087   3.728   2.982 -2.5719 -3.0027 -1.1838
 5952SOL    HW221003   0.221   3.664   2.953 -0.2333  0.9611  0.1020
 5953SOL     OW21004   1.644   3.240   2.290  0.1944  0.1046  0.2427
 5953SOL    HW121005   1.720   3.273   2.338  0.5729 -0.8151  0.2898
 5953SOL    HW221006   1.678   3.167   2.238  0.0146  1.6649 -2.2061
 5954SOL     OW21007   3.754   1.695   5.903  0.1767  0.2033  0.4794
 5954SOL    HW121008   3.767   1.789   5.915 -2.0829  0.4534  1.6060
 5954SOL    HW221009   3.766   1.658   5.991 -0.7469 -0.2880  0.4111
 5955SOL     OW21010   7.743   7.098   5.550  0.1179  0.5694  0.5129
 5955SOL    HW121011   7.834   7.121   5.567  0.1764  0.7754 -0.0506
 5955SOL    HW221012   7.746   7.004   5.530  0.2659  0.6688  0.0682
 5956SOL     OW21013   3.875   3.565   0.307 -0.0097 -0.7316  0.3217
 5956SOL    HW121014   3.909   3.635   0.251  0.0755 -0.6294  0.5000
 5956SOL    HW221015   3.837   3.502   0.246 -1.1068  0.0091  0.2147
 5957SOL     OW21016   6.112   6.894   1.497  0.0616 -0.0266 -0.3319
 5957SOL    HW121017   6.120   6.798   1.493 -0.2117 -0.4649  4.5385
 5957SOL    HW221018   6.197   6.926   1.468  1.2482 -1.9270  0.8276
 5958SOL     OW21019   5.244   3.982   4.834  0.2102  0.2653  0.2365
 5958SOL    HW121020   5.159   3.993   4.877  0.7432  0.3523  1.2790
 5958SOL    HW221021   5.227   4.004   4.742 -0.8247  0.5689  0.4881
 5959SOL     OW21022   2.258   7.935   4.973  0.2618  0.5386  0.0325
 5959SOL    HW121023   2.298   7.993   4.908  1.5142  0.7787  0.9781
 5959SOL    HW221024   2.173   7.976   4.992  1.5215  2.6968  1.4101
 5960SOL     OW21025   3.412   2.734   5.782  0.6174  0.2363  0.4166
 5960SOL    HW121026   3.467   2.807   5.808 -1.0844  1.5325  0.5398
 5960SOL    HW221027   3.363   2.766   5.706  1.6695 -1.6784 -1.1543
 5961SOL     OW21028   6.553   2.832   7.616 -0.3336 -0.1471  0.0885
 5961SOL    HW121029   6.588   2.893   7.552  2.0356 -0.4440  1.0145
 5961SOL    HW221030   6.463   2.863   7.631  0.2686  2.1624 -0.6181
 5962SOL     OW21031   5.709   5.889   7.594  0.4395 -0.8605 -0.1285
 5962SOL    HW121032   5.634   5.936   7.629  0.0934 -0.8907 -0.8114
 5962SOL    HW221033   5.671   5.819   7.541  0.9292 -0.2556 -1.3110
 5963SOL     OW21034   4.288   4.062   2.739 -0.0813 -0.3202  0.2463
 5963SOL    HW121035   4.309   4.154   2.759  0.6328 -0.0968 -1.3917
 5963SOL    HW221036   4.226   4.066   2.666  0.6112 -1.1313 -0.4120
 5964SOL     OW21037   2.354   6.249   5.386 -0.2330 -0.1917 -0.1020
 5964SOL    HW121038   2.369   6.344   5.395  0.3089 -0.1958 -0.8979
 5964SOL    HW221039   2.426   6.209   5.435  0.0355 -0.1914 -0.4915
 5965SOL     OW21040   1.302   0.660   2.598  0.3305 -0.1271 -0.3253
 5965SOL    HW121041   1.269   0.692   2.514  0.4889 -0.0788 -0.3703
 5965SOL    HW221042   1.380   0.713   2.615 -0.3514  0.6648  0.4162
 5966SOL     OW21043   1.598   2.861   1.916 -0.8630 -0.2983  0.0579
 5966SOL    HW121044   1.659   2.908   1.860 -1.5871  1.8677  0.9765
 5966SOL    HW221045   1.533   2.927   1.941 -2.9419 -2.2195  0.0532
 5967SOL     OW21046   0.353   4.396   6.588 -0.8372 -0.5433  0.1892
 5967SOL    HW121047   0.401   4.468   6.548 -1.8324 -0.4673 -0.9345
 5967SOL    HW221048   0.398   4.317   6.558 -1.9463 -0.5231 -1.7123
 5968SOL     OW21049   2.158   1.743   7.351 -0.1473  0.1633  0.3618
 5968SOL    HW121050   2.101   1.681   7.397  1.2173 -0.1849  1.6446
 5968SOL    HW221051   2.204   1.790   7.421  1.8903 -0.2868 -0.6055
 5969SOL     OW21052   5.214   3.673   5.668 -0.3302  0.5015 -0.2505
 5969SOL    HW121053   5.137   3.730   5.656 -2.8908 -2.2645  1.5514
 5969SOL    HW221054   5.200   3.601   5.606  0.3586 -0.4231  0.6329
 5970SOL     OW21055   4.048   4.684   2.262 -0.0951 -0.2518 -0.6796
 5970SOL    HW121056   4.082   4.602   2.299 -0.6114 -1.0655 -1.9261
 5970SOL    HW221057   3.959   4.691   2.296 -0.0772 -0.2503 -0.6330
 5971SOL     OW21058   1.214   3.923   7.692  0.1740  0.3554 -0.7524
 5971SOL    HW121059   1.242   3.861   7.759  1.8752  1.7416 -0.0922
 5971SOL    HW221060   1.220   3.875   7.610  0.2090 -0.7157 -0.1341
 5972SOL     OW21061   7.593   1.677   1.091  0.7417 -0.1550  0.2375
 5972SOL    HW121062   7.498   1.680   1.076  0.4974  1.0166  1.7290
 5972SOL    HW221063   7.632   1.716   1.013 -0.2090  1.9979  0.7478
 5973SOL     OW21064   8.071   3.456   2.581  0.2200 -0.3775 -0.0610
 5973SOL    HW121065   8.059   3.509   2.659  1.2692  0.7542 -0.6545
 5973SOL    HW221066   8.109   3.515   2.516  1.3629 -1.8162 -0.7659
 5974SOL     OW21067   7.102   7.349   3.913  0.3370  0.0883 -0.4839
 5974SOL    HW121068   7.079   7.442   3.904  1.1740  0.3233 -0.2439
 5974SOL    HW221069   7.170   7.335   3.848 -0.4032 -0.5882 -1.1354
 5975SOL     OW21070   6.862   7.787   6.091 -0.2668  0.4462  0.4141
 5975SOL    HW121071   6.771   7.807   6.116 -0.7485  0.1184 -1.0149
 5975SOL    HW221072   6.886   7.712   6.145 -0.8867  0.4579  0.7130
 5976SOL     OW21073   7.801   1.693   0.445 -0.0622 -0.4940 -0.1675
 5976SOL    HW121074   7.861   1.701   0.371 -2.5305 -0.5028 -2.2800
 5976SOL    HW221075   7.798   1.599   0.464  0.3723 -0.5174 -0.2083
 5977SOL     OW21076   7.054   6.980   2.700  0.0753  0.5227  0.2885
 5977SOL    HW121077   6.972   7.026   2.714 -0.1227  0.7142 -1.2897
 5977SOL    HW221078   7.030   6.903   2.649  0.9684  1.1741 -1.2045
 5978SOL     OW21079   4.659   1.320   5.386 -0.2323  0.0542  0.6377
 5978SOL    HW121080   4.586   1.258   5.378  0.1042 -0.3680  0.7980
 5978SOL    HW221081   4.655   1.350   5.477 -0.0391 -0.1760  0.7213
 5979SOL     OW21082   0.486   2.889   5.718 -0.0801 -0.0216 -0.1582
 5979SOL    HW121083   0.522   2.800   5.711 -3.1439 -1.7061  2.4059
 5979SOL    HW221084   0.435   2.900   5.637 -1.2179 -1.4986  0.2978
 5980SOL     OW21085   3.594   3.492   6.681 -0.2783 -0.1827 -0.4591
 5980SOL    HW121086   3.559   3.580   6.696  0.4136 -0.3023  2.3226
 5980SOL    HW221087   3.688   3.504   6.672 -0.2162 -0.6029 -0.4076
 5981SOL     OW21088   7.986   1.408   5.553 -0.8340  0.4438  0.6818
 5981SOL    HW121089   7.969   1.361   5.634 -0.0180 -1.5008 -0.1977
 5981SOL    HW221090   7.900   1.425   5.515 -1.1471 -0.5502  0.9335
 5982SOL     OW21091   1.120   2.245   5.246 -0.1886 -0.4858 -0.8713
 5982SOL    HW121092   1.064   2.183   5.292 -0.2830 -0.2871 -0.7189
 5982SOL    HW221093   1.145   2.199   5.165 -0.3416 -0.6813 -0.8083
 5983SOL     OW21094   5.140   3.001   0.324 -0.6836  0.2007 -0.7095
 5983SOL    HW121095   5.090   3.071   0.366 -0.4612 -0.4071  0.6379
 5983SOL    HW221096   5.110   2.922   0.368  1.2211 -0.2113 -0.0856
 5984SOL     OW21097   6.708   1.280   6.565  0.1493 -0.0871  0.3433
 5984SOL    HW121098   6.793   1.253   6.599  0.0879  0.8255  1.2688
 5984SOL    HW221099   6.660   1.198   6.554  0.7344 -0.5236  0.9607
 5985SOL     OW21100   1.695   7.573   3.280  0.4826  0.1038 -0.0162
 5985SOL    HW121101   1.662   7.485   3.296 -1.1189  0.8020  0.7412
 5985SOL    HW221102   1.720   7.605   3.367 -0.0605  0.8216 -0.1232
 5986SOL     OW21103   7.212   0.689   5.074 -0.1269 -0.5788 -0.6381
 5986SOL    HW121104   7.257   0.773   5.083  1.7419 -1.5533 -0.5010
 5986SOL    HW221105   7.146   0.705   5.006  0.1174  1.0205 -0.5418
 5987SOL     OW21106   4.626   0.512   5.430 -0.2393 -0.0394  0.2624
 5987SOL    HW121107   4.599   0.498   5.521  0.4427  0.3697  0.5367
 5987SOL    HW221108   4.716   0.480   5.427 -0.9622 -2.2388 -0.8453
 5988SOL     OW21109   1.698   2.369   4.245  0.3119  0.5747  0.3069
 5988SOL    HW121110   1.735   2.296   4.296  0.2469  0.1727 -0.2155
 5988SOL    HW221111   1.685   2.438   4.310 -0.5744 -0.2267  1.0169
 5989SOL     OW21112   4.163   1.954   8.081 -0.2790  0.1941 -0.4781
 5989SOL    HW121113   4.236   1.894   8.071  0.1571  0.7921 -0.9905
 5989SOL    HW221114   4.085   1.900   8.063  0.1225 -0.1455 -1.2737
 5990SOL     OW21115   0.181   2.007   7.418 -0.1811 -0.1353 -0.2384
 5990SOL    HW121116   0.236   2.082   7.394  0.9807 -0.1650  2.1050
 5990SOL    HW221117   0.139   2.033   7.500 -2.3729 -0.8055 -1.0819
 5991SOL     OW21118   5.915   6.211   6.390 -0.0405 -0.7882  0.0910
 5991SOL    HW121119   5.902   6.230   6.483  0.3435  1.2791 -0.2372
 5991SOL    HW221120   5.962   6.128   6.390  0.9375 -0.2913  1.7976
 5992SOL     OW21121   2.550   4.322   2.810 -0.1892  0.0551 -0.8459
 5992SOL    HW121122   2.612   4.249   2.804 -1.9350 -1.4822 -0.8715
 5992SOL    HW221123   2.591   4.383   2.872  3.0716  0.9394 -3.5561
 5993SOL     OW21124   0.200   3.229   0.813 -0.0391  0.0856  0.1253
 5993SOL    HW121125   0.220   3.137   0.795  0.6122  0.3008 -0.2820
 5993SOL    HW221126   0.239   3.277   0.740  0.7164  0.8003  0.9711
 5994SOL     OW21127   6.630   0.074   0.681 -0.1572 -0.2415  0.1348
 5994SOL    HW121128   6.695   0.080   0.751  2.0873  2.3919 -1.9674
 5994SOL    HW221129   6.639  -0.016   0.648  2.9563  0.2003 -0.4912
 5995SOL     OW21130   6.946   1.491   7.622  0.1942  0.1236  0.3251
 5995SOL    HW121131   6.963   1.511   7.530 -0.0021  0.1151  0.2873
 5995SOL    HW221132   6.858   1.454   7.623  0.8706 -1.6322  0.2515
 5996SOL     OW21133   7.364   2.591   1.342  0.2772  0.1586 -0.0189
 5996SOL    HW121134   7.429   2.660   1.324  2.4575 -1.9799 -0.9561
 5996SOL    HW221135   7.308   2.590   1.265 -0.0342  1.1312  0.1839
 5997SOL     OW21136   3.459   5.757   1.456 -0.4318  0.7304  0.0258
 5997SOL    HW121137   3.530   5.821   1.459 -0.2711  0.5142  1.5995
 5997SOL    HW221138   3.413   5.768   1.539 -2.5041  1.1243 -1.1022
 5998SOL     OW21139   3.278   0.301   0.103 -0.0463 -0.8183  0.4420
 5998SOL    HW121140   3.277   0.223   0.159  2.2894 -0.7598  0.6552
 5998SOL    HW221141   3.265   0.374   0.164  1.8859 -0.7970  0.8932
 5999SOL     OW21142   2.116   3.298   5.323  0.5146  0.6210  0.2914
 5999SOL    HW121143   2.091   3.313   5.415 -0.9067  0.0524  0.0303
 5999SOL    HW221144   2.141   3.385   5.291 -0.7857  1.1997  0.7300
 6000SOL     OW21145   1.500   4.437   0.614 -0.3535 -0.2774  0.1806
 6000SOL    HW121146   1.452   4.400   0.540 -0.6038  1.5570 -0.6127
 6000SOL    HW221147   1.505   4.531   0.596  1.8459 -0.1263  1.2081
 6001SOL     OW21148   7.464   2.773   4.169  0.0986  0.3273 -0.6755
 6001SOL    HW121149   7.495   2.703   4.226 -0.7363  0.1166 -0.4554
 6001SOL    HW221150   7.540   2.828   4.154  0.4789  0.0404  0.1449
 6002SOL     OW21151   5.192   8.066   4.131  0.4689  0.1929 -0.9048
 6002SOL    HW121152   5.274   8.106   4.161  0.1955  2.1908 -2.5609
 6002SOL    HW221153   5.209   8.041   4.040 -1.4375  3.1782 -2.2436
 6003SOL     OW21154   5.587   5.474   5.626  0.3723  0.0062  0.4582
 6003SOL    HW121155   5.562   5.430   5.706  1.5345 -1.3567  0.1038
 6003SOL    HW221156   5.623   5.558   5.655  1.8842 -0.9537  1.4866
 6004SOL     OW21157   0.319   3.313   5.260 -0.1793 -0.5682 -0.1728
 6004SOL    HW121158   0.403   3.286   5.224 -0.2088 -1.0258  0.0964
 6004SOL    HW221159   0.261   3.239   5.244 -1.8288  1.3459 -4.4699
 6005SOL     OW21160   5.010   5.658   1.735  0.4654  0.2049  0.2988
 6005SOL    HW121161   4.979   5.748   1.737 -3.3056 -0.9371  0.5537
 6005SOL    HW221162   5.022   5.639   1.642  0.7549  0.7951  0.2120
 6006SOL     OW21163   4.440   2.062   4.488 -0.6127  0.0600  0.2795
 6006SOL    HW121164   4.513   2.008   4.456 -1.2291 -0.8961  0.4367
 6006SOL    HW221165   4.480   2.122   4.551  0.4921  1.4377 -1.6538
 6007SOL     OW21166   0.246   7.936   0.250  0.1624  0.4402 -0.2483
 6007SOL    HW121167   0.335   7.929   0.217  0.0751 -2.4452 -0.1269
 6007SOL    HW221168   0.195   7.875   0.197 -0.9441 -0.7257  1.9886
 6008SOL     OW21169   5.489   6.940   6.383  0.0774  0.1492 -0.0959
 6008SOL    HW121170   5.540   6.896   6.451 -0.3558 -3.4470 -1.8531
 6008SOL    HW221171   5.401   6.948   6.420 -0.1347 -1.6953 -0.1264
 6009SOL     OW21172   1.206   2.757   2.863  0.4675 -0.5513 -0.4851
 6009SOL    HW121173   1.123   2.725   2.897 -0.4794 -1.0637 -3.0697
 6009SOL    HW221174   1.223   2.837   2.913 -1.8570 -0.1182 -0.2879
 6010SOL     OW21175   2.605   0.174   1.532  0.0837  0.0041 -0.4849
 6010SOL    HW121176   2.686   0.185   1.482  1.0732  2.0550  1.3912
 6010SOL    HW221177   2.630   0.122   1.608 -0.3923  0.4845  0.0094
 6011SOL     OW21178   1.961   0.792   7.547  0.6423 -0.3194  0.1234
 6011SOL    HW121179   1.919   0.790   7.633 -0.6614  1.0549 -0.4315
 6011SOL    HW221180   2.022   0.866   7.551  0.9341 -0.5530  0.0209
 6012SOL     OW21181   6.965   8.013   6.061  0.0786  0.0271 -0.0456
 6012SOL    HW121182   7.023   8.013   5.986  2.2915  0.1009  1.5688
 6012SOL    HW221183   6.945   7.920   6.076  1.0894 -0.1454  0.3072
 6013SOL     OW21184   0.409   4.434   3.383  0.2981 -0.1403  0.4158
 6013SOL    HW121185   0.319   4.463   3.398 -0.3599 -1.7378 -0.2376
 6013SOL    HW221186   0.444   4.497   3.320 -0.2943  0.6063  0.8148
 6014SOL     OW21187   7.410   0.950   7.343  0.1393  0.0283  0.2056
 6014SOL    HW121188   7.393   1.026   7.398  0.0142 -0.1042  0.3522
 6014SOL    HW221189   7.327   0.903   7.339  0.1890 -0.0495  0.0351
 6015SOL     OW21190   0.492   6.947   0.793 -0.2301 -0.2488 -0.4315
 6015SOL    HW121191   0.420   6.902   0.749 -0.7340  0.7778 -0.6750
 6015SOL    HW221192   0.454   6.979   0.875  0.6476 -1.9750  0.7099
 6016SOL     OW21193   1.506   6.166   5.329 -0.0788 -0.1213 -0.2407
 6016SOL    HW121194   1.459   6.246   5.354  0.1864 -0.3029  0.9114
 6016SOL    HW221195   1.440   6.111   5.287 -0.6404  0.0954  0.3341
 6017SOL     OW21196   1.947   7.780   6.623  0.2328  0.0888  0.0981
 6017SOL    HW121197   1.886   7.772   6.697  0.8982  0.8629  0.7542
 6017SOL    HW221198   1.892   7.813   6.552 -0.4508 -0.8194  0.1890
 6018SOL     OW21199   4.210   6.486   3.014  0.8312  0.2435 -0.3066
 6018SOL    HW121200   4.171   6.455   2.932 -2.1602  1.0613  0.6817
 6018SOL    HW221201   4.191   6.416   3.077  0.1791  1.0328  0.3942
 6019SOL     OW21202   2.641   5.531   6.917  0.5089 -0.3998 -0.2248
 6019SOL    HW121203   2.639   5.557   6.825  2.8907 -1.3796 -0.6343
 6019SOL    HW221204   2.572   5.582   6.958  1.1643  2.1122 -2.0435
 6020SOL     OW21205   4.448   4.527   3.788  0.0782 -0.1685  0.4746
 6020SOL    HW121206   4.457   4.618   3.816 -1.1154 -0.2358  1.1167
 6020SOL    HW221207   4.537   4.500   3.766  0.1504  2.1042 -2.7921
 6021SOL     OW21208   2.151   2.117   8.088  0.1996  0.0996 -0.4646
 6021SOL    HW121209   2.086   2.158   8.144 -0.4369  1.5778 -2.2141
 6021SOL    HW221210   2.136   2.153   8.001  2.4349 -0.5994 -1.2385
 6022SOL     OW21211   8.010   6.409   0.966 -0.6521  0.3329  0.1561
 6022SOL    HW121212   7.983   6.387   0.877 -1.4900  1.7630  0.0206
 6022SOL    HW221213   7.930   6.440   1.009 -0.0175  0.8491  1.0068
 6023SOL     OW21214   3.290   3.700   0.763 -0.5378  0.0373  0.2681
 6023SOL    HW121215   3.384   3.709   0.781 -0.3927 -0.4225 -0.2156
 6023SOL    HW221216   3.285   3.630   0.698 -1.2393 -0.1418  0.4998
 6024SOL     OW21217   1.821   7.354   2.631  1.1449  0.2298  0.2669
 6024SOL    HW121218   1.847   7.419   2.565 -1.5365  0.0907 -1.0885
 6024SOL    HW221219   1.848   7.270   2.594 -0.3252  0.1555 -0.7595
 6025SOL     OW21220   3.039   3.825   6.999 -0.3593  0.4314  1.0864
 6025SOL    HW121221   2.975   3.765   7.038 -1.7703  0.5513 -0.9196
 6025SOL    HW221222   3.025   3.908   7.046 -2.4147  0.7355  0.0524
 6026SOL     OW21223   2.422   1.662   3.670  0.3102 -0.2076  0.3781
 6026SOL    HW121224   2.471   1.616   3.602  0.9444 -0.5327  1.0552
 6026SOL    HW221225   2.392   1.743   3.627  0.4235 -0.5664 -0.3806
 6027SOL     OW21226   5.163   3.182   6.335 -0.0409  0.0613 -0.0237
 6027SOL    HW121227   5.208   3.144   6.410  0.2015  0.2757 -0.0584
 6027SOL    HW221228   5.070   3.168   6.353  0.0258 -3.7551 -1.6816
 6028SOL     OW21229   1.673   5.176   2.901 -0.0778  0.0073 -0.0166
 6028SOL    HW121230   1.757   5.223   2.901 -1.1159  2.0386  1.8664
 6028SOL    HW221231   1.619   5.224   2.964 -2.8782 -0.8615 -1.6069
 6029SOL     OW21232   5.226   2.197   3.500  0.0480 -0.6735 -0.3006
 6029SOL    HW121233   5.286   2.126   3.519 -1.4134 -1.3272  2.3087
 6029SOL    HW221234   5.255   2.269   3.557 -0.2970 -0.2213 -0.6869
 6030SOL     OW21235   4.168   7.891   7.674  0.4531 -0.4557 -0.2581
 6030SOL    HW121236   4.187   7.852   7.759  2.6409  1.0357  0.0277
 6030SOL    HW221237   4.099   7.955   7.690  0.3091 -0.7404  0.2471
 6031SOL     OW21238   5.958   4.640   0.596  0.5982 -0.3394  0.0017
 6031SOL    HW121239   5.907   4.672   0.671 -2.4831 -0.8588 -1.7335
 6031SOL    HW221240   5.958   4.713   0.535  0.4849 -0.9228 -0.7036
 6032SOL     OW21241   2.427   2.802   5.538  0.2378 -0.0100  0.0817
 6032SOL    HW121242   2.378   2.759   5.608  1.4434  0.7319  1.4312
 6032SOL    HW221243   2.370   2.794   5.462 -1.5509 -0.0452  1.3430
 6033SOL     OW21244   5.729   3.391   0.306  0.1840 -0.6095  0.3573
 6033SOL    HW121245   5.720   3.333   0.381 -1.5084  1.7120  2.1112
 6033SOL    HW221246   5.642   3.394   0.266  0.6506 -0.5381 -0.6976
 6034SOL     OW21247   5.284   6.782   3.411 -0.3211 -0.0368  0.3483
 6034SOL    HW121248   5.336   6.732   3.348 -1.0126  0.6694 -0.8342
 6034SOL    HW221249   5.261   6.719   3.479 -0.2669 -1.0563 -0.5474
 6035SOL     OW21250   4.432   2.046   1.801  0.1368  0.1540 -0.3279
 6035SOL    HW121251   4.481   1.968   1.774  0.7153  0.7538 -1.0470
 6035SOL    HW221252   4.477   2.077   1.880 -0.7524 -0.8396  0.6086
 6036SOL     OW21253   3.603   2.967   6.546 -0.6796 -0.6516  0.6404
 6036SOL    HW121254   3.522   2.976   6.596 -2.3023  0.0890 -1.9083
 6036SOL    HW221255   3.587   2.895   6.485 -0.3212  0.8665 -1.3636
 6037SOL     OW21256   2.301   5.787   6.343  0.4191 -0.3159  0.6033
 6037SOL    HW121257   2.355   5.803   6.265 -2.0904 -0.1323 -1.2089
 6037SOL    HW221258   2.348   5.832   6.414  2.5342 -0.0322 -0.8774
 6038SOL     OW21259   2.198   2.043   2.536  0.3997 -0.0769 -0.3092
 6038SOL    HW121260   2.205   1.950   2.517 -2.3005 -0.5842  0.8479
 6038SOL    HW221261   2.211   2.049   2.631 -0.8054  0.5201 -0.1664
 6039SOL     OW21262   1.227   5.277   7.022  0.0943  0.7120  0.3920
 6039SOL    HW121263   1.241   5.184   7.006  0.0945  0.7629  0.0947
 6039SOL    HW221264   1.238   5.318   6.937  2.4713  1.2781  0.8703
 6040SOL     OW21265   6.736   2.936   1.441  0.1644  0.2702  0.0555
 6040SOL    HW121266   6.742   2.927   1.345  0.0593  0.3370  0.0428
 6040SOL    HW221267   6.692   2.855   1.469  2.7411 -1.1320  0.3368
 6041SOL     OW21268   3.807   4.400   1.660  0.0517 -0.4316 -0.3289
 6041SOL    HW121269   3.859   4.468   1.617 -0.0959 -1.1539 -1.7195
 6041SOL    HW221270   3.733   4.386   1.602 -1.3580  0.0750  1.2703
 6042SOL     OW21271   1.311   2.547   4.158 -0.2367 -0.3975  0.2728
 6042SOL    HW121272   1.253   2.545   4.082 -0.2052 -1.1003  0.2583
 6042SOL    HW221273   1.344   2.457   4.166 -0.6610 -0.4764  1.4351
 6043SOL     OW21274   0.050   4.949   3.935 -0.0778  0.7508 -0.0412
 6043SOL    HW121275   0.038   4.867   3.886  0.7391  0.2309  0.5984
 6043SOL    HW221276   0.124   4.931   3.993  0.7216  2.2490 -0.5428
 6044SOL     OW21277   6.392   4.307   5.304 -0.3018  0.0782  0.7105
 6044SOL    HW121278   6.464   4.245   5.292  0.4657  0.9509  0.7257
 6044SOL    HW221279   6.429   4.392   5.281 -1.5773  0.4343 -0.1060
 6045SOL     OW21280   6.676   7.028   3.242  0.1092 -0.2342  0.6584
 6045SOL    HW121281   6.655   7.077   3.163  1.5785 -0.8804 -0.1732
 6045SOL    HW221282   6.609   7.054   3.305 -0.3915  1.2015 -0.4166
 6046SOL     OW21283   4.896   5.227   7.758 -0.3357  0.9860  0.3862
 6046SOL    HW121284   4.910   5.301   7.700  1.5470  1.1823  1.0149
 6046SOL    HW221285   4.971   5.169   7.742 -2.4559 -1.5923 -1.1675
 6047SOL     OW21286   3.185   2.609   1.431 -0.2133 -0.0402  0.1234
 6047SOL    HW121287   3.244   2.570   1.496  0.7721  0.5959 -0.3541
 6047SOL    HW221288   3.098   2.596   1.466  0.2791 -0.0734  1.3806
 6048SOL     OW21289   3.450   1.368   3.649  0.2556  0.2728  0.2163
 6048SOL    HW121290   3.380   1.309   3.625 -0.7113  1.0955  0.8871
 6048SOL    HW221291   3.529   1.329   3.614 -0.6501 -0.2359 -1.3145
 6049SOL     OW21292   4.299   0.636   6.174 -0.4458  0.4687  0.0689
 6049SOL    HW121293   4.334   0.614   6.261  1.8655  0.3908 -0.8190
 6049SOL    HW221294   4.231   0.570   6.159 -0.5873  0.2104  1.6112
 6050SOL     OW21295   4.825   2.249   1.851 -0.1475  0.2188 -0.2203
 6050SOL    HW121296   4.752   2.232   1.911 -0.6606 -0.9783 -1.1464
 6050SOL    HW221297   4.821   2.343   1.834  0.0134  0.5984  1.5994
 6051SOL     OW21298   5.898   5.533   2.253  0.0304  0.1909 -0.4101
 6051SOL    HW121299   5.928   5.619   2.227 -0.2787  0.2612 -0.5394
 6051SOL    HW221300   5.804   5.544   2.269  0.2296  0.1910  0.8830
 6052SOL     OW21301   6.848   4.607   3.607  0.6226  0.0111 -0.9833
 6052SOL    HW121302   6.830   4.667   3.535  3.1164  1.0001 -0.8874
 6052SOL    HW221303   6.944   4.598   3.608  0.7638  0.4629  2.4953
 6053SOL     OW21304   3.885   1.829   0.407  0.1507  0.1958  0.0610
 6053SOL    HW121305   3.866   1.922   0.393 -0.3119 -0.1169 -1.5192
 6053SOL    HW221306   3.889   1.821   0.503 -2.9156  1.2631  0.3998
 6054SOL     OW21307   1.045   2.688   1.301  0.1014 -0.0789  0.9929
 6054SOL    HW121308   0.966   2.677   1.354 -2.0946  1.3330 -1.7136
 6054SOL    HW221309   1.024   2.645   1.218  2.2379  0.2726  0.2089
 6055SOL     OW21310   4.947   5.407   7.535  0.6461 -0.1808  0.0005
 6055SOL    HW121311   5.005   5.347   7.487  1.1451 -0.6067  1.0979
 6055SOL    HW221312   4.878   5.429   7.472  2.0688  0.4596 -1.4014
 6056SOL     OW21313   3.913   1.970   5.391  0.1709  0.5721  0.2436
 6056SOL    HW121314   3.969   1.994   5.318 -0.6609  1.0777 -0.2308
 6056SOL    HW221315   3.853   2.044   5.403 -1.4520 -0.5912 -0.2955
 6057SOL     OW21316   3.307   0.014   2.708  0.2667 -0.8369 -0.5247
 6057SOL    HW121317   3.395  -0.003   2.743 -0.2980 -0.5829  1.0874
 6057SOL    HW221318   3.256  -0.063   2.733 -0.3157 -0.3462 -0.1579
 6058SOL     OW21319   5.950   4.841   0.411  0.3101  0.1030 -0.2863
 6058SOL    HW121320   6.002   4.906   0.457  0.6492 -0.8829  0.7546
 6058SOL    HW221321   6.005   4.812   0.338  0.6858  0.0241  0.0294
 6059SOL     OW21322   8.074   0.087   6.153 -0.0164 -0.1736 -0.0814
 6059SOL    HW121323   8.106   0.016   6.209 -0.7953 -0.4447  0.0428
 6059SOL    HW221324   8.112   0.070   6.067 -0.0628 -0.6472 -0.0109
 6060SOL     OW21325   5.529   7.045   1.840 -0.1377  0.3706  0.0426
 6060SOL    HW121326   5.580   7.032   1.920 -2.3573 -0.6043  1.3947
 6060SOL    HW221327   5.438   7.048   1.870 -1.0665 -0.2597 -2.4829
 6061SOL     OW21328   6.290   3.307   1.185 -0.4422 -0.2426  0.2373
 6061SOL    HW121329   6.323   3.397   1.188  2.2010 -1.1321  0.0270
 6061SOL    HW221330   6.210   3.309   1.238  1.1200  1.6058  2.7358
 6062SOL     OW21331   2.172   5.367   3.119  0.7862  0.1728  0.0388
 6062SOL    HW121332   2.252   5.316   3.108  1.5363  1.6105 -1.7452
 6062SOL    HW221333   2.201   5.449   3.160 -0.1326 -0.1348  1.3627
 6063SOL     OW21334   7.539   3.856   0.332 -0.6301  0.0408 -0.2785
 6063SOL    HW121335   7.563   3.930   0.277 -4.3032  0.2520 -1.8942
 6063SOL    HW221336   7.599   3.860   0.407  2.0953  1.9944 -2.3922
 6064SOL     OW21337   3.549   5.876   4.195  0.5276 -0.2567  0.5578
 6064SOL    HW121338   3.521   5.874   4.103  2.4622 -0.3412 -0.0737
 6064SOL    HW221339   3.642   5.855   4.192  1.3943  2.7283  2.2148
 6065SOL     OW21340   4.053   5.829   0.858 -0.1078  0.2118 -0.6403
 6065SOL    HW121341   3.975   5.820   0.913 -0.5097  0.1338 -1.2109
 6065SOL    HW221342   4.093   5.911   0.887 -1.1493  0.9603 -1.2536
 6066SOL     OW21343   4.698   6.228   5.568  0.6981 -0.0566  0.3070
 6066SOL    HW121344   4.698   6.144   5.521 -0.3598  0.7702 -1.2669
 6066SOL    HW221345   4.615   6.229   5.615  0.7686  0.0406  0.4264
 6067SOL     OW21346   2.651   6.012   8.065 -0.0869 -0.7864  0.4513
 6067SOL    HW121347   2.678   6.102   8.045  1.1756 -1.1581  0.3890
 6067SOL    HW221348   2.732   5.962   8.060 -0.4887 -1.6486  2.1650
 6068SOL     OW21349   6.656   1.958   0.880 -0.3815  0.2253 -0.3776
 6068SOL    HW121350   6.678   1.895   0.949 -0.2864 -0.2843 -0.8679
 6068SOL    HW221351   6.703   2.038   0.904  0.7276 -0.3606 -0.5595
 6069SOL     OW21352   7.450   4.699   5.263 -0.4391 -0.1213  0.3421
 6069SOL    HW121353   7.426   4.613   5.298 -1.4921 -0.0487 -0.1704
 6069SOL    HW221354   7.528   4.724   5.313 -0.3681 -1.1815  0.7924
 6070SOL     OW21355   8.052   2.843   5.440 -0.0221  0.1248 -0.5347
 6070SOL    HW121356   8.140   2.812   5.458 -1.0775 -2.3409  0.9986
 6070SOL    HW221357   8.031   2.810   5.353  0.1150 -0.5338 -0.3267
 6071SOL     OW21358   0.891   6.520   4.378  0.0566 -0.1031 -0.3325
 6071SOL    HW121359   0.959   6.510   4.446  0.8333 -0.3462 -1.1254
 6071SOL    HW221360   0.876   6.614   4.374 -0.0137 -0.0860  0.1932
 6072SOL     OW21361   6.599   4.184   2.953 -0.0976  0.9798 -0.7974
 6072SOL    HW121362   6.520   4.130   2.962 -1.8787  3.1064 -2.5121
 6072SOL    HW221363   6.661   4.129   2.906 -0.6011 -0.6544  0.3469
 6073SOL     OW21364   4.407   4.031   5.459  0.0045  0.1723  0.5067
 6073SOL    HW121365   4.489   4.051   5.504  1.0146 -2.0229 -0.2093
 6073SOL    HW221366   4.431   4.027   5.366 -0.2042 -3.2391  0.4910
 6074SOL     OW21367   6.225   7.550   4.243 -0.6255 -0.1008 -0.0698
 6074SOL    HW121368   6.301   7.503   4.279  0.9924  2.2999 -0.1097
 6074SOL    HW221369   6.241   7.553   4.149 -1.6545 -0.9498 -0.3001
 6075SOL     OW21370   7.248   0.977   1.700  0.1090 -0.1675  0.4450
 6075SOL    HW121371   7.216   0.959   1.612 -0.4371  0.0893  0.5874
 6075SOL    HW221372   7.224   1.069   1.716 -0.3735 -0.4001  1.1046
 6076SOL     OW21373   7.699   3.116   0.924 -0.0844  0.1352 -1.0439
 6076SOL    HW121374   7.613   3.077   0.938 -0.1068  1.1286  2.7382
 6076SOL    HW221375   7.686   3.209   0.940  1.4996  0.4725 -1.5401
 6077SOL     OW21376   6.394   4.882   3.689  0.1010  0.3370  0.0561
 6077SOL    HW121377   6.371   4.828   3.764  1.8025  0.8238  0.9857
 6077SOL    HW221378   6.320   4.941   3.678  0.6482  1.6378  2.6834
 6078SOL     OW21379   6.005   0.966   2.556 -0.2492 -0.2160  0.1822
 6078SOL    HW121380   6.081   1.021   2.576 -0.8929  0.8710 -0.2406
 6078SOL    HW221381   6.038   0.877   2.557  0.7295  0.1277  1.4099
 6079SOL     OW21382   6.058   1.220   3.672 -0.1367  0.7160  0.6877
 6079SOL    HW121383   5.967   1.209   3.700 -0.2064  0.0076  0.2141
 6079SOL    HW221384   6.086   1.133   3.646  0.9580  0.7775  1.5946
 6080SOL     OW21385   5.288   6.110   7.277 -0.1526 -0.1716  0.7827
 6080SOL    HW121386   5.266   6.022   7.245  0.2681  0.2952 -0.8801
 6080SOL    HW221387   5.203   6.149   7.299 -0.7866  0.3032 -2.0862
 6081SOL     OW21388   6.367   4.348   1.216  0.5713  0.2119  0.6190
 6081SOL    HW121389   6.311   4.364   1.292  0.1444  0.1443  0.3219
 6081SOL    HW221390   6.385   4.435   1.180 -0.8990  0.1292 -0.3892
 6082SOL     OW21391   0.327   6.822   2.281  0.1505  0.0911 -0.5158
 6082SOL    HW121392   0.376   6.866   2.212  0.8102 -0.5082 -0.4406
 6082SOL    HW221393   0.287   6.892   2.331 -0.3509  0.5397 -1.5136
 6083SOL     OW21394   7.143   4.271   0.465 -0.2348 -0.0618  0.1777
 6083SOL    HW121395   7.136   4.189   0.514  0.8545 -0.0420  0.3846
 6083SOL    HW221396   7.167   4.244   0.376 -0.8302 -0.0076 -0.0117
 6084SOL     OW21397   6.379   4.599   0.070 -0.7590 -0.4628 -0.1868
 6084SOL    HW121398   6.438   4.652   0.016 -0.5206 -1.0781 -0.5368
 6084SOL    HW221399   6.306   4.658   0.090 -0.1196  0.2500  0.1012
 6085SOL     OW21400   3.345   0.674   0.061 -0.1796  0.4756  0.0401
 6085SOL    HW121401   3.412   0.689  -0.005 -0.1448  0.7049  0.1265
 6085SOL    HW221402   3.273   0.633   0.013  0.3375 -0.5459  0.1043
 6086SOL     OW21403   6.523   5.123   3.962  0.5628 -0.2825  0.5311
 6086SOL    HW121404   6.573   5.090   3.888 -0.5339  0.9869 -0.8255
 6086SOL    HW221405   6.441   5.073   3.961  0.4306 -0.0729  0.7171
 6087SOL     OW21406   7.734   5.605   5.493  0.1100  0.5576 -0.1352
 6087SOL    HW121407   7.764   5.570   5.577  1.3972 -0.6264 -1.0437
 6087SOL    HW221408   7.814   5.613   5.441 -0.8269 -0.1329 -1.7496
 6088SOL     OW21409   7.299   7.908   0.609  0.1306  0.0132 -0.1003
 6088SOL    HW121410   7.213   7.870   0.627  0.2322  0.0358  0.4257
 6088SOL    HW221411   7.352   7.888   0.686  0.2424  1.0619  0.1041
 6089SOL     OW21412   0.441   8.081   6.284  0.1366  0.3379 -0.2902
 6089SOL    HW121413   0.371   8.020   6.308  1.0047 -0.7786 -0.4939
 6089SOL    HW221414   0.489   8.097   6.365 -0.1977  0.8963 -0.2014
 6090SOL     OW21415   0.832   1.319   2.939  0.3257 -0.3743 -0.0398
 6090SOL    HW121416   0.837   1.244   2.998  0.5413  0.0317  0.4655
 6090SOL    HW221417   0.886   1.386   2.981 -0.7349  0.4326  0.0704
 6091SOL     OW21418   2.200   4.154   2.039 -0.1882 -0.2001 -0.0631
 6091SOL    HW121419   2.108   4.168   2.061  0.1674  0.6091  0.9740
 6091SOL    HW221420   2.216   4.062   2.058  0.2045  0.4915  3.6444
 6092SOL     OW21421   0.595   5.154   2.474  0.5511 -0.4354  0.7084
 6092SOL    HW121422   0.535   5.115   2.537 -1.8151 -1.7327 -2.1023
 6092SOL    HW221423   0.654   5.083   2.450  0.6813 -0.2837  0.5779
 6093SOL     OW21424   1.089   5.587   5.500  0.6900  0.2042 -0.7999
 6093SOL    HW121425   1.040   5.507   5.518  0.1158  0.6372 -0.4080
 6093SOL    HW221426   1.167   5.580   5.555 -0.1210  0.6244  0.4509
 6094SOL     OW21427   0.597   5.593   7.635 -0.0494 -0.3721 -0.4336
 6094SOL    HW121428   0.660   5.659   7.608  0.1678 -0.7348 -0.8425
 6094SOL    HW221429   0.599   5.528   7.564 -1.2404 -0.1496 -0.6928
 6095SOL     OW21430   2.006   7.154   5.944  0.2987 -0.1746  0.1217
 6095SOL    HW121431   2.084   7.154   5.888 -0.1784 -1.2225 -0.5666
 6095SOL    HW221432   1.967   7.068   5.931 -2.5000  1.2101 -1.6990
 6096SOL     OW21433   5.535   5.845   7.255 -0.3865 -0.7780 -0.3769
 6096SOL    HW121434   5.450   5.861   7.215 -1.2584  1.7462  2.1270
 6096SOL    HW221435   5.583   5.927   7.244  0.8692 -1.4099  0.1477
 6097SOL     OW21436   4.540   4.116   6.364  0.7079 -0.3431  0.0652
 6097SOL    HW121437   4.516   4.160   6.283  3.2410  0.4645 -0.3421
 6097SOL    HW221438   4.602   4.049   6.338 -0.5432 -1.9723  1.0793
 6098SOL     OW21439   1.021   3.474   6.186  0.1767 -0.1953  0.3410
 6098SOL    HW121440   1.010   3.429   6.271  0.1904  1.1116  1.0597
 6098SOL    HW221441   0.932   3.479   6.151 -0.1235  0.9710  1.2028
 6099SOL     OW21442   0.329   0.263   2.744 -0.8349 -0.0816 -0.1446
 6099SOL    HW121443   0.352   0.316   2.668 -1.5009  0.9343  0.3399
 6099SOL    HW221444   0.387   0.187   2.739  0.0916  0.6517 -0.8982
 6100SOL     OW21445   4.594   0.245   7.846 -0.1515  0.0693 -0.0455
 6100SOL    HW121446   4.652   0.242   7.922  0.0724 -1.2707 -0.2547
 6100SOL    HW221447   4.648   0.284   7.776 -0.3472  1.2695  0.4540
 6101SOL     OW21448   2.967   2.992   4.115  0.3681  0.0361 -0.3522
 6101SOL    HW121449   2.977   3.081   4.148 -0.4088  0.5796 -1.5257
 6101SOL    HW221450   2.991   2.936   4.189 -2.5392  1.1594  1.6546
 6102SOL     OW21451   4.351   1.637   5.386 -0.2578 -0.5162 -0.3603
 6102SOL    HW121452   4.259   1.630   5.413 -0.7547 -0.9180 -2.0186
 6102SOL    HW221453   4.356   1.721   5.341  0.1170 -0.6343 -0.5438
 6103SOL     OW21454   1.379   4.822   5.648 -0.1395 -0.5620  0.6802
 6103SOL    HW121455   1.458   4.807   5.700 -0.3787 -0.1511  1.1796
 6103SOL    HW221456   1.409   4.868   5.570  0.0472  0.1042  1.1363
 6104SOL     OW21457   3.936   5.745   1.546 -0.5897  0.8541 -0.0553
 6104SOL    HW121458   3.877   5.820   1.548 -2.1492 -0.2647 -1.3794
 6104SOL    HW221459   3.973   5.746   1.458 -1.7126 -0.6546 -0.6013
 6105SOL     OW21460   3.792   1.524   4.311  0.3572 -0.1495 -0.0408
 6105SOL    HW121461   3.787   1.467   4.234 -0.5928  0.4231 -0.4188
 6105SOL    HW221462   3.719   1.585   4.300  1.5312  1.3537  0.1915
 6106SOL     OW21463   0.237   6.894   3.624 -0.0363 -0.6614  0.3936
 6106SOL    HW121464   0.201   6.847   3.699 -1.4601  0.1443  0.2433
 6106SOL    HW221465   0.324   6.922   3.652 -0.9614  0.6032  2.2125
 6107SOL     OW21466   4.583   0.506   6.159  0.9090  0.2186 -0.0296
 6107SOL    HW121467   4.629   0.425   6.183  0.4320 -1.0818 -2.9937
 6107SOL    HW221468   4.515   0.515   6.226  2.5191 -0.4077  1.7789
 6108SOL     OW21469   1.093   4.466   1.928 -0.3799  0.3301  0.0373
 6108SOL    HW121470   1.062   4.421   1.850 -0.0999 -0.0098  0.1211
 6108SOL    HW221471   1.175   4.507   1.901 -0.6191  0.7717 -0.0310
 6109SOL     OW21472   7.524   5.727   0.046  0.1391 -0.1696  0.1360
 6109SOL    HW121473   7.608   5.771   0.035  0.5152 -0.7041  0.7674
 6109SOL    HW221474   7.473   5.786   0.102  0.3967 -0.2356  0.4381
 6110SOL     OW21475   1.577   4.707   3.433  0.5581 -0.0652  0.5767
 6110SOL    HW121476   1.560   4.783   3.488  1.2390 -0.7596  1.7859
 6110SOL    HW221477   1.499   4.652   3.444  0.2337  0.2750  0.0052
 6111SOL     OW21478   7.948   4.915   6.921  0.2451  0.1232 -0.2070
 6111SOL    HW121479   7.897   4.835   6.931 -1.8259  1.3042 -0.7121
 6111SOL    HW221480   8.026   4.901   6.975 -1.6073 -0.9199  2.4052
 6112SOL     OW21481   4.827   0.730   2.182 -0.0823  0.2437 -0.0045
 6112SOL    HW121482   4.796   0.789   2.251  2.1895  0.5364  0.8480
 6112SOL    HW221483   4.830   0.785   2.104  1.1273  1.0740  0.5833
 6113SOL     OW21484   6.417   7.830   6.459  0.0902  0.3854 -0.1871
 6113SOL    HW121485   6.492   7.827   6.399  0.7408 -1.3647  0.6538
 6113SOL    HW221486   6.369   7.749   6.442  1.1119 -0.9210  2.6003
 6114SOL     OW21487   3.795   0.389   7.349 -0.1610  0.0247 -0.4321
 6114SOL    HW121488   3.827   0.479   7.340 -1.2114  0.3160 -1.6024
 6114SOL    HW221489   3.752   0.386   7.434  0.1674  0.5212 -0.2458
 6115SOL     OW21490   2.217   7.367   4.193 -0.2516  0.3656  0.2159
 6115SOL    HW121491   2.215   7.412   4.278 -0.5158 -1.2435  1.1025
 6115SOL    HW221492   2.137   7.314   4.193  0.2830 -0.4546 -0.6060
 6116SOL     OW21493   5.666   6.597   0.008  0.2570  0.0171 -0.0278
 6116SOL    HW121494   5.760   6.603   0.026  0.4581  0.3379 -1.1198
 6116SOL    HW221495   5.653   6.647  -0.073 -0.7001 -0.7949 -0.4031
 6117SOL     OW21496   3.117   2.480   4.818  0.1664 -0.2821  0.0865
 6117SOL    HW121497   3.061   2.406   4.794 -0.4941 -0.1409  1.1023
 6117SOL    HW221498   3.198   2.440   4.850 -0.4999 -0.6437  1.4274
 6118SOL     OW21499   1.252   6.434   0.666  0.1705  0.4381  0.0048
 6118SOL    HW121500   1.302   6.444   0.585  0.2277  0.5066  0.0482
 6118SOL    HW221501   1.241   6.340   0.677  1.7512  0.3235  0.8844
 6119SOL     OW21502   5.903   0.192   2.687  0.7467  0.2361  0.2354
 6119SOL    HW121503   5.849   0.269   2.702 -0.9313 -0.8785  0.1165
 6119SOL    HW221504   5.863   0.149   2.612  1.2266 -1.1272  0.7312
 6120SOL     OW21505   2.882   7.157   4.987 -0.2275  0.3587  0.0762
 6120SOL    HW121506   2.938   7.094   4.941  0.0055  0.2130  0.5495
 6120SOL    HW221507   2.795   7.144   4.951 -0.0750  0.1419 -0.2135
 6121SOL     OW21508   3.705   5.745   7.995 -0.4787 -0.2424 -0.3223
 6121SOL    HW121509   3.751   5.823   8.026 -1.7660  0.6714 -0.6355
 6121SOL    HW221510   3.628   5.739   8.051 -1.2753 -0.2920 -1.3903
 6122SOL     OW21511   1.795   3.643   3.270  0.0530  0.1251 -0.0896
 6122SOL    HW121512   1.726   3.601   3.218 -0.9776  1.0487  0.4988
 6122SOL    HW221513   1.850   3.687   3.205  2.1309 -3.2880 -0.9220
 6123SOL     OW21514   2.478   5.257   6.562 -0.0925  0.2135  0.0069
 6123SOL    HW121515   2.501   5.220   6.647 -1.2928 -2.2926 -0.6535
 6123SOL    HW221516   2.389   5.225   6.545 -0.0339  0.9504 -2.0211
 6124SOL     OW21517   3.702   0.462   0.060 -0.3725  0.3496 -0.2250
 6124SOL    HW121518   3.638   0.491   0.125  0.6818  0.6117  0.7293
 6124SOL    HW221519   3.668   0.378   0.028 -0.1700 -0.5393  1.7755
 6125SOL     OW21520   1.398   3.932   6.612 -0.3112  0.4501  0.0977
 6125SOL    HW121521   1.415   3.851   6.660 -0.5286 -0.2049 -0.8993
 6125SOL    HW221522   1.445   3.999   6.660 -0.3712 -0.2191  1.1138
 6126SOL     OW21523   0.512   2.276   0.702  0.0199  0.3240 -0.1624
 6126SOL    HW121524   0.427   2.286   0.746  0.8826  0.6975  1.5200
 6126SOL    HW221525   0.551   2.199   0.743  0.9733  0.8461 -0.0536
 6127SOL     OW21526   8.091   3.952   5.816  0.3233 -0.2259  0.7992
 6127SOL    HW121527   8.017   3.979   5.870  0.5801 -1.6317  1.9247
 6127SOL    HW221528   8.113   4.029   5.764 -1.0672  0.6210  1.4239
 6128SOL     OW21529   4.220   3.303   6.135  0.2630 -0.1672  0.1102
 6128SOL    HW121530   4.247   3.301   6.227 -1.3475 -0.8316  0.5959
 6128SOL    HW221531   4.271   3.376   6.097 -0.0596  1.0325  1.8501
 6129SOL     OW21532   7.105   0.317   4.224 -0.1971 -0.2270 -0.7135
 6129SOL    HW121533   7.010   0.306   4.220 -0.3031  0.4938 -0.4291
 6129SOL    HW221534   7.133   0.264   4.298 -0.6939  1.3595  0.6778
 6130SOL     OW21535   5.343   1.280   5.428  0.1321 -0.3189 -0.3015
 6130SOL    HW121536   5.374   1.328   5.506  0.1899  0.6188 -0.8861
 6130SOL    HW221537   5.319   1.349   5.366 -0.4772 -1.0591 -0.9004
 6131SOL     OW21538   3.111   5.589   3.702 -0.1737  0.0528 -0.2165
 6131SOL    HW121539   3.072   5.517   3.752  0.3741 -0.4928 -0.5695
 6131SOL    HW221540   3.085   5.571   3.611 -0.6731  0.7204 -0.2140
 6132SOL     OW21541   0.976   0.257   5.607 -0.0048 -0.4388  0.8582
 6132SOL    HW121542   0.919   0.198   5.656  0.6657 -1.0500  0.9164
 6132SOL    HW221543   1.055   0.265   5.661  0.6120 -0.8633  0.0384
 6133SOL     OW21544   7.306   5.519   4.504  0.6662 -0.0922 -0.3681
 6133SOL    HW121545   7.327   5.436   4.461  2.0850  0.8569 -1.5805
 6133SOL    HW221546   7.226   5.549   4.462  1.0204 -0.0850 -1.0406
 6134SOL     OW21547   3.592   7.756   1.091 -0.3617 -0.4543  0.3079
 6134SOL    HW121548   3.571   7.662   1.087  0.2922 -0.6596  1.3317
 6134SOL    HW221549   3.636   7.773   1.007 -2.0769 -0.6278 -0.6709
 6135SOL     OW21550   0.309   0.453   0.766 -0.0069 -0.2293 -0.0809
 6135SOL    HW121551   0.273   0.395   0.832 -1.1930 -0.0624 -0.5624
 6135SOL    HW221552   0.404   0.453   0.783 -0.1024 -1.5023  0.5413
 6136SOL     OW21553   2.892   2.382   0.967  0.2382 -0.4616 -0.2142
 6136SOL    HW121554   2.896   2.473   0.937 -0.8340  0.3045  1.7821
 6136SOL    HW221555   2.798   2.364   0.976  0.4706 -1.4045  0.4450
 6137SOL     OW21556   6.761   2.106   4.112 -0.0374  0.3062  0.3375
 6137SOL    HW121557   6.835   2.138   4.062  0.0447  0.8429  0.7889
 6137SOL    HW221558   6.800   2.059   4.186 -0.1562 -1.3928 -0.6460
 6138SOL     OW21559   1.497   2.217   5.435 -0.1660 -0.0218  0.0242
 6138SOL    HW121560   1.532   2.241   5.350 -2.1046 -1.7340 -1.3348
 6138SOL    HW221561   1.404   2.242   5.431 -0.5721 -1.2299  1.1553
 6139SOL     OW21562   5.789   7.756   3.331 -0.4340  0.5299 -0.0939
 6139SOL    HW121563   5.818   7.841   3.365  0.4067  0.7247 -1.2689
 6139SOL    HW221564   5.732   7.778   3.258  0.2328  0.0768 -0.7584
 6140SOL     OW21565   2.850   0.084   7.411 -0.4868  0.5419  0.3643
 6140SOL    HW121566   2.799   0.005   7.390 -1.2582  1.0713  0.2183
 6140SOL    HW221567   2.827   0.103   7.502  0.9740 -0.3415  0.9420
 6141SOL     OW21568   1.330   3.938   0.154  0.3380 -0.2294 -0.0926
 6141SOL    HW121569   1.356   3.872   0.090 -1.1176 -0.8225 -0.1062
 6141SOL    HW221570   1.406   3.996   0.161  0.6598 -0.3549 -2.0816
 6142SOL     OW21571   5.645   5.329   3.841 -0.5127  0.2436  0.4105
 6142SOL    HW121572   5.612   5.242   3.860  1.5617 -0.7858 -0.4231
 6142SOL    HW221573   5.734   5.315   3.809 -0.6407  2.5379 -1.2188
 6143SOL     OW21574   5.076   7.941   7.090  0.8857 -0.1502  0.6196
 6143SOL    HW121575   5.151   7.954   7.032  0.2317 -0.8612 -0.4189
 6143SOL    HW221576   5.003   7.984   7.045  0.6000  0.3415  1.5076
 6144SOL     OW21577   3.807   1.981   5.984 -0.2575 -0.0020 -0.2806
 6144SOL    HW121578   3.721   2.013   6.010 -1.8059 -3.3711 -0.6317
 6144SOL    HW221579   3.853   1.964   6.066 -0.4231  0.6385 -0.0539
 6145SOL     OW21580   1.549   7.454   3.727 -0.2287 -0.1411 -0.2277
 6145SOL    HW121581   1.563   7.471   3.633 -0.1834  0.2820 -0.1466
 6145SOL    HW221582   1.486   7.383   3.729  2.0940 -2.3814 -0.6360
 6146SOL     OW21583   5.705   6.998   7.461 -0.6509  0.1133  0.2867
 6146SOL    HW121584   5.716   6.910   7.499  0.0708 -0.2033 -0.5906
 6146SOL    HW221585   5.681   7.053   7.534 -0.0036 -0.6137  1.0759
 6147SOL     OW21586   4.074   3.574   0.873 -0.2699 -0.1524  0.1762
 6147SOL    HW121587   4.110   3.537   0.792  2.3366  0.0896  1.1144
 6147SOL    HW221588   4.075   3.502   0.935  0.3577  0.2952  0.7102
 6148SOL     OW21589   7.665   7.234   4.396 -0.0226 -0.2811  0.5725
 6148SOL    HW121590   7.721   7.232   4.474 -0.4616 -0.3117  0.8911
 6148SOL    HW221591   7.611   7.312   4.408  0.5331  0.2357 -0.1532
 6149SOL     OW21592   5.483   0.041   5.868 -0.0926 -0.0421  0.3338
 6149SOL    HW121593   5.390   0.028   5.851 -0.2817  1.6814 -0.0889
 6149SOL    HW221594   5.525  -0.034   5.825 -1.3353 -1.7511  1.8863
 6150SOL     OW21595   7.753   3.537   1.837  0.9150 -0.0976 -0.4960
 6150SOL    HW121596   7.832   3.582   1.866  2.2473 -2.6123  0.0397
 6150SOL    HW221597   7.771   3.512   1.747  0.2809  0.2203 -0.7178
 6151SOL     OW21598   1.727   2.524   0.703 -0.0196  0.4558 -0.4006
 6151SOL    HW121599   1.685   2.538   0.788 -0.0198  0.9672 -0.4845
 6151SOL    HW221600   1.798   2.463   0.722  1.3978  2.2589  0.4141
 6152SOL     OW21601   6.678   7.514   4.150  0.5642 -0.5107 -0.3668
 6152SOL    HW121602   6.747   7.518   4.216 -0.3272  2.0721  0.5404
 6152SOL    HW221603   6.721   7.540   4.068  0.8604  0.3580  0.0497
 6153SOL     OW21604   7.945   3.372   6.825 -0.2897 -0.0226 -0.5872
 6153SOL    HW121605   7.873   3.346   6.883 -0.4509  2.0621  0.2425
 6153SOL    HW221606   7.915   3.349   6.738 -0.4515 -2.3651  0.0042
 6154SOL     OW21607   0.260   5.381   6.909  0.2874 -0.1628 -0.0196
 6154SOL    HW121608   0.346   5.357   6.945  0.5513  0.3782 -0.2892
 6154SOL    HW221609   0.200   5.372   6.983  0.5533 -0.6356  0.1488
 6155SOL     OW21610   1.798   4.807   0.606  0.1551  0.2516  0.3677
 6155SOL    HW121611   1.870   4.861   0.638 -1.6792  1.8744  1.9431
 6155SOL    HW221612   1.804   4.814   0.511  0.8520  2.0477  0.4993
 6156SOL     OW21613   8.093   7.891   4.148 -0.2850  0.0859 -0.2212
 6156SOL    HW121614   8.006   7.886   4.109 -0.3642  0.2621 -0.0731
 6156SOL    HW221615   8.129   7.974   4.117 -0.7424  0.7170  0.8605
 6157SOL     OW21616   5.491   1.803   0.003  0.3366  0.0617 -0.3521
 6157SOL    HW121617   5.472   1.712  -0.019  0.7723  0.3335 -2.0283
 6157SOL    HW221618   5.422   1.828   0.064 -0.9416 -0.8393 -1.3678
 6158SOL     OW21619   0.751   2.436   2.864  0.3728 -0.0784  0.2332
 6158SOL    HW121620   0.716   2.524   2.881  0.3764  0.0516 -0.3885
 6158SOL    HW221621   0.825   2.452   2.805  0.4076 -0.4966  0.1647
 6159SOL     OW21622   4.761   4.986   7.698  0.1620 -0.8857  0.8189
 6159SOL    HW121623   4.811   5.065   7.679  0.8945 -2.0086 -2.6369
 6159SOL    HW221624   4.820   4.931   7.750 -0.3682  0.7322  3.2764
 6160SOL     OW21625   4.782   4.088   4.633 -0.4094 -0.4069 -0.8542
 6160SOL    HW121626   4.728   4.122   4.704 -0.6322  0.5579 -1.4616
 6160SOL    HW221627   4.862   4.058   4.676 -1.6386 -2.4568  0.1482
 6161SOL     OW21628   0.240   0.184   5.917 -0.5267 -0.1052 -0.3634
 6161SOL    HW121629   0.171   0.226   5.865  0.6464  1.7646 -0.5111
 6161SOL    HW221630   0.251   0.098   5.878 -1.2476  0.4112 -1.7765
 6162SOL     OW21631   2.692   0.600   7.303  0.0424  0.5167  0.5107
 6162SOL    HW121632   2.739   0.649   7.235 -1.5023  1.3315 -0.0239
 6162SOL    HW221633   2.715   0.508   7.287  1.2599  0.8710  0.1458
 6163SOL     OW21634   4.200   6.976   4.418 -0.0019 -0.1221  0.0413
 6163SOL    HW121635   4.132   7.030   4.378  0.2302  0.4471  0.4124
 6163SOL    HW221636   4.208   6.900   4.359 -4.0660 -2.5307  2.1021
 6164SOL     OW21637   1.532   6.342   6.125  0.0596 -0.0984  1.0413
 6164SOL    HW121638   1.493   6.408   6.068  0.2899 -0.8671 -0.0432
 6164SOL    HW221639   1.625   6.363   6.125  0.7023 -2.1867 -1.9258
 6165SOL     OW21640   2.564   7.444   5.952 -0.2513 -0.0381  0.7781
 6165SOL    HW121641   2.544   7.412   6.040  1.4203 -0.4418  1.0523
 6165SOL    HW221642   2.628   7.381   5.918 -0.4519  0.4238 -0.5131
 6166SOL     OW21643   7.689   2.054   0.972 -0.5419 -0.0498 -0.1429
 6166SOL    HW121644   7.693   2.095   0.886  0.2650 -1.3984 -0.7932
 6166SOL    HW221645   7.689   2.127   1.034  1.5510  0.9638 -1.2010
 6167SOL     OW21646   2.700   5.050   5.392 -0.1529  0.2460 -0.6158
 6167SOL    HW121647   2.723   4.972   5.442  0.3421 -0.5764 -2.0653
 6167SOL    HW221648   2.766   5.115   5.416  0.4805 -0.3578 -0.7273
 6168SOL     OW21649   2.156   4.277   4.037 -0.1411  0.7628  0.7375
 6168SOL    HW121650   2.141   4.196   4.085  1.6776  0.6052  1.0976
 6168SOL    HW221651   2.124   4.259   3.948 -1.0761  0.1676  1.1798
 6169SOL     OW21652   2.977   2.924   6.165 -0.2234  0.2297 -0.4198
 6169SOL    HW121653   3.026   2.882   6.094 -0.5909 -1.4762  0.2720
 6169SOL    HW221654   2.999   2.873   6.243 -0.9183  1.1827  0.4299
 6170SOL     OW21655   4.606   6.074   0.310 -0.4343 -0.3202  0.4756
 6170SOL    HW121656   4.582   6.063   0.218 -1.6683  1.3608  0.5584
 6170SOL    HW221657   4.553   6.009   0.357 -0.6693 -0.3865  0.1157
 6171SOL     OW21658   8.047   7.091   3.358 -0.0683 -0.2498 -0.5686
 6171SOL    HW121659   8.028   7.167   3.412  0.6597 -0.7695  0.4615
 6171SOL    HW221660   7.983   7.095   3.287 -0.1936  1.1738 -0.3977
 6172SOL     OW21661   3.396   2.263   5.847  0.4708 -0.5390  0.9717
 6172SOL    HW121662   3.463   2.306   5.900 -1.3321  2.0928  1.3329
 6172SOL    HW221663   3.435   2.257   5.760  1.7316 -0.5032  1.5145
 6173SOL     OW21664   7.210   7.506   0.463  0.3196  0.4496  0.3605
 6173SOL    HW121665   7.247   7.418   0.465 -0.4722  0.0872 -0.4684
 6173SOL    HW221666   7.286   7.564   0.475  1.1043 -0.2782 -0.8841
 6174SOL     OW21667   5.126   6.805   1.394  0.2019  0.3059  0.3052
 6174SOL    HW121668   5.036   6.807   1.360  0.9984  0.5269 -1.9842
 6174SOL    HW221669   5.136   6.718   1.431 -0.9759  0.3159  0.6914
 6175SOL     OW21670   8.026   5.549   4.387 -0.8723  0.0408 -0.3261
 6175SOL    HW121671   8.089   5.611   4.351  0.3286 -0.6099  0.5566
 6175SOL    HW221672   7.954   5.603   4.419  0.1918  1.0117  0.5220
 6176SOL     OW21673   3.513   3.227   2.675 -0.5039  0.6392  0.4311
 6176SOL    HW121674   3.607   3.212   2.663 -0.5402 -0.3615  1.2028
 6176SOL    HW221675   3.476   3.219   2.587  0.0436  0.2617  0.2289
 6177SOL     OW21676   4.029   4.428   5.359 -0.0237 -0.2229  0.9013
 6177SOL    HW121677   4.121   4.414   5.381  0.4086 -0.6530 -1.0016
 6177SOL    HW221678   4.025   4.519   5.330  0.1032 -0.5919 -0.3166
 6178SOL     OW21679   6.893   0.128   3.809  0.0737  0.3553 -0.2941
 6178SOL    HW121680   6.958   0.150   3.875  1.0455 -0.9138 -0.7642
 6178SOL    HW221681   6.942   0.127   3.727 -1.0754  1.7473 -1.0410
 6179SOL     OW21682   5.361   1.067   7.492 -0.0840 -0.3584  0.0064
 6179SOL    HW121683   5.384   1.158   7.511 -0.9525 -0.0457 -0.3766
 6179SOL    HW221684   5.310   1.040   7.568 -1.3493  0.0626 -0.6637
 6180SOL     OW21685   0.602   1.007   0.276 -0.0278  0.3759  0.3910
 6180SOL    HW121686   0.543   0.995   0.201  0.3015  0.2057  0.1532
 6180SOL    HW221687   0.584   1.096   0.306 -0.1244  0.4689  0.0705
 6181SOL     OW21688   4.254   5.128   5.866 -0.2746  0.1213  0.1362
 6181SOL    HW121689   4.251   5.165   5.955 -1.8408  1.5184 -0.4353
 6181SOL    HW221690   4.162   5.115   5.843  0.1515 -2.2235 -0.5288
 6182SOL     OW21691   3.387   3.693   2.093  0.7102  0.7569  0.1069
 6182SOL    HW121692   3.296   3.722   2.092 -0.2972 -1.7285  2.7652
 6182SOL    HW221693   3.385   3.607   2.052  1.6107  0.2251  1.1266
 6183SOL     OW21694   2.275   0.985   0.680  1.2061  0.0133  0.0345
 6183SOL    HW121695   2.322   0.974   0.597  0.0328  0.3803 -0.7081
 6183SOL    HW221696   2.212   0.913   0.681 -0.8727  1.6914 -0.8975
 6184SOL     OW21697   4.136   4.000   5.288  0.0364  0.3870  0.9000
 6184SOL    HW121698   4.201   4.033   5.350  1.0504 -1.0959  0.6818
 6184SOL    HW221699   4.174   3.919   5.254 -1.7786 -0.3490  0.4969
 6185SOL     OW21700   1.742   4.466   1.084  0.1359 -0.3147  0.3465
 6185SOL    HW121701   1.706   4.474   0.996 -0.8036  0.4976  0.7876
 6185SOL    HW221702   1.734   4.373   1.106  1.4619 -0.7454 -0.8499
 6186SOL     OW21703   4.438   3.552   5.522  0.1310 -0.0637 -0.4736
 6186SOL    HW121704   4.398   3.634   5.552 -1.5048 -0.0463 -2.5175
 6186SOL    HW221705   4.470   3.511   5.603 -1.1942  1.4394  0.8931
 6187SOL     OW21706   7.850   1.310   1.834  0.2069  0.3774 -0.0281
 6187SOL    HW121707   7.869   1.388   1.782 -0.5656  0.0118 -0.9016
 6187SOL    HW221708   7.880   1.237   1.780  0.2034  0.0316  0.4299
 6188SOL     OW21709   2.181   4.853   2.228  0.1271 -0.1865  0.1179
 6188SOL    HW121710   2.222   4.915   2.288  0.2468  1.1341 -1.2510
 6188SOL    HW221711   2.255   4.815   2.179 -0.0970  0.6679 -0.9323
 6189SOL     OW21712   5.789   4.701   1.596  0.0438  0.2341 -0.0027
 6189SOL    HW121713   5.724   4.632   1.607 -1.6843  2.0487  2.1980
 6189SOL    HW221714   5.867   4.668   1.640 -0.0196 -1.1391 -0.8735
 6190SOL     OW21715   2.448   5.777   5.706 -0.2631  1.2623  0.4691
 6190SOL    HW121716   2.490   5.751   5.788 -0.1223 -1.1417 -0.2822
 6190SOL    HW221717   2.368   5.724   5.703  0.6711 -0.1627 -1.7808
 6191SOL     OW21718   2.020   1.406   0.509 -0.0144  0.5357  0.6451
 6191SOL    HW121719   2.056   1.318   0.509  0.3193  0.6388 -0.8404
 6191SOL    HW221720   2.014   1.430   0.602 -0.0756 -1.0114  1.0652
 6192SOL     OW21721   6.754   5.841   5.367 -0.2575  0.0654  0.1677
 6192SOL    HW121722   6.666   5.842   5.404  0.0529  0.4957  0.8974
 6192SOL    HW221723   6.799   5.914   5.408  0.0826  0.5979 -1.1039
 6193SOL     OW21724   5.880   7.390   4.824  0.2198 -0.5179 -0.0478
 6193SOL    HW121725   5.917   7.390   4.912 -0.5392 -2.5163  0.3256
 6193SOL    HW221726   5.941   7.441   4.772  0.8593  0.4338  1.5558
 6194SOL     OW21727   1.924   1.515   7.363 -0.2473  0.5562  0.5712
 6194SOL    HW121728   1.909   1.505   7.457  1.9293 -1.1996  0.8217
 6194SOL    HW221729   1.949   1.428   7.333 -2.2417  0.7456 -1.9792
 6195SOL     OW21730   7.898   7.706   1.443  0.4832  0.3197 -0.1732
 6195SOL    HW121731   7.903   7.733   1.352  1.4388  0.5631 -0.0591
 6195SOL    HW221732   7.886   7.788   1.492  0.3313  0.2256 -0.0496
 6196SOL     OW21733   0.878   3.531   5.891  0.1131 -0.1363 -0.1015
 6196SOL    HW121734   0.850   3.453   5.938 -2.1424  0.1040 -0.9446
 6196SOL    HW221735   0.925   3.498   5.814  1.1075 -0.5780  0.6734
 6197SOL     OW21736   3.195   2.797   6.017  0.2301 -0.0006  0.7061
 6197SOL    HW121737   3.254   2.791   6.092  0.2095 -2.1384  0.6383
 6197SOL    HW221738   3.254   2.805   5.941  0.2561  1.9419  0.8912
 6198SOL     OW21739   4.266   2.942   4.850  0.3775 -0.0570  0.5013
 6198SOL    HW121740   4.280   2.851   4.825  0.6765  0.0358  0.3165
 6198SOL    HW221741   4.353   2.981   4.846 -0.0673  0.8584 -1.9426
 6199SOL     OW21742   5.833   0.964   2.110  0.2854  0.1299  0.2562
 6199SOL    HW121743   5.785   0.991   2.032  0.8725  0.3271 -0.0387
 6199SOL    HW221744   5.851   1.046   2.157 -0.6350 -0.0396  0.9444
 6200SOL     OW21745   5.732   1.823   2.089  0.3596  0.0488 -0.2329
 6200SOL    HW121746   5.644   1.786   2.102  1.2850 -1.6759  1.7621
 6200SOL    HW221747   5.716   1.907   2.047 -2.0104 -1.7459 -3.3604
 6201SOL     OW21748   0.668   0.911   7.290 -0.2864  0.1264  0.0377
 6201SOL    HW121749   0.747   0.856   7.288 -0.7513 -0.5386 -0.4541
 6201SOL    HW221750   0.620   0.882   7.367 -0.0495  0.5464  0.3496
 6202SOL     OW21751   6.502   4.027   0.948  0.2366 -0.3229  0.2047
 6202SOL    HW121752   6.412   4.054   0.969  0.5047  1.5126 -0.7526
 6202SOL    HW221753   6.554   4.106   0.964  1.2839 -0.5890 -1.6749
 6203SOL     OW21754   4.456   1.077   4.720 -0.2308 -0.3666  0.2753
 6203SOL    HW121755   4.396   1.042   4.785  0.7566 -0.3309  1.2287
 6203SOL    HW221756   4.431   1.034   4.638 -2.8538  1.1326  0.1710
 6204SOL     OW21757   4.617   3.457   5.738 -0.0956  0.2351  0.4068
 6204SOL    HW121758   4.634   3.365   5.757 -0.6052  0.4739  2.1824
 6204SOL    HW221759   4.644   3.504   5.817  2.3039  1.9177 -1.2415
 6205SOL     OW21760   2.464   4.451   1.009 -0.3096 -0.3083 -0.0843
 6205SOL    HW121761   2.554   4.467   0.980 -0.1718 -1.2187 -0.1937
 6205SOL    HW221762   2.457   4.356   1.014 -1.0467 -0.2309  0.6404
 6206SOL     OW21763   2.630   7.312   6.938  0.3268  0.1743  0.1643
 6206SOL    HW121764   2.695   7.348   6.999  0.1496 -0.4207  0.7119
 6206SOL    HW221765   2.581   7.249   6.990 -0.1372  0.0004 -0.4780
 6207SOL     OW21766   3.892   4.680   2.755  0.5841 -0.9940 -0.3039
 6207SOL    HW121767   3.815   4.686   2.699  1.3544  0.1089 -1.3157
 6207SOL    HW221768   3.942   4.607   2.719  1.0898 -0.2719 -1.1172
 6208SOL     OW21769   5.840   1.787   2.713  0.7977 -0.0507 -0.3508
 6208SOL    HW121770   5.901   1.715   2.697  0.2538 -0.9243  1.2517
 6208SOL    HW221771   5.759   1.744   2.740  0.3517  1.1516  0.3149
 6209SOL     OW21772   1.008   1.318   2.626  0.2222 -0.2175 -0.4439
 6209SOL    HW121773   0.933   1.366   2.592  0.2381 -1.3780 -2.2422
 6209SOL    HW221774   0.984   1.225   2.616  2.3235 -0.6461 -2.2207
 6210SOL     OW21775   5.566   2.722   1.752  0.1053 -0.6752  0.7458
 6210SOL    HW121776   5.505   2.773   1.806  0.0530 -1.1314  1.1290
 6210SOL    HW221777   5.538   2.738   1.662  0.6316  0.6536  0.8042
 6211SOL     OW21778   1.731   0.280   3.325 -0.3292  0.3935  0.1237
 6211SOL    HW121779   1.819   0.270   3.289 -0.5144  1.5132 -0.6976
 6211SOL    HW221780   1.673   0.266   3.250 -0.7762  1.3263  0.2834
 6212SOL     OW21781   5.281   5.051   2.539 -0.2197  0.3607 -0.1502
 6212SOL    HW121782   5.285   5.032   2.445  0.6821 -0.2405 -0.0017
 6212SOL    HW221783   5.227   4.980   2.576  0.2059  0.0645 -0.0895
 6213SOL     OW21784   0.560   5.858   1.424 -0.3566  0.0983  0.3710
 6213SOL    HW121785   0.504   5.851   1.501  0.1193 -0.1937  0.6989
 6213SOL    HW221786   0.569   5.768   1.392  1.0275 -0.0713  1.1393
 6214SOL     OW21787   7.175   7.291   7.692  0.1420 -0.0071 -0.2310
 6214SOL    HW121788   7.219   7.289   7.778 -1.1581 -1.5753  0.4408
 6214SOL    HW221789   7.171   7.384   7.670  2.0584  0.3157  0.5670
 6215SOL     OW21790   4.769   0.561   2.726 -0.1351  0.1482  0.4585
 6215SOL    HW121791   4.675   0.560   2.706  0.1319 -1.3762 -0.8759
 6215SOL    HW221792   4.784   0.647   2.766 -2.1428  0.3084  0.9875
 6216SOL     OW21793   1.019   4.502   3.200  0.4560  0.0872 -0.1147
 6216SOL    HW121794   0.926   4.499   3.178  0.1186 -3.5748  1.1295
 6216SOL    HW221795   1.023   4.485   3.294  2.3880  1.9145  0.2283
 6217SOL     OW21796   6.901   0.494   3.600 -0.3466 -0.0207 -0.0698
 6217SOL    HW121797   6.985   0.527   3.567 -0.8038  1.5257  0.2357
 6217SOL    HW221798   6.891   0.409   3.557  0.9134  0.1917 -0.8617
 6218SOL     OW21799   0.149   7.275   5.233  0.5160  0.3855 -0.1878
 6218SOL    HW121800   0.125   7.293   5.324 -0.6362 -1.6066 -0.0339
 6218SOL    HW221801   0.208   7.200   5.238 -0.6523 -0.6490 -1.1036
 6219SOL     OW21802   2.757   1.631   4.976  0.2028 -0.6497 -0.3805
 6219SOL    HW121803   2.751   1.722   4.948 -0.6514 -0.3274  0.8046
 6219SOL    HW221804   2.669   1.595   4.961 -0.4977 -0.2926  2.3576
 6220SOL     OW21805   0.657   3.258   7.449 -0.7369  0.2025 -0.2059
 6220SOL    HW121806   0.614   3.242   7.365  0.2053  0.7720 -0.8146
 6220SOL    HW221807   0.720   3.327   7.431  0.9486 -1.0884  0.4733
 6221SOL     OW21808   3.563   3.470   7.719  0.0613  1.1099  0.1762
 6221SOL    HW121809   3.558   3.559   7.754 -0.7639  2.4132 -2.9129
 6221SOL    HW221810   3.590   3.482   7.628 -1.8672 -1.6431 -0.8767
 6222SOL     OW21811   4.841   7.658   7.465 -0.1420 -0.0544 -0.0878
 6222SOL    HW121812   4.830   7.753   7.461 -0.6170 -0.1400 -0.9373
 6222SOL    HW221813   4.761   7.626   7.508 -0.1354 -0.0986 -0.1072
 6223SOL     OW21814   6.916   7.122   0.390 -0.5223  0.5423 -0.5498
 6223SOL    HW121815   6.963   7.205   0.392 -1.2553  0.9974  2.3981
 6223SOL    HW221816   6.950   7.073   0.465 -1.6792 -0.9113 -0.9203
 6224SOL     OW21817   2.230   7.575   3.755 -0.8513 -0.0303  0.1394
 6224SOL    HW121818   2.292   7.581   3.828 -1.4396  2.6227  0.5084
 6224SOL    HW221819   2.273   7.517   3.692  0.3108 -1.2523  1.9596
 6225SOL     OW21820   0.340   1.686   0.733 -0.0839 -0.1986  0.5577
 6225SOL    HW121821   0.430   1.693   0.764  1.4264 -2.0780 -2.8378
 6225SOL    HW221822   0.334   1.748   0.661 -1.6406  0.0503  0.8532
 6226SOL     OW21823   7.593   1.994   4.694 -0.1315 -0.5415 -0.5768
 6226SOL    HW121824   7.660   1.926   4.703  1.0118  0.3943 -1.7232
 6226SOL    HW221825   7.594   2.040   4.779  1.7789  0.4030 -1.0593
 6227SOL     OW21826   7.045   5.011   2.812  0.2341 -0.0856  0.0750
 6227SOL    HW121827   7.029   4.933   2.865  1.8468 -1.6591 -1.5899
 6227SOL    HW221828   7.102   4.980   2.741  1.2084  2.6802 -0.4770
 6228SOL     OW21829   3.402   6.554   6.557 -0.1627  0.4668  0.4908
 6228SOL    HW121830   3.393   6.483   6.621  0.5709  0.3381  0.4611
 6228SOL    HW221831   3.426   6.630   6.609  0.5786  0.3291  0.3670
 6229SOL     OW21832   1.197   5.577   3.034  0.3111 -0.2712  0.5048
 6229SOL    HW121833   1.244   5.508   2.987  0.3054 -0.4449  0.7533
 6229SOL    HW221834   1.131   5.607   2.972  1.7810  1.1211 -0.4810
 6230SOL     OW21835   3.200   3.462   4.948  0.8914  0.1894  0.1509
 6230SOL    HW121836   3.172   3.399   5.015 -2.1312  0.4258 -0.7598
 6230SOL    HW221837   3.208   3.545   4.995 -0.2126  0.1493  0.4348
 6231SOL     OW21838   3.561   4.915   2.581 -0.1185 -0.2174  0.0103
 6231SOL    HW121839   3.583   4.936   2.672 -1.8001  3.2689 -0.2262
 6231SOL    HW221840   3.471   4.945   2.571  0.0751 -0.3383 -2.8811
 6232SOL     OW21841   2.898   8.002   4.186 -0.0172 -0.1765 -0.0489
 6232SOL    HW121842   2.980   8.052   4.194 -0.3609  0.3606  0.1666
 6232SOL    HW221843   2.835   8.065   4.153 -0.8937  0.0052  1.8387
 6233SOL     OW21844   1.719   6.443   5.168  0.0246 -0.0016  0.3334
 6233SOL    HW121845   1.683   6.510   5.109  1.9472  0.3254 -0.5361
 6233SOL    HW221846   1.693   6.360   5.128 -0.3314  0.2123  0.1081
 6234SOL     OW21847   5.354   5.754   7.983  0.1784 -0.3394  0.1587
 6234SOL    HW121848   5.403   5.835   7.974 -0.5324  0.3132  1.7069
 6234SOL    HW221849   5.265   5.775   7.954  0.3152 -0.9461 -0.7205
 6235SOL     OW21850   7.450   6.862   5.671  0.5574 -0.2247 -0.0907
 6235SOL    HW121851   7.376   6.878   5.730  1.1721 -0.0985  0.6633
 6235SOL    HW221852   7.521   6.837   5.729  1.4268  0.7847 -0.6953
 6236SOL     OW21853   7.347   5.620   7.954  0.1409  0.4157  0.1603
 6236SOL    HW121854   7.256   5.649   7.964  0.7630  3.0881 -1.1711
 6236SOL    HW221855   7.400   5.695   7.981  1.9395 -0.1522 -1.5329
 6237SOL     OW21856   3.065   3.913   4.258  0.1722 -0.1051 -0.7347
 6237SOL    HW121857   3.078   3.821   4.282  0.5488  0.7849  3.1672
 6237SOL    HW221858   3.151   3.953   4.268 -0.2472  0.9208 -1.0469
 6238SOL     OW21859   5.441   6.191   6.025  0.1261 -0.1720  0.4055
 6238SOL    HW121860   5.398   6.260   5.975 -0.5355  0.1621  1.4086
 6238SOL    HW221861   5.459   6.123   5.961 -0.0958  0.5207 -0.4139
 6239SOL     OW21862   4.944   3.394   6.067  0.5013 -0.3980 -0.3566
 6239SOL    HW121863   5.034   3.417   6.092 -0.0990  1.5248  0.2670
 6239SOL    HW221864   4.953   3.348   5.984  1.9670  1.2741 -1.1952
 6240SOL     OW21865   4.096   5.849   6.962  0.2249 -0.1541  0.2984
 6240SOL    HW121866   4.042   5.909   7.014  0.4699  1.0793 -0.8003
 6240SOL    HW221867   4.144   5.798   7.027 -0.9708 -0.0916  1.2815
 6241SOL     OW21868   7.622   6.503   4.637  0.5069 -0.1544  0.3138
 6241SOL    HW121869   7.617   6.514   4.732  0.3250  1.2217  0.1651
 6241SOL    HW221870   7.531   6.508   4.607  0.5875 -0.2650  0.0441
 6242SOL     OW21871   2.048   3.204   7.655  0.0878  0.1748  0.0223
 6242SOL    HW121872   2.086   3.264   7.720  0.7177  0.0497 -0.2294
 6242SOL    HW221873   2.056   3.117   7.695  0.5422  0.0886 -0.2454
 6243SOL     OW21874   7.526   1.046   5.560  0.1272  0.0471  0.2363
 6243SOL    HW121875   7.556   1.015   5.645 -0.7181 -0.4743  0.3508
 6243SOL    HW221876   7.472   1.123   5.580 -1.0289 -0.7528  0.2836
 6244SOL     OW21877   2.776   1.461   2.257  0.2158  1.0552 -0.2334
 6244SOL    HW121878   2.849   1.511   2.294 -2.3179  3.7984  1.5667
 6244SOL    HW221879   2.724   1.526   2.210 -1.5830 -0.5917 -0.6503
 6245SOL     OW21880   0.860   2.354   4.311  0.2691  0.1107  0.6466
 6245SOL    HW121881   0.781   2.367   4.258  1.1749  2.2931 -0.2416
 6245SOL    HW221882   0.830   2.364   4.402 -0.5104  0.7468  0.3264
 6246SOL     OW21883   3.254   6.798   5.006 -0.0001 -0.3159  0.0591
 6246SOL    HW121884   3.247   6.774   5.098  0.5673  1.5497  0.6340
 6246SOL    HW221885   3.305   6.879   5.006 -1.5702  0.7604 -1.7115
 6247SOL     OW21886   2.926   0.168   3.917 -0.5851  0.1128  0.1926
 6247SOL    HW121887   2.866   0.146   3.989 -0.0642  0.8439  0.8646
 6247SOL    HW221888   2.877   0.231   3.864  0.2453  2.2775  1.8401
 6248SOL     OW21889   7.892   7.026   2.875  0.3256  0.3872 -0.1994
 6248SOL    HW121890   7.804   7.063   2.883  0.3272  0.8014 -1.8563
 6248SOL    HW221891   7.935   7.079   2.808  1.1651 -1.0775 -0.8561
 6249SOL     OW21892   0.540   4.302   7.574  0.5748 -0.1023  0.4210
 6249SOL    HW121893   0.504   4.233   7.629  1.7217  0.7899  2.4061
 6249SOL    HW221894   0.487   4.379   7.596  1.2103  0.3206  0.5052
 6250SOL     OW21895   4.823   3.073   7.659 -0.3887  0.3002  0.6585
 6250SOL    HW121896   4.738   3.116   7.672  0.0680  1.3533  0.2937
 6250SOL    HW221897   4.827   3.056   7.565 -1.4938 -2.6100  1.0449
 6251SOL     OW21898   1.996   0.383   6.980  0.0748  0.7867 -0.3436
 6251SOL    HW121899   1.930   0.346   6.921  0.2188 -0.2316  0.1002
 6251SOL    HW221900   2.079   0.368   6.935  0.2146 -0.2888  0.2294
 6252SOL     OW21901   7.569   2.044   2.483  0.1186 -0.1337  0.2257
 6252SOL    HW121902   7.636   2.071   2.419  0.1849 -0.7031  0.0559
 6252SOL    HW221903   7.516   2.123   2.495  0.0593 -0.0307 -0.5916
 6253SOL     OW21904   5.121   3.375   3.722  0.0103 -0.4427  0.3305
 6253SOL    HW121905   5.082   3.420   3.647  0.0259  0.0421  0.6081
 6253SOL    HW221906   5.111   3.282   3.702  3.7868 -0.5044 -2.3449
 6254SOL     OW21907   1.028   7.823   3.542  0.5005 -0.3168  0.4855
 6254SOL    HW121908   0.935   7.842   3.536  0.6835  0.9110  1.2149
 6254SOL    HW221909   1.053   7.848   3.631  1.7479  0.4716 -0.0528
 6255SOL     OW21910   2.328   7.706   0.457 -0.1443  0.4610 -0.2724
 6255SOL    HW121911   2.234   7.723   0.447 -0.5134 -1.3029 -0.1165
 6255SOL    HW221912   2.346   7.729   0.548 -0.3348  1.1642 -0.4049
 6256SOL     OW21913   2.736   5.218   3.274 -0.2263 -0.0961 -0.2467
 6256SOL    HW121914   2.724   5.136   3.323 -0.9625  0.0488 -0.1773
 6256SOL    HW221915   2.657   5.269   3.292  0.9793  1.3993  1.1447
 6257SOL     OW21916   7.091   7.795   4.662 -0.4880 -0.6771  0.1499
 6257SOL    HW121917   7.174   7.840   4.645 -0.8680 -0.2037 -0.5094
 6257SOL    HW221918   7.080   7.800   4.757 -0.6559  0.9223  0.0894
 6258SOL     OW21919   1.844   0.563   5.320  0.0670  0.1872 -0.6499
 6258SOL    HW121920   1.828   0.653   5.291  1.6624  0.4204 -0.9049
 6258SOL    HW221921   1.860   0.514   5.239  2.4506  0.3976 -0.3806
 6259SOL     OW21922   2.542   5.291   8.064  0.3484 -0.0241  0.0858
 6259SOL    HW121923   2.481   5.221   8.086  0.8679  0.0367  1.8614
 6259SOL    HW221924   2.614   5.247   8.019  0.9408 -0.7437  1.6838
 6260SOL     OW21925   4.433   1.114   3.660  0.1131  0.1968 -0.0563
 6260SOL    HW121926   4.490   1.155   3.725 -1.0006  2.7251 -0.5509
 6260SOL    HW221927   4.488   1.108   3.582  0.2047  1.2190 -0.0971
 6261SOL     OW21928   2.866   5.079   7.177  0.0875 -0.9084 -0.4520
 6261SOL    HW121929   2.844   5.172   7.172  0.4609 -0.8091 -0.2401
 6261SOL    HW221930   2.817   5.039   7.105 -0.2232 -0.5785 -0.4251
 6262SOL     OW21931   7.537   7.954   2.855  0.0931 -0.0984  0.0740
 6262SOL    HW121932   7.598   7.997   2.915  0.0794  0.3640 -0.2345
 6262SOL    HW221933   7.487   7.894   2.909 -0.2408  0.6506  0.6130
 6263SOL     OW21934   0.993   6.354   1.151 -0.0401 -0.0605 -0.0430
 6263SOL    HW121935   0.950   6.432   1.187 -0.3722  0.3542 -1.2824
 6263SOL    HW221936   0.978   6.361   1.057  1.8394 -0.4817 -0.4012
 6264SOL     OW21937   7.715   6.183   6.852  0.2793  0.0619  0.1501
 6264SOL    HW121938   7.767   6.234   6.788  0.8352  1.3273  1.5554
 6264SOL    HW221939   7.661   6.248   6.896  0.9569 -0.5481  1.9618
 6265SOL     OW21940   1.222   5.014   0.860  0.1646 -0.4358  0.1265
 6265SOL    HW121941   1.140   4.985   0.820  1.2483 -0.6346 -2.1018
 6265SOL    HW221942   1.195   5.077   0.927 -1.7711  1.7613 -2.4799
 6266SOL     OW21943   5.805   6.363   3.140 -0.1253 -0.2499 -0.6770
 6266SOL    HW121944   5.727   6.416   3.123  0.0378 -0.3558 -1.8072
 6266SOL    HW221945   5.815   6.366   3.235  0.3100  2.3736 -0.7252
 6267SOL     OW21946   4.189   0.657   5.230 -0.0199  0.1147  0.9918
 6267SOL    HW121947   4.147   0.583   5.187  0.0756  0.1092  0.9077
 6267SOL    HW221948   4.179   0.638   5.324  1.0505 -0.6216  0.9841
 6268SOL     OW21949   1.220   5.658   0.341  0.3282  0.4974  0.1946
 6268SOL    HW121950   1.195   5.615   0.423  1.7334  0.1999  0.4795
 6268SOL    HW221951   1.307   5.694   0.357  0.2869  1.1466 -0.9072
 6269SOL     OW21952   7.747   7.492   1.438 -0.3453 -0.1730  0.1850
 6269SOL    HW121953   7.803   7.569   1.440 -0.9044  0.2507 -0.2347
 6269SOL    HW221954   7.658   7.527   1.440 -0.7376 -0.5917 -3.3803
 6270SOL     OW21955   1.712   7.334   3.034 -0.3410 -0.0104 -0.8303
 6270SOL    HW121956   1.795   7.352   2.990 -1.1477  1.3681 -1.8379
 6270SOL    HW221957   1.660   7.413   3.021 -1.2123 -0.1762  1.2449
 6271SOL     OW21958   6.915   3.377   2.471  0.2897 -0.6473  0.0224
 6271SOL    HW121959   6.830   3.351   2.506  0.9666  0.5988  2.9668
 6271SOL    HW221960   6.897   3.454   2.417 -0.5375 -0.9966 -0.2160
 6272SOL     OW21961   6.739   3.749   2.468 -0.2044  0.1427 -0.2795
 6272SOL    HW121962   6.779   3.829   2.502  0.2658  0.0299 -0.5744
 6272SOL    HW221963   6.796   3.721   2.397 -1.4920  0.6900 -1.5723
 6273SOL     OW21964   4.196   0.149   5.083  0.0340 -0.6101 -0.5416
 6273SOL    HW121965   4.262   0.152   5.152 -2.7032  0.1368  2.3441
 6273SOL    HW221966   4.238   0.189   5.007  1.8915  3.2049  2.1525
 6274SOL     OW21967   0.436   3.131   4.434 -0.1392 -0.1248  0.0112
 6274SOL    HW121968   0.393   3.185   4.501 -0.4545  1.6663 -1.5419
 6274SOL    HW221969   0.528   3.133   4.457 -0.3800 -0.5105  1.0464
 6275SOL     OW21970   5.915   6.118   7.020  0.3176  0.5699 -0.3719
 6275SOL    HW121971   5.916   6.201   6.973  0.2737  0.6805 -0.1782
 6275SOL    HW221972   6.007   6.094   7.029  0.3099  0.3611 -0.8450
 6276SOL     OW21973   1.579   2.181   2.045  0.0446  0.7489 -0.0058
 6276SOL    HW121974   1.570   2.150   1.955 -0.5265  0.3914  0.1652
 6276SOL    HW221975   1.526   2.119   2.097 -0.5770  1.6211  0.4258
 6277SOL     OW21976   0.816   4.015   4.378  0.0257  0.5150 -0.1051
 6277SOL    HW121977   0.872   4.087   4.408 -0.2625  0.5957  0.2519
 6277SOL    HW221978   0.744   4.058   4.332  0.6211  0.3745 -1.1878
 6278SOL     OW21979   6.443   0.247   2.111  0.0593 -0.5557 -0.3042
 6278SOL    HW121980   6.459   0.177   2.048 -2.1923  0.3942 -2.0582
 6278SOL    HW221981   6.374   0.213   2.168  0.5670 -0.6010  0.2890
 6279SOL     OW21982   2.654   6.445   2.561 -0.2375 -0.5286  0.1173
 6279SOL    HW121983   2.560   6.459   2.569 -0.2381  0.0681 -0.8022
 6279SOL    HW221984   2.680   6.498   2.486  0.9600 -0.1144  0.8075
 6280SOL     OW21985   7.489   6.956   7.973  0.5835  0.1450  0.1222
 6280SOL    HW121986   7.463   6.888   8.036  0.8292 -0.5675 -0.5322
 6280SOL    HW221987   7.494   7.036   8.025 -0.0425 -0.2708  0.8438
 6281SOL     OW21988   6.936   5.753   6.886 -0.1506 -0.0270 -0.0754
 6281SOL    HW121989   6.944   5.754   6.981  1.7267 -1.1622 -0.1766
 6281SOL    HW221990   6.879   5.679   6.866  0.2858 -0.4130  0.1191
 6282SOL     OW21991   6.933   6.701   6.038 -0.1747  0.3660  0.4084
 6282SOL    HW121992   6.872   6.722   5.968 -0.5011 -0.5430  0.4166
 6282SOL    HW221993   7.015   6.682   5.994 -0.1539  0.6182  0.3345
 6283SOL     OW21994   3.238   6.569   4.286  0.2520 -0.3927 -0.6904
 6283SOL    HW121995   3.265   6.606   4.201  1.0134 -1.6484 -1.0331
 6283SOL    HW221996   3.143   6.578   4.287  0.0425 -1.8075 -2.4353
 6284SOL     OW21997   0.030   1.128   0.003  0.0341  0.3909 -0.0417
 6284SOL    HW121998   0.009   1.162   0.090 -1.3557  0.9460 -0.5680
 6284SOL    HW221999  -0.032   1.057  -0.011  0.6957 -0.1420 -0.3202
 6285SOL     OW22000   2.116   5.782   5.859 -0.2653 -0.5747  0.6176
 6285SOL    HW122001   2.134   5.858   5.803 -2.1891 -0.4727  0.0579
 6285SOL    HW222002   2.170   5.712   5.823 -0.1294 -0.0416 -0.2434
 6286SOL     OW22003   0.516   3.917   1.390 -0.0124 -0.1200 -0.2854
 6286SOL    HW122004   0.547   3.834   1.354  1.0082  0.0417  0.1943
 6286SOL    HW222005   0.574   3.935   1.464 -1.4417  0.0429  0.8501
 6287SOL     OW22006   6.488   3.588   4.549  0.3326 -0.0722 -0.6386
 6287SOL    HW122007   6.535   3.654   4.598 -0.1930  0.3325 -0.6731
 6287SOL    HW222008   6.484   3.512   4.608  2.5710 -0.7636 -1.2888
 6288SOL     OW22009   3.345   7.904   6.612  0.4238 -0.2331 -0.1385
 6288SOL    HW122010   3.352   7.892   6.707 -1.4873  2.0838  0.3986
 6288SOL    HW222011   3.387   7.989   6.596  0.1880 -0.3201 -1.2775
 6289SOL     OW22012   7.970   5.446   7.772  0.7842  0.3320  0.1325
 6289SOL    HW122013   7.992   5.537   7.754  0.9166  0.4511  0.8687
 6289SOL    HW222014   7.899   5.426   7.711 -1.2580  1.8024  1.8920
 6290SOL     OW22015   2.585   1.278   4.432 -0.6732  0.4405  0.5004
 6290SOL    HW122016   2.600   1.191   4.469  0.4636  0.6594  0.5966
 6290SOL    HW222017   2.660   1.330   4.462  0.9693  0.3501 -2.9483
 6291SOL     OW22018   3.955   5.107   5.896  0.0969  0.4111 -0.0336
 6291SOL    HW122019   3.987   5.028   5.852  0.3233 -0.6134  1.8347
 6291SOL    HW222020   3.865   5.118   5.864  0.7487  0.6469 -1.8828
 6292SOL     OW22021   1.619   3.311   0.759  0.3691  0.2650  0.2375
 6292SOL    HW122022   1.633   3.218   0.739 -1.9684 -0.3696  1.2282
 6292SOL    HW222023   1.616   3.353   0.673 -0.6978 -0.9530 -0.3576
 6293SOL     OW22024   3.807   4.477   0.182 -0.1153 -0.9035  0.3555
 6293SOL    HW122025   3.864   4.490   0.257 -0.6497 -1.9083  0.9570
 6293SOL    HW222026   3.859   4.423   0.122  1.0432  1.4715 -0.9010
 6294SOL     OW22027   3.280   0.079   0.261 -0.5564  0.0435 -0.1790
 6294SOL    HW122028   3.289  -0.002   0.211  1.0744 -0.8816  1.5019
 6294SOL    HW222029   3.364   0.090   0.305 -1.3259  1.7335  0.9952
 6295SOL     OW22030   6.320   6.661   4.837 -0.9811  0.6623  0.3635
 6295SOL    HW122031   6.310   6.567   4.820  0.4001  0.8971 -2.1909
 6295SOL    HW222032   6.377   6.665   4.915 -0.9313 -0.6172  0.4163
 6296SOL     OW22033   4.975   4.098   4.172  0.6312  0.0105  0.0025
 6296SOL    HW122034   4.921   4.174   4.190 -0.3092  0.0340 -2.5089
 6296SOL    HW222035   5.044   4.130   4.114  0.1784 -1.0203 -1.1556
 6297SOL     OW22036   6.074   2.865   7.886  0.4973 -0.2832 -0.2464
 6297SOL    HW122037   6.082   2.940   7.827 -0.1449  0.4538  0.5648
 6297SOL    HW222038   6.035   2.796   7.832 -1.3447  0.7901 -0.3935
 6298SOL     OW22039   3.264   2.688   3.708  0.7763  0.2332 -0.1631
 6298SOL    HW122040   3.241   2.637   3.631  0.5300  0.9079 -0.5419
 6298SOL    HW222041   3.194   2.670   3.771  0.5768  0.2679 -0.3748
 6299SOL     OW22042   6.287   6.888   0.480  0.3326  0.3895 -0.2766
 6299SOL    HW122043   6.343   6.825   0.524  0.1639  0.0566 -0.5359
 6299SOL    HW222044   6.326   6.973   0.500  0.9782  0.1580 -0.5323
 6300SOL     OW22045   3.001   2.077   7.451 -0.6635  0.3320  0.0489
 6300SOL    HW122046   3.077   2.119   7.412 -1.4959  2.1209  0.2311
 6300SOL    HW222047   3.004   1.987   7.419  0.7128  0.7488 -1.1034
 6301SOL     OW22048   7.890   3.255   7.626  0.0764 -0.2196 -0.1158
 6301SOL    HW122049   7.837   3.311   7.682 -0.0606 -0.2538 -0.2103
 6301SOL    HW222050   7.980   3.267   7.657  0.2722  1.3121 -1.1856
 6302SOL     OW22051   5.023   1.918   6.079  0.2422  0.2468 -0.4850
 6302SOL    HW122052   5.082   1.963   6.019  0.0115  0.4817 -0.5376
 6302SOL    HW222053   5.077   1.851   6.121  0.1463 -0.6648 -1.7600
 6303SOL     OW22054   0.362   2.894   1.010  0.0123  0.2806  1.1615
 6303SOL    HW122055   0.350   2.799   0.999  1.7800  0.1833 -0.4346
 6303SOL    HW222056   0.292   2.920   1.070 -1.6789 -1.7235  0.1914
 6304SOL     OW22057   1.753   0.004   3.039  0.1177  0.2117 -0.7196
 6304SOL    HW122058   1.813  -0.015   3.111  0.5069  3.0919 -0.1235
 6304SOL    HW222059   1.696   0.073   3.074 -0.9902  0.2826 -2.5487
 6305SOL     OW22060   0.092   0.690   2.492 -0.0412  0.1737  0.4979
 6305SOL    HW122061   0.136   0.743   2.558  0.7029 -1.5464  1.4294
 6305SOL    HW222062   0.001   0.684   2.523  0.6695 -2.0794  2.4139
 6306SOL     OW22063   4.195   3.057   4.621  0.3890  0.3536  0.2171
 6306SOL    HW122064   4.211   3.039   4.714  1.4354 -0.4621 -0.1089
 6306SOL    HW222065   4.277   3.034   4.577 -0.0839  0.7520 -0.9129
 6307SOL     OW22066   6.099   3.812   4.480 -0.0659  0.7385 -0.7222
 6307SOL    HW122067   6.017   3.816   4.529  1.2847 -0.7419  1.8501
 6307SOL    HW222068   6.107   3.720   4.454  0.5959  0.9513 -1.3167
 6308SOL     OW22069   7.537   2.810   1.241  0.1485 -0.1940 -0.1434
 6308SOL    HW122070   7.566   2.803   1.332  0.9620  0.9964 -0.2807
 6308SOL    HW222071   7.614   2.841   1.194 -0.6768  0.6651 -0.9696
 6309SOL     OW22072   7.618   6.874   3.574  0.2590 -0.2040 -0.4615
 6309SOL    HW122073   7.699   6.919   3.600  2.4392 -2.5315 -2.6614
 6309SOL    HW222074   7.569   6.940   3.525  1.4656  0.8840 -0.2661
 6310SOL     OW22075   6.744   1.495   3.580 -0.0154 -0.3863 -0.5258
 6310SOL    HW122076   6.662   1.540   3.558  0.5476  0.5995 -0.6332
 6310SOL    HW222077   6.794   1.496   3.499 -0.7345 -2.9328 -1.1023
 6311SOL     OW22078   7.595   5.912   5.037 -0.2400  0.4895  0.1519
 6311SOL    HW122079   7.534   5.888   4.967 -0.8983  1.5446  0.3415
 6311SOL    HW222080   7.602   5.833   5.091  0.1475 -0.2842 -0.9993
 6312SOL     OW22081   3.364   1.742   3.327 -0.0378 -0.5041 -0.1192
 6312SOL    HW122082   3.412   1.661   3.312 -0.5854 -0.9027  0.2683
 6312SOL    HW222083   3.277   1.726   3.289  0.5455  0.7393 -2.1863
 6313SOL     OW22084   0.177   0.349   5.096 -0.2326  0.3459 -0.0825
 6313SOL    HW122085   0.188   0.343   5.001 -1.0402  1.4249 -0.2471
 6313SOL    HW222086   0.117   0.278   5.118 -0.8127  0.7061 -0.5084
 6314SOL     OW22087   5.490   0.077   4.687  0.5672  0.2193 -0.2358
 6314SOL    HW122088   5.444  -0.006   4.673  0.6436 -0.3675  2.5864
 6314SOL    HW222089   5.582   0.052   4.697  0.9262  0.9264 -1.4940
 6315SOL     OW22090   7.874   4.676   6.249  0.6745  0.7086 -0.1553
 6315SOL    HW122091   7.849   4.601   6.303 -2.5674  2.2139  0.6895
 6315SOL    HW222092   7.943   4.720   6.300  2.3972 -1.3836 -0.5183
 6316SOL     OW22093   0.038   6.296   1.779 -0.0229  0.0191 -0.3913
 6316SOL    HW122094   0.037   6.316   1.873  0.3213 -1.4274 -0.0611
 6316SOL    HW222095   0.011   6.204   1.773  1.4575 -0.3890 -1.5686
 6317SOL     OW22096   7.715   4.579   7.183 -0.2624  0.0154  0.2813
 6317SOL    HW122097   7.733   4.652   7.124 -0.2019 -1.0372 -1.0688
 6317SOL    HW222098   7.796   4.569   7.234 -0.1880  0.7317  0.3116
 6318SOL     OW22099   2.819   0.604   0.449 -0.9840 -0.5203  0.2833
 6318SOL    HW122100   2.857   0.584   0.535 -1.3679  3.2824  1.4956
 6318SOL    HW222101   2.725   0.614   0.466 -1.0503  0.3549 -0.5539
 6319SOL     OW22102   1.649   6.128   3.442 -0.1208 -0.0762 -0.2449
 6319SOL    HW122103   1.697   6.069   3.383  1.1308  0.7273 -0.0607
 6319SOL    HW222104   1.591   6.177   3.385 -0.2325 -0.5768 -0.5677
 6320SOL     OW22105   2.369   2.826   3.793  0.3001  0.7228 -0.6174
 6320SOL    HW122106   2.378   2.854   3.884  1.4911  0.9506 -0.7894
 6320SOL    HW222107   2.458   2.807   3.765  0.0758  1.5671 -2.0237
 6321SOL     OW22108   2.677   4.089   7.094  0.4423  0.0586 -0.1106
 6321SOL    HW122109   2.619   4.030   7.142 -0.5145  1.4330  0.4800
 6321SOL    HW222110   2.674   4.171   7.143  0.7807  0.9900 -1.5868
 6322SOL     OW22111   3.696   5.220   0.103  0.1574  0.0429 -0.7449
 6322SOL    HW122112   3.687   5.307   0.064  1.1189  0.3397 -0.3210
 6322SOL    HW222113   3.775   5.225   0.157  1.0238 -1.4794 -1.7857
 6323SOL     OW22114   8.038   5.753   6.856 -0.1712  0.0117  0.4681
 6323SOL    HW122115   7.983   5.675   6.852  0.3440 -0.3554  0.4957
 6323SOL    HW222116   8.117   5.730   6.808  0.9844 -0.3135  2.3926
 6324SOL     OW22117   0.502   4.181   6.548  0.0590  0.3221 -0.0255
 6324SOL    HW122118   0.571   4.149   6.606 -0.8935  0.0526  0.9834
 6324SOL    HW222119   0.521   4.139   6.464  0.5641 -0.5267  0.4908
 6325SOL     OW22120   7.730   4.788   4.870  0.2704 -0.2817  0.2205
 6325SOL    HW122121   7.821   4.763   4.886  1.3132  2.1013 -1.4622
 6325SOL    HW222122   7.698   4.818   4.955  1.0283 -1.0973  0.8233
 6326SOL     OW22123   4.111   4.419   0.337 -0.0713 -0.0825  0.4784
 6326SOL    HW122124   4.141   4.335   0.303  1.3919 -0.6652  2.9215
 6326SOL    HW222125   4.181   4.481   0.315 -0.7263  0.3275 -0.5217
 6327SOL     OW22126   2.036   7.678   6.966  0.4594  0.2211  0.4534
 6327SOL    HW122127   2.066   7.615   6.900  2.9028 -1.6280  3.0705
 6327SOL    HW222128   1.953   7.641   6.998 -0.4397  0.8232 -1.0653
 6328SOL     OW22129   3.228   7.734   3.242  0.0666  0.0083  0.0490
 6328SOL    HW122130   3.142   7.759   3.275  0.0501  0.2386 -0.1671
 6328SOL    HW222131   3.249   7.653   3.288 -0.7752 -0.6871 -0.7435
 6329SOL     OW22132   2.699   6.361   6.235  0.3892  0.3984 -0.3029
 6329SOL    HW122133   2.660   6.365   6.148 -0.0458  0.1004 -0.1235
 6329SOL    HW222134   2.687   6.270   6.262  2.6058 -0.1406 -0.9015
 6330SOL     OW22135   0.522   6.588   5.118  0.0472  0.3738  0.1119
 6330SOL    HW122136   0.454   6.559   5.057  0.5844  1.7403 -1.2139
 6330SOL    HW222137   0.476   6.641   5.183 -0.2322  0.9807 -0.5640
 6331SOL     OW22138   5.894   2.875   2.020  0.0802 -0.5819  0.6011
 6331SOL    HW122139   5.877   2.853   1.928  1.9315 -0.2536  0.1276
 6331SOL    HW222140   5.886   2.971   2.023  1.9686 -0.3616  0.2582
 6332SOL     OW22141   4.651   5.674   4.474  0.2813  0.2348 -0.0292
 6332SOL    HW122142   4.585   5.632   4.419  0.3395  2.0131 -1.5773
 6332SOL    HW222143   4.727   5.616   4.468  0.1137  0.1127 -1.4563
 6333SOL     OW22144   6.699   3.822   4.230  0.0953 -0.0091  1.0411
 6333SOL    HW122145   6.698   3.728   4.248 -0.2395 -0.2700 -0.2397
 6333SOL    HW222146   6.759   3.832   4.156  1.6634  1.0533  2.3761
 6334SOL     OW22147   1.203   2.515   6.256  0.0420 -0.5548  0.3071
 6334SOL    HW122148   1.110   2.494   6.251  0.2318 -1.5005  0.6236
 6334SOL    HW222149   1.215   2.549   6.344 -0.3228  1.2485 -0.3023
 6335SOL     OW22150   6.942   4.581   1.840 -0.0851  0.5972  0.4429
 6335SOL    HW122151   6.967   4.492   1.815  1.3251  0.6729  1.4660
 6335SOL    HW222152   7.023   4.632   1.831 -0.6660  1.6040  0.6884
 6336SOL     OW22153   2.972   3.535   4.515 -0.5104  0.3632  0.0683
 6336SOL    HW122154   3.043   3.560   4.455 -0.4450  0.7235  0.2899
 6336SOL    HW222155   3.011   3.470   4.573  0.1749  1.7687  1.2846
 6337SOL     OW22156   5.663   0.290   7.231 -0.2643  0.0095 -0.9239
 6337SOL    HW122157   5.751   0.325   7.220 -1.0713  2.1546 -1.1807
 6337SOL    HW222158   5.675   0.203   7.270  1.8827  0.9165  0.6146
 6338SOL     OW22159   6.818   3.599   7.894  0.1904 -0.6442  0.2105
 6338SOL    HW122160   6.768   3.530   7.851 -1.5177  0.6646 -0.0193
 6338SOL    HW222161   6.847   3.655   7.822 -0.6963  0.2912  0.5575
 6339SOL     OW22162   3.627   0.690   2.833 -1.0499 -0.1485  0.5431
 6339SOL    HW122163   3.576   0.665   2.756 -1.0340  0.3045  0.3805
 6339SOL    HW222164   3.695   0.748   2.799  0.2920 -1.6250  0.5877
 6340SOL     OW22165   7.312   1.897   6.621  0.9680 -0.4314 -0.3526
 6340SOL    HW122166   7.272   1.980   6.594  0.2708 -0.9580 -0.9783
 6340SOL    HW222167   7.272   1.877   6.706 -0.5951 -1.2486 -1.2390
 6341SOL     OW22168   7.737   8.044   7.336  0.6117  0.1404 -0.2932
 6341SOL    HW122169   7.786   7.970   7.301  1.8343  0.1687  1.2365
 6341SOL    HW222170   7.797   8.086   7.398 -0.5414  1.5867 -0.0762
 6342SOL     OW22171   0.306   3.765   6.482 -0.1764 -0.0215 -0.2366
 6342SOL    HW122172   0.216   3.753   6.514  0.0859 -0.5064  0.3426
 6342SOL    HW222173   0.354   3.690   6.518 -0.1781 -1.5340 -3.0266
 6343SOL     OW22174   5.231   1.800   6.871  0.1897 -0.7912 -0.0216
 6343SOL    HW122175   5.233   1.889   6.905 -0.6884 -0.4240 -0.8906
 6343SOL    HW222176   5.287   1.750   6.931  1.9181  0.6157 -0.3861
 6344SOL     OW22177   6.155   3.033   4.545 -0.5682 -0.0352 -0.0344
 6344SOL    HW122178   6.182   2.962   4.487 -0.6800 -0.1535  0.0569
 6344SOL    HW222179   6.161   2.996   4.633 -0.8496 -0.0063 -0.0010
 6345SOL     OW22180   0.801   1.765   0.674  0.3993 -0.3843  0.4484
 6345SOL    HW122181   0.732   1.779   0.608  1.1921  0.6286 -0.1972
 6345SOL    HW222182   0.880   1.749   0.623  1.5808  2.9094  1.0178
 6346SOL     OW22183   7.742   1.656   4.293 -0.9242  0.3559 -0.0750
 6346SOL    HW122184   7.659   1.617   4.321 -0.8723 -0.0084 -0.4107
 6346SOL    HW222185   7.738   1.746   4.323 -0.8971 -0.0035  1.0482
 6347SOL     OW22186   4.689   3.556   3.865  0.2680 -0.3660 -0.3387
 6347SOL    HW122187   4.732   3.527   3.945  1.0966  0.4385 -0.4705
 6347SOL    HW222188   4.733   3.639   3.843 -2.4221  1.3544  0.3759
 6348SOL     OW22189   4.909   0.814   2.809 -0.0748 -0.7448 -0.0852
 6348SOL    HW122190   4.838   0.858   2.856  0.2299 -0.5665  0.2145
 6348SOL    HW222191   4.977   0.800   2.875  0.4255 -0.3510 -0.4973
 6349SOL     OW22192   4.599   3.099   3.211 -0.0637  0.1630  0.2516
 6349SOL    HW122193   4.593   3.181   3.260  1.2935  0.1495  0.4756
 6349SOL    HW222194   4.561   3.120   3.126 -0.5743  0.7585  0.6121
 6350SOL     OW22195   1.232   0.663   0.571 -0.5082  0.0953  0.2848
 6350SOL    HW122196   1.163   0.725   0.549  0.1767  0.7805  0.0238
 6350SOL    HW222197   1.310   0.696   0.526  0.2386 -0.0683  1.4084
 6351SOL     OW22198   6.963   5.054   1.425  0.1404 -0.0506 -0.2301
 6351SOL    HW122199   7.001   4.973   1.390 -0.2149  0.6082 -2.2462
 6351SOL    HW222200   7.030   5.120   1.409  0.5600  0.0463  1.6932
 6352SOL     OW22201   2.776   1.263   5.008 -0.3801  0.3270 -0.2618
 6352SOL    HW122202   2.694   1.267   4.959 -1.1618  1.4208  1.0489
 6352SOL    HW222203   2.769   1.182   5.059 -1.4983  1.2665  1.1732
 6353SOL     OW22204   0.837   3.791   3.518  0.5495 -0.6426  0.1919
 6353SOL    HW122205   0.809   3.700   3.512 -0.4273 -0.5231  2.2019
 6353SOL    HW222206   0.772   3.839   3.465  0.0243 -0.9338  0.5605
 6354SOL     OW22207   3.274   0.016   7.079 -0.3948  0.0612  0.4729
 6354SOL    HW122208   3.348   0.058   7.123 -0.5231 -0.0855  0.8299
 6354SOL    HW222209   3.306  -0.000   6.990  0.4787 -1.1664  0.9759
 6355SOL     OW22210   4.739   1.467   7.459 -0.1052  0.0978  0.5249
 6355SOL    HW122211   4.738   1.563   7.464  0.6372  0.1047  0.5798
 6355SOL    HW222212   4.649   1.444   7.437 -0.2730  0.8130  0.4271
 6356SOL     OW22213   0.401   5.595   3.591 -0.3640 -0.2583  0.2626
 6356SOL    HW122214   0.474   5.541   3.561 -0.1929  0.4314 -0.6150
 6356SOL    HW222215   0.390   5.571   3.683  0.0317 -1.4018  0.0316
 6357SOL     OW22216   2.944   0.463   4.590 -0.1310  0.2448  0.5855
 6357SOL    HW122217   2.882   0.506   4.649 -0.1997  2.5200 -1.0206
 6357SOL    HW222218   2.926   0.501   4.504  2.8087  0.3041 -0.1265
 6358SOL     OW22219   2.104   4.644   0.986 -0.6396  0.2629  0.7496
 6358SOL    HW122220   2.036   4.709   0.972 -0.4844  0.1960 -0.5023
 6358SOL    HW222221   2.069   4.564   0.946 -0.2624 -0.0505  1.0363
 6359SOL     OW22222   1.370   0.427   1.831 -0.0728  0.0492  0.1104
 6359SOL    HW122223   1.430   0.488   1.874  0.4112 -0.6834  0.4865
 6359SOL    HW222224   1.407   0.414   1.744 -1.3354  1.9472 -0.7960
 6360SOL     OW22225   4.493   3.842   0.599 -0.0714  0.0963  0.3486
 6360SOL    HW122226   4.405   3.830   0.564  0.3567  1.2822 -1.2637
 6360SOL    HW222227   4.488   3.922   0.651 -0.6951 -1.6423  3.1617
 6361SOL     OW22228   8.072   5.296   5.190 -0.2478 -0.0720  0.3027
 6361SOL    HW122229   8.016   5.334   5.258 -0.2008 -0.0498  0.3292
 6361SOL    HW222230   8.143   5.359   5.180 -1.3965  1.0348 -1.3463
 6362SOL     OW22231   2.030   2.332   7.380 -0.2509  0.1338  0.1321
 6362SOL    HW122232   2.031   2.376   7.466  3.1794 -1.9786  1.3767
 6362SOL    HW222233   2.100   2.375   7.331 -1.3658  0.4838 -1.2131
 6363SOL     OW22234   0.172   4.719   5.442  0.1878 -0.5309  0.6257
 6363SOL    HW122235   0.162   4.660   5.517 -1.1925 -0.5827  0.4265
 6363SOL    HW222236   0.112   4.792   5.461 -1.2768 -1.2318 -1.0748
 6364SOL     OW22237   7.395   0.767   5.540  0.5195  0.2101  0.6070
 6364SOL    HW122238   7.315   0.769   5.593 -0.0479  1.4521 -0.2299
 6364SOL    HW222239   7.450   0.836   5.579  1.1262 -0.5187  1.0673
 6365SOL     OW22240   6.986   7.411   0.854  0.3261 -0.3948  0.2569
 6365SOL    HW122241   6.976   7.502   0.881 -2.1196 -0.1563 -1.0823
 6365SOL    HW222242   7.080   7.395   0.855  0.7909  1.9829  0.9711
 6366SOL     OW22243   7.377   7.911   2.222 -0.1450  0.4697 -0.1576
 6366SOL    HW122244   7.426   7.984   2.259 -1.6718  0.7949  1.3402
 6366SOL    HW222245   7.286   7.929   2.245 -0.6084 -1.7043 -0.0827
 6367SOL     OW22246   3.805   2.941   2.624  0.4969  0.1707  0.1403
 6367SOL    HW122247   3.809   2.858   2.578 -0.5797 -0.1664  0.6310
 6367SOL    HW222248   3.895   2.976   2.618  0.7484 -0.5927 -0.8189
 6368SOL     OW22249   1.009   7.447   7.804 -0.2076 -0.1517  0.1380
 6368SOL    HW122250   1.032   7.537   7.779  1.7573 -0.8084 -0.6607
 6368SOL    HW222251   1.035   7.441   7.896  1.7863 -0.4953 -0.4025
 6369SOL     OW22252   7.909   0.931   1.364  0.2907 -0.0340 -0.5777
 6369SOL    HW122253   7.883   1.004   1.419 -0.2214 -0.6629  0.0253
 6369SOL    HW222254   7.855   0.858   1.393  1.2334 -0.8186 -0.7380
 6370SOL     OW22255   7.602   6.623   1.374  0.6093  0.7155 -0.0221
 6370SOL    HW122256   7.562   6.558   1.432  1.2298  0.7159  0.4199
 6370SOL    HW222257   7.687   6.586   1.353  0.7333  1.1230 -0.2349
 6371SOL     OW22258   2.025   7.557   4.107  0.1996  0.1411 -0.0489
 6371SOL    HW122259   2.036   7.469   4.069 -2.4869 -0.6710  0.8267
 6371SOL    HW222260   2.097   7.566   4.168 -0.1132 -2.0199  0.7410
 6372SOL     OW22261   6.481   4.002   7.455 -0.1495  0.1319  0.2519
 6372SOL    HW122262   6.409   3.984   7.515 -0.5345  0.9564  0.0535
 6372SOL    HW222263   6.463   3.946   7.379 -0.9309  0.7872 -0.0599
 6373SOL     OW22264   1.450   5.365   3.409 -0.4512 -0.4321  0.0995
 6373SOL    HW122265   1.529   5.312   3.408 -0.2346 -0.1093 -0.1497
 6373SOL    HW222266   1.464   5.428   3.480 -0.2399 -0.0159 -0.3048
 6374SOL     OW22267   7.402   4.769   0.094  0.1340  0.2091  0.3479
 6374SOL    HW122268   7.397   4.737   0.004  2.0287 -0.2633  0.3578
 6374SOL    HW222269   7.463   4.709   0.137 -1.2759  0.0060  2.1594
 6375SOL     OW22270   0.490   4.356   4.520  0.4942  0.6576 -0.4256
 6375SOL    HW122271   0.422   4.392   4.577 -1.0023  0.3771 -1.9604
 6375SOL    HW222272   0.538   4.433   4.488  0.0546  0.9640 -0.3577
 6376SOL     OW22273   1.932   6.989   7.249 -0.5690 -0.3419  0.4183
 6376SOL    HW122274   2.009   7.011   7.197  0.1812 -1.4001  1.0346
 6376SOL    HW222275   1.872   6.946   7.188 -0.5539  0.2216  0.0017
 6377SOL     OW22276   7.201   4.778   3.369 -0.1175 -0.0576 -0.2890
 6377SOL    HW122277   7.109   4.783   3.342  0.4513 -1.0371 -2.6059
 6377SOL    HW222278   7.250   4.810   3.293  1.4529  2.4247  1.6188
 6378SOL     OW22279   2.029   0.602   1.120 -0.7140  0.6221 -0.4225
 6378SOL    HW122280   2.074   0.580   1.201  1.7419 -0.3790 -1.9592
 6378SOL    HW222281   1.942   0.563   1.130 -1.2365  2.2507  2.4767
 6379SOL     OW22282   6.537   8.090   5.979 -0.1272  0.9389  0.0832
 6379SOL    HW122283   6.567   8.011   6.023 -1.2126  0.0442 -0.7424
 6379SOL    HW222284   6.615   8.147   5.977  0.3307  0.4494  1.8339
 6380SOL     OW22285   3.659   4.665   1.236  0.2093 -0.1589 -0.2994
 6380SOL    HW122286   3.640   4.638   1.326 -0.3968 -0.9688 -0.6672
 6380SOL    HW222287   3.720   4.739   1.246 -1.4557  1.1436  0.8458
 6381SOL     OW22288   2.894   4.493   1.378 -0.1012 -0.3472 -0.0453
 6381SOL    HW122289   2.949   4.557   1.332 -0.4930  1.1803  1.5048
 6381SOL    HW222290   2.804   4.525   1.365 -0.2141  0.2283  1.8431
 6382SOL     OW22291   6.118   1.941   1.877 -0.3241  0.7460 -0.2931
 6382SOL    HW122292   6.064   1.867   1.904 -0.6736  1.5557  1.3431
 6382SOL    HW222293   6.136   1.989   1.958  1.5884  1.3448 -1.0191
 6383SOL     OW22294   2.590   3.067   5.723  0.2672  0.3383  0.3560
 6383SOL    HW122295   2.517   3.080   5.784  1.5085  0.4425  1.8584
 6383SOL    HW222296   2.617   2.976   5.736 -0.4291 -0.1324 -1.1963
 6384SOL     OW22297   4.059   4.397   7.221  0.3285 -0.6167 -0.2136
 6384SOL    HW122298   4.006   4.434   7.150  0.1159 -0.4036  0.0582
 6384SOL    HW222299   4.143   4.444   7.214  0.1010 -0.1619  0.0556
 6385SOL     OW22300   6.629   3.022   7.367  0.3926  0.2262 -0.4387
 6385SOL    HW122301   6.542   3.025   7.406  0.5294 -1.4854  0.1080
 6385SOL    HW222302   6.654   3.113   7.355 -0.8442  0.7586  0.8133
 6386SOL     OW22303   2.587   5.054   5.972 -0.2098  0.1641 -0.2270
 6386SOL    HW122304   2.537   5.003   5.907  0.7473 -1.5091  0.2849
 6386SOL    HW222305   2.678   5.036   5.952  0.1643  1.5378  0.1337
 6387SOL     OW22306   6.617   3.346   4.141 -0.1939  0.3552 -0.2555
 6387SOL    HW122307   6.597   3.292   4.064  0.5404 -0.3032 -0.0061
 6387SOL    HW222308   6.649   3.284   4.206  2.1030  1.2052 -0.4497
 6388SOL     OW22309   6.277   3.913   7.616 -0.0998 -0.0654 -0.6288
 6388SOL    HW122310   6.189   3.896   7.582 -0.2810  1.3595 -0.9159
 6388SOL    HW222311   6.263   3.933   7.709  0.0282 -0.6576 -0.4750
 6389SOL     OW22312   2.609   7.374   3.933 -0.3849  0.1188  0.0537
 6389SOL    HW122313   2.591   7.293   3.885  0.7417  0.0850 -0.3382
 6389SOL    HW222314   2.686   7.411   3.890  1.4725 -0.5530  2.5506
 6390SOL     OW22315   6.113   1.428   1.524  0.0556 -0.1737 -0.3835
 6390SOL    HW122316   6.115   1.334   1.538 -2.5604 -0.3661 -0.8467
 6390SOL    HW222317   6.026   1.446   1.491 -1.0145  2.8718  3.2967
 6391SOL     OW22318   2.419   1.341   6.254  0.0366 -0.1441  0.5959
 6391SOL    HW122319   2.343   1.283   6.245 -1.0106  1.2224  0.4118
 6391SOL    HW222320   2.413   1.401   6.181  0.4960  0.8937  1.3818
 6392SOL     OW22321   1.048   6.985   1.297  0.2144  0.3186 -0.2983
 6392SOL    HW122322   1.107   7.049   1.257  1.0503  0.0792  0.5295
 6392SOL    HW222323   0.961   7.015   1.271  0.6119  1.4919 -0.3634
 6393SOL     OW22324   7.278   2.901   4.332  0.2333 -0.4903 -0.0468
 6393SOL    HW122325   7.336   2.857   4.270  0.0410 -2.6078  1.1882
 6393SOL    HW222326   7.297   2.861   4.416 -0.1785  1.6535  1.1394
 6394SOL     OW22327   2.417   1.405   5.294 -0.4178 -0.9296  0.4000
 6394SOL    HW122328   2.365   1.470   5.247  1.7054  0.4743 -0.1712
 6394SOL    HW222329   2.437   1.338   5.228  2.2061  0.8279 -0.7973
 6395SOL     OW22330   2.782   1.458   4.506  0.1506 -0.8626 -0.2005
 6395SOL    HW122331   2.789   1.439   4.599 -0.9709 -2.3415 -0.3860
 6395SOL    HW222332   2.743   1.545   4.502  1.5636 -0.1568  0.6841
 6396SOL     OW22333   5.752   5.854   6.508  0.3143  0.0256  0.2533
 6396SOL    HW122334   5.823   5.916   6.490  1.6050 -1.8486 -1.6214
 6396SOL    HW222335   5.686   5.872   6.441 -0.7116  1.2821  1.5469
 6397SOL     OW22336   6.681   7.976   2.380  0.2565  0.4254 -0.5456
 6397SOL    HW122337   6.597   7.946   2.415  0.2844  1.6962  0.6936
 6397SOL    HW222338   6.682   8.070   2.396  1.9825  0.4197 -0.4064
 6398SOL     OW22339   3.395   6.102   6.645 -0.4834  0.0723 -0.2209
 6398SOL    HW122340   3.333   6.175   6.648  0.9957  1.3836 -0.5551
 6398SOL    HW222341   3.477   6.139   6.677 -0.2436 -2.0675  1.9190
 6399SOL     OW22342   7.102   0.958   5.314  0.8587 -0.2055 -0.3735
 6399SOL    HW122343   7.167   0.894   5.341 -1.7132 -2.2931  1.4936
 6399SOL    HW222344   7.058   0.918   5.239  0.4485  0.2670 -0.3923
 6400SOL     OW22345   7.348   2.396   5.002 -0.0371 -0.5279 -0.1880
 6400SOL    HW122346   7.346   2.320   4.944 -0.3158 -0.6853  0.0288
 6400SOL    HW222347   7.269   2.388   5.055  1.1235 -1.4425  1.5465
 6401SOL     OW22348   2.713   6.938   6.608  0.5590 -0.3788 -0.1037
 6401SOL    HW122349   2.763   6.878   6.552 -4.2478 -4.1441 -1.0343
 6401SOL    HW222350   2.667   6.995   6.546  0.9574  0.6259  0.5077
 6402SOL     OW22351   0.567   5.791   1.866 -0.1910  0.6615  0.0130
 6402SOL    HW122352   0.659   5.814   1.878  0.4865 -1.6855 -0.2107
 6402SOL    HW222353   0.534   5.777   1.954  0.2318 -0.4019  0.0172
 6403SOL     OW22354   7.183   6.980   6.493  0.5031 -0.1542  0.0180
 6403SOL    HW122355   7.118   7.012   6.556  3.2625  0.3944  2.8480
 6403SOL    HW222356   7.138   6.982   6.409 -2.9970  0.4547  1.7147
 6404SOL     OW22357   1.852   3.935   2.725  0.4832  0.1235 -0.1847
 6404SOL    HW122358   1.912   3.950   2.798 -1.8761  0.7613  1.7461
 6404SOL    HW222359   1.765   3.943   2.764 -0.8850 -1.1102 -2.7806
 6405SOL     OW22360   2.080   5.909   1.688 -0.2720 -0.1132 -0.8271
 6405SOL    HW122361   1.995   5.951   1.698  0.7538  2.1090 -0.8246
 6405SOL    HW222362   2.066   5.819   1.714 -2.1737  0.6780  1.1577
 6406SOL     OW22363   7.657   3.747   0.104 -0.3317 -0.2954  0.5884
 6406SOL    HW122364   7.624   3.797   0.029  0.7406 -0.6666 -0.1494
 6406SOL    HW222365   7.620   3.792   0.180 -1.2671  0.2235 -0.1430
 6407SOL     OW22366   0.834   2.210   0.608  0.1805 -0.0316 -0.0584
 6407SOL    HW122367   0.740   2.229   0.616  0.3253  0.0084  1.9497
 6407SOL    HW222368   0.859   2.176   0.694  1.7409 -1.3050 -0.9610
 6408SOL     OW22369   3.356   2.839   7.666  0.3300 -0.0340  0.0178
 6408SOL    HW122370   3.438   2.889   7.666  0.0657  0.4144 -0.2519
 6408SOL    HW222371   3.380   2.753   7.633  0.8215 -0.1352  0.6190
 6409SOL     OW22372   0.403   1.883   1.413 -0.2249 -0.3924  0.0800
 6409SOL    HW122373   0.424   1.975   1.395  1.3097 -0.4592  1.3702
 6409SOL    HW222374   0.407   1.841   1.327  1.8369  0.2492 -0.1915
 6410SOL     OW22375   7.084   5.117   7.686 -0.7036  0.5471  0.6957
 6410SOL    HW122376   7.146   5.159   7.745 -0.1836 -0.1617  0.6503
 6410SOL    HW222377   7.015   5.084   7.743  0.2447 -0.9381  1.0213
 6411SOL     OW22378   7.587   6.186   4.327  0.5672  0.4070  0.5988
 6411SOL    HW122379   7.627   6.115   4.275  0.8415  1.2702 -0.4077
 6411SOL    HW222380   7.651   6.257   4.323  0.2190  0.7765  1.4619
 6412SOL     OW22381   7.889   6.339   6.503 -0.2070 -0.3669  1.0210
 6412SOL    HW122382   7.945   6.274   6.459  0.2717  2.0443 -2.3447
 6412SOL    HW222383   7.807   6.336   6.454  0.4743  2.7051 -0.5593
 6413SOL     OW22384   5.823   1.912   2.958  0.2325  0.0914 -0.3468
 6413SOL    HW122385   5.871   1.994   2.968 -2.3522  1.6058  0.5690
 6413SOL    HW222386   5.809   1.904   2.864 -1.7572  2.1889 -0.3080
 6414SOL     OW22387   3.486   2.961   3.347 -0.6449  0.3184  0.0465
 6414SOL    HW122388   3.433   2.949   3.426 -0.4793 -0.6752  0.0204
 6414SOL    HW222389   3.574   2.933   3.371 -0.6034 -0.0448 -0.4946
 6415SOL     OW22390   1.383   2.343   1.351  0.1613  0.5750  0.0304
 6415SOL    HW122391   1.330   2.268   1.323 -0.9986  0.2027  2.8702
 6415SOL    HW222392   1.473   2.311   1.351  0.1205  0.3202 -2.1051
 6416SOL     OW22393   6.245   5.599   2.004  0.5612  0.5009  0.8399
 6416SOL    HW122394   6.213   5.615   1.915  1.2370 -0.1737  0.4689
 6416SOL    HW222395   6.189   5.529   2.037  0.5153  0.5376  0.8417
 6417SOL     OW22396   2.899   7.655   1.701  0.2698  0.3423  0.1248
 6417SOL    HW122397   2.805   7.662   1.685  0.4586 -0.5332 -1.6864
 6417SOL    HW222398   2.913   7.563   1.720  0.7910  0.4131  0.0889
 6418SOL     OW22399   7.894   0.289   2.638 -0.1922  0.0270 -0.9613
 6418SOL    HW122400   7.827   0.262   2.575  0.0273 -2.6397 -0.1784
 6418SOL    HW222401   7.882   0.229   2.712  1.0095  1.6003  0.5956
 6419SOL     OW22402   0.683   6.267   5.861  0.2296 -0.1934  0.2573
 6419SOL    HW122403   0.700   6.341   5.803 -0.4534 -0.4282 -0.2573
 6419SOL    HW222404   0.770   6.234   5.885  0.5252  0.3923 -0.0054
 6420SOL     OW22405   7.745   5.121   2.075  0.3420 -0.3132 -0.3981
 6420SOL    HW122406   7.670   5.139   2.132 -0.3540  0.0590 -1.3908
 6420SOL    HW222407   7.796   5.055   2.122  0.8810  1.4173  1.5829
 6421SOL     OW22408   7.737   5.068   7.708 -0.4507  0.5293  0.1806
 6421SOL    HW122409   7.717   5.137   7.771 -0.0718 -0.1840  1.1127
 6421SOL    HW222410   7.722   5.108   7.622 -0.2371  1.7622  0.6976
 6422SOL     OW22411   4.115   5.954   1.993  0.2563  0.0298  0.6203
 6422SOL    HW122412   4.042   5.896   1.969  1.3673 -1.2779  0.2769
 6422SOL    HW222413   4.096   6.036   1.949 -0.0324 -0.9165 -1.1028
 6423SOL     OW22414   1.572   4.274   6.225 -0.3134  0.4508 -0.1282
 6423SOL    HW122415   1.514   4.210   6.268 -0.3275  0.0477 -0.7302
 6423SOL    HW222416   1.575   4.245   6.134 -0.9923  1.7947 -0.6091
 6424SOL     OW22417   0.443   4.003   4.071 -0.5652  0.2264 -0.2460
 6424SOL    HW122418   0.502   4.029   4.001 -0.0268  0.1841  0.1914
 6424SOL    HW222419   0.444   4.077   4.132  1.1561 -0.8822  1.1251
 6425SOL     OW22420   4.591   5.281   3.715  0.6712  0.5774  0.3253
 6425SOL    HW122421   4.533   5.354   3.695  1.4109  1.1549  0.2345
 6425SOL    HW222422   4.661   5.287   3.650  0.7147 -0.2391  0.2917
 6426SOL     OW22423   6.729   7.144   0.636  0.0560  1.0146 -0.8776
 6426SOL    HW122424   6.742   7.215   0.699  2.2251  0.0780 -0.1967
 6426SOL    HW222425   6.802   7.151   0.575  1.3894 -1.6540  0.2618
 6427SOL     OW22426   4.545   0.721   3.446  0.6338  0.1805 -0.4306
 6427SOL    HW122427   4.459   0.684   3.465  1.9935 -3.3014 -0.2651
 6427SOL    HW222428   4.564   0.778   3.521 -0.0739 -1.8946  1.4280
 6428SOL     OW22429   0.929   0.151   5.101  0.4640  0.3455  0.2791
 6428SOL    HW122430   0.851   0.136   5.155  0.6882  0.4967  0.6494
 6428SOL    HW222431   0.898   0.142   5.011  0.1838 -0.3614  0.4387
 6429SOL     OW22432   3.731   2.942   3.422 -1.0591  0.4080 -0.0793
 6429SOL    HW122433   3.716   2.882   3.494 -0.2008 -0.2190 -0.4122
 6429SOL    HW222434   3.783   3.013   3.459 -0.8350  0.2140 -0.0223
 6430SOL     OW22435   6.123   6.393   0.246  0.0197  0.2550  0.6422
 6430SOL    HW122436   6.143   6.315   0.297 -0.0006 -1.4869 -1.8094
 6430SOL    HW222437   6.046   6.369   0.194 -0.7959  2.3961  0.7366
 6431SOL     OW22438   5.491   5.957   5.807  0.6069 -0.8864  0.3076
 6431SOL    HW122439   5.485   5.874   5.854  1.2170 -0.8071  0.5274
 6431SOL    HW222440   5.410   5.961   5.756  0.9827 -2.0671 -0.4342
 6432SOL     OW22441   4.405   5.404   3.374  0.0721 -0.3625 -0.3041
 6432SOL    HW122442   4.405   5.445   3.460 -0.3025 -0.6563 -0.1624
 6432SOL    HW222443   4.363   5.469   3.317  0.8560  0.0827 -0.3961
 6433SOL     OW22444   3.910   6.847   0.836 -0.0879 -0.7245  0.2227
 6433SOL    HW122445   3.917   6.848   0.741 -2.7187  2.7295 -0.1187
 6433SOL    HW222446   3.977   6.908   0.866  1.0153 -2.1138  0.7142
 6434SOL     OW22447   2.464   1.208   0.521  0.1658 -0.1127  0.2203
 6434SOL    HW122448   2.447   1.142   0.454  0.2650  2.1173 -2.1517
 6434SOL    HW222449   2.559   1.210   0.530  0.1532 -0.3978  0.4288
 6435SOL     OW22450   3.746   7.330   7.070  0.0849  0.0142 -0.4246
 6435SOL    HW122451   3.723   7.423   7.065 -0.0397  0.0831  0.9293
 6435SOL    HW222452   3.697   7.297   7.145  1.4398 -0.7415  0.1710
 6436SOL     OW22453   7.055   2.047   1.086  0.5021 -0.1352  0.0535
 6436SOL    HW122454   7.041   1.954   1.105  1.0723 -0.1870  0.2382
 6436SOL    HW222455   7.143   2.065   1.119 -0.1271  0.8049  1.2751
 6437SOL     OW22456   5.631   4.930   0.104  0.2794  0.0131 -0.2673
 6437SOL    HW122457   5.726   4.929   0.112  0.3449  0.0524 -0.9802
 6437SOL    HW222458   5.601   4.860   0.163  0.7379  0.1007  0.0706
 6438SOL     OW22459   1.768   3.260   1.125  0.5655 -0.0972 -0.6342
 6438SOL    HW122460   1.800   3.272   1.036  1.3169  0.4320 -0.3003
 6438SOL    HW222461   1.823   3.191   1.162  1.9829  1.4360  0.2374
 6439SOL     OW22462   6.605   1.796   3.729 -0.0962 -0.3483  0.7672
 6439SOL    HW122463   6.588   1.738   3.655  0.1375 -0.6314  0.9317
 6439SOL    HW222464   6.566   1.752   3.804  0.3925 -0.4652  0.9536
 6440SOL     OW22465   4.078   1.265   1.086  0.1435  0.0952  0.6290
 6440SOL    HW122466   4.011   1.233   1.146  0.0478 -0.9491 -0.0124
 6440SOL    HW222467   4.070   1.361   1.090 -0.0856  0.0419  1.9993
 6441SOL     OW22468   2.276   6.969   1.975 -0.2578 -0.0167  0.1131
 6441SOL    HW122469   2.322   7.040   2.019  1.2142 -0.1613 -1.1036
 6441SOL    HW222470   2.191   7.007   1.950  0.1006  0.9845  0.3935
 6442SOL     OW22471   5.006   0.651   7.923 -0.5164 -0.3479  0.4575
 6442SOL    HW122472   4.980   0.600   8.000 -0.9351  1.0822  1.2916
 6442SOL    HW222473   5.049   0.729   7.959 -0.1687  0.0542 -0.7788
 6443SOL     OW22474   5.534   0.622   3.176  0.1697 -0.0150  0.2761
 6443SOL    HW122475   5.581   0.548   3.216  0.8956 -1.3507 -2.7392
 6443SOL    HW222476   5.464   0.580   3.126  1.0185  1.2320 -2.0736
 6444SOL     OW22477   2.443   5.976   0.149 -0.0548 -0.1933 -0.0684
 6444SOL    HW122478   2.522   5.987   0.097  0.9234 -0.4631  1.2895
 6444SOL    HW222479   2.441   5.882   0.170  0.2628  0.0920  1.3659
 6445SOL     OW22480   2.974   2.600   6.821  0.5828 -0.3007 -0.1904
 6445SOL    HW122481   3.029   2.541   6.872 -0.1566 -0.7350  0.1109
 6445SOL    HW222482   2.945   2.548   6.746  2.2628  0.5414 -1.5102
 6446SOL     OW22483   6.225   1.500   1.053  0.4022 -0.0983  0.7648
 6446SOL    HW122484   6.245   1.454   0.971  1.4906  0.0900  0.9008
 6446SOL    HW222485   6.270   1.450   1.121  1.7184  1.1748  0.9007
 6447SOL     OW22486   7.441   1.055   7.872  0.3754 -0.4781 -0.0281
 6447SOL    HW122487   7.388   1.044   7.951  1.2566  0.8822  0.7708
 6447SOL    HW222488   7.531   1.062   7.903  0.8843 -1.2211 -1.2613
 6448SOL     OW22489   3.748   4.228   7.750  0.7023  0.7433  0.1098
 6448SOL    HW122490   3.693   4.306   7.748 -0.0462  0.2325 -1.4118
 6448SOL    HW222491   3.833   4.258   7.782 -0.3375  1.6143  2.2255
 6449SOL     OW22492   2.682   8.065   3.765  0.3192  0.3820 -0.0401
 6449SOL    HW122493   2.624   7.992   3.744  0.7001 -0.1993  0.8777
 6449SOL    HW222494   2.623   8.132   3.801 -0.0173  0.5118 -0.8056
 6450SOL     OW22495   7.881   0.521   4.591 -0.1596 -0.3964 -0.2739
 6450SOL    HW122496   7.826   0.560   4.659 -0.8464 -0.1788 -0.9452
 6450SOL    HW222497   7.867   0.575   4.514  1.6124  0.1441 -0.2711
 6451SOL     OW22498   3.505   4.588   1.010 -0.0760  0.3891 -0.2881
 6451SOL    HW122499   3.560   4.615   1.084  2.1983 -0.9722 -1.3536
 6451SOL    HW222500   3.550   4.623   0.933 -1.0941 -0.1828 -1.1675
 6452SOL     OW22501   0.791   1.037   0.977  0.2182  0.4465 -0.2785
 6452SOL    HW122502   0.715   0.999   1.022  0.8207  0.5481  0.8530
 6452SOL    HW222503   0.758   1.119   0.940 -1.3884 -1.4903 -3.6145
 6453SOL     OW22504   0.609   0.399   0.779  0.6126 -0.1429  0.2717
 6453SOL    HW122505   0.659   0.479   0.797  0.6411  0.0011 -0.4079
 6453SOL    HW222506   0.583   0.367   0.866  0.7103  0.5349  0.5629
 6454SOL     OW22507   2.671   0.074   0.191  0.5714 -0.4163 -0.1246
 6454SOL    HW122508   2.671   0.160   0.147  1.6578 -0.6775 -0.6965
 6454SOL    HW222509   2.588   0.035   0.167 -0.6955  1.1194  1.5025
 6455SOL     OW22510   7.633   7.676   6.810 -0.1703 -0.2330  0.6083
 6455SOL    HW122511   7.688   7.621   6.753 -0.5968 -0.4567  0.4084
 6455SOL    HW222512   7.677   7.761   6.811 -0.7479  0.1195 -0.9742
 6456SOL     OW22513   0.974   0.405   1.503 -0.5176 -0.0634  0.2493
 6456SOL    HW122514   0.939   0.482   1.458 -0.6050  0.2359  0.8243
 6456SOL    HW222515   1.066   0.400   1.476 -0.5300  0.2012  0.1626
 6457SOL     OW22516   4.547   2.923   7.430  0.0444 -0.3819  0.3096
 6457SOL    HW122517   4.577   2.989   7.367 -0.4074 -0.4872 -0.0191
 6457SOL    HW222518   4.455   2.945   7.445 -0.5907 -1.8921 -1.0518
 6458SOL     OW22519   3.956   4.706   7.064 -0.3286  0.4992 -0.5689
 6458SOL    HW122520   3.892   4.775   7.080 -0.5870  0.6040 -1.9491
 6458SOL    HW222521   3.907   4.625   7.077 -0.1225  0.5552  0.6738
 6459SOL     OW22522   0.852   7.654   2.548 -0.0947  0.1238  0.3412
 6459SOL    HW122523   0.783   7.633   2.612 -0.3092  0.6912  0.2996
 6459SOL    HW222524   0.812   7.631   2.464  0.4837 -1.4051  0.4536
 6460SOL     OW22525   6.141   2.034   7.056 -0.0593 -0.1063 -0.1200
 6460SOL    HW122526   6.159   1.955   7.106 -0.0274  0.6342  1.0737
 6460SOL    HW222527   6.077   2.007   6.990  1.6041 -1.6342 -1.2046
 6461SOL     OW22528   2.272   7.209   4.618  0.1329 -0.9910 -0.3741
 6461SOL    HW122529   2.361   7.207   4.584  0.1249 -1.0386 -0.3915
 6461SOL    HW222530   2.275   7.273   4.690 -0.5434  1.5310 -2.4339
 6462SOL     OW22531   1.210   1.360   6.813 -0.1511 -0.0180  0.0241
 6462SOL    HW122532   1.142   1.405   6.762  0.3438  0.7977  0.0660
 6462SOL    HW222533   1.275   1.333   6.749  1.6068  2.9845  0.3404
 6463SOL     OW22534   1.114   2.499   3.989 -0.1159  0.5160  0.0846
 6463SOL    HW122535   1.033   2.535   4.024 -0.6421 -0.2453 -0.3389
 6463SOL    HW222536   1.104   2.404   3.995  0.4521  0.3993 -0.6136
 6464SOL     OW22537   8.003   1.101   5.928 -0.6429 -0.1783 -0.2803
 6464SOL    HW122538   7.974   1.010   5.930  1.6822 -0.9877 -0.4010
 6464SOL    HW222539   8.096   1.097   5.951 -0.3556  2.1118 -0.8155
 6465SOL     OW22540   2.915   6.801   4.571 -0.6361 -0.1897 -0.2766
 6465SOL    HW122541   2.897   6.881   4.522 -0.3341 -0.2787 -0.5405
 6465SOL    HW222542   2.836   6.784   4.621 -0.6814  0.3074 -0.1773
 6466SOL     OW22543   4.766   6.713   1.881 -0.9458 -0.4695 -0.7711
 6466SOL    HW122544   4.720   6.668   1.952 -1.5728  1.1880 -0.0525
 6466SOL    HW222545   4.706   6.708   1.807 -1.6426  0.3191 -0.2907
 6467SOL     OW22546   3.507   1.761   0.304 -0.2838  0.3157 -0.1182
 6467SOL    HW122547   3.588   1.812   0.303 -0.7236  1.0413 -1.2810
 6467SOL    HW222548   3.454   1.799   0.233 -0.8431 -1.4273 -0.6863
 6468SOL     OW22549   1.072   7.819   7.199 -0.3416  0.2056 -0.0214
 6468SOL    HW122550   1.014   7.885   7.237 -0.6315 -0.0580 -0.0037
 6468SOL    HW222551   1.160   7.854   7.213 -0.4522  0.1999  0.7259
 6469SOL     OW22552   2.412   4.790   1.070 -0.4111 -0.0777  0.4412
 6469SOL    HW122553   2.370   4.856   1.015  0.1606  0.1894  0.3170
 6469SOL    HW222554   2.470   4.840   1.127  1.0503 -0.5673 -0.5745
 6470SOL     OW22555   1.301   4.328   2.571 -0.0753  0.0381  0.0259
 6470SOL    HW122556   1.241   4.264   2.609 -1.5356  0.3621 -1.6208
 6470SOL    HW222557   1.299   4.401   2.633 -1.8429  0.2653 -0.2485
 6471SOL     OW22558   4.591   7.581   6.410 -0.0909  0.8428  0.2016
 6471SOL    HW122559   4.519   7.567   6.348  0.2801  0.5178 -0.1616
 6471SOL    HW222560   4.584   7.674   6.433 -0.8277  0.7349  0.4313
 6472SOL     OW22561   7.445   1.582   1.498 -0.1501 -0.3952 -0.0383
 6472SOL    HW122562   7.519   1.638   1.473  0.6185 -1.6365 -0.6290
 6472SOL    HW222563   7.368   1.631   1.470  0.5243  0.1297 -1.0633
 6473SOL     OW22564   6.588   5.789   0.071  0.3904 -0.5180 -0.5119
 6473SOL    HW122565   6.500   5.753   0.079 -0.0187 -1.1333 -5.0033
 6473SOL    HW222566   6.577   5.883   0.082 -0.5113 -0.7236  0.4853
 6474SOL     OW22567   3.246   7.113   1.662 -0.1321  0.0627 -0.3911
 6474SOL    HW122568   3.294   7.121   1.580  0.6426  0.9083  0.1202
 6474SOL    HW222569   3.165   7.067   1.639  1.1503 -1.9258 -1.1813
 6475SOL     OW22570   3.743   7.470   1.357 -0.1362  0.6454  0.2260
 6475SOL    HW122571   3.710   7.453   1.269 -0.4682 -0.2444  0.5117
 6475SOL    HW222572   3.776   7.560   1.354  0.4899  0.3837 -0.9894
 6476SOL     OW22573   1.841   7.202   7.390 -0.4333  0.0230  0.4572
 6476SOL    HW122574   1.875   7.125   7.345 -1.4624 -0.7376  0.9388
 6476SOL    HW222575   1.901   7.216   7.463 -0.1710 -0.2584  0.2966
 6477SOL     OW22576   1.349   0.877   6.115 -0.2459 -0.7798  0.5167
 6477SOL    HW122577   1.423   0.936   6.134  0.0198 -0.1493 -2.1412
 6477SOL    HW222578   1.299   0.922   6.047 -1.4157 -2.5502  0.1488
 6478SOL     OW22579   3.618   5.335   0.611  0.9280 -0.2455 -0.0552
 6478SOL    HW122580   3.659   5.353   0.696  1.2570 -0.1417 -0.2352
 6478SOL    HW222581   3.689   5.301   0.557  0.4232 -1.6451  0.1279
 6479SOL     OW22582   1.763   5.097   0.487 -0.1123 -0.7282  0.1339
 6479SOL    HW122583   1.818   5.168   0.521 -1.3573 -0.2431  1.2354
 6479SOL    HW222584   1.778   5.099   0.392  0.0669  0.8704  0.1584
 6480SOL     OW22585   0.013   2.229   2.110 -1.0732 -0.0866  0.8340
 6480SOL    HW122586  -0.014   2.268   2.027 -1.6618  0.0078  1.0671
 6480SOL    HW222587   0.091   2.177   2.088 -0.4031  1.0390  0.4785
 6481SOL     OW22588   2.070   2.685   0.903  0.6485 -0.0629  0.2988
 6481SOL    HW122589   2.133   2.622   0.869 -0.0931 -0.7255  0.1198
 6481SOL    HW222590   2.093   2.767   0.861  2.1305 -0.0106  1.1355
 6482SOL     OW22591   7.356   2.788   4.621  0.2256 -0.1228  0.2310
 6482SOL    HW122592   7.341   2.882   4.626  0.3307 -0.0110 -1.2082
 6482SOL    HW222593   7.314   2.753   4.700  0.8425  1.1873  1.1792
 6483SOL     OW22594   0.517   2.221   6.570 -0.3616  0.2407 -0.4422
 6483SOL    HW122595   0.579   2.288   6.540  0.4296 -0.3330 -0.1477
 6483SOL    HW222596   0.503   2.241   6.663  0.4082 -0.3731 -0.1762
 6484SOL     OW22597   6.948   0.190   0.875  0.4183  0.1805 -0.4000
 6484SOL    HW122598   6.865   0.150   0.902  0.1873  0.6291 -0.4355
 6484SOL    HW222599   7.006   0.116   0.858  0.3384 -0.1247  0.5955
 6485SOL     OW22600   1.785   6.573   7.669  0.1355 -0.0335  0.3721
 6485SOL    HW122601   1.748   6.494   7.710 -0.6309 -1.4369 -2.7494
 6485SOL    HW222602   1.875   6.547   7.646  0.1255  0.2668 -0.0023
 6486SOL     OW22603   6.358   4.986   7.401 -0.9004  1.1179  0.0383
 6486SOL    HW122604   6.273   5.019   7.428 -2.2312 -2.2523  0.3951
 6486SOL    HW222605   6.353   4.891   7.414  2.1282  0.5131 -2.0411
 6487SOL     OW22606   6.378   1.472   3.023  0.0771  0.1726 -0.3647
 6487SOL    HW122607   6.306   1.418   2.993 -0.2829  0.5813 -0.2460
 6487SOL    HW222608   6.367   1.555   2.976 -1.4361  1.4224  2.0356
 6488SOL     OW22609   2.317   2.611   0.326  0.3418 -0.6134 -0.5990
 6488SOL    HW122610   2.338   2.518   0.324  0.1109 -0.6722 -0.3625
 6488SOL    HW222611   2.284   2.626   0.415  0.5333 -0.2740 -0.5823
 6489SOL     OW22612   6.030   6.651   7.920  0.0736 -0.5628 -0.4353
 6489SOL    HW122613   6.022   6.745   7.937 -0.6307 -0.4803 -1.1717
 6489SOL    HW222614   5.985   6.610   7.994 -0.4973 -0.2876 -0.6265
 6490SOL     OW22615   2.035   4.261   7.963 -0.2399  0.2317 -0.3832
 6490SOL    HW122616   2.014   4.170   7.941  2.3630 -0.1749 -1.6247
 6490SOL    HW222617   1.950   4.304   7.972 -1.5488 -1.9406 -1.4174
 6491SOL     OW22618   5.881   1.774   2.363 -0.0746 -0.0697  0.7672
 6491SOL    HW122619   5.908   1.863   2.338 -0.3242  0.1616  1.3176
 6491SOL    HW222620   5.899   1.722   2.285 -1.4805  0.7785 -0.1748
 6492SOL     OW22621   3.892   5.328   7.933  0.0286 -0.1583  0.6655
 6492SOL    HW122622   3.900   5.234   7.917  0.5334  0.0842 -0.7002
 6492SOL    HW222623   3.798   5.343   7.943 -0.1361 -0.7057  0.0624
 6493SOL     OW22624   1.593   2.857   1.563 -0.0133  0.0159 -0.2682
 6493SOL    HW122625   1.527   2.802   1.603 -0.1542  0.1512 -0.3142
 6493SOL    HW222626   1.561   2.874   1.475 -0.5433  1.1204  0.1180
 6494SOL     OW22627   0.020   4.936   5.448  0.0195 -0.3117  0.0334
 6494SOL    HW122628  -0.061   4.979   5.474  0.7480 -0.2237  2.4123
 6494SOL    HW222629   0.055   4.991   5.378 -1.1848  0.5288  0.0646
 6495SOL     OW22630   7.929   7.060   0.271 -0.4624  0.3232  0.3278
 6495SOL    HW122631   7.942   7.066   0.365 -1.1800 -1.3159  0.5756
 6495SOL    HW222632   8.016   7.045   0.234 -0.4506 -1.6327  1.0294
 6496SOL     OW22633   0.392   3.073   2.495 -0.2692 -0.3630 -0.7437
 6496SOL    HW122634   0.428   3.119   2.571 -0.2702 -0.3216 -0.7683
 6496SOL    HW222635   0.304   3.109   2.484 -0.5062 -0.8157 -0.3826
 6497SOL     OW22636   3.133   0.307   2.987 -0.4366 -0.8085  0.4211
 6497SOL    HW122637   3.208   0.367   2.983 -1.1093  0.0180 -0.1132
 6497SOL    HW222638   3.116   0.284   2.895 -1.1947 -0.5451  0.4953
 6498SOL     OW22639   0.128   3.667   6.837 -0.3944  0.4614 -0.1599
 6498SOL    HW122640   0.131   3.583   6.792 -1.5956  0.9017 -1.1344
 6498SOL    HW222641   0.136   3.645   6.930  0.3332 -0.6256 -0.4636
 6499SOL     OW22642   7.007   3.389   2.825  0.2261 -0.4121  0.2466
 6499SOL    HW122643   7.055   3.448   2.883  1.6244  1.6316 -2.7042
 6499SOL    HW222644   6.915   3.412   2.839  0.6097  0.9193  0.7840
 6500SOL     OW22645   2.479   7.509   6.219  0.2768 -0.3208  0.1875
 6500SOL    HW122646   2.436   7.457   6.287  0.3519  1.5055  1.7020
 6500SOL    HW222647   2.505   7.589   6.263  2.5154 -0.0628 -1.4294
 6501SOL     OW22648   7.262   7.247   0.484  0.1692 -0.2319 -0.1535
 6501SOL    HW122649   7.260   7.247   0.388  0.0113 -1.8095 -0.1808
 6501SOL    HW222650   7.324   7.177   0.506  1.1742  0.9466  0.9118
 6502SOL     OW22651   7.063   6.223   7.201 -0.1326 -0.2542 -0.6421
 6502SOL    HW122652   7.029   6.133   7.205  0.4308 -0.4808 -0.8924
 6502SOL    HW222653   6.985   6.278   7.205 -0.3540 -0.6528  2.4942
 6503SOL     OW22654   1.564   5.110   6.837  0.5366 -0.5802  0.0476
 6503SOL    HW122655   1.577   5.049   6.766  0.1866  0.8055 -1.2650
 6503SOL    HW222656   1.620   5.185   6.816  2.3371 -1.1047  2.5259
 6504SOL     OW22657   1.070   8.074   7.937  0.3831 -0.0453 -0.4598
 6504SOL    HW122658   0.976   8.056   7.942  0.5746 -1.7447 -1.7582
 6504SOL    HW222659   1.078   8.138   7.866  0.0794  1.7941  1.0838
 6505SOL     OW22660   4.798   4.813   4.017  0.5596 -0.2211  0.5066
 6505SOL    HW122661   4.838   4.753   4.080  0.2138 -0.0754  0.8672
 6505SOL    HW222662   4.870   4.837   3.958  1.2841  0.8646  1.7702
 6506SOL     OW22663   6.180   4.156   6.248 -0.2871 -0.1565  0.6447
 6506SOL    HW122664   6.259   4.122   6.289 -0.0183 -0.6765 -0.2648
 6506SOL    HW222665   6.176   4.248   6.274 -0.4476 -0.6096  2.2727
 6507SOL     OW22666   1.529   4.391   4.697  0.3578  0.3955  0.1417
 6507SOL    HW122667   1.623   4.408   4.702  0.6423 -0.8478 -0.6369
 6507SOL    HW222668   1.507   4.407   4.606  0.0056 -0.1938  0.1181
 6508SOL     OW22669   2.693   4.007   2.268 -0.3711 -0.0922  0.1147
 6508SOL    HW122670   2.665   4.010   2.176  0.0295  0.0389 -0.0074
 6508SOL    HW222671   2.767   3.946   2.267  0.8467  1.3350  0.0108
 6509SOL     OW22672   3.521   1.029   1.598 -0.4132  0.2981  0.0393
 6509SOL    HW122673   3.480   1.033   1.512 -1.3707  0.0158  0.4631
 6509SOL    HW222674   3.448   1.019   1.659  0.2914 -0.2207  0.8267
 6510SOL     OW22675   0.792   2.625   3.282  0.0216 -0.3462 -0.0364
 6510SOL    HW122676   0.700   2.615   3.259  0.4730 -1.8472 -1.3968
 6510SOL    HW222677   0.831   2.670   3.207  0.7309 -1.4686 -0.3637
 6511SOL     OW22678   2.816   8.002   3.388  0.0373 -0.0690 -0.1692
 6511SOL    HW122679   2.823   7.938   3.459 -0.7526 -2.1496 -1.8419
 6511SOL    HW222680   2.831   8.087   3.430  0.3065 -1.2594  2.3182
 6512SOL     OW22681   7.224   3.913   5.476  0.2100 -0.3878  0.0155
 6512SOL    HW122682   7.318   3.914   5.493  0.5058 -0.2197 -1.4916
 6512SOL    HW222683   7.216   3.920   5.381 -1.3371 -0.2110  0.1212
 6513SOL     OW22684   4.314   6.511   6.625 -0.1090  0.5706 -0.3324
 6513SOL    HW122685   4.390   6.509   6.567 -1.2107  3.8783 -2.1548
 6513SOL    HW222686   4.298   6.604   6.641 -1.5027 -0.1000  3.2272
 6514SOL     OW22687   2.136   5.598   4.235  1.1531  0.1061 -0.3054
 6514SOL    HW122688   2.204   5.554   4.286 -0.2403 -0.4068  1.2402
 6514SOL    HW222689   2.151   5.691   4.250  0.2845 -0.0204  1.9148
 6515SOL     OW22690   4.983   7.838   6.316 -0.3161 -0.0546  0.3061
 6515SOL    HW122691   5.073   7.869   6.322 -0.4125  0.8724 -2.0341
 6515SOL    HW222692   4.948   7.847   6.405  1.5507  0.6369  1.0051
 6516SOL     OW22693   1.936   3.458   7.304 -0.2189 -0.0127 -0.3572
 6516SOL    HW122694   1.863   3.396   7.308 -0.5782  0.4678  1.4786
 6516SOL    HW222695   2.012   3.404   7.284 -0.9467 -0.6149 -1.6552
 6517SOL     OW22696   5.260   2.468   3.685 -0.0044  0.2477  0.6759
 6517SOL    HW122697   5.238   2.548   3.638  0.8168  0.0231 -0.1186
 6517SOL    HW222698   5.183   2.450   3.739 -0.3881  1.3054  0.5133
 6518SOL     OW22699   2.904   4.344   6.531  0.0939  0.0430 -0.2394
 6518SOL    HW122700   2.943   4.421   6.490  0.7736 -0.6397 -0.9275
 6518SOL    HW222701   2.839   4.379   6.592 -0.1261  1.1299 -1.0622
 6519SOL     OW22702   4.496   4.487   2.123 -0.2948 -0.1686 -0.0339
 6519SOL    HW122703   4.438   4.412   2.138 -1.1276  0.4373 -0.1326
 6519SOL    HW222704   4.436   4.561   2.110  0.5049  0.4092 -0.4926
 6520SOL     OW22705   5.228   6.943   2.209 -0.1078 -0.6104 -0.0486
 6520SOL    HW122706   5.196   7.029   2.184 -0.1986 -0.7194 -0.3115
 6520SOL    HW222707   5.150   6.894   2.236  0.2001  0.2023  2.6466
 6521SOL     OW22708   4.088   3.354   5.127  0.0209 -0.0163  0.8541
 6521SOL    HW122709   4.081   3.424   5.062  1.2747  0.8742  1.6278
 6521SOL    HW222710   4.149   3.388   5.192  0.3023 -1.6665  1.4991
 6522SOL     OW22711   1.342   5.574   0.711 -0.3008 -0.1526  0.3499
 6522SOL    HW122712   1.361   5.509   0.643 -0.3362 -0.3097  0.4894
 6522SOL    HW222713   1.284   5.528   0.772  0.4668 -0.3051  0.9669
 6523SOL     OW22714   7.659   4.615   0.649 -0.9410 -0.2133 -0.0573
 6523SOL    HW122715   7.680   4.526   0.621 -0.9827 -0.4371  0.6074
 6523SOL    HW222716   7.633   4.660   0.568 -0.5292 -0.6864 -0.4612
 6524SOL     OW22717   2.927   7.770   2.145  0.3478  0.7401  0.1781
 6524SOL    HW122718   2.952   7.690   2.099 -0.3072  1.1642 -0.9630
 6524SOL    HW222719   2.880   7.739   2.222  1.8148  0.0058  0.8153
 6525SOL     OW22720   6.011   6.962   0.959 -0.2880  0.1260 -0.1868
 6525SOL    HW122721   6.085   6.936   0.905  0.6435  0.0301  1.1160
 6525SOL    HW222722   6.046   6.968   1.048 -1.9266 -0.3045  0.5252
 6526SOL     OW22723   0.149   3.738   4.325 -0.0766 -0.2087  0.1906
 6526SOL    HW122724   0.148   3.775   4.237 -1.8887 -0.1151  0.2141
 6526SOL    HW222725   0.241   3.722   4.343  0.3517 -0.0245 -1.6342
 6527SOL     OW22726   4.440   2.753   4.185  0.3721  0.3761  0.5773
 6527SOL    HW122727   4.375   2.740   4.254  1.6345  0.6661  1.8839
 6527SOL    HW222728   4.468   2.665   4.162 -0.0514  0.2757  0.4430
 6528SOL     OW22729   6.786   6.890   2.939  0.0782 -0.1980  0.0093
 6528SOL    HW122730   6.835   6.835   2.878 -0.7257 -1.7658  0.7239
 6528SOL    HW222731   6.706   6.840   2.957 -0.1140  0.6355  1.6571
 6529SOL     OW22732   1.800   6.898   4.246  0.2539 -0.3334 -0.2907
 6529SOL    HW122733   1.836   6.914   4.333 -0.5047 -1.7431  0.3027
 6529SOL    HW222734   1.861   6.837   4.206  0.1489 -0.3435 -0.4366
 6530SOL     OW22735   2.595   4.572   5.712  0.2259 -0.3269  0.4001
 6530SOL    HW122736   2.542   4.492   5.707 -0.1635 -0.0931  0.6760
 6530SOL    HW222737   2.545   4.629   5.771 -1.1238  1.3463 -2.1652
 6531SOL     OW22738   0.553   3.655   6.051  0.3544  0.2415  0.4774
 6531SOL    HW122739   0.607   3.724   6.090 -0.2553 -0.3165  2.4328
 6531SOL    HW222740   0.472   3.657   6.101 -1.1068  0.4045 -1.7593
 6532SOL     OW22741   6.402   3.837   6.646  0.0287  0.5760 -0.4395
 6532SOL    HW122742   6.321   3.817   6.693  0.5734  0.4806  0.4979
 6532SOL    HW222743   6.456   3.758   6.656  0.5209  0.9105 -0.3996
 6533SOL     OW22744   6.335   1.168   6.711  0.0197 -0.0717 -0.1328
 6533SOL    HW122745   6.359   1.157   6.803  0.9385 -1.4165 -0.5057
 6533SOL    HW222746   6.249   1.126   6.703  0.4888 -1.0378 -0.1370
 6534SOL     OW22747   3.678   2.650   6.094 -0.3079 -0.0897 -0.1020
 6534SOL    HW122748   3.623   2.630   6.170  0.3181  0.9303  0.6478
 6534SOL    HW222749   3.766   2.657   6.129  0.3640 -1.7506 -1.3014
 6535SOL     OW22750   0.857   5.902   3.654 -0.1195 -0.1363 -0.0093
 6535SOL    HW122751   0.823   5.982   3.694 -0.6198 -0.1111 -0.4739
 6535SOL    HW222752   0.932   5.878   3.709  1.1660  1.6205 -0.8665
 6536SOL     OW22753   7.646   4.027   7.791  0.3644 -0.3007 -0.5577
 6536SOL    HW122754   7.733   4.064   7.781  0.5471 -0.2901  0.9368
 6536SOL    HW222755   7.603   4.046   7.708  0.8949  2.0385 -0.3653
 6537SOL     OW22756   6.271   2.825   8.082  0.1042 -0.5869 -0.0504
 6537SOL    HW122757   6.241   2.820   7.991 -0.9392  1.2896  0.1472
 6537SOL    HW222758   6.215   2.763   8.129  0.4389 -1.3316 -0.6155
 6538SOL     OW22759   0.270   6.481   6.422 -0.4345 -0.1546  0.0897
 6538SOL    HW122760   0.335   6.507   6.487  0.1615 -2.1707  0.3899
 6538SOL    HW222761   0.320   6.478   6.340 -1.0950  2.0129 -0.4531
 6539SOL     OW22762   7.508   1.879   3.220 -0.1886  0.2674  0.0954
 6539SOL    HW122763   7.450   1.808   3.190  0.2890  0.7717 -2.2522
 6539SOL    HW222764   7.451   1.935   3.273 -0.9476 -1.0518  0.7491
 6540SOL     OW22765   3.764   1.226   0.509  0.3380 -0.3494  0.3680
 6540SOL    HW122766   3.674   1.240   0.482  0.8995  0.9213 -0.9654
 6540SOL    HW222767   3.759   1.215   0.604 -1.2909 -1.2237  0.2114
 6541SOL     OW22768   2.266   2.523   1.791  0.2130 -0.4510 -0.0819
 6541SOL    HW122769   2.314   2.530   1.874 -1.4233  0.3635  0.8359
 6541SOL    HW222770   2.184   2.481   1.814 -1.6821  2.6600 -0.5932
 6542SOL     OW22771   5.011   2.090   3.086  0.2323 -0.0084 -0.9032
 6542SOL    HW122772   4.920   2.081   3.058 -0.0156 -0.5117  0.0178
 6542SOL    HW222773   5.008   2.157   3.155  0.8730  1.4270 -2.2110
 6543SOL     OW22774   0.739   1.346   1.870 -0.4084 -0.5841 -0.3451
 6543SOL    HW122775   0.825   1.387   1.858 -0.6138 -0.1645 -0.3940
 6543SOL    HW222776   0.684   1.387   1.804 -0.2700 -1.9677 -1.3621
 6544SOL     OW22777   4.459   6.753   0.828 -0.1347  0.2200  0.5205
 6544SOL    HW122778   4.427   6.788   0.912 -0.1004  0.3471  0.4807
 6544SOL    HW222779   4.552   6.739   0.842 -0.2499 -0.3742  0.7133
 6545SOL     OW22780   8.096   1.967   4.952  0.6265 -0.0167  0.2425
 6545SOL    HW122781   8.082   1.907   5.025 -0.5717 -0.2793 -0.1698
 6545SOL    HW222782   8.076   2.054   4.988 -1.1657 -0.2694 -0.0427
 6546SOL     OW22783   5.182   4.147   3.970 -0.1098  0.0953 -0.0428
 6546SOL    HW122784   5.244   4.142   4.043  0.9940 -0.8378 -0.9898
 6546SOL    HW222785   5.184   4.059   3.931  1.2526  1.1702 -2.6627
 6547SOL     OW22786   4.412   2.711   1.271 -0.7677  0.3824  0.3530
 6547SOL    HW122787   4.481   2.664   1.318  0.5685  0.9010 -0.9927
 6547SOL    HW222788   4.345   2.728   1.337 -0.6389 -2.0491  1.2159
 6548SOL     OW22789   1.029   5.187   7.794  0.4050  0.9918  0.2444
 6548SOL    HW122790   0.943   5.213   7.762  0.4221 -0.1669 -0.8062
 6548SOL    HW222791   1.077   5.157   7.716  0.9525 -0.5279  1.1057
 6549SOL     OW22792   1.705   4.342   0.225 -0.2966  0.0108 -0.4012
 6549SOL    HW122793   1.785   4.290   0.222 -0.3612 -0.1243  0.0690
 6549SOL    HW222794   1.712   4.402   0.151  0.8131  0.8188  0.3223
 6550SOL     OW22795   1.903   4.284   3.531  0.0809 -0.0545 -0.1547
 6550SOL    HW122796   1.935   4.310   3.444 -2.4257  1.3355 -0.7681
 6550SOL    HW222797   1.903   4.189   3.529 -0.9237 -0.0623 -2.1129
 6551SOL     OW22798   0.452   2.306   3.758 -0.5445 -0.2386 -0.3305
 6551SOL    HW122799   0.537   2.262   3.752 -1.3312 -1.8300 -0.1057
 6551SOL    HW222800   0.461   2.383   3.701  1.1902 -0.1178  0.0605
 6552SOL     OW22801   2.823   7.041   2.716  0.1687 -0.2235  0.1432
 6552SOL    HW122802   2.829   6.985   2.639  1.4911  0.8557 -0.5883
 6552SOL    HW222803   2.811   6.981   2.789 -1.0028 -1.2749 -0.8755
 6553SOL     OW22804   7.080   4.954   1.001 -0.6746  0.3335 -0.0311
 6553SOL    HW122805   7.170   4.933   0.975 -0.5828  0.6219  0.0579
 6553SOL    HW222806   7.089   5.022   1.067 -0.8602 -1.1065  1.5487
 6554SOL     OW22807   1.957   6.584   5.393 -0.3085 -0.5072 -0.3770
 6554SOL    HW122808   1.915   6.510   5.437 -1.1592 -0.4331 -1.0417
 6554SOL    HW222809   2.011   6.625   5.461 -1.3158 -0.6067  0.5168
 6555SOL     OW22810   5.259   6.477   0.860  0.5918 -0.5209  0.1768
 6555SOL    HW122811   5.286   6.391   0.830 -0.8799 -0.7322 -0.6134
 6555SOL    HW222812   5.321   6.499   0.930  0.2109 -2.7994  1.3220
 6556SOL     OW22813   2.252   0.072   3.732 -0.7653  0.0211  0.1041
 6556SOL    HW122814   2.233   0.133   3.804 -1.3012 -0.7614  0.6481
 6556SOL    HW222815   2.197  -0.004   3.751 -0.5992 -0.3675 -0.9199
 6557SOL     OW22816   4.061   0.679   0.627 -0.1339  0.4825  0.8042
 6557SOL    HW122817   4.067   0.729   0.545 -0.2943  0.0502  0.5287
 6557SOL    HW222818   4.129   0.613   0.620 -1.2051 -0.5951  0.3003
 6558SOL     OW22819   7.065   1.876   4.216 -0.4155 -0.0361 -0.0393
 6558SOL    HW122820   6.988   1.895   4.269  0.2761  1.7768  0.3917
 6558SOL    HW222821   7.139   1.885   4.276  0.2397 -0.1856 -0.7953
 6559SOL     OW22822   1.980   3.774   4.287  0.2878  0.4052  0.1616
 6559SOL    HW122823   1.987   3.685   4.320  0.2787  0.0599 -0.7343
 6559SOL    HW222824   1.903   3.810   4.332 -0.4770 -0.4687 -0.4034
 6560SOL     OW22825   0.355   3.775   1.983  0.2968 -0.1211 -0.3107
 6560SOL    HW122826   0.384   3.794   1.893  1.0770  0.2600  0.0128
 6560SOL    HW222827   0.344   3.861   2.023  2.1334 -0.2754  0.6294
 6561SOL     OW22828   7.156   1.110   5.999 -0.5210  0.4094 -0.2014
 6561SOL    HW122829   7.248   1.133   6.014 -0.7639  0.9894  0.4839
 6561SOL    HW222830   7.158   1.047   5.927  0.4069  0.4643 -0.2356
 6562SOL     OW22831   3.800   1.414   4.068 -0.2627  0.1110  0.2936
 6562SOL    HW122832   3.828   1.447   3.983 -2.8282 -1.1215 -1.1508
 6562SOL    HW222833   3.720   1.364   4.049 -0.7057 -0.5399  3.3805
 6563SOL     OW22834   3.348   4.829   3.431  0.3472 -0.4389  0.2486
 6563SOL    HW122835   3.411   4.862   3.495  0.5892 -0.4043 -0.0051
 6563SOL    HW222836   3.268   4.812   3.482  1.0522 -2.0303  0.8976
 6564SOL     OW22837   3.322   2.335   4.963 -0.3551  0.1318  0.1629
 6564SOL    HW122838   3.408   2.308   4.933 -0.8928 -1.4268 -0.0728
 6564SOL    HW222839   3.304   2.280   5.039 -1.1805  0.3737  0.1616
 6565SOL     OW22840   1.725   2.171   6.323 -0.0781  0.0037 -0.4570
 6565SOL    HW122841   1.641   2.124   6.329  0.4938 -1.0136 -0.1830
 6565SOL    HW222842   1.776   2.120   6.260  0.1299  0.9626 -1.0813
 6566SOL     OW22843   5.814   3.575   4.920  0.1797 -0.0054  0.0959
 6566SOL    HW122844   5.775   3.515   4.984 -0.5258 -1.2779 -1.4672
 6566SOL    HW222845   5.861   3.639   4.973 -2.8310  0.7832  2.0311
 6567SOL     OW22846   5.766   0.199   5.934  0.8145  0.0578  0.0640
 6567SOL    HW122847   5.850   0.156   5.944 -0.0857 -1.8869 -0.2339
 6567SOL    HW222848   5.728   0.161   5.855 -0.0243  1.4791 -0.2591
 6568SOL     OW22849   1.224   5.187   0.245  0.3246 -0.2341 -0.1599
 6568SOL    HW122850   1.172   5.234   0.311 -0.1349  0.7143 -1.1645
 6568SOL    HW222851   1.315   5.207   0.268  0.1461  0.9901 -0.4269
 6569SOL     OW22852   5.053   3.025   4.000  0.1939 -0.0147  0.8267
 6569SOL    HW122853   5.064   2.988   3.913 -0.6750 -0.3457  0.8440
 6569SOL    HW222854   4.988   3.095   3.989  1.7740  1.5065  0.8040
 6570SOL     OW22855   7.006   3.952   5.650  0.1503 -0.2099  0.0937
 6570SOL    HW122856   7.066   3.941   5.577  0.4230  0.2274  0.2472
 6570SOL    HW222857   6.985   4.046   5.650 -1.8083 -0.6073 -0.9534
 6571SOL     OW22858   0.960   0.387   6.976 -0.1006 -0.7508 -0.1197
 6571SOL    HW122859   0.925   0.299   6.968  1.9927 -1.5679 -0.7965
 6571SOL    HW222860   1.034   0.379   7.036 -0.6330  0.8155  0.8322
 6572SOL     OW22861   5.660   7.471   2.023  0.4479 -0.3062  0.1753
 6572SOL    HW122862   5.680   7.560   2.051  0.3341  0.2293 -1.3538
 6572SOL    HW222863   5.726   7.452   1.957 -1.5628 -0.0104 -2.0512
 6573SOL     OW22864   4.376   4.222   1.260  0.2183 -0.0800 -0.1523
 6573SOL    HW122865   4.328   4.261   1.187  0.5839 -0.5838 -0.6733
 6573SOL    HW222866   4.322   4.148   1.288  0.8487 -0.9002 -1.0062
 6574SOL     OW22867   1.241   4.680   7.810 -0.0024  0.4376 -0.5570
 6574SOL    HW122868   1.206   4.591   7.807 -0.5810  0.6000  0.7481
 6574SOL    HW222869   1.335   4.669   7.795 -0.0642 -0.3946 -0.4129
 6575SOL     OW22870   6.779   6.354   0.591  0.0213  0.6087  0.2441
 6575SOL    HW122871   6.720   6.426   0.568  0.0564  0.7776  0.6590
 6575SOL    HW222872   6.720   6.285   0.623 -0.2532 -0.5339 -2.4402
 6576SOL     OW22873   0.981   4.340   5.942 -0.1519  0.0306  0.6956
 6576SOL    HW122874   0.979   4.423   5.895  0.0573 -0.3366  0.0118
 6576SOL    HW222875   0.922   4.352   6.016 -0.6415  0.5687  0.2289
 6577SOL     OW22876   1.567   3.183   5.430  0.3325  0.1816 -0.1891
 6577SOL    HW122877   1.519   3.207   5.509 -0.5036  0.3175 -0.7301
 6577SOL    HW222878   1.632   3.120   5.459  0.1772  0.4024  0.6450
 6578SOL     OW22879   6.760   2.154   2.332 -0.7862 -0.0510 -0.0316
 6578SOL    HW122880   6.831   2.218   2.329  0.1078 -0.9398  1.2834
 6578SOL    HW222881   6.788   2.086   2.271 -1.1102  0.1778 -0.4402
 6579SOL     OW22882   0.157   3.413   1.376  0.2438 -0.4467  0.0310
 6579SOL    HW122883   0.077   3.378   1.415 -0.4403 -1.4341 -2.1355
 6579SOL    HW222884   0.202   3.336   1.341  0.0262  0.4941 -2.5085
 6580SOL     OW22885   2.400   0.293   2.401  0.0663  0.0345 -0.5792
 6580SOL    HW122886   2.315   0.287   2.446  0.3026  2.4094  0.3179
 6580SOL    HW222887   2.439   0.206   2.413 -1.2563 -0.4018  1.0190
 6581SOL     OW22888   3.369   0.163   1.296 -0.1844  0.1967  0.0589
 6581SOL    HW122889   3.424   0.242   1.302  0.0728  0.1495 -1.2896
 6581SOL    HW222890   3.345   0.143   1.386  0.2533  1.4705  0.4769
 6582SOL     OW22891   3.000   3.193   5.472  0.6381  0.0403 -0.5117
 6582SOL    HW122892   3.006   3.146   5.389  2.7214  1.8825 -1.5079
 6582SOL    HW222893   3.021   3.283   5.450 -3.3937  1.6529  1.2713
 6583SOL     OW22894   5.462   2.648   6.730 -0.2955  0.1715 -0.2408
 6583SOL    HW122895   5.493   2.561   6.706 -1.2257 -0.3432  0.3407
 6583SOL    HW222896   5.465   2.649   6.826  0.5347  1.1031 -0.2629
 6584SOL     OW22897   2.092   3.978   4.131  0.4843  0.6164 -0.0654
 6584SOL    HW122898   2.143   3.899   4.114 -0.6451  0.0629 -1.0427
 6584SOL    HW222899   2.015   3.946   4.178  0.7301  1.3543  0.8666
 6585SOL     OW22900   2.071   2.136   4.693 -0.3642 -0.5561 -0.0182
 6585SOL    HW122901   2.107   2.225   4.684  2.5621 -1.6314  0.0692
 6585SOL    HW222902   2.034   2.135   4.781  0.9201  0.1866  0.5761
 6586SOL     OW22903   5.916   5.166   2.151  0.4222 -0.1374  0.4941
 6586SOL    HW122904   5.881   5.244   2.109  4.6060  1.6113 -0.2221
 6586SOL    HW222905   5.905   5.097   2.086 -1.8465  0.1265  0.4984
 6587SOL     OW22906   5.702   0.497   6.815 -0.0676 -0.5437  0.4732
 6587SOL    HW122907   5.693   0.432   6.885 -1.5916  0.1379  0.9553
 6587SOL    HW222908   5.649   0.571   6.844 -0.3687 -0.0607 -1.2042
 6588SOL     OW22909   1.875   1.354   1.979 -0.7677  0.2144  0.2326
 6588SOL    HW122910   1.817   1.365   2.055 -1.5211  0.7418 -0.3949
 6588SOL    HW222911   1.881   1.260   1.966 -1.7235  0.1566  0.1459
 6589SOL     OW22912   2.500   5.505   6.445  0.4012  0.2735 -0.2331
 6589SOL    HW122913   2.476   5.414   6.464 -1.2623  0.2767 -1.9944
 6589SOL    HW222914   2.523   5.504   6.352 -1.5942  1.9635 -0.8204
 6590SOL     OW22915   6.211   0.184   2.496  0.3766 -0.2235  0.0400
 6590SOL    HW122916   6.296   0.161   2.459  0.6579  0.5970  0.1427
 6590SOL    HW222917   6.160   0.214   2.421  1.2415  2.3056  0.3365
 6591SOL     OW22918   0.192   2.918   4.008 -0.0961  0.4493 -0.0390
 6591SOL    HW122919   0.160   3.001   4.043 -0.2745  0.0966  0.6529
 6591SOL    HW222920   0.168   2.921   3.915  0.1232  1.2724 -0.0788
 6592SOL     OW22921   4.353   1.747   8.060  0.1719 -0.4141  0.4787
 6592SOL    HW122922   4.447   1.738   8.072  0.1865 -1.4117 -0.2724
 6592SOL    HW222923   4.319   1.658   8.067 -0.9412  0.0790  2.3544
 6593SOL     OW22924   2.440   7.554   7.755  1.1098  0.1479 -0.1342
 6593SOL    HW122925   2.486   7.480   7.714  1.5795 -0.6903  1.7922
 6593SOL    HW222926   2.502   7.626   7.751  1.6993 -0.3243  0.3578
 6594SOL     OW22927   6.157   2.563   0.079 -0.1688 -0.0024 -0.0564
 6594SOL    HW122928   6.236   2.520   0.114  0.7402  1.2001 -0.5584
 6594SOL    HW222929   6.101   2.574   0.156  0.7101  0.2896  0.5636
 6595SOL     OW22930   7.975   6.964   7.851 -0.0460 -0.1840 -0.5761
 6595SOL    HW122931   7.984   6.902   7.779  0.1337 -0.8319 -0.0153
 6595SOL    HW222932   7.892   6.941   7.892 -0.0786  0.0806 -0.4930
 6596SOL     OW22933   0.305   1.823   7.278  0.2047  0.6730  0.1924
 6596SOL    HW122934   0.240   1.884   7.315 -2.5848 -1.5993 -0.5794
 6596SOL    HW222935   0.286   1.822   7.185  1.5395  0.0936 -0.0840
 6597SOL     OW22936   5.518   2.041   6.300  0.8348 -0.2472 -0.0847
 6597SOL    HW122937   5.443   2.085   6.260 -0.0814 -0.9722  0.7615
 6597SOL    HW222938   5.588   2.105   6.299 -0.2783  1.0226  0.5787
 6598SOL     OW22939   1.031   3.653   3.340 -0.4077  0.6808  0.3207
 6598SOL    HW122940   0.995   3.592   3.405 -2.1181  1.2344 -0.0437
 6598SOL    HW222941   0.971   3.727   3.342  0.4560  1.4303 -0.7330
 6599SOL     OW22942   4.693   6.626   0.824  0.5552 -0.2355 -0.1651
 6599SOL    HW122943   4.771   6.669   0.858  0.4787  0.3241 -0.6596
 6599SOL    HW222944   4.715   6.605   0.733  0.2672 -0.4210 -0.1945
 6600SOL     OW22945   7.926   3.094   4.476  0.0118 -0.0571  0.6663
 6600SOL    HW122946   7.990   3.083   4.406  1.7806 -0.8957  2.3194
 6600SOL    HW222947   7.896   3.184   4.466 -0.5557 -0.4503 -1.7421
 6601SOL     OW22948   0.472   3.107   1.789 -0.0895  0.2765 -0.0477
 6601SOL    HW122949   0.501   3.019   1.768 -0.7930  0.0367 -0.0309
 6601SOL    HW222950   0.472   3.110   1.885  2.4190  1.1384  0.0018
 6602SOL     OW22951   7.845   7.954   4.346  0.1361  0.0442 -0.0737
 6602SOL    HW122952   7.754   7.970   4.370 -0.6152 -2.3416 -0.9605
 6602SOL    HW222953   7.843   7.939   4.251  1.3618 -0.4965 -0.0428
 6603SOL     OW22954   5.861   7.587   7.877  0.2555 -0.4294 -0.1817
 6603SOL    HW122955   5.883   7.680   7.888  0.2831 -0.4236 -0.2809
 6603SOL    HW222956   5.861   7.574   7.782  2.7774 -1.1192 -0.1633
 6604SOL     OW22957   0.623   4.753   5.250  0.1177  0.3670 -0.1630
 6604SOL    HW122958   0.690   4.789   5.308 -1.3768  0.7861  1.3832
 6604SOL    HW222959   0.557   4.718   5.310 -0.6432 -0.8211 -1.6414
 6605SOL     OW22960   6.445   2.338   5.997  0.4571  0.0656 -0.7822
 6605SOL    HW122961   6.512   2.333   6.065 -0.2123  4.6688  0.6076
 6605SOL    HW222962   6.495   2.352   5.916  1.3223  2.0112  0.0141
 6606SOL     OW22963   7.863   2.005   5.992  0.2465 -0.3448 -0.0562
 6606SOL    HW122964   7.855   2.015   6.087  0.6821 -0.4202 -0.0101
 6606SOL    HW222965   7.942   1.953   5.980  0.7298  0.4659 -0.4982
 6607SOL     OW22966   5.815   6.453   0.333 -0.3750 -0.0744  0.2883
 6607SOL    HW122967   5.804   6.412   0.419 -2.1799  0.4654  0.3564
 6607SOL    HW222968   5.788   6.544   0.345  0.2349  0.2552 -0.6564
 6608SOL     OW22969   6.490   6.409   5.567  0.1102  0.3961  0.2881
 6608SOL    HW122970   6.532   6.327   5.541 -0.5691 -0.0249  0.4867
 6608SOL    HW222971   6.445   6.439   5.488  0.5377  0.6932  0.1557
 6609SOL     OW22972   2.261   7.635   4.365 -0.4884 -0.3713 -0.0063
 6609SOL    HW122973   2.282   7.668   4.279  1.6764  0.2905  0.7179
 6609SOL    HW222974   2.346   7.621   4.407 -1.4671  0.6961  2.5203
 6610SOL     OW22975   2.720   7.664   3.314  0.5197  0.4892 -0.4918
 6610SOL    HW122976   2.800   7.660   3.366 -0.1741  1.5993  0.7066
 6610SOL    HW222977   2.691   7.573   3.307 -0.4354  0.4286  2.8291
 6611SOL     OW22978   5.039   1.615   3.800 -0.0200 -0.2241  0.4961
 6611SOL    HW122979   5.105   1.576   3.743  0.1287 -0.3977  0.7856
 6611SOL    HW222980   4.973   1.650   3.739  1.2251  1.5969  0.1245
 6612SOL     OW22981   7.491   4.026   3.770  0.5578 -0.1205  0.1767
 6612SOL    HW122982   7.405   3.986   3.778  0.0571  0.5482 -1.4064
 6612SOL    HW222983   7.499   4.081   3.848 -0.2096 -0.6129  0.6184
 6613SOL     OW22984   4.452   0.746   8.002  0.6177 -0.3563  0.4181
 6613SOL    HW122985   4.429   0.827   8.047  0.9658 -0.1236  0.1814
 6613SOL    HW222986   4.422   0.677   8.060 -1.3482 -0.0831 -0.1876
 6614SOL     OW22987   5.420   7.003   4.551  0.1623 -0.5056 -0.1961
 6614SOL    HW122988   5.416   7.078   4.492 -1.0498  0.7657  1.3646
 6614SOL    HW222989   5.339   7.010   4.603  0.6887 -2.1079  0.9151
 6615SOL     OW22990   5.287   3.877   5.317 -0.2198  0.4634  0.2069
 6615SOL    HW122991   5.337   3.837   5.246  0.4012 -0.1443  0.9668
 6615SOL    HW222992   5.268   3.966   5.287 -1.2379 -0.2474 -1.3239
 6616SOL     OW22993   0.305   0.462   3.176  0.1231  0.2893 -0.0268
 6616SOL    HW122994   0.228   0.495   3.223 -0.1359 -0.3726  0.0271
 6616SOL    HW222995   0.373   0.457   3.242 -0.2453 -0.6558  0.2965
 6617SOL     OW22996   3.250   6.056   6.239  0.8925  0.1134 -0.3766
 6617SOL    HW122997   3.192   6.117   6.193 -0.6659  0.2601  1.6340
 6617SOL    HW222998   3.326   6.109   6.261  0.1690  0.9856  0.1288
 6618SOL     OW22999   1.263   4.247   3.948  0.0236 -0.1952  0.2555
 6618SOL    HW123000   1.260   4.152   3.933 -1.6888 -0.0597 -0.4031
 6618SOL    HW223001   1.174   4.277   3.931  0.7452  1.6735 -0.4140
 6619SOL     OW23002   7.170   5.898   2.976  0.1061 -0.0164  0.7705
 6619SOL    HW123003   7.244   5.911   3.035  0.9065  0.9159 -0.4046
 6619SOL    HW223004   7.134   5.985   2.963  1.9035  0.3938 -2.5517
 6620SOL     OW23005   2.262   1.640   0.438 -0.1928  0.4628 -0.4251
 6620SOL    HW123006   2.207   1.616   0.363  1.0636 -1.2522 -0.8743
 6620SOL    HW223007   2.211   1.616   0.515 -0.3864 -0.4769 -0.8245
 6621SOL     OW23008   2.950   1.341   2.548  0.1032 -0.3900  0.2849
 6621SOL    HW123009   2.943   1.269   2.485 -2.1412 -0.5002  0.5901
 6621SOL    HW223010   2.958   1.297   2.633  0.7852 -0.2494  0.2987
 6622SOL     OW23011   1.520   0.692   6.244 -0.1331 -0.2494  0.5841
 6622SOL    HW123012   1.478   0.761   6.192 -0.1344 -0.9629 -0.3792
 6622SOL    HW223013   1.466   0.686   6.323  0.4271  1.5266  1.1665
 6623SOL     OW23014   5.008   5.864   7.424 -0.0942  0.1573  0.5101
 6623SOL    HW123015   5.067   5.792   7.445 -0.1120  0.1484  0.5282
 6623SOL    HW223016   5.004   5.864   7.328  1.2248  1.1661  0.4085
 6624SOL     OW23017   1.649   2.253   3.930 -0.3582 -0.1956 -0.4338
 6624SOL    HW123018   1.646   2.348   3.926  2.3495 -0.0153  0.1857
 6624SOL    HW223019   1.678   2.226   3.843  0.2236 -0.3653 -0.1874
 6625SOL     OW23020   3.345   0.445   6.347  0.0280  0.1495 -0.6423
 6625SOL    HW123021   3.298   0.442   6.430  0.2828  0.7529 -0.4662
 6625SOL    HW223022   3.337   0.357   6.311  1.1307 -0.5455  0.7086
 6626SOL     OW23023   4.544   3.762   3.665 -0.2117 -1.0776 -0.3686
 6626SOL    HW123024   4.631   3.793   3.688 -0.4913  0.0841 -0.8113
 6626SOL    HW223025   4.498   3.840   3.635 -1.5975 -1.5559  0.4159
 6627SOL     OW23026   3.133   2.077   0.484  0.1663 -0.0463  0.1245
 6627SOL    HW123027   3.158   2.018   0.414 -0.6106 -1.1376  0.7353
 6627SOL    HW223028   3.207   2.137   0.493  0.1656  0.2950 -1.7846
 6628SOL     OW23029   6.691   1.623   7.116 -0.0026 -0.1818  0.3146
 6628SOL    HW123030   6.650   1.639   7.201 -3.2518 -1.5174 -0.8778
 6628SOL    HW223031   6.674   1.531   7.098 -1.9387  0.7003 -2.9932
 6629SOL     OW23032   4.166   2.295   4.816  0.3633  0.4574  0.0193
 6629SOL    HW123033   4.109   2.240   4.763 -0.0978  0.6327  0.3281
 6629SOL    HW223034   4.192   2.239   4.890  1.0654  0.1887 -0.4213
 6630SOL     OW23035   0.626   5.474   3.455 -0.6848 -0.2560 -0.5815
 6630SOL    HW123036   0.694   5.533   3.488 -1.2424  0.3220 -0.4357
 6630SOL    HW223037   0.643   5.468   3.361 -1.6383  1.5427 -0.9079
 6631SOL     OW23038   1.142   6.957   2.983 -0.0762  0.0760  0.0793
 6631SOL    HW123039   1.190   7.039   2.978 -1.6499  1.1671  1.7507
 6631SOL    HW223040   1.208   6.892   3.004  1.1011  0.9835 -0.6753
 6632SOL     OW23041   6.944   1.435   3.006 -0.0759 -0.0111 -0.2510
 6632SOL    HW123042   6.992   1.516   3.022 -1.2069  0.2115  2.6279
 6632SOL    HW223043   7.005   1.365   3.033  0.1874 -0.0193 -0.8489
 6633SOL     OW23044   2.952   0.290   2.419 -0.0739 -1.0048 -0.8908
 6633SOL    HW123045   2.938   0.250   2.505 -1.9547 -0.0021 -0.6854
 6633SOL    HW223046   3.045   0.312   2.418 -0.2225 -0.0461  1.3510
 6634SOL     OW23047   3.995   0.842   5.025 -0.9629 -0.2256 -0.2039
 6634SOL    HW123048   4.013   0.934   5.008  1.1989 -0.4399  0.7241
 6634SOL    HW223049   3.950   0.841   5.109  0.8830 -0.1288  0.8155
 6635SOL     OW23050   0.346   4.238   5.639  0.2069 -0.5590  0.2057
 6635SOL    HW123051   0.252   4.219   5.636 -0.0131  0.5368 -0.6432
 6635SOL    HW223052   0.381   4.176   5.702 -0.6379 -2.8773 -1.4657
 6636SOL     OW23053   3.437   2.381   3.605 -0.0072 -0.0998 -0.2847
 6636SOL    HW123054   3.484   2.397   3.524 -0.0740 -0.7656 -0.4644
 6636SOL    HW223055   3.490   2.316   3.651  0.7365  1.2426  0.8349
 6637SOL     OW23056   6.462   2.905   1.629  0.4615 -0.4087 -0.3657
 6637SOL    HW123057   6.411   2.931   1.706 -1.2351  0.7345 -1.7831
 6637SOL    HW223058   6.551   2.893   1.661 -0.0136  0.9276  1.5989
 6638SOL     OW23059   3.306   7.046   6.924 -0.2240 -0.2427  0.2281
 6638SOL    HW123060   3.247   7.055   6.998 -1.2628  1.2648 -0.7177
 6638SOL    HW223061   3.261   7.091   6.852  2.6370  2.2904 -0.2029
 6639SOL     OW23062   1.614   0.581   8.062  0.0278  0.0118 -0.2526
 6639SOL    HW123063   1.656   0.609   7.981  0.7289  1.0180  0.4368
 6639SOL    HW223064   1.686   0.553   8.119 -0.4685 -0.8601 -0.0214
 6640SOL     OW23065   7.578   6.435   6.226  0.2094 -0.2693  0.4083
 6640SOL    HW123066   7.497   6.398   6.191  1.9548 -0.9028 -3.4605
 6640SOL    HW223067   7.586   6.520   6.184  1.2331  0.1275  1.3496
 6641SOL     OW23068   5.019   3.362   2.268 -0.0107 -0.1440 -0.2768
 6641SOL    HW123069   5.098   3.318   2.235 -1.1033 -0.9152 -2.0468
 6641SOL    HW223070   4.977   3.396   2.189 -2.3619 -1.3095  0.4122
 6642SOL     OW23071   7.108   2.555   7.575 -0.1168  0.0190 -0.4791
 6642SOL    HW123072   7.156   2.545   7.658  1.2585  0.5374 -1.1776
 6642SOL    HW223073   7.018   2.531   7.597 -0.0719  1.3720  1.4790
 6643SOL     OW23074   1.906   3.258   5.125 -0.8387  0.9479 -0.2132
 6643SOL    HW123075   1.964   3.284   5.196 -1.0889  1.0360 -0.0374
 6643SOL    HW223076   1.927   3.317   5.053  1.6303 -1.1411 -1.3289
 6644SOL     OW23077   3.248   7.946   4.019 -0.6127  0.4337 -0.3625
 6644SOL    HW123078   3.207   7.884   4.078 -1.8423  1.6343  0.0953
 6644SOL    HW223079   3.338   7.955   4.052 -0.5481 -0.7362 -0.1820
 6645SOL     OW23080   7.218   5.602   5.681  0.7104  0.0346  0.2184
 6645SOL    HW123081   7.141   5.612   5.626 -0.0756  0.4616  1.3671
 6645SOL    HW223082   7.287   5.649   5.634  0.3183 -0.4939 -0.8982
 6646SOL     OW23083   1.517   2.327   4.850 -0.2543 -0.1996 -0.1412
 6646SOL    HW123084   1.535   2.404   4.906 -0.9605  0.9657 -1.4608
 6646SOL    HW223085   1.563   2.346   4.768  0.4748 -1.7237 -0.1138
 6647SOL     OW23086   6.144   1.291   2.323 -0.0037 -0.0380  0.6581
 6647SOL    HW123087   6.195   1.252   2.253 -0.9951 -1.5471  0.7233
 6647SOL    HW223088   6.098   1.364   2.282 -0.2770 -0.6656 -0.1828
 6648SOL     OW23089   4.366   4.455   1.437  0.2979 -0.3292  0.1098
 6648SOL    HW123090   4.320   4.419   1.512 -0.5796 -0.6405 -0.5579
 6648SOL    HW223091   4.381   4.380   1.379  0.4063  0.0083 -0.3102
 6649SOL     OW23092   2.866   2.257   0.359  0.3464  0.0054 -0.1860
 6649SOL    HW123093   2.846   2.167   0.335  1.2135 -0.4873  0.8512
 6649SOL    HW223094   2.915   2.291   0.284  1.8314 -1.0722  0.2439
 6650SOL     OW23095   7.991   5.202   2.216 -0.3855 -0.1340  0.6503
 6650SOL    HW123096   7.994   5.178   2.309  0.6589 -3.7525 -0.1528
 6650SOL    HW223097   7.900   5.229   2.201 -0.7678 -0.2223  2.5462
 6651SOL     OW23098   2.753   1.170   0.123  0.4480 -0.0902  0.3560
 6651SOL    HW123099   2.793   1.209   0.200 -0.0235  1.0805  0.0238
 6651SOL    HW223100   2.826   1.138   0.071  0.7416 -2.8871  2.2334
 6652SOL     OW23101   5.935   1.703   1.967 -0.2883 -0.8198  0.1796
 6652SOL    HW123102   5.883   1.681   1.890  0.5807 -1.7382 -0.1654
 6652SOL    HW223103   5.871   1.735   2.031 -0.8963  0.9382 -1.2486
 6653SOL     OW23104   2.068   4.246   2.828 -0.4924 -0.4029 -0.3537
 6653SOL    HW123105   2.155   4.247   2.788  0.6821  3.3341  1.7989
 6653SOL    HW223106   2.054   4.155   2.851  3.5651 -1.0142  0.4968
 6654SOL     OW23107   6.140   1.288   7.851 -0.2912  0.0533 -0.1677
 6654SOL    HW123108   6.063   1.320   7.803 -1.9943  0.0762  2.4158
 6654SOL    HW223109   6.169   1.212   7.800 -1.6894  0.3400 -1.4936
 6655SOL     OW23110   2.340   1.504   5.540  0.1691  0.4244  0.1167
 6655SOL    HW123111   2.391   1.500   5.458 -1.4836  1.2764 -1.0176
 6655SOL    HW223112   2.361   1.422   5.585  2.3132  0.6283 -0.3934
 6656SOL     OW23113   1.275   3.120   6.346 -0.3324  0.7368 -0.1622
 6656SOL    HW123114   1.198   3.113   6.403 -0.7710 -0.8787 -0.8911
 6656SOL    HW223115   1.342   3.067   6.390 -0.3677  0.2910 -0.6310
 6657SOL     OW23116   3.653   3.328   2.320  0.1073 -0.4420 -0.4868
 6657SOL    HW123117   3.630   3.417   2.293  2.3107  0.1494 -0.6600
 6657SOL    HW223118   3.572   3.291   2.355 -0.7010  1.9015  0.3066
 6658SOL     OW23119   6.623   4.586   0.980  0.7721  0.2312 -0.1664
 6658SOL    HW123120   6.661   4.597   0.892 -0.3402 -0.9360 -0.8282
 6658SOL    HW223121   6.652   4.663   1.028 -0.6581  2.2523 -2.3119
 6659SOL     OW23122   3.681   1.742   3.951 -0.8496 -0.2390  0.1127
 6659SOL    HW123123   3.604   1.688   3.970 -0.6442 -0.2601  0.9140
 6659SOL    HW223124   3.754   1.680   3.950 -0.7055 -0.0710  0.3521
 6660SOL     OW23125   3.953   1.202   4.143  0.1232 -0.7199 -0.4194
 6660SOL    HW123126   3.890   1.268   4.117  0.7114 -0.0187 -0.1015
 6660SOL    HW223127   3.972   1.154   4.062  0.0646 -0.1765 -0.7590
 6661SOL     OW23128   6.037   1.178   6.781 -0.2016 -0.3731 -0.2907
 6661SOL    HW123129   6.074   1.230   6.709  1.0601  1.0177  1.2816
 6661SOL    HW223130   6.042   1.088   6.750 -1.5125  0.3081 -2.7167
 6662SOL     OW23131   2.413   3.572   5.513  0.1256 -0.8998 -0.2767
 6662SOL    HW123132   2.387   3.483   5.538  2.6042 -1.7140 -0.2821
 6662SOL    HW223133   2.495   3.560   5.466  0.4955  1.4126 -0.3292
 6663SOL     OW23134   1.809   3.465   4.591 -0.2422  0.1192  0.5964
 6663SOL    HW123135   1.870   3.529   4.626  0.5257 -0.5371  0.4924
 6663SOL    HW223136   1.731   3.473   4.645 -0.8186  2.3102 -0.4645
 6664SOL     OW23137   4.589   0.899   1.086  0.7647  0.4082  0.1465
 6664SOL    HW123138   4.515   0.925   1.030  1.1937 -0.6294 -0.9555
 6664SOL    HW223139   4.640   0.979   1.097  0.3314  0.7726 -0.4273
 6665SOL     OW23140   6.976   5.484   7.644  0.1063  0.3030  0.7676
 6665SOL    HW123141   7.039   5.555   7.630  1.3561 -0.4481  2.2621
 6665SOL    HW223142   7.008   5.412   7.590  0.9458 -0.2927  2.0171
 6666SOL     OW23143   4.517   1.442   7.000  0.4334 -0.5915 -0.5781
 6666SOL    HW123144   4.426   1.416   7.016  0.1079  0.4319 -0.7374
 6666SOL    HW223145   4.515   1.488   6.916  0.9136  0.3169 -0.1060
 6667SOL     OW23146   1.954   2.960   4.160  0.3887 -0.4565 -0.2107
 6667SOL    HW123147   1.896   3.002   4.224  0.0597  2.1187 -2.0325
 6667SOL    HW223148   1.959   2.869   4.189 -0.5864  0.3230  2.8162
 6668SOL     OW23149   2.224   5.955   5.673  0.2635 -0.2898  0.2454
 6668SOL    HW123150   2.175   5.980   5.594 -1.3862  0.7466  1.5236
 6668SOL    HW223151   2.312   5.933   5.641 -0.1817  0.6720 -1.7936
 6669SOL     OW23152   5.772   5.523   0.762 -0.6531 -0.3977  0.6253
 6669SOL    HW123153   5.707   5.536   0.692  0.1517 -1.1043 -0.2763
 6669SOL    HW223154   5.736   5.451   0.814 -0.1973 -1.4134 -0.4088
 6670SOL     OW23155   0.302   6.899   7.905  0.1581 -0.0874 -0.8008
 6670SOL    HW123156   0.353   6.824   7.875  1.8519  0.9438 -0.6693
 6670SOL    HW223157   0.320   6.967   7.840  1.9626  1.4340  1.1710
 6671SOL     OW23158   3.681   5.465   1.782 -0.2043 -0.0398  0.4498
 6671SOL    HW123159   3.645   5.548   1.750  0.7916  0.2934  0.1755
 6671SOL    HW223160   3.764   5.489   1.823  0.2335 -0.9421  0.1028
 6672SOL     OW23161   6.433   6.242   4.679  0.2670  0.5143 -0.7108
 6672SOL    HW123162   6.351   6.219   4.633 -0.1256 -1.1464  0.7364
 6672SOL    HW223163   6.404   6.271   4.765  1.1836  0.1657 -0.2791
 6673SOL     OW23164   3.466   1.762   7.849 -0.3080  0.6863 -0.2961
 6673SOL    HW123165   3.373   1.784   7.843 -0.4195  0.1002 -0.7320
 6673SOL    HW223166   3.471   1.671   7.822  0.2687  0.4184  0.6922
 6674SOL     OW23167   1.157   6.045   0.119 -0.0686  0.1009 -0.3992
 6674SOL    HW123168   1.102   5.966   0.119 -0.8451  0.6271  0.2191
 6674SOL    HW223169   1.187   6.053   0.209 -0.0361  0.5427 -0.4494
 6675SOL     OW23170   7.426   2.566   6.337 -0.0670 -0.8647  0.4471
 6675SOL    HW123171   7.498   2.555   6.275  1.1621 -0.1469  1.6793
 6675SOL    HW223172   7.407   2.660   6.336 -0.5136 -0.9512  0.6455
 6676SOL     OW23173   1.111   2.260   4.120  0.6257  0.2656  0.1750
 6676SOL    HW123174   1.206   2.252   4.130  0.6741 -0.6639 -0.8529
 6676SOL    HW223175   1.077   2.260   4.210  1.4356 -1.9280  0.5425
 6677SOL     OW23176   6.610   2.222   4.374 -0.3576  0.0660  0.2299
 6677SOL    HW123177   6.632   2.291   4.437  0.8397 -0.2370  0.1719
 6677SOL    HW223178   6.618   2.264   4.289  0.5488 -0.1586  0.1857
 6678SOL     OW23179   5.964   3.426   8.019 -0.2261 -0.2904  0.7576
 6678SOL    HW123180   5.961   3.521   8.006 -1.5666 -0.3238  0.6334
 6678SOL    HW223181   5.945   3.414   8.112  2.3636 -0.3647  1.3451
 6679SOL     OW23182   2.300   1.969   6.034  0.1313  0.0535  0.0329
 6679SOL    HW123183   2.262   1.900   5.980 -0.3166  0.2390  0.1033
 6679SOL    HW223184   2.377   1.998   5.985  0.1548 -0.2941 -0.1363
 6680SOL     OW23185   3.742   7.430   5.317 -0.0558  0.0982  0.4626
 6680SOL    HW123186   3.748   7.509   5.263  0.3057  0.8867  1.6038
 6680SOL    HW223187   3.718   7.462   5.404  2.8001 -0.6739  1.6830
 6681SOL     OW23188   2.631   2.998   7.787  0.3100 -0.0447  0.5598
 6681SOL    HW123189   2.584   3.073   7.750  2.2090  0.8386 -0.1662
 6681SOL    HW223190   2.712   2.993   7.737  0.3495 -2.4586  0.7714
 6682SOL     OW23191   1.702   6.954   1.093 -0.2194 -0.1255 -0.2337
 6682SOL    HW123192   1.765   6.954   1.020 -1.9653  1.2515 -1.8328
 6682SOL    HW223193   1.650   6.876   1.079  0.8654 -1.0915  0.9079
 6683SOL     OW23194   1.910   4.880   1.201  0.1163 -0.2609 -0.0657
 6683SOL    HW123195   1.909   4.893   1.106 -0.1545 -0.7437 -0.1354
 6683SOL    HW223196   1.826   4.837   1.220 -1.0902  2.2790  0.7793
 6684SOL     OW23197   6.635   7.846   5.258  0.4141  0.5800  0.2842
 6684SOL    HW123198   6.703   7.902   5.298  0.6117  0.1924  0.4928
 6684SOL    HW223199   6.609   7.787   5.328 -0.5024  1.0480  0.3495
 6685SOL     OW23200   6.557   2.101   5.891  0.2030 -0.3484 -0.5887
 6685SOL    HW123201   6.631   2.051   5.926  0.8405  1.9517  1.6769
 6685SOL    HW223202   6.482   2.072   5.942  0.1427 -0.5211 -0.7748
 6686SOL     OW23203   4.552   4.267   7.821  0.0921 -0.7493 -0.4410
 6686SOL    HW123204   4.607   4.190   7.835 -0.3431 -0.7255  1.7881
 6686SOL    HW223205   4.466   4.242   7.854 -0.4886  0.1875 -1.1706
 6687SOL     OW23206   7.497   4.642   7.569 -0.0190 -0.1588 -0.4633
 6687SOL    HW123207   7.550   4.609   7.641  0.7956  0.4562 -0.7646
 6687SOL    HW223208   7.557   4.695   7.516 -0.8921  0.4472 -0.8911
 6688SOL     OW23209   1.842   2.482   1.488 -0.1358  0.3598  0.0353
 6688SOL    HW123210   1.868   2.393   1.513  1.4464  0.6252 -0.5681
 6688SOL    HW223211   1.783   2.510   1.558 -0.6041 -1.1153  0.2763
 6689SOL     OW23212   4.751   4.903   7.404 -0.1273 -0.2714 -0.0435
 6689SOL    HW123213   4.748   4.959   7.327  2.1849 -0.8994 -0.6948
 6689SOL    HW223214   4.788   4.959   7.473  2.0823 -0.8471 -0.6665
 6690SOL     OW23215   6.215   5.278   6.887 -0.2965  0.1452  0.1193
 6690SOL    HW123216   6.140   5.271   6.829  0.0360 -1.2845 -0.1690
 6690SOL    HW223217   6.198   5.214   6.956  0.1169  0.6223  0.6763
 6691SOL     OW23218   3.751   5.578   6.685  0.4671  0.3984 -0.2427
 6691SOL    HW123219   3.823   5.598   6.746  0.3577  0.8130 -0.2455
 6691SOL    HW223220   3.750   5.652   6.624 -0.1712  0.5645 -0.0453
 6692SOL     OW23221   0.722   2.553   3.652 -0.0716  0.6443 -0.2487
 6692SOL    HW123222   0.756   2.520   3.736  0.4560  2.4033  0.2797
 6692SOL    HW223223   0.799   2.555   3.595 -0.4180 -0.4824 -0.7866
 6693SOL     OW23224   2.164   2.397   4.657 -0.4121 -0.1533 -0.5572
 6693SOL    HW123225   2.083   2.447   4.650 -0.2807  0.2185  0.3465
 6693SOL    HW223226   2.215   2.424   4.581 -1.1783 -0.4799 -1.1959
 6694SOL     OW23227   1.590   3.817   6.057  0.4330  0.3350 -0.5488
 6694SOL    HW123228   1.656   3.857   6.001 -0.7148  3.2431 -0.0104
 6694SOL    HW223229   1.509   3.864   6.036 -0.5121 -0.0568  1.8937
 6695SOL     OW23230   0.106   4.859   6.712  0.0117  0.1037  0.5901
 6695SOL    HW123231   0.191   4.903   6.715  0.0732  0.2098 -1.3538
 6695SOL    HW223232   0.126   4.770   6.684 -0.5144  0.1548  0.0266
 6696SOL     OW23233   5.050   4.246   2.999 -0.1551  0.7566 -0.8382
 6696SOL    HW123234   4.971   4.259   2.946 -0.8412 -0.2344 -0.0960
 6696SOL    HW223235   5.109   4.315   2.971 -1.7073  2.2570 -0.5793
 6697SOL     OW23236   6.521   3.298   3.711 -0.1275  0.8100 -0.2053
 6697SOL    HW123237   6.608   3.273   3.682 -0.3625 -0.3629  0.0322
 6697SOL    HW223238   6.474   3.319   3.630 -0.5283 -1.6133 -0.6855
 6698SOL     OW23239   6.349   3.816   1.555  0.0993 -0.5646 -0.1162
 6698SOL    HW123240   6.399   3.895   1.574 -0.6727  0.6264 -2.5645
 6698SOL    HW223241   6.263   3.849   1.528 -0.5111 -2.2953 -0.3896
 6699SOL     OW23242   4.648   2.551   3.934 -0.1982  0.1537 -0.2871
 6699SOL    HW123243   4.739   2.582   3.944 -0.6567  1.0357  1.6491
 6699SOL    HW223244   4.628   2.508   4.017 -1.3332 -0.7003 -0.9767
 6700SOL     OW23245   1.200   0.496   2.980 -0.2963 -0.2725  0.2536
 6700SOL    HW123246   1.141   0.433   2.940 -1.0567  0.0933  0.7785
 6700SOL    HW223247   1.170   0.581   2.949  0.0334 -0.0891  0.4275
 6701SOL     OW23248   2.437   0.029   3.227  0.1743 -0.1943 -0.4462
 6701SOL    HW123249   2.468   0.100   3.283  0.9030 -0.1581 -0.8751
 6701SOL    HW223250   2.492  -0.046   3.249 -2.4283 -1.5540  2.0634
 6702SOL     OW23251   6.651   4.847   5.362  0.4284  0.4782 -0.5295
 6702SOL    HW123252   6.744   4.830   5.378  0.4440 -1.8200 -2.5526
 6702SOL    HW223253   6.613   4.762   5.342 -2.3418  1.2295  0.9196
 6703SOL     OW23254   8.005   0.023   2.858  0.2946 -0.0212 -0.7132
 6703SOL    HW123255   7.913   0.040   2.840  0.1805  0.4088  0.2339
 6703SOL    HW223256   8.048   0.108   2.851  0.5875 -0.1825 -0.9380
 6704SOL     OW23257   0.307   0.952   0.731 -0.2152  0.3359  0.2253
 6704SOL    HW123258   0.388   0.909   0.759 -1.0526 -1.6799 -0.3323
 6704SOL    HW223259   0.331   0.997   0.650  0.6252  0.7968  0.7144
 6705SOL     OW23260   0.444   1.519   0.429  0.6131 -0.0217  0.0618
 6705SOL    HW123261   0.519   1.567   0.464  0.6634 -0.5731  0.7203
 6705SOL    HW223262   0.417   1.460   0.500 -1.9097  1.7842  0.7728
 6706SOL     OW23263   2.843   7.565   0.292 -0.2039  0.1732 -0.0422
 6706SOL    HW123264   2.755   7.599   0.308  0.6110  1.8640  1.0472
 6706SOL    HW223265   2.873   7.614   0.215 -0.4086 -0.8312 -0.7819
 6707SOL     OW23266   6.613   8.096   1.443  0.2867 -0.1564  0.4110
 6707SOL    HW123267   6.579   8.008   1.427 -0.3860  0.0408  0.7193
 6707SOL    HW223268   6.581   8.119   1.530  0.5108  0.3666  0.3601
 6708SOL     OW23269   1.356   2.425   0.983  0.0477  0.2621 -0.2516
 6708SOL    HW123270   1.372   2.445   1.076  0.4026  0.2708 -0.3149
 6708SOL    HW223271   1.267   2.389   0.982  0.0696  0.1874  0.1035
 6709SOL     OW23272   1.448   1.929   4.642  0.1254 -0.0364 -0.2302
 6709SOL    HW123273   1.361   1.969   4.644  0.2886  0.2975  0.5694
 6709SOL    HW223274   1.477   1.931   4.733  0.8511 -0.4144 -0.4486
 6710SOL     OW23275   2.731   7.148   5.725 -0.4224 -0.2567 -0.7008
 6710SOL    HW123276   2.691   7.178   5.643 -1.4001  0.3608 -0.0220
 6710SOL    HW223277   2.824   7.167   5.714 -0.5950  0.2166 -1.5023
 6711SOL     OW23278   7.874   0.127   3.235 -0.1075 -0.2600 -0.6274
 6711SOL    HW123279   7.940   0.196   3.223 -0.2573 -0.2701 -1.5842
 6711SOL    HW223280   7.806   0.169   3.288 -0.1192  0.2889 -1.0589
 6712SOL     OW23281   6.503   1.258   7.929 -0.2105  0.2438  0.5311
 6712SOL    HW123282   6.465   1.329   7.980  0.0147 -0.3044  1.4868
 6712SOL    HW223283   6.566   1.302   7.871 -0.6287  0.8994  0.5652
 6713SOL     OW23284   2.039   1.712   1.687 -0.6433  0.6845 -0.4575
 6713SOL    HW123285   2.084   1.700   1.604 -1.5026  3.4510 -1.4500
 6713SOL    HW223286   1.993   1.630   1.702  1.4489 -0.7479 -1.4302
 6714SOL     OW23287   7.176   5.807   3.549  0.1439  0.2513  0.2358
 6714SOL    HW123288   7.254   5.797   3.604  0.3837  0.8904  0.0226
 6714SOL    HW223289   7.127   5.878   3.590  1.7321  2.7908 -1.9112
 6715SOL     OW23290   2.912   0.968   4.575 -0.1595  0.6269  0.1468
 6715SOL    HW123291   2.939   0.972   4.667  2.4963  1.5096 -0.5664
 6715SOL    HW223292   2.960   1.039   4.533 -1.3134  0.2596 -1.9489
 6716SOL     OW23293   6.395   2.448   7.744  0.7639 -0.4465 -0.2401
 6716SOL    HW123294   6.337   2.474   7.815  0.4904 -2.6991  0.4085
 6716SOL    HW223295   6.364   2.499   7.669 -2.2377 -1.6725  0.0144
 6717SOL     OW23296   5.177   6.250   7.653 -0.2181 -0.3701  0.5873
 6717SOL    HW123297   5.087   6.256   7.619 -1.3786 -1.7444  3.1204
 6717SOL    HW223298   5.195   6.156   7.654  0.9252 -0.1551  0.8821
 6718SOL     OW23299   4.233   7.776   7.913 -0.4537 -0.2772 -0.1640
 6718SOL    HW123300   4.315   7.748   7.954 -0.1951  0.8252  0.0895
 6718SOL    HW223301   4.169   7.769   7.984  0.0692  2.0145  0.6192
 6719SOL     OW23302   0.981   6.247   3.111 -0.3442 -0.2794  0.1520
 6719SOL    HW123303   0.897   6.265   3.154 -0.2598  1.6224 -0.4114
 6719SOL    HW223304   1.009   6.331   3.076  0.8242 -1.2666 -1.4488
 6720SOL     OW23305   6.389   5.667   2.936 -0.2642 -0.4347 -0.0677
 6720SOL    HW123306   6.428   5.672   2.849 -1.4545 -1.6886 -0.7271
 6720SOL    HW223307   6.301   5.632   2.920 -1.2351  1.1463  1.4531
 6721SOL     OW23308   1.610   6.563   6.593 -0.3904  0.0781 -0.0761
 6721SOL    HW123309   1.543   6.495   6.595 -0.2308 -0.0640  1.1494
 6721SOL    HW223310   1.682   6.523   6.543 -0.6613 -0.3003 -0.1712
 6722SOL     OW23311   0.821   1.907   1.055 -0.3187  0.6447  0.0299
 6722SOL    HW123312   0.839   1.937   1.144 -0.2241  1.6993 -0.3281
 6722SOL    HW223313   0.793   1.816   1.065 -0.0036  0.6561  1.1011
 6723SOL     OW23314   6.442   2.042   1.770 -0.0395  0.1805  0.0113
 6723SOL    HW123315   6.446   2.072   1.860 -0.3622  0.1531  0.0362
 6723SOL    HW223316   6.413   2.118   1.720  0.5632  0.3185 -0.1323
 6724SOL     OW23317   3.584   7.556   7.591 -0.0138  0.0107  0.5341
 6724SOL    HW123318   3.664   7.586   7.548 -0.4467  1.5838  0.7477
 6724SOL    HW223319   3.607   7.550   7.684 -0.2421  0.9407  0.6663
 6725SOL     OW23320   4.690   7.193   3.785  0.7551 -0.6469  0.2642
 6725SOL    HW123321   4.708   7.108   3.745  2.5834  0.3477 -1.1733
 6725SOL    HW223322   4.736   7.256   3.729  1.7486  1.0539  2.8300
 6726SOL     OW23323   1.422   5.968   7.126 -0.5979 -0.4299 -0.7197
 6726SOL    HW123324   1.335   5.928   7.128 -0.7534 -0.1328 -1.3131
 6726SOL    HW223325   1.454   5.961   7.216 -0.3334 -2.4812 -0.9397
 6727SOL     OW23326   1.065   7.247   3.563  0.1236  0.7022  0.3845
 6727SOL    HW123327   0.979   7.207   3.550  0.7989 -0.4262 -0.9862
 6727SOL    HW223328   1.100   7.204   3.641 -0.2671  0.6288  0.5196
 6728SOL     OW23329   7.651   4.982   6.352  0.0519  0.3705 -0.7857
 6728SOL    HW123330   7.672   4.933   6.432  0.5711 -0.7487 -1.5685
 6728SOL    HW223331   7.735   5.020   6.325 -0.0415  0.4209 -1.0063
 6729SOL     OW23332   3.911   5.292   3.036  0.1257  0.6515 -0.1875
 6729SOL    HW123333   3.925   5.197   3.032  0.1264  0.6977 -1.8161
 6729SOL    HW223334   3.946   5.317   3.122 -0.0873 -0.8445  0.3776
 6730SOL     OW23335   1.332   4.132   2.889  0.1484 -1.1168  0.1620
 6730SOL    HW123336   1.325   4.223   2.918  1.5144 -1.4544  1.7231
 6730SOL    HW223337   1.268   4.085   2.943  0.6605 -1.3237  0.5970
 6731SOL     OW23338   1.538   2.878   3.591  0.1109 -0.9799 -0.7757
 6731SOL    HW123339   1.458   2.915   3.555 -0.2974 -2.7518 -1.7916
 6731SOL    HW223340   1.515   2.851   3.680 -0.5498 -1.7862 -1.1780
 6732SOL     OW23341   4.127   0.300   6.478  0.2120  0.5094 -0.2537
 6732SOL    HW123342   4.033   0.317   6.487 -0.0364 -1.4436  1.5358
 6732SOL    HW223343   4.169   0.380   6.511 -0.8315  0.5625  1.0385
 6733SOL     OW23344   1.741   7.449   1.869  0.4642  0.7302  0.2118
 6733SOL    HW123345   1.709   7.373   1.918  0.6327  0.5129 -0.0160
 6733SOL    HW223346   1.727   7.523   1.929  0.0037  0.5697  0.3119
 6734SOL     OW23347   6.567   2.380   4.593  0.4976 -0.4856  0.1927
 6734SOL    HW123348   6.634   2.429   4.642  0.0756 -1.2331  1.5442
 6734SOL    HW223349   6.555   2.299   4.642 -0.7852 -0.7469 -0.5103
 6735SOL     OW23350   5.878   0.049   3.115  0.0630 -0.2470  0.0949
 6735SOL    HW123351   5.869   0.122   3.054 -0.4631  1.3219  1.9698
 6735SOL    HW223352   5.955   0.070   3.167 -1.1803  0.0113  1.9369
 6736SOL     OW23353   3.139   0.751   1.634 -0.0648  0.4651 -0.3845
 6736SOL    HW123354   3.085   0.787   1.564  0.2168 -0.0977 -0.8979
 6736SOL    HW223355   3.192   0.683   1.592 -0.0044  0.0105  0.4031
 6737SOL     OW23356   4.510   3.027   0.647  0.1993  0.4474  0.4460
 6737SOL    HW123357   4.571   2.953   0.639  1.4834  1.2768  2.1000
 6737SOL    HW223358   4.470   3.034   0.560  1.7359 -0.7518 -0.4132
 6738SOL     OW23359   7.738   7.850   5.691 -0.7414 -0.2122 -0.1988
 6738SOL    HW123360   7.818   7.834   5.742 -0.0561 -0.4938 -1.3339
 6738SOL    HW223361   7.676   7.784   5.724 -0.8584  0.6386  1.3759
 6739SOL     OW23362   8.059   1.606   5.264  0.7170  0.2186 -0.2409
 6739SOL    HW123363   8.035   1.525   5.220  0.7911  1.2483 -2.3077
 6739SOL    HW223364   8.137   1.585   5.314 -1.2892 -1.8633  2.2945
 6740SOL     OW23365   6.302   2.567   6.057 -0.0789  0.2961 -0.1272
 6740SOL    HW123366   6.215   2.533   6.078  0.0453  0.2092  0.2657
 6740SOL    HW223367   6.348   2.493   6.018  0.5289 -0.3192  1.6663
 6741SOL     OW23368   0.158   3.391   3.929 -0.3609 -0.3141 -0.5989
 6741SOL    HW123369   0.116   3.457   3.984 -1.2214 -0.2867 -1.2646
 6741SOL    HW223370   0.098   3.379   3.856 -0.2103 -1.8255 -0.5037
 6742SOL     OW23371   3.172   3.538   2.270  0.7110 -0.1002 -0.2396
 6742SOL    HW123372   3.238   3.523   2.202  2.0463  1.7604  0.5390
 6742SOL    HW223373   3.095   3.567   2.222  0.8431 -1.1002 -1.1002
 6743SOL     OW23374   1.870   6.373   1.113  0.2354 -0.4103 -0.0157
 6743SOL    HW123375   1.840   6.284   1.133  0.4740 -0.4744  0.0589
 6743SOL    HW223376   1.795   6.429   1.136  0.2800 -0.5434  0.4538
 6744SOL     OW23377   1.132   6.012   0.442 -0.1169  0.3219 -0.1465
 6744SOL    HW123378   1.201   6.077   0.426 -0.1428  0.2768 -0.4469
 6744SOL    HW223379   1.180   5.932   0.464 -0.0650  0.2263 -0.5956
 6745SOL     OW23380   7.275   1.022   0.001 -0.2156 -0.4661 -0.6659
 6745SOL    HW123381   7.237   1.108   0.016  0.2924  0.4540 -3.9465
 6745SOL    HW223382   7.200   0.963  -0.007 -0.5870 -0.2428  0.9507
 6746SOL     OW23383   5.137   1.754   5.257 -0.2733  0.1977 -0.1303
 6746SOL    HW123384   5.169   1.671   5.222  1.1840  0.3995  0.6733
 6746SOL    HW223385   5.041   1.746   5.252 -0.1553 -1.2037 -0.7843
 6747SOL     OW23386   6.851   5.561   1.525  0.1173 -0.2222 -0.2552
 6747SOL    HW123387   6.902   5.609   1.590 -0.1635  0.4744 -0.5422
 6747SOL    HW223388   6.797   5.502   1.577  1.4598 -1.2467  0.0436
 6748SOL     OW23389   0.229   5.234   1.390 -0.2300 -0.1550  0.1437
 6748SOL    HW123390   0.272   5.172   1.449 -0.1437 -0.0760  0.1635
 6748SOL    HW223391   0.136   5.214   1.398 -0.3226  0.5722  1.1396
 6749SOL     OW23392   1.069   1.036   0.287 -0.2668 -0.2977 -0.0312
 6749SOL    HW123393   1.058   0.988   0.369  1.3778 -0.1330  0.3077
 6749SOL    HW223394   0.987   1.020   0.239 -1.9146  0.8170  2.2427
 6750SOL     OW23395   1.336   7.405   1.915 -0.0174  0.3083 -0.3295
 6750SOL    HW123396   1.323   7.456   1.995 -0.4761  0.7740 -0.6948
 6750SOL    HW223397   1.251   7.404   1.872 -0.4233 -1.9874  0.3550
 6751SOL     OW23398   5.208   7.673   7.765  0.3307 -0.0157  0.6742
 6751SOL    HW123399   5.182   7.592   7.809  2.0222 -0.3683  1.1253
 6751SOL    HW223400   5.162   7.742   7.813 -0.1653 -0.6272  1.0926
 6752SOL     OW23401   5.268   7.603   0.215  0.2634 -0.1483 -0.3179
 6752SOL    HW123402   5.302   7.520   0.247  1.1193  0.8892  1.6668
 6752SOL    HW223403   5.339   7.638   0.160  0.1059 -0.5001 -0.7476
 6753SOL     OW23404   7.450   0.042   0.124  0.7654 -0.3689 -0.5342
 6753SOL    HW123405   7.517   0.108   0.103 -1.2971  1.4155 -1.8978
 6753SOL    HW223406   7.438  -0.007   0.043 -0.1833 -0.0659 -0.5901
 6754SOL     OW23407   5.705   0.684   2.794 -0.1263  0.2699 -0.4807
 6754SOL    HW123408   5.614   0.655   2.790 -0.1463  0.4158 -1.1950
 6754SOL    HW223409   5.705   0.769   2.749  0.7261 -0.6955 -2.4067
 6755SOL     OW23410   4.382   7.693   2.936 -0.2218  0.0105  0.5004
 6755SOL    HW123411   4.422   7.694   3.023 -1.3271 -2.0968  1.0911
 6755SOL    HW223412   4.290   7.673   2.952 -0.3327 -1.0234 -1.1793
 6756SOL     OW23413   0.649   6.310   1.691 -0.4162 -0.2295  0.3386
 6756SOL    HW123414   0.560   6.276   1.682 -0.0401 -1.5419  1.3117
 6756SOL    HW223415   0.696   6.274   1.616 -0.8694  1.1225 -0.6288
 6757SOL     OW23416   0.622   3.346   4.956  0.2378  0.0671  0.0879
 6757SOL    HW123417   0.664   3.386   5.032 -3.9589  1.4682  1.9879
 6757SOL    HW223418   0.580   3.267   4.989  0.9225 -1.0838 -1.6107
 6758SOL     OW23419   5.759   3.536   7.117  0.4114  0.1721  0.3871
 6758SOL    HW123420   5.664   3.530   7.122  0.4900 -0.3038  1.7768
 6758SOL    HW223421   5.783   3.480   7.044 -0.2191 -1.8890  1.6675
 6759SOL     OW23422   5.103   5.877   1.362  0.2088 -0.5386 -0.1843
 6759SOL    HW123423   5.011   5.853   1.353  0.2009 -0.0431 -1.7924
 6759SOL    HW223424   5.129   5.842   1.447 -1.6730  0.0414  0.6798
 6760SOL     OW23425   2.652   5.089   7.885  0.2630  0.6049 -0.2821
 6760SOL    HW123426   2.622   5.074   7.795 -0.3250  0.9595 -0.1541
 6760SOL    HW223427   2.738   5.049   7.889 -0.9253 -2.1179 -0.1491
 6761SOL     OW23428   0.693   0.321   2.133  0.6491  0.1751  0.0101
 6761SOL    HW123429   0.764   0.317   2.069  0.4826  1.1625 -0.2586
 6761SOL    HW223430   0.632   0.252   2.107  0.3208  0.9010 -1.2305
 6762SOL     OW23431   5.670   3.361   5.863 -0.0147 -0.0299 -0.1280
 6762SOL    HW123432   5.626   3.444   5.878 -2.4170 -1.3391  0.4442
 6762SOL    HW223433   5.628   3.325   5.785 -1.5216 -2.2508  1.6054
 6763SOL     OW23434   2.691   2.560   4.487  0.3376  0.1864 -0.1895
 6763SOL    HW123435   2.652   2.473   4.478  0.7801  0.0996 -1.4770
 6763SOL    HW223436   2.629   2.619   4.444 -0.1671  0.5851  1.0528
 6764SOL     OW23437   0.425   7.436   7.636 -0.1313 -0.1506  0.2991
 6764SOL    HW123438   0.422   7.358   7.579  1.0968  0.3560 -0.5009
 6764SOL    HW223439   0.448   7.402   7.722  0.1422 -0.7003  0.0139
 6765SOL     OW23440   3.474   4.324   7.561  0.1290 -0.4286 -0.4176
 6765SOL    HW123441   3.455   4.337   7.468  0.3091  0.3585 -0.3467
 6765SOL    HW223442   3.562   4.359   7.573  0.3389 -1.0601 -0.0614
 6766SOL     OW23443   3.850   2.724   1.311  0.0215  0.4740 -0.3181
 6766SOL    HW123444   3.909   2.650   1.291  1.3222  1.4678 -0.3229
 6766SOL    HW223445   3.771   2.706   1.261  0.3969 -0.8133 -0.4892
 6767SOL     OW23446   2.690   5.621   2.808  0.4895  0.0488 -0.3337
 6767SOL    HW123447   2.632   5.613   2.884  0.1467 -1.4309 -0.7032
 6767SOL    HW223448   2.689   5.533   2.768 -0.4447  1.0878 -2.8412
 6768SOL     OW23449   4.135   4.554   3.929 -0.2934  0.2228 -0.6910
 6768SOL    HW123450   4.162   4.524   3.842  0.6672 -0.1940 -0.2614
 6768SOL    HW223451   4.212   4.600   3.963 -0.7291  0.5442 -0.1283
 6769SOL     OW23452   0.270   0.237   0.217  0.3103 -0.6597  0.2767
 6769SOL    HW123453   0.206   0.185   0.168  0.1401 -0.6822  0.5200
 6769SOL    HW223454   0.322   0.281   0.150 -0.0391 -0.5464  0.0779
 6770SOL     OW23455   3.800   6.326   0.601  0.1716 -0.3490  0.3301
 6770SOL    HW123456   3.867   6.383   0.563 -0.3306 -0.3225 -0.5433
 6770SOL    HW223457   3.836   6.238   0.593  0.7134 -0.2183  1.1843
 6771SOL     OW23458   5.594   2.177   0.265  0.5701  0.2874  0.4800
 6771SOL    HW123459   5.534   2.169   0.339  1.4266  0.1917  1.1791
 6771SOL    HW223460   5.538   2.203   0.192 -0.1937  1.0498  1.3058
 6772SOL     OW23461   1.152   1.891   0.178 -0.0997 -0.3437 -0.4486
 6772SOL    HW123462   1.087   1.825   0.203 -0.3761 -0.3498 -1.1337
 6772SOL    HW223463   1.226   1.840   0.144 -0.5710 -0.3152 -1.5859
 6773SOL     OW23464   2.852   2.147   4.002 -0.1098 -0.0942 -0.4173
 6773SOL    HW123465   2.923   2.110   3.949  0.2348  0.5418 -0.4185
 6773SOL    HW223466   2.896   2.210   4.059 -0.5254 -0.5381  0.3977
 6774SOL     OW23467   6.977   3.437   0.628 -0.0164 -0.0855  0.0886
 6774SOL    HW123468   7.037   3.424   0.554 -1.8261 -0.9420 -1.2846
 6774SOL    HW223469   6.917   3.506   0.599 -1.9819 -1.7872 -0.0935
 6775SOL     OW23470   7.017   1.385   1.461 -0.4584  0.1119  0.6584
 6775SOL    HW123471   7.023   1.469   1.415  0.3734 -1.1631 -1.7357
 6775SOL    HW223472   6.924   1.374   1.480 -0.5851  1.5074  0.9082
 6776SOL     OW23473   7.717   7.094   0.660 -0.0203  0.2125  0.0486
 6776SOL    HW123474   7.806   7.060   0.646  0.4557  1.5709 -0.4201
 6776SOL    HW223475   7.727   7.161   0.727 -0.4325  1.3484 -0.9856
 6777SOL     OW23476   3.349   1.202   5.166 -0.5118 -0.2340  0.0253
 6777SOL    HW123477   3.443   1.204   5.183 -0.6123  2.1177  0.6636
 6777SOL    HW223478   3.341   1.168   5.077  0.8747 -1.0451  0.1821
 6778SOL     OW23479   7.389   6.747   7.818  0.4239  0.2801  0.2342
 6778SOL    HW123480   7.431   6.825   7.855  2.1003 -0.3091 -0.3389
 6778SOL    HW223481   7.431   6.674   7.863 -1.0615 -0.3257  0.6926
 6779SOL     OW23482   6.042   4.701   4.614  0.7181  0.4221  0.1023
 6779SOL    HW123483   6.065   4.686   4.706 -2.8892 -0.1005  1.0828
 6779SOL    HW223484   5.946   4.694   4.612  0.6952 -0.7922 -3.9282
 6780SOL     OW23485   2.136   7.553   6.314 -0.6111 -0.5683  0.8359
 6780SOL    HW123486   2.147   7.499   6.236 -3.0313 -0.2887  0.2317
 6780SOL    HW223487   2.103   7.492   6.381 -1.7354 -0.1972  0.6389
 6781SOL     OW23488   1.962   2.400   7.662  0.1381  0.4443  0.6880
 6781SOL    HW123489   1.869   2.378   7.675 -0.1475  0.4986 -1.0186
 6781SOL    HW223490   1.995   2.416   7.750 -1.5236  0.6030  1.3239
 6782SOL     OW23491   6.019   0.082   5.969  0.4347 -0.1748 -0.2104
 6782SOL    HW123492   6.064   0.042   5.895 -0.6752 -0.0227 -0.9947
 6782SOL    HW223493   5.989   0.008   6.022  0.5654 -0.3072 -0.3205
 6783SOL     OW23494   1.167   5.123   6.115 -0.1566  1.2062  0.3039
 6783SOL    HW123495   1.108   5.186   6.074 -0.1803  0.5714 -0.6901
 6783SOL    HW223496   1.253   5.144   6.080 -0.1102  0.9194  0.2413
 6784SOL     OW23497   0.369   1.830   6.396 -0.2561  0.0349  0.7582
 6784SOL    HW123498   0.330   1.820   6.309 -1.6323 -1.4065  1.4970
 6784SOL    HW223499   0.362   1.924   6.415  0.3886  0.4333 -0.7953
 6785SOL     OW23500   1.218   4.023   1.507 -0.6144  0.0301  0.4006
 6785SOL    HW123501   1.309   4.016   1.479 -0.7416  0.7929 -0.2498
 6785SOL    HW223502   1.194   3.936   1.538  0.6965  0.1007  1.6940
 6786SOL     OW23503   4.913   0.517   5.378  0.3697 -0.1959 -0.2496
 6786SOL    HW123504   4.994   0.556   5.410 -0.1704  1.7369 -1.1165
 6786SOL    HW223505   4.890   0.569   5.301 -2.4985  0.3180  0.8461
 6787SOL     OW23506   4.908   6.321   6.176  0.3107  0.7128  0.2711
 6787SOL    HW123507   4.984   6.301   6.122  0.7883  0.3943  1.0585
 6787SOL    HW223508   4.904   6.417   6.178  0.0774  0.7326 -0.6086
 6788SOL     OW23509   2.467   3.754   4.285 -0.0587  0.2638 -0.5510
 6788SOL    HW123510   2.545   3.717   4.326 -0.8987 -0.9817 -0.0182
 6788SOL    HW223511   2.498   3.833   4.242  1.5060 -0.2342 -0.3979
 6789SOL     OW23512   1.503   5.722   1.527  0.4401 -0.5803 -0.0174
 6789SOL    HW123513   1.562   5.704   1.601  0.5518  0.5537  0.1781
 6789SOL    HW223514   1.519   5.813   1.505 -0.8334 -0.4201 -0.3397
 6790SOL     OW23515   2.728   0.742   7.778  0.5748  0.2427 -0.3660
 6790SOL    HW123516   2.726   0.745   7.874  2.2000 -0.4033 -0.2746
 6790SOL    HW223517   2.783   0.666   7.758 -0.0282  0.1616 -1.8245
 6791SOL     OW23518   3.330   7.824   0.621 -0.1426  0.0451 -0.3719
 6791SOL    HW123519   3.324   7.918   0.605  1.5457  0.0697 -1.1040
 6791SOL    HW223520   3.404   7.796   0.567 -0.4382 -1.6581  0.0614
 6792SOL     OW23521   6.072   0.943   6.368 -0.3249  0.3647  0.0779
 6792SOL    HW123522   6.138   0.911   6.306  0.0664  1.0493  0.1308
 6792SOL    HW223523   5.991   0.900   6.340  0.0880 -0.2900 -0.1437
 6793SOL     OW23524   0.627   3.761   4.008 -0.3518  0.0231 -0.1688
 6793SOL    HW123525   0.593   3.827   3.948  0.9674  1.4071  0.5162
 6793SOL    HW223526   0.721   3.780   4.013 -0.1513 -1.1456  0.9972
 6794SOL     OW23527   7.196   3.363   1.876  0.0866  0.2202 -0.2003
 6794SOL    HW123528   7.211   3.455   1.857 -2.2341  1.2708  2.4955
 6794SOL    HW223529   7.107   3.345   1.845  0.3562 -1.0306 -0.3331
 6795SOL     OW23530   2.776   5.232   6.378  0.1442 -0.2576  0.2432
 6795SOL    HW123531   2.780   5.137   6.364  0.0418 -0.7826  3.2377
 6795SOL    HW223532   2.684   5.254   6.362  0.4329 -0.3669 -1.8017
 6796SOL     OW23533   7.278   6.941   0.736  0.2215 -0.4742  0.0601
 6796SOL    HW123534   7.188   6.970   0.754  0.6998  0.3305  1.3198
 6796SOL    HW223535   7.301   6.887   0.811  1.5171  1.1211  0.8816
 6797SOL     OW23536   5.109   0.870   4.000  0.1584  0.1012 -0.3876
 6797SOL    HW123537   5.180   0.880   4.063  0.5135 -0.5477 -0.6716
 6797SOL    HW223538   5.076   0.781   4.015  0.0429  0.0553 -0.9046
 6798SOL     OW23539   4.755   5.030   6.839  0.3966 -0.3645 -0.0077
 6798SOL    HW123540   4.667   5.067   6.835  0.4390 -0.1512  0.8671
 6798SOL    HW223541   4.807   5.088   6.783  0.1812  0.1045  0.2666
 6799SOL     OW23542   6.284   7.281   6.510 -0.6973 -0.0168 -0.3446
 6799SOL    HW123543   6.264   7.295   6.417  0.1872  1.1575 -0.3800
 6799SOL    HW223544   6.227   7.342   6.556 -2.7684 -2.1128  0.0970
 6800SOL     OW23545   6.756   5.468   2.488  0.2039 -0.2382  0.1621
 6800SOL    HW123546   6.765   5.429   2.402 -0.1847 -0.0806  0.0478
 6800SOL    HW223547   6.829   5.528   2.496  1.1748 -1.4286  0.5845
 6801SOL     OW23548   0.764   4.634   1.915  0.2103 -0.5672 -0.2552
 6801SOL    HW123549   0.736   4.707   1.970  2.4170 -1.2001  1.8944
 6801SOL    HW223550   0.829   4.672   1.856 -1.0431 -0.1953 -1.4416
 6802SOL     OW23551   2.483   7.885   1.804 -0.0549  0.6539 -0.0637
 6802SOL    HW123552   2.425   7.937   1.860 -0.9806 -0.3706 -0.0353
 6802SOL    HW223553   2.533   7.950   1.754 -1.1218  1.5600  0.0121
 6803SOL     OW23554   3.303   3.794   5.716  0.1826  0.1892  0.5965
 6803SOL    HW123555   3.310   3.887   5.694 -0.2002  0.1621  0.3465
 6803SOL    HW223556   3.260   3.754   5.640 -0.1793 -0.0900  0.9397
 6804SOL     OW23557   6.349   5.381   2.623  0.5489 -0.0724 -0.4937
 6804SOL    HW123558   6.304   5.325   2.686  2.1664  1.7125  2.4735
 6804SOL    HW223559   6.286   5.450   2.603 -0.3629 -1.2219 -1.8155
 6805SOL     OW23560   0.193   3.007   1.861  0.2161 -0.1939  0.0852
 6805SOL    HW123561   0.181   3.079   1.799  3.3425 -0.7011 -1.3077
 6805SOL    HW223562   0.182   3.047   1.947 -1.6854  1.0933 -0.6943
 6806SOL     OW23563   4.711   2.512   6.033  1.2809  0.4771  0.0660
 6806SOL    HW123564   4.775   2.474   5.973 -0.2819  0.9533 -2.0388
 6806SOL    HW223565   4.729   2.471   6.118  1.4553 -2.8889 -1.4353
 6807SOL     OW23566   3.251   4.104   1.309 -0.2221  0.3390 -0.2824
 6807SOL    HW123567   3.184   4.047   1.270 -0.6324 -0.4599  1.4878
 6807SOL    HW223568   3.264   4.173   1.244 -1.5488 -0.4018 -1.3973
 6808SOL     OW23569   5.490   4.589   6.538 -0.1226  0.4015 -0.0525
 6808SOL    HW123570   5.567   4.645   6.535 -0.1894  0.4661 -1.1562
 6808SOL    HW223571   5.428   4.636   6.594  0.4832  0.5435  0.5084
 6809SOL     OW23572   4.595   4.640   7.597 -0.3586 -0.2339 -0.4049
 6809SOL    HW123573   4.678   4.681   7.622  0.6658 -2.2280 -0.3836
 6809SOL    HW223574   4.587   4.658   7.503  0.4014 -0.5435 -0.5320
 6810SOL     OW23575   4.654   7.707   6.051 -0.0741  0.8330 -0.7331
 6810SOL    HW123576   4.620   7.632   6.099 -2.3662  1.2008 -1.6424
 6810SOL    HW223577   4.745   7.714   6.078 -0.3434 -1.0602  0.8653
 6811SOL     OW23578   6.311   7.967   2.727  0.0421 -1.0641 -0.0729
 6811SOL    HW123579   6.287   7.890   2.779 -0.7067 -0.4158  0.5756
 6811SOL    HW223580   6.236   8.027   2.737  0.6529 -0.2104 -0.4750
 6812SOL     OW23581   4.162   0.174   3.854 -0.4061 -0.6540 -0.4356
 6812SOL    HW123582   4.241   0.224   3.874 -1.0583 -1.3310  5.7880
 6812SOL    HW223583   4.116   0.226   3.788  3.1831  1.9552 -1.1477
 6813SOL     OW23584   0.500   3.876   3.559 -0.2410  0.0910 -0.3323
 6813SOL    HW123585   0.527   3.924   3.480 -0.8813 -0.5450 -0.9559
 6813SOL    HW223586   0.411   3.847   3.539  1.1161 -4.0597 -1.3557
 6814SOL     OW23587   6.777   2.752   0.587 -0.1093  0.1035  0.3294
 6814SOL    HW123588   6.786   2.670   0.538  0.0605 -0.4688  1.3001
 6814SOL    HW223589   6.740   2.813   0.523  1.3964 -0.2185 -0.9289
 6815SOL     OW23590   1.157   2.049   4.626 -0.3523 -0.0059  0.1891
 6815SOL    HW123591   1.101   2.064   4.550 -0.1556  0.5077  0.1442
 6815SOL    HW223592   1.216   2.124   4.628 -1.2703  0.7215  1.6674
 6816SOL     OW23593   4.758   3.060   4.948  0.3121 -0.3458  0.4247
 6816SOL    HW123594   4.822   3.006   4.903  0.3083 -0.5137  0.6205
 6816SOL    HW223595   4.772   3.042   5.041 -0.0664 -0.4360  0.4652
 6817SOL     OW23596   2.556   1.870   4.162  0.2292 -0.1166 -0.3880
 6817SOL    HW123597   2.539   1.782   4.195  0.6174  0.1582  0.5807
 6817SOL    HW223598   2.469   1.908   4.150  0.0738 -0.3160  0.0769
 6818SOL     OW23599   5.685   3.903   4.216  0.2747  0.0938  0.1883
 6818SOL    HW123600   5.760   3.847   4.194  1.7898  1.0837  2.4907
 6818SOL    HW223601   5.718   3.992   4.205 -0.1632  0.5590  2.3009
 6819SOL     OW23602   3.596   2.473   2.226 -0.4689 -0.1618 -0.1332
 6819SOL    HW123603   3.526   2.469   2.291 -0.5505  0.7653 -0.1464
 6819SOL    HW223604   3.574   2.405   2.162 -0.8993 -0.4409  0.3056
 6820SOL     OW23605   3.065   4.317   3.086  0.2554  0.1019 -0.1250
 6820SOL    HW123606   3.144   4.302   3.138  1.4926  1.7888 -1.3727
 6820SOL    HW223607   3.060   4.413   3.078 -2.6224  0.1332  0.8942
 6821SOL     OW23608   3.542   4.863   0.576  0.5242 -0.8025  0.1231
 6821SOL    HW123609   3.541   4.958   0.583  1.0287 -0.7363 -0.5625
 6821SOL    HW223610   3.608   4.845   0.508  1.7194 -1.7230  1.4679
 6822SOL     OW23611   6.334   6.526   5.943  0.6526  0.1609  0.4450
 6822SOL    HW123612   6.256   6.580   5.952  0.8736  0.2374  2.3152
 6822SOL    HW223613   6.400   6.585   5.906  0.1613  0.4140 -0.0319
 6823SOL     OW23614   5.439   5.266   7.037 -0.2209 -0.0319  0.3643
 6823SOL    HW123615   5.531   5.252   7.059 -0.1914  0.3185  0.4698
 6823SOL    HW223616   5.402   5.178   7.033 -0.0367 -0.1463  1.0008
 6824SOL     OW23617   7.625   1.905   7.640 -0.0031 -0.0898  0.3398
 6824SOL    HW123618   7.636   1.881   7.547 -0.8162 -0.5735  0.3534
 6824SOL    HW223619   7.705   1.952   7.662  1.3701 -2.2022  0.0987
 6825SOL     OW23620   6.524   4.496   5.140 -0.2978  0.7562 -0.5254
 6825SOL    HW123621   6.619   4.504   5.137 -0.3230  1.1593 -0.3050
 6825SOL    HW223622   6.498   4.477   5.050  0.1625 -1.2920 -0.2711
 6826SOL     OW23623   0.314   8.068   1.724 -0.7367  0.9898  0.1506
 6826SOL    HW123624   0.349   7.980   1.728 -1.6186  0.6346  0.3022
 6826SOL    HW223625   0.385   8.121   1.687 -0.3642  0.1354 -0.3823
 6827SOL     OW23626   3.091   2.623   5.747 -0.2507 -0.1826 -0.3951
 6827SOL    HW123627   3.147   2.689   5.706  0.3549  0.2495  1.0466
 6827SOL    HW223628   3.114   2.541   5.704  0.1939  0.2785 -1.0628
 6828SOL     OW23629   1.178   6.770   3.679 -0.2805  0.3107 -0.4648
 6828SOL    HW123630   1.255   6.760   3.623 -1.4812 -1.6251 -1.8791
 6828SOL    HW223631   1.123   6.834   3.634 -1.0013 -0.8443 -1.2695
 6829SOL     OW23632   4.726   5.096   7.204 -0.5781  0.1662  0.3618
 6829SOL    HW123633   4.678   5.179   7.192 -2.3764 -1.0654 -1.7324
 6829SOL    HW223634   4.816   5.123   7.221 -0.5815  2.6183 -2.6188
 6830SOL     OW23635   1.326   2.763   2.163  0.6271  0.0967  0.5498
 6830SOL    HW123636   1.242   2.808   2.173  0.8119  0.0273  2.7430
 6830SOL    HW223637   1.305   2.686   2.110 -0.3443  0.9504 -0.3523
 6831SOL     OW23638   5.920   5.197   5.787  0.1106  0.3552 -0.1860
 6831SOL    HW123639   5.940   5.282   5.750 -0.8527  0.0347 -1.5113
 6831SOL    HW223640   5.826   5.198   5.800  0.2264 -0.1319  0.8023
 6832SOL     OW23641   2.545   2.213   5.649  0.6263 -0.2628 -0.0099
 6832SOL    HW123642   2.632   2.175   5.666  0.0500 -0.8531  1.8479
 6832SOL    HW223643   2.557   2.264   5.568  3.1873  1.1347  1.1065
 6833SOL     OW23644   3.393   3.997   2.606 -0.2331  0.7082 -0.2485
 6833SOL    HW123645   3.454   4.070   2.594  0.7459 -0.1921 -0.9672
 6833SOL    HW223646   3.383   3.990   2.700 -0.7251  2.0705 -0.1779
 6834SOL     OW23647   1.982   7.095   3.110 -0.1253 -0.2989  0.5601
 6834SOL    HW123648   1.950   7.012   3.146 -0.3882 -0.5648 -0.2636
 6834SOL    HW223649   1.916   7.159   3.135 -0.6251 -0.5955  0.0413
 6835SOL     OW23650   3.384   0.921   6.689  0.0654  0.1256  0.0096
 6835SOL    HW123651   3.308   0.939   6.634  0.7252  1.1366 -0.5979
 6835SOL    HW223652   3.440   0.865   6.635 -0.2222 -0.6087  0.4516
 6836SOL     OW23653   0.522   7.685   6.269 -0.3938 -0.2072  0.7839
 6836SOL    HW123654   0.447   7.734   6.303  0.3321  0.6466  1.1812
 6836SOL    HW223655   0.487   7.597   6.252 -1.5569  0.2599  0.6648
 6837SOL     OW23656   6.732   4.645   1.694 -0.2617 -0.2928 -0.4663
 6837SOL    HW123657   6.808   4.623   1.747 -0.5899 -0.3087  0.0033
 6837SOL    HW223658   6.769   4.674   1.610  0.2323 -0.8593 -0.4476
 6838SOL     OW23659   6.147   0.376   2.942  0.8084 -0.0083  0.3118
 6838SOL    HW123660   6.135   0.368   2.847 -0.2950 -1.1999  0.5094
 6838SOL    HW223661   6.209   0.307   2.964  1.6773  0.7823  0.3659
 6839SOL     OW23662   6.882   7.689   3.140 -0.1882  0.0807  0.0489
 6839SOL    HW123663   6.858   7.758   3.079  1.5000  0.4021 -0.3055
 6839SOL    HW223664   6.977   7.695   3.147 -0.2132 -0.8072  1.7026
 6840SOL     OW23665   5.338   5.719   2.245 -0.3209 -0.2687  0.2971
 6840SOL    HW123666   5.304   5.644   2.198 -0.3954 -0.9249  1.3569
 6840SOL    HW223667   5.403   5.757   2.186  0.1164 -1.4967 -0.0389
 6841SOL     OW23668   6.161   2.098   2.807  0.4329 -0.0200 -0.3707
 6841SOL    HW123669   6.225   2.037   2.844 -0.9044 -0.4357  1.4541
 6841SOL    HW223670   6.202   2.184   2.814  1.6781 -0.5005 -1.4086
 6842SOL     OW23671   5.371   4.153   0.091  0.2277  0.0866 -0.3056
 6842SOL    HW123672   5.369   4.066   0.130  1.7081 -0.2055 -0.8558
 6842SOL    HW223673   5.402   4.210   0.162  0.8596 -0.1021 -0.4295
 6843SOL     OW23674   7.541   7.526   5.325  0.4145  0.5231 -0.5756
 6843SOL    HW123675   7.509   7.526   5.415  0.0513  0.6088 -0.7006
 6843SOL    HW223676   7.486   7.462   5.280  1.7769 -0.8760 -0.3407
 6844SOL     OW23677   6.977   5.768   4.786  0.2170 -0.9487  0.2197
 6844SOL    HW123678   7.055   5.818   4.813  0.4562 -1.8683  1.3098
 6844SOL    HW223679   6.904   5.826   4.809  0.5198 -0.7693  0.7785
 6845SOL     OW23680   2.046   3.965   4.568 -0.1730 -0.3317 -0.1709
 6845SOL    HW123681   2.112   3.981   4.502 -0.0271  0.5140  0.1649
 6845SOL    HW223682   2.002   4.050   4.579  0.6464 -0.0951  1.7071
 6846SOL     OW23683   0.088   5.727   4.949  0.0616  0.5790  0.3720
 6846SOL    HW123684   0.131   5.813   4.940  2.2062 -0.0796  2.8976
 6846SOL    HW223685   0.087   5.691   4.861 -0.2773  2.9016 -0.6378
 6847SOL     OW23686   5.904   6.129   7.537 -0.3017  0.4675  0.1514
 6847SOL    HW123687   5.844   6.203   7.527 -1.0396 -0.2566 -1.0587
 6847SOL    HW223688   5.850   6.052   7.518  0.3777 -0.4122  1.6908
 6848SOL     OW23689   5.316   4.630   7.555 -0.2019  0.0622 -0.8385
 6848SOL    HW123690   5.250   4.566   7.582 -0.4631 -1.1781 -3.9765
 6848SOL    HW223691   5.397   4.600   7.596 -0.8907 -0.4897  0.1666
 6849SOL     OW23692   3.413   3.567   1.581  0.4673  0.3324 -0.4823
 6849SOL    HW123693   3.396   3.493   1.638 -2.1960  0.7770 -0.5876
 6849SOL    HW223694   3.412   3.530   1.492 -0.7458  0.4636 -0.5281
 6850SOL     OW23695   5.008   6.967   3.200  0.0288 -0.4437 -0.0625
 6850SOL    HW123696   5.073   7.012   3.145 -0.2179  0.8202  0.6491
 6850SOL    HW223697   5.054   6.889   3.233  0.4377 -0.7819 -1.3782
 6851SOL     OW23698   8.077   2.278   3.634  0.4124  0.2190  0.1375
 6851SOL    HW123699   8.133   2.264   3.558 -1.5789  0.0739 -1.3888
 6851SOL    HW223700   8.128   2.337   3.690  2.3200 -0.3917 -0.8461
 6852SOL     OW23701   5.371   7.985   0.937  0.4969  0.0379  0.2787
 6852SOL    HW123702   5.286   8.023   0.915  0.4926 -0.3452 -0.3996
 6852SOL    HW223703   5.353   7.891   0.946  1.2732 -0.4239 -2.3061
 6853SOL     OW23704   0.936   2.453   5.608 -0.2908 -1.3498 -0.1769
 6853SOL    HW123705   0.978   2.529   5.648 -0.7341 -0.9514 -0.4577
 6853SOL    HW223706   0.992   2.379   5.631  0.2019 -0.9197  0.0060
 6854SOL     OW23707   7.345   3.107   5.952  0.3857  0.3390  0.0043
 6854SOL    HW123708   7.431   3.148   5.944  0.6781 -0.3900 -0.5686
 6854SOL    HW223709   7.287   3.180   5.978  0.8422  1.1843 -1.2685
 6855SOL     OW23710   0.393   2.811   1.921  0.3996 -0.2296 -0.0355
 6855SOL    HW123711   0.324   2.866   1.884 -2.2099 -1.5330  2.4835
 6855SOL    HW223712   0.458   2.872   1.954 -1.0074  1.2308  0.1411
 6856SOL     OW23713   1.402   0.153   7.788 -0.1183  0.2739 -0.3078
 6856SOL    HW123714   1.340   0.204   7.840 -0.0514  0.0425 -0.0049
 6856SOL    HW223715   1.488   0.181   7.819 -0.0695  0.4907 -0.6298
 6857SOL     OW23716   3.834   7.286   6.103 -0.2710 -0.3410  0.2027
 6857SOL    HW123717   3.797   7.368   6.137 -3.1358 -1.7294  0.7323
 6857SOL    HW223718   3.767   7.253   6.044  1.5572 -1.5264 -1.2893
 6858SOL     OW23719   5.900   4.405   6.267 -0.3535  0.3370  0.2717
 6858SOL    HW123720   5.871   4.315   6.254  0.0673  0.1239  0.7754
 6858SOL    HW223721   5.907   4.414   6.362  0.2285  0.7016  0.1948
 6859SOL     OW23722   7.365   3.770   4.799  0.5061  0.4363  0.0755
 6859SOL    HW123723   7.287   3.772   4.854  0.7550  2.8967  0.4676
 6859SOL    HW223724   7.377   3.861   4.771  2.6202 -0.0614 -0.8334
 6860SOL     OW23725   7.871   0.947   2.557 -0.0634 -0.3448 -0.3878
 6860SOL    HW123726   7.959   0.984   2.542 -0.6760  1.0071 -0.8882
 6860SOL    HW223727   7.883   0.883   2.627  1.4296 -0.6450 -0.8762
 6861SOL     OW23728   7.996   5.146   2.771  0.2331  0.4281  0.0581
 6861SOL    HW123729   7.981   5.052   2.758  1.0220  0.3994 -0.7023
 6861SOL    HW223730   8.024   5.154   2.862  0.5871 -0.1331  0.0003
 6862SOL     OW23731   1.347   3.547   1.559  0.5399 -0.1770  0.0789
 6862SOL    HW123732   1.339   3.553   1.654 -1.9641 -0.5157 -0.0630
 6862SOL    HW223733   1.302   3.466   1.536 -1.8348  1.5097 -1.6320
 6863SOL     OW23734   5.461   4.017   1.929 -0.6166  0.2022 -0.3741
 6863SOL    HW123735   5.458   3.922   1.944 -1.1523  0.1894 -0.5649
 6863SOL    HW223736   5.547   4.043   1.962 -0.2209 -0.4417 -0.8728
 6864SOL     OW23737   3.833   6.293   7.149 -0.5792 -0.3320 -0.3770
 6864SOL    HW123738   3.876   6.371   7.181  4.1485 -2.3301 -1.0391
 6864SOL    HW223739   3.820   6.238   7.227 -0.6031 -0.3103 -0.3656
 6865SOL     OW23740   6.047   7.973   6.439  0.1136  0.2049 -0.3254
 6865SOL    HW123741   6.055   7.929   6.524  0.0841  0.9179  0.0488
 6865SOL    HW223742   6.086   8.059   6.452 -0.2480  0.4682 -0.9283
 6866SOL     OW23743   0.395   1.803   3.854 -0.5709 -0.6100 -0.0872
 6866SOL    HW123744   0.472   1.859   3.853 -3.2157  3.4891  0.8704
 6866SOL    HW223745   0.381   1.779   3.762  1.0376 -0.2784 -0.4397
 6867SOL     OW23746   4.758   3.390   0.111  0.1224 -0.3646  0.2775
 6867SOL    HW123747   4.797   3.458   0.165 -0.0881 -1.0995  1.3830
 6867SOL    HW223748   4.682   3.360   0.161 -0.4062 -0.6929 -0.6799
 6868SOL     OW23749   3.132   6.032   0.651 -0.6711  0.1806  0.4205
 6868SOL    HW123750   3.204   5.971   0.637  0.0563  0.8421  1.1669
 6868SOL    HW223751   3.157   6.110   0.602 -1.3573  0.0829 -0.1126
 6869SOL     OW23752   1.110   3.945   0.369 -0.5203 -0.1265  0.0859
 6869SOL    HW123753   1.161   4.005   0.315 -0.3274 -2.3790 -2.4172
 6869SOL    HW223754   1.029   3.992   0.388  0.8783  2.0831  0.9887
 6870SOL     OW23755   3.239   0.338   5.216  0.3994 -0.2069  0.2166
 6870SOL    HW123756   3.320   0.383   5.192 -0.3945  0.3377 -1.6084
 6870SOL    HW223757   3.183   0.407   5.252 -0.0552 -0.0971 -0.6533
 6871SOL     OW23758   0.889   1.606   1.824  0.5556  0.1480  0.3088
 6871SOL    HW123759   0.894   1.586   1.917  0.4063  1.2410  0.5656
 6871SOL    HW223760   0.980   1.608   1.795  0.5636 -1.4411  0.1291
 6872SOL     OW23761   2.934   3.565   2.117 -0.0446 -0.4878  0.6666
 6872SOL    HW123762   2.910   3.478   2.084 -0.9868 -0.2947  0.7972
 6872SOL    HW223763   2.860   3.590   2.173 -0.3594  0.9158 -0.3233
 6873SOL     OW23764   4.427   3.360   1.507 -0.1929  0.4689  0.6050
 6873SOL    HW123765   4.436   3.324   1.595  0.7955 -2.5350 -0.6109
 6873SOL    HW223766   4.363   3.303   1.464 -1.0603  2.1998 -0.5150
 6874SOL     OW23767   7.030   3.138   7.512 -0.4197  0.3007  0.1501
 6874SOL    HW123768   6.963   3.131   7.580 -0.5024  0.2597  0.0646
 6874SOL    HW223769   6.997   3.205   7.453  0.0699  0.9731  0.6214
 6875SOL     OW23770   2.045   7.842   4.758  0.6998  0.1028  0.4145
 6875SOL    HW123771   2.056   7.786   4.835 -0.9794 -0.0764  0.5653
 6875SOL    HW223772   1.950   7.853   4.750  0.8895  0.8988 -1.0825
 6876SOL     OW23773   1.953   7.848   1.642 -0.5584 -0.2415  0.5009
 6876SOL    HW123774   1.949   7.907   1.567 -1.6076 -0.2000  0.5747
 6876SOL    HW223775   1.970   7.906   1.717  0.3322 -0.2665  0.3346
 6877SOL     OW23776   5.380   4.905   1.163 -0.6813  0.3457  1.0350
 6877SOL    HW123777   5.384   4.871   1.253 -0.7627  0.4493  1.0787
 6877SOL    HW223778   5.453   4.864   1.118 -2.0193 -1.6008  0.5040
 6878SOL     OW23779   0.680   7.210   0.727  0.3085  0.0377 -0.5516
 6878SOL    HW123780   0.680   7.118   0.755  0.9847  0.0999 -0.3359
 6878SOL    HW223781   0.591   7.225   0.695  0.0969 -0.6014 -0.2821
 6879SOL     OW23782   3.972   4.204   0.736  0.0073  0.1856 -0.2451
 6879SOL    HW123783   4.059   4.202   0.695 -0.5265 -2.2932 -1.4083
 6879SOL    HW223784   3.912   4.177   0.666 -1.4366 -0.2699  1.1185
 6880SOL     OW23785   1.071   4.930   0.657 -0.2099  0.3691 -0.0548
 6880SOL    HW123786   1.145   4.882   0.620 -1.6969 -2.2592  0.1202
 6880SOL    HW223787   1.009   4.938   0.584 -0.0395  1.9932 -0.0464
 6881SOL     OW23788   7.410   1.454   0.928  0.0061 -0.1036 -0.0353
 6881SOL    HW123789   7.337   1.506   0.892  0.3706  0.6248  0.2546
 6881SOL    HW223790   7.401   1.464   1.023  0.2356 -0.3603  0.0124
 6882SOL     OW23791   7.634   4.833   7.409  0.1124 -0.0806  0.2096
 6882SOL    HW123792   7.613   4.798   7.323 -1.4398 -4.1013  1.9809
 6882SOL    HW223793   7.729   4.823   7.417  0.5066  1.7597 -1.4629
 6883SOL     OW23794   0.052   7.648   1.568  0.2643  0.2690 -0.7927
 6883SOL    HW123795   0.079   7.728   1.613 -0.0822  1.1304 -2.0434
 6883SOL    HW223796  -0.021   7.675   1.512 -0.4827 -1.1365 -0.5440
 6884SOL     OW23797   0.400   7.320   4.273  0.1798 -0.0185 -0.1492
 6884SOL    HW123798   0.437   7.398   4.233 -1.9141  1.4332  0.5508
 6884SOL    HW223799   0.324   7.300   4.219 -0.5731 -0.2148  0.9608
 6885SOL     OW23800   7.149   1.605   2.768  0.4308  0.0013 -0.5679
 6885SOL    HW123801   7.186   1.538   2.710  0.4773  0.2111 -0.7821
 6885SOL    HW223802   7.150   1.686   2.715  0.8854  0.2872 -0.1259
 6886SOL     OW23803   2.486   2.649   7.241 -0.5398  0.0977  0.3727
 6886SOL    HW123804   2.562   2.628   7.187 -0.3840 -3.0615  1.6237
 6886SOL    HW223805   2.520   2.658   7.330 -1.6020 -1.7568  1.0232
 6887SOL     OW23806   4.926   1.483   0.877 -0.1090  0.0157 -0.7831
 6887SOL    HW123807   4.916   1.388   0.880 -2.9175  0.1885 -1.7494
 6887SOL    HW223808   4.947   1.502   0.786 -2.2627  0.4458 -1.2349
 6888SOL     OW23809   6.424   2.518   4.259  0.6354 -0.1547  0.0401
 6888SOL    HW123810   6.378   2.594   4.222 -0.0775  0.4314  1.9951
 6888SOL    HW223811   6.452   2.468   4.183 -0.2922  1.2359 -1.2871
 6889SOL     OW23812   7.946   7.626   3.906 -0.3974  0.2978  0.4804
 6889SOL    HW123813   8.002   7.669   3.840  0.2386 -2.5086 -0.9634
 6889SOL    HW223814   7.857   7.635   3.871 -0.4646  1.5853  0.9190
 6890SOL     OW23815   1.344   5.886   3.796 -0.0657  0.6099  0.0758
 6890SOL    HW123816   1.343   5.830   3.718 -0.1480  0.6347  0.0582
 6890SOL    HW223817   1.431   5.926   3.797 -0.5797  1.8315 -0.8822
 6891SOL     OW23818   2.545   5.145   6.234  0.4878 -0.1271 -0.1711
 6891SOL    HW123819   2.456   5.177   6.243  0.5329 -0.0677  0.0735
 6891SOL    HW223820   2.550   5.112   6.144 -0.2736 -1.6521  0.3004
 6892SOL     OW23821   7.200   2.466   2.614 -0.4334  0.2551  0.9630
 6892SOL    HW123822   7.201   2.371   2.624  0.1248  0.2710  1.1057
 6892SOL    HW223823   7.196   2.480   2.520  1.4393  0.0676  0.8123
 6893SOL     OW23824   2.587   0.866   3.785 -0.3190  0.7509  0.1371
 6893SOL    HW123825   2.634   0.929   3.731 -0.8409  1.3726  0.4046
 6893SOL    HW223826   2.591   0.784   3.735 -0.4406  1.2141 -0.6384
 6894SOL     OW23827   0.857   0.571   2.892 -0.6272 -0.3793  0.4323
 6894SOL    HW123828   0.846   0.477   2.903  0.1366 -0.7759 -1.6722
 6894SOL    HW223829   0.854   0.585   2.797  1.5934  1.3799  0.5195
 6895SOL     OW23830   2.238   5.142   6.497 -0.2433  0.4251 -0.1330
 6895SOL    HW123831   2.149   5.176   6.504 -1.1093 -1.4226 -1.3375
 6895SOL    HW223832   2.267   5.169   6.410  0.0359  0.3041 -0.0764
 6896SOL     OW23833   4.783   0.583   3.057 -0.0736  0.0595 -0.4383
 6896SOL    HW123834   4.721   0.561   3.126  0.1977  0.8188  0.0721
 6896SOL    HW223835   4.821   0.666   3.086 -0.2395  0.5948 -1.7006
 6897SOL     OW23836   0.635   1.913   3.863 -0.4821 -0.8548  0.0569
 6897SOL    HW123837   0.692   1.983   3.832  2.8503 -3.1326  0.5684
 6897SOL    HW223838   0.642   1.917   3.958 -2.6081 -0.1946  0.2480
 6898SOL     OW23839   2.423   5.481   1.004 -0.2451 -0.1940  0.0895
 6898SOL    HW123840   2.333   5.513   0.991  0.2353  0.7170 -1.2130
 6898SOL    HW223841   2.466   5.494   0.919  1.6041  0.9932  1.1376
 6899SOL     OW23842   0.273   4.232   6.780  0.5558 -0.2129  0.1084
 6899SOL    HW123843   0.282   4.297   6.711 -0.4843  0.3120  0.4396
 6899SOL    HW223844   0.363   4.210   6.805  0.9224  0.6935 -0.3773
 6900SOL     OW23845   0.874   0.072   7.104  0.3244 -0.2770 -0.2752
 6900SOL    HW123846   0.835  -0.007   7.067  0.9303 -0.8548  0.2973
 6900SOL    HW223847   0.964   0.072   7.072  0.3549  0.1392 -0.2000
 6901SOL     OW23848   2.970   1.701   4.391  0.3296 -0.7826 -0.2097
 6901SOL    HW123849   2.988   1.622   4.441  1.5644  0.1556  0.8893
 6901SOL    HW223850   2.893   1.740   4.433  0.3446 -0.8683 -0.1027
 6902SOL     OW23851   0.443   4.609   5.750  0.2355 -0.1504 -0.5926
 6902SOL    HW123852   0.460   4.578   5.839  0.1842  0.8354 -0.2319
 6902SOL    HW223853   0.527   4.598   5.705 -0.4170 -3.2909 -1.2751
 6903SOL     OW23854   5.376   5.559   1.662  0.2152  0.2015 -0.1150
 6903SOL    HW123855   5.401   5.548   1.754  1.2442 -0.7067 -0.4794
 6903SOL    HW223856   5.311   5.490   1.647 -0.4133  0.7340  0.0653
 6904SOL     OW23857   0.368   4.937   2.150 -0.5482  0.7066  0.0102
 6904SOL    HW123858   0.363   4.875   2.078 -1.8234  0.2960  0.4203
 6904SOL    HW223859   0.409   5.015   2.112  0.2122 -0.0398 -0.7457
 6905SOL     OW23860   7.427   3.964   5.645 -0.6577 -0.1876 -0.2085
 6905SOL    HW123861   7.359   4.027   5.669  0.0713  0.6637 -0.3259
 6905SOL    HW223862   7.471   3.943   5.727  1.7930  2.6746 -0.6169
 6906SOL     OW23863   4.514   4.738   2.811 -0.1742 -0.5567 -0.0449
 6906SOL    HW123864   4.421   4.727   2.828 -0.0067 -0.6553  0.8840
 6906SOL    HW223865   4.519   4.797   2.736 -0.9730 -0.2629  0.1291
 6907SOL     OW23866   1.473   3.482   0.192  0.4715 -0.1705  0.2428
 6907SOL    HW123867   1.527   3.403   0.197 -0.7844 -1.2871 -2.3340
 6907SOL    HW223868   1.417   3.478   0.270  0.2867 -1.9443  0.0467
 6908SOL     OW23869   0.498   7.208   7.481 -0.1877 -0.2478 -0.4250
 6908SOL    HW123870   0.575   7.242   7.435 -0.3842 -0.3227 -0.8143
 6908SOL    HW223871   0.466   7.138   7.425  0.3742 -1.2792  0.4942
 6909SOL     OW23872   0.745   1.792   2.716  0.3704  1.0501  0.3175
 6909SOL    HW123873   0.711   1.793   2.627  1.3511  2.2341 -0.0712
 6909SOL    HW223874   0.839   1.779   2.706  0.2684 -0.7851  1.3015
 6910SOL     OW23875   6.968   3.546   0.123 -0.6377 -0.0562  0.0102
 6910SOL    HW123876   7.059   3.566   0.141  0.0284 -2.4994 -0.3578
 6910SOL    HW223877   6.935   3.624   0.077  0.7783  1.4798  1.4673
 6911SOL     OW23878   0.834   7.322   3.245  0.9434 -0.1170  0.1528
 6911SOL    HW123879   0.888   7.315   3.166  1.6354  1.7017  0.4229
 6911SOL    HW223880   0.869   7.398   3.291 -1.8585  1.1714  0.3344
 6912SOL     OW23881   1.856   6.284   7.854 -0.3400  0.0766  0.0941
 6912SOL    HW123882   1.765   6.299   7.828 -0.3113  0.0390 -0.0263
 6912SOL    HW223883   1.850   6.241   7.939 -0.4526 -0.6923 -0.2975
 6913SOL     OW23884   2.820   7.819   5.699  0.3276  0.0227 -0.7154
 6913SOL    HW123885   2.875   7.760   5.649  0.1087  1.5221 -2.8628
 6913SOL    HW223886   2.747   7.765   5.729  2.0000 -1.5830  0.6568
 6914SOL     OW23887   1.583   2.519   5.652 -0.4217  0.4831  0.1645
 6914SOL    HW123888   1.619   2.597   5.694 -1.1887  0.7149  0.4044
 6914SOL    HW223889   1.500   2.547   5.614  0.1541  0.2237 -1.3636
 6915SOL     OW23890   2.272   3.329   1.277 -0.0819  0.3490 -0.3484
 6915SOL    HW123891   2.207   3.385   1.234 -0.0157 -0.5860 -1.7188
 6915SOL    HW223892   2.323   3.291   1.205 -0.2928 -1.6790  0.5062
 6916SOL     OW23893   4.481   3.564   8.090  0.1890 -0.3859 -0.0225
 6916SOL    HW123894   4.507   3.513   8.167 -2.6080  0.3666  1.5569
 6916SOL    HW223895   4.430   3.503   8.036  3.4981 -1.4079 -2.3132
 6917SOL     OW23896   1.318   0.990   3.408 -0.3891 -0.4748  0.0837
 6917SOL    HW123897   1.225   1.010   3.398 -0.4157 -0.1709  0.9195
 6917SOL    HW223898   1.320   0.897   3.431 -0.6032 -0.0640  1.8495
 6918SOL     OW23899   6.518   2.060   6.195  0.0035  0.2114  0.4125
 6918SOL    HW123900   6.482   2.076   6.282  0.5249 -0.0835  0.6953
 6918SOL    HW223901   6.561   2.142   6.171  2.2314 -0.5105  1.6342
 6919SOL     OW23902   1.386   4.679   1.831 -0.2411  0.0987 -0.0218
 6919SOL    HW123903   1.446   4.729   1.776 -0.6074 -0.7305 -1.2147
 6919SOL    HW223904   1.440   4.611   1.872 -0.4558 -1.1788 -1.7496
 6920SOL     OW23905   7.396   7.429   0.221 -0.0800 -0.0747 -0.3802
 6920SOL    HW123906   7.440   7.351   0.256  1.1647  0.8956  0.3023
 6920SOL    HW223907   7.459   7.500   0.234 -1.5743  1.2513 -0.0364
 6921SOL     OW23908   1.631   5.978   1.499 -0.3249 -0.2729  0.4910
 6921SOL    HW123909   1.630   5.989   1.594 -0.9457 -0.6401  0.5361
 6921SOL    HW223910   1.640   6.067   1.465 -0.1890 -0.1280  0.8926
 6922SOL     OW23911   5.545   4.846   7.392 -0.2092  0.0457 -0.1079
 6922SOL    HW123912   5.578   4.830   7.303 -1.7860  0.2734 -0.7781
 6922SOL    HW223913   5.453   4.867   7.379 -0.2264  1.1559  1.5039
 6923SOL     OW23914   1.445   7.755   5.633  0.0114  0.0246 -0.5776
 6923SOL    HW123915   1.494   7.674   5.645 -1.7908 -1.1475 -0.7224
 6923SOL    HW223916   1.475   7.790   5.549 -0.2618 -1.3210 -1.2605
 6924SOL     OW23917   4.321   1.446   1.247  0.0762 -0.1472  0.1612
 6924SOL    HW123918   4.387   1.510   1.270 -0.6450  0.9004 -0.5813
 6924SOL    HW223919   4.237   1.492   1.258 -0.4819 -1.1167  0.1047
 6925SOL     OW23920   6.369   0.049   5.112  0.4851  0.4343 -0.6368
 6925SOL    HW123921   6.424   0.126   5.097  1.4552 -0.2325 -0.6095
 6925SOL    HW223922   6.323   0.068   5.194 -1.1762  2.0166 -1.8527
 6926SOL     OW23923   4.403   4.911   4.190 -0.3741 -0.4773  0.4246
 6926SOL    HW123924   4.399   4.969   4.114 -1.5099  0.9862  1.5307
 6926SOL    HW223925   4.346   4.838   4.167 -2.3769  0.9411  0.5858
 6927SOL     OW23926   2.506   2.139   2.933 -0.9551  0.2495  0.2764
 6927SOL    HW123927   2.584   2.149   2.987 -1.1112 -1.0075  0.7437
 6927SOL    HW223928   2.480   2.229   2.913  0.9856  0.7043 -0.4565
 6928SOL     OW23929   7.588   6.510   4.902 -0.2539  0.0811  0.2804
 6928SOL    HW123930   7.573   6.421   4.935 -2.1565  0.7983  1.4838
 6928SOL    HW223931   7.505   6.556   4.915  0.7572  2.1350 -0.0434
 6929SOL     OW23932   2.755   4.871   5.612 -0.2690 -0.1857 -0.3446
 6929SOL    HW123933   2.673   4.828   5.637 -0.1020  1.0069  2.7619
 6929SOL    HW223934   2.820   4.801   5.615 -0.6385 -0.5093  0.7146
 6930SOL     OW23935   6.491   6.051   4.985 -0.0558 -0.3230  0.0295
 6930SOL    HW123936   6.564   6.022   4.930 -0.2333 -0.5746 -0.0761
 6930SOL    HW223937   6.423   5.986   4.970 -0.0882 -0.4210  0.5884
 6931SOL     OW23938   1.814   5.674   2.829 -0.1525 -0.5219 -0.0173
 6931SOL    HW123939   1.858   5.603   2.781  0.5827  0.8683 -1.4883
 6931SOL    HW223940   1.843   5.754   2.786 -1.1263  0.6923  1.4677
 6932SOL     OW23941   6.909   1.188   0.960  0.2945 -0.2044  0.7190
 6932SOL    HW123942   6.928   1.103   0.999 -0.8630 -0.7544  0.1264
 6932SOL    HW223943   6.819   1.208   0.986  0.5578  0.8480  0.8638
 6933SOL     OW23944   6.047   1.663   2.527 -0.0837  0.2653 -0.5726
 6933SOL    HW123945   6.118   1.719   2.496 -0.5667  1.5736  0.5630
 6933SOL    HW223946   5.972   1.687   2.472 -0.1958  0.4800 -0.3294
 6934SOL     OW23947   2.874   1.866   7.114  0.7954  0.7483  0.4568
 6934SOL    HW123948   2.891   1.861   7.020  2.4671 -0.4516  0.7903
 6934SOL    HW223949   2.778   1.871   7.120  0.5070 -1.1619 -1.2619
 6935SOL     OW23950   7.591   1.274   4.119  0.1449  0.1917 -0.6665
 6935SOL    HW123951   7.573   1.294   4.028  1.7956  2.6756 -0.5350
 6935SOL    HW223952   7.506   1.250   4.156 -0.9644  1.3631 -2.3439
 6936SOL     OW23953   4.736   5.867   2.118  1.2247 -0.9244 -0.3533
 6936SOL    HW123954   4.714   5.954   2.151 -0.7976 -1.1685 -0.9338
 6936SOL    HW223955   4.689   5.807   2.176  0.7005 -1.5212 -1.3734
 6937SOL     OW23956   7.448   1.716   4.800  0.1742 -0.2442 -0.4910
 6937SOL    HW123957   7.370   1.671   4.833  0.7797 -1.2895 -0.4335
 6937SOL    HW223958   7.481   1.764   4.876  1.0692 -1.9394  0.2531
 6938SOL     OW23959   0.614   2.633   1.762 -0.0261 -0.0991  0.2427
 6938SOL    HW123960   0.700   2.607   1.796 -0.2312  0.0660  0.9117
 6938SOL    HW223961   0.555   2.623   1.837 -0.6631 -0.5768 -0.3069
 6939SOL     OW23962   6.031   2.257   4.716 -0.3481  0.0583 -0.1481
 6939SOL    HW123963   6.007   2.339   4.674 -1.9547  0.0704  0.7109
 6939SOL    HW223964   5.961   2.196   4.692  0.0216 -0.6295  0.4625
 6940SOL     OW23965   3.347   6.077   1.853  0.1408 -0.4298 -0.2140
 6940SOL    HW123966   3.392   6.037   1.928 -0.5968  0.7098  0.8828
 6940SOL    HW223967   3.415   6.125   1.807  0.3093  0.2848  0.7418
 6941SOL     OW23968   3.231   6.238   0.519 -0.8720  0.0001  0.7451
 6941SOL    HW123969   3.271   6.235   0.432 -2.0231  0.5207  0.1822
 6941SOL    HW223970   3.264   6.319   0.558 -0.4276 -0.1886  0.7667
 6942SOL     OW23971   3.365   3.658   1.126  0.2770  0.3949  1.0119
 6942SOL    HW123972   3.388   3.585   1.068 -0.8919 -0.0865  1.1358
 6942SOL    HW223973   3.307   3.713   1.072  1.5294  1.5181  0.7486
 6943SOL     OW23974   5.484   6.022   7.998  0.6504 -0.6230 -0.3367
 6943SOL    HW123975   5.569   6.022   8.042  0.1674  0.5033  0.6284
 6943SOL    HW223976   5.502   6.057   7.911  1.2614 -0.8927 -0.3228
 6944SOL     OW23977   4.646   1.150   3.871  0.0292  0.2778 -0.3283
 6944SOL    HW123978   4.669   1.104   3.952  1.0418  0.8238 -0.2903
 6944SOL    HW223979   4.692   1.234   3.877  1.8734 -0.4750 -2.3892
 6945SOL     OW23980   4.078   6.954   5.921  0.2184  0.1058  0.2154
 6945SOL    HW123981   4.026   6.943   6.001  0.8674  0.7646  0.7437
 6945SOL    HW223982   4.032   7.021   5.871 -0.6085 -0.8430 -0.3418
 6946SOL     OW23983   6.310   0.469   5.291 -0.2328  0.6545  1.0547
 6946SOL    HW123984   6.278   0.523   5.363 -0.3971  0.4347  1.1471
 6946SOL    HW223985   6.298   0.379   5.322  1.5581  0.5563  1.5834
 6947SOL     OW23986   3.500   6.223   4.768 -0.2827  0.1010 -0.0275
 6947SOL    HW123987   3.527   6.251   4.681 -2.0589 -1.1260 -1.0286
 6947SOL    HW223988   3.494   6.305   4.818 -1.0854  1.0561 -1.6054
 6948SOL     OW23989   4.432   1.537   2.655 -0.0415 -0.1421  0.1480
 6948SOL    HW123990   4.369   1.520   2.726 -1.3481 -0.1847 -0.9755
 6948SOL    HW223991   4.497   1.594   2.694 -0.4225 -0.6169  1.5426
 6949SOL     OW23992   5.918   6.497   7.733  0.3750 -0.1761  0.2653
 6949SOL    HW123993   5.883   6.561   7.671  2.2353 -0.3569 -1.0451
 6949SOL    HW223994   5.954   6.549   7.805 -0.1194  0.1128  0.3099
 6950SOL     OW23995   6.444   3.418   0.739 -0.8122 -0.3280  0.0751
 6950SOL    HW123996   6.441   3.324   0.760  1.0216 -0.1799  1.2676
 6950SOL    HW223997   6.472   3.459   0.821  0.0171  1.0691 -0.8760
 6951SOL     OW23998   0.048   3.451   6.228 -0.5616 -0.3102  0.8170
 6951SOL    HW123999   0.080   3.439   6.317 -0.4955 -0.8005  0.7308
 6951SOL    HW224000  -0.036   3.406   6.226 -1.1320  0.7364  0.9633
 6952SOL     OW24001   3.964   1.688   0.192  0.2897  0.7080 -0.9369
 6952SOL    HW124002   3.903   1.716   0.260 -0.8071  2.3187 -2.5067
 6952SOL    HW224003   4.048   1.678   0.238 -0.4502  1.5411  0.6745
 6953SOL     OW24004   1.666   6.899   2.679  0.5810 -0.0558  0.0594
 6953SOL    HW124005   1.706   6.865   2.759  1.0079 -0.5299 -0.3454
 6953SOL    HW224006   1.659   6.993   2.693  1.2449 -0.0534  0.3961
 6954SOL     OW24007   0.195   7.375   0.746  0.0545  0.3081  0.1692
 6954SOL    HW124008   0.217   7.300   0.802  1.7187  1.3253  0.9462
 6954SOL    HW224009   0.137   7.339   0.679  0.5838 -1.6042  0.6884
 6955SOL     OW24010   3.954   4.387   0.983 -0.2332 -0.4839 -0.0200
 6955SOL    HW124011   3.947   4.344   0.898  0.7054 -0.4944 -0.0978
 6955SOL    HW224012   3.893   4.339   1.039 -1.5339  0.0782 -0.8905
 6956SOL     OW24013   0.749   3.422   4.466  0.5675  0.7056  0.2901
 6956SOL    HW124014   0.745   3.358   4.536  2.2965  0.4447  0.2019
 6956SOL    HW224015   0.726   3.505   4.507 -0.9983  0.1794  0.5552
 6957SOL     OW24016   4.444   5.928   0.790  0.1417 -0.5275 -0.5338
 6957SOL    HW124017   4.419   5.860   0.852  1.8965  0.3493  1.2261
 6957SOL    HW224018   4.466   6.004   0.844  0.0602  0.8465 -2.3339
 6958SOL     OW24019   7.802   5.205   7.472  0.0822  0.1551  0.3434
 6958SOL    HW124020   7.798   5.300   7.487  0.4854  0.4793 -1.3487
 6958SOL    HW224021   7.891   5.181   7.497 -0.9048 -0.4500  3.8658
 6959SOL     OW24022   4.845   7.483   7.228 -0.1278 -0.4268 -0.1459
 6959SOL    HW124023   4.805   7.548   7.170  1.2579 -0.0298 -0.6758
 6959SOL    HW224024   4.858   7.529   7.311  0.2979 -0.2051 -0.3342
 6960SOL     OW24025   6.186   3.923   2.354  0.0843 -0.0345  0.5970
 6960SOL    HW124026   6.266   3.909   2.303  0.5452 -0.8923  1.5296
 6960SOL    HW224027   6.115   3.919   2.289  0.7599  0.3586 -0.1848
 6961SOL     OW24028   4.336   2.935   3.697 -0.1152 -0.4037 -0.0451
 6961SOL    HW124029   4.414   2.990   3.694  0.0918 -0.6945 -0.0886
 6961SOL    HW224030   4.344   2.886   3.779  0.2027 -1.0874 -0.4795
 6962SOL     OW24031   5.786   6.608   7.341  0.2675  0.4904 -0.0938
 6962SOL    HW124032   5.857   6.668   7.318  0.9714 -0.7440 -1.3388
 6962SOL    HW224033   5.763   6.630   7.431  1.8442  1.3009  0.1421
 6963SOL     OW24034   7.646   5.697   2.077 -0.1165 -0.2897  0.3596
 6963SOL    HW124035   7.648   5.718   1.984  0.9089  0.1275  0.4666
 6963SOL    HW224036   7.651   5.781   2.121 -1.1578 -0.4451  0.8127
 6964SOL     OW24037   7.658   2.224   7.799  0.2088 -0.4105 -0.3561
 6964SOL    HW124038   7.718   2.234   7.873  0.1443  1.6779 -0.5247
 6964SOL    HW224039   7.588   2.167   7.833  0.3577  0.2179  1.1010
 6965SOL     OW24040   1.434   7.674   3.188  0.3168 -0.2091 -0.0310
 6965SOL    HW124041   1.365   7.709   3.244  0.0838 -0.1944 -0.3255
 6965SOL    HW224042   1.513   7.676   3.243 -0.1097 -1.1453  0.6343
 6966SOL     OW24043   4.258   8.037   6.946  0.4396  0.0930 -0.2491
 6966SOL    HW124044   4.218   8.116   6.985  0.8367  0.9172 -1.4607
 6966SOL    HW224045   4.205   8.019   6.869 -0.7505 -1.9260  0.9427
 6967SOL     OW24046   6.271   2.623   6.840  0.0947  0.2380 -0.4267
 6967SOL    HW124047   6.186   2.616   6.797  0.9988  0.6854 -2.3767
 6967SOL    HW224048   6.291   2.533   6.869 -1.4423  0.2958  0.9724
 6968SOL     OW24049   7.554   5.673   7.600 -0.2241  0.0535 -0.7263
 6968SOL    HW124050   7.477   5.731   7.602 -1.5256 -1.5987 -0.5678
 6968SOL    HW224051   7.521   5.589   7.630  1.4275 -0.9917 -1.6971
 6969SOL     OW24052   4.143   0.843   6.968 -0.3976 -0.0211 -0.0408
 6969SOL    HW124053   4.204   0.805   6.905 -1.2654  0.1061 -0.9843
 6969SOL    HW224054   4.137   0.935   6.944  0.5895  0.4282  1.3407
 6970SOL     OW24055   2.042   4.824   7.808 -0.1776  0.4010  0.0214
 6970SOL    HW124056   2.060   4.744   7.858  0.2203  1.1471  1.0889
 6970SOL    HW224057   2.126   4.849   7.771  0.0618  1.3053  1.1576
 6971SOL     OW24058   3.916   2.942   7.342  0.2857  0.3730 -0.0825
 6971SOL    HW124059   3.985   2.998   7.308  0.6474 -0.3045 -0.4875
 6971SOL    HW224060   3.952   2.906   7.423  1.2112 -1.4793 -1.2449
 6972SOL     OW24061   3.316   3.535   3.922  0.1875  0.3157  0.0203
 6972SOL    HW124062   3.373   3.559   3.995  0.9322  0.7887 -0.6995
 6972SOL    HW224063   3.244   3.598   3.925 -1.6432 -1.6843  2.3596
 6973SOL     OW24064   1.539   5.867   5.991  0.0325 -0.3532  0.0697
 6973SOL    HW124065   1.517   5.938   6.051 -0.6019  1.1489 -1.8119
 6973SOL    HW224066   1.460   5.812   5.989 -0.0613 -0.2321  0.3909
 6974SOL     OW24067   6.079   2.481   5.703  0.3926  0.3348  0.0032
 6974SOL    HW124068   6.053   2.459   5.614  1.3735 -0.7894 -0.0301
 6974SOL    HW224069   6.171   2.507   5.695  0.2674  0.9663  0.5779
 6975SOL     OW24070   5.931   6.397   6.954 -0.5555 -0.3344  0.5252
 6975SOL    HW124071   5.887   6.466   6.904 -0.7246 -0.0284  1.0866
 6975SOL    HW224072   5.964   6.442   7.031 -0.0976 -0.7591  0.5766
 6976SOL     OW24073   5.221   0.397   5.250  0.2028  0.2217 -0.4903
 6976SOL    HW124074   5.219   0.492   5.238  0.4672  0.3443  0.3966
 6976SOL    HW224075   5.218   0.384   5.345  3.4086 -0.5376 -0.3932
 6977SOL     OW24076   5.146   5.136   6.484 -0.8027  0.8876 -0.4758
 6977SOL    HW124077   5.107   5.053   6.455 -1.2252  0.0810  2.0951
 6977SOL    HW224078   5.071   5.194   6.497 -0.8469  0.5263  0.9918
 6978SOL     OW24079   7.741   4.158   4.038 -0.3434  0.0463 -0.1934
 6978SOL    HW124080   7.766   4.154   3.946 -0.4869  0.6024 -0.2579
 6978SOL    HW224081   7.776   4.077   4.076 -0.5280 -0.3224 -0.7941
 6979SOL     OW24082   1.065   1.794   1.998 -0.3411  0.0341  0.0986
 6979SOL    HW124083   1.004   1.867   2.008 -1.5274 -0.6098 -1.8475
 6979SOL    HW224084   1.086   1.792   1.905 -0.3123 -2.0576  0.0915
 6980SOL     OW24085   4.412   8.087   0.643 -0.0430 -0.1960 -0.4381
 6980SOL    HW124086   4.406   7.998   0.679 -3.0312 -0.6437 -1.7360
 6980SOL    HW224087   4.324   8.122   0.651  0.6460  2.0130 -1.6270
 6981SOL     OW24088   7.010   4.562   0.208  0.0334 -0.0212  0.0897
 6981SOL    HW124089   7.023   4.651   0.174  0.6722 -0.3180 -0.4724
 6981SOL    HW224090   7.051   4.505   0.142 -0.7991 -0.7662  0.1930
 6982SOL     OW24091   7.425   4.809   6.518 -0.2493 -0.0246  0.1547
 6982SOL    HW124092   7.516   4.794   6.543  0.5416  1.0416 -1.8115
 6982SOL    HW224093   7.388   4.859   6.590 -0.2402 -2.9584  2.4046
 6983SOL     OW24094   6.211   1.607   1.720 -0.4352 -0.1995 -0.1462
 6983SOL    HW124095   6.303   1.620   1.699  0.2771 -2.5806  1.1473
 6983SOL    HW224096   6.177   1.553   1.648 -0.1588 -1.2951  0.5116
 6984SOL     OW24097   0.354   1.761   7.891 -0.1554 -0.3417  0.4607
 6984SOL    HW124098   0.340   1.855   7.878  2.4117  0.3506  2.1070
 6984SOL    HW224099   0.414   1.736   7.821 -1.3712 -0.9835 -0.4015
 6985SOL     OW24100   2.622   7.167   2.519  0.0074 -0.3563 -0.1142
 6985SOL    HW124101   2.610   7.079   2.483  0.2468  0.1172 -1.3994
 6985SOL    HW224102   2.661   7.153   2.605 -0.5309 -1.5236 -0.0470
 6986SOL     OW24103   7.700   3.958   3.499  0.0217 -0.0412  0.6039
 6986SOL    HW124104   7.637   4.031   3.501  0.0858  0.0732 -0.5374
 6986SOL    HW224105   7.657   3.891   3.447  1.6739  0.9088 -2.2214
 6987SOL     OW24106   7.643   1.243   6.528 -0.1734  0.1536 -0.4547
 6987SOL    HW124107   7.673   1.329   6.558  0.5519 -0.0266 -0.6437
 6987SOL    HW224108   7.614   1.258   6.438  1.5830 -0.1209 -1.1062
 6988SOL     OW24109   7.806   5.714   7.736 -0.1154  0.4514 -0.1879
 6988SOL    HW124110   7.711   5.721   7.726 -0.8074 -3.4116  1.7507
 6988SOL    HW224111   7.827   5.772   7.809 -1.1623  0.4736  0.1099
 6989SOL     OW24112   4.945   2.676   7.656  0.0370  0.0477 -0.0668
 6989SOL    HW124113   4.901   2.755   7.624  0.4223  0.7608  1.0896
 6989SOL    HW224114   4.904   2.605   7.608 -0.0871  0.9713 -1.3989
 6990SOL     OW24115   3.085   1.816   0.658 -0.3285  0.0861  0.4009
 6990SOL    HW124116   3.172   1.835   0.623 -0.8693  1.3906 -0.2941
 6990SOL    HW224117   3.062   1.893   0.710 -1.7648  0.5360 -0.8231
 6991SOL     OW24118   6.544   2.653   4.884 -0.2738  0.7731 -0.6081
 6991SOL    HW124119   6.476   2.590   4.906  1.7595 -1.0572  0.8668
 6991SOL    HW224120   6.524   2.730   4.937  0.1304 -0.6821  1.8251
 6992SOL     OW24121   5.554   3.821   1.488  0.2697 -0.0205 -0.7971
 6992SOL    HW124122   5.483   3.773   1.447 -0.3189 -0.3168  0.5124
 6992SOL    HW224123   5.565   3.780   1.574  0.2259  1.7121  0.0815
 6993SOL     OW24124   6.539   3.394   1.692 -0.1847 -0.2972 -0.4144
 6993SOL    HW124125   6.624   3.431   1.714  0.3131 -1.8654  0.4684
 6993SOL    HW224126   6.477   3.466   1.706  0.5180 -0.1794  2.8810
 6994SOL     OW24127   5.809   7.308   3.158  0.1260 -0.0127  0.4397
 6994SOL    HW124128   5.831   7.389   3.111  2.3848 -0.5224  0.4833
 6994SOL    HW224129   5.758   7.336   3.233  0.4069  1.3232  0.1571
 6995SOL     OW24130   3.616   3.773   3.912 -0.0967 -0.1222 -0.2900
 6995SOL    HW124131   3.564   3.776   3.831  0.6802 -1.8653 -0.9044
 6995SOL    HW224132   3.554   3.749   3.980 -0.2871 -1.3201 -0.8613
 6996SOL     OW24133   6.000   2.767   3.239 -0.4574 -0.1616 -0.0987
 6996SOL    HW124134   6.013   2.712   3.162  0.3310  0.6634 -0.5755
 6996SOL    HW224135   6.061   2.840   3.227  0.7426 -0.7455  2.0002
 6997SOL     OW24136   8.009   7.471   0.493 -0.4481 -0.3532  0.3933
 6997SOL    HW124137   8.043   7.393   0.537 -0.6674  0.6992  2.5746
 6997SOL    HW224138   8.003   7.446   0.401  1.5807 -2.1651  0.6690
 6998SOL     OW24139   0.329   5.952   6.998 -0.0874 -0.8679  0.0112
 6998SOL    HW124140   0.347   5.987   6.911 -0.6548 -0.2523  0.1314
 6998SOL    HW224141   0.348   6.025   7.057 -0.6662 -0.9625  0.3204
 6999SOL     OW24142   0.824   5.257   4.148  0.4801 -0.5802 -0.2029
 6999SOL    HW124143   0.911   5.220   4.132  0.2737 -0.6190 -1.3442
 6999SOL    HW224144   0.808   5.314   4.073 -1.2894 -2.1122 -1.0660
 7000SOL     OW24145   3.866   2.925   4.328 -0.0434  0.3523 -0.2699
 7000SOL    HW124146   3.923   2.851   4.306 -2.4585 -1.3397 -1.2179
 7000SOL    HW224147   3.813   2.938   4.249 -1.7604  1.0909  0.9623
 7001SOL     OW24148   7.264   7.091   6.813  0.0372  0.0615 -0.8614
 7001SOL    HW124149   7.279   7.017   6.872 -1.1788 -0.2212 -0.8823
 7001SOL    HW224150   7.348   7.103   6.769  0.2252 -1.4122 -0.9772
 7002SOL     OW24151   6.657   1.394   5.095  0.0740 -0.2196  0.2702
 7002SOL    HW124152   6.673   1.455   5.023 -0.8548  0.5863  0.7254
 7002SOL    HW224153   6.726   1.327   5.085  0.1954  0.0689 -1.1291
 7003SOL     OW24154   4.783   4.471   1.792 -0.3046 -0.1270 -0.1513
 7003SOL    HW124155   4.774   4.383   1.755 -0.0170  0.1637 -0.9450
 7003SOL    HW224156   4.694   4.502   1.804 -0.4620  0.6251 -2.7454
 7004SOL     OW24157   5.575   0.526   1.474  0.4560  0.4757 -0.7294
 7004SOL    HW124158   5.569   0.567   1.560 -0.4322 -1.3367  0.1277
 7004SOL    HW224159   5.503   0.564   1.424  0.1950  0.6175 -0.2502
 7005SOL     OW24160   4.528   2.789   5.033 -0.0987  0.4253 -0.9498
 7005SOL    HW124161   4.538   2.854   5.102 -0.9231 -0.8432  0.4337
 7005SOL    HW224162   4.513   2.840   4.953 -1.6972  1.9514  0.2446
 7006SOL     OW24163   6.407   1.186   3.396 -0.0928  1.1236 -0.4085
 7006SOL    HW124164   6.427   1.095   3.376 -1.1852  0.5893  0.7521
 7006SOL    HW224165   6.431   1.196   3.488 -1.0078  1.6802 -0.2173
 7007SOL     OW24166   0.390   7.208   2.319 -0.3163  0.1255  0.0405
 7007SOL    HW124167   0.473   7.161   2.320 -0.4843 -0.1949  1.7166
 7007SOL    HW224168   0.330   7.151   2.367 -1.4730  0.4186 -1.0082
 7008SOL     OW24169   0.261   6.234   1.472  0.3298  0.2128 -0.2997
 7008SOL    HW124170   0.241   6.147   1.437  0.6240  0.3651 -0.8695
 7008SOL    HW224171   0.356   6.235   1.482  0.4961  0.9502 -1.6745
 7009SOL     OW24172   2.125   7.309   5.373  0.0981 -0.4083 -0.0247
 7009SOL    HW124173   2.171   7.392   5.362  1.6371 -1.5110 -3.3258
 7009SOL    HW224174   2.035   7.327   5.347  0.1713  0.4599  0.3182
 7010SOL     OW24175   3.002   3.723   3.654  0.2274  0.4587  0.2316
 7010SOL    HW124176   3.030   3.769   3.734 -0.2132  0.0043  0.6567
 7010SOL    HW224177   2.933   3.778   3.618  1.1314  1.2063 -0.4235
 7011SOL     OW24178   1.640   5.811   0.598  0.9332  0.6780  0.0588
 7011SOL    HW124179   1.596   5.874   0.655  0.3066  1.9422 -1.7279
 7011SOL    HW224180   1.732   5.836   0.600  0.7733  1.2960 -0.1851
 7012SOL     OW24181   1.463   0.305   5.554  0.0683  0.7239  0.1959
 7012SOL    HW124182   1.382   0.261   5.527  0.0436  0.4007  0.7915
 7012SOL    HW224183   1.436   0.394   5.576  0.2212  1.2722 -1.6504
 7013SOL     OW24184   0.289   4.199   6.067 -0.0999 -0.7066  0.0837
 7013SOL    HW124185   0.243   4.277   6.035  0.3417 -1.0929 -1.5865
 7013SOL    HW224186   0.219   4.137   6.088 -0.4315 -0.1010  0.7806
 7014SOL     OW24187   5.635   4.463   3.203 -0.1953 -0.0752  0.0491
 7014SOL    HW124188   5.625   4.425   3.116  1.4843 -0.2223 -0.1088
 7014SOL    HW224189   5.718   4.509   3.199 -0.1678  0.0326  1.5365
 7015SOL     OW24190   6.906   4.022   3.042 -0.2555 -0.1571  0.6333
 7015SOL    HW124191   6.852   3.947   3.068  0.3842  0.0219  2.5777
 7015SOL    HW224192   6.948   3.993   2.960 -2.7491 -0.5311 -0.6240
 7016SOL     OW24193   3.515   8.044   1.577  0.0216 -0.1914 -0.2057
 7016SOL    HW124194   3.431   7.999   1.566  0.2090 -0.6394  0.1436
 7016SOL    HW224195   3.581   7.979   1.553  0.3388 -0.4521  1.2554
 7017SOL     OW24196   6.348   5.403   1.484 -0.5571  0.1023  0.0963
 7017SOL    HW124197   6.306   5.318   1.495  0.0030  0.0108  1.9932
 7017SOL    HW224198   6.277   5.463   1.460 -1.7906 -0.1175  2.8406
 7018SOL     OW24199   5.106   5.408   0.336  1.0097 -0.1258  0.6280
 7018SOL    HW124200   5.126   5.320   0.368 -0.2312 -0.6083  0.1374
 7018SOL    HW224201   5.040   5.441   0.397  0.5331 -0.0381  0.0719
 7019SOL     OW24202   2.410   0.370   7.423 -0.1430 -0.3786  0.5891
 7019SOL    HW124203   2.335   0.414   7.383  0.6660  1.6476  1.1553
 7019SOL    HW224204   2.432   0.300   7.361 -2.3806 -0.9691  0.3590
 7020SOL     OW24205   5.284   5.520   0.825 -0.4605 -0.0739 -0.9112
 7020SOL    HW124206   5.231   5.599   0.835  0.5884  0.9258 -2.7427
 7020SOL    HW224207   5.231   5.462   0.770 -1.0985 -0.5714  0.1824
 7021SOL     OW24208   0.407   6.467   3.909  0.2658 -0.3978 -0.3840
 7021SOL    HW124209   0.501   6.454   3.898  0.2196 -1.0046 -0.1258
 7021SOL    HW224210   0.397   6.488   4.002  0.2237  0.4878 -0.5784
 7022SOL     OW24211   7.675   2.873   3.161  0.2484 -0.2499  0.5146
 7022SOL    HW124212   7.751   2.826   3.194  1.3093  0.5913 -0.6252
 7022SOL    HW224213   7.639   2.919   3.237  1.9062  0.6975  0.7751
 7023SOL     OW24214   1.670   5.330   5.039  0.4662 -0.3321  0.2268
 7023SOL    HW124215   1.734   5.369   5.098  2.4782  0.6457 -2.4519
 7023SOL    HW224216   1.585   5.349   5.080  1.6386  2.1873  1.7091
 7024SOL     OW24217   0.843   3.087   0.094 -0.1352  0.0084  0.6221
 7024SOL    HW124218   0.851   3.165   0.148 -1.7862 -0.4521  1.6065
 7024SOL    HW224219   0.870   3.015   0.151 -0.9518 -0.3877  0.5172
 7025SOL     OW24220   1.093   5.449   4.223 -0.0156  0.0772  0.3228
 7025SOL    HW124221   1.064   5.372   4.271  0.0863  1.0121  1.9909
 7025SOL    HW224222   1.013   5.497   4.203 -0.2621 -1.3252 -2.4101
 7026SOL     OW24223   1.703   0.812   2.401  0.3546 -0.1091 -0.3571
 7026SOL    HW124224   1.644   0.880   2.368  0.0305  0.5291  1.4051
 7026SOL    HW224225   1.692   0.816   2.496 -1.4256 -4.1772 -0.2010
 7027SOL     OW24226   0.733   4.701   1.591 -0.3109  0.4579 -0.3417
 7027SOL    HW124227   0.774   4.787   1.584 -0.5620  0.5081 -1.4311
 7027SOL    HW224228   0.645   4.719   1.626 -0.2512  0.6073 -0.2679
 7028SOL     OW24229   0.481   1.071   3.619 -0.0834  0.3313 -0.3226
 7028SOL    HW124230   0.571   1.097   3.599 -0.1139 -0.4950 -1.6613
 7028SOL    HW224231   0.485   1.039   3.708  0.8294  0.8455 -0.1621
 7029SOL     OW24232   5.708   0.176   3.685 -0.4662 -0.3063  0.2016
 7029SOL    HW124233   5.667   0.098   3.647  0.0009 -1.4000  1.8533
 7029SOL    HW224234   5.793   0.146   3.715 -0.3282  0.8194  1.0002
 7030SOL     OW24235   4.591   1.865   0.148  0.0940  0.1214 -0.0792
 7030SOL    HW124236   4.675   1.882   0.190  0.8367  0.1694 -1.5256
 7030SOL    HW224237   4.614   1.819   0.067 -1.1823  1.0965 -1.0243
 7031SOL     OW24238   2.115   6.527   2.310 -0.3969 -0.2530  0.1726
 7031SOL    HW124239   2.111   6.594   2.242 -0.3313 -2.4363 -2.1224
 7031SOL    HW224240   2.193   6.550   2.362  1.2610 -0.0374 -2.2496
 7032SOL     OW24241   3.147   5.254   0.768 -0.5068 -0.3116  0.3257
 7032SOL    HW124242   3.230   5.225   0.729 -1.3638 -1.0656 -0.9897
 7032SOL    HW224243   3.091   5.274   0.693 -1.4235  0.4871  1.2070
 7033SOL     OW24244   6.102   6.746   3.722 -0.3678  0.1053  0.1620
 7033SOL    HW124245   6.093   6.746   3.626  0.1263  1.6850  0.0880
 7033SOL    HW224246   6.089   6.837   3.747  0.4333 -0.1277  1.5182
 7034SOL     OW24247   2.072   0.152   1.501  0.0658  0.5849 -0.6214
 7034SOL    HW124248   2.167   0.164   1.507 -0.1116  1.6354  0.3434
 7034SOL    HW224249   2.037   0.201   1.575 -1.1529 -0.9133 -0.1633
 7035SOL     OW24250   4.649   6.248   0.041 -0.6355  0.3828 -0.3563
 7035SOL    HW124251   4.615   6.163   0.010 -0.9538  1.0325 -1.9108
 7035SOL    HW224252   4.739   6.230   0.067 -1.4505 -0.9419  1.8358
 7036SOL     OW24253   0.023   6.432   0.320  0.1478 -0.7128 -0.2084
 7036SOL    HW124254  -0.056   6.484   0.330  1.4603  1.0234  1.7765
 7036SOL    HW224255   0.092   6.484   0.359  2.2313 -2.3908 -1.4149
 7037SOL     OW24256   8.022   5.808   4.089  0.3124  0.1593  0.1888
 7037SOL    HW124257   7.938   5.853   4.092  0.5931  0.7496 -0.4719
 7037SOL    HW224258   8.013   5.743   4.019  0.3528  0.1091  0.2296
 7038SOL     OW24259   1.074   3.186   4.238  0.1644 -1.0325 -0.3864
 7038SOL    HW124260   1.037   3.273   4.220  1.9110 -0.1029  0.3320
 7038SOL    HW224261   1.029   3.128   4.176 -1.7135  0.1931 -0.2622
 7039SOL     OW24262   2.622   6.503   7.629 -0.5213  0.5214 -0.0490
 7039SOL    HW124263   2.550   6.527   7.687 -0.2506 -0.0003  0.5096
 7039SOL    HW224264   2.599   6.416   7.597 -0.0386  0.2598  0.3046
 7040SOL     OW24265   0.428   6.329   7.626  0.2394 -1.0020 -0.6789
 7040SOL    HW124266   0.336   6.352   7.618  0.3734  0.7692  1.7613
 7040SOL    HW224267   0.429   6.234   7.637 -1.2535 -1.0908 -1.2319
 7041SOL     OW24268   5.901   3.700   8.041 -0.0553  0.2247  0.0372
 7041SOL    HW124269   5.890   3.717   8.135  0.1531 -0.7857  0.2549
 7041SOL    HW224270   5.835   3.756   7.999 -0.6058  0.1937  0.8269
 7042SOL     OW24271   6.429   6.768   1.586  0.5654 -0.7408 -0.0687
 7042SOL    HW124272   6.374   6.736   1.658 -1.4609  2.4781  0.0565
 7042SOL    HW224273   6.411   6.709   1.513 -2.1240 -0.6496  0.4006
 7043SOL     OW24274   2.398   7.090   0.426  0.2461 -0.2641 -0.7170
 7043SOL    HW124275   2.383   7.128   0.512  1.1618  0.0795 -0.7007
 7043SOL    HW224276   2.332   7.022   0.418  1.3827 -1.6554  1.0654
 7044SOL     OW24277   3.510   7.451   1.513  0.1365 -0.4197 -0.4576
 7044SOL    HW124278   3.453   7.375   1.518 -1.5494  0.8622  1.8956
 7044SOL    HW224279   3.562   7.437   1.434  0.3285 -4.2357  0.1680
 7045SOL     OW24280   3.174   4.400   6.599  0.6255 -0.5307 -0.0617
 7045SOL    HW124281   3.183   4.479   6.652  2.5420 -0.6418 -0.1610
 7045SOL    HW224282   3.090   4.362   6.626  0.8146  0.2465  1.7413
 7046SOL     OW24283   5.882   4.994   3.309 -0.7658  0.3022 -0.0928
 7046SOL    HW124284   5.953   4.945   3.350 -1.1455 -0.0729  0.1170
 7046SOL    HW224285   5.909   5.085   3.315 -0.2923  0.1603 -0.0318
 7047SOL     OW24286   2.951   4.423   0.857  0.4385 -0.0167  0.5321
 7047SOL    HW124287   2.917   4.440   0.769 -0.0311 -0.6273  0.5840
 7047SOL    HW224288   2.880   4.375   0.900 -0.8944  3.3692  2.4749
 7048SOL     OW24289   1.166   6.975   5.666 -0.0046  0.2462  0.1563
 7048SOL    HW124290   1.158   6.973   5.762  0.6432 -2.0457  0.2329
 7048SOL    HW224291   1.099   7.036   5.638 -1.3596 -0.3006  1.9935
 7049SOL     OW24292   1.156   1.479   5.489  0.7253  0.3531  0.0887
 7049SOL    HW124293   1.089   1.421   5.452  0.8601  0.6730 -0.6805
 7049SOL    HW224294   1.175   1.443   5.576 -2.0587  1.4884  1.3038
 7050SOL     OW24295   5.447   2.070   7.247 -0.3819 -0.2245 -0.4380
 7050SOL    HW124296   5.528   2.020   7.240  0.0419  0.1303  1.2670
 7050SOL    HW224297   5.457   2.141   7.184 -0.6325 -1.7442 -2.2815
 7051SOL     OW24298   0.859   4.519   7.835  0.5635  0.0319  0.3509
 7051SOL    HW124299   0.898   4.440   7.872  0.6194 -0.1180 -0.0308
 7051SOL    HW224300   0.813   4.559   7.909 -1.4672 -1.5710  0.0392
 7052SOL     OW24301   3.828   5.960   0.037  0.2268  0.7391 -0.3683
 7052SOL    HW124302   3.839   6.048   0.003  0.0192  0.9219  0.0232
 7052SOL    HW224303   3.777   5.972   0.118  1.1742  0.3872  0.3029
 7053SOL     OW24304   1.888   0.328   2.544  0.4205 -0.2621 -0.5493
 7053SOL    HW124305   1.852   0.414   2.525  0.9341  0.2358  0.6538
 7053SOL    HW224306   1.859   0.273   2.470  1.1983  1.2187 -2.0197
 7054SOL     OW24307   7.249   0.590   6.581 -0.1075  0.3526 -0.0707
 7054SOL    HW124308   7.160   0.611   6.552 -0.9032 -0.0262  1.8732
 7054SOL    HW224309   7.306   0.630   6.516 -1.6985  0.5937 -1.3906
 7055SOL     OW24310   2.660   2.022   0.872 -0.5798  0.4766  0.2187
 7055SOL    HW124311   2.671   2.086   0.801 -2.1042  0.4024 -0.1163
 7055SOL    HW224312   2.699   1.942   0.838 -4.0581 -0.5234 -1.9785
 7056SOL     OW24313   1.659   3.951   2.930  0.4860  0.0807  0.2770
 7056SOL    HW124314   1.606   3.989   3.001 -0.4436 -0.2874 -0.1962
 7056SOL    HW224315   1.736   3.916   2.974  0.5508  1.0218  0.9356
 7057SOL     OW24316   5.887   5.183   3.794  0.3647  0.2447  1.0387
 7057SOL    HW124317   5.821   5.115   3.779  0.0488  0.8355 -0.4892
 7057SOL    HW224318   5.964   5.152   3.746  1.3812 -0.6190  3.1129
 7058SOL     OW24319   1.392   4.507   3.400  0.3993 -0.3775  0.4269
 7058SOL    HW124320   1.302   4.502   3.432  0.0804 -0.6684 -0.4841
 7058SOL    HW224321   1.420   4.415   3.395  0.6103 -0.3082  0.3341
 7059SOL     OW24322   7.973   7.735   7.996  0.1886  0.2369 -0.4861
 7059SOL    HW124323   7.879   7.716   7.995 -0.2194  2.0912 -0.2867
 7059SOL    HW224324   8.011   7.664   7.945 -1.1870 -1.1314  0.2832
 7060SOL     OW24325   1.853   5.713   5.162  0.0731  0.2548  0.5622
 7060SOL    HW124326   1.862   5.740   5.254  2.4889 -0.0648  0.4766
 7060SOL    HW224327   1.896   5.783   5.113 -0.0006 -0.2507 -0.2267
 7061SOL     OW24328   5.610   3.098   1.580 -0.3968 -0.5845 -0.1123
 7061SOL    HW124329   5.559   3.032   1.534 -0.4961 -0.6088  0.0306
 7061SOL    HW224330   5.690   3.053   1.608  0.2248 -0.2583 -1.3136
 7062SOL     OW24331   1.754   4.004   2.287  0.0695 -0.3636 -0.2035
 7062SOL    HW124332   1.682   3.975   2.232 -0.1772  0.4806 -0.3484
 7062SOL    HW224333   1.712   4.037   2.367  0.3909 -1.1387  0.2989
 7063SOL     OW24334   7.248   1.821   6.899 -0.2709  0.4280 -0.0539
 7063SOL    HW124335   7.321   1.856   6.949 -0.1755 -0.7527  0.6735
 7063SOL    HW224336   7.268   1.728   6.888 -1.0044  0.3701 -1.0273
 7064SOL     OW24337   1.924   5.477   3.026 -0.0379  0.6332 -0.1724
 7064SOL    HW124338   1.984   5.423   3.076  0.7302  2.9357  1.5702
 7064SOL    HW224339   1.973   5.502   2.948 -0.0911 -0.4375 -0.5571
 7065SOL     OW24340   6.141   1.490   6.919 -0.0282  0.6527  0.3601
 7065SOL    HW124341   6.171   1.434   6.848  1.6662  2.2066 -0.2210
 7065SOL    HW224342   6.165   1.443   6.999  0.3335  0.0364 -0.1076
 7066SOL     OW24343   1.567   1.936   2.367  0.0414  0.1307 -0.0562
 7066SOL    HW124344   1.485   1.943   2.318  0.0531 -0.3947 -0.1562
 7066SOL    HW224345   1.555   1.994   2.443  0.6727  2.3134 -1.5286
 7067SOL     OW24346   6.354   8.073   7.114  0.0974 -0.0696  0.0907
 7067SOL    HW124347   6.381   7.997   7.166  0.5831 -1.5377 -2.1568
 7067SOL    HW224348   6.436   8.116   7.090 -0.1301  0.6554  0.5581
 7068SOL     OW24349   4.979   3.483   3.288 -0.4860  0.7772 -0.0673
 7068SOL    HW124350   4.956   3.464   3.379  0.1210  0.6407  0.0630
 7068SOL    HW224351   5.069   3.451   3.279 -0.2842  1.4603 -0.5116
 7069SOL     OW24352   7.481   7.778   1.263  0.1785  0.0966  0.3991
 7069SOL    HW124353   7.547   7.777   1.194  1.4465 -0.4559  1.5532
 7069SOL    HW224354   7.463   7.686   1.281 -3.0217  0.1440 -1.7286
 7070SOL     OW24355   7.913   5.175   7.939  0.5055 -0.1935  0.1876
 7070SOL    HW124356   7.840   5.200   7.994 -0.1764  0.1453 -0.8427
 7070SOL    HW224357   7.929   5.252   7.884 -0.0834 -1.1520 -1.3871
 7071SOL     OW24358   6.353   4.414   5.641 -0.0459 -0.2906 -0.5095
 7071SOL    HW124359   6.307   4.345   5.593 -0.7002 -0.4908  0.3799
 7071SOL    HW224360   6.442   4.413   5.605 -0.4022 -0.7371 -1.3891
 7072SOL     OW24361   2.033   5.754   3.219 -0.2051 -0.2407 -0.4208
 7072SOL    HW124362   2.045   5.682   3.158  2.0442  1.2609 -1.9169
 7072SOL    HW224363   2.111   5.750   3.275 -0.9841 -0.0619  0.7020
 7073SOL     OW24364   3.176   0.112   7.662  0.1357 -0.1546  0.6458
 7073SOL    HW124365   3.212   0.133   7.748  1.8496 -1.2895  0.2629
 7073SOL    HW224366   3.178   0.017   7.657 -2.2577 -0.2483  0.2525
 7074SOL     OW24367   0.002   0.871   6.900 -0.2776  0.5758 -0.1810
 7074SOL    HW124368   0.043   0.921   6.829  2.5659 -1.7356 -0.3392
 7074SOL    HW224369   0.011   0.926   6.977 -1.3046  2.1317 -1.1155
 7075SOL     OW24370   2.260   2.230   5.479  0.7512 -0.2241 -0.0413
 7075SOL    HW124371   2.205   2.306   5.457  0.1964 -0.9821 -1.4291
 7075SOL    HW224372   2.340   2.268   5.515 -0.7843  0.9057  2.4369
 7076SOL     OW24373   2.581   5.466   1.683 -0.8181  0.2564  0.1962
 7076SOL    HW124374   2.528   5.446   1.605 -0.0150  0.8357 -0.5124
 7076SOL    HW224375   2.571   5.560   1.695  1.5939  0.7777 -1.1637
 7077SOL     OW24376   1.531   1.817   1.596 -0.1822 -0.3567 -0.2335
 7077SOL    HW124377   1.536   1.821   1.691  1.0470  0.9000 -0.3189
 7077SOL    HW224378   1.442   1.785   1.578 -0.4114 -0.6774  1.3186
 7078SOL     OW24379   8.010   7.231   2.722  0.3030  0.1081 -0.0675
 7078SOL    HW124380   8.004   7.326   2.716 -2.0407  0.0781  0.4600
 7078SOL    HW224381   8.086   7.215   2.778  1.2533  1.6055 -0.8669
 7079SOL     OW24382   4.682   2.054   3.736 -0.2756  0.1500 -0.4017
 7079SOL    HW124383   4.674   2.146   3.711 -0.0446  0.3438  0.2079
 7079SOL    HW224384   4.758   2.052   3.795 -1.9964  0.1067  1.9492
 7080SOL     OW24385   6.175   5.093   7.075  0.4821  0.1809 -0.1173
 7080SOL    HW124386   6.181   5.023   7.139  5.2853 -0.0515 -0.4550
 7080SOL    HW224387   6.159   5.172   7.126  0.3391 -0.4730  0.8678
 7081SOL     OW24388   0.990   3.204   4.785 -0.4497  0.2431  0.1373
 7081SOL    HW124389   0.957   3.116   4.767 -1.0784  0.3600  0.6880
 7081SOL    HW224390   1.020   3.201   4.875  0.2820  0.3717 -0.0989
 7082SOL     OW24391   4.499   5.321   0.478 -0.3733  0.1454 -0.1013
 7082SOL    HW124392   4.544   5.313   0.394 -0.1101  0.7217 -0.0211
 7082SOL    HW224393   4.407   5.311   0.456 -0.2886  0.0386 -0.4233
 7083SOL     OW24394   4.506   1.353   0.083 -0.1178 -0.3237  0.2852
 7083SOL    HW124395   4.596   1.354   0.052  0.2256 -0.6153  1.2284
 7083SOL    HW224396   4.508   1.297   0.161 -1.3693 -1.4145 -0.4218
 7084SOL     OW24397   2.471   1.554   2.730 -0.1300  0.2547  0.4766
 7084SOL    HW124398   2.557   1.514   2.718 -0.1940 -0.5870  2.4268
 7084SOL    HW224399   2.489   1.644   2.757  0.0876  0.5249 -0.5421
 7085SOL     OW24400   2.874   7.835   7.218 -0.0937 -0.3837  0.1604
 7085SOL    HW124401   2.946   7.891   7.188 -1.8457  2.7162  1.2253
 7085SOL    HW224402   2.917   7.761   7.261  2.3879 -0.2006 -1.7861
 7086SOL     OW24403   2.540   4.515   1.948  0.4651 -0.0248  0.2895
 7086SOL    HW124404   2.538   4.563   1.865 -1.0368  1.6532  1.2174
 7086SOL    HW224405   2.480   4.441   1.934  2.7497 -1.7463 -1.1358
 7087SOL     OW24406   3.642   2.420   1.405  0.1436 -0.4979 -0.2249
 7087SOL    HW124407   3.615   2.388   1.319  0.3027  0.2033 -0.5366
 7087SOL    HW224408   3.737   2.429   1.399  0.0777  0.2606 -0.2222
 7088SOL     OW24409   0.748   2.043   3.004  0.4138  0.1998  0.0767
 7088SOL    HW124410   0.688   1.975   3.036  0.7184 -0.0680  0.0875
 7088SOL    HW224411   0.697   2.124   3.009  0.1383  0.0153  0.3281
 7089SOL     OW24412   1.687   7.267   7.186  0.2462 -0.4968  0.8462
 7089SOL    HW124413   1.735   7.257   7.268  0.8155 -1.0648  0.4539
 7089SOL    HW224414   1.596   7.278   7.212  0.5290  0.1691  1.5827
 7090SOL     OW24415   2.661   0.929   1.467 -0.5805 -0.4420  0.2804
 7090SOL    HW124416   2.574   0.897   1.493 -0.3921 -1.1620  0.0436
 7090SOL    HW224417   2.642   1.006   1.413 -1.1083 -0.9413 -0.2715
 7091SOL     OW24418   6.119   1.977   4.107  1.0395 -0.3218 -0.0087
 7091SOL    HW124419   6.072   1.944   4.031 -0.0095  0.6028  0.2126
 7091SOL    HW224420   6.052   2.021   4.160  1.7637 -0.8159  1.3782
 7092SOL     OW24421   4.109   7.401   1.250 -0.2566  0.1355  0.2973
 7092SOL    HW124422   4.134   7.312   1.276 -2.0928 -0.0972  1.3839
 7092SOL    HW224423   4.175   7.426   1.185 -0.3049 -2.4304 -0.8572
 7093SOL     OW24424   2.033   0.720   4.528 -0.2911  0.4805  0.1991
 7093SOL    HW124425   2.006   0.809   4.551  1.9557  1.8218 -1.7407
 7093SOL    HW224426   1.953   0.677   4.498 -1.2097  2.3762 -0.2359
 7094SOL     OW24427   4.574   1.579   0.748 -0.2421 -0.0876 -0.4958
 7094SOL    HW124428   4.544   1.666   0.721 -0.3517 -0.0449 -0.2408
 7094SOL    HW224429   4.666   1.590   0.768 -0.3506  0.0567 -0.0820
 7095SOL     OW24430   4.521   4.686   3.425  0.0565 -0.0908 -0.1707
 7095SOL    HW124431   4.578   4.650   3.357 -0.8415  0.7322 -1.3956
 7095SOL    HW224432   4.565   4.664   3.508  1.3177 -0.8538 -1.0175
 7096SOL     OW24433   3.732   4.773   6.490 -0.4433 -0.4243  0.3405
 7096SOL    HW124434   3.699   4.693   6.531 -1.1661  0.1548  0.9118
 7096SOL    HW224435   3.827   4.764   6.492 -0.5266 -1.6815 -0.4343
 7097SOL     OW24436   2.131   2.276   3.551  0.1807 -0.5468  0.3815
 7097SOL    HW124437   2.211   2.225   3.543 -0.0057 -1.1828  2.1586
 7097SOL    HW224438   2.148   2.355   3.499  1.8147 -0.8250  0.4399
 7098SOL     OW24439   4.142   1.147   5.979 -0.5149 -0.2475 -0.1441
 7098SOL    HW124440   4.077   1.088   6.016  0.2496 -0.4746  0.8725
 7098SOL    HW224441   4.120   1.233   6.013 -0.7168 -0.1971 -0.3976
 7099SOL     OW24442   0.915   5.274   3.187 -0.4072 -0.0835  0.1034
 7099SOL    HW124443   1.008   5.276   3.208 -0.5976  0.2827  0.9632
 7099SOL    HW224444   0.911   5.252   3.094  0.5361 -0.0090  0.0430
 7100SOL     OW24445   6.015   4.049   7.522 -0.5607  0.0333  0.0842
 7100SOL    HW124446   6.033   4.133   7.564 -0.4138  0.1467 -0.2018
 7100SOL    HW224447   5.959   4.003   7.584 -1.1978  0.6112 -0.0556
 7101SOL     OW24448   5.002   1.438   6.901  0.0778 -0.6371  0.0347
 7101SOL    HW124449   4.911   1.458   6.878 -0.3063 -0.9094  1.2451
 7101SOL    HW224450   4.996   1.359   6.955  1.1224 -1.1707 -0.6108
 7102SOL     OW24451   7.377   1.513   1.188  0.2757  0.4934 -0.6244
 7102SOL    HW124452   7.294   1.554   1.213 -1.4688 -1.6785 -2.4435
 7102SOL    HW224453   7.424   1.501   1.270 -0.8341  2.4870  0.3710
 7103SOL     OW24454   5.634   1.213   0.808 -0.5744 -0.0095 -0.4726
 7103SOL    HW124455   5.643   1.197   0.714  0.3586 -1.3069 -0.1882
 7103SOL    HW224456   5.578   1.141   0.839 -0.0457 -0.1707  0.1223
 7104SOL     OW24457   3.495   1.832   2.332 -0.3540  0.3010 -0.1266
 7104SOL    HW124458   3.448   1.764   2.284 -0.8240  0.0563  0.6459
 7104SOL    HW224459   3.586   1.821   2.307 -0.2605 -1.3025  0.7302
 7105SOL     OW24460   6.366   3.239   5.970  0.1447  0.3739  0.5909
 7105SOL    HW124461   6.402   3.150   5.964  0.6320  0.4539  1.9345
 7105SOL    HW224462   6.439   3.293   6.000 -0.3629  1.0818  0.5857
 7106SOL     OW24463   5.609   7.994   7.076 -0.0398 -0.5524  0.3436
 7106SOL    HW124464   5.609   8.017   7.169  0.9289  1.5536 -0.1045
 7106SOL    HW224465   5.701   8.002   7.050 -0.4413 -0.1404 -0.9995
 7107SOL     OW24466   0.448   7.643   1.418  0.0110  0.3206  0.0991
 7107SOL    HW124467   0.543   7.648   1.423 -0.1266  2.3216  1.7423
 7107SOL    HW224468   0.427   7.666   1.327  1.0718 -0.4302 -0.3581
 7108SOL     OW24469   0.084   0.064   5.443  0.0449 -0.0474  0.3113
 7108SOL    HW124470   0.143   0.009   5.392  0.0308 -0.0982  0.3504
 7108SOL    HW224471  -0.003   0.030   5.424  0.1405 -1.1259  1.6244
 7109SOL     OW24472   2.287   6.322   4.084  0.0033 -0.9877 -0.2163
 7109SOL    HW124473   2.255   6.232   4.077  0.4885 -1.2352  0.5658
 7109SOL    HW224474   2.375   6.320   4.045  0.5344 -1.1571  0.9557
 7110SOL     OW24475   3.981   0.543   3.409  0.3851 -0.2464  0.5107
 7110SOL    HW124476   4.038   0.568   3.483 -1.1013  0.5105  1.4538
 7110SOL    HW224477   3.938   0.463   3.438 -0.7513  0.4443  0.8230
 7111SOL     OW24478   0.714   6.179   0.977  0.7923  0.3334 -0.1541
 7111SOL    HW124479   0.664   6.101   0.956 -0.3575  0.8628  0.5311
 7111SOL    HW224480   0.755   6.160   1.061  1.7194 -0.0670 -0.6745
 7112SOL     OW24481   1.605   7.409   2.230  0.2771 -0.2960  0.1672
 7112SOL    HW124482   1.530   7.369   2.273 -0.8147  0.3303 -1.1113
 7112SOL    HW224483   1.658   7.335   2.200 -0.1849 -0.7492  0.4514
 7113SOL     OW24484   3.725   2.285   5.988 -0.8946  0.2668  0.4529
 7113SOL    HW124485   3.732   2.357   5.925 -2.5199  0.8309  0.8737
 7113SOL    HW224486   3.747   2.326   6.072 -1.7187  0.2615  0.6776
 7114SOL     OW24487   6.425   2.441   6.369  0.1163 -0.1294 -0.4839
 7114SOL    HW124488   6.383   2.450   6.284 -0.2999 -0.4576 -0.3144
 7114SOL    HW224489   6.385   2.510   6.423  0.6213  0.2971 -0.6451
 7115SOL     OW24490   1.449   7.179   3.085  0.1343 -0.2919 -0.1840
 7115SOL    HW124491   1.525   7.228   3.055  0.1016 -0.4576 -0.5537
 7115SOL    HW224492   1.391   7.177   3.008  0.0010 -0.6389 -0.0770
 7116SOL     OW24493   3.109   0.057   1.676 -0.3587  0.1273 -0.1601
 7116SOL    HW124494   3.154   0.095   1.601 -0.3177 -1.0316 -0.7439
 7116SOL    HW224495   3.106  -0.037   1.658 -0.0016 -0.2347  1.4808
 7117SOL     OW24496   6.825   0.359   4.239 -0.0724  0.3386  0.0633
 7117SOL    HW124497   6.796   0.315   4.159  0.5893  1.1993 -0.6612
 7117SOL    HW224498   6.748   0.357   4.296 -0.6464 -0.0124 -0.7041
 7118SOL     OW24499   5.939   0.653   6.461  0.1010 -0.9914  0.6546
 7118SOL    HW124500   6.013   0.594   6.446  0.2070 -0.5869 -0.5157
 7118SOL    HW224501   5.908   0.631   6.548  1.4408 -1.3467  1.0593
 7119SOL     OW24502   2.935   0.274   5.816 -0.2194  0.6867 -0.2608
 7119SOL    HW124503   2.943   0.352   5.871 -0.0263  0.1784  0.4579
 7119SOL    HW224504   2.843   0.247   5.826  0.2512 -0.4709  1.3459
 7120SOL     OW24505   6.285   4.176   1.011  0.4221 -0.2501 -0.4691
 7120SOL    HW124506   6.260   4.229   0.935  0.1569  0.0819 -0.1541
 7120SOL    HW224507   6.321   4.239   1.074  1.1888 -0.5987 -0.5467
 7121SOL     OW24508   2.745   6.214   1.435 -0.6665  0.2645  0.1778
 7121SOL    HW124509   2.657   6.230   1.469 -1.0508  0.3101 -0.7896
 7121SOL    HW224510   2.783   6.302   1.426 -0.9178  0.3228 -0.3848
 7122SOL     OW24511   0.101   7.026   5.069 -0.0858 -0.8277  0.2927
 7122SOL    HW124512   0.153   6.947   5.057  1.0103 -0.0591 -0.2000
 7122SOL    HW224513   0.157   7.084   5.121 -0.5034 -0.0409 -0.1114
 7123SOL     OW24514   6.221   2.441   2.397 -0.4098  0.3246  0.2238
 7123SOL    HW124515   6.215   2.464   2.490 -1.8184  0.0526  0.2184
 7123SOL    HW224516   6.300   2.486   2.366  0.1439  0.3119  1.5729
 7124SOL     OW24517   3.839   3.884   2.029 -1.0789 -0.0816  0.0642
 7124SOL    HW124518   3.921   3.909   2.073 -0.8675 -0.7279  0.0502
 7124SOL    HW224519   3.774   3.881   2.099 -1.4202  1.7694 -0.1210
 7125SOL     OW24520   6.972   7.486   4.787  0.1144 -0.5520 -0.7707
 7125SOL    HW124521   6.899   7.470   4.847  0.8327 -1.1840 -0.0230
 7125SOL    HW224522   6.932   7.488   4.700 -0.9891  0.6479 -0.2693
 7126SOL     OW24523   7.706   4.766   7.938 -0.5014  0.4741  0.4114
 7126SOL    HW124524   7.781   4.820   7.913 -0.0011  0.1470  1.1535
 7126SOL    HW224525   7.728   4.734   8.026  0.4735 -3.1403 -0.9662
 7127SOL     OW24526   6.218   2.188   5.989  0.9922 -0.2995 -1.2316
 7127SOL    HW124527   6.296   2.242   6.001 -0.9792  2.6543 -0.4759
 7127SOL    HW224528   6.199   2.154   6.077  0.7799  0.0186 -1.1501
 7128SOL     OW24529   2.387   3.291   5.282  0.7497  0.1816 -0.6451
 7128SOL    HW124530   2.404   3.225   5.350 -0.7193  0.0727 -0.3417
 7128SOL    HW224531   2.292   3.289   5.271  0.7661  1.6769 -1.2331
 7129SOL     OW24532   7.872   7.583   6.340 -0.7492 -0.0101  0.3587
 7129SOL    HW124533   7.943   7.601   6.278 -0.8843  0.5497  0.3648
 7129SOL    HW224534   7.911   7.602   6.426 -0.8543  0.1403  0.3737
 7130SOL     OW24535   6.083   0.862   4.007 -0.2439 -0.3986 -0.0887
 7130SOL    HW124536   6.022   0.827   4.072 -0.4353  1.7430  0.9687
 7130SOL    HW224537   6.155   0.897   4.059  0.0045  0.6152 -1.0832
 7131SOL     OW24538   0.705   1.390   2.209  0.3720  0.1565  0.1201
 7131SOL    HW124539   0.752   1.344   2.140 -0.1161 -2.4001  1.3332
 7131SOL    HW224540   0.702   1.327   2.281 -0.6871  2.0322  1.8233
 7132SOL     OW24541   0.481   5.775   3.241  0.3989  0.4573  0.0685
 7132SOL    HW124542   0.440   5.779   3.327  1.2379 -0.7830  0.5523
 7132SOL    HW224543   0.567   5.815   3.253  1.5606 -1.9696  0.5070
 7133SOL     OW24544   1.916   0.851   0.881 -0.3025  0.2713 -0.3082
 7133SOL    HW124545   1.877   0.903   0.810 -0.8271 -1.5146 -1.3945
 7133SOL    HW224546   2.010   0.856   0.866 -0.3025  1.3220 -0.0607
 7134SOL     OW24547   0.396   7.847   5.121  0.0808 -0.1220  0.4284
 7134SOL    HW124548   0.484   7.827   5.088 -0.0520  0.5012 -0.3152
 7134SOL    HW224549   0.340   7.848   5.044 -0.3973  0.4991  0.7667
 7135SOL     OW24550   4.766   4.913   1.038 -0.0467 -0.1268 -0.1776
 7135SOL    HW124551   4.799   4.967   0.965 -0.3804 -0.4923 -0.6055
 7135SOL    HW224552   4.693   4.963   1.073 -0.0444 -0.0687 -0.2543
 7136SOL     OW24553   7.412   6.634   5.500 -0.3427  0.5293 -0.2750
 7136SOL    HW124554   7.397   6.541   5.518  1.2501  0.2773 -0.0522
 7136SOL    HW224555   7.380   6.679   5.578  2.1832 -0.1696  1.2809
 7137SOL     OW24556   8.063   7.100   1.754 -0.0359  0.0537  0.0613
 7137SOL    HW124557   8.084   7.158   1.828 -0.2114  0.8628 -0.5138
 7137SOL    HW224558   8.135   7.037   1.753 -0.4195 -0.4595  1.3947
 7138SOL     OW24559   2.661   4.943   6.399 -0.4753 -0.3519 -0.3442
 7138SOL    HW124560   2.594   4.997   6.358 -1.1428 -0.4658  0.5627
 7138SOL    HW224561   2.621   4.914   6.481  0.4376 -0.9754 -0.1081
 7139SOL     OW24562   0.898   4.569   2.547 -0.5064  0.2487 -0.1840
 7139SOL    HW124563   0.917   4.644   2.602  0.5878 -1.2391  1.5668
 7139SOL    HW224564   0.802   4.563   2.546 -0.5850  1.3133  0.0991
 7140SOL     OW24565   4.672   4.033   7.888  0.2652 -0.2322 -0.6883
 7140SOL    HW124566   4.754   3.987   7.869  0.6804  0.0546  0.3214
 7140SOL    HW224567   4.605   3.965   7.882  0.7520 -0.7753 -0.1765
 7141SOL     OW24568   3.512   5.979   7.847 -0.0567 -0.3291  0.1661
 7141SOL    HW124569   3.479   6.054   7.898  0.4655 -1.0398  1.5809
 7141SOL    HW224570   3.497   6.005   7.756 -0.5155  1.2112  0.6406
 7142SOL     OW24571   7.277   2.131   5.882  0.0144  0.6482  0.3060
 7142SOL    HW124572   7.302   2.174   5.964 -1.8360 -0.6029  1.5850
 7142SOL    HW224573   7.284   2.037   5.900  1.1691  0.3253 -1.5253
 7143SOL     OW24574   6.941   5.431   1.322 -0.2351 -0.8140  0.1786
 7143SOL    HW124575   6.872   5.469   1.268 -0.9803 -3.1710 -0.6554
 7143SOL    HW224576   6.916   5.451   1.412 -0.3211  0.9968 -0.2214
 7144SOL     OW24577   4.956   4.088   7.002  0.3196  0.0666  0.6472
 7144SOL    HW124578   4.875   4.120   6.963  1.3073  1.4054 -0.4083
 7144SOL    HW224579   4.940   3.994   7.016 -1.7556  0.4875  1.4515
 7145SOL     OW24580   6.935   7.493   4.231  0.3238  0.4032 -0.0022
 7145SOL    HW124581   7.005   7.550   4.261  1.3628  0.0441 -1.5869
 7145SOL    HW224582   6.979   7.410   4.210 -0.1682  0.7269 -2.7348
 7146SOL     OW24583   4.425   1.810   1.577  0.0697  0.1411 -0.5425
 7146SOL    HW124584   4.424   1.844   1.487 -2.1446  3.5015  0.5488
 7146SOL    HW224585   4.336   1.776   1.590  1.1881 -2.9672 -0.4029
 7147SOL     OW24586   7.550   5.660   4.842  0.2013  0.3324  0.2012
 7147SOL    HW124587   7.489   5.592   4.871 -1.3150  1.5262 -0.0529
 7147SOL    HW224588   7.616   5.613   4.791 -0.6113 -0.9939  0.3347
 7148SOL     OW24589   7.852   2.713   4.802 -0.3925 -0.2376  0.8122
 7148SOL    HW124590   7.809   2.722   4.887  0.2301 -1.2619  1.2548
 7148SOL    HW224591   7.888   2.800   4.784 -1.1815  0.1914  1.2253
 7149SOL     OW24592   1.493   0.461   4.289 -0.0348  0.1382  0.1939
 7149SOL    HW124593   1.457   0.516   4.358 -0.5418  0.7765 -0.5581
 7149SOL    HW224594   1.497   0.373   4.328  0.4087  0.6185  1.2684
 7150SOL     OW24595   3.274   7.383   2.480 -0.5279  0.2895  0.2940
 7150SOL    HW124596   3.326   7.387   2.560 -0.4473 -1.7626  0.3891
 7150SOL    HW224597   3.336   7.404   2.410 -0.0760 -0.0665  0.5854
 7151SOL     OW24598   6.617   7.427   7.809 -0.3962 -0.1601 -0.8018
 7151SOL    HW124599   6.590   7.406   7.720  0.9722  1.6207 -1.6895
 7151SOL    HW224600   6.703   7.386   7.819  0.0250  0.6941 -0.7854
 7152SOL     OW24601   0.675   1.385   2.728 -0.5921  0.1386 -0.1866
 7152SOL    HW124602   0.605   1.448   2.741  1.5623  2.7865 -0.4387
 7152SOL    HW224603   0.716   1.376   2.814  1.9711  2.9041 -0.9380
 7153SOL     OW24604   7.022   0.258   6.011 -0.3095  0.0708 -0.4161
 7153SOL    HW124605   7.068   0.178   6.040  0.5049  0.7438  0.1943
 7153SOL    HW224606   7.044   0.266   5.918 -1.2725 -0.9869 -0.7599
 7154SOL     OW24607   1.962   0.884   3.788 -0.1048  0.3947  0.1702
 7154SOL    HW124608   1.891   0.914   3.845  1.8497  1.1463  2.3815
 7154SOL    HW224609   1.929   0.802   3.751 -2.4030  1.1055  0.4734
 7155SOL     OW24610   6.390   6.605   0.536 -0.3666 -0.6157 -0.3089
 7155SOL    HW124611   6.330   6.591   0.609  1.0398  2.3067  1.5801
 7155SOL    HW224612   6.339   6.651   0.470 -0.9860 -0.9634 -0.0735
 7156SOL     OW24613   7.832   6.036   3.405  0.0197 -0.4699  0.4432
 7156SOL    HW124614   7.812   6.047   3.312  0.7195  0.5914  0.3996
 7156SOL    HW224615   7.848   6.125   3.437 -1.8963 -0.6183  1.9953
 7157SOL     OW24616   4.872   8.089   1.069 -0.0041 -0.1883 -0.1077
 7157SOL    HW124617   4.865   8.004   1.025  0.0167 -0.3870  0.2641
 7157SOL    HW224618   4.966   8.104   1.079  0.0088  0.2315 -0.8359
 7158SOL     OW24619   0.686   5.098   3.809 -0.3548 -0.1139  0.6833
 7158SOL    HW124620   0.617   5.118   3.871 -0.7194  2.8566 -0.5237
 7158SOL    HW224621   0.664   5.149   3.731  3.1261  0.9829  0.2279
 7159SOL     OW24622   4.571   6.913   8.045  0.4694 -0.2574  0.1147
 7159SOL    HW124623   4.513   6.915   8.121 -0.2291 -0.8408 -0.3943
 7159SOL    HW224624   4.520   6.953   7.974  1.8975  2.3665  0.4453
 7160SOL     OW24625   6.183   5.602   2.575 -0.1406  0.0140  0.4440
 7160SOL    HW124626   6.177   5.661   2.650 -1.5484  0.4201  0.0616
 7160SOL    HW224627   6.205   5.660   2.501 -1.9460  0.1837 -0.0104
 7161SOL     OW24628   5.359   1.511   8.085 -0.2318  0.1151  0.1191
 7161SOL    HW124629   5.278   1.511   8.034 -0.9878 -1.1182  1.2535
 7161SOL    HW224630   5.352   1.434   8.142  1.8378 -0.1513  0.1140
 7162SOL     OW24631   7.907   3.705   0.898 -0.1244 -0.1493  0.2029
 7162SOL    HW124632   7.882   3.688   0.807 -0.9969 -0.0869  0.4186
 7162SOL    HW224633   7.909   3.618   0.939 -0.2961 -0.1256  0.2614
 7163SOL     OW24634   1.224   3.413   6.037 -0.2702  0.3319 -0.0943
 7163SOL    HW124635   1.177   3.477   6.091  1.9357 -0.2886  2.7928
 7163SOL    HW224636   1.194   3.328   6.070  1.7716 -0.0633  0.8547
 7164SOL     OW24637   1.180   4.117   1.803  0.7722 -0.6151 -0.0723
 7164SOL    HW124638   1.168   4.210   1.786  0.9802 -0.3113  1.3374
 7164SOL    HW224639   1.185   4.077   1.716 -1.1657  0.4307 -0.7323
 7165SOL     OW24640   4.548   4.961   6.209  0.4812 -0.1589 -0.1644
 7165SOL    HW124641   4.628   5.008   6.187  1.2252  0.0359  2.5386
 7165SOL    HW224642   4.478   5.020   6.184  1.2689  0.6349 -0.5511
 7166SOL     OW24643   4.722   4.091   2.006  0.0703 -0.1824 -0.0316
 7166SOL    HW124644   4.702   4.038   2.082  1.7383  0.4339  0.8817
 7166SOL    HW224645   4.637   4.125   1.978 -1.0723 -3.2906 -0.7142
 7167SOL     OW24646   2.248   1.540   7.179 -0.4875  0.7054 -0.3455
 7167SOL    HW124647   2.304   1.582   7.113 -2.7528  1.3811 -1.9745
 7167SOL    HW224648   2.199   1.612   7.217 -0.7791  0.0528  0.5250
 7168SOL     OW24649   6.981   1.299   0.561 -0.4132 -0.0285  0.2137
 7168SOL    HW124650   7.015   1.388   0.553 -0.1398 -0.2451 -1.3845
 7168SOL    HW224651   6.892   1.310   0.594 -1.6215  1.1469 -3.0450
 7169SOL     OW24652   7.907   2.124   4.394 -0.0134  0.2264 -0.2012
 7169SOL    HW124653   7.984   2.172   4.422  1.6265 -3.7018  2.9774
 7169SOL    HW224654   7.939   2.063   4.328 -0.5724 -0.7576  0.4102
 7170SOL     OW24655   7.395   3.866   0.746 -0.8058 -0.1883 -0.4509
 7170SOL    HW124656   7.472   3.814   0.726 -0.5514  0.1382 -0.3250
 7170SOL    HW224657   7.321   3.806   0.733 -0.5271 -0.5264 -0.4798
 7171SOL     OW24658   0.765   5.632   2.716 -0.0352 -0.4614  0.2872
 7171SOL    HW124659   0.726   5.553   2.678 -1.0758 -0.6656  1.7238
 7171SOL    HW224660   0.717   5.704   2.676 -0.3362 -0.6236  0.3544
 7172SOL     OW24661   3.961   7.238   1.859 -0.1195 -0.5107 -0.7563
 7172SOL    HW124662   3.946   7.289   1.780 -1.9955 -0.4334 -0.4073
 7172SOL    HW224663   3.982   7.150   1.828 -0.3505 -0.3633 -1.3448
 7173SOL     OW24664   6.320   0.553   5.748 -0.3423 -0.4495 -0.1896
 7173SOL    HW124665   6.408   0.589   5.755 -0.2258 -0.9692  1.5822
 7173SOL    HW224666   6.306   0.509   5.832 -2.6976  0.5643  0.0162
 7174SOL     OW24667   1.326   0.423   3.477 -0.5209 -0.0177  0.2089
 7174SOL    HW124668   1.391   0.353   3.474 -1.0921 -0.5158 -1.1755
 7174SOL    HW224669   1.249   0.383   3.517 -0.8881 -0.2241 -0.6956
 7175SOL     OW24670   1.475   8.022   6.292 -0.3625 -0.1899 -0.0614
 7175SOL    HW124671   1.516   8.032   6.378 -0.7962 -0.1195  0.1403
 7175SOL    HW224672   1.546   7.993   6.234 -0.0503 -0.1460  0.3002
 7176SOL     OW24673   3.064   4.745   5.885  0.0878  0.4635 -0.0184
 7176SOL    HW124674   2.994   4.695   5.928  1.1081 -0.0241  1.1322
 7176SOL    HW224675   3.105   4.795   5.956  0.4515  1.3150 -0.8024
 7177SOL     OW24676   6.913   3.054   0.965 -0.3807  0.2262  0.0117
 7177SOL    HW124677   6.964   3.126   0.929  0.2784  0.2959  1.0405
 7177SOL    HW224678   6.846   3.037   0.900 -0.2714  1.4768 -0.4510
 7178SOL     OW24679   2.962   6.976   8.057  0.4392 -0.0101  0.1480
 7178SOL    HW124680   2.969   6.925   7.976  1.3098  0.4621 -0.0866
 7178SOL    HW224681   2.898   6.928   8.110  1.0864 -1.2334 -0.1407
 7179SOL     OW24682   0.441   2.867   4.074 -0.0776  0.6360 -0.0729
 7179SOL    HW124683   0.480   2.856   3.988 -0.2884 -1.2231  0.0209
 7179SOL    HW224684   0.347   2.871   4.058 -0.2337 -1.2097  0.1220
 7180SOL     OW24685   5.279   3.325   7.897  0.2280 -0.4478  0.2711
 7180SOL    HW124686   5.283   3.416   7.869  0.6108 -0.2614  0.9153
 7180SOL    HW224687   5.317   3.325   7.984 -1.5612 -0.8994  1.0931
 7181SOL     OW24688   4.988   0.420   6.886 -0.2650  0.1625 -0.1431
 7181SOL    HW124689   4.960   0.507   6.857 -0.9481  0.0894  0.2830
 7181SOL    HW224690   5.061   0.437   6.945 -0.6188  0.4766  0.2150
 7182SOL     OW24691   5.008   2.218   3.317  0.1038 -0.0100  0.5928
 7182SOL    HW124692   4.959   2.291   3.354  0.7744  0.3830  0.7285
 7182SOL    HW224693   5.091   2.217   3.366  1.0367  0.5567 -0.9031
 7183SOL     OW24694   5.389   0.524   7.648  0.1151 -0.5744  0.2818
 7183SOL    HW124695   5.438   0.442   7.646 -1.6835 -1.7147 -0.7718
 7183SOL    HW224696   5.455   0.592   7.663  1.5292 -2.2755  2.3903
 7184SOL     OW24697   6.519   3.882   5.288 -0.3046  0.5018  0.0663
 7184SOL    HW124698   6.581   3.808   5.289  0.0805  0.8233  0.0549
 7184SOL    HW224699   6.448   3.852   5.231 -0.4823 -0.1284  0.6015
 7185SOL     OW24700   2.651   0.514   2.112  0.0751  0.5297 -0.4433
 7185SOL    HW124701   2.694   0.505   2.197  0.3778 -0.5964 -0.6947
 7185SOL    HW224702   2.676   0.601   2.081  2.5084 -0.1982 -0.7289
 7186SOL     OW24703   2.932   4.635   3.098  0.0120  0.0827 -0.8985
 7186SOL    HW124704   2.919   4.609   3.189 -2.0047 -1.6205 -1.5950
 7186SOL    HW224705   2.894   4.722   3.092  0.1881  0.2176 -0.1170
 7187SOL     OW24706   8.091   1.948   7.027  0.2939  0.5083 -0.4681
 7187SOL    HW124707   8.124   2.037   7.034  0.8470  0.1842  1.5449
 7187SOL    HW224708   8.021   1.942   7.093 -1.2984  0.0778 -2.0973
 7188SOL     OW24709   0.417   4.215   1.292  0.4796  0.5405  0.5036
 7188SOL    HW124710   0.394   4.183   1.379  1.0501 -0.5779  0.2662
 7188SOL    HW224711   0.513   4.215   1.292  0.4989 -0.4622 -0.4570
 7189SOL     OW24712   5.809   5.010   1.216 -0.6875  0.3800 -0.7613
 7189SOL    HW124713   5.861   5.087   1.241  0.8588 -1.1323  1.0001
 7189SOL    HW224714   5.845   4.983   1.131  0.9212 -0.1313  0.0291
 7190SOL     OW24715   1.337   6.016   3.411 -0.0700 -0.3780  0.3307
 7190SOL    HW124716   1.310   6.046   3.324  0.1136 -2.4345 -0.4925
 7190SOL    HW224717   1.256   5.982   3.450  0.1638 -1.0298  0.2616
 7191SOL     OW24718   6.374   1.469   3.323 -0.3877 -0.1635 -0.7171
 7191SOL    HW124719   6.377   1.376   3.345 -0.8859 -0.3783 -1.5059
 7191SOL    HW224720   6.363   1.471   3.228  0.9911  0.7171 -0.8930
 7192SOL     OW24721   1.316   4.331   6.605 -0.0711 -0.0188  0.6554
 7192SOL    HW124722   1.395   4.381   6.588 -0.9369  1.3565  0.4665
 7192SOL    HW224723   1.346   4.242   6.622  1.3716  0.0542 -1.2054
 7193SOL     OW24724   5.557   0.458   4.608 -0.3906  0.5956  0.0267
 7193SOL    HW124725   5.620   0.475   4.678 -1.1476  2.1121  0.3919
 7193SOL    HW224726   5.562   0.536   4.552 -0.4308 -0.2047 -1.1246
 7194SOL     OW24727   7.456   5.716   5.548  0.1149  0.0776  0.0145
 7194SOL    HW124728   7.483   5.776   5.617  2.7434  0.2312 -1.0178
 7194SOL    HW224729   7.530   5.657   5.537 -1.6517 -2.2414 -0.2848
 7195SOL     OW24730   2.312   4.625   0.792  0.0743 -0.4183 -0.0092
 7195SOL    HW124731   2.225   4.629   0.752 -0.8081  0.0019  1.8767
 7195SOL    HW224732   2.360   4.697   0.751 -0.4588 -0.6335 -1.0444
 7196SOL     OW24733   6.040   4.214   2.044  0.1829  0.0220 -0.8684
 7196SOL    HW124734   6.136   4.212   2.054  0.1266  1.2817  0.2818
 7196SOL    HW224735   6.008   4.165   2.120 -0.1021 -0.3375 -1.2155
 7197SOL     OW24736   2.239   2.774   3.090 -0.1821 -0.1905 -0.3853
 7197SOL    HW124737   2.331   2.783   3.064  0.2081  1.1973  1.2914
 7197SOL    HW224738   2.242   2.767   3.186 -1.8539  0.1995 -0.2745
 7198SOL     OW24739   6.161   5.600   0.451  0.4986  0.0110 -0.3691
 7198SOL    HW124740   6.168   5.668   0.518  0.5141  1.0002 -1.3513
 7198SOL    HW224741   6.067   5.594   0.433  0.4256 -0.7195  0.1834
 7199SOL     OW24742   0.607   5.764   3.909  0.0819  0.6750 -0.3023
 7199SOL    HW124743   0.685   5.710   3.892  0.2616  1.0797 -0.8076
 7199SOL    HW224744   0.632   5.821   3.981 -0.3645 -0.4174  0.7505
 7200SOL     OW24745   0.942   0.871   7.719 -0.4674 -0.0186  0.2454
 7200SOL    HW124746   0.996   0.904   7.791 -0.9298 -0.6791  0.9025
 7200SOL    HW224747   0.874   0.819   7.761 -0.5736 -0.6637 -0.6912
 7201SOL     OW24748   2.413   0.143   6.089  0.0750  0.0012  0.1411
 7201SOL    HW124749   2.491   0.096   6.058 -1.5166 -2.7691 -0.0063
 7201SOL    HW224750   2.350   0.134   6.018  0.2846  4.5690 -0.9398
 7202SOL     OW24751   5.428   0.607   2.795 -0.3664 -0.6977 -0.4800
 7202SOL    HW124752   5.394   0.539   2.853 -0.8799 -0.6628 -0.7337
 7202SOL    HW224753   5.374   0.684   2.815  1.6954  0.3541  1.4983
 7203SOL     OW24754   3.734   0.484   7.616  0.5232 -0.1746  0.3882
 7203SOL    HW124755   3.707   0.415   7.676 -0.6805 -0.2926 -0.2626
 7203SOL    HW224756   3.755   0.559   7.673 -1.4715  0.0184  0.9347
 7204SOL     OW24757   2.367   1.414   2.146 -0.1921  0.0451 -0.3315
 7204SOL    HW124758   2.426   1.346   2.113  1.4754  1.2943 -0.0612
 7204SOL    HW224759   2.290   1.409   2.089  1.7785  0.8889 -3.3027
 7205SOL     OW24760   7.073   6.573   0.329  0.4218 -0.2940 -0.1465
 7205SOL    HW124761   7.032   6.582   0.244 -2.8069 -0.0271  1.2987
 7205SOL    HW224762   7.100   6.662   0.353  1.0957 -0.3313 -0.7272
 7206SOL     OW24763   3.394   2.263   3.191  0.0391  0.0305  0.1256
 7206SOL    HW124764   3.325   2.238   3.131 -1.8084  2.5598  1.0041
 7206SOL    HW224765   3.378   2.211   3.270 -0.3504 -0.0261  0.0112
 7207SOL     OW24766   5.544   6.163   6.283  0.3550 -0.2167  0.2735
 7207SOL    HW124767   5.479   6.177   6.214  0.3119  1.6795  0.6658
 7207SOL    HW224768   5.605   6.237   6.275  2.2603 -1.6943  0.1979
 7208SOL     OW24769   7.452   5.718   2.782 -0.1785 -0.0133  0.5655
 7208SOL    HW124770   7.469   5.701   2.874  0.9020 -1.8381  0.0877
 7208SOL    HW224771   7.491   5.804   2.765 -0.7874  0.5436  1.8850
 7209SOL     OW24772   3.961   5.622   4.092 -0.1115  0.8750  0.0475
 7209SOL    HW124773   3.907   5.576   4.028  0.5462  0.2930 -0.1032
 7209SOL    HW224774   4.037   5.650   4.043  1.2781 -1.1318  0.8923
 7210SOL     OW24775   6.328   5.385   5.402  0.3502  0.7556  0.3727
 7210SOL    HW124776   6.374   5.442   5.340  0.6438  1.1155  0.9041
 7210SOL    HW224777   6.285   5.319   5.348  0.8525  0.8816 -0.1884
 7211SOL     OW24778   6.379   6.484   0.133 -0.4042 -0.4875  0.1121
 7211SOL    HW124779   6.376   6.546   0.061 -1.3247  1.7792  1.9550
 7211SOL    HW224780   6.290   6.450   0.140 -0.4613 -0.2667  0.5053
 7212SOL     OW24781   4.219   2.640   5.172 -0.1743  0.0359  0.5783
 7212SOL    HW124782   4.307   2.638   5.134  0.1129  1.6995  1.0610
 7212SOL    HW224783   4.170   2.699   5.116 -0.6290  0.0926  1.0281
 7213SOL     OW24784   1.367   5.789   1.240 -0.8184  0.3385 -0.0281
 7213SOL    HW124785   1.292   5.809   1.184 -0.6912  0.0906 -0.2910
 7213SOL    HW224786   1.353   5.841   1.319 -0.6214  1.2671 -0.5901
 7214SOL     OW24787   5.264   1.257   2.750  0.1994  0.4900  0.6241
 7214SOL    HW124788   5.258   1.287   2.659  0.0868  1.3285  0.8996
 7214SOL    HW224789   5.249   1.336   2.802 -3.7371 -0.6023  1.4691
 7215SOL     OW24790   6.400   0.179   1.280  0.5554  0.0492  0.3159
 7215SOL    HW124791   6.439   0.266   1.271  0.8128 -0.0333  0.6082
 7215SOL    HW224792   6.450   0.138   1.350  0.5071 -0.3773  0.1004
 7216SOL     OW24793   2.062   4.094   1.770  0.2091  0.2765  0.2987
 7216SOL    HW124794   2.028   4.026   1.827  2.0427 -1.9726 -1.1072
 7216SOL    HW224795   1.999   4.166   1.778 -1.9821 -1.6503  1.6505
 7217SOL     OW24796   1.747   2.006   7.290  0.1162 -0.4397  0.2133
 7217SOL    HW124797   1.737   1.966   7.377 -0.6887 -1.7953 -0.4650
 7217SOL    HW224798   1.661   1.996   7.249  0.4625  0.2575 -0.7136
 7218SOL     OW24799   5.999   4.118   6.964  0.4725  0.0427  0.6690
 7218SOL    HW124800   6.026   4.031   6.993  1.0008  0.3039  0.9695
 7218SOL    HW224801   6.022   4.120   6.872 -1.1087 -0.7491  0.2104
 7219SOL     OW24802   0.934   5.050   7.441 -0.5255  0.6538  0.1286
 7219SOL    HW124803   1.013   5.100   7.460 -0.0846 -0.1900  0.5367
 7219SOL    HW224804   0.919   4.997   7.520 -0.8806 -0.0008 -0.3678
 7220SOL     OW24805   4.151   5.094   2.014 -0.0823 -0.1520  0.7866
 7220SOL    HW124806   4.225   5.154   2.014 -0.4280  0.2825  0.7396
 7220SOL    HW224807   4.107   5.112   1.930 -0.4407 -0.1500  0.9736
 7221SOL     OW24808   2.232   1.968   4.520 -0.2954 -0.2483  0.2472
 7221SOL    HW124809   2.170   2.000   4.585  0.3845  0.3891  0.5854
 7221SOL    HW224810   2.192   1.989   4.436 -0.2558  0.7391  0.4635
 7222SOL     OW24811   3.447   0.326   2.578  0.2729  0.2165 -0.0251
 7222SOL    HW124812   3.499   0.269   2.521  0.3800 -0.1931  0.4695
 7222SOL    HW224813   3.452   0.284   2.664 -0.1702  0.6393  0.2108
 7223SOL     OW24814   6.878   7.347   7.254  0.1096  0.0145 -0.1113
 7223SOL    HW124815   6.964   7.303   7.259 -0.1335 -0.4717 -0.1174
 7223SOL    HW224816   6.892   7.432   7.294  0.5059 -0.2066  0.2315
 7224SOL     OW24817   2.465   3.689   1.765  0.2327  0.5730 -0.5779
 7224SOL    HW124818   2.418   3.656   1.688 -0.4354  1.0855 -0.4037
 7224SOL    HW224819   2.533   3.624   1.782 -1.7279 -1.3683  0.4562
 7225SOL     OW24820   4.381   3.400   4.853 -0.1764  0.0470 -0.1888
 7225SOL    HW124821   4.437   3.471   4.884  0.0463 -0.8014  1.4734
 7225SOL    HW224822   4.329   3.375   4.930  0.8531 -2.6014 -0.2534
 7226SOL     OW24823   1.633   1.285   7.721 -0.0910 -0.1516  0.1770
 7226SOL    HW124824   1.548   1.245   7.740 -0.3150 -0.5166 -1.4426
 7226SOL    HW224825   1.665   1.238   7.644 -0.5418  2.9379 -2.0922
 7227SOL     OW24826   5.949   8.093   0.389 -0.5197 -0.8160 -0.4886
 7227SOL    HW124827   5.931   8.021   0.449  1.7181 -0.7958  0.2667
 7227SOL    HW224828   6.024   8.064   0.337  1.9956  1.7538  1.4104
 7228SOL     OW24829   2.921   1.347   6.695  0.0135 -0.5351  0.8252
 7228SOL    HW124830   2.953   1.278   6.754  2.1935  0.5893  1.0719
 7228SOL    HW224831   2.977   1.341   6.618 -1.3645 -0.5564 -0.2187
 7229SOL     OW24832   4.296   3.188   1.354  0.2745 -0.6993 -0.5092
 7229SOL    HW124833   4.386   3.174   1.324 -0.7434 -1.9231 -3.3732
 7229SOL    HW224834   4.249   3.109   1.327 -1.7378 -0.0267  0.7486
 7230SOL     OW24835   6.083   4.835   6.430  0.3845 -0.4927  0.6084
 7230SOL    HW124836   5.989   4.842   6.442  0.5719 -0.5201  2.3586
 7230SOL    HW224837   6.116   4.924   6.445  0.7172 -0.6781  1.0223
 7231SOL     OW24838   7.729   5.247   1.454 -0.2053  0.3237 -0.3669
 7231SOL    HW124839   7.749   5.222   1.364  1.8516 -0.0024  0.1084
 7231SOL    HW224840   7.776   5.330   1.467 -0.6894  0.4969  0.3239
 7232SOL     OW24841   7.549   2.301   1.641  0.3197  0.3705  0.8159
 7232SOL    HW124842   7.588   2.216   1.623  0.2779  0.7679 -1.4382
 7232SOL    HW224843   7.464   2.299   1.597  0.4836  1.7018  0.3981
 7233SOL     OW24844   5.684   7.928   5.809  0.3752 -0.1478  0.1775
 7233SOL    HW124845   5.757   7.866   5.809 -0.2451 -0.9807 -2.4941
 7233SOL    HW224846   5.716   8.004   5.761 -0.3788 -0.4014 -0.7645
 7234SOL     OW24847   3.586   5.573   4.049 -0.2118  0.1597  0.4417
 7234SOL    HW124848   3.604   5.631   4.123  0.3932 -1.9858  2.1142
 7234SOL    HW224849   3.573   5.487   4.090  2.0600 -1.5210 -2.0799
 7235SOL     OW24850   2.516   0.909   2.277  0.1954 -0.3234  0.2928
 7235SOL    HW124851   2.510   0.891   2.371 -0.6438  0.1026  0.3295
 7235SOL    HW224852   2.609   0.926   2.262  0.0299  2.2713  1.5667
 7236SOL     OW24853   4.169   0.356   1.317 -0.3501 -0.8411 -0.1164
 7236SOL    HW124854   4.168   0.305   1.398  0.6904  0.3051  0.6615
 7236SOL    HW224855   4.159   0.291   1.247 -0.0556 -1.9853  0.8702
 7237SOL     OW24856   2.634   6.580   1.555  0.0515 -0.0084  0.5122
 7237SOL    HW124857   2.713   6.562   1.505 -1.2452  2.5068 -2.8070
 7237SOL    HW224858   2.564   6.538   1.505 -1.1584  1.3517  1.0070
 7238SOL     OW24859   0.067   4.338   7.262  0.4039  0.3699 -0.0947
 7238SOL    HW124860   0.137   4.355   7.199 -0.4463 -0.4184 -1.2982
 7238SOL    HW224861   0.108   4.285   7.331  2.0834  3.5934  1.6312
 7239SOL     OW24862   0.378   2.899   8.052 -0.3322 -0.0812 -0.2982
 7239SOL    HW124863   0.463   2.925   8.088 -1.6420  3.0373  0.9106
 7239SOL    HW224864   0.331   2.860   8.126  0.2630 -2.7113 -1.1925
 7240SOL     OW24865   1.928   4.800   2.379  0.4882  0.6562  1.2329
 7240SOL    HW124866   1.903   4.712   2.407  0.1620  0.7659  1.2913
 7240SOL    HW224867   2.020   4.792   2.353  0.4150  0.2622  1.0828
 7241SOL     OW24868   7.638   5.250   3.521 -0.1306  0.6514  0.0464
 7241SOL    HW124869   7.603   5.236   3.433 -0.6989  2.2660 -0.0207
 7241SOL    HW224870   7.726   5.283   3.507  0.1341 -0.0196  0.1160
 7242SOL     OW24871   7.755   1.742   7.039 -0.4070  0.1524  0.2217
 7242SOL    HW124872   7.700   1.667   7.058  0.9696 -0.9019  0.2292
 7242SOL    HW224873   7.719   1.778   6.958 -0.8558 -0.7531  0.0057
 7243SOL     OW24874   6.439   6.589   1.363 -0.1667 -0.3471  0.0476
 7243SOL    HW124875   6.392   6.552   1.288  1.2777  2.5962 -2.5326
 7243SOL    HW224876   6.529   6.557   1.352  0.3912  1.2810 -0.4493
 7244SOL     OW24877   0.535   1.695   6.217  0.1352 -0.0916 -0.5034
 7244SOL    HW124878   0.498   1.741   6.292 -1.1218 -0.4011 -0.9176
 7244SOL    HW224879   0.582   1.620   6.255 -0.4200 -0.1956 -0.0139
 7245SOL     OW24880   7.302   1.580   5.442  0.5383 -0.6616 -0.5499
 7245SOL    HW124881   7.308   1.485   5.452 -2.1917 -0.8685  0.0098
 7245SOL    HW224882   7.306   1.594   5.347 -1.2845 -1.6283 -0.8131
 7246SOL     OW24883   2.416   0.400   3.721 -0.1364  0.5430 -0.6863
 7246SOL    HW124884   2.421   0.421   3.628  0.4149  0.3110 -0.7153
 7246SOL    HW224885   2.322   0.391   3.739 -0.2846  1.3030 -1.0501
 7247SOL     OW24886   3.696   0.946   0.684  0.3190  0.1361  0.2188
 7247SOL    HW124887   3.762   0.899   0.735 -0.1338 -0.6528  0.1040
 7247SOL    HW224888   3.652   1.002   0.749  0.7412  0.2613  0.3981
 7248SOL     OW24889   5.750   2.165   5.655  0.5430  0.3480 -0.1623
 7248SOL    HW124890   5.699   2.086   5.674  1.4379 -1.1162 -3.1834
 7248SOL    HW224891   5.693   2.217   5.599  0.3430  1.4333  1.0032
 7249SOL     OW24892   0.305   4.422   6.284 -0.2813  0.2563 -0.2021
 7249SOL    HW124893   0.335   4.493   6.341  1.4896  0.2270 -1.0404
 7249SOL    HW224894   0.362   4.348   6.306  0.4140  0.2323 -1.9253
 7250SOL     OW24895   1.493   6.687   3.240 -0.2714 -0.1671  0.3439
 7250SOL    HW124896   1.587   6.676   3.247 -0.2736  0.5634  1.6650
 7250SOL    HW224897   1.480   6.733   3.157  0.6873  1.3854  1.0140
 7251SOL     OW24898   4.579   2.722   7.192  0.0019  0.1223  0.2455
 7251SOL    HW124899   4.653   2.669   7.160 -0.5559 -0.6587  0.2099
 7251SOL    HW224900   4.620   2.796   7.236  0.8068 -0.1530 -0.0187
 7252SOL     OW24901   4.701   0.073   6.848  0.9359  0.6546 -0.4327
 7252SOL    HW124902   4.636   0.007   6.826  0.6259  0.7860  0.0690
 7252SOL    HW224903   4.764   0.070   6.776  1.2827 -0.6394 -0.0968
 7253SOL     OW24904   5.807   3.497   7.801  0.4283  0.3432 -0.0973
 7253SOL    HW124905   5.775   3.587   7.810  1.0995  0.7078 -1.1101
 7253SOL    HW224906   5.849   3.477   7.884  0.8492  1.2172 -0.0893
 7254SOL     OW24907   3.228   7.184   3.453 -0.2636  0.2564  0.8439
 7254SOL    HW124908   3.293   7.190   3.523  0.8671  0.4917 -0.2078
 7254SOL    HW224909   3.217   7.274   3.422  0.7007 -0.0926 -0.5721
 7255SOL     OW24910   0.736   2.028   4.104  0.3832 -0.3591 -0.6027
 7255SOL    HW124911   0.652   2.070   4.120  0.8378  1.2672 -2.1692
 7255SOL    HW224912   0.792   2.098   4.070  1.9031 -1.7459 -1.0993
 7256SOL     OW24913   1.640   7.575   5.676  0.3715  0.1128  0.0235
 7256SOL    HW124914   1.653   7.540   5.588 -1.1807 -0.9928  0.1988
 7256SOL    HW224915   1.712   7.638   5.687  1.9223 -1.3462 -1.1607
 7257SOL     OW24916   1.162   7.313   7.245  0.0515 -0.3263  0.3271
 7257SOL    HW124917   1.108   7.252   7.196  0.6818 -1.4656  1.0014
 7257SOL    HW224918   1.121   7.398   7.231  0.1596 -0.6032 -2.0760
 7258SOL     OW24919   7.713   4.566   7.736 -0.1466 -0.3623 -0.8573
 7258SOL    HW124920   7.802   4.532   7.724  0.8658  2.3207 -1.5172
 7258SOL    HW224921   7.723   4.639   7.796 -1.9229  0.0442 -1.0051
 7259SOL     OW24922   0.133   2.482   6.681  0.5047  0.2034 -0.6255
 7259SOL    HW124923   0.095   2.557   6.728  1.6484  1.5373 -1.7349
 7259SOL    HW224924   0.088   2.406   6.717 -1.1808  1.4714  0.0767
 7260SOL     OW24925   6.742   5.369   2.197  0.5617  0.0831 -0.4550
 7260SOL    HW124926   6.817   5.388   2.140  0.6468  0.3261 -0.2627
 7260SOL    HW224927   6.738   5.273   2.199 -1.4264  0.0011 -3.4585
 7261SOL     OW24928   6.999   7.833   5.651 -0.3490 -0.8382 -0.5498
 7261SOL    HW124929   7.004   7.749   5.698 -0.1178 -0.7349 -0.3871
 7261SOL    HW224930   7.055   7.892   5.702  0.6155 -0.9568 -1.4261
 7262SOL     OW24931   1.926   4.643   7.367 -0.0053 -0.0357 -0.7800
 7262SOL    HW124932   1.907   4.690   7.286  4.0239  0.1884 -1.7945
 7262SOL    HW224933   1.978   4.705   7.419 -2.9080  0.0278  2.3709
 7263SOL     OW24934   5.056   0.455   4.581 -0.2361  0.3933 -0.2065
 7263SOL    HW124935   5.141   0.481   4.545 -0.2933  1.7886  0.6029
 7263SOL    HW224936   5.072   0.369   4.620  1.2229  1.2400  1.2144
 7264SOL     OW24937   5.078   1.839   7.960 -0.0548  0.0228  0.3800
 7264SOL    HW124938   5.157   1.893   7.970 -0.5641  0.7765  0.4723
 7264SOL    HW224939   5.081   1.808   7.870 -0.6746  1.7305 -0.2644
 7265SOL     OW24940   1.318   7.470   5.923  0.8579  0.5112 -0.3178
 7265SOL    HW124941   1.352   7.559   5.925  0.4060  0.7084 -0.9086
 7265SOL    HW224942   1.393   7.415   5.944  0.4288  1.1604  3.5698
 7266SOL     OW24943   3.689   3.015   0.002  0.2280  0.1288 -0.1350
 7266SOL    HW124944   3.777   3.046   0.026 -0.2613  0.1048  1.9068
 7266SOL    HW224945   3.677   2.936   0.056 -1.0593  0.1672 -0.3454
 7267SOL     OW24946   2.777   2.281   5.864  0.7661  0.6314 -0.0253
 7267SOL    HW124947   2.771   2.313   5.954  0.2479  1.7846 -0.4419
 7267SOL    HW224948   2.774   2.361   5.811  2.1046  0.0558 -1.0323
 7268SOL     OW24949   5.240   0.085   5.695  0.4927  0.3103 -0.5140
 7268SOL    HW124950   5.294   0.162   5.707  0.2031  0.6305 -1.2118
 7268SOL    HW224951   5.192   0.101   5.614 -1.0132  0.2642  0.3297
 7269SOL     OW24952   1.256   1.761   6.259  0.3063 -0.8016  0.6092
 7269SOL    HW124953   1.278   1.834   6.200 -1.1311  2.2179  3.4622
 7269SOL    HW224954   1.314   1.690   6.232  1.9027  1.3902 -2.3418
 7270SOL     OW24955   6.723   0.634   2.136  0.6192 -0.1230 -0.3099
 7270SOL    HW124956   6.773   0.646   2.217  0.9848  0.4072 -0.6093
 7270SOL    HW224957   6.717   0.539   2.126 -1.7608 -0.2771  1.7589
 7271SOL     OW24958   1.783   5.424   1.137 -0.2113 -0.3737  0.5699
 7271SOL    HW124959   1.849   5.357   1.122  0.2361  0.2513 -0.3824
 7271SOL    HW224960   1.824   5.485   1.197 -0.2226 -0.4095  0.6137
 7272SOL     OW24961   1.368   6.246   1.507  0.0268  0.9034 -0.6844
 7272SOL    HW124962   1.333   6.279   1.424 -0.2780  1.9420 -0.1662
 7272SOL    HW224963   1.459   6.276   1.507  0.3416 -0.0120 -1.1028
 7273SOL     OW24964   3.028   6.002   6.421  0.4912  0.0928 -0.5588
 7273SOL    HW124965   3.110   6.025   6.378  0.9691 -0.9787 -0.2435
 7273SOL    HW224966   2.981   6.085   6.429  0.8762  0.4773 -2.1211
 7274SOL     OW24967   4.747   3.584   7.966 -0.2742 -0.4821 -0.7308
 7274SOL    HW124968   4.739   3.674   7.934 -0.9929  0.7680  2.5587
 7274SOL    HW224969   4.657   3.559   7.990  0.4253 -0.3705  2.3439
 7275SOL     OW24970   5.461   5.190   2.664 -0.2471  0.5431 -0.5245
 7275SOL    HW124971   5.476   5.136   2.741  0.0349  1.0503 -0.2192
 7275SOL    HW224972   5.398   5.140   2.612 -0.4580  0.2080  0.0427
 7276SOL     OW24973   1.025   6.896   7.556  0.0686 -0.0033 -0.4374
 7276SOL    HW124974   0.939   6.927   7.529 -0.3196 -0.7975 -0.1537
 7276SOL    HW224975   1.022   6.896   7.651  0.3565 -0.1049 -0.4277
 7277SOL     OW24976   4.572   4.390   5.696 -0.1620  0.2219 -0.0729
 7277SOL    HW124977   4.571   4.485   5.688  2.3015  0.2042 -2.0520
 7277SOL    HW224978   4.620   4.360   5.619 -0.0233 -2.5649  0.9647
 7278SOL     OW24979   1.475   2.135   2.544  0.3561  0.0463  0.2303
 7278SOL    HW124980   1.517   2.211   2.582 -0.8921  0.5411  0.6829
 7278SOL    HW224981   1.460   2.075   2.617  0.3031 -0.1376  0.0723
 7279SOL     OW24982   1.711   1.373   2.748  0.3189  0.3384  0.1531
 7279SOL    HW124983   1.758   1.385   2.665 -0.1692  0.6994 -0.0742
 7279SOL    HW224984   1.654   1.449   2.754 -2.2048 -1.3416 -0.8741
 7280SOL     OW24985   4.111   7.465   7.111  0.4660 -0.7870 -0.3130
 7280SOL    HW124986   4.186   7.406   7.120 -0.5229 -2.1998 -0.8228
 7280SOL    HW224987   4.035   7.407   7.124 -0.6024  1.1335  3.8511
 7281SOL     OW24988   4.980   3.521   7.020  0.2615 -0.7235 -0.4471
 7281SOL    HW124989   5.075   3.528   7.020  0.3240  0.7235  2.8992
 7281SOL    HW224990   4.959   3.482   7.105 -2.1486  1.5808  0.1541
 7282SOL     OW24991   7.031   6.192   1.760  0.0573  0.2308  0.1393
 7282SOL    HW124992   7.071   6.207   1.845  0.8690 -0.9816  0.0076
 7282SOL    HW224993   7.018   6.279   1.723  1.4074  0.7196  0.7397
 7283SOL     OW24994   1.229   2.052   1.533 -0.4664 -0.2801 -0.4063
 7283SOL    HW124995   1.218   2.085   1.622  0.8181  0.7985 -0.6156
 7283SOL    HW224996   1.152   2.085   1.485 -0.1545  0.8226 -0.1580
 7284SOL     OW24997   6.831   7.687   7.165  0.3747  0.1342  0.4088
 7284SOL    HW124998   6.766   7.629   7.205  0.1398 -0.1759 -0.4020
 7284SOL    HW224999   6.787   7.772   7.159  0.9334  0.6046  2.1793
 7285SOL     OW25000   7.193   0.660   1.526  0.2801  0.0592 -0.3918
 7285SOL    HW125001   7.184   0.623   1.614 -1.1671 -1.4956 -1.1524
 7285SOL    HW225002   7.125   0.728   1.522  0.0796 -0.1464 -0.4533
 7286SOL     OW25003   0.514   0.580   7.124 -0.5323 -0.7353  0.2269
 7286SOL    HW125004   0.490   0.653   7.067 -0.8173 -0.9259  0.1008
 7286SOL    HW225005   0.533   0.508   7.064 -0.8858 -0.9530  0.3727
 7287SOL     OW25006   1.246   2.886   6.112  0.3021 -0.1056 -0.3071
 7287SOL    HW125007   1.152   2.901   6.105  0.4639  1.5637  0.4114
 7287SOL    HW225008   1.255   2.822   6.182 -0.2330  1.9271  1.7511
 7288SOL     OW25009   4.693   3.009   5.874 -0.1266 -0.1169  0.3828
 7288SOL    HW125010   4.746   2.989   5.952  1.9136  0.7048 -0.7103
 7288SOL    HW225011   4.698   2.930   5.821  0.5491  0.1680  0.0089
 7289SOL     OW25012   2.438   7.616   8.046 -0.5820  0.3318 -0.7523
 7289SOL    HW125013   2.508   7.579   8.100 -0.6693  0.4915 -0.5281
 7289SOL    HW225014   2.457   7.710   8.045 -0.6572  0.3454 -0.8886
 7290SOL     OW25015   3.203   5.441   0.064  0.0983  0.1558 -0.3136
 7290SOL    HW125016   3.241   5.367   0.016 -2.6214 -1.7722  0.2655
 7290SOL    HW225017   3.211   5.515   0.004  1.1185 -1.0687 -1.7631
 7291SOL     OW25018   0.933   0.284   0.475 -0.0443 -0.5745 -0.5994
 7291SOL    HW125019   0.875   0.219   0.516 -0.1511  0.6476  1.2790
 7291SOL    HW225020   0.877   0.360   0.461  0.8217  0.2405  0.2294
 7292SOL     OW25021   2.430   5.665   7.057 -0.0162 -0.5257  0.1034
 7292SOL    HW125022   2.349   5.649   7.009 -0.7637  2.9408 -0.0561
 7292SOL    HW225023   2.410   5.641   7.147 -0.7211 -1.1408 -0.2087
 7293SOL     OW25024   1.917   6.305   0.240  0.0437 -0.0292  0.1808
 7293SOL    HW125025   1.981   6.359   0.287 -0.9813  0.8834  0.5717
 7293SOL    HW225026   1.927   6.218   0.278 -1.4474  0.8505  2.9726
 7294SOL     OW25027   5.231   1.486   1.890 -0.3012 -0.8441 -0.1277
 7294SOL    HW125028   5.220   1.553   1.958 -0.0533 -0.7599 -0.1677
 7294SOL    HW225029   5.326   1.476   1.882 -0.2751  0.2011 -1.4753
 7295SOL     OW25030   5.267   1.623   7.105 -0.0052  0.1644 -0.0999
 7295SOL    HW125031   5.288   1.529   7.099 -1.9285 -0.3346  0.4042
 7295SOL    HW225032   5.262   1.640   7.199 -0.6582  0.5275 -0.1966
 7296SOL     OW25033   3.780   1.500   1.349 -0.3339 -0.6035  0.1107
 7296SOL    HW125034   3.703   1.556   1.359 -0.9438 -1.6870  2.2104
 7296SOL    HW225035   3.746   1.411   1.362  1.2683 -1.1022  1.1554
 7297SOL     OW25036   7.640   8.081   1.593 -0.0676 -0.1454 -0.3645
 7297SOL    HW125037   7.569   8.074   1.529  0.6417  0.2020 -1.2081
 7297SOL    HW225038   7.603   8.134   1.664 -0.5918  0.2101 -0.8914
 7298SOL     OW25039   3.593   4.620   7.837  1.1040  0.0571 -0.0620
 7298SOL    HW125040   3.653   4.592   7.768 -0.6414 -1.0049 -1.2439
 7298SOL    HW225041   3.520   4.558   7.831  0.7834  0.0709  2.6168
 7299SOL     OW25042   6.083   6.483   0.609  0.2792  0.1352  0.5831
 7299SOL    HW125043   6.089   6.520   0.520 -0.7885  1.1621  0.9208
 7299SOL    HW225044   5.993   6.453   0.617  0.0197  1.1746  1.7548
 7300SOL     OW25045   1.117   2.823   0.235  0.6454 -0.5503 -0.2134
 7300SOL    HW125046   1.139   2.756   0.300  0.3166  0.1526  0.6366
 7300SOL    HW225047   1.021   2.827   0.237  0.6859  0.4946  0.3237
 7301SOL     OW25048   4.300   0.004   2.971 -0.4293 -0.1506  0.3558
 7301SOL    HW125049   4.219   0.020   2.923 -0.9361 -2.3662  0.3433
 7301SOL    HW225050   4.271  -0.023   3.058  0.2581 -1.0901  0.3134
 7302SOL     OW25051   5.044   2.667   5.849  0.7924 -0.1824  0.6541
 7302SOL    HW125052   5.018   2.579   5.877 -1.3752  0.3535  0.4998
 7302SOL    HW225053   5.003   2.725   5.912 -0.3916  0.8342 -0.9807
 7303SOL     OW25054   2.793   0.835   6.077 -0.4116  0.5058 -0.0444
 7303SOL    HW125055   2.751   0.755   6.047 -1.6844  0.9147  0.5876
 7303SOL    HW225056   2.722   0.888   6.113  0.5430  1.5242  0.4109
 7304SOL     OW25057   0.405   5.034   2.640 -0.2592 -0.1187 -0.5610
 7304SOL    HW125058   0.470   4.963   2.636  0.7621  0.7820 -0.2690
 7304SOL    HW225059   0.323   4.989   2.661  0.3672 -1.2194 -0.3692
 7305SOL     OW25060   1.289   4.430   6.302 -0.2833 -0.1901 -0.0193
 7305SOL    HW125061   1.210   4.406   6.350  0.1447 -0.5688  0.4989
 7305SOL    HW225062   1.361   4.394   6.353  0.2701  0.6525 -0.1747
 7306SOL     OW25063   1.633   4.919   3.181  0.7920 -0.2588 -0.1783
 7306SOL    HW125064   1.712   4.909   3.234  0.9904  0.6182 -0.2917
 7306SOL    HW225065   1.664   4.951   3.096  0.4035 -0.8825 -0.5660
 7307SOL     OW25066   5.340   4.281   6.044 -0.1398 -0.4460 -0.3120
 7307SOL    HW125067   5.256   4.243   6.018  0.3763 -1.1986 -0.9215
 7307SOL    HW225068   5.316   4.360   6.093 -1.2660 -1.8808  1.6215
 7308SOL     OW25069   3.355   0.572   6.626 -0.1898  0.1579  0.0145
 7308SOL    HW125070   3.260   0.564   6.622 -0.1785 -1.7495  1.6976
 7308SOL    HW225071   3.375   0.573   6.720  1.4966 -0.6390 -0.2888
 7309SOL     OW25072   2.268   5.980   0.420 -0.0434 -0.3544  0.0599
 7309SOL    HW125073   2.289   6.063   0.378 -1.6979 -0.0215 -0.1793
 7309SOL    HW225074   2.290   5.993   0.512 -0.9278  0.6007  0.1470
 7310SOL     OW25075   6.769   4.452   0.651 -0.3574  0.4073 -0.3968
 7310SOL    HW125076   6.738   4.535   0.689 -0.6800  0.3768 -0.5822
 7310SOL    HW225077   6.836   4.479   0.588 -0.3246  0.5123 -0.3184
 7311SOL     OW25078   7.708   7.415   3.103 -0.2662 -0.5536  0.2625
 7311SOL    HW125079   7.803   7.422   3.095 -0.2626 -1.3611 -0.6809
 7311SOL    HW225080   7.674   7.459   3.025 -0.7628  1.1512  1.3788
 7312SOL     OW25081   7.037   4.311   3.314 -0.5585 -0.1871 -0.2531
 7312SOL    HW125082   7.104   4.323   3.382  0.4075 -1.3405 -0.9534
 7312SOL    HW225083   7.059   4.377   3.248 -0.0985 -0.5536 -0.4753
 7313SOL     OW25084   4.106   5.569   1.866  0.2384 -0.1853  0.3648
 7313SOL    HW125085   4.191   5.587   1.826  1.1221 -2.0577  1.3037
 7313SOL    HW225086   4.063   5.654   1.869  2.6844  1.1252  1.2398
 7314SOL     OW25087   7.724   3.406   7.779  0.4161 -0.5062  0.9800
 7314SOL    HW125088   7.668   3.332   7.756  0.5528 -1.5014  3.5590
 7314SOL    HW225089   7.702   3.426   7.870  0.7528  2.3459  0.5172
 7315SOL     OW25090   2.583   7.452   2.456 -0.1777  0.1250 -0.0482
 7315SOL    HW125091   2.568   7.357   2.457  0.3104  0.0074  2.5480
 7315SOL    HW225092   2.496   7.490   2.454 -0.3783 -0.3524 -1.0320
 7316SOL     OW25093   7.813   2.486   4.649  0.1931 -0.3568  0.6868
 7316SOL    HW125094   7.722   2.511   4.635 -0.2302 -2.0239  0.3328
 7316SOL    HW225095   7.854   2.565   4.684 -1.3405  0.4686  0.6883
 7317SOL     OW25096   2.798   7.925   1.475 -0.3375 -0.1559  0.0609
 7317SOL    HW125097   2.805   7.928   1.380  0.1785  0.1886  0.1038
 7317SOL    HW225098   2.711   7.889   1.492  0.0172 -1.3391 -0.5335
 7318SOL     OW25099   7.614   6.666   7.122 -0.2979  1.0788 -0.1356
 7318SOL    HW125100   7.646   6.755   7.136  0.7524  0.7046 -0.0149
 7318SOL    HW225101   7.687   6.622   7.077 -0.1704 -0.1393  1.1959
 7319SOL     OW25102   3.700   6.157   3.861  0.4761  0.1239 -0.4769
 7319SOL    HW125103   3.777   6.192   3.816  0.6760  0.7410  0.3190
 7319SOL    HW225104   3.688   6.069   3.825  2.1246 -0.3508  0.0486
 7320SOL     OW25105   4.613   5.375   0.233  0.3836  0.3113  0.0234
 7320SOL    HW125106   4.648   5.458   0.202 -0.9377  0.9322  0.1159
 7320SOL    HW225107   4.539   5.357   0.175  0.2505 -0.4723  0.4169
 7321SOL     OW25108   2.262   8.080   1.735 -0.0627  0.5359 -0.1405
 7321SOL    HW125109   2.221   8.164   1.758  1.0225  1.2494 -0.7220
 7321SOL    HW225110   2.246   8.024   1.811 -3.1652  0.3427 -0.8010
 7322SOL     OW25111   0.593   7.165   6.946  0.4066 -0.2460 -0.5344
 7322SOL    HW125112   0.648   7.223   6.999  1.8320 -0.1818 -2.0114
 7322SOL    HW225113   0.600   7.080   6.989  0.7848 -0.0003 -0.0932
 7323SOL     OW25114   2.551   3.123   4.406 -0.3267 -0.0488 -0.5498
 7323SOL    HW125115   2.639   3.141   4.372 -0.4851  1.6954 -0.1554
 7323SOL    HW225116   2.493   3.137   4.331 -0.2729 -1.6281 -0.9251
 7324SOL     OW25117   5.336   0.458   4.793 -0.3379 -0.7026  0.0285
 7324SOL    HW125118   5.390   0.465   4.715  1.0925  1.2772  1.0969
 7324SOL    HW225119   5.356   0.372   4.830 -0.3124 -1.2588 -1.2376
 7325SOL     OW25120   1.995   1.117   1.598  0.4439 -0.3001  0.4916
 7325SOL    HW125121   1.934   1.159   1.537  0.9397 -0.0884  0.1435
 7325SOL    HW225122   2.060   1.074   1.542  1.0472  0.1091  0.8658
 7326SOL     OW25123   2.465   5.136   6.999  0.0500  0.2527  0.2590
 7326SOL    HW125124   2.509   5.052   7.010  0.3276  0.6369  2.6515
 7326SOL    HW225125   2.380   5.114   6.960  0.7042 -0.9383 -0.5594
 7327SOL     OW25126   5.318   7.357   0.310  0.4360  0.3964 -0.7956
 7327SOL    HW125127   5.399   7.335   0.355  0.7521 -0.9718 -1.9551
 7327SOL    HW225128   5.248   7.321   0.365  0.7694 -0.5812 -0.9995
 7328SOL     OW25129   4.196   5.782   1.602 -0.1774 -0.5379 -0.2617
 7328SOL    HW125130   4.200   5.877   1.594 -2.2696 -0.4196 -0.3984
 7328SOL    HW225131   4.105   5.763   1.625  0.2163 -2.5079 -0.1220
 7329SOL     OW25132   2.333   3.838   7.834  0.0127  0.0305  0.1302
 7329SOL    HW125133   2.366   3.922   7.866  0.3908  0.3287 -0.9977
 7329SOL    HW225134   2.265   3.862   7.770 -1.0523 -0.5546  1.0163
 7330SOL     OW25135   7.369   4.040   1.746  0.3851  0.7602  0.4171
 7330SOL    HW125136   7.427   3.972   1.711 -1.7769 -0.6210 -0.7221
 7330SOL    HW225137   7.411   4.122   1.721  1.0630 -0.1813 -1.7736
 7331SOL     OW25138   7.046   3.237   6.588  0.4857  0.2703 -0.2096
 7331SOL    HW125139   7.101   3.165   6.558 -0.3612 -0.0360 -1.0655
 7331SOL    HW225140   7.092   3.316   6.561  0.1929  0.0069 -1.5280
 7332SOL     OW25141   7.784   8.085   1.122  0.0352  0.0001 -0.8888
 7332SOL    HW125142   7.859   8.029   1.142  0.7381  0.9930 -0.6594
 7332SOL    HW225143   7.822   8.165   1.088 -0.9235  0.5761 -0.6547
 7333SOL     OW25144   5.635   2.772   2.221 -0.1527  0.3076  0.0481
 7333SOL    HW125145   5.566   2.835   2.239 -0.9309 -0.2603 -0.8666
 7333SOL    HW225146   5.709   2.824   2.190  0.0102  0.9627  1.4288
 7334SOL     OW25147   2.088   5.021   1.735 -0.0570 -0.4051 -0.5247
 7334SOL    HW125148   2.077   5.114   1.757  1.3689 -0.4042  0.3287
 7334SOL    HW225149   2.084   5.019   1.640  1.6979  0.8426 -0.6883
 7335SOL     OW25150   3.280   3.165   4.108  0.5475  0.4675  0.0986
 7335SOL    HW125151   3.340   3.201   4.173 -2.5276  1.1434  2.7884
 7335SOL    HW225152   3.262   3.076   4.138 -1.3242  0.9707  0.5790
 7336SOL     OW25153   7.563   6.013   5.322  0.4477 -0.1353  0.1232
 7336SOL    HW125154   7.489   6.073   5.313  0.2687 -0.2075  1.0515
 7336SOL    HW225155   7.544   5.942   5.261  0.3993  0.4824 -0.5923
 7337SOL     OW25156   5.447   4.044   3.270 -0.8473  0.3033  0.3045
 7337SOL    HW125157   5.378   4.060   3.206 -2.2696  0.3379  1.7776
 7337SOL    HW225158   5.417   4.090   3.349  1.8188  2.0150  0.4317
 7338SOL     OW25159   0.980   1.352   0.337 -0.0334 -0.1553 -0.1085
 7338SOL    HW125160   0.997   1.333   0.245 -0.7446 -0.1381 -0.2498
 7338SOL    HW225161   1.048   1.304   0.384  1.0164  0.6987 -0.6849
 7339SOL     OW25162   3.389   2.434   7.802 -0.7042 -0.0282  0.5536
 7339SOL    HW125163   3.426   2.346   7.812 -0.0849 -0.0251 -1.3024
 7339SOL    HW225164   3.355   2.436   7.712 -1.0006  1.5244  0.6678
 7340SOL     OW25165   1.122   5.107   2.949 -0.2517  0.0459 -0.1778
 7340SOL    HW125166   1.105   5.037   2.885  0.8838 -0.0347 -0.4032
 7340SOL    HW225167   1.063   5.178   2.922 -1.3295 -0.7551 -0.0248
 7341SOL     OW25168   1.389   1.721   5.963 -0.2486 -0.8486  0.3254
 7341SOL    HW125169   1.470   1.759   5.928 -1.6181  1.7258 -0.3282
 7341SOL    HW225170   1.404   1.627   5.962  2.1031 -0.5439 -1.3783
 7342SOL     OW25171   0.821   7.532   6.749  0.6131  0.1233 -0.3658
 7342SOL    HW125172   0.820   7.538   6.654 -0.7122 -0.2820 -0.3956
 7342SOL    HW225173   0.859   7.446   6.767 -0.3365 -0.3561 -0.5837
 7343SOL     OW25174   0.147   3.194   4.440 -0.3045  0.5289  0.1197
 7343SOL    HW125175   0.157   3.122   4.501  1.9798  2.1148  1.7570
 7343SOL    HW225176   0.184   3.162   4.358  1.1991 -0.0232  0.9785
 7344SOL     OW25177   6.846   2.586   0.399 -0.0597 -0.3868  0.0696
 7344SOL    HW125178   6.867   2.524   0.329 -0.4163  0.0952 -0.4733
 7344SOL    HW225179   6.864   2.672   0.361 -2.8440  0.0817 -0.4119
 7345SOL     OW25180   7.508   3.279   3.048  0.7316  0.3532  0.4646
 7345SOL    HW125181   7.471   3.191   3.059 -1.2368  1.1984  1.1834
 7345SOL    HW225182   7.503   3.295   2.954 -0.4041  0.2727  0.4950
 7346SOL     OW25183   2.170   6.842   5.142  0.3811 -0.2558 -0.1195
 7346SOL    HW125184   2.140   6.892   5.066  0.7571 -1.4078 -1.0528
 7346SOL    HW225185   2.102   6.776   5.156 -0.4487  0.8877  1.5281
 7347SOL     OW25186   0.607   6.664   2.156 -0.6091 -0.1385  0.2319
 7347SOL    HW125187   0.568   6.725   2.092 -1.4743  0.2054  1.0548
 7347SOL    HW225188   0.554   6.585   2.147 -0.3142 -0.3154  0.0675
 7348SOL     OW25189   5.364   2.753   6.330 -0.5035 -0.2585  0.8306
 7348SOL    HW125190   5.308   2.694   6.280  1.5060 -0.3462 -1.4676
 7348SOL    HW225191   5.341   2.840   6.298  0.3979 -0.2694  0.1255
 7349SOL     OW25192   1.658   0.222   4.046 -0.6187 -0.4438 -0.0698
 7349SOL    HW125193   1.592   0.157   4.023 -0.9774  0.3123 -1.2743
 7349SOL    HW225194   1.642   0.242   4.138 -1.2724 -1.1760 -0.0218
 7350SOL     OW25195   2.909   2.086   6.409  0.5715  0.3581 -0.1471
 7350SOL    HW125196   2.831   2.138   6.427  1.8782  2.4907 -0.2851
 7350SOL    HW225197   2.982   2.143   6.432  2.1356 -1.0532 -1.3165
 7351SOL     OW25198   7.368   0.036   1.549  0.1644  0.0805  0.5021
 7351SOL    HW125199   7.308   0.091   1.601 -1.4770 -0.4574 -0.7236
 7351SOL    HW225200   7.323  -0.049   1.544  0.7580 -0.1618 -0.9546
 7352SOL     OW25201   0.742   2.585   2.110 -0.0185  0.9353  0.5806
 7352SOL    HW125202   0.773   2.549   2.027  1.7386  0.8154  1.2493
 7352SOL    HW225203   0.694   2.513   2.151  1.0519  0.2511  0.6620
 7353SOL     OW25204   1.194   2.731   2.594 -0.1140  0.8628 -0.1743
 7353SOL    HW125205   1.150   2.813   2.572  1.6623  1.8848 -0.0824
 7353SOL    HW225206   1.229   2.745   2.682 -1.2499 -0.6546  0.5638
 7354SOL     OW25207   4.440   5.587   1.311 -0.3155  0.0249 -0.1495
 7354SOL    HW125208   4.491   5.665   1.332  1.2518 -1.0237  0.0883
 7354SOL    HW225209   4.459   5.526   1.383  0.2133 -1.3630 -1.4213
 7355SOL     OW25210   3.961   0.978   6.103 -0.3659  0.0721 -1.1804
 7355SOL    HW125211   3.901   1.052   6.095 -1.1695 -0.7408 -3.4797
 7355SOL    HW225212   3.912   0.912   6.151  0.3096  0.9024  0.7696
 7356SOL     OW25213   2.629   2.014   6.681  0.3018  0.4398  0.4248
 7356SOL    HW125214   2.615   1.976   6.595 -0.6383 -1.9481  1.5496
 7356SOL    HW225215   2.547   2.059   6.701  1.1017  2.4695 -0.5330
 7357SOL     OW25216   6.905   5.949   2.744  0.5014 -0.0575 -0.5510
 7357SOL    HW125217   6.929   5.931   2.653  1.5308  0.6275 -0.4276
 7357SOL    HW225218   6.942   5.876   2.793 -1.2574 -1.1905 -0.7987
 7358SOL     OW25219   3.345   6.654   1.070 -0.0809  0.3254  0.4244
 7358SOL    HW125220   3.289   6.647   1.148 -0.9307 -0.6350 -0.2424
 7358SOL    HW225221   3.289   6.694   1.004  0.0027 -0.6233 -0.2454
 7359SOL     OW25222   2.239   3.249   6.560  0.9366 -0.4944  0.1970
 7359SOL    HW125223   2.258   3.323   6.618  0.0482  0.6090 -0.8759
 7359SOL    HW225224   2.318   3.240   6.506  0.5452  0.5809 -0.5914
 7360SOL     OW25225   2.332   3.422   6.041 -0.2592  0.1744 -0.1206
 7360SOL    HW125226   2.258   3.364   6.023  0.4968 -1.1452  0.9287
 7360SOL    HW225227   2.294   3.495   6.091 -1.1099  0.3443 -0.9781
 7361SOL     OW25228   6.680   6.455   1.986 -0.2227 -0.3374 -0.1254
 7361SOL    HW125229   6.605   6.503   1.952 -0.5059 -0.7308 -0.0626
 7361SOL    HW225230   6.741   6.451   1.913 -0.5166 -0.5338 -0.3613
 7362SOL     OW25231   6.725   3.054   6.264  0.3961 -0.1335  0.2839
 7362SOL    HW125232   6.777   3.016   6.194  0.5414 -0.0107  0.3223
 7362SOL    HW225233   6.653   2.993   6.278 -1.0639  1.0193 -1.6548
 7363SOL     OW25234   2.381   6.802   3.734  0.1236 -0.2664  0.3487
 7363SOL    HW125235   2.297   6.828   3.771 -0.4528 -0.6247 -0.6995
 7363SOL    HW225236   2.383   6.840   3.647  0.7602 -0.8204  0.1083
 7364SOL     OW25237   0.666   8.004   0.079 -0.2082  0.3053  0.2499
 7364SOL    HW125238   0.601   7.937   0.100  1.5313 -0.8639  2.2803
 7364SOL    HW225239   0.666   8.062   0.156 -0.2371  1.4623 -0.5989
 7365SOL     OW25240   5.977   6.848   0.249  0.3418 -0.0595  0.5622
 7365SOL    HW125241   5.930   6.926   0.280 -1.9476 -0.4931 -1.4997
 7365SOL    HW225242   5.993   6.866   0.156 -1.0825 -2.3527 -0.2070
 7366SOL     OW25243   6.183   1.056   1.078  0.5354  0.0225  0.5115
 7366SOL    HW125244   6.262   1.027   1.032  0.1939 -0.9750  0.5197
 7366SOL    HW225245   6.129   1.098   1.011  0.0996 -1.3012 -0.0027
 7367SOL     OW25246   0.390   4.770   3.296  0.1793  0.6759 -0.3385
 7367SOL    HW125247   0.454   4.734   3.234 -0.0120 -1.4835  0.6363
 7367SOL    HW225248   0.444   4.814   3.362  0.8437 -2.0213  1.0483
 7368SOL     OW25249   6.217   0.474   6.002  0.2626 -0.2781 -0.0873
 7368SOL    HW125250   6.147   0.429   6.050 -0.8844  0.8738 -0.6272
 7368SOL    HW225251   6.284   0.491   6.068 -0.7257  0.1366  0.8322
 7369SOL     OW25252   7.748   5.459   0.871  0.1826 -0.3019  0.1195
 7369SOL    HW125253   7.748   5.433   0.779 -0.3293  1.5626 -0.4528
 7369SOL    HW225254   7.820   5.409   0.910  3.1205  1.7103 -2.1969
 7370SOL     OW25255   2.369   4.819   5.147  0.2846 -0.0661 -0.0178
 7370SOL    HW125256   2.451   4.771   5.135 -0.0904 -0.6423 -0.3317
 7370SOL    HW225257   2.301   4.752   5.140 -0.2352  0.4737 -0.2044
 7371SOL     OW25258   0.823   3.570   4.233 -0.8912  0.5134 -0.5571
 7371SOL    HW125259   0.746   3.623   4.211 -1.9462 -0.7944 -0.1298
 7371SOL    HW225260   0.801   3.529   4.317 -0.0984 -0.5664 -0.8582
 7372SOL     OW25261   2.061   1.479   3.713  0.2045  0.1271 -0.7501
 7372SOL    HW125262   2.071   1.499   3.620 -0.0324 -2.8105 -1.4844
 7372SOL    HW225263   2.151   1.480   3.747  0.3574  0.5521 -1.1521
 7373SOL     OW25264   6.765   0.465   7.346 -0.6595 -0.1307 -0.4377
 7373SOL    HW125265   6.729   0.376   7.349 -1.7771  0.3199  1.3607
 7373SOL    HW225266   6.697   0.517   7.305 -1.0293  0.2732  0.6414
 7374SOL     OW25267   5.525   5.323   5.826  0.6080 -0.3320 -0.1187
 7374SOL    HW125268   5.539   5.324   5.920 -1.9011 -1.6824  0.3837
 7374SOL    HW225269   5.560   5.239   5.797  1.8381  0.2945 -0.5318
 7375SOL     OW25270   3.563   6.796   0.985  0.0075  0.1550 -0.3317
 7375SOL    HW125271   3.639   6.751   1.023  0.5646  1.2410 -0.1186
 7375SOL    HW225272   3.489   6.739   1.006  0.8032 -1.1144 -0.8628
 7376SOL     OW25273   4.745   1.187   2.058  0.0779 -0.2983  0.3382
 7376SOL    HW125274   4.752   1.151   1.970 -0.4433  0.2459  0.0692
 7376SOL    HW225275   4.764   1.280   2.048  1.6800 -0.5257  1.0751
 7377SOL     OW25276   2.138   7.144   7.086 -0.1064  0.2355 -0.1436
 7377SOL    HW125277   2.127   7.235   7.112  1.7796  0.1667  1.1285
 7377SOL    HW225278   2.122   7.143   6.992 -2.9433  1.3155  0.2516
 7378SOL     OW25279   5.655   1.459   2.168  0.6815 -0.2954 -0.1333
 7378SOL    HW125280   5.629   1.545   2.135 -0.8297  0.0219  1.7204
 7378SOL    HW225281   5.589   1.399   2.133 -0.3621 -0.1059  1.4462
 7379SOL     OW25282   6.682   3.945   2.817 -0.5218 -0.5414  0.2129
 7379SOL    HW125283   6.706   3.859   2.783  0.3197  0.2623 -1.3093
 7379SOL    HW225284   6.591   3.957   2.790  0.3285  0.3908 -2.5995
 7380SOL     OW25285   3.796   7.389   6.799 -0.0897  0.0958  0.5292
 7380SOL    HW125286   3.788   7.350   6.886 -0.4593  1.0546  0.9363
 7380SOL    HW225287   3.870   7.450   6.807  0.1363 -0.1115  0.0529
 7381SOL     OW25288   2.217   7.814   6.648  0.2725  0.3533  0.3027
 7381SOL    HW125289   2.259   7.826   6.733 -0.2372  0.9589  0.4769
 7381SOL    HW225290   2.123   7.821   6.665  0.1414 -0.0159 -0.2308
 7382SOL     OW25291   4.182   4.742   6.900 -0.2286 -0.0894  0.1893
 7382SOL    HW125292   4.115   4.745   6.968  0.0493  1.0950  0.4381
 7382SOL    HW225293   4.134   4.741   6.817 -0.5558 -0.7644  0.3800
 7383SOL     OW25294   7.609   1.608   4.618  0.0240  0.1613 -0.3526
 7383SOL    HW125295   7.577   1.630   4.706 -0.1134  0.9741 -0.6015
 7383SOL    HW225296   7.694   1.651   4.611  0.2906 -0.3647 -0.4198
 7384SOL     OW25297   7.220   6.670   5.908 -0.6383  0.7460  0.2920
 7384SOL    HW125298   7.198   6.707   5.822 -3.6448 -1.0060  0.1909
 7384SOL    HW225299   7.223   6.575   5.894  4.6291  0.4695  1.0240
 7385SOL     OW25300   1.921   3.649   1.616 -0.3582  0.4378  0.6017
 7385SOL    HW125301   1.939   3.566   1.660 -0.2169  0.7710  1.1793
 7385SOL    HW225302   1.827   3.661   1.627 -0.7377 -0.5616 -1.1187
 7386SOL     OW25303   7.743   7.639   0.564 -0.1212 -0.0482  0.3874
 7386SOL    HW125304   7.730   7.691   0.485 -0.7792 -0.9511 -0.1261
 7386SOL    HW225305   7.818   7.583   0.545 -1.0728 -1.2115 -0.1600
 7387SOL     OW25306   5.285   3.629   7.760 -0.1269  0.0329 -0.2161
 7387SOL    HW125307   5.333   3.640   7.679  0.9084  0.4551  0.4366
 7387SOL    HW225308   5.327   3.689   7.822  0.8841 -2.1407  1.3726
 7388SOL     OW25309   1.864   7.320   6.312  0.1631  0.3949  0.5829
 7388SOL    HW125310   1.840   7.410   6.330 -1.0474  0.0279  0.9070
 7388SOL    HW225311   1.799   7.268   6.360 -0.7290 -0.6364 -1.6065
 7389SOL     OW25312   6.106   4.761   3.543  0.3208  0.6539  0.0003
 7389SOL    HW125313   6.080   4.700   3.613 -2.3409  1.1407 -0.4695
 7389SOL    HW225314   6.089   4.848   3.579  1.5110  1.0379 -0.3194
 7390SOL     OW25315   7.361   5.945   2.058 -0.0564 -0.3981  0.9163
 7390SOL    HW125316   7.365   5.857   2.096 -3.4547 -0.5568  1.1788
 7390SOL    HW225317   7.390   6.002   2.129  0.0116 -1.1323  1.5020
 7391SOL     OW25318   6.217   3.018   5.672 -0.4966 -0.4782  0.2737
 7391SOL    HW125319   6.142   3.058   5.718  0.4098 -0.8690  2.1679
 7391SOL    HW225320   6.259   2.963   5.737  0.9522 -0.9651 -1.0115
 7392SOL     OW25321   6.694   3.922   5.651 -0.5775  0.1382  0.1842
 7392SOL    HW125322   6.732   3.910   5.737  0.8700  1.1203 -0.2843
 7392SOL    HW225323   6.742   3.862   5.594  1.4354  2.3726 -0.6888
 7393SOL     OW25324   4.237   2.120   0.945 -0.0029 -0.5958 -0.1195
 7393SOL    HW125325   4.189   2.051   0.991 -1.5761  0.9185  0.5998
 7393SOL    HW225326   4.171   2.163   0.891  1.3302 -0.7786 -1.9902
 7394SOL     OW25327   5.028   0.693   0.891  0.2111 -0.2376  0.3079
 7394SOL    HW125328   4.936   0.687   0.918  0.2991 -0.6257  0.5231
 7394SOL    HW225329   5.052   0.604   0.866  0.5743 -0.1687  0.3984
 7395SOL     OW25330   6.217   2.011   0.763 -0.4186 -0.1689  0.2869
 7395SOL    HW125331   6.149   1.969   0.816 -1.4112 -1.6536 -2.0169
 7395SOL    HW225332   6.179   2.018   0.675  2.0108 -0.0950 -0.8529
 7396SOL     OW25333   7.545   6.635   6.057  0.4503 -0.1327  0.6092
 7396SOL    HW125334   7.618   6.693   6.036  1.2689 -0.8820  1.3494
 7396SOL    HW225335   7.480   6.694   6.097  1.4506  0.2267  1.7592
 7397SOL     OW25336   4.070   5.877   3.115 -0.2741  0.2323  0.1537
 7397SOL    HW125337   4.104   5.787   3.111 -0.1563  0.2977 -0.5493
 7397SOL    HW225338   4.116   5.917   3.188  0.7923  0.1662 -0.4665
 7398SOL     OW25339   2.914   2.379   3.655 -0.1062 -0.1357 -0.3446
 7398SOL    HW125340   2.871   2.294   3.664  0.8559 -0.6033  0.0093
 7398SOL    HW225341   2.938   2.403   3.744  1.2089 -0.3482 -0.6186
 7399SOL     OW25342   7.127   8.010   1.091 -0.4690  0.2553  0.1421
 7399SOL    HW125343   7.062   8.059   1.140 -0.8160  0.1923 -0.2536
 7399SOL    HW225344   7.104   8.024   1.000  0.2413  0.4650 -0.0123
 7400SOL     OW25345   3.050   7.359   0.891  0.2209  0.1939  0.7485
 7400SOL    HW125346   3.047   7.395   0.979 -1.1751  1.8146  0.0902
 7400SOL    HW225347   3.052   7.264   0.904  1.0689  0.4169  2.5115
 7401SOL     OW25348   1.615   7.941   1.656  0.5354  0.5328 -0.1679
 7401SOL    HW125349   1.562   8.015   1.626  2.8816  2.5386  0.3687
 7401SOL    HW225350   1.704   7.962   1.628  1.2777 -2.2640 -0.2357
 7402SOL     OW25351   2.654   1.295   5.401 -0.7354  0.5833 -0.2593
 7402SOL    HW125352   2.575   1.311   5.349 -0.6653  1.8710 -0.0152
 7402SOL    HW225353   2.712   1.369   5.381 -0.5800  0.9651  1.3971
 7403SOL     OW25354   7.381   1.464   1.734 -0.2952  0.4088 -0.1440
 7403SOL    HW125355   7.356   1.544   1.780 -0.1746  0.6652 -0.5184
 7403SOL    HW225356   7.437   1.494   1.663 -0.5239  0.0261 -0.4906
 7404SOL     OW25357   5.415   6.092   4.654  0.4413 -0.1003 -0.2081
 7404SOL    HW125358   5.458   6.043   4.724  0.1009 -0.2474 -0.1024
 7404SOL    HW225359   5.476   6.085   4.580 -0.6337 -2.7058 -0.9659
 7405SOL     OW25360   1.690   2.377   1.914  0.4519  0.3289  0.6253
 7405SOL    HW125361   1.642   2.454   1.943  0.2961  0.0569  1.1016
 7405SOL    HW225362   1.667   2.309   1.977  0.4166 -0.1659  0.0833
 7406SOL     OW25363   2.344   7.682   5.109  0.5060  0.3274 -0.0977
 7406SOL    HW125364   2.290   7.648   5.180  0.2425  0.1365 -0.3878
 7406SOL    HW225365   2.298   7.760   5.079 -0.4298 -0.6439 -1.3352
 7407SOL     OW25366   7.440   0.335   0.293  0.0228 -0.0895  0.1186
 7407SOL    HW125367   7.530   0.319   0.321 -0.4342 -0.2004  1.6117
 7407SOL    HW225368   7.447   0.353   0.200  1.7139  0.8832  0.3863
 7408SOL     OW25369   5.163   4.043   4.590  0.2568  0.0481 -0.2053
 7408SOL    HW125370   5.128   4.132   4.581  0.8715  0.4125  0.8948
 7408SOL    HW225371   5.257   4.052   4.577  0.3884 -0.3608  0.4198
 7409SOL     OW25372   7.307   1.576   6.780 -0.0345 -0.1951 -0.5544
 7409SOL    HW125373   7.339   1.523   6.853 -1.5490  0.8156  0.9216
 7409SOL    HW225374   7.268   1.513   6.720 -2.1328 -0.8425  1.3299
 7410SOL     OW25375   1.956   4.385   6.352  0.3145 -0.2430  0.1325
 7410SOL    HW125376   1.983   4.336   6.430 -1.0054 -0.6492  0.3623
 7410SOL    HW225377   1.863   4.404   6.367 -0.0021 -0.4533 -1.4128
 7411SOL     OW25378   2.323   5.164   0.234  0.3863 -0.1578  0.6561
 7411SOL    HW125379   2.315   5.162   0.139 -0.0677  1.4935  0.6172
 7411SOL    HW225380   2.238   5.198   0.264  0.2018 -1.5031  1.7182
 7412SOL     OW25381   7.026   0.892   4.657  0.2245  0.4211  0.4629
 7412SOL    HW125382   7.114   0.927   4.650 -0.2685  1.8846  1.1977
 7412SOL    HW225383   6.990   0.901   4.569  0.2726  1.3388  0.5316
 7413SOL     OW25384   6.105   0.088   3.258  0.3568 -0.1138  0.8285
 7413SOL    HW125385   6.181   0.050   3.215 -1.1076  1.7876 -4.1786
 7413SOL    HW225386   6.140   0.159   3.312  2.2865  1.5302 -2.2774
 7414SOL     OW25387   6.906   7.004   7.474  0.1765 -0.1786  0.2074
 7414SOL    HW125388   6.810   7.000   7.467 -0.0127 -1.5564  2.6798
 7414SOL    HW225389   6.935   6.916   7.452  0.9142  0.2193 -0.4662
 7415SOL     OW25390   1.510   4.497   3.691 -0.3949 -0.5865 -0.3730
 7415SOL    HW125391   1.497   4.463   3.603 -0.6970 -0.5344 -0.3473
 7415SOL    HW225392   1.604   4.514   3.696 -0.2756 -1.1752 -0.4741
 7416SOL     OW25393   4.659   5.304   1.283  0.4510  0.3070 -0.8448
 7416SOL    HW125394   4.656   5.251   1.203 -0.0026  1.9117 -1.9358
 7416SOL    HW225395   4.575   5.286   1.327  1.2270 -1.5493 -0.0328
 7417SOL     OW25396   7.222   3.940   1.407  0.2193 -0.0487  0.2956
 7417SOL    HW125397   7.134   3.976   1.416 -0.5404 -1.7593  0.0769
 7417SOL    HW225398   7.242   3.905   1.494  0.5992  0.1793  0.2976
 7418SOL     OW25399   0.900   4.035   5.972  0.0974  0.4075 -0.0948
 7418SOL    HW125400   0.955   4.041   5.894  0.6978  2.6588  0.4190
 7418SOL    HW225401   0.957   4.064   6.043 -1.4034  1.7247  0.6233
 7419SOL     OW25402   6.610   2.710   4.381 -0.1039 -0.4329  0.0990
 7419SOL    HW125403   6.571   2.656   4.312 -0.3839 -0.5455  0.3419
 7419SOL    HW225404   6.705   2.703   4.367 -0.1896  0.8511 -1.2586
 7420SOL     OW25405   1.936   2.329   3.756 -0.1871  0.1437  0.1675
 7420SOL    HW125406   1.901   2.418   3.754 -1.2659 -0.2480  0.9234
 7420SOL    HW225407   2.010   2.331   3.695 -0.4047  1.4645 -0.0762
 7421SOL     OW25408   2.809   7.600   2.372 -0.0567 -0.1007  0.4217
 7421SOL    HW125409   2.727   7.564   2.406  0.0694 -2.1428 -1.2119
 7421SOL    HW225410   2.875   7.533   2.394  0.5653  0.0132 -0.9930
 7422SOL     OW25411   6.525   5.412   5.765 -0.7642 -0.0907 -0.2623
 7422SOL    HW125412   6.443   5.396   5.719 -0.6301 -2.0943  0.1092
 7422SOL    HW225413   6.499   5.460   5.844 -1.5258 -0.2991 -0.3756
 7423SOL     OW25414   7.796   5.005   5.254  0.3253  0.2114 -0.0962
 7423SOL    HW125415   7.817   4.912   5.265 -2.3685 -0.3399  1.1678
 7423SOL    HW225416   7.770   5.034   5.342 -2.4912  1.1151 -1.1375
 7424SOL     OW25417   2.678   5.805   3.497  0.2281  0.1567 -0.2476
 7424SOL    HW125418   2.658   5.845   3.412  1.9727  0.5233 -0.5297
 7424SOL    HW225419   2.633   5.861   3.561  0.9860  1.4249 -0.7785
 7425SOL     OW25420   7.941   0.210   4.275  0.4139 -0.1614 -0.9213
 7425SOL    HW125421   8.019   0.234   4.324  0.6981 -0.6110 -1.1548
 7425SOL    HW225422   7.868   0.239   4.330  0.7139 -1.2229  0.0572
 7426SOL     OW25423   3.763   1.313   0.105 -0.2853 -0.4113 -0.5697
 7426SOL    HW125424   3.710   1.347   0.177  1.5942  1.3973  0.0594
 7426SOL    HW225425   3.791   1.227   0.135 -0.7772 -0.3221  0.1801
 7427SOL     OW25426   0.604   4.085   0.094  0.1027  0.3198  0.0713
 7427SOL    HW125427   0.508   4.076   0.093  0.1901 -1.1106  0.9727
 7427SOL    HW225428   0.623   4.122   0.180  0.3198  1.5204 -0.4743
 7428SOL     OW25429   2.520   1.858   2.694  0.0367 -0.4167 -0.3590
 7428SOL    HW125430   2.589   1.907   2.739 -0.3267 -1.1160  0.9974
 7428SOL    HW225431   2.561   1.831   2.612 -0.1305  3.2024 -1.8241
 7429SOL     OW25432   6.835   3.992   5.232 -0.5496 -0.1241  0.5041
 7429SOL    HW125433   6.922   4.011   5.196 -1.2305  1.2660 -0.4957
 7429SOL    HW225434   6.844   3.905   5.271  1.2935  0.0076  0.4518
 7430SOL     OW25435   1.761   4.486   7.508 -0.3157  0.7947 -0.0439
 7430SOL    HW125436   1.819   4.533   7.448  0.9591 -0.2004  0.3629
 7430SOL    HW225437   1.782   4.521   7.594  0.3341 -0.1842  0.2082
 7431SOL     OW25438   3.152   0.613   3.825 -0.0658  0.3526  0.1911
 7431SOL    HW125439   3.078   0.645   3.876 -0.9360 -1.6261  0.2579
 7431SOL    HW225440   3.229   0.644   3.872 -0.8554  1.1002  1.0212
 7432SOL     OW25441   4.170   1.742   1.272 -0.5983  0.4777 -0.0764
 7432SOL    HW125442   4.156   1.811   1.337  3.9384 -0.1654  1.9713
 7432SOL    HW225443   4.258   1.758   1.238 -1.7973 -0.6873 -4.4401
 7433SOL     OW25444   7.897   1.470   0.044 -0.4135  0.6159 -0.5637
 7433SOL    HW125445   7.952   1.470  -0.035 -1.3588  1.8000 -1.2596
 7433SOL    HW225446   7.809   1.448   0.012 -0.8895  1.4940  0.0873
 7434SOL     OW25447   5.400   2.894   1.898 -0.2122 -1.0965 -0.0670
 7434SOL    HW125448   5.452   2.936   1.966  0.8219 -1.6832 -0.4677
 7434SOL    HW225449   5.315   2.879   1.938 -0.2595  0.3799  0.4352
 7435SOL     OW25450   7.490   4.595   2.506  0.2303  0.0418  0.1121
 7435SOL    HW125451   7.533   4.561   2.584  0.5836  0.9633  0.3307
 7435SOL    HW225452   7.444   4.520   2.469  1.7795 -0.9126  0.0463
 7436SOL     OW25453   0.058   2.106   6.243 -0.1210 -0.2452 -0.1071
 7436SOL    HW125454   0.004   2.171   6.198  0.9631  2.4943  2.1830
 7436SOL    HW225455  -0.003   2.041   6.276 -1.6240  0.9301 -0.4734
 7437SOL     OW25456   0.685   0.844   3.220  0.7901  0.1288  0.0537
 7437SOL    HW125457   0.733   0.926   3.236 -1.1209  0.9419  2.1893
 7437SOL    HW225458   0.595   0.863   3.246 -0.5449 -1.6566 -2.7649
 7438SOL     OW25459   0.836   1.986   5.607 -0.0917  0.2843 -0.1378
 7438SOL    HW125460   0.894   2.001   5.532 -0.8845 -1.8362 -1.2538
 7438SOL    HW225461   0.788   1.906   5.585 -0.3764 -0.4148  2.6282
 7439SOL     OW25462   2.181   2.120   1.231 -0.3544  0.1072  0.0969
 7439SOL    HW125463   2.230   2.042   1.204 -0.2174  0.5222 -0.8965
 7439SOL    HW225464   2.138   2.150   1.151 -1.9617 -0.0350  0.8742
 7440SOL     OW25465   7.946   2.778   6.128  0.1868 -0.6778 -0.2749
 7440SOL    HW125466   8.035   2.785   6.093  0.5094 -1.1166  0.4407
 7440SOL    HW225467   7.933   2.684   6.142  0.2300 -0.4923  1.1729
 7441SOL     OW25468   0.628   5.495   5.331  0.2922  0.4703  0.6595
 7441SOL    HW125469   0.627   5.591   5.332  1.0025  0.4936  0.0836
 7441SOL    HW225470   0.703   5.473   5.275 -0.3380 -0.4248  0.1605
 7442SOL     OW25471   6.603   0.408   4.377  0.7109 -0.2992 -0.6196
 7442SOL    HW125472   6.597   0.491   4.424  1.5982  0.2295 -1.4292
 7442SOL    HW225473   6.518   0.398   4.334  0.3726 -0.1384  0.0077
 7443SOL     OW25474   1.900   2.953   5.113  0.2261 -0.4742  0.2287
 7443SOL    HW125475   1.886   3.030   5.168 -0.9603 -1.6587  1.6787
 7443SOL    HW225476   1.994   2.954   5.093  0.4029  0.8095  1.0180
 7444SOL     OW25477   5.074   6.446   7.289 -0.0264 -0.0661 -0.3695
 7444SOL    HW125478   5.082   6.355   7.319 -0.2483  0.0101 -0.0744
 7444SOL    HW225479   5.032   6.491   7.362 -0.3926  0.1647 -0.7210
 7445SOL     OW25480   1.685   3.004   0.674 -0.2333  0.4440 -0.0555
 7445SOL    HW125481   1.601   2.969   0.703 -0.2007  1.2215  1.0468
 7445SOL    HW225482   1.744   2.929   0.674 -0.3231  0.3262  1.6522
 7446SOL     OW25483   4.517   2.535   5.138 -0.1877 -0.3663  0.2507
 7446SOL    HW125484   4.494   2.465   5.076  1.5360 -0.8014  0.0494
 7446SOL    HW225485   4.511   2.615   5.087  1.6293 -0.7595 -0.6641
 7447SOL     OW25486   7.244   2.711   1.623  0.4287  0.0720  0.3457
 7447SOL    HW125487   7.240   2.643   1.555  0.9123 -0.2094  0.5956
 7447SOL    HW225488   7.336   2.715   1.648  0.3130  0.4388  0.7207
 7448SOL     OW25489   1.931   2.678   4.267 -0.0943 -0.1522 -0.6198
 7448SOL    HW125490   1.933   2.605   4.204 -0.2701 -0.3955 -0.3461
 7448SOL    HW225491   1.858   2.657   4.325 -1.5589  1.3076 -1.8185
 7449SOL     OW25492   6.491   0.357   0.312 -0.1866 -0.3550 -0.2150
 7449SOL    HW125493   6.512   0.264   0.309 -1.2940 -0.6184 -2.5989
 7449SOL    HW225494   6.396   0.360   0.307 -0.3333  0.9062  2.2626
 7450SOL     OW25495   6.704   0.047   7.816 -0.2259 -0.2359  0.1814
 7450SOL    HW125496   6.678  -0.024   7.757  1.9215 -1.3499  0.4713
 7450SOL    HW225497   6.790   0.073   7.786 -0.5156  1.5417  0.7683
 7451SOL     OW25498   2.522   4.479   4.818  0.4278 -0.0322 -0.4507
 7451SOL    HW125499   2.523   4.397   4.769 -0.9234  0.1190 -0.7599
 7451SOL    HW225500   2.462   4.535   4.770  0.5322  0.7776  0.3442
 7452SOL     OW25501   5.800   6.183   3.437  0.6009 -0.0352  0.3403
 7452SOL    HW125502   5.817   6.275   3.460  1.2943 -0.5547  2.1003
 7452SOL    HW225503   5.860   6.164   3.365  0.2232  0.9643 -0.2572
 7453SOL     OW25504   7.132   0.033   2.711 -0.4635 -0.0372  0.7885
 7453SOL    HW125505   7.042   0.013   2.738 -1.8287  2.5600 -1.3225
 7453SOL    HW225506   7.154   0.114   2.756 -0.3503  0.9053 -0.8775
 7454SOL     OW25507   5.857   5.637   0.466  1.0129  0.2437  0.5931
 7454SOL    HW125508   5.847   5.730   0.483 -1.2486  0.2875 -0.6115
 7454SOL    HW225509   5.768   5.604   0.456  1.7686 -1.9679  0.5153
 7455SOL     OW25510   6.974   2.601   7.298  0.1837 -0.1825  0.1740
 7455SOL    HW125511   6.915   2.676   7.291  1.3993  0.7154 -0.7145
 7455SOL    HW225512   6.915   2.525   7.303 -1.0501  0.7513  0.2560
 7456SOL     OW25513   1.685   6.087   5.905  0.5900 -0.4797  0.6710
 7456SOL    HW125514   1.636   6.015   5.944 -0.2182  0.1099  0.7868
 7456SOL    HW225515   1.702   6.147   5.977  1.2090 -0.5215  0.5662
 7457SOL     OW25516   7.748   3.478   6.259 -0.0752 -0.5558 -0.2638
 7457SOL    HW125517   7.682   3.451   6.196 -0.0125  0.6497 -0.8691
 7457SOL    HW225518   7.799   3.545   6.214  0.4674 -0.2343  0.7886
 7458SOL     OW25519   3.583   0.466   7.101 -0.2982 -0.2517  0.0161
 7458SOL    HW125520   3.648   0.536   7.103 -1.6116  1.0091  0.2005
 7458SOL    HW225521   3.520   0.490   7.169 -1.5282 -0.8489 -0.8793
 7459SOL     OW25522   4.797   6.358   6.413 -1.1012 -0.4187 -0.1686
 7459SOL    HW125523   4.823   6.313   6.333 -0.0079  0.8763 -0.5644
 7459SOL    HW225524   4.862   6.332   6.478 -0.3366  0.7274 -0.4550
 7460SOL     OW25525   2.148   5.949   1.430  0.3303  0.9428  0.4021
 7460SOL    HW125526   2.115   5.935   1.519  0.7369 -0.5733  0.3341
 7460SOL    HW225527   2.177   5.863   1.401 -0.8586  1.1842 -1.6463
 7461SOL     OW25528   7.182   4.623   5.691 -0.1393 -0.1113  0.6706
 7461SOL    HW125529   7.189   4.695   5.755 -1.7571  0.7743 -0.0739
 7461SOL    HW225530   7.140   4.553   5.739  0.6126 -0.2449  1.1529
 7462SOL     OW25531   7.451   5.170   1.574  0.2234  0.0447  0.0558
 7462SOL    HW125532   7.482   5.100   1.631  1.2086  1.1392  0.9450
 7462SOL    HW225533   7.532   5.213   1.544 -0.2556 -0.5407 -2.2805
 7463SOL     OW25534   4.638   1.022   2.824 -0.0130 -0.1834  0.5962
 7463SOL    HW125535   4.623   0.927   2.831 -0.2200 -0.0644  2.0593
 7463SOL    HW225536   4.652   1.050   2.914 -1.0135  1.3607  0.2960
 7464SOL     OW25537   3.723   1.143   6.092 -0.1277 -0.2249  0.4201
 7464SOL    HW125538   3.651   1.098   6.048 -0.7737 -0.0994  1.3049
 7464SOL    HW225539   3.704   1.236   6.079  1.1922 -0.1731 -1.3848
 7465SOL     OW25540   0.274   4.066   3.198  0.3789 -0.6679  0.4028
 7465SOL    HW125541   0.216   4.141   3.188 -0.2884 -1.1018  0.9184
 7465SOL    HW225542   0.323   4.062   3.115 -1.4105 -1.1905 -0.6679
 7466SOL     OW25543   6.788   0.789   0.809 -0.1394  0.0618 -0.0449
 7466SOL    HW125544   6.843   0.843   0.865  2.1796  0.3697 -2.4314
 7466SOL    HW225545   6.753   0.849   0.743 -0.3662 -0.7762 -0.7130
 7467SOL     OW25546   1.384   3.350   6.300 -0.0649  0.1256  0.2675
 7467SOL    HW125547   1.368   3.357   6.206  1.5028  0.4645  0.0008
 7467SOL    HW225548   1.345   3.265   6.324 -3.8255  1.5996  0.1270
 7468SOL     OW25549   3.381   3.438   1.336 -0.2858  0.0111  0.1230
 7468SOL    HW125550   3.349   3.454   1.247  0.1260 -0.2971 -0.0801
 7468SOL    HW225551   3.307   3.396   1.380  0.9829 -4.3142 -1.4431
 7469SOL     OW25552   6.042   6.558   6.335 -0.1998 -0.2171  0.3797
 7469SOL    HW125553   6.132   6.564   6.368 -0.4575  2.4652  0.7527
 7469SOL    HW225554   6.047   6.588   6.245 -0.5508 -1.4085 -0.0639
 7470SOL     OW25555   0.562   6.363   8.050  0.8863  0.1683  0.2662
 7470SOL    HW125556   0.473   6.342   8.077 -0.0646 -0.0108 -2.6994
 7470SOL    HW225557   0.591   6.429   8.113 -0.5742 -1.1481  2.4503
 7471SOL     OW25558   8.004   6.109   1.237 -0.1145  0.2676  0.4907
 7471SOL    HW125559   8.013   6.062   1.154 -0.3503  0.2525  0.4753
 7471SOL    HW225560   8.046   6.194   1.221 -1.4707  0.8497 -0.1132
 7472SOL     OW25561   2.297   5.530   5.116  0.5307  0.3191 -0.4702
 7472SOL    HW125562   2.321   5.508   5.206  1.4181  0.6067 -0.6187
 7472SOL    HW225563   2.205   5.507   5.109  0.0289  1.6694  0.9670
 7473SOL     OW25564   7.808   3.103   7.192  0.3179 -0.2036 -0.1464
 7473SOL    HW125565   7.864   3.176   7.219 -1.4953  1.4023 -0.5503
 7473SOL    HW225566   7.720   3.129   7.219 -0.5594 -1.6873 -1.4117
 7474SOL     OW25567   5.567   3.161   0.926 -0.5801 -0.3445  0.4925
 7474SOL    HW125568   5.583   3.096   0.858 -1.0823 -1.6191  1.5497
 7474SOL    HW225569   5.634   3.143   0.993 -0.9339  0.0052  0.9496
 7475SOL     OW25570   3.040   0.538   5.918 -0.0958 -0.3263 -0.3869
 7475SOL    HW125571   2.987   0.569   5.991  2.6158  1.5139  0.9353
 7475SOL    HW225572   3.038   0.610   5.855  0.7772 -0.2535 -0.3383
 7476SOL     OW25573   5.995   2.134   3.054 -0.3409 -0.6932 -0.5236
 7476SOL    HW125574   6.050   2.111   2.979  0.3669  1.6625 -0.8080
 7476SOL    HW225575   6.057   2.140   3.127 -0.8249 -1.6929 -0.0164
 7477SOL     OW25576   1.251   0.723   4.853  0.0140  0.4823 -0.2336
 7477SOL    HW125577   1.328   0.686   4.897  0.8706  0.7640 -1.4399
 7477SOL    HW225578   1.202   0.646   4.822  1.2493  0.2819 -1.8277
 7478SOL     OW25579   5.704   2.310   3.668 -0.2999 -0.3050  0.1595
 7478SOL    HW125580   5.784   2.287   3.621  0.8308 -1.7559  2.5881
 7478SOL    HW225581   5.649   2.232   3.662 -0.2168 -0.4420  1.0164
 7479SOL     OW25582   4.449   7.743   7.318  0.6725  0.1992 -0.3195
 7479SOL    HW125583   4.530   7.793   7.322  1.0391 -0.1266 -2.2801
 7479SOL    HW225584   4.394   7.791   7.256 -1.0899  0.9601  1.6991
 7480SOL     OW25585   4.823   3.369   7.212 -0.1391 -0.2742  0.4186
 7480SOL    HW125586   4.797   3.460   7.199 -0.6707 -0.4558  0.1864
 7480SOL    HW225587   4.776   3.341   7.290  0.7133 -0.0903  1.0079
 7481SOL     OW25588   6.405   2.403   3.779  0.2573  0.0015  0.0708
 7481SOL    HW125589   6.367   2.489   3.795  0.6609 -0.0086  1.1512
 7481SOL    HW225590   6.453   2.383   3.859  1.5029 -0.5278 -0.7758
 7482SOL     OW25591   5.867   3.716   4.662  0.3326 -0.4357  0.1154
 7482SOL    HW125592   5.900   3.649   4.603 -1.7852 -0.0179 -1.6470
 7482SOL    HW225593   5.849   3.669   4.744  0.1842 -1.7291 -0.6375
 7483SOL     OW25594   1.211   1.166   3.073 -0.0467 -0.2098  0.4202
 7483SOL    HW125595   1.171   1.129   2.994 -2.0813 -0.2554  1.4023
 7483SOL    HW225596   1.182   1.257   3.074 -1.4438 -0.6248  1.9222
 7484SOL     OW25597   3.039   1.413   7.462 -0.0629  0.0373 -0.3581
 7484SOL    HW125598   2.993   1.365   7.393 -1.2262  0.7829 -0.1200
 7484SOL    HW225599   3.086   1.482   7.417 -1.2974  0.8959 -0.3928
 7485SOL     OW25600   2.207   5.844   7.871 -0.1513 -0.1044 -0.0663
 7485SOL    HW125601   2.139   5.778   7.886 -1.4067  1.2025  0.2343
 7485SOL    HW225602   2.159   5.927   7.868  1.5892  1.0624  1.8022
 7486SOL     OW25603   8.031   1.671   1.451  0.0381  0.3039 -0.7726
 7486SOL    HW125604   8.092   1.691   1.380  0.1339 -1.2472 -1.1623
 7486SOL    HW225605   7.993   1.587   1.427 -2.8859  1.5751 -0.9547
 7487SOL     OW25606   0.089   6.740   5.766  0.0335  0.2768  0.4301
 7487SOL    HW125607   0.155   6.802   5.796  0.8254 -0.3889  0.0751
 7487SOL    HW225608   0.067   6.770   5.678  1.0759 -0.4678 -0.0901
 7488SOL     OW25609   5.411   3.317   0.058 -0.0090 -0.1014  0.3635
 7488SOL    HW125610   5.496   3.286   0.026  0.3480  1.3458 -0.1449
 7488SOL    HW225611   5.415   3.303   0.153  0.1849 -1.4257  0.1919
 7489SOL     OW25612   5.433   3.826   4.124 -0.2488  0.0062 -0.0824
 7489SOL    HW125613   5.508   3.884   4.125 -0.7604  0.7277 -1.3394
 7489SOL    HW225614   5.362   3.877   4.162 -0.1850 -0.5815  0.8566
 7490SOL     OW25615   3.419   0.540   7.311  0.4656 -0.5520 -0.0122
 7490SOL    HW125616   3.358   0.591   7.257  1.2906 -1.2543 -1.6825
 7490SOL    HW225617   3.477   0.604   7.350 -1.0213  0.0954  1.2538
 7491SOL     OW25618   7.951   3.936   1.685 -0.0848 -0.2601 -0.2808
 7491SOL    HW125619   7.955   4.032   1.681  2.0267 -0.3590 -2.0426
 7491SOL    HW225620   7.903   3.911   1.606  0.3884 -0.6824 -0.4365
 7492SOL     OW25621   3.840   4.332   4.007 -0.6507  0.3654 -0.3659
 7492SOL    HW125622   3.837   4.236   4.003 -2.0696  0.4110 -1.1528
 7492SOL    HW225623   3.873   4.358   3.921  2.7658  0.5734  0.8450
 7493SOL     OW25624   6.043   3.380   0.471  0.3204  0.2485  0.6801
 7493SOL    HW125625   6.136   3.401   0.466  0.1297  0.9033 -1.6940
 7493SOL    HW225626   6.040   3.287   0.496  1.7311 -0.3379 -1.0823
 7494SOL     OW25627   2.080   6.693   7.191 -0.0736  0.5066  0.3643
 7494SOL    HW125628   2.002   6.701   7.247 -0.3833  1.0427 -0.1203
 7494SOL    HW225629   2.053   6.632   7.122 -0.2221  1.0308 -0.0489
 7495SOL     OW25630   0.518   6.993   4.479 -0.0516 -0.1807 -0.3908
 7495SOL    HW125631   0.563   6.908   4.478 -0.1151 -0.2433 -2.3076
 7495SOL    HW225632   0.555   7.040   4.405 -0.1780  1.4131  0.5202
 7496SOL     OW25633   1.972   7.808   7.454  0.3650 -0.4528 -0.3038
 7496SOL    HW125634   1.991   7.717   7.476 -0.4328 -0.3203  1.0047
 7496SOL    HW225635   2.049   7.857   7.485  0.4088 -0.5686 -0.2320
 7497SOL     OW25636   1.578   3.509   3.696 -0.2390 -0.2246 -0.3000
 7497SOL    HW125637   1.533   3.583   3.736  1.6963  0.8129  0.0601
 7497SOL    HW225638   1.545   3.507   3.606  0.0903  1.4589 -0.4864
 7498SOL     OW25639   3.337   3.732   7.526 -0.3585  0.1545 -0.2338
 7498SOL    HW125640   3.242   3.739   7.517 -0.1286  1.1630 -2.7329
 7498SOL    HW225641   3.364   3.673   7.455  0.8784 -0.2569  0.5392
 7499SOL     OW25642   0.934   1.766   8.034 -0.2704 -0.3281  0.4820
 7499SOL    HW125643   0.842   1.789   8.049  0.3116  2.3569  0.4597
 7499SOL    HW225644   0.954   1.805   7.949  0.8509 -1.1135  0.3712
 7500SOL     OW25645   7.880   6.267   4.719  0.0793  0.4884 -0.4764
 7500SOL    HW125646   7.895   6.342   4.661 -0.0166  0.5081 -0.4769
 7500SOL    HW225647   7.785   6.255   4.717  0.0187  0.8151  0.0874
 7501SOL     OW25648   3.231   5.919   5.417  0.0617  0.3213 -0.1904
 7501SOL    HW125649   3.204   5.906   5.508 -1.3473 -3.6327 -0.9825
 7501SOL    HW225650   3.155   5.892   5.365  0.2177  4.0191 -2.6814
 7502SOL     OW25651   5.666   2.650   0.371 -0.1727 -0.0409  0.5707
 7502SOL    HW125652   5.697   2.573   0.324 -0.5655 -0.0058  0.2492
 7502SOL    HW225653   5.597   2.686   0.316  0.5706  1.0283  0.3020
 7503SOL     OW25654   2.328   2.193   6.501  0.2061 -0.7925  0.5123
 7503SOL    HW125655   2.346   2.125   6.436 -0.8812  1.1321 -1.9777
 7503SOL    HW225656   2.232   2.198   6.505  0.1673 -1.7125  3.3604
 7504SOL     OW25657   7.989   7.520   1.737  0.1743 -0.0940  0.5122
 7504SOL    HW125658   7.987   7.588   1.804  2.3314  1.6052 -1.0246
 7504SOL    HW225659   8.060   7.545   1.679 -0.4400 -2.4667 -1.4381
 7505SOL     OW25660   7.698   3.668   3.884 -0.0388  0.3519 -0.0663
 7505SOL    HW125661   7.713   3.577   3.910  1.2070  0.9122  1.2747
 7505SOL    HW225662   7.604   3.672   3.865 -0.7514 -0.5027  2.8987
 7506SOL     OW25663   7.216   3.086   6.839 -0.3124 -0.4629  0.4224
 7506SOL    HW125664   7.135   3.057   6.797  0.1199  0.1528 -0.8648
 7506SOL    HW225665   7.283   3.027   6.807 -0.0330 -0.2022  0.5186
 7507SOL     OW25666   4.829   4.560   5.963  0.6958 -0.6298  0.5913
 7507SOL    HW125667   4.894   4.506   6.008 -0.1364 -1.5458  0.7327
 7507SOL    HW225668   4.862   4.569   5.874  0.8042 -1.4586  0.5412
 7508SOL     OW25669   4.701   6.130   2.225  0.1771  0.5262  0.1580
 7508SOL    HW125670   4.610   6.156   2.208  0.9973  2.1374 -2.2521
 7508SOL    HW225671   4.729   6.186   2.298 -0.3315  1.0727 -0.0604
 7509SOL     OW25672   2.729   5.520   3.440 -1.0339 -0.6568 -0.3710
 7509SOL    HW125673   2.714   5.462   3.515 -1.0416 -0.1936 -0.0103
 7509SOL    HW225674   2.686   5.602   3.465  0.0022 -0.1037 -0.3605
 7510SOL     OW25675   4.343   1.622   2.368 -0.3615 -0.1190 -0.5556
 7510SOL    HW125676   4.423   1.618   2.419  0.2426 -0.3566 -1.5000
 7510SOL    HW225677   4.272   1.617   2.433  0.3792 -1.0770  0.1993
 7511SOL     OW25678   1.873   1.417   5.951  0.0302  0.0759 -0.4432
 7511SOL    HW125679   1.890   1.375   5.867 -1.8419 -0.3451 -0.6504
 7511SOL    HW225680   1.960   1.433   5.987  0.9440  1.3557 -2.9621
 7512SOL     OW25681   7.888   6.683   0.083 -0.2873 -0.3840 -0.2751
 7512SOL    HW125682   7.837   6.629   0.021  0.3884 -1.6019  0.1937
 7512SOL    HW225683   7.885   6.771   0.046 -0.6618 -0.9140 -1.5678
 7513SOL     OW25684   1.938   3.334   2.613  0.5218 -0.3064  0.0292
 7513SOL    HW125685   1.900   3.320   2.700  0.0364  1.9596  0.2441
 7513SOL    HW225686   1.883   3.401   2.573  3.1486  1.7542 -0.3867
 7514SOL     OW25687   4.103   2.483   0.571  0.7387  0.2972  0.5597
 7514SOL    HW125688   4.103   2.389   0.557  0.2205  0.2507  0.8774
 7514SOL    HW225689   4.186   2.501   0.616  0.5374 -0.0999  1.0982
 7515SOL     OW25690   4.492   4.757   7.354  0.1562 -0.5170 -0.2289
 7515SOL    HW125691   4.434   4.833   7.352 -0.9454 -1.3499 -0.4754
 7515SOL    HW225692   4.568   4.784   7.302 -1.0031 -0.1822 -1.8078
 7516SOL     OW25693   1.776   3.857   3.600 -0.0739 -0.0072  0.5523
 7516SOL    HW125694   1.716   3.809   3.544  0.0527  0.4680  0.0037
 7516SOL    HW225695   1.747   3.837   3.689 -1.2670  0.4900  0.2942
 7517SOL     OW25696   0.624   5.792   0.543 -0.7669 -0.7730 -0.8808
 7517SOL    HW125697   0.692   5.840   0.591 -0.9711 -0.4920 -0.8714
 7517SOL    HW225698   0.673   5.725   0.495 -0.2346  0.6008 -2.3664
 7518SOL     OW25699   7.570   6.814   1.112 -0.0357 -0.6418 -0.2413
 7518SOL    HW125700   7.656   6.851   1.089 -0.0037 -0.8159 -0.4020
 7518SOL    HW225701   7.582   6.720   1.106 -0.3847 -0.6602 -0.8014
 7519SOL     OW25702   7.958   6.738   2.184 -0.1806  0.0421 -1.2076
 7519SOL    HW125703   7.973   6.783   2.101 -0.2480  0.2623 -1.1005
 7519SOL    HW225704   7.875   6.772   2.215 -0.6578 -0.7768 -1.5340
 7520SOL     OW25705   5.373   6.253   0.701 -0.4075 -0.4234  0.3060
 7520SOL    HW125706   5.429   6.176   0.714  0.9141  0.5727  0.7582
 7520SOL    HW225707   5.293   6.218   0.662  0.0329 -2.0612  0.7807
 7521SOL     OW25708   3.622   0.026   3.072  0.1388  0.2107 -0.0623
 7521SOL    HW125709   3.685  -0.041   3.047  1.6111  0.8265  1.8192
 7521SOL    HW225710   3.623   0.088   2.999  1.7351  0.2096 -0.0719
 7522SOL     OW25711   1.818   0.702   7.303  0.0918  0.2712 -0.3346
 7522SOL    HW125712   1.894   0.751   7.334 -1.1691  2.6862 -0.8044
 7522SOL    HW225713   1.752   0.716   7.371 -0.3738 -0.6213 -0.5919
 7523SOL     OW25714   2.747   1.176   3.398 -0.1653 -0.3149  0.0425
 7523SOL    HW125715   2.755   1.271   3.390  1.1875 -0.5330 -1.6712
 7523SOL    HW225716   2.669   1.154   3.347  0.4917 -0.2557 -1.0316
 7524SOL     OW25717   0.288   5.507   1.554  0.3455  0.4662  0.2190
 7524SOL    HW125718   0.373   5.517   1.597  1.0524 -0.6736 -0.8415
 7524SOL    HW225719   0.309   5.471   1.468 -1.2766 -0.7036  0.2653
 7525SOL     OW25720   6.047   7.726   0.761 -0.1027 -0.0788 -0.3679
 7525SOL    HW125721   5.995   7.686   0.830 -0.1328 -0.1739 -0.4441
 7525SOL    HW225722   6.105   7.655   0.732  1.2991  0.4991  0.9016
 7526SOL     OW25723   4.116   1.863   1.020  1.1249 -0.2517  0.0614
 7526SOL    HW125724   4.021   1.873   1.033  0.6795 -2.0427 -1.3446
 7526SOL    HW225725   4.138   1.784   1.069  1.7136 -0.3637 -0.3811
 7527SOL     OW25726   6.590   7.223   2.723  0.5360  0.6515  0.3200
 7527SOL    HW125727   6.581   7.296   2.785  1.7587  1.0678  0.0435
 7527SOL    HW225728   6.524   7.240   2.656 -1.4532 -0.3206  1.9607
 7528SOL     OW25729   0.699   1.577   6.569  0.0709 -0.1203 -0.0182
 7528SOL    HW125730   0.688   1.588   6.663  0.4276 -2.1501  0.3122
 7528SOL    HW225731   0.773   1.634   6.547  0.9394 -0.7036  1.2273
 7529SOL     OW25732   4.329   2.754   5.980 -0.0465 -0.0239 -0.3897
 7529SOL    HW125733   4.290   2.668   5.995 -0.0445 -0.3962 -2.3664
 7529SOL    HW225734   4.355   2.783   6.068 -1.3047 -1.4048  0.5020
 7530SOL     OW25735   3.152   7.714   2.780  0.3173  1.2359  0.4795
 7530SOL    HW125736   3.173   7.778   2.849 -0.6973  1.6737  0.4067
 7530SOL    HW225737   3.164   7.763   2.698  0.1513  1.1472  0.4020
 7531SOL     OW25738   5.723   0.972   1.031 -0.2010  0.0086  0.2664
 7531SOL    HW125739   5.646   0.998   1.082 -1.3949 -2.1891 -0.2409
 7531SOL    HW225740   5.733   1.041   0.966  0.0073  1.7424  2.0618
 7532SOL     OW25741   2.095   4.897   4.272 -0.1794 -0.1733  0.1544
 7532SOL    HW125742   2.181   4.880   4.234 -0.4821 -0.1049 -0.5819
 7532SOL    HW225743   2.114   4.930   4.360  0.6041  1.1176 -0.4586
 7533SOL     OW25744   7.313   8.002   1.301 -0.1821 -0.1742  0.2702
 7533SOL    HW125745   7.366   7.922   1.300 -0.3527 -0.3176  1.6695
 7533SOL    HW225746   7.273   8.005   1.214 -1.8084 -2.7084  0.8336
 7534SOL     OW25747   6.815   0.515   6.301  0.2872  0.2704  0.0582
 7534SOL    HW125748   6.763   0.529   6.221  0.9153  0.9568 -0.2468
 7534SOL    HW225749   6.876   0.446   6.278 -0.4626 -0.5346  0.4159
 7535SOL     OW25750   6.600   5.438   6.507  0.2938 -0.2380  0.5648
 7535SOL    HW125751   6.638   5.363   6.551 -0.7984 -0.6639  0.8039
 7535SOL    HW225752   6.566   5.403   6.424  0.3786  0.1296  0.3697
 7536SOL     OW25753   6.755   3.249   3.590  0.0037 -0.3048 -0.0399
 7536SOL    HW125754   6.826   3.312   3.594 -0.1363 -0.1893  0.8801
 7536SOL    HW225755   6.708   3.271   3.509 -0.7583  1.5674  0.8426
 7537SOL     OW25756   0.083   2.899   3.767  0.2955 -0.0987  0.5617
 7537SOL    HW125757   0.029   2.973   3.739  0.9836  0.3068  0.2619
 7537SOL    HW225758   0.046   2.823   3.721  0.0495  0.1905  0.2791
 7538SOL     OW25759   6.349   3.443   3.097  0.7486  0.1237  0.1464
 7538SOL    HW125760   6.322   3.404   3.015  1.8458 -1.0502  0.2956
 7538SOL    HW225761   6.442   3.421   3.104  1.1759  1.9437  0.7403
 7539SOL     OW25762   3.162   6.184   5.086 -0.4554 -0.4470 -0.0790
 7539SOL    HW125763   3.193   6.134   5.011 -0.3229  0.7321 -0.8300
 7539SOL    HW225764   3.226   6.165   5.155  0.3745 -0.2273 -0.7683
 7540SOL     OW25765   1.445   4.259   3.515  0.1956  0.2845 -0.0963
 7540SOL    HW125766   1.374   4.200   3.537 -0.7209  1.8639  1.4588
 7540SOL    HW225767   1.522   4.222   3.558 -0.1901 -0.2000  0.1858
 7541SOL     OW25768   3.585   6.750   0.256 -0.4451 -0.1775 -0.2394
 7541SOL    HW125769   3.650   6.809   0.294 -0.7745 -0.2671  0.4827
 7541SOL    HW225770   3.524   6.808   0.211  2.0518 -0.2429 -4.1587
 7542SOL     OW25771   7.049   7.818   4.945  0.1896 -0.3101 -0.1519
 7542SOL    HW125772   6.970   7.866   4.971  0.7579 -0.7235  2.6192
 7542SOL    HW225773   7.064   7.756   5.016  2.3155 -1.1234 -1.2215
 7543SOL     OW25774   7.068   1.136   3.481  0.1350 -0.1623  0.7073
 7543SOL    HW125775   7.070   1.041   3.493  0.4089 -0.1141  1.0723
 7543SOL    HW225776   6.976   1.157   3.469  0.1619 -0.5813 -0.2992
 7544SOL     OW25777   7.847   6.371   6.052 -0.0679 -0.1606 -0.0636
 7544SOL    HW125778   7.830   6.465   6.065  0.3339 -0.0211 -0.5368
 7544SOL    HW225779   7.768   6.338   6.009 -0.2836 -0.0780  0.2615
 7545SOL     OW25780   7.654   0.723   6.925 -0.8918 -0.3447  0.1127
 7545SOL    HW125781   7.726   0.682   6.973  0.5204 -0.4217 -1.9278
 7545SOL    HW225782   7.577   0.706   6.978  0.1503 -2.7994  0.9753
 7546SOL     OW25783   4.589   1.602   6.322  0.0935 -0.1859  0.1447
 7546SOL    HW125784   4.582   1.696   6.335 -0.9716 -0.2962  0.4649
 7546SOL    HW225785   4.559   1.587   6.233  0.1159 -0.2382  0.1458
 7547SOL     OW25786   4.583   5.407   6.906 -0.8118 -0.0885 -0.1842
 7547SOL    HW125787   4.559   5.326   6.861 -1.3212  0.5776 -1.1641
 7547SOL    HW225788   4.540   5.476   6.855  0.6399  0.9051 -0.1268
 7548SOL     OW25789   5.271   2.920   4.394 -0.2679  0.7412  0.4753
 7548SOL    HW125790   5.189   2.958   4.363 -0.6338  1.5522  2.3046
 7548SOL    HW225791   5.245   2.838   4.436  0.0988  0.1538 -0.4051
 7549SOL     OW25792   2.735   6.189   1.906 -0.2294  0.6021  0.0435
 7549SOL    HW125793   2.652   6.143   1.892 -0.2928  1.1244 -1.4049
 7549SOL    HW225794   2.720   6.241   1.985 -0.9373 -0.0559  0.3552
 7550SOL     OW25795   8.061   3.370   4.592  0.3965  0.0470 -0.5860
 7550SOL    HW125796   8.104   3.341   4.672 -0.7212 -0.0155  0.0125
 7550SOL    HW225797   7.989   3.426   4.622 -0.6976 -0.8226 -1.4742
 7551SOL     OW25798   4.541   0.682   7.126 -0.4399  0.1258  0.0959
 7551SOL    HW125799   4.539   0.649   7.036  0.2299 -0.1824  0.1888
 7551SOL    HW225800   4.618   0.738   7.129 -1.6042  1.8370 -0.0866
 7552SOL     OW25801   6.349   7.385   3.003  0.0334  0.2338 -0.4447
 7552SOL    HW125802   6.304   7.353   2.925 -0.3862  0.3587 -0.2581
 7552SOL    HW225803   6.292   7.454   3.037  0.2265  0.2028 -0.0438
 7553SOL     OW25804   4.652   5.699   7.576  0.4411 -0.4583 -0.6160
 7553SOL    HW125805   4.710   5.644   7.523 -1.4478 -2.1710 -1.0270
 7553SOL    HW225806   4.659   5.663   7.664  1.9915  1.0670 -0.0614
 7554SOL     OW25807   3.035   2.897   3.858 -0.0167 -0.2099 -0.0534
 7554SOL    HW125808   2.992   2.917   3.941 -0.6895  0.7560 -0.6202
 7554SOL    HW225809   2.994   2.814   3.830 -1.4956  0.6367 -0.5368
 7555SOL     OW25810   7.308   5.638   0.344 -0.3182  0.4488  0.1784
 7555SOL    HW125811   7.388   5.672   0.384  1.1046 -1.7747 -0.5669
 7555SOL    HW225812   7.320   5.543   0.343 -2.4380  0.1227 -1.0908
 7556SOL     OW25813   1.362   2.016   2.181 -0.1911  0.4298  0.0404
 7556SOL    HW125814   1.297   1.952   2.212 -0.6819  0.1038 -1.5579
 7556SOL    HW225815   1.319   2.100   2.192  0.1346  0.4321  1.3873
 7557SOL     OW25816   2.768   3.798   7.879  0.0513  0.3785 -0.3953
 7557SOL    HW125817   2.733   3.811   7.967  1.2523 -0.3028  0.2036
 7557SOL    HW225818   2.798   3.707   7.878  0.5468  0.5388 -1.3221
 7558SOL     OW25819   5.957   7.640   1.484 -0.1257 -0.1785  0.3001
 7558SOL    HW125820   5.951   7.680   1.398  0.3504 -0.2176  0.2432
 7558SOL    HW225821   5.878   7.587   1.493 -0.7878  0.8110  0.3950
 7559SOL     OW25822   1.814   0.296   7.479 -0.0094 -0.4640 -0.1378
 7559SOL    HW125823   1.786   0.311   7.389  0.4894  0.8582 -0.0805
 7559SOL    HW225824   1.888   0.355   7.492  0.1422 -0.8870  1.0357
 7560SOL     OW25825   3.467   7.755   1.795  0.5124 -0.2249 -0.5026
 7560SOL    HW125826   3.442   7.840   1.830  1.2256  0.6208 -1.9650
 7560SOL    HW225827   3.444   7.693   1.864 -1.2465  0.9900  0.0768
 7561SOL     OW25828   7.670   2.983   6.291 -0.0254 -0.2723 -0.2887
 7561SOL    HW125829   7.737   2.981   6.359 -0.6527  2.5841  0.5696
 7561SOL    HW225830   7.590   2.956   6.335 -0.2377  0.6186 -0.0955
 7562SOL     OW25831   4.082   3.117   1.750 -0.0184 -0.1404 -0.1477
 7562SOL    HW125832   4.136   3.079   1.819 -0.8416 -0.0484  0.5620
 7562SOL    HW225833   3.997   3.074   1.760  0.0022 -0.5452 -1.4639
 7563SOL     OW25834   6.254   7.338   1.119  0.6198  0.0120 -0.4735
 7563SOL    HW125835   6.221   7.359   1.032 -0.2832 -0.1897 -0.1923
 7563SOL    HW225836   6.315   7.409   1.140  0.3148  0.4296 -0.9766
 7564SOL     OW25837   5.038   1.876   3.955  0.3425  0.4651  0.0717
 7564SOL    HW125838   5.053   1.805   3.893  0.2035 -0.2235  0.8104
 7564SOL    HW225839   5.125   1.901   3.985  0.3440  0.0383  0.4303
 7565SOL     OW25840   6.343   3.597   1.753  0.2149 -0.3453 -0.0755
 7565SOL    HW125841   6.344   3.669   1.690 -0.3825 -0.0700  0.2133
 7565SOL    HW225842   6.252   3.594   1.784  0.5636 -0.2912  0.9785
 7566SOL     OW25843   2.987   4.543   7.276  0.2663 -0.3991 -0.8461
 7566SOL    HW125844   2.958   4.629   7.308 -2.0813 -1.3952 -0.0725
 7566SOL    HW225845   2.996   4.554   7.181 -0.7244  0.5119 -0.8495
 7567SOL     OW25846   4.046   1.448   1.623  0.2916 -0.5098 -0.1206
 7567SOL    HW125847   3.952   1.465   1.633  0.3903  0.1418 -0.3085
 7567SOL    HW225848   4.072   1.415   1.709  0.5017  2.2042  0.9570
 7568SOL     OW25849   6.695   7.940   4.160 -0.8214  0.3999 -0.4077
 7568SOL    HW125850   6.627   7.890   4.204 -1.9572  0.6820 -1.7482
 7568SOL    HW225851   6.706   7.896   4.076  0.7291  0.3211 -0.1913
 7569SOL     OW25852   1.463   7.049   0.759 -0.3114 -0.0184  0.3143
 7569SOL    HW125853   1.409   6.982   0.717 -0.3577 -1.3004  2.2927
 7569SOL    HW225854   1.401   7.112   0.794 -0.3635  0.0206  0.1547
 7570SOL     OW25855   4.580   4.874   6.576  0.0832 -0.0801  0.5817
 7570SOL    HW125856   4.520   4.946   6.558 -1.5101 -1.6700 -0.8553
 7570SOL    HW225857   4.553   4.841   6.662 -0.0559  0.1974  0.6451
 7571SOL     OW25858   0.152   6.218   0.245  0.0369 -0.3221  0.2257
 7571SOL    HW125859   0.101   6.145   0.280 -0.9042  0.4325  0.4752
 7571SOL    HW225860   0.103   6.296   0.270  1.2028  0.4262  0.2644
 7572SOL     OW25861   3.526   3.774   4.928  0.4256  0.1014  0.3893
 7572SOL    HW125862   3.547   3.830   4.854 -0.2272  0.2573  0.3129
 7572SOL    HW225863   3.529   3.685   4.894 -1.1451  0.2362 -0.1628
 7573SOL     OW25864   7.688   6.964   0.231  0.0832 -0.6651 -0.1856
 7573SOL    HW125865   7.678   6.941   0.138 -0.0259  0.4645 -0.4658
 7573SOL    HW225866   7.779   6.995   0.237 -0.9201  2.7248 -0.7335
 7574SOL     OW25867   2.847   2.490   0.531 -0.5787  0.3939  0.8855
 7574SOL    HW125868   2.886   2.516   0.447 -1.5876 -2.2861 -0.5387
 7574SOL    HW225869   2.861   2.565   0.588  2.2671  1.4409 -0.9555
 7575SOL     OW25870   2.251   6.394   6.031  0.4131 -0.1533  0.2249
 7575SOL    HW125871   2.251   6.308   5.989  1.2891  1.1723 -2.7422
 7575SOL    HW225872   2.158   6.416   6.043  0.1863 -1.3246  0.7144
 7576SOL     OW25873   7.326   1.055   0.477  0.1536 -0.0683  0.2249
 7576SOL    HW125874   7.341   1.135   0.526 -0.8937  0.8886 -0.9519
 7576SOL    HW225875   7.392   0.994   0.510  0.3057  0.9346  1.8624
 7577SOL     OW25876   5.434   0.637   0.424 -0.1696  0.3849  0.0469
 7577SOL    HW125877   5.353   0.623   0.474 -0.3981  0.3801 -0.3180
 7577SOL    HW225878   5.492   0.566   0.452 -0.3327  0.3215  0.2290
 7578SOL     OW25879   7.656   2.735   6.601 -0.1283  0.5365 -0.0651
 7578SOL    HW125880   7.592   2.770   6.540 -0.7871  0.0342  0.3228
 7578SOL    HW225881   7.707   2.672   6.550 -0.1254  0.7299 -0.3010
 7579SOL     OW25882   2.962   0.626   6.924 -0.6807 -0.4357 -0.1822
 7579SOL    HW125883   3.053   0.647   6.905 -1.1717  1.4084 -0.6860
 7579SOL    HW225884   2.956   0.531   6.912  1.2864 -0.6870  0.4605
 7580SOL     OW25885   0.118   6.947   7.247  0.2226 -0.4849  0.2714
 7580SOL    HW125886   0.066   6.914   7.174  0.9117 -0.9735 -0.0171
 7580SOL    HW225887   0.060   7.006   7.294 -0.3451 -0.4472 -0.4658
 7581SOL     OW25888   0.975   7.819   4.752 -0.4763  0.4840 -0.0154
 7581SOL    HW125889   0.906   7.884   4.767 -2.1416 -1.6119  2.2919
 7581SOL    HW225890   0.931   7.749   4.703  0.1511 -0.5833  0.8954
 7582SOL     OW25891   2.846   0.551   2.816 -0.2731  0.1851 -0.1965
 7582SOL    HW125892   2.920   0.513   2.769 -1.2553 -0.5569 -1.1776
 7582SOL    HW225893   2.819   0.626   2.763 -1.3718 -0.6445 -0.8644
 7583SOL     OW25894   0.671   2.396   2.491 -0.5789  0.1845 -0.5942
 7583SOL    HW125895   0.732   2.468   2.510 -0.6829  0.0283  0.4072
 7583SOL    HW225896   0.595   2.438   2.452 -0.2023  0.4879 -1.0147
 7584SOL     OW25897   2.493   7.819   2.835  0.8660  0.2488  0.4603
 7584SOL    HW125898   2.540   7.881   2.891  0.2351  0.7070  0.4842
 7584SOL    HW225899   2.562   7.777   2.783  1.2664  1.1600  0.2445
 7585SOL     OW25900   4.616   2.567   1.374  0.2731  0.2802  0.1176
 7585SOL    HW125901   4.646   2.500   1.312  0.1175  1.3013 -1.1100
 7585SOL    HW225902   4.696   2.613   1.401  0.2175  0.6625 -0.3457
 7586SOL     OW25903   0.579   5.523   4.938 -0.0808  0.0416 -0.1151
 7586SOL    HW125904   0.601   5.614   4.957  0.1609 -0.1241  0.4157
 7586SOL    HW225905   0.524   5.527   4.860  0.7039  0.5660 -0.6516
 7587SOL     OW25906   7.959   5.680   1.064  0.1013 -0.0992  0.4049
 7587SOL    HW125907   7.901   5.604   1.065  0.2006 -0.1720  0.7470
 7587SOL    HW225908   7.990   5.688   1.154  0.2851  0.1985  0.3173
 7588SOL     OW25909   0.026   0.101   5.131 -0.0917 -0.3106 -0.8681
 7588SOL    HW125910   0.009   0.074   5.041 -3.0170 -1.6026 -0.0703
 7588SOL    HW225911   0.051   0.021   5.176 -1.5423 -0.3135  0.0087
 7589SOL     OW25912   1.632   1.545   3.663 -0.5021 -0.2000 -0.4287
 7589SOL    HW125913   1.689   1.547   3.740 -0.0701 -1.4447 -0.6871
 7589SOL    HW225914   1.681   1.495   3.598 -0.8465  0.8684 -1.5459
 7590SOL     OW25915   0.195   0.737   3.759 -0.0528 -0.3069 -0.9753
 7590SOL    HW125916   0.200   0.804   3.827 -2.6233  0.1774 -1.1624
 7590SOL    HW225917   0.268   0.679   3.778  0.0744  0.5042  1.4292
 7591SOL     OW25918   6.506   6.968   4.876 -0.3612  0.2521  0.1083
 7591SOL    HW125919   6.503   7.062   4.894 -2.2924 -0.0269  1.5939
 7591SOL    HW225920   6.587   6.955   4.827  2.1614  2.1260  3.3773
 7592SOL     OW25921   2.278   7.794   5.982  0.6545 -0.0133  0.1723
 7592SOL    HW125922   2.355   7.827   5.936  0.9946 -0.3265  0.5122
 7592SOL    HW225923   2.276   7.701   5.961  0.8255 -0.1606  0.8059
 7593SOL     OW25924   0.564   5.058   5.315 -0.3528 -0.4989  0.2927
 7593SOL    HW125925   0.533   4.976   5.352  2.6439 -1.6018  0.6268
 7593SOL    HW225926   0.635   5.086   5.374  0.2613  1.0699 -1.0979
 7594SOL     OW25927   7.923   2.503   6.218 -0.4213  0.0589  0.4518
 7594SOL    HW125928   7.986   2.488   6.288  1.0091 -0.9330 -0.9868
 7594SOL    HW225929   7.859   2.432   6.228 -0.5605  0.2674  1.0910
 7595SOL     OW25930   2.931   6.117   7.344 -0.3673  0.0249  0.4659
 7595SOL    HW125931   2.950   6.093   7.253 -0.5200  0.3698  0.3393
 7595SOL    HW225932   2.844   6.156   7.341  0.2415  1.4760  0.4896
 7596SOL     OW25933   1.521   2.806   7.461 -0.4369  0.1071  0.4321
 7596SOL    HW125934   1.601   2.767   7.496 -0.2289 -1.8060 -1.9447
 7596SOL    HW225935   1.550   2.889   7.422  0.7776 -1.2615 -1.7586
 7597SOL     OW25936   0.281   4.250   4.177  0.0418  0.0182 -0.2424
 7597SOL    HW125937   0.333   4.214   4.248 -0.2122  1.2166  0.5817
 7597SOL    HW225938   0.215   4.304   4.220 -2.5332 -2.1438 -1.1720
 7598SOL     OW25939   3.806   2.976   3.791  0.5866  0.0996 -0.0310
 7598SOL    HW125940   3.883   2.991   3.737  1.5378 -0.5212  1.1141
 7598SOL    HW225941   3.781   2.886   3.772  1.0669 -0.1989  0.7204
 7599SOL     OW25942   1.551   4.539   1.559  0.2447 -0.0229 -0.2251
 7599SOL    HW125943   1.485   4.472   1.544  1.9946 -1.3968 -2.5224
 7599SOL    HW225944   1.559   4.584   1.475  2.9374 -0.6390 -0.3860
 7600SOL     OW25945   7.340   4.218   5.728  0.0006 -0.3482  0.2768
 7600SOL    HW125946   7.294   4.230   5.645  0.3393 -0.3747  0.0839
 7600SOL    HW225947   7.415   4.277   5.723  0.3878 -0.8355  0.2870
 7601SOL     OW25948   5.964   3.830   4.197  0.1402  0.2351  0.1912
 7601SOL    HW125949   6.038   3.773   4.217 -1.4153 -1.1852  2.3071
 7601SOL    HW225950   5.982   3.911   4.245  0.0952 -0.3005  1.1279
 7602SOL     OW25951   0.331   2.703   1.658  0.6053  0.3397  0.1520
 7602SOL    HW125952   0.389   2.736   1.728  0.6038 -0.1201  0.3780
 7602SOL    HW225953   0.334   2.608   1.669 -0.3811  0.3194  0.3161
 7603SOL     OW25954   1.816   6.220   4.227 -0.2077 -0.0831  0.8034
 7603SOL    HW125955   1.815   6.313   4.249 -1.6198 -0.2080  1.3942
 7603SOL    HW225956   1.755   6.211   4.154  1.7506 -0.2233 -0.8956
 7604SOL     OW25957   4.690   3.202   0.794 -0.4068  0.1344 -0.5548
 7604SOL    HW125958   4.627   3.150   0.744  0.6962 -0.1664 -1.6641
 7604SOL    HW225959   4.705   3.280   0.740 -0.8401  0.8636  0.3493
 7605SOL     OW25960   1.885   1.136   3.586 -0.0866 -0.1439 -0.5799
 7605SOL    HW125961   1.834   1.089   3.651  0.9140 -1.4749 -0.6962
 7605SOL    HW225962   1.975   1.104   3.599  0.3230  0.4273 -1.8377
 7606SOL     OW25963   6.454   3.680   3.381  0.5445 -0.2087 -0.2007
 7606SOL    HW125964   6.514   3.754   3.371  1.5958 -1.0236 -0.0823
 7606SOL    HW225965   6.490   3.629   3.454  1.1036 -2.0049 -1.6630
 7607SOL     OW25966   0.163   0.835   2.726  0.1817  0.4583  0.4851
 7607SOL    HW125967   0.108   0.844   2.803  0.4255  1.6388  0.5410
 7607SOL    HW225968   0.239   0.890   2.744  0.3207  0.6178 -0.5308
 7608SOL     OW25969   4.021   1.397   5.223  0.6258  0.3977  0.6297
 7608SOL    HW125970   3.973   1.464   5.272 -0.0899  0.7711 -0.5487
 7608SOL    HW225971   4.049   1.334   5.290 -0.9094  0.5345  1.4446
 7609SOL     OW25972   3.238   1.104   2.675  0.2952 -0.5958 -0.1906
 7609SOL    HW125973   3.228   1.012   2.651  1.5317 -0.3669 -1.7268
 7609SOL    HW225974   3.158   1.125   2.723 -0.5536 -2.1420 -0.8579
 7610SOL     OW25975   5.892   8.041   2.179 -0.3990 -0.2766 -0.4277
 7610SOL    HW125976   5.824   8.079   2.123 -0.2389  0.7920  0.0755
 7610SOL    HW225977   5.845   7.981   2.237 -0.9252  0.4196 -0.1144
 7611SOL     OW25978   1.824   6.681   2.569  0.3585 -0.0540  0.1517
 7611SOL    HW125979   1.775   6.763   2.580 -0.2830 -0.1897 -1.5243
 7611SOL    HW225980   1.904   6.695   2.620 -1.6840 -0.1643  3.7114
 7612SOL     OW25981   1.676   1.217   3.829 -0.0568  0.2589  0.4573
 7612SOL    HW125982   1.683   1.144   3.767 -0.5867  1.1111 -0.6374
 7612SOL    HW225983   1.590   1.206   3.870 -0.2204  0.3745  0.1482
 7613SOL     OW25984   5.913   5.772   7.359 -0.0066 -0.4236  0.0361
 7613SOL    HW125985   5.890   5.865   7.354  0.3393 -0.3309  0.0948
 7613SOL    HW225986   5.954   5.754   7.274  0.2099 -0.4409  0.1426
 7614SOL     OW25987   5.845   6.468   4.796  0.3385 -0.4873  0.1290
 7614SOL    HW125988   5.767   6.470   4.852 -1.0891 -1.0681 -1.7348
 7614SOL    HW225989   5.901   6.402   4.836 -0.8119 -1.1959  0.6445
 7615SOL     OW25990   2.531   0.458   7.654 -0.0196 -0.1252 -0.4092
 7615SOL    HW125991   2.493   0.438   7.568 -0.4613 -0.2995 -0.1742
 7615SOL    HW225992   2.620   0.487   7.634 -0.6418  1.5007 -1.0847
 7616SOL     OW25993   6.999   0.689   6.404 -0.3860  0.0073 -0.0197
 7616SOL    HW125994   7.063   0.693   6.333 -0.8084  3.2631 -0.3718
 7616SOL    HW225995   6.934   0.625   6.375  0.1621  0.2592 -1.9471
 7617SOL     OW25996   0.811   5.462   6.648  0.2465 -0.3279 -0.3815
 7617SOL    HW125997   0.775   5.546   6.618 -0.3792 -0.1277  0.8559
 7617SOL    HW225998   0.816   5.408   6.570  0.8329  0.9226 -1.2350
 7618SOL     OW25999   6.564   6.606   0.754  0.5513  0.5445 -0.6030
 7618SOL    HW126000   6.531   6.624   0.665  0.8083 -0.1540 -0.8476
 7618SOL    HW226001   6.659   6.611   0.746  0.6489 -1.1190 -0.7455
 7619SOL     OW26002   5.412   6.219   4.038 -0.3923 -0.3106  0.3639
 7619SOL    HW126003   5.322   6.210   4.008  0.1607  1.1486 -1.9836
 7619SOL    HW226004   5.450   6.285   3.980  2.6482 -2.0412  0.1675
 7620SOL     OW26005   3.074   5.126   1.162  0.0842  0.1685 -0.0645
 7620SOL    HW126006   3.101   5.209   1.122  1.8370 -1.0492 -1.5797
 7620SOL    HW226007   3.074   5.063   1.089 -2.2746 -0.9777  0.8318
 7621SOL     OW26008   2.957   1.080   4.024  0.3598  0.1841  0.3945
 7621SOL    HW126009   3.011   1.159   4.010  0.3556 -0.0818 -1.2296
 7621SOL    HW226010   2.875   1.113   4.061 -1.2177  1.5140 -3.7474
 7622SOL     OW26011   7.643   7.665   0.050 -0.4722 -0.0857  0.0464
 7622SOL    HW126012   7.555   7.701   0.055 -0.4350  0.0143 -0.0104
 7622SOL    HW226013   7.693   7.713   0.116 -0.4275 -0.0470 -0.0151
 7623SOL     OW26014   0.708   1.639   6.845  0.2985  0.4178 -0.0354
 7623SOL    HW126015   0.746   1.556   6.872 -1.1303 -0.0860  0.4789
 7623SOL    HW226016   0.673   1.677   6.925 -2.8536 -0.4957 -0.8405
 7624SOL     OW26017   4.216   2.628   4.388  0.7914 -0.0434  0.2975
 7624SOL    HW126018   4.181   2.558   4.443 -0.2692 -0.3445 -0.7003
 7624SOL    HW226019   4.271   2.680   4.446  0.0187 -0.5689  1.5376
 7625SOL     OW26020   3.358   6.368   4.392  1.1595  0.1466  0.0176
 7625SOL    HW126021   3.283   6.309   4.386  1.3475  0.0441 -1.7150
 7625SOL    HW226022   3.323   6.454   4.367  1.3654  0.3325  0.3638
 7626SOL     OW26023   6.133   7.204   6.160  0.0056 -0.0491 -0.2420
 7626SOL    HW126024   6.060   7.217   6.099 -0.6417  0.5581  0.6374
 7626SOL    HW226025   6.106   7.129   6.213  0.0247  0.1736  0.0828
 7627SOL     OW26026   6.189   3.224   2.689  0.5117 -0.0697  0.0697
 7627SOL    HW126027   6.245   3.188   2.619  0.1018 -0.5112 -0.0400
 7627SOL    HW226028   6.185   3.154   2.754 -0.3906 -0.2860 -0.2005
 7628SOL     OW26029   1.877   7.537   7.823  0.0431 -0.4336 -0.6216
 7628SOL    HW126030   1.854   7.483   7.747  0.1613 -1.7897  0.2743
 7628SOL    HW226031   1.805   7.522   7.885 -0.4528  1.2668 -0.7311
 7629SOL     OW26032   4.174   4.388   6.684 -0.2789 -0.1365  0.2193
 7629SOL    HW126033   4.135   4.475   6.675 -0.0402  0.1596  1.7743
 7629SOL    HW226034   4.210   4.387   6.773  1.5601 -1.0833 -0.4769
 7630SOL     OW26035   3.064   7.075   0.667 -0.1322 -0.2385 -0.4289
 7630SOL    HW126036   3.079   7.168   0.651  0.0166 -0.0241  0.8782
 7630SOL    HW226037   2.969   7.064   0.662 -0.1402 -0.0442 -0.7083
 7631SOL     OW26038   3.500   1.097   5.678 -0.3869  0.3063 -0.1361
 7631SOL    HW126039   3.435   1.146   5.729 -0.1578 -0.3038  0.7710
 7631SOL    HW226040   3.579   1.150   5.684  0.1597 -0.6188  1.7327
 7632SOL     OW26041   3.677   0.982   1.840 -0.1321  0.7449  0.2336
 7632SOL    HW126042   3.718   1.068   1.853  1.1094  0.2907 -0.5298
 7632SOL    HW226043   3.648   0.983   1.749 -1.8293  1.0290  0.7354
 7633SOL     OW26044   5.156   3.192   2.954 -0.7946 -0.0599 -0.0783
 7633SOL    HW126045   5.193   3.158   2.872 -2.4481  1.0640 -1.3690
 7633SOL    HW226046   5.062   3.196   2.937 -0.8901  3.2400  0.6677
 7634SOL     OW26047   0.883   1.664   5.345 -0.1612 -0.2717 -0.4981
 7634SOL    HW126048   0.931   1.581   5.346 -0.3297 -0.3748  0.6705
 7634SOL    HW226049   0.828   1.661   5.423 -1.8788 -0.0268 -1.6659
 7635SOL     OW26050   5.946   2.686   2.241 -0.3557 -0.5218  0.1827
 7635SOL    HW126051   5.894   2.727   2.173 -0.7912  1.6777  1.7285
 7635SOL    HW226052   6.016   2.641   2.195 -0.1430  1.5892 -1.6877
 7636SOL     OW26053   7.391   4.798   4.283  0.0075  0.4655 -0.1881
 7636SOL    HW126054   7.398   4.887   4.315 -0.1089  0.5320 -0.3426
 7636SOL    HW226055   7.481   4.766   4.279  0.0149  0.4179  0.3036
 7637SOL     OW26056   5.481   0.449   7.342  1.1244  0.2031  0.2027
 7637SOL    HW126057   5.543   0.521   7.353  1.7034 -0.4864  1.8298
 7637SOL    HW226058   5.533   0.380   7.301  1.3419 -0.2266  1.1757
 7638SOL     OW26059   1.097   0.837   6.766  0.2097  0.0784  0.3683
 7638SOL    HW126060   1.060   0.792   6.690  0.1842  0.0479  0.3990
 7638SOL    HW226061   1.026   0.837   6.831 -0.2850  1.4128 -0.1447
 7639SOL     OW26062   0.771   1.179   7.486  0.2003  0.5191  0.6842
 7639SOL    HW126063   0.710   1.155   7.556  0.1147  0.7628  0.6940
 7639SOL    HW226064   0.856   1.147   7.517  0.1777  0.6989  0.9407
 7640SOL     OW26065   4.924   2.102   1.543  0.4882  0.1875 -0.2749
 7640SOL    HW126066   5.013   2.069   1.532  0.2598 -0.8177  0.6349
 7640SOL    HW226067   4.933   2.180   1.598  0.6242 -1.4692  2.1943
 7641SOL     OW26068   5.261   0.511   2.273 -0.1776  0.2745 -0.0319
 7641SOL    HW126069   5.183   0.542   2.319  0.0932  0.3856  0.3626
 7641SOL    HW226070   5.287   0.584   2.218  0.2537  0.6292  0.6305
 7642SOL     OW26071   5.455   0.427   5.620  0.0365 -0.3646  0.1713
 7642SOL    HW126072   5.547   0.421   5.596 -0.0664 -3.4977  0.1959
 7642SOL    HW226073   5.444   0.518   5.648  3.1441  0.0573  0.3855
 7643SOL     OW26074   3.825   5.487   4.286 -0.1377 -0.7208  0.2004
 7643SOL    HW126075   3.810   5.408   4.234 -0.2256 -0.5277 -0.0721
 7643SOL    HW226076   3.875   5.545   4.228  0.6371 -0.8918  0.6834
 7644SOL     OW26077   7.130   3.511   3.756 -0.2292 -0.5292  0.0302
 7644SOL    HW126078   7.200   3.491   3.819  1.5748  0.3119 -1.5862
 7644SOL    HW226079   7.092   3.426   3.736 -0.9222 -0.8221  2.2573
 7645SOL     OW26080   6.723   2.117   3.346  0.4775  0.0196 -0.3319
 7645SOL    HW126081   6.737   2.126   3.252 -1.1086 -0.3268 -0.6309
 7645SOL    HW226082   6.752   2.028   3.366 -0.4515 -0.3857 -0.7611
 7646SOL     OW26083   3.742   5.278   3.309 -0.1582  0.0027 -0.3453
 7646SOL    HW126084   3.735   5.185   3.290 -0.3461 -0.0863  0.1529
 7646SOL    HW226085   3.652   5.311   3.299  0.0400  0.2895 -1.3111
 7647SOL     OW26086   0.226   5.952   5.782  0.2325 -0.1385 -0.7510
 7647SOL    HW126087   0.303   6.004   5.806 -0.9553  0.3318  2.5273
 7647SOL    HW226088   0.175   6.010   5.725  0.2071  1.3567  0.7035
 7648SOL     OW26089   7.028   4.824   4.708  0.6817  0.4705 -0.0100
 7648SOL    HW126090   7.107   4.857   4.664  0.0767  0.4095 -1.1922
 7648SOL    HW226091   6.972   4.901   4.716 -0.2241  0.0364 -1.6472
 7649SOL     OW26092   1.855   1.858   4.035 -0.2559  0.1955  0.1833
 7649SOL    HW126093   1.780   1.905   4.071  0.0441  0.2780  0.6962
 7649SOL    HW226094   1.875   1.904   3.953 -1.7730 -0.7963 -0.8048
 7650SOL     OW26095   6.512   1.300   5.998 -0.2202  0.0340 -0.0925
 7650SOL    HW126096   6.481   1.209   6.000 -0.7953  0.2354  0.3280
 7650SOL    HW226097   6.560   1.311   6.081  0.2397 -0.0173 -0.3481
 7651SOL     OW26098   3.617   2.041   6.367  0.3408 -0.3450  0.3278
 7651SOL    HW126099   3.569   2.121   6.387 -0.3953 -0.7858  0.3723
 7651SOL    HW226100   3.600   2.026   6.274  1.8137  0.4186 -0.0851
 7652SOL     OW26101   3.614   6.607   5.157  1.0620 -0.0477  0.5828
 7652SOL    HW126102   3.705   6.597   5.185  1.1965 -0.1331  0.1217
 7652SOL    HW226103   3.596   6.701   5.165  1.1333 -0.0586  0.8502
 7653SOL     OW26104   3.656   2.807   0.154  0.1626  1.0151  0.3201
 7653SOL    HW126105   3.680   2.750   0.080  0.6194  0.2112  1.0672
 7653SOL    HW226106   3.681   2.757   0.232 -1.7077  1.2012  1.0784
 7654SOL     OW26107   1.154   4.900   5.413  0.1437 -0.3244  0.3607
 7654SOL    HW126108   1.065   4.897   5.377 -1.0953 -0.3490  3.2110
 7654SOL    HW226109   1.142   4.911   5.507  3.2336  3.0594  0.5791
 7655SOL     OW26110   5.868   0.626   7.857  0.3343 -0.1417 -0.0795
 7655SOL    HW126111   5.877   0.558   7.924  1.0515  1.0696  1.1141
 7655SOL    HW226112   5.949   0.676   7.864 -0.0894  0.7014 -1.0850
 7656SOL     OW26113   1.316   4.938   7.476  0.4386 -0.3300  0.2783
 7656SOL    HW126114   1.246   4.901   7.530  0.9824 -1.3254  0.3245
 7656SOL    HW226115   1.363   4.997   7.535 -0.0629 -0.0343  0.3846
 7657SOL     OW26116   6.701   0.903   1.182  0.1188  0.2418  0.3006
 7657SOL    HW126117   6.733   0.862   1.101 -3.5340 -0.7661 -0.7968
 7657SOL    HW226118   6.676   0.991   1.156 -0.3161  0.1796  0.4987
 7658SOL     OW26119   0.829   2.748   2.703 -0.1242 -0.1206 -0.4895
 7658SOL    HW126120   0.914   2.705   2.706 -0.7107 -1.2273  1.1643
 7658SOL    HW226121   0.827   2.804   2.781 -1.6633 -1.6563  0.6420
 7659SOL     OW26122   8.044   3.249   2.233 -0.4070 -0.4035 -0.8746
 7659SOL    HW126123   8.084   3.275   2.150 -0.9802 -0.4623 -1.1793
 7659SOL    HW226124   8.060   3.154   2.238 -0.7468 -0.4806 -1.1405
 7660SOL     OW26125   2.335   1.520   4.754 -0.3287 -0.3550  0.2039
 7660SOL    HW126126   2.327   1.614   4.739  0.1656 -0.2772  0.4088
 7660SOL    HW226127   2.396   1.512   4.828  3.0935 -0.9353 -2.4486
 7661SOL     OW26128   3.499   0.433   5.393 -0.5433  0.1388  0.4327
 7661SOL    HW126129   3.595   0.433   5.398 -0.5766 -0.4621  1.1774
 7661SOL    HW226130   3.478   0.512   5.343  0.5033 -1.8805 -3.6503
 7662SOL     OW26131   0.839   0.137   0.973  0.1485  0.1653 -0.0188
 7662SOL    HW126132   0.889   0.133   0.891  0.9318  2.1587  0.2909
 7662SOL    HW226133   0.903   0.166   1.039 -0.8530  0.3112  0.9184
 7663SOL     OW26134   4.874   0.413   2.195 -0.0664  0.1990 -0.0105
 7663SOL    HW126135   4.967   0.398   2.216 -0.2756 -3.7624 -1.1340
 7663SOL    HW226136   4.875   0.449   2.107  0.3620  1.1904  0.3749
 7664SOL     OW26137   2.226   0.280   7.953  0.0034  0.0065  0.0132
 7664SOL    HW126138   2.172   0.286   7.874  0.1293 -0.5491 -0.1237
 7664SOL    HW226139   2.304   0.331   7.934  1.3144 -2.3289 -1.3102
 7665SOL     OW26140   3.810   6.144   7.384 -0.9022  0.2863  0.2722
 7665SOL    HW126141   3.851   6.069   7.426 -1.3507  0.1030  0.3891
 7665SOL    HW226142   3.803   6.209   7.454 -0.2216  0.5588  0.0928
 7666SOL     OW26143   0.585   5.403   0.511  0.1488  0.6179  0.4022
 7666SOL    HW126144   0.561   5.364   0.426  2.2753 -1.0161  0.4596
 7666SOL    HW226145   0.664   5.453   0.492  0.6700  0.1970  1.4143
 7667SOL     OW26146   2.154   5.182   1.211 -0.4038 -0.0015 -0.3744
 7667SOL    HW126147   2.096   5.181   1.135 -0.8959 -0.0737 -0.0039
 7667SOL    HW226148   2.241   5.197   1.174 -0.5506 -0.6289 -1.0003
 7668SOL     OW26149   3.900   6.926   1.157 -0.1743  0.1429  0.1027
 7668SOL    HW126150   3.957   6.932   1.081  0.9531 -1.0550  0.8091
 7668SOL    HW226151   3.849   6.846   1.143  1.6459 -1.3707  1.5923
 7669SOL     OW26152   6.541   6.184   3.937 -0.2034  0.5391 -0.8052
 7669SOL    HW126153   6.512   6.134   4.013 -0.1359 -0.3154 -1.3317
 7669SOL    HW226154   6.637   6.179   3.940 -0.2132 -0.5379 -1.6058
 7670SOL     OW26155   5.557   7.351   1.126 -0.0034 -0.1733 -0.1106
 7670SOL    HW126156   5.556   7.396   1.042 -0.5094  1.5089  0.7441
 7670SOL    HW226157   5.528   7.417   1.189 -2.1907 -2.0758  1.0459
 7671SOL     OW26158   4.864   6.647   2.661  0.7297  0.5162 -0.1701
 7671SOL    HW126159   4.940   6.656   2.603  1.4227  1.8902  0.8775
 7671SOL    HW226160   4.819   6.568   2.630  0.2598  1.8880 -3.4539
 7672SOL     OW26161   0.638   5.161   1.652  0.1653 -0.3336  0.5944
 7672SOL    HW126162   0.701   5.186   1.720  0.3699 -0.3027  0.3983
 7672SOL    HW226163   0.669   5.076   1.620  0.0999 -0.3254  0.5078
 7673SOL     OW26164   1.642   5.221   6.590 -0.4035 -0.2107  0.0685
 7673SOL    HW126165   1.725   5.250   6.629 -0.7529  0.8238  0.0735
 7673SOL    HW226166   1.638   5.266   6.506 -0.4905 -1.0607 -0.4025
 7674SOL     OW26167   0.268   1.765   3.015 -0.1317  0.1697  0.2432
 7674SOL    HW126168   0.231   1.717   3.088  1.5680  0.8983  1.6698
 7674SOL    HW226169   0.296   1.698   2.953  0.2816 -0.5843  1.2275
 7675SOL     OW26170   7.240   3.749   6.506  0.3870 -0.2145  0.3360
 7675SOL    HW126171   7.216   3.842   6.503  1.4416  0.1032  1.4604
 7675SOL    HW226172   7.311   3.741   6.442  1.0771 -0.0103  1.0761
 7676SOL     OW26173   3.319   5.129   7.353  0.0449 -0.1309 -0.0342
 7676SOL    HW126174   3.374   5.193   7.399 -0.0384  1.8183 -2.4369
 7676SOL    HW226175   3.290   5.175   7.274 -2.1994 -2.3063 -0.5880
 7677SOL     OW26176   6.696   7.097   4.331  0.2956 -0.0973 -0.7013
 7677SOL    HW126177   6.666   7.174   4.378 -0.1952  0.4997 -1.9365
 7677SOL    HW226178   6.791   7.105   4.328  0.1601  1.3509 -2.2357
 7678SOL     OW26179   2.408   4.429   5.086 -0.2005  0.3367 -0.3263
 7678SOL    HW126180   2.326   4.394   5.052  0.3454  0.5363 -1.9376
 7678SOL    HW226181   2.443   4.481   5.013  1.1413  0.5976  0.4855
 7679SOL     OW26182   7.432   4.424   7.343  0.2048 -0.9266 -0.3546
 7679SOL    HW126183   7.459   4.393   7.256 -0.4883 -1.1789 -0.4850
 7679SOL    HW226184   7.513   4.457   7.382  1.0893 -3.2083 -0.0791
 7680SOL     OW26185   4.864   2.884   6.067  0.4928 -0.6067 -0.2004
 7680SOL    HW126186   4.946   2.933   6.073 -0.9068  1.7650  0.7124
 7680SOL    HW226187   4.847   2.855   6.157 -1.3943  2.0365  0.3923
 7681SOL     OW26188   3.601   3.978   3.221  0.1392  0.5776 -0.2752
 7681SOL    HW126189   3.645   4.026   3.151  2.3378  1.6927  1.7081
 7681SOL    HW226190   3.510   4.008   3.217  0.3822  1.1765 -2.1509
 7682SOL     OW26191   0.113   2.207   4.620  0.5648 -0.1925 -0.5004
 7682SOL    HW126192   0.083   2.242   4.536  1.4218  0.8253 -0.4102
 7682SOL    HW226193   0.147   2.120   4.599  1.3820  0.3174 -1.3438
 7683SOL     OW26194   7.260   2.884   2.361 -0.2282 -0.1994  0.2832
 7683SOL    HW126195   7.321   2.877   2.434 -1.9708 -4.1718  1.6289
 7683SOL    HW226196   7.272   2.803   2.312 -1.3743  0.9321 -2.0405
 7684SOL     OW26197   2.014   4.707   5.519 -0.6504 -0.2239 -0.2300
 7684SOL    HW126198   2.060   4.640   5.469  0.0204 -0.1421  0.2673
 7684SOL    HW226199   2.058   4.789   5.495 -0.7877 -0.0934 -0.0382
 7685SOL     OW26200   5.108   0.439   2.968 -0.2099  0.3180 -0.5943
 7685SOL    HW126201   5.056   0.370   2.928 -0.3962 -0.1525  0.4478
 7685SOL    HW226202   5.051   0.479   3.033  0.6588 -0.0811  0.4404
 7686SOL     OW26203   5.368   1.375   7.767  0.1063 -0.0443  0.2051
 7686SOL    HW126204   5.340   1.465   7.750 -2.4043 -0.7933 -0.0737
 7686SOL    HW226205   5.458   1.383   7.798  0.0698  2.5195 -0.1288
 7687SOL     OW26206   5.459   6.851   2.310 -0.5111  0.0548  0.1756
 7687SOL    HW126207   5.395   6.910   2.270 -0.2960  0.1871  0.0297
 7687SOL    HW226208   5.468   6.884   2.400 -0.7951 -0.0833  0.2553
 7688SOL     OW26209   2.798   1.833   0.725  0.3956  0.3390  0.0483
 7688SOL    HW126210   2.884   1.848   0.687  0.2461 -0.6453 -0.7320
 7688SOL    HW226211   2.755   1.772   0.665  0.4328 -1.9507  2.1701
 7689SOL     OW26212   3.849   1.105   7.925 -0.1484 -0.2559 -0.4741
 7689SOL    HW126213   3.797   1.184   7.938  1.8095  0.8910  0.8199
 7689SOL    HW226214   3.890   1.116   7.840  1.0257  0.7096  0.1924
 7690SOL     OW26215   5.398   4.091   1.660  0.0581 -0.6021  0.3004
 7690SOL    HW126216   5.489   4.081   1.633  0.2350  1.2095  0.1008
 7690SOL    HW226217   5.400   4.089   1.755  0.0971 -1.9541  0.2909
 7691SOL     OW26218   4.528   5.984   3.709 -0.3530  0.3922  0.9115
 7691SOL    HW126219   4.608   5.935   3.731 -0.0543  0.5974  0.3060
 7691SOL    HW226220   4.458   5.937   3.753 -0.5309 -2.4036 -2.0107
 7692SOL     OW26221   4.974   6.139   5.543  0.2470  0.2711  0.0941
 7692SOL    HW126222   4.899   6.090   5.510  1.1906 -0.3828 -1.1449
 7692SOL    HW226223   4.955   6.230   5.520 -2.3509  0.9859  3.9173
 7693SOL     OW26224   6.694   0.670   3.722 -0.3135  0.3145 -0.3038
 7693SOL    HW126225   6.694   0.589   3.671 -2.1733 -0.1449  0.3395
 7693SOL    HW226226   6.648   0.733   3.667 -0.8544  0.2806  0.0976
 7694SOL     OW26227   1.693   7.890   7.054 -0.1053 -0.1438 -0.5601
 7694SOL    HW126228   1.613   7.932   7.086 -1.4880 -2.1404 -1.1797
 7694SOL    HW226229   1.753   7.893   7.129 -1.6627 -0.7693  0.7882
 7695SOL     OW26230   3.469   1.644   4.615  0.1611 -0.4595 -0.2018
 7695SOL    HW126231   3.440   1.676   4.701 -0.4983 -0.2546 -0.4985
 7695SOL    HW226232   3.552   1.689   4.600  0.7174 -1.1510  0.7170
 7696SOL     OW26233   4.978   5.235   3.854 -0.3654  0.5256 -0.4277
 7696SOL    HW126234   4.890   5.243   3.891  0.5116 -1.6293  2.4818
 7696SOL    HW226235   4.994   5.141   3.851  1.5617  0.8402 -1.6796
 7697SOL     OW26236   7.775   2.719   0.416 -0.3980  0.2819  0.7652
 7697SOL    HW126237   7.685   2.752   0.423 -0.6098 -0.3839  1.2872
 7697SOL    HW226238   7.769   2.627   0.441  0.1944 -0.1442 -0.5675
 7698SOL     OW26239   2.974   3.920   2.280 -0.6665  0.1795 -0.4797
 7698SOL    HW126240   3.014   3.904   2.365 -1.6789 -0.1081 -0.0488
 7698SOL    HW226241   2.998   4.010   2.259  1.0091 -0.2817 -0.6920
 7699SOL     OW26242   0.362   7.720   4.171  0.0193 -0.1783 -0.2496
 7699SOL    HW126243   0.417   7.663   4.119 -1.8220 -1.9772 -0.3584
 7699SOL    HW226244   0.277   7.675   4.175 -0.3756  0.5426  3.0764
 7700SOL     OW26245   0.852   1.310   3.355  0.1520 -0.2995  0.0545
 7700SOL    HW126246   0.785   1.299   3.423 -1.6926  0.2353 -1.5523
 7700SOL    HW226247   0.852   1.404   3.337  0.2585 -0.4816 -0.9691
 7701SOL     OW26248   5.563   7.259   0.447  0.3143  0.7745  0.1024
 7701SOL    HW126249   5.623   7.322   0.486  2.5352 -1.5022  0.6399
 7701SOL    HW226250   5.580   7.265   0.353 -0.1492  1.5711  0.0608
 7702SOL     OW26251   5.804   4.234   1.167  0.0454 -0.0390 -0.7863
 7702SOL    HW126252   5.888   4.213   1.126  0.0353  0.3155 -0.9939
 7702SOL    HW226253   5.766   4.149   1.188  1.1796 -0.2065  0.7970
 7703SOL     OW26254   6.169   2.477   7.915 -0.3717  0.4991 -0.5359
 7703SOL    HW126255   6.138   2.509   7.999 -1.4212  0.2789 -0.8252
 7703SOL    HW226256   6.111   2.404   7.894 -1.0256  1.4314 -2.1057
 7704SOL     OW26257   7.397   0.187   0.715  0.0847  0.8952  0.1486
 7704SOL    HW126258   7.459   0.211   0.784  0.6071  0.9553 -0.3341
 7704SOL    HW226259   7.452   0.166   0.640 -0.4985  1.3489 -0.4135
 7705SOL     OW26260   5.643   1.355   0.177 -0.2929 -0.0104  0.0101
 7705SOL    HW126261   5.693   1.279   0.207 -1.0254  0.0266  1.4278
 7705SOL    HW226262   5.705   1.428   0.181  0.3224 -0.4427 -1.0413
 7706SOL     OW26263   7.657   3.108   3.869  0.3887 -0.1123  0.1322
 7706SOL    HW126264   7.724   3.086   3.805 -0.2257  0.2298 -0.6467
 7706SOL    HW226265   7.683   3.062   3.948  1.4642 -0.0984 -0.1958
 7707SOL     OW26266   0.774   7.923   3.542 -0.0375 -0.3061 -0.1331
 7707SOL    HW126267   0.753   7.903   3.633 -1.6065  0.3998 -0.3067
 7707SOL    HW226268   0.752   8.015   3.532  0.2571 -0.3388 -1.2011
 7708SOL     OW26269   1.731   4.639   5.465 -0.6158 -0.1850  0.3551
 7708SOL    HW126270   1.797   4.601   5.523 -0.9225  1.5095  1.9387
 7708SOL    HW226271   1.781   4.690   5.402 -0.3343  1.0727  1.5345
 7709SOL     OW26272   4.862   1.394   4.225  0.0453 -0.3444 -0.4920
 7709SOL    HW126273   4.809   1.324   4.187  0.3932 -0.7586 -0.2305
 7709SOL    HW226274   4.916   1.350   4.291 -1.5717  0.5575  1.5737
 7710SOL     OW26275   5.613   0.860   0.469 -0.0104  0.3762  0.3122
 7710SOL    HW126276   5.632   0.859   0.563 -2.3749  0.3858  0.8489
 7710SOL    HW226277   5.558   0.783   0.455 -0.8635  1.1506 -0.7649
 7711SOL     OW26278   5.086   0.263   5.966  0.0430  0.0367  0.2043
 7711SOL    HW126279   5.170   0.293   5.930 -0.0807 -0.6955 -0.7473
 7711SOL    HW226280   5.021   0.301   5.907 -0.2331 -0.1748  0.3729
 7712SOL     OW26281   1.947   6.872   1.795  0.0932 -0.4571 -0.1420
 7712SOL    HW126282   1.985   6.960   1.797  0.1558 -0.4674 -0.8398
 7712SOL    HW226283   1.895   6.869   1.715 -2.3955 -0.0296  1.3368
 7713SOL     OW26284   5.469   0.242   3.435  0.0929 -0.2597  0.1824
 7713SOL    HW126285   5.529   0.202   3.372 -0.2426  1.7734 -1.5561
 7713SOL    HW226286   5.509   0.226   3.520  1.3680 -1.7879 -0.6520
 7714SOL     OW26287   7.412   1.139   1.373 -0.1372  0.0945 -0.3035
 7714SOL    HW126288   7.450   1.095   1.449 -1.2219  0.3718  0.4282
 7714SOL    HW226289   7.351   1.203   1.410 -0.4782  0.4355 -1.4034
 7715SOL     OW26290   4.495   2.591   5.556  0.0096  0.1289  0.1417
 7715SOL    HW126291   4.536   2.586   5.642  1.3170 -0.3975 -0.4925
 7715SOL    HW226292   4.550   2.651   5.506  0.7972 -1.5603 -1.1030
 7716SOL     OW26293   0.177   1.165   2.000  0.2747  0.7092  0.1374
 7716SOL    HW126294   0.094   1.169   2.047  0.3927  0.8981  0.3315
 7716SOL    HW226295   0.242   1.144   2.067  0.5529  1.7183  0.2057
 7717SOL     OW26296   4.927   6.622   5.291 -0.6342  1.0127 -0.1481
 7717SOL    HW126297   4.946   6.713   5.316 -1.5979  1.0473  0.5075
 7717SOL    HW226298   4.832   6.617   5.288 -0.5830  0.4560 -1.8768
 7718SOL     OW26299   3.971   3.922   3.866 -0.1379 -0.5351  0.1242
 7718SOL    HW126300   3.927   3.902   3.948  0.9881  0.1397  0.9138
 7718SOL    HW226301   3.981   4.017   3.866  1.0107 -0.6442 -0.1797
 7719SOL     OW26302   7.562   2.397   4.774 -0.0654 -0.9380 -0.3395
 7719SOL    HW126303   7.542   2.460   4.705  0.2445 -2.4256 -1.8457
 7719SOL    HW226304   7.519   2.433   4.852 -0.5558  0.7137 -1.3188
 7720SOL     OW26305   2.607   4.858   3.359  0.5630  0.2837  0.2231
 7720SOL    HW126306   2.607   4.890   3.268  1.5567 -0.8443 -0.2054
 7720SOL    HW226307   2.619   4.763   3.350  0.1577  0.0996  1.5253
 7721SOL     OW26308   4.110   5.907   2.265  0.0608 -0.1098 -0.5987
 7721SOL    HW126309   4.118   5.991   2.310  0.0385 -0.1254 -0.5658
 7721SOL    HW226310   4.104   5.930   2.172 -1.9785  0.0525 -0.4720
 7722SOL     OW26311   4.438   6.428   0.095  0.0307 -0.0953  0.1148
 7722SOL    HW126312   4.488   6.498   0.136  0.1968 -0.1699  0.0418
 7722SOL    HW226313   4.504   6.367   0.062 -0.0668  0.3150 -0.8843
 7723SOL     OW26314   1.736   7.537   6.701  0.1439  0.1932 -0.5187
 7723SOL    HW126315   1.683   7.498   6.631 -0.2104  0.6510 -0.5139
 7723SOL    HW226316   1.673   7.562   6.768  0.4904 -0.2836 -0.0076
 7724SOL     OW26317   7.514   2.118   3.750 -0.1156 -0.0303  0.4296
 7724SOL    HW126318   7.584   2.053   3.746  0.7248  0.9169 -1.3968
 7724SOL    HW226319   7.550   2.190   3.801  0.2270  0.3828 -0.3644
 7725SOL     OW26320   3.886   1.493   1.867 -0.5509  0.3887 -0.3948
 7725SOL    HW126321   3.849   1.494   1.955 -1.3421  0.2181 -0.7176
 7725SOL    HW226322   3.948   1.566   1.867 -1.1765  0.9413  0.0410
 7726SOL     OW26323   3.490   1.049   0.229  0.8224  0.1157 -0.4195
 7726SOL    HW126324   3.543   1.000   0.291 -1.2661  0.2943  1.6445
 7726SOL    HW226325   3.512   1.012   0.144  1.0688 -2.8074  0.8105
 7727SOL     OW26326   5.928   7.974   0.952  0.0710 -0.9598  0.8619
 7727SOL    HW126327   5.841   8.002   0.924  0.9875  0.3945 -0.8879
 7727SOL    HW226328   5.954   7.908   0.887  1.8624  1.5554 -1.2137
 7728SOL     OW26329   7.852   4.319   6.880 -0.4381  0.2793  0.0019
 7728SOL    HW126330   7.818   4.251   6.822 -1.1070  1.4269 -1.0152
 7728SOL    HW226331   7.947   4.311   6.873 -0.5077 -0.3242 -0.3725
 7729SOL     OW26332   7.264   3.082   4.616 -0.8581  0.7605  0.4212
 7729SOL    HW126333   7.279   3.113   4.527 -3.8758 -0.0662 -0.4951
 7729SOL    HW226334   7.308   3.146   4.672  2.3766  0.5197 -1.6125
 7730SOL     OW26335   2.056   3.731   0.388  0.4074 -0.0051 -0.5769
 7730SOL    HW126336   2.105   3.731   0.470 -1.7763  0.8798  0.8429
 7730SOL    HW226337   2.114   3.773   0.324  1.7494  0.2958  0.7849
 7731SOL     OW26338   3.116   6.218   4.098 -0.1296 -0.1144  0.2141
 7731SOL    HW126339   3.203   6.177   4.095 -0.5220 -1.0642 -4.1827
 7731SOL    HW226340   3.070   6.171   4.168  1.9948 -1.5571  0.7391
 7732SOL     OW26341   7.200   4.840   0.583  0.5177  0.1306 -0.2045
 7732SOL    HW126342   7.223   4.933   0.580  0.2013  0.2135 -0.1904
 7732SOL    HW226343   7.229   4.805   0.498 -0.1589  0.4426 -0.5744
 7733SOL     OW26344   6.059   2.429   3.558  0.8410 -0.2587  1.1261
 7733SOL    HW126345   6.116   2.373   3.610  0.0361 -0.1218  2.1874
 7733SOL    HW226346   5.981   2.377   3.542  0.3659  0.3206  1.5406
 7734SOL     OW26347   6.097   4.758   1.636  0.6294  0.3485  0.0441
 7734SOL    HW126348   6.077   4.840   1.679 -1.3365 -0.0720  0.0358
 7734SOL    HW226349   6.128   4.784   1.549 -1.4346  1.1144 -0.5330
 7735SOL     OW26350   3.281   1.247   7.449 -0.1314 -0.3571 -0.0315
 7735SOL    HW126351   3.200   1.297   7.458  0.5048  0.6111  0.5738
 7735SOL    HW226352   3.350   1.314   7.447  0.7860 -1.2151  1.2254
 7736SOL     OW26353   1.122   1.068   2.851  0.3593 -0.6126  1.2039
 7736SOL    HW126354   1.165   1.070   2.766  0.8092  3.4118  1.3322
 7736SOL    HW226355   1.029   1.082   2.832  0.0674 -2.2737  1.2960
 7737SOL     OW26356   3.512   0.388   1.332 -0.6785  0.1523 -0.6569
 7737SOL    HW126357   3.516   0.483   1.346 -1.7962  0.1059  0.1563
 7737SOL    HW226358   3.603   0.359   1.340 -0.4874  0.9737  0.6021
 7738SOL     OW26359   5.977   0.740   7.101  0.5277  0.7505 -0.3114
 7738SOL    HW126360   5.943   0.702   7.021 -0.4099 -1.2329  0.9524
 7738SOL    HW226361   6.037   0.808   7.072  0.4527 -0.1187 -2.6744
 7739SOL     OW26362   2.239   0.165   3.482  0.0079 -0.0775 -0.0138
 7739SOL    HW126363   2.253   0.259   3.495  1.1822 -0.3958  1.3094
 7739SOL    HW226364   2.225   0.131   3.571  0.8637 -1.3277 -0.3260
 7740SOL     OW26365   4.214   1.731   2.842  0.2309  0.1204 -0.3797
 7740SOL    HW126366   4.270   1.678   2.898  1.3619  0.1819 -1.4122
 7740SOL    HW226367   4.131   1.738   2.890  0.2854 -1.9652  0.1000
 7741SOL     OW26368   0.760   8.004   2.601 -0.4379 -0.2201 -0.2897
 7741SOL    HW126369   0.752   7.922   2.552 -1.3583 -0.9552  1.0345
 7741SOL    HW226370   0.671   8.038   2.608 -0.4446 -0.4912  1.4199
 7742SOL     OW26371   3.002   2.378   2.846 -0.2602  0.1260 -0.0672
 7742SOL    HW126372   2.933   2.350   2.906  0.2839 -0.8818  0.0985
 7742SOL    HW226373   2.957   2.394   2.763 -0.8511  0.5121  0.3223
 7743SOL     OW26374   0.671   0.779   3.839  0.3970  0.1207 -0.7362
 7743SOL    HW126375   0.683   0.714   3.909 -0.0995 -0.0169 -0.7761
 7743SOL    HW226376   0.622   0.850   3.881  3.1020  1.6882  0.0364
 7744SOL     OW26377   2.456   5.271   1.183 -0.3637 -0.0797  0.2131
 7744SOL    HW126378   2.531   5.229   1.140 -0.8917 -0.9518  0.1170
 7744SOL    HW226379   2.438   5.349   1.130  1.1120  0.7193  0.8352
 7745SOL     OW26380   1.416   2.978   6.999  0.1742  0.2297 -0.1646
 7745SOL    HW126381   1.392   2.889   7.025  1.1992  0.3179  1.1287
 7745SOL    HW226382   1.340   3.032   7.025  0.6425  0.1190  1.5345
 7746SOL     OW26383   0.238   1.924   0.132 -0.3541  0.0164 -0.1934
 7746SOL    HW126384   0.184   1.846   0.150  0.4651 -1.0619 -2.0800
 7746SOL    HW226385   0.188   1.972   0.066 -0.0315  0.1599 -0.3316
 7747SOL     OW26386   5.499   2.567   1.337  0.3153 -0.6176 -0.1340
 7747SOL    HW126387   5.403   2.560   1.342  0.2191  0.5941  0.0925
 7747SOL    HW226388   5.519   2.558   1.244 -0.2260  1.1584 -0.4553
 7748SOL     OW26389   6.960   4.604   1.251 -0.7259  0.3690 -0.7194
 7748SOL    HW126390   6.904   4.535   1.214 -1.8707  0.4732  0.7411
 7748SOL    HW226391   6.982   4.659   1.176  1.7280 -2.4807 -2.3184
 7749SOL     OW26392   7.716   4.020   0.802  0.2303 -0.6761 -0.4743
 7749SOL    HW126393   7.739   3.987   0.716  0.3490 -0.1084 -0.6691
 7749SOL    HW226394   7.635   4.070   0.788  0.8560  0.3732 -0.4846
 7750SOL     OW26395   1.938   6.165   6.065 -0.1713 -0.1264 -0.1291
 7750SOL    HW126396   1.914   6.175   5.973  0.8450  1.0528 -0.2948
 7750SOL    HW226397   2.027   6.199   6.070 -0.3392  0.1534  1.3646
 7751SOL     OW26398   2.202   4.373   6.169  0.0480 -0.0528 -0.3915
 7751SOL    HW126399   2.122   4.398   6.215 -0.2364 -1.0771 -0.3033
 7751SOL    HW226400   2.253   4.453   6.164 -0.5016  0.3712  0.5462
 7752SOL     OW26401   4.039   1.675   3.201 -0.4290 -0.1391  1.5089
 7752SOL    HW126402   3.951   1.647   3.229 -0.0074 -2.4137  0.7827
 7752SOL    HW226403   4.098   1.630   3.261  0.2927 -0.6654  0.4314
 7753SOL     OW26404   2.050   7.407   6.532 -0.1280  0.4432  0.2877
 7753SOL    HW126405   2.025   7.380   6.620  0.1778 -1.0438 -0.0593
 7753SOL    HW226406   1.973   7.451   6.497 -0.5702  0.2186  0.9671
 7754SOL     OW26407   1.950   2.106   0.908  0.1991  0.0734 -0.2147
 7754SOL    HW126408   1.873   2.148   0.945 -0.0064 -1.7826  1.6560
 7754SOL    HW226409   1.929   2.012   0.907  2.2759 -0.4656  0.0950
 7755SOL     OW26410   0.240   2.968   4.594 -0.1254  0.3604 -0.0510
 7755SOL    HW126411   0.241   2.899   4.529 -1.9517  0.6234 -0.4089
 7755SOL    HW226412   0.288   2.932   4.669 -0.4320 -1.0226 -0.4965
 7756SOL     OW26413   2.697   6.170   2.550  0.2815 -0.0032  0.6616
 7756SOL    HW126414   2.681   6.264   2.541  2.7298  0.3978 -0.1715
 7756SOL    HW226415   2.665   6.132   2.468 -1.7291 -0.1123  1.4429
 7757SOL     OW26416   6.754   1.697   1.963  0.0033 -0.6197  0.4330
 7757SOL    HW126417   6.757   1.643   2.041  0.4466  1.0464  1.6402
 7757SOL    HW226418   6.748   1.635   1.890 -1.2723 -2.2009  1.8066
 7758SOL     OW26419   5.407   6.328   1.664 -0.0887 -0.7600 -0.2032
 7758SOL    HW126420   5.322   6.341   1.707 -0.2211 -0.1631 -0.6240
 7758SOL    HW226421   5.471   6.355   1.730 -0.3010  0.4436 -0.4590
 7759SOL     OW26422   0.941   5.432   6.252  0.6062  0.1175 -0.3346
 7759SOL    HW126423   0.917   5.372   6.181  1.7201  0.4048 -0.9814
 7759SOL    HW226424   0.917   5.385   6.332  2.2195 -1.6076 -0.7825
 7760SOL     OW26425   2.095   0.958   3.317  0.6298  0.2545  0.3359
 7760SOL    HW126426   2.116   0.932   3.407  0.0951 -0.7513  0.1863
 7760SOL    HW226427   2.012   1.005   3.325  0.6128  0.2188  0.3693
 7761SOL     OW26428   3.811   2.950   4.055  0.1646 -0.3773  0.5810
 7761SOL    HW126429   3.847   3.032   4.087  0.2595 -0.3513  0.4088
 7761SOL    HW226430   3.822   2.954   3.960 -2.0409  0.4821  0.2975
 7762SOL     OW26431   7.016   5.472   5.164  0.3255  0.0856 -0.1273
 7762SOL    HW126432   6.943   5.468   5.102  0.3422  0.2942 -0.1623
 7762SOL    HW226433   7.072   5.542   5.131  1.4336 -1.1912 -1.0681
 7763SOL     OW26434   1.997   3.408   1.718 -0.5052 -0.3576  0.3930
 7763SOL    HW126435   1.913   3.378   1.683  0.0964 -1.3180 -0.2550
 7763SOL    HW226436   2.019   3.345   1.786  0.4584 -1.0391 -0.5373
 7764SOL     OW26437   7.920   4.397   5.490  0.2275  0.5033 -0.1568
 7764SOL    HW126438   7.997   4.341   5.496 -0.2002 -0.4096 -2.2680
 7764SOL    HW226439   7.854   4.352   5.543  0.2635 -0.3617 -0.8159
 7765SOL     OW26440   3.632   1.808   8.075 -0.0401  0.1803  0.0325
 7765SOL    HW126441   3.611   1.725   8.117  2.5468 -0.5412  0.0276
 7765SOL    HW226442   3.590   1.802   7.989  0.4647 -1.3325 -0.1416
 7766SOL     OW26443   1.654   0.058   6.468 -0.0253 -0.3044 -0.4395
 7766SOL    HW126444   1.719   0.127   6.453 -0.2779 -0.1825 -0.9653
 7766SOL    HW226445   1.610   0.084   6.549  0.4990 -0.3280 -0.1397
 7767SOL     OW26446   7.375   0.242   3.873  0.0155  0.3325 -0.1822
 7767SOL    HW126447   7.435   0.282   3.810  0.2924 -0.7927 -0.6490
 7767SOL    HW226448   7.430   0.191   3.931 -0.3624  0.3882  0.2320
 7768SOL     OW26449   2.796   5.193   7.594  0.1354 -0.2718 -0.7836
 7768SOL    HW126450   2.777   5.280   7.561 -2.5348 -1.1818 -1.9591
 7768SOL    HW226451   2.712   5.146   7.588  0.0148 -1.4245  4.7058
 7769SOL     OW26452   6.746   7.757   3.389  0.6431  0.0868 -0.0499
 7769SOL    HW126453   6.787   7.706   3.460  1.6218 -0.2802 -0.8525
 7769SOL    HW226454   6.804   7.743   3.314 -0.3195  0.5598 -0.8945
 7770SOL     OW26455   8.067   5.162   3.047  0.5792  0.4002 -0.0210
 7770SOL    HW126456   8.002   5.098   3.075 -0.2811  0.8814 -0.8589
 7770SOL    HW226457   8.148   5.136   3.092  0.2062 -1.1473 -0.2030
 7771SOL     OW26458   1.780   6.461   6.136  0.4724 -0.0949 -0.0046
 7771SOL    HW126459   1.773   6.557   6.141  0.0573 -0.0605 -1.0839
 7771SOL    HW226460   1.859   6.446   6.083  0.0454 -0.3325 -0.5819
 7772SOL     OW26461   4.164   0.222   3.485  0.1987  0.8167 -0.2745
 7772SOL    HW126462   4.074   0.256   3.476 -0.4248 -0.5887  0.4390
 7772SOL    HW226463   4.214   0.297   3.516 -0.6827  1.6830 -0.8727
 7773SOL     OW26464   1.272   4.965   2.686 -0.1443  0.1419  0.3115
 7773SOL    HW126465   1.257   4.987   2.594  1.4702 -0.3597 -0.1062
 7773SOL    HW226466   1.234   4.878   2.697 -0.0772  0.0802  0.0486
 7774SOL     OW26467   1.271   1.997   6.861 -0.0360 -0.2264 -0.6158
 7774SOL    HW126468   1.183   1.963   6.847 -0.7740 -0.0503  2.8452
 7774SOL    HW226469   1.322   1.960   6.789 -2.6047 -1.4780 -1.9387
 7775SOL     OW26470   3.688   2.572   7.113 -0.1675  0.7736  0.6536
 7775SOL    HW126471   3.686   2.659   7.153 -1.7670  1.3840 -0.6165
 7775SOL    HW226472   3.618   2.524   7.157 -1.9482  1.4538 -1.2127
 7776SOL     OW26473   8.015   3.248   1.461 -0.0824  0.3677  0.2355
 7776SOL    HW126474   8.001   3.155   1.440 -1.6299  0.9560 -1.7074
 7776SOL    HW226475   7.947   3.268   1.525 -1.8416  0.8287 -1.6732
 7777SOL     OW26476   2.711   5.689   5.037  0.3423  0.3487  0.4742
 7777SOL    HW126477   2.802   5.659   5.036 -0.1171 -1.1484  0.6024
 7777SOL    HW226478   2.688   5.691   5.130 -1.0292 -3.6510  0.4195
 7778SOL     OW26479   3.620   3.095   4.474  0.2738 -0.4695  0.4840
 7778SOL    HW126480   3.692   3.036   4.450  0.3152  0.7414 -2.8421
 7778SOL    HW226481   3.542   3.040   4.472  0.6438 -0.9915  0.2265
 7779SOL     OW26482   0.104   3.822   3.643 -0.1303  0.0607  0.1984
 7779SOL    HW126483   0.113   3.781   3.557 -0.6496  0.0237  0.1581
 7779SOL    HW226484   0.012   3.810   3.665 -0.1605  0.7230  0.4358
 7780SOL     OW26485   6.163   6.637   0.372 -0.2536  0.8955 -0.3839
 7780SOL    HW126486   6.159   6.562   0.312  0.0481  0.1975  0.4526
 7780SOL    HW226487   6.136   6.712   0.318 -1.0281  0.1181 -1.1079
 7781SOL     OW26488   5.961   0.406   5.445 -0.4840 -0.1241 -0.8648
 7781SOL    HW126489   5.993   0.325   5.406 -1.0085  0.0386 -1.6608
 7781SOL    HW226490   6.012   0.417   5.525 -2.4373 -2.8500  0.9074
 7782SOL     OW26491   7.248   1.488   7.990  0.2785  0.0450 -0.2384
 7782SOL    HW126492   7.250   1.444   8.075  1.0700 -0.9925 -0.7676
 7782SOL    HW226493   7.295   1.570   8.004  0.4624 -0.1488  0.3084
 7783SOL     OW26494   6.028   2.280   7.169 -0.1304 -0.1608  0.2191
 7783SOL    HW126495   6.070   2.216   7.112  0.6236 -0.1818  0.7874
 7783SOL    HW226496   5.997   2.348   7.110  3.1524  1.2639 -0.0413
 7784SOL     OW26497   0.659   0.428   7.316 -0.1271  0.3381 -0.2419
 7784SOL    HW126498   0.592   0.430   7.385 -0.3985  1.2553 -0.5112
 7784SOL    HW226499   0.630   0.495   7.254  0.9046  0.5616 -0.4927
 7785SOL     OW26500   4.697   5.835   6.248  0.6589  0.4502 -0.3913
 7785SOL    HW126501   4.668   5.832   6.340 -0.7984 -0.5319 -0.8498
 7785SOL    HW226502   4.693   5.928   6.225 -0.2260  0.5668  0.1750
 7786SOL     OW26503   1.951   4.034   2.489  0.0591 -0.5482  0.0885
 7786SOL    HW126504   1.889   4.009   2.421  0.0893 -1.4797  0.3848
 7786SOL    HW226505   1.906   4.013   2.571 -0.6276  2.0400  0.4624
 7787SOL     OW26506   3.757   7.748   0.545  0.6489  0.5068  0.0761
 7787SOL    HW126507   3.733   7.834   0.511  0.5919  1.0739  1.4925
 7787SOL    HW226508   3.814   7.710   0.478  1.5847  2.1123 -0.0810
 7788SOL     OW26509   2.700   6.622   7.360 -0.5293  0.5957  0.3734
 7788SOL    HW126510   2.685   6.553   7.295  3.3588  0.9826 -1.2270
 7788SOL    HW226511   2.668   6.585   7.442 -0.8234 -2.1278 -0.8519
 7789SOL     OW26512   7.407   0.627   6.833 -0.4240  0.5078  0.2447
 7789SOL    HW126513   7.354   0.600   6.758 -2.2852  0.7192  1.4320
 7789SOL    HW226514   7.428   0.719   6.815 -1.6121  0.8213  0.3650
 7790SOL     OW26515   1.281   7.102   1.640 -0.4350  0.2355 -0.0400
 7790SOL    HW126516   1.192   7.136   1.625 -0.1116  0.9989 -0.2726
 7790SOL    HW226517   1.332   7.135   1.566 -0.2038 -1.1631 -0.5239
 7791SOL     OW26518   5.209   2.304   3.100  0.5478 -0.3217  0.1622
 7791SOL    HW126519   5.127   2.350   3.118 -0.1982  0.1488 -3.7002
 7791SOL    HW226520   5.191   2.213   3.122 -1.3591 -0.3699 -1.4055
 7792SOL     OW26521   0.288   0.814   0.315  0.2086  0.0366  0.2676
 7792SOL    HW126522   0.356   0.805   0.381  0.8735 -0.9490 -0.5109
 7792SOL    HW226523   0.273   0.724   0.285  0.5214  0.5446 -1.5023
 7793SOL     OW26524   1.581   5.367   5.346  0.0699 -0.7172  0.6192
 7793SOL    HW126525   1.599   5.460   5.354 -0.0842 -0.7940  2.1851
 7793SOL    HW226526   1.515   5.361   5.276 -2.4082  0.7334  2.6466
 7794SOL     OW26527   0.813   1.425   1.282  0.2650 -0.6196  0.6012
 7794SOL    HW126528   0.879   1.372   1.238  2.0780  1.8859  0.1072
 7794SOL    HW226529   0.817   1.397   1.373  1.5627 -0.9906  0.4563
 7795SOL     OW26530   7.682   3.231   1.247 -0.4076  0.4340  0.7934
 7795SOL    HW126531   7.601   3.182   1.264 -1.1578  1.4540  0.2461
 7795SOL    HW226532   7.660   3.290   1.175  1.2214 -0.1926 -0.2744
 7796SOL     OW26533   0.580   0.520   1.697 -0.3534  0.3867 -0.3341
 7796SOL    HW126534   0.549   0.523   1.787  0.7260 -2.3389  0.2440
 7796SOL    HW226535   0.510   0.561   1.645 -1.9887  0.0685  1.5154
 7797SOL     OW26536   4.972   4.696   7.409  0.2418  0.4018 -0.3289
 7797SOL    HW126537   4.946   4.620   7.357 -1.8854  0.8291 -0.0058
 7797SOL    HW226538   4.904   4.761   7.391 -0.0139  0.9123  2.1730
 7798SOL     OW26539   3.439   1.377   5.592 -0.0659 -0.1489 -0.1869
 7798SOL    HW126540   3.368   1.314   5.600  0.8637 -1.3056 -0.7217
 7798SOL    HW226541   3.433   1.430   5.672  0.1294 -1.9996  1.1223
 7799SOL     OW26542   2.117   7.924   7.046 -0.1928 -0.1079 -0.6661
 7799SOL    HW126543   2.102   7.841   7.001 -1.3614 -0.1383 -0.2527
 7799SOL    HW226544   2.124   7.901   7.139 -1.4057  0.3170 -0.4411
 7800SOL     OW26545   4.432   6.559   7.916  0.1690  0.1951 -0.1806
 7800SOL    HW126546   4.427   6.510   7.998  0.4458  1.6413  0.7427
 7800SOL    HW226547   4.342   6.587   7.899 -0.3765 -2.2719 -1.8140
 7801SOL     OW26548   1.140   3.971   3.909 -0.0462 -0.5366  0.3481
 7801SOL    HW126549   1.227   3.952   3.874  0.1863 -1.1018  1.1915
 7801SOL    HW226550   1.116   3.892   3.958 -1.1516 -0.4910 -0.0871
 7802SOL     OW26551   2.539   2.418   5.466 -0.0762  0.0795 -0.4438
 7802SOL    HW126552   2.581   2.495   5.502 -1.6386  1.0880 -0.6808
 7802SOL    HW226553   2.556   2.422   5.372  0.2195 -0.1251 -0.4018
 7803SOL     OW26554   0.085   5.456   5.818 -0.9799  0.1743 -0.5406
 7803SOL    HW126555   0.104   5.546   5.792 -0.8312 -0.1480 -1.5825
 7803SOL    HW226556   0.169   5.422   5.848 -1.1628  0.5643  0.4484
 7804SOL     OW26557   6.867   4.075   4.656 -1.0597 -0.0604 -0.0434
 7804SOL    HW126558   6.957   4.087   4.688 -1.3601  1.2081  0.3997
 7804SOL    HW226559   6.876   4.023   4.577  0.0565 -0.0381  0.0524
 7805SOL     OW26560   1.074   3.726   3.967  0.2307 -0.2279  0.0979
 7805SOL    HW126561   0.994   3.685   3.933 -1.5027  2.0770  1.1089
 7805SOL    HW226562   1.081   3.694   4.057  0.4697 -0.4465  0.0023
 7806SOL     OW26563   5.377   6.154   1.458  0.2291  0.0385  0.2738
 7806SOL    HW126564   5.294   6.160   1.410  1.0068  0.8436 -1.0201
 7806SOL    HW226565   5.378   6.232   1.514  0.4377  0.4104 -0.2471
 7807SOL     OW26566   3.446   5.486   4.961 -0.3858 -0.3798 -0.2414
 7807SOL    HW126567   3.376   5.482   4.897  0.3474  0.6425 -1.1509
 7807SOL    HW226568   3.402   5.503   5.045 -1.2694 -0.6110 -0.6523
 7808SOL     OW26569   1.917   0.382   5.137  0.1676  0.1743 -0.2147
 7808SOL    HW126570   1.947   0.337   5.216  0.4008  0.0735 -0.3622
 7808SOL    HW226571   1.854   0.321   5.097 -0.4082  0.4799  0.2132
 7809SOL     OW26572   1.840   2.780   0.663 -0.0081  0.1255  0.5051
 7809SOL    HW126573   1.923   2.770   0.710  1.8246 -1.3135 -2.7525
 7809SOL    HW226574   1.812   2.690   0.645 -0.5457  0.5963 -1.2055
 7810SOL     OW26575   8.047   3.532   6.525 -0.4900 -0.5656 -0.6443
 7810SOL    HW126576   8.060   3.619   6.561 -0.5621 -1.2668  1.1586
 7810SOL    HW226577   7.954   3.527   6.506 -0.2143  0.3537 -2.5296
 7811SOL     OW26578   5.961   7.297   3.674  0.3654 -0.6295 -0.0258
 7811SOL    HW126579   5.919   7.334   3.751 -1.0796  4.3886 -2.7142
 7811SOL    HW226580   5.897   7.236   3.638 -1.2870  0.8945  0.1744
 7812SOL     OW26581   0.601   1.681   0.862  0.0061  0.0258  0.0886
 7812SOL    HW126582   0.632   1.699   0.951  0.0964 -0.2760  0.1205
 7812SOL    HW226583   0.668   1.717   0.805 -0.3464  0.7620  0.1320
 7813SOL     OW26584   5.395   3.976   7.884  0.8327 -0.5048  0.4320
 7813SOL    HW126585   5.481   4.006   7.912  0.1434  0.0597  2.0735
 7813SOL    HW226586   5.334   4.043   7.916 -0.1739 -0.5299 -1.2983
 7814SOL     OW26587   4.567   6.620   4.797  0.5742  0.0042 -0.1844
 7814SOL    HW126588   4.626   6.692   4.777 -0.9966  2.4195  2.8986
 7814SOL    HW226589   4.484   6.644   4.756  0.0188  0.0439  0.9185
 7815SOL     OW26590   1.225   7.827   2.499 -0.7026  0.7786 -0.0196
 7815SOL    HW126591   1.299   7.854   2.554 -1.7092  0.9433  1.2977
 7815SOL    HW226592   1.217   7.896   2.434  0.9650  0.2275 -0.8631
 7816SOL     OW26593   6.327   4.183   4.732  0.5235 -0.2403 -0.1713
 7816SOL    HW126594   6.340   4.245   4.661  0.8482 -2.0802 -1.8094
 7816SOL    HW226595   6.404   4.126   4.729  1.5599  0.7570  2.9731
 7817SOL     OW26596   7.897   2.140   5.735  0.3534 -0.2335 -0.4312
 7817SOL    HW126597   7.874   2.060   5.688  0.4913 -1.6724  1.7817
 7817SOL    HW226598   7.897   2.114   5.827 -0.0220  2.4434  0.4044
 7818SOL     OW26599   4.327   1.292   5.724 -0.3860 -0.2662 -0.3270
 7818SOL    HW126600   4.322   1.379   5.764 -1.9915 -0.7002  0.5017
 7818SOL    HW226601   4.369   1.238   5.790 -0.9424 -0.4833 -0.1480
 7819SOL     OW26602   0.839   5.627   6.077 -0.1302 -0.2403  0.4036
 7819SOL    HW126603   0.880   5.568   6.140  0.6397  2.2578  2.4145
 7819SOL    HW226604   0.900   5.701   6.071 -2.0358  1.3479 -0.3389
 7820SOL     OW26605   2.209   3.499   2.290  0.3627  0.4812 -0.1860
 7820SOL    HW126606   2.159   3.446   2.230  1.1004  0.1280 -0.5042
 7820SOL    HW226607   2.201   3.454   2.375 -0.3944  0.7928 -0.0896
 7821SOL     OW26608   2.259   2.620   5.679  0.2110 -0.1583  0.1411
 7821SOL    HW126609   2.298   2.542   5.717 -0.7237  0.9832  3.8298
 7821SOL    HW226610   2.176   2.590   5.642  2.3632 -1.8331 -4.1741
 7822SOL     OW26611   4.558   2.035   1.349 -0.0569 -0.0250 -0.3173
 7822SOL    HW126612   4.510   2.091   1.410  2.3867  0.3656  1.4209
 7822SOL    HW226613   4.603   2.095   1.291  0.4942 -0.2689 -0.1484
 7823SOL     OW26614   7.987   2.277   5.311 -0.3987 -0.5283  0.2795
 7823SOL    HW126615   7.904   2.243   5.345  0.4271 -1.3327  1.5636
 7823SOL    HW226616   8.014   2.342   5.375  0.0911 -0.4555  0.0007
 7824SOL     OW26617   7.548   0.651   7.303  0.0350  0.4050  0.3024
 7824SOL    HW126618   7.504   0.666   7.387 -3.1168 -1.6216 -0.8145
 7824SOL    HW226619   7.480   0.664   7.238  1.8096 -0.2699 -1.7968
 7825SOL     OW26620   4.468   0.658   1.142  0.0373 -0.1975 -0.3396
 7825SOL    HW126621   4.525   0.734   1.132  0.5656 -0.1916  2.2128
 7825SOL    HW226622   4.464   0.619   1.054  0.0595  2.5021 -1.6358
 7826SOL     OW26623   1.054   6.118   6.264 -0.5019 -0.5827  0.0209
 7826SOL    HW126624   0.977   6.062   6.268  0.1857 -1.6331 -0.9089
 7826SOL    HW226625   1.127   6.058   6.249  0.1994  0.5957 -1.5075
 7827SOL     OW26626   1.644   3.754   7.284  0.3857  0.1017  0.0710
 7827SOL    HW126627   1.661   3.674   7.234 -2.2196 -0.8255  0.5203
 7827SOL    HW226628   1.723   3.766   7.338  1.1092 -1.7826 -0.4948
 7828SOL     OW26629   0.618   7.046   2.392 -0.5695 -0.6950  0.3738
 7828SOL    HW126630   0.637   6.962   2.434  0.4183  0.1433  1.7028
 7828SOL    HW226631   0.683   7.054   2.323  0.2759 -0.3994  1.1875
 7829SOL     OW26632   5.583   1.683   4.887 -0.2378 -0.0362  0.5725
 7829SOL    HW126633   5.601   1.607   4.941 -0.1229  0.3783  1.1272
 7829SOL    HW226634   5.554   1.751   4.948 -0.3410  0.3671  0.0913
 7830SOL     OW26635   7.819   1.162   7.521 -0.0918 -0.4562 -0.0169
 7830SOL    HW126636   7.732   1.203   7.516 -0.4163 -0.8842  1.5413
 7830SOL    HW226637   7.832   1.147   7.614  1.6235 -0.5173 -0.2448
 7831SOL     OW26638   5.953   6.706   3.250 -0.4035 -0.1595  0.2537
 7831SOL    HW126639   6.026   6.727   3.308 -0.4028  0.1463  0.1474
 7831SOL    HW226640   5.914   6.791   3.230  1.2314  0.0978 -2.3276
 7832SOL     OW26641   1.734   3.086   0.411  0.3286  0.1056 -0.3366
 7832SOL    HW126642   1.730   3.061   0.503  2.8040  1.7442  0.3237
 7832SOL    HW226643   1.644   3.112   0.389 -0.7055 -2.1010  1.0088
 7833SOL     OW26644   1.247   6.092   3.179  0.1032 -0.1200  0.0561
 7833SOL    HW126645   1.259   6.034   3.104  1.8018 -0.5531  0.6277
 7833SOL    HW226646   1.161   6.132   3.165  0.2033 -0.5081 -1.8886
 7834SOL     OW26647   7.789   0.445   5.820  0.6256  0.0929  0.7713
 7834SOL    HW126648   7.697   0.428   5.800  0.4557 -0.8008  2.1503
 7834SOL    HW226649   7.810   0.524   5.771 -0.2435 -0.9163 -1.3354
 7835SOL     OW26650   0.352   2.743   0.562 -0.3215  0.6992 -0.0691
 7835SOL    HW126651   0.271   2.704   0.594 -0.0617  1.6452  1.8841
 7835SOL    HW226652   0.416   2.723   0.631  0.9180  0.6548 -1.2000
 7836SOL     OW26653   6.099   5.186   7.501 -0.8119  0.2213 -0.4277
 7836SOL    HW126654   6.035   5.233   7.555 -0.1376 -0.9011  1.4464
 7836SOL    HW226655   6.112   5.243   7.425 -3.2748  0.9275 -0.4179
 7837SOL     OW26656   5.193   6.628   6.792 -0.2958 -0.3552 -0.2627
 7837SOL    HW126657   5.160   6.675   6.868  3.3132  0.6825  0.8267
 7837SOL    HW226658   5.127   6.643   6.724 -1.9975  1.4978  1.6668
 7838SOL     OW26659   2.872   6.236   3.359  0.4380 -0.7174  0.1514
 7838SOL    HW126660   2.807   6.305   3.352  2.1951  0.9405 -0.8318
 7838SOL    HW226661   2.865   6.205   3.449 -2.5341 -1.5631 -0.2564
 7839SOL     OW26662   3.246   1.762   5.242  0.1848  0.0063  0.2564
 7839SOL    HW126663   3.175   1.707   5.210 -0.0070 -0.0001  0.6751
 7839SOL    HW226664   3.248   1.836   5.182 -1.2457  0.8121  1.1427
 7840SOL     OW26665   2.845   4.328   2.300 -0.1059 -0.4640 -0.3188
 7840SOL    HW126666   2.903   4.256   2.277  0.1338 -0.4259  0.1443
 7840SOL    HW226667   2.757   4.290   2.300 -0.0189 -0.6630 -0.4539
 7841SOL     OW26668   2.294   5.583   0.117 -0.6525  0.1284 -0.6401
 7841SOL    HW126669   2.283   5.653   0.181 -0.9660 -0.3565 -0.1592
 7841SOL    HW226670   2.205   5.552   0.099 -0.4763 -0.5542 -0.3813
 7842SOL     OW26671   6.342   2.763   5.768 -0.0855  0.3428 -0.1984
 7842SOL    HW126672   6.418   2.706   5.781  1.1250  2.2018  1.3919
 7842SOL    HW226673   6.274   2.725   5.825 -0.0768 -0.7892 -0.9083
 7843SOL     OW26674   7.466   7.269   4.664  0.1321 -0.0108 -0.2453
 7843SOL    HW126675   7.423   7.348   4.631  2.1627  0.7906 -1.1312
 7843SOL    HW226676   7.557   7.295   4.677  0.6503 -1.9680  0.3704
 7844SOL     OW26677   1.800   0.735   7.933 -0.1163  0.4537  0.4308
 7844SOL    HW126678   1.869   0.715   7.870  0.5124  1.4581  0.7778
 7844SOL    HW226679   1.844   0.786   8.001 -1.2550  1.3613  0.5072
 7845SOL     OW26680   2.783   5.885   7.571  0.5240 -0.7388  0.5002
 7845SOL    HW126681   2.776   5.976   7.599 -0.2508 -0.3995 -0.6900
 7845SOL    HW226682   2.747   5.885   7.482  1.1594 -2.0799  0.2194
 7846SOL     OW26683   0.581   3.508   3.918  0.0553  0.6827 -0.0451
 7846SOL    HW126684   0.603   3.585   3.970 -0.2691  2.1958 -2.0530
 7846SOL    HW226685   0.510   3.537   3.861 -0.1731 -1.1540 -0.7533
 7847SOL     OW26686   5.628   7.251   2.613 -0.1070 -0.3747 -0.0154
 7847SOL    HW126687   5.538   7.255   2.643 -0.4220 -1.1948 -0.7892
 7847SOL    HW226688   5.621   7.226   2.520  0.8910  0.0191 -0.2108
 7848SOL     OW26689   3.991   5.505   0.036  0.2553  0.8920 -0.6061
 7848SOL    HW126690   4.045   5.575  -0.002 -0.4653  1.5419 -0.4700
 7848SOL    HW226691   3.944   5.468  -0.039  0.4468  0.7334 -0.6455
 7849SOL     OW26692   0.833   7.362   1.561  0.1862  0.0066 -0.3132
 7849SOL    HW126693   0.809   7.387   1.650  1.8364  2.5568 -0.4769
 7849SOL    HW226694   0.772   7.410   1.505 -0.8486 -1.5869 -0.6187
 7850SOL     OW26695   5.485   7.104   8.008 -0.2206 -0.3068 -0.3720
 7850SOL    HW126696   5.541   7.166   7.961 -0.1644  0.3496  0.5260
 7850SOL    HW226697   5.422   7.074   7.943  0.1820  0.1759 -0.9939
 7851SOL     OW26698   7.511   1.709   6.522  0.7317  0.5627  0.5543
 7851SOL    HW126699   7.561   1.693   6.602  0.4545  1.1085  0.8455
 7851SOL    HW226700   7.444   1.771   6.549  0.1609  0.1599  0.0689
 7852SOL     OW26701   7.742   3.821   5.461  0.2722 -0.1844 -0.2493
 7852SOL    HW126702   7.793   3.741   5.452 -0.4191 -0.7349  0.5848
 7852SOL    HW226703   7.766   3.854   5.548  0.9709  0.8237 -0.8044
 7853SOL     OW26704   7.489   4.771   6.247 -0.2882  0.3019 -0.0931
 7853SOL    HW126705   7.584   4.777   6.251 -0.2086 -1.1599  1.2974
 7853SOL    HW226706   7.460   4.794   6.336 -1.1525 -0.2128 -0.2302
 7854SOL     OW26707   2.878   5.667   1.901 -0.2467  0.4103 -0.2983
 7854SOL    HW126708   2.846   5.602   1.963 -1.7387 -0.2959 -1.7297
 7854SOL    HW226709   2.805   5.679   1.839  0.5810  2.2623 -0.9901
 7855SOL     OW26710   0.597   7.554   7.410  0.1035  0.0785  0.3782
 7855SOL    HW126711   0.684   7.539   7.448  1.2256 -1.0785 -2.3931
 7855SOL    HW226712   0.537   7.545   7.484  2.1492 -1.5121  1.9674
 7856SOL     OW26713   3.842   3.271   5.243  0.5019 -0.6656 -0.1082
 7856SOL    HW126714   3.932   3.304   5.233 -0.1294  1.3299  0.3401
 7856SOL    HW226715   3.849   3.203   5.311  1.6426 -0.3668  0.0965
 7857SOL     OW26716   5.947   3.035   2.372  0.7703  0.3626  0.3549
 7857SOL    HW126717   5.979   3.123   2.388  1.9127 -0.1101  0.7928
 7857SOL    HW226718   6.026   2.981   2.366  0.1806 -0.3446 -1.7372
 7858SOL     OW26719   5.934   2.720   5.707  0.5111 -0.3923  0.0226
 7858SOL    HW126720   5.954   2.627   5.706 -0.1863 -0.6135  1.9176
 7858SOL    HW226721   5.963   2.750   5.793 -0.3410  0.8724 -0.0923
 7859SOL     OW26722   6.683   6.465   8.050  0.3864  0.1878 -0.7999
 7859SOL    HW126723   6.667   6.533   8.115  1.8224 -2.3175  2.4082
 7859SOL    HW226724   6.769   6.486   8.013  0.7589  0.1961  0.0653
 7860SOL     OW26725   1.793   4.386   8.013 -0.1117  0.1475  0.3638
 7860SOL    HW126726   1.728   4.317   7.999 -0.5275 -0.0608  2.9219
 7860SOL    HW226727   1.741   4.466   8.023  0.2678  0.5653 -0.8256
 7861SOL     OW26728   5.983   2.244   5.170  0.2687 -0.3645 -1.1590
 7861SOL    HW126729   5.896   2.263   5.205  1.0371  1.2841  0.0063
 7861SOL    HW226730   5.993   2.303   5.096  1.2043  1.1091  0.0902
 7862SOL     OW26731   7.093   6.503   6.663 -0.3405  0.0878 -0.2300
 7862SOL    HW126732   7.179   6.463   6.667  0.0912  0.9833 -0.3056
 7862SOL    HW226733   7.064   6.508   6.754  0.8299  2.1519  0.0824
 7863SOL     OW26734   2.212   0.037   5.900 -0.5785 -1.0061 -0.8046
 7863SOL    HW126735   2.136   0.061   5.952 -0.0304 -1.8990  0.4532
 7863SOL    HW226736   2.236  -0.050   5.931  0.7535 -0.8838 -1.4107
 7864SOL     OW26737   6.064   6.056   4.110  0.1562  0.4192  0.1052
 7864SOL    HW126738   6.051   5.970   4.071  1.5510  0.2044  0.0729
 7864SOL    HW226739   5.976   6.096   4.111 -0.2331 -0.3466 -1.3734
 7865SOL     OW26740   3.559   2.078   3.638 -0.2001  0.0267  0.4254
 7865SOL    HW126741   3.540   2.005   3.697  0.6920 -0.5556  0.0259
 7865SOL    HW226742   3.645   2.110   3.666  0.2446 -0.2697 -0.5434
 7866SOL     OW26743   0.187   3.129   0.060  1.0168  0.0700 -0.2551
 7866SOL    HW126744   0.231   3.058   0.013 -1.2697 -0.6394 -1.4758
 7866SOL    HW226745   0.172   3.197  -0.007 -0.7237 -0.2110 -0.1947
 7867SOL     OW26746   0.334   6.640   1.893  0.5160 -0.2305 -0.3223
 7867SOL    HW126747   0.293   6.598   1.968 -1.7997  0.4028 -1.1667
 7867SOL    HW226748   0.315   6.581   1.820 -2.9702  2.1511 -1.5731
 7868SOL     OW26749   5.927   3.203   3.486 -0.4590 -0.0454 -0.3605
 7868SOL    HW126750   6.011   3.182   3.527 -0.4398  2.0136  0.8378
 7868SOL    HW226751   5.951   3.262   3.414 -0.9036  1.6142  0.7970
 7869SOL     OW26752   2.793   4.653   6.365 -0.1752 -0.6471  0.1838
 7869SOL    HW126753   2.759   4.740   6.346 -1.8980 -1.1077  0.9371
 7869SOL    HW226754   2.744   4.624   6.442  2.2221 -1.2539  1.5804
 7870SOL     OW26755   6.072   1.617   1.254 -0.0880 -0.0717 -0.0757
 7870SOL    HW126756   6.147   1.622   1.194 -0.1142  1.5912 -0.0279
 7870SOL    HW226757   6.100   1.555   1.321  1.7462  1.3137  0.5439
 7871SOL     OW26758   6.915   1.799   7.080 -0.2173  0.1018  0.6040
 7871SOL    HW126759   6.887   1.860   7.012  1.4485 -0.9972 -1.1746
 7871SOL    HW226760   6.842   1.737   7.088 -0.3943  0.1706 -0.3240
 7872SOL     OW26761   2.622   0.203   2.178  0.1024  0.0280  0.5389
 7872SOL    HW126762   2.628   0.298   2.176  1.9724 -0.0580  0.4886
 7872SOL    HW226763   2.650   0.179   2.266  0.6889 -0.5277  0.2062
 7873SOL     OW26764   6.525   5.383   2.958 -0.2101  0.4432 -0.4938
 7873SOL    HW126765   6.552   5.448   2.893  1.3419  1.6363  1.2558
 7873SOL    HW226766   6.530   5.300   2.911 -0.3852  1.3735 -2.2430
 7874SOL     OW26767   5.440   5.458   4.583  0.2109  0.3244  0.1223
 7874SOL    HW126768   5.529   5.442   4.551 -0.4686 -4.0517 -0.2547
 7874SOL    HW226769   5.448   5.458   4.678  0.7840  1.6258  0.0865
 7875SOL     OW26770   6.963   3.547   1.305 -0.3952 -0.1038 -0.3090
 7875SOL    HW126771   6.878   3.517   1.273 -0.4314  1.2391 -1.5517
 7875SOL    HW226772   6.981   3.626   1.255  0.6155  0.8280  1.4177
 7876SOL     OW26773   4.584   4.186   7.114  0.2592  0.0016  0.1669
 7876SOL    HW126774   4.525   4.225   7.049  1.3878  1.1597 -0.1945
 7876SOL    HW226775   4.649   4.138   7.063  1.3031  1.1244  0.3897
 7877SOL     OW26776   2.559   6.856   3.991 -0.1931 -0.3334 -0.4673
 7877SOL    HW126777   2.509   6.824   3.916 -2.0074 -0.7534  0.8546
 7877SOL    HW226778   2.576   6.948   3.972 -0.1717 -0.5694 -1.6197
 7878SOL     OW26779   5.536   1.376   2.860 -0.0564 -0.0913  0.2232
 7878SOL    HW126780   5.471   1.358   2.928  0.0184  2.7950  1.1618
 7878SOL    HW226781   5.485   1.410   2.787  0.2115  0.4121  0.2670
 7879SOL     OW26782   3.081   3.851   0.410 -0.2046  0.1246 -0.9850
 7879SOL    HW126783   3.054   3.939   0.383 -1.9462 -0.3964 -1.1209
 7879SOL    HW226784   3.079   3.853   0.505 -1.8176 -0.1467 -0.9721
 7880SOL     OW26785   6.386   1.326   0.868  0.1908  0.0353  0.5176
 7880SOL    HW126786   6.414   1.288   0.952 -0.7114 -0.2888  0.6821
 7880SOL    HW226787   6.436   1.278   0.802  2.9615  2.0614  0.9253
 7881SOL     OW26788   3.641   6.381   3.598 -0.2706 -0.0786  0.3925
 7881SOL    HW126789   3.667   6.458   3.548 -0.1392 -0.6204 -0.3902
 7881SOL    HW226790   3.723   6.339   3.622 -0.3738 -0.8361 -0.5618
 7882SOL     OW26791   6.280   5.398   5.661 -0.5758 -0.0718  0.0238
 7882SOL    HW126792   6.188   5.373   5.672 -0.4797 -0.0758  0.9194
 7882SOL    HW226793   6.297   5.387   5.568 -1.2983 -0.7190 -0.0411
 7883SOL     OW26794   7.781   0.697   7.179 -0.8240  0.3622 -0.7288
 7883SOL    HW126795   7.830   0.744   7.247  0.2008 -2.7103  0.8487
 7883SOL    HW226796   7.694   0.688   7.216 -1.0533  1.0442 -1.0818
 7884SOL     OW26797   1.756   4.023   4.753 -0.0166 -0.3227 -0.0988
 7884SOL    HW126798   1.666   3.999   4.733 -1.0264  0.7241  2.7353
 7884SOL    HW226799   1.779   4.086   4.685 -2.1608  0.9070  0.2225
 7885SOL     OW26800   8.076   3.463   3.740 -0.0836 -0.0447  0.9219
 7885SOL    HW126801   7.996   3.514   3.722  0.8011  1.1630  0.2836
 7885SOL    HW226802   8.095   3.417   3.658  0.6060  0.7246  0.6401
 7886SOL     OW26803   5.695   1.561   6.491 -0.3182  0.2196 -0.2356
 7886SOL    HW126804   5.634   1.614   6.440  2.0440  1.8211 -1.6049
 7886SOL    HW226805   5.697   1.602   6.577 -1.8345 -0.4513  0.1491
 7887SOL     OW26806   6.665   1.447   1.390  0.0601  0.1818  0.0482
 7887SOL    HW126807   6.656   1.418   1.299  3.3031 -1.8569  0.2351
 7887SOL    HW226808   6.633   1.374   1.442 -1.1225  1.0642  0.6180
 7888SOL     OW26809   3.410   2.482   7.205 -0.0628 -0.4663 -0.2910
 7888SOL    HW126810   3.378   2.394   7.222  1.9472 -1.2665 -0.4470
 7888SOL    HW226811   3.417   2.522   7.291 -2.9929  0.3820 -0.3167
 7889SOL     OW26812   7.599   3.717   6.718 -0.0341 -0.1977 -0.5235
 7889SOL    HW126813   7.694   3.717   6.728 -0.0507 -0.9241 -0.2725
 7889SOL    HW226814   7.573   3.627   6.738 -0.6107 -0.4341 -2.1682
 7890SOL     OW26815   2.672   6.375   6.780  0.0119 -0.1077  0.0108
 7890SOL    HW126816   2.635   6.458   6.748  0.7385  0.1701 -0.1527
 7890SOL    HW226817   2.735   6.402   6.847  0.0569 -0.5447  0.1415
 7891SOL     OW26818   0.065   0.746   1.344  0.3449 -0.0942  0.5340
 7891SOL    HW126819  -0.029   0.755   1.362  0.4758 -0.5439  1.5015
 7891SOL    HW226820   0.097   0.690   1.414  1.6838  1.6068  1.3616
 7892SOL     OW26821   6.794   1.675   5.904 -0.6652 -0.3604 -0.3032
 7892SOL    HW126822   6.803   1.736   5.831 -1.3722  0.3268  0.1673
 7892SOL    HW226823   6.882   1.642   5.918 -0.6205 -0.9873 -1.8672
 7893SOL     OW26824   1.073   8.021   5.773 -0.5615 -0.2682  0.2749
 7893SOL    HW126825   0.978   8.031   5.777 -0.5344 -0.2803  2.2387
 7893SOL    HW226826   1.087   7.933   5.738 -1.2357 -0.0417 -0.5903
 7894SOL     OW26827   2.029   7.038   1.451 -0.4991 -0.2439  0.1748
 7894SOL    HW126828   2.088   6.991   1.391 -0.5359 -0.0292 -0.0284
 7894SOL    HW226829   2.057   7.129   1.446  1.4090 -0.5665  2.6264
 7895SOL     OW26830   7.523   2.558   0.635  0.0860  0.5883  0.2920
 7895SOL    HW126831   7.615   2.536   0.632  0.0632  0.3921  0.8943
 7895SOL    HW226832   7.503   2.593   0.548  1.0534  1.9269  0.5767
 7896SOL     OW26833   4.294   2.404   5.627  0.2315 -0.4451  0.5455
 7896SOL    HW126834   4.339   2.466   5.569 -0.6826  1.4037  1.7361
 7896SOL    HW226835   4.235   2.355   5.569 -0.4223  1.1312 -0.1736
 7897SOL     OW26836   3.455   2.244   5.573  0.0228 -0.1379  0.6081
 7897SOL    HW126837   3.372   2.265   5.529 -0.3970 -0.3057  1.3098
 7897SOL    HW226838   3.482   2.161   5.533 -0.2106 -0.1447  0.4618
 7898SOL     OW26839   1.870   4.729   1.776 -0.3304 -0.5114 -0.3945
 7898SOL    HW126840   1.915   4.748   1.694  1.1025 -0.4551  0.3805
 7898SOL    HW226841   1.936   4.741   1.843 -1.9266  1.2315  0.9598
 7899SOL     OW26842   4.234   7.123   6.928 -0.3322  0.3065 -0.1555
 7899SOL    HW126843   4.144   7.130   6.959  0.3346  0.9985  1.8611
 7899SOL    HW226844   4.284   7.099   7.006  1.5606  2.5463 -0.5392
 7900SOL     OW26845   1.245   5.200   1.533  0.0865  0.0750  0.0804
 7900SOL    HW126846   1.274   5.108   1.535  0.1292  0.0847 -0.0452
 7900SOL    HW226847   1.296   5.239   1.462 -1.7257 -0.4299 -1.6037
 7901SOL     OW26848   6.750   1.530   2.341  0.4890 -0.0633  0.0835
 7901SOL    HW126849   6.679   1.479   2.303 -0.2887 -1.7915  3.4674
 7901SOL    HW226850   6.830   1.494   2.302 -0.3068 -0.3280 -1.3618
 7902SOL     OW26851   6.160   4.381   0.835 -0.1763  0.4503  0.0369
 7902SOL    HW126852   6.145   4.366   0.742  0.4016 -1.0765  0.1599
 7902SOL    HW226853   6.073   4.390   0.872 -0.5038 -0.7964 -0.3824
 7903SOL     OW26854   7.012   6.252   6.425 -0.4690  0.1377  0.4308
 7903SOL    HW126855   7.057   6.332   6.401  0.7628 -0.0914  1.8529
 7903SOL    HW226856   6.951   6.278   6.494 -1.1340  0.0972 -0.1299
 7904SOL     OW26857   7.758   5.530   4.749 -0.5903  0.3499  0.0583
 7904SOL    HW126858   7.809   5.555   4.826 -0.5247  1.8837 -0.4531
 7904SOL    HW226859   7.813   5.465   4.704  1.1682  2.2508 -0.6985
 7905SOL     OW26860   2.819   5.906   0.270 -0.1414  0.1830  0.0274
 7905SOL    HW126861   2.911   5.929   0.287 -0.2917  1.9443 -1.2369
 7905SOL    HW226862   2.819   5.875   0.179 -0.4878 -1.9491  0.7115
 7906SOL     OW26863   8.051   7.947   2.408  0.1995 -0.3382  0.0958
 7906SOL    HW126864   8.136   7.989   2.401 -0.2598  0.3509 -1.9417
 7906SOL    HW226865   7.997   8.008   2.458  0.6134 -0.3159  0.5179
 7907SOL     OW26866   3.481   0.160   7.217  0.6584  0.1581  0.2360
 7907SOL    HW126867   3.524   0.212   7.150 -0.0987  0.3319 -0.1245
 7907SOL    HW226868   3.552   0.110   7.258  1.3233  1.0893  0.2490
 7908SOL     OW26869   4.350   1.821   3.159  0.3186 -0.4336  0.0849
 7908SOL    HW126870   4.404   1.748   3.130  1.6749  0.1866  0.9612
 7908SOL    HW226871   4.412   1.889   3.184 -0.7127 -0.5228  3.4052
 7909SOL     OW26872   4.361   3.193   5.572  0.1423 -0.5812  0.0446
 7909SOL    HW126873   4.406   3.113   5.599  0.4345 -0.7077 -0.7957
 7909SOL    HW226874   4.356   3.246   5.652 -1.3914 -2.0380  0.9734
 7910SOL     OW26875   4.933   3.001   0.684 -0.2747  0.3740 -0.2558
 7910SOL    HW126876   4.910   3.041   0.768 -1.1951  0.7667 -0.6781
 7910SOL    HW226877   4.956   3.076   0.628 -1.9754  0.3379 -1.0443
 7911SOL     OW26878   4.483   4.290   4.082  0.6751  0.0405  0.0374
 7911SOL    HW126879   4.560   4.313   4.030  0.1354 -0.9857 -1.2705
 7911SOL    HW226880   4.514   4.221   4.141  1.4253  1.5868  1.5325
 7912SOL     OW26881   7.137   6.148   2.896 -0.4893 -0.9044  0.2897
 7912SOL    HW126882   7.128   6.096   2.816 -0.5119  0.0608 -0.3490
 7912SOL    HW226883   7.198   6.218   2.872 -1.2787 -0.0229  0.8102
 7913SOL     OW26884   6.860   0.685   5.677  0.6503  0.5062 -0.0642
 7913SOL    HW126885   6.803   0.733   5.617 -1.7065 -1.2649  0.5983
 7913SOL    HW226886   6.902   0.619   5.623 -0.1184  0.0409 -0.1127
 7914SOL     OW26887   3.289   3.064   2.725 -0.2073  0.5809 -0.0240
 7914SOL    HW126888   3.209   3.057   2.673  0.4389  0.6353 -1.0562
 7914SOL    HW226889   3.321   3.152   2.708  0.9930 -0.0126 -1.0448
 7915SOL     OW26890   5.843   4.347   2.505 -0.2263  0.3711 -0.2692
 7915SOL    HW126891   5.808   4.281   2.446 -1.5474  1.9131 -1.2843
 7915SOL    HW226892   5.778   4.417   2.505  1.4747  2.0523  0.0948
 7916SOL     OW26893   7.392   5.099   2.916 -0.5565  0.3238 -0.0481
 7916SOL    HW126894   7.470   5.062   2.875 -0.3307  0.1425  0.5379
 7916SOL    HW226895   7.350   5.150   2.846  0.4271  0.9526 -0.1830
 7917SOL     OW26896   4.731   2.140   0.507 -0.2464  0.7088  0.0916
 7917SOL    HW126897   4.755   2.048   0.512  1.3559  1.1167  0.5642
 7917SOL    HW226898   4.740   2.163   0.415 -0.4237  0.4508  0.0106
 7918SOL     OW26899   1.353   2.221   0.615  0.5566 -0.2094  0.2495
 7918SOL    HW126900   1.441   2.245   0.586  0.2538 -0.8532 -1.2953
 7918SOL    HW226901   1.317   2.302   0.650  1.1549  0.5102 -0.7286
 7919SOL     OW26902   3.511   2.365   4.610 -0.2221  0.1627  0.2526
 7919SOL    HW126903   3.542   2.369   4.520 -2.0251 -2.1689 -0.6008
 7919SOL    HW226904   3.416   2.373   4.603 -0.6207 -2.2495  1.6239
 7920SOL     OW26905   7.651   3.407   2.104  0.6290  0.1622  0.2313
 7920SOL    HW126906   7.698   3.326   2.128  1.1035  0.5204  0.5216
 7920SOL    HW226907   7.678   3.424   2.013  1.0218  0.3333  0.3767
 7921SOL     OW26908   1.877   0.245   6.434  0.0095  0.2015 -0.6750
 7921SOL    HW126909   1.947   0.180   6.442 -0.7872 -0.5469  0.5305
 7921SOL    HW226910   1.906   0.318   6.487  0.0278  0.0231 -0.4370
 7922SOL     OW26911   4.874   2.174   6.038  0.4125  0.5240  0.3735
 7922SOL    HW126912   4.819   2.123   5.978 -2.9383  2.6678  1.3436
 7922SOL    HW226913   4.942   2.112   6.066 -2.5051 -2.9800  0.4277
 7923SOL     OW26914   1.652   1.451   8.015 -0.2839  0.8185 -0.4711
 7923SOL    HW126915   1.620   1.362   8.023 -0.7511  1.0311  0.1520
 7923SOL    HW226916   1.610   1.485   7.936 -0.5548  0.6668 -0.3928
 7924SOL     OW26917   0.292   0.503   0.271 -0.5105 -0.1764 -0.2276
 7924SOL    HW126918   0.261   0.525   0.359  0.9902 -0.6729  0.4766
 7924SOL    HW226919   0.231   0.437   0.239 -0.7740 -0.3759  0.6667
 7925SOL     OW26920   4.991   0.141   4.171  0.7963 -0.2750  0.4257
 7925SOL    HW126921   4.962   0.136   4.262 -2.0812 -0.2566 -0.3842
 7925SOL    HW226922   5.062   0.077   4.165  1.6407  0.3430  2.8398
 7926SOL     OW26923   5.693   0.908   2.588  0.3039  0.0639  0.1261
 7926SOL    HW126924   5.618   0.967   2.583 -0.0105 -0.2671  0.8321
 7926SOL    HW226925   5.664   0.830   2.541 -0.1102 -0.3863  1.1114
 7927SOL     OW26926   4.615   0.505   1.771  1.0283 -0.5976  0.4541
 7927SOL    HW126927   4.537   0.483   1.821  1.6032 -0.0462  1.6561
 7927SOL    HW226928   4.605   0.460   1.688  1.5141 -4.2731  2.2018
 7928SOL     OW26929   0.511   2.150   2.718 -0.2471 -0.0791  0.5640
 7928SOL    HW126930   0.483   2.157   2.809 -2.1074 -1.7940  0.1880
 7928SOL    HW226931   0.480   2.064   2.690  1.1412  0.0004 -1.4282
 7929SOL     OW26932   1.896   0.178   3.973  0.5438  0.2776  0.1307
 7929SOL    HW126933   1.808   0.210   3.992  0.1858 -1.2526  1.1368
 7929SOL    HW226934   1.954   0.232   4.026  0.0743  0.2429  0.6787
 7930SOL     OW26935   6.843   7.266   7.767  0.3538  0.0574  0.2802
 7930SOL    HW126936   6.895   7.316   7.831  1.1560 -0.9001  0.4080
 7930SOL    HW226937   6.879   7.177   7.772 -1.8789 -0.8820  0.9929
 7931SOL     OW26938   3.193   4.283   0.785 -0.0669  0.0365 -0.0047
 7931SOL    HW126939   3.117   4.341   0.779 -1.4445 -1.4404  2.1139
 7931SOL    HW226940   3.176   4.213   0.722 -0.6217 -0.4541  0.6866
 7932SOL     OW26941   5.406   7.442   1.796  0.4971 -0.2773 -0.4456
 7932SOL    HW126942   5.489   7.464   1.755  0.0711  0.5236 -0.8900
 7932SOL    HW226943   5.425   7.364   1.849  1.3599 -0.5120 -1.0890
 7933SOL     OW26944   1.497   1.246   5.073  0.1955  0.3370 -0.1690
 7933SOL    HW126945   1.407   1.231   5.101  0.6575  2.2408  2.7306
 7933SOL    HW226946   1.540   1.161   5.082 -0.7231 -0.0371  0.8851
 7934SOL     OW26947   3.625   5.076   0.742  0.6528 -0.7328 -0.3870
 7934SOL    HW126948   3.719   5.057   0.732  0.9755  1.0993 -1.2117
 7934SOL    HW226949   3.622   5.162   0.784 -0.6563 -0.4310 -1.0487
 7935SOL     OW26950   5.339   3.478   5.199 -0.1358 -0.2659 -0.5710
 7935SOL    HW126951   5.248   3.483   5.228 -0.6159  0.0486 -2.0416
 7935SOL    HW226952   5.358   3.384   5.198 -0.2186 -0.3009  0.3574
 7936SOL     OW26953   5.031   2.466   3.817  0.2065  0.0835 -0.2350
 7936SOL    HW126954   5.024   2.458   3.912  0.2841 -1.0746 -0.3096
 7936SOL    HW226955   5.010   2.378   3.784 -0.9330  0.7344 -1.3478
 7937SOL     OW26956   5.137   7.850   7.958  0.0499  0.2367 -0.3669
 7937SOL    HW126957   5.122   7.777   8.018  0.4404 -1.3465 -2.0912
 7937SOL    HW226958   5.122   7.929   8.011 -0.1065 -1.0702  1.6373
 7938SOL     OW26959   7.851   7.919   6.174 -0.4748  0.0756  0.2095
 7938SOL    HW126960   7.786   7.918   6.104 -1.4810 -3.4023  0.9940
 7938SOL    HW226961   7.801   7.943   6.253 -0.2949 -0.2789  0.4345
 7939SOL     OW26962   6.666   5.504   4.806 -0.1485 -0.1211  0.8826
 7939SOL    HW126963   6.612   5.579   4.828  0.8932  0.5525  1.2426
 7939SOL    HW226964   6.747   5.517   4.856  0.9579 -0.2999 -0.7433
 7940SOL     OW26965   1.880   5.766   6.725 -0.1182 -0.2281 -0.6535
 7940SOL    HW126966   1.812   5.832   6.710  0.1549 -0.2600 -2.1717
 7940SOL    HW226967   1.895   5.727   6.639  0.4222 -1.6035  0.0321
 7941SOL     OW26968   7.570   1.536   3.262  0.1497 -0.1572  0.3704
 7941SOL    HW126969   7.635   1.493   3.206 -0.1139 -0.3622  0.2206
 7941SOL    HW226970   7.602   1.522   3.351  0.4997  0.0530  0.2802
 7942SOL     OW26971   4.923   7.652   6.119 -0.7566 -0.1928  0.1286
 7942SOL    HW126972   4.997   7.646   6.059  0.0105 -0.9015  1.1131
 7942SOL    HW226973   4.951   7.713   6.187 -0.4194 -1.6871  1.3728
 7943SOL     OW26974   3.573   1.955   4.503  0.0758 -0.7212  0.0221
 7943SOL    HW126975   3.663   1.955   4.471 -0.1595  0.3008 -0.6957
 7943SOL    HW226976   3.519   1.943   4.424 -0.4058 -3.2350  0.6347
 7944SOL     OW26977   3.801   6.230   2.462 -0.1341  0.0794 -0.7426
 7944SOL    HW126978   3.710   6.259   2.452  0.1672  0.5573 -2.3360
 7944SOL    HW226979   3.852   6.311   2.466  0.1745 -0.1706  0.9536
 7945SOL     OW26980   2.828   5.526   5.535  0.1051  0.4040  0.0419
 7945SOL    HW126981   2.847   5.440   5.498 -0.1866  0.0076  0.7991
 7945SOL    HW226982   2.883   5.586   5.484  0.1641 -0.1954 -0.6227
 7946SOL     OW26983   0.543   7.061   0.206 -0.2911 -0.1347  0.3002
 7946SOL    HW126984   0.463   7.014   0.181 -0.4734 -0.3587  1.2596
 7946SOL    HW226985   0.578   7.010   0.279  0.2376  0.4867  0.4831
 7947SOL     OW26986   8.076   0.588   7.973 -0.0025 -0.0565  0.1352
 7947SOL    HW126987   8.149   0.649   7.984 -1.0496  1.2029  0.3251
 7947SOL    HW226988   8.107   0.524   7.910  1.7385 -0.3145  1.1927
 7948SOL     OW26989   7.872   7.924   1.599 -0.2999  0.3007  0.0192
 7948SOL    HW126990   7.939   7.984   1.566 -1.2383  1.5068  0.2202
 7948SOL    HW226991   7.789   7.968   1.578 -0.9683  0.0284  1.9182
 7949SOL     OW26992   1.608   7.372   0.368 -0.6175  0.0066 -0.1316
 7949SOL    HW126993   1.593   7.325   0.286  0.4612 -0.4461 -0.0854
 7949SOL    HW226994   1.625   7.462   0.341  0.4146 -0.2753 -0.4863
 7950SOL     OW26995   1.993   2.631   1.886  0.3565 -0.7088  0.0052
 7950SOL    HW126996   2.024   2.563   1.946  1.1579  0.4099  0.8949
 7950SOL    HW226997   2.073   2.674   1.856 -0.2018  1.0462  0.9139
 7951SOL     OW26998   3.389   3.150   6.415 -0.0763  0.1388  0.4427
 7951SOL    HW126999   3.382   3.055   6.404  2.7483  0.0545 -1.7204
 7951SOL    HW227000   3.381   3.164   6.510  1.3983 -2.5178  1.0541
 7952SOL     OW27001   2.253   5.565   6.673  0.0579  0.0382  0.2142
 7952SOL    HW127002   2.314   5.516   6.728  0.6020 -0.9765 -1.2297
 7952SOL    HW227003   2.301   5.581   6.591 -0.8282  1.2244 -0.1115
 7953SOL     OW27004   5.287   3.976   7.224  0.7847  0.3015  0.1267
 7953SOL    HW127005   5.270   3.896   7.175  0.3145 -0.4927  1.5337
 7953SOL    HW227006   5.382   3.978   7.234  0.7498 -0.4278  0.6379
 7954SOL     OW27007   5.558   7.952   4.377  0.0790  0.3120 -0.0906
 7954SOL    HW127008   5.524   7.985   4.460  0.1313 -0.4345  0.2296
 7954SOL    HW227009   5.599   8.028   4.336  2.1567  0.1928  1.6169
 7955SOL     OW27010   2.151   5.679   1.299 -0.7401 -0.7589  0.7659
 7955SOL    HW127011   2.073   5.631   1.324 -2.7157  1.7438 -0.1397
 7955SOL    HW227012   2.144   5.688   1.204  0.4938 -0.2051  0.7054
 7956SOL     OW27013   7.015   0.045   0.368  0.2771  0.3144 -0.2555
 7956SOL    HW127014   7.008   0.074   0.277  1.4594 -0.4764 -0.6260
 7956SOL    HW227015   7.039   0.124   0.417  1.4272  0.4020 -0.9215
 7957SOL     OW27016   3.526   3.266   4.235 -0.1670  0.2508 -0.1861
 7957SOL    HW127017   3.607   3.249   4.187 -0.1872  1.1061 -0.5406
 7957SOL    HW227018   3.539   3.224   4.320  0.2037 -0.5577 -0.6299
 7958SOL     OW27019   1.040   3.873   2.039 -0.5912 -0.5005 -0.7529
 7958SOL    HW127020   0.996   3.949   2.000  2.3970  1.9236  0.1397
 7958SOL    HW227021   0.974   3.832   2.094 -2.1637  2.0416 -0.5732
 7959SOL     OW27022   4.416   5.497   3.653  0.0047  0.3137  0.0541
 7959SOL    HW127023   4.348   5.529   3.712 -0.2739  1.6867 -0.9439
 7959SOL    HW227024   4.480   5.569   3.651  0.8637 -0.4389  0.0088
 7960SOL     OW27025   6.403   2.123   6.474 -0.4962  0.1893  0.0794
 7960SOL    HW127026   6.370   2.058   6.537 -0.2297 -1.5136 -1.4457
 7960SOL    HW227027   6.393   2.207   6.519 -2.6556 -0.6930  1.4252
 7961SOL     OW27028   4.952   5.567   2.910  0.4104  0.2359  0.5577
 7961SOL    HW127029   4.901   5.636   2.868  0.1288  0.7714  1.7155
 7961SOL    HW227030   4.887   5.506   2.944  0.5093  0.8616  1.9414
 7962SOL     OW27031   4.067   1.176   4.389  0.0764  0.0978  0.2821
 7962SOL    HW127032   3.978   1.179   4.422  0.5179 -1.2963  1.6845
 7962SOL    HW227033   4.057   1.163   4.294 -1.2604 -2.3793  0.6810
 7963SOL     OW27034   3.239   7.948   5.919  0.3616 -0.0197  0.0763
 7963SOL    HW127035   3.211   8.022   5.865  0.5761 -0.2471 -0.3536
 7963SOL    HW227036   3.185   7.875   5.888 -0.0384  0.0179  0.6826
 7964SOL     OW27037   1.974   4.011   7.929  0.2649 -0.2690 -0.6730
 7964SOL    HW127038   1.880   4.001   7.944  0.3376  2.0231  2.3255
 7964SOL    HW227039   2.013   3.935   7.972 -0.1331  0.8497  1.8516
 7965SOL     OW27040   1.323   4.948   0.106  0.1777 -0.3218 -0.1470
 7965SOL    HW127041   1.316   4.889   0.181 -1.0413  0.5970  0.4833
 7965SOL    HW227042   1.338   5.034   0.144  0.1043  0.0697 -0.9869
 7966SOL     OW27043   1.934   7.399   2.879  0.1357 -0.0603 -0.2845
 7966SOL    HW127044   1.882   7.388   2.800  0.9108  1.3809 -1.0285
 7966SOL    HW227045   1.982   7.316   2.888  0.4189 -0.0570 -1.6058
 7967SOL     OW27046   6.841   5.483   3.563  0.0517  0.0233  0.3946
 7967SOL    HW127047   6.868   5.437   3.483 -1.0420 -1.1514  0.6688
 7967SOL    HW227048   6.746   5.474   3.565 -0.5666  4.1322 -0.6211
 7968SOL     OW27049   6.863   1.258   7.101  0.4122 -0.4446 -0.1509
 7968SOL    HW127050   6.812   1.178   7.104  2.4353 -1.8906 -1.5762
 7968SOL    HW227051   6.953   1.229   7.086  1.7661  1.9344  2.3978
 7969SOL     OW27052   2.562   2.687   3.484  0.1897  0.3606  0.1632
 7969SOL    HW127053   2.622   2.760   3.500  0.0102  0.5480 -0.0124
 7969SOL    HW227054   2.551   2.646   3.570  0.5838  0.3115  0.1925
 7970SOL     OW27055   0.318   2.614   1.286  0.0054 -0.2685 -0.2100
 7970SOL    HW127056   0.340   2.697   1.327  2.6022 -0.7048 -0.5065
 7970SOL    HW227057   0.299   2.637   1.195 -1.6560  0.2306  0.2400
 7971SOL     OW27058   5.752   2.044   3.377  0.0916  0.1062  0.4181
 7971SOL    HW127059   5.670   2.026   3.330 -0.7640  1.0901  1.4819
 7971SOL    HW227060   5.820   2.033   3.310 -0.7735 -1.7885 -0.2502
 7972SOL     OW27061   1.221   6.489   0.213  0.4812 -0.0957  0.0532
 7972SOL    HW127062   1.266   6.445   0.141  0.4558  0.3262 -0.2247
 7972SOL    HW227063   1.278   6.476   0.288  1.4360  1.0447 -0.4518
 7973SOL     OW27064   0.938   3.377   0.931 -0.4041 -0.3786  0.2452
 7973SOL    HW127065   0.959   3.345   1.019 -0.2981 -1.1135 -0.0402
 7973SOL    HW227066   0.872   3.316   0.898 -0.0267 -0.4506 -0.3990
 7974SOL     OW27067   6.421   7.399   6.903  0.6935 -0.4444 -0.2518
 7974SOL    HW127068   6.512   7.417   6.928  0.6178 -0.3907 -0.0218
 7974SOL    HW227069   6.384   7.351   6.976  0.4230 -0.1313 -0.1777
 7975SOL     OW27070   3.338   2.936   3.612  0.3680 -0.6462  0.7044
 7975SOL    HW127071   3.292   2.862   3.652  1.0158 -1.1629  0.5248
 7975SOL    HW227072   3.397   2.968   3.681  0.3457 -0.5293  0.6692
 7976SOL     OW27073   0.246   4.214   0.914 -0.1808 -0.6600 -0.3291
 7976SOL    HW127074   0.296   4.292   0.939 -0.3445 -0.3925 -0.8265
 7976SOL    HW227075   0.310   4.157   0.870 -0.5344  0.1837 -2.0233
 7977SOL     OW27076   4.204   5.984   3.321 -0.2669 -0.0327 -0.0854
 7977SOL    HW127077   4.136   5.998   3.387 -0.0055 -1.7234  0.5846
 7977SOL    HW227078   4.286   5.993   3.370 -0.0752 -2.4712  0.1457
 7978SOL     OW27079   5.071   0.404   0.253 -0.3555  0.6511  0.4112
 7978SOL    HW127080   5.085   0.494   0.284  1.3611 -0.3527  2.8523
 7978SOL    HW227081   5.149   0.357   0.280 -1.4192 -1.7216 -0.3681
 7979SOL     OW27082   3.862   6.615   2.322  0.1009  0.2069 -0.0303
 7979SOL    HW127083   3.853   6.559   2.245 -1.9890  0.6484 -0.1697
 7979SOL    HW227084   3.947   6.657   2.312  0.5767 -0.9679 -1.2418
 7980SOL     OW27085   6.689   1.162   0.426 -0.2756  0.0401  0.3137
 7980SOL    HW127086   6.696   1.143   0.332  2.3316  4.0928 -0.5777
 7980SOL    HW227087   6.652   1.251   0.430  1.4445  0.7734  2.9355
 7981SOL     OW27088   6.097   1.358   6.584  0.1612  0.3130  0.3091
 7981SOL    HW127089   6.100   1.453   6.581  0.9787  0.3158  0.7913
 7981SOL    HW227090   6.168   1.330   6.526 -0.4813 -0.0167 -0.3268
 7982SOL     OW27091   2.561   5.569   2.354  0.2248  0.0384 -0.6287
 7982SOL    HW127092   2.597   5.631   2.417 -0.1222  0.6652 -1.0377
 7982SOL    HW227093   2.546   5.621   2.275 -2.5449  0.0550 -0.1692
 7983SOL     OW27094   1.438   0.012   3.028  0.4987 -0.4878 -0.1224
 7983SOL    HW127095   1.479  -0.054   3.084  0.6992  0.3587  0.7552
 7983SOL    HW227096   1.451  -0.021   2.939  2.4625 -0.6013  0.1608
 7984SOL     OW27097   0.027   5.591   7.611 -0.3297 -0.1124  0.0005
 7984SOL    HW127098  -0.013   5.590   7.523 -0.0732 -0.3556 -0.1136
 7984SOL    HW227099   0.023   5.683   7.637 -0.4857 -0.0505 -0.2305
 7985SOL     OW27100   1.580   6.363   2.407 -0.0332  0.1983  0.3389
 7985SOL    HW127101   1.676   6.365   2.401 -0.0459  1.2484  0.2984
 7985SOL    HW227102   1.552   6.318   2.327  0.4595 -1.3691  1.0019
 7986SOL     OW27103   5.271   5.611   7.251 -1.1165  0.3480 -0.2700
 7986SOL    HW127104   5.323   5.537   7.284 -1.1617  0.5088  0.1638
 7986SOL    HW227105   5.189   5.606   7.300 -1.3652  0.3215 -0.6820
 7987SOL     OW27106   1.114   1.111   0.893 -0.1079 -0.1457  0.3337
 7987SOL    HW127107   1.141   1.048   0.959 -0.5993  0.8817  1.5582
 7987SOL    HW227108   1.183   1.107   0.826 -1.9197 -4.6175 -1.6081
 7988SOL     OW27109   2.770   4.092   4.548  0.3418  0.1800 -0.5027
 7988SOL    HW127110   2.767   4.000   4.521  2.1965  0.0952 -0.5191
 7988SOL    HW227111   2.781   4.140   4.466 -2.6661  0.6599 -0.7553
 7989SOL     OW27112   3.112   4.178   2.731  0.4158  0.9902  0.0193
 7989SOL    HW127113   3.045   4.183   2.799 -1.0042 -2.5033 -0.9389
 7989SOL    HW227114   3.069   4.210   2.652 -0.0411 -0.7580 -0.4830
 7990SOL     OW27115   7.793   4.330   7.394 -0.7254  0.3231  0.5992
 7990SOL    HW127116   7.790   4.328   7.298  1.7864 -0.1117  0.4441
 7990SOL    HW227117   7.824   4.242   7.418  0.6254  1.0476  1.6415
 7991SOL     OW27118   5.585   1.388   7.953 -0.1275  0.1597  0.2731
 7991SOL    HW127119   5.508   1.433   7.989 -1.6920 -1.7425 -0.4401
 7991SOL    HW227120   5.592   1.308   8.005 -0.2467 -0.9212 -1.2898
 7992SOL     OW27121   3.110   7.396   4.701  0.7253 -0.4035  0.3536
 7992SOL    HW127122   3.081   7.434   4.784 -1.6978  0.7491 -0.8804
 7992SOL    HW227123   3.086   7.304   4.707  0.1708 -0.2405  0.7949
 7993SOL     OW27124   5.975   0.850   3.256  0.2338 -0.8757  0.0525
 7993SOL    HW127125   5.883   0.870   3.274  0.7017 -0.5306  2.5269
 7993SOL    HW227126   6.000   0.911   3.186 -1.0384  0.0799  0.4019
 7994SOL     OW27127   6.480   2.925   3.174  0.5827  0.0395  0.0602
 7994SOL    HW127128   6.569   2.892   3.165  0.1192 -1.5890  0.9878
 7994SOL    HW227129   6.482   2.977   3.255  0.8813  0.7393 -0.3908
 7995SOL     OW27130   5.264   5.908   6.082  0.1907  0.0469 -0.3173
 7995SOL    HW127131   5.355   5.896   6.054 -0.4458 -0.9162 -2.1873
 7995SOL    HW227132   5.214   5.850   6.025 -1.6328  0.6734  0.5597
 7996SOL     OW27133   5.042   5.347   5.723  0.7486  0.5348 -0.1462
 7996SOL    HW127134   5.122   5.386   5.759  0.3751  0.3423  0.9433
 7996SOL    HW227135   4.975   5.414   5.735  0.8611  0.9575 -1.6730
 7997SOL     OW27136   6.897   6.657   4.242  0.0466  0.3089 -0.3240
 7997SOL    HW127137   6.883   6.585   4.303 -2.2610 -0.8914 -2.0973
 7997SOL    HW227138   6.975   6.702   4.274  1.2210 -2.6049  1.2109
 7998SOL     OW27139   1.198   4.768   1.476  0.0909  0.0721 -0.4128
 7998SOL    HW127140   1.244   4.834   1.528 -0.6486  0.7982 -0.6606
 7998SOL    HW227141   1.246   4.687   1.493  1.2041  0.7216 -0.3452
 7999SOL     OW27142   8.085   0.558   5.866  0.4698 -0.0690  0.0731
 7999SOL    HW127143   8.050   0.521   5.947 -0.3101  3.0859  1.3067
 7999SOL    HW227144   8.009   0.597   5.822  1.3066  0.5874 -0.8380
 8000SOL     OW27145   4.159   2.134   0.194  0.1435  0.2538 -0.5737
 8000SOL    HW127146   4.239   2.124   0.247 -0.2967  0.3460  0.1248
 8000SOL    HW227147   4.170   2.071   0.123  0.8095  0.2105 -0.4417
 8001SOL     OW27148   0.777   2.846   7.281  0.3135 -0.5169 -0.0330
 8001SOL    HW127149   0.817   2.759   7.290  1.0840  0.0722  4.0387
 8001SOL    HW227150   0.848   2.901   7.248  0.4573 -0.9738 -0.5120
 8002SOL     OW27151   5.084   1.401   4.796  0.0697 -0.4331 -0.4302
 8002SOL    HW127152   4.992   1.414   4.774 -0.1583 -1.2265  0.0125
 8002SOL    HW227153   5.083   1.328   4.859  0.8630  0.4794  0.6778
 8003SOL     OW27154   3.360   1.309   0.097 -0.4332 -0.6867  0.1753
 8003SOL    HW127155   3.349   1.227   0.049  0.0245  0.6988 -2.4513
 8003SOL    HW227156   3.310   1.374   0.047  0.3678  0.9240  1.3687
 8004SOL     OW27157   3.157   6.224   7.427 -0.2351 -0.0599 -0.4424
 8004SOL    HW127158   3.074   6.195   7.388 -0.6013 -2.0667  1.6096
 8004SOL    HW227159   3.136   6.310   7.464 -0.6420  0.6051 -2.1027
 8005SOL     OW27160   5.020   2.090   0.174 -0.0273 -0.7549 -0.0529
 8005SOL    HW127161   5.036   2.126   0.261 -2.1335 -1.6602  0.7833
 8005SOL    HW227162   4.940   2.038   0.184 -0.6872 -0.3766 -2.6810
 8006SOL     OW27163   2.639   2.360   6.690  0.0000  0.1012 -0.4060
 8006SOL    HW127164   2.590   2.438   6.715  0.3864 -0.0917  1.0389
 8006SOL    HW227165   2.674   2.326   6.772  1.2104 -0.6749 -1.2105
 8007SOL     OW27166   1.152   5.201   5.170 -0.3740 -0.4660  0.2097
 8007SOL    HW127167   1.087   5.208   5.100 -0.0694  2.0764  0.0776
 8007SOL    HW227168   1.110   5.148   5.237 -1.7762 -0.6023 -0.7343
 8008SOL     OW27169   1.371   6.490   5.223  0.2104  0.3162 -0.2795
 8008SOL    HW127170   1.373   6.555   5.294  0.1933  1.2524 -1.1161
 8008SOL    HW227171   1.371   6.542   5.143 -1.7250 -0.6556 -0.9875
 8009SOL     OW27172   7.765   0.741   4.034 -0.1607 -0.0889  0.1429
 8009SOL    HW127173   7.851   0.752   3.994 -0.0786  0.2485  0.4031
 8009SOL    HW227174   7.753   0.821   4.086 -1.7251  1.1024 -1.9048
 8010SOL     OW27175   7.703   6.324   1.024 -0.2238  0.0237  0.0284
 8010SOL    HW127176   7.746   6.352   1.105 -3.5017  2.0927  1.3036
 8010SOL    HW227177   7.679   6.233   1.040 -0.7723  0.3848  1.4203
 8011SOL     OW27178   3.993   0.199   7.309 -0.2755 -0.0735  0.0561
 8011SOL    HW127179   4.012   0.201   7.403  0.3376  1.1682 -0.0769
 8011SOL    HW227180   3.932   0.271   7.296 -0.7299 -0.5380 -0.4373
 8012SOL     OW27181   5.777   0.909   5.526  0.4106 -0.3458 -0.0830
 8012SOL    HW127182   5.776   0.967   5.450  2.1217  0.9151  0.7787
 8012SOL    HW227183   5.748   0.966   5.598  1.8950 -0.5855  0.7390
 8013SOL     OW27184   0.063   4.432   4.023 -0.2561 -0.0190 -0.7982
 8013SOL    HW127185   0.131   4.492   3.992 -0.7851  0.4295 -1.1144
 8013SOL    HW227186   0.076   4.352   3.971  1.2025 -0.6482  0.4524
 8014SOL     OW27187   1.884   8.085   0.726 -0.0468 -0.0083 -0.0895
 8014SOL    HW127188   1.817   8.108   0.791 -0.4978  1.4736 -1.0335
 8014SOL    HW227189   1.912   8.169   0.689  2.9702 -0.5021  0.8298
 8015SOL     OW27190   1.166   1.739   0.882 -0.1873 -0.2256 -0.4097
 8015SOL    HW127191   1.170   1.719   0.789 -2.5701  1.0662 -0.8745
 8015SOL    HW227192   1.086   1.697   0.912 -0.7528  1.3887  0.4727
 8016SOL     OW27193   5.455   2.633   4.740 -0.4459 -0.3200  0.5935
 8016SOL    HW127194   5.395   2.558   4.737 -1.0650  0.1408 -2.9867
 8016SOL    HW227195   5.538   2.599   4.709 -0.8320  0.4559 -1.4337
 8017SOL     OW27196   0.367   3.528   2.078 -0.3699  0.0170 -0.1830
 8017SOL    HW127197   0.370   3.613   2.035  0.9018  0.1354  0.0831
 8017SOL    HW227198   0.335   3.468   2.010 -1.6858  0.7584 -0.2400
 8018SOL     OW27199   5.083   2.883   0.978 -0.2223 -0.2177 -0.5320
 8018SOL    HW127200   5.094   2.975   1.002 -0.0848 -0.6385  1.1552
 8018SOL    HW227201   4.996   2.878   0.938  0.0056  0.7319 -1.1606
 8019SOL     OW27202   4.633   1.825   5.072 -0.1143  0.2388 -0.5632
 8019SOL    HW127203   4.664   1.748   5.121 -2.0797 -0.8123 -0.8600
 8019SOL    HW227204   4.665   1.900   5.122  0.6858 -0.7831  0.5076
 8020SOL     OW27205   3.113   0.521   5.438  0.4455 -0.0807  0.2991
 8020SOL    HW127206   3.070   0.456   5.494  1.4103 -1.6074 -0.6359
 8020SOL    HW227207   3.176   0.565   5.495  1.5890 -1.7790  0.4228
 8021SOL     OW27208   4.599   4.379   6.542 -0.2052 -0.4927 -0.2486
 8021SOL    HW127209   4.563   4.326   6.471 -0.1244  0.4410 -1.0042
 8021SOL    HW227210   4.622   4.462   6.501  0.3833 -0.1375  0.7553
 8022SOL     OW27211   3.205   2.097   2.238 -0.2889 -0.8237  0.2392
 8022SOL    HW127212   3.269   2.078   2.307 -1.1262 -0.3796  1.1662
 8022SOL    HW227213   3.153   2.016   2.231  0.2357 -1.1137 -0.3713
 8023SOL     OW27214   0.246   6.211   6.390 -0.1684  0.6458  0.0472
 8023SOL    HW127215   0.201   6.169   6.463  0.3294  0.1006  0.0514
 8023SOL    HW227216   0.313   6.265   6.432 -0.2876  0.8215  0.0131
 8024SOL     OW27217   6.800   5.257   1.029  0.4703  0.1991 -0.5573
 8024SOL    HW127218   6.764   5.344   1.044 -0.4725 -0.3127  0.2646
 8024SOL    HW227219   6.880   5.254   1.083  0.6465  0.6390 -0.7948
 8025SOL     OW27220   2.186   1.135   4.695 -0.2236  0.2523  0.0006
 8025SOL    HW127221   2.226   1.155   4.610 -2.0279  0.2274 -0.9048
 8025SOL    HW227222   2.185   1.219   4.741 -0.5038  0.5699 -0.5743
 8026SOL     OW27223   0.811   7.905   3.830  0.3850 -0.0803 -0.6338
 8026SOL    HW127224   0.785   7.835   3.889  0.0685 -0.2137 -0.9292
 8026SOL    HW227225   0.907   7.909   3.838  0.3452 -0.1049 -0.1280
 8027SOL     OW27226   3.123   5.757   0.378 -0.4318 -0.0483 -0.6543
 8027SOL    HW127227   3.075   5.702   0.316 -0.4105 -0.7387 -0.0604
 8027SOL    HW227228   3.110   5.716   0.463 -0.3267  0.8064 -0.2107
 8028SOL     OW27229   2.135   0.262   4.718 -0.2473 -0.2767  0.0987
 8028SOL    HW127230   2.134   0.287   4.626 -1.1012 -0.6787 -0.0126
 8028SOL    HW227231   2.070   0.320   4.759 -0.0464 -0.2624  0.3980
 8029SOL     OW27232   4.287   5.575   4.103  0.0763 -0.1878  0.5701
 8029SOL    HW127233   4.224   5.558   4.033  1.9623 -2.0502 -0.7650
 8029SOL    HW227234   4.244   5.543   4.182 -0.2905 -2.4162 -0.4710
 8030SOL     OW27235   5.618   2.661   5.288 -0.1859  0.4341 -0.1624
 8030SOL    HW127236   5.675   2.584   5.287  0.5961  0.9984 -0.3520
 8030SOL    HW227237   5.611   2.684   5.381  1.7958  1.7086 -0.2825
 8031SOL     OW27238   1.433   1.827   4.411  0.6872  0.5856  0.6038
 8031SOL    HW127239   1.440   1.863   4.499 -0.6141 -0.2428  1.0811
 8031SOL    HW227240   1.339   1.816   4.397  0.8672  0.8209 -0.9420
 8032SOL     OW27241   3.814   6.718   5.533  0.0543  0.1711  0.3172
 8032SOL    HW127242   3.904   6.715   5.500 -0.6459 -1.4110 -1.6419
 8032SOL    HW227243   3.779   6.802   5.503  0.6032  0.4210  0.3647
 8033SOL     OW27244   0.973   6.842   3.468  0.4391 -0.4109  0.6535
 8033SOL    HW127245   0.920   6.766   3.444  1.2166 -1.4324  2.0369
 8033SOL    HW227246   1.044   6.842   3.405 -0.3817  0.1049 -0.3047
 8034SOL     OW27247   4.409   1.342   4.675  0.0973  0.0255 -0.3521
 8034SOL    HW127248   4.426   1.374   4.764 -0.0358  1.2825 -0.7644
 8034SOL    HW227249   4.408   1.246   4.684  0.0113  0.1315  1.0107
 8035SOL     OW27250   4.151   3.595   3.232  0.1549 -0.2984  0.2365
 8035SOL    HW127251   4.065   3.627   3.206 -0.3523 -1.2878  0.6609
 8035SOL    HW227252   4.195   3.672   3.270 -0.5919  0.1687  0.1716
 8036SOL     OW27253   0.016   7.337   2.402 -0.4501 -0.1021 -0.4145
 8036SOL    HW127254   0.074   7.264   2.421 -0.6426 -0.4878 -1.2728
 8036SOL    HW227255  -0.041   7.344   2.479  0.6094  0.1755  0.3610
 8037SOL     OW27256   0.112   0.565   6.413  0.3303 -0.7299 -0.4316
 8037SOL    HW127257   0.196   0.562   6.459  0.2739 -0.6979 -0.3267
 8037SOL    HW227258   0.090   0.473   6.398  0.0748 -0.7617  0.1054
 8038SOL     OW27259   2.602   0.971   6.202  0.2434 -0.3894  0.1601
 8038SOL    HW127260   2.583   0.916   6.278  0.3884 -0.3507  0.2246
 8038SOL    HW227261   2.598   1.060   6.235  1.5774 -0.4056  0.4213
 8039SOL     OW27262   2.518   2.494   3.827 -0.5290 -0.0383  0.0958
 8039SOL    HW127263   2.523   2.422   3.889 -1.0985  1.3631  1.8495
 8039SOL    HW227264   2.603   2.536   3.831 -0.7989  0.4797  0.4713
 8040SOL     OW27265   4.406   0.724   7.348  0.0408 -0.1256  0.0497
 8040SOL    HW127266   4.373   0.804   7.306 -0.4350  0.0242  0.6844
 8040SOL    HW227267   4.477   0.694   7.291 -0.0694  0.5052 -0.4309
 8041SOL     OW27268   3.570   4.419   5.655  0.2131  0.1206  0.6155
 8041SOL    HW127269   3.486   4.376   5.666  1.0691 -1.5549  0.9520
 8041SOL    HW227270   3.590   4.412   5.562  0.5083 -0.5563  0.7234
 8042SOL     OW27271   6.550   0.689   5.791  1.0088  0.0482 -0.0445
 8042SOL    HW127272   6.594   0.770   5.768  1.2574  0.3415  1.3904
 8042SOL    HW227273   6.617   0.621   5.782  1.0311  0.1161 -0.4069
 8043SOL     OW27274   3.304   1.514   2.588  0.2284 -0.0109  0.4196
 8043SOL    HW127275   3.360   1.592   2.590 -2.7093  2.2839  0.5946
 8043SOL    HW227276   3.288   1.493   2.680  1.9483 -1.6801  0.4039
 8044SOL     OW27277   4.735   2.289   7.013 -0.8248 -0.1036 -0.0215
 8044SOL    HW127278   4.672   2.357   6.991 -1.6215 -1.3123 -1.6798
 8044SOL    HW227279   4.682   2.210   7.026  0.0219 -0.3477  2.3797
 8045SOL     OW27280   0.989   0.073   0.730  0.5226  0.2909 -0.3825
 8045SOL    HW127281   0.911   0.085   0.676  0.3995 -0.9987 -0.5115
 8045SOL    HW227282   1.021  -0.014   0.708  2.6872  1.2078 -1.2034
 8046SOL     OW27283   8.027   2.931   0.066  0.1481  0.2016  0.1712
 8046SOL    HW127284   8.071   2.862   0.016  0.0969 -0.1404  0.5824
 8046SOL    HW227285   8.098   2.985   0.101  0.2038  0.1506  0.1374
 8047SOL     OW27286   2.463   1.091   3.248 -0.2457  0.0673  0.0989
 8047SOL    HW127287   2.416   1.019   3.206  0.4698  0.0736 -0.7239
 8047SOL    HW227288   2.454   1.073   3.342 -2.0254  0.1736 -0.0239
 8048SOL     OW27289   6.798   0.528   7.997  0.0148  0.2239 -0.0208
 8048SOL    HW127290   6.856   0.582   7.944  0.0414 -0.3391 -0.5750
 8048SOL    HW227291   6.750   0.475   7.934  0.0296 -0.4388  0.5153
 8049SOL     OW27292   3.962   5.998   1.714  0.0949  0.0947  0.2081
 8049SOL    HW127293   3.886   6.032   1.665  0.4077 -1.1238 -1.2014
 8049SOL    HW227294   4.037   6.042   1.674  0.3922 -1.2506 -0.7662
 8050SOL     OW27295   4.876   6.748   5.009  0.2802 -0.2331  0.0622
 8050SOL    HW127296   4.822   6.726   5.085  0.8133  0.0608  0.5284
 8050SOL    HW227297   4.853   6.839   4.988  0.2625 -0.2567 -0.0220
 8051SOL     OW27298   4.921   0.327   1.379 -0.3142 -0.0463 -0.4261
 8051SOL    HW127299   4.874   0.409   1.384 -2.9422 -1.4858  0.3113
 8051SOL    HW227300   5.005   0.349   1.339 -1.8655  2.5620 -2.5073
 8052SOL     OW27301   6.422   1.043   7.028 -0.4486 -0.0202  0.7129
 8052SOL    HW127302   6.458   0.974   6.973 -0.6628  0.3927  0.0366
 8052SOL    HW227303   6.495   1.073   7.082  0.0556  0.3350 -0.1519
 8053SOL     OW27304   1.628   7.642   0.299 -0.0622 -0.3659 -0.5951
 8053SOL    HW127305   1.544   7.679   0.326  0.7510  1.2318 -0.1366
 8053SOL    HW227306   1.659   7.700   0.229 -0.2930 -2.1715 -2.3210
 8054SOL     OW27307   0.194   2.340   2.296 -0.5386  0.6543 -0.3029
 8054SOL    HW127308   0.258   2.279   2.260 -1.9273 -1.9911  1.4180
 8054SOL    HW227309   0.121   2.338   2.234 -2.1799 -2.5505  1.4598
 8055SOL     OW27310   1.634   2.485   0.973 -0.2060 -0.0184  0.2818
 8055SOL    HW127311   1.670   2.398   0.989 -0.6745 -0.3628 -0.4666
 8055SOL    HW227312   1.544   2.469   0.943  0.1043  0.6399 -1.1043
 8056SOL     OW27313   0.873   3.197   7.610  0.2534  0.3813 -0.1475
 8056SOL    HW127314   0.922   3.117   7.593 -2.1856 -1.7387  1.9250
 8056SOL    HW227315   0.801   3.195   7.547 -0.7393 -0.0134  0.9484
 8057SOL     OW27316   6.568   3.048   5.925 -0.2200  0.7110 -0.0459
 8057SOL    HW127317   6.644   3.100   5.899 -0.2975  1.1726  0.6258
 8057SOL    HW227318   6.606   2.965   5.956  0.0184  0.9549  0.3244
 8058SOL     OW27319   6.626   7.578   7.414 -0.0504 -0.0377  0.0781
 8058SOL    HW127320   6.695   7.530   7.461 -0.2471 -0.1644  0.2388
 8058SOL    HW227321   6.544   7.539   7.446 -0.1773 -0.3064 -0.5575
 8059SOL     OW27322   5.881   3.679   7.306 -0.6896  0.3302 -0.3276
 8059SOL    HW127323   5.864   3.768   7.275  0.4667  0.7627  0.2388
 8059SOL    HW227324   5.869   3.624   7.229 -2.5149  0.8103 -0.4554
 8060SOL     OW27325   0.968   7.616   3.286  0.6546  0.5263  0.0218
 8060SOL    HW127326   1.018   7.590   3.363  0.5380  0.4847  0.0835
 8060SOL    HW227327   1.024   7.680   3.241 -0.0346  1.9620  1.1212
 8061SOL     OW27328   3.984   2.829   6.584 -0.1098 -0.0438 -0.2785
 8061SOL    HW127329   3.920   2.855   6.651 -0.9065  0.8044 -1.3333
 8061SOL    HW227330   4.046   2.901   6.581  0.0723 -0.1992 -0.2924
 8062SOL     OW27331   1.314   0.996   0.697  0.3153  0.5395 -0.0594
 8062SOL    HW127332   1.353   1.079   0.669  0.5568  0.2948 -0.4569
 8062SOL    HW227333   1.386   0.934   0.696 -0.1389 -0.0108 -1.1833
 8063SOL     OW27334   5.566   3.602   4.731 -0.9716 -0.0462 -0.2647
 8063SOL    HW127335   5.628   3.653   4.784  0.1661  0.2773 -1.8348
 8063SOL    HW227336   5.582   3.511   4.756 -0.1347  0.0706 -0.3472
 8064SOL     OW27337   7.017   2.582   2.788  0.5054 -0.5251  0.2941
 8064SOL    HW127338   7.091   2.532   2.754 -0.1139  0.2531 -2.4291
 8064SOL    HW227339   6.967   2.607   2.711 -3.3822 -2.0837  2.0541
 8065SOL     OW27340   5.655   0.448   3.404  0.2992 -0.1519  0.0752
 8065SOL    HW127341   5.666   0.529   3.453  0.0691 -0.8044  1.2495
 8065SOL    HW227342   5.568   0.417   3.427  0.1543 -0.4382 -0.8229
 8066SOL     OW27343   1.908   1.627   2.409  0.1245 -0.4755  0.0552
 8066SOL    HW127344   1.833   1.607   2.353 -0.8745 -1.6599  1.7350
 8066SOL    HW227345   1.901   1.720   2.426 -0.1576 -0.3073 -0.9031
 8067SOL     OW27346   7.816   7.810   4.108  0.1173 -0.0200 -0.2328
 8067SOL    HW127347   7.875   7.734   4.101  0.1742 -0.0862  0.7991
 8067SOL    HW227348   7.732   7.772   4.132  0.2421  0.2656  0.6823
 8068SOL     OW27349   2.939   1.906   4.753 -0.0060 -0.1920 -0.0211
 8068SOL    HW127350   3.012   1.844   4.763 -0.1726 -0.3555  0.1869
 8068SOL    HW227351   2.873   1.875   4.815 -0.3114 -0.1290 -0.3150
 8069SOL     OW27352   7.330   7.868   3.984 -0.5522 -0.1508  0.2501
 8069SOL    HW127353   7.306   7.922   4.059 -0.3445 -1.0228  0.9604
 8069SOL    HW227354   7.332   7.929   3.910  0.7231  1.0198  1.2070
 8070SOL     OW27355   4.375   3.379   7.910 -0.1340  0.3337 -0.1722
 8070SOL    HW127356   4.288   3.338   7.915  0.5716 -1.5222 -1.6815
 8070SOL    HW227357   4.401   3.368   7.819  1.8441  0.4925  0.3310
 8071SOL     OW27358   2.782   0.242   3.395  0.3909 -0.4794  0.1306
 8071SOL    HW127359   2.756   0.256   3.303 -1.0875 -1.2940  0.3887
 8071SOL    HW227360   2.703   0.208   3.437  0.8584  0.4666  1.8730
 8072SOL     OW27361   6.181   1.223   5.109 -0.2339 -0.7283  0.2871
 8072SOL    HW127362   6.092   1.191   5.093 -0.0153 -0.9040 -0.6480
 8072SOL    HW227363   6.227   1.149   5.149 -0.5620 -0.5613  0.9923
 8073SOL     OW27364   4.679   4.624   3.641  0.5146 -0.3605 -0.5247
 8073SOL    HW127365   4.686   4.530   3.622  0.6814 -0.1056 -1.8335
 8073SOL    HW227366   4.767   4.658   3.624  0.4105  0.0711 -0.2177
 8074SOL     OW27367   3.988   3.613   4.498 -0.6573  0.1084  0.2525
 8074SOL    HW127368   4.021   3.553   4.565 -2.1527 -0.6921  0.3302
 8074SOL    HW227369   3.950   3.556   4.431 -0.4265  0.9326 -0.6064
 8075SOL     OW27370   1.061   4.502   0.900 -0.3425 -0.0358 -0.0473
 8075SOL    HW127371   1.011   4.580   0.876  1.3112  0.5151 -1.8906
 8075SOL    HW227372   0.997   4.430   0.894 -1.8535  1.0723  1.5331
 8076SOL     OW27373   5.201   3.469   1.765 -0.5383  0.3315 -0.0589
 8076SOL    HW127374   5.252   3.466   1.684 -2.0428  1.2668 -1.0943
 8076SOL    HW227375   5.212   3.382   1.804 -1.6992 -0.9939 -2.4836
 8077SOL     OW27376   6.793   0.854   1.992  0.4568 -0.0054 -0.1911
 8077SOL    HW127377   6.758   0.774   2.031 -2.2748  0.4762 -1.3929
 8077SOL    HW227378   6.782   0.920   2.061  1.0833 -0.3003  0.1986
 8078SOL     OW27379   6.806   5.669   2.255 -0.2433  0.3638 -0.3239
 8078SOL    HW127380   6.779   5.647   2.165 -2.8541  0.5466  0.3631
 8078SOL    HW227381   6.743   5.623   2.311  1.1631  0.4899  1.4519
 8079SOL     OW27382   5.820   6.184   4.394  0.0765  0.2088 -0.1006
 8079SOL    HW127383   5.893   6.246   4.390 -1.2627  1.8292 -0.3386
 8079SOL    HW227384   5.789   6.190   4.484 -1.0000  1.0506 -0.5060
 8080SOL     OW27385   3.038   1.237   5.057  0.1486  0.2870 -0.2961
 8080SOL    HW127386   3.050   1.199   5.144 -0.0145 -0.8665 -0.7587
 8080SOL    HW227387   2.948   1.271   5.058  0.0335 -0.0171 -0.1163
 8081SOL     OW27388   5.391   4.246   0.576  0.2977 -0.4973  0.4865
 8081SOL    HW127389   5.408   4.189   0.651  1.3051 -1.3966 -0.3840
 8081SOL    HW227390   5.296   4.252   0.572  0.1810 -1.6813  0.9368
 8082SOL     OW27391   4.677   4.229   1.722  0.5102  0.0645 -0.4115
 8082SOL    HW127392   4.633   4.231   1.637 -0.0180 -0.7541 -0.1774
 8082SOL    HW227393   4.609   4.202   1.783  0.8710  0.7125  0.2819
 8083SOL     OW27394   7.615   5.324   7.754  0.1210  0.3942 -0.1818
 8083SOL    HW127395   7.526   5.331   7.722  0.5771  1.6678 -1.2687
 8083SOL    HW227396   7.616   5.375   7.835 -0.6958 -1.6802  1.2166
 8084SOL     OW27397   2.726   3.096   5.474  0.1696  0.3226 -0.1150
 8084SOL    HW127398   2.815   3.123   5.455  0.2539  0.8258  0.9630
 8084SOL    HW227399   2.723   3.084   5.569 -1.5550  2.7861  0.2458
 8085SOL     OW27400   6.498   5.366   3.866  0.2039  0.1100  0.1233
 8085SOL    HW127401   6.516   5.276   3.894  0.6797  0.0719 -0.2934
 8085SOL    HW227402   6.527   5.420   3.940  1.3722  0.0048 -0.2319
 8086SOL     OW27403   7.701   0.060   0.787  0.2069 -0.1978 -0.5482
 8086SOL    HW127404   7.790   0.025   0.790  0.0535 -0.5539  0.2471
 8086SOL    HW227405   7.677   0.059   0.694  0.6731 -1.0207 -0.6643
 8087SOL     OW27406   5.069   2.671   6.703 -0.1900 -0.1553 -0.0598
 8087SOL    HW127407   5.058   2.690   6.797 -0.4415  1.3799 -0.3700
 8087SOL    HW227408   5.147   2.721   6.678 -0.2032 -0.4524 -0.7104
 8088SOL     OW27409   1.457   8.004   4.321 -0.2679 -0.5541 -0.6349
 8088SOL    HW127410   1.417   8.081   4.280  0.4698  1.2615  1.8280
 8088SOL    HW227411   1.400   7.984   4.395  0.3822 -1.4759 -0.3570
 8089SOL     OW27412   1.633   1.979   5.457 -0.5719 -0.4816 -0.2491
 8089SOL    HW127413   1.587   2.059   5.430  0.3854 -0.3472 -1.6180
 8089SOL    HW227414   1.571   1.909   5.441 -0.7434 -0.1878 -0.9155
 8090SOL     OW27415   2.658   5.808   2.212 -0.0288  0.2969  0.6141
 8090SOL    HW127416   2.670   5.890   2.261  0.2148 -0.1619  1.3457
 8090SOL    HW227417   2.571   5.815   2.173 -0.4843  0.4208  1.6301
 8091SOL     OW27418   0.513   1.426   6.397 -0.1103  0.0538 -0.2413
 8091SOL    HW127419   0.583   1.483   6.426  0.0625  0.9303 -2.2497
 8091SOL    HW227420   0.538   1.339   6.429  0.9801  0.6369  0.5570
 8092SOL     OW27421   4.895   1.598   6.107  0.6953 -0.5244 -0.6133
 8092SOL    HW127422   4.826   1.656   6.075 -0.3179 -2.0709 -1.3386
 8092SOL    HW227423   4.864   1.566   6.191  1.0825 -0.3140 -0.3851
 8093SOL     OW27424   0.441   2.496   2.417  0.3744  0.1599 -0.3066
 8093SOL    HW127425   0.387   2.418   2.401  1.2989 -0.4671 -0.4531
 8093SOL    HW227426   0.425   2.552   2.341 -1.5718  0.8933  0.5645
 8094SOL     OW27427   2.667   6.069   2.272  0.1035  0.1531 -0.1599
 8094SOL    HW127428   2.716   6.145   2.243  1.0805 -0.7518 -0.9740
 8094SOL    HW227429   2.576   6.090   2.254  0.1045  1.9543  1.5505
 8095SOL     OW27430   4.489   1.453   4.926 -0.3845  0.8285 -0.0230
 8095SOL    HW127431   4.470   1.532   4.876 -2.3105  0.7737  0.5405
 8095SOL    HW227432   4.451   1.468   5.012 -2.1938 -1.2501 -0.3621
 8096SOL     OW27433   2.687   0.492   6.395 -0.2634 -0.4672  0.1864
 8096SOL    HW127434   2.691   0.429   6.323  0.4416  0.4272 -0.5728
 8096SOL    HW227435   2.680   0.437   6.474  0.2963 -1.4988 -0.4599
 8097SOL     OW27436   3.856   6.549   2.588  0.1791  0.4265 -0.2786
 8097SOL    HW127437   3.834   6.602   2.511  0.9022  2.8508  1.0555
 8097SOL    HW227438   3.947   6.522   2.573 -0.1270 -0.2881 -0.8823
 8098SOL     OW27439   6.614   2.319   5.695 -0.2979  0.4576 -0.4588
 8098SOL    HW127440   6.588   2.234   5.730 -0.3460  0.6666  0.0161
 8098SOL    HW227441   6.707   2.325   5.713 -0.2590  0.4352 -0.6464
 8099SOL     OW27442   6.500   6.522   4.132  0.2771  0.4433 -0.0907
 8099SOL    HW127443   6.501   6.615   4.111 -0.5254  0.3437 -0.5917
 8099SOL    HW227444   6.432   6.485   4.076 -0.3961 -0.1998  1.1062
 8100SOL     OW27445   1.284   4.841   3.416 -0.0806 -0.3020  0.8365
 8100SOL    HW127446   1.263   4.934   3.419  1.1234  0.1496 -2.0677
 8100SOL    HW227447   1.202   4.798   3.392 -0.5071  0.0526  1.6404
 8101SOL     OW27448   1.014   4.652   3.739  0.1397 -0.4350 -0.0332
 8101SOL    HW127449   1.011   4.585   3.808  0.1283 -1.4615 -1.0099
 8101SOL    HW227450   1.106   4.674   3.731  0.0472  0.4077  0.9630
 8102SOL     OW27451   1.766   0.676   6.834 -0.3078  0.2134  0.0997
 8102SOL    HW127452   1.845   0.667   6.886  0.5442  0.6402 -1.0684
 8102SOL    HW227453   1.695   0.682   6.898  0.9136  3.1374  1.3413
 8103SOL     OW27454   6.575   6.687   7.477 -0.5524  0.1846  0.6155
 8103SOL    HW127455   6.533   6.621   7.421 -0.4260  0.2223  0.4780
 8103SOL    HW227456   6.548   6.663   7.565  0.6312 -0.8932  0.7083
 8104SOL     OW27457   3.552   1.543   0.091 -0.1409 -0.0642  0.1636
 8104SOL    HW127458   3.492   1.517   0.161 -0.0376 -0.3268  0.1559
 8104SOL    HW227459   3.573   1.461   0.046 -0.4449  0.1364 -0.3626
 8105SOL     OW27460   5.303   0.142   6.412  0.1164 -0.3583  0.3418
 8105SOL    HW127461   5.340   0.177   6.493 -0.0831  0.1337  0.2200
 8105SOL    HW227462   5.365   0.074   6.386  0.8808  0.3599  0.2200
 8106SOL     OW27463   7.204   7.054   7.588  0.0592  0.4547 -0.3937
 8106SOL    HW127464   7.117   7.046   7.548 -0.7892 -1.2516  1.6199
 8106SOL    HW227465   7.210   7.145   7.615  0.1573  1.3548 -3.1105
 8107SOL     OW27466   6.007   5.912   5.227 -0.4558 -0.1211  0.5200
 8107SOL    HW127467   5.983   6.003   5.241  3.4975  1.3877 -1.1962
 8107SOL    HW227468   6.037   5.882   5.313 -0.1121  0.7514  0.7067
 8108SOL     OW27469   4.718   7.254   2.511 -0.2337 -0.1148 -0.1859
 8108SOL    HW127470   4.718   7.211   2.425 -1.1230  1.1172 -0.8230
 8108SOL    HW227471   4.808   7.245   2.542  0.1131 -0.5386 -1.2630
 8109SOL     OW27472   3.731   5.236   7.126 -0.1623  0.2654  0.0044
 8109SOL    HW127473   3.638   5.211   7.124 -0.1971  0.4219 -0.7355
 8109SOL    HW227474   3.746   5.267   7.215 -0.9750  0.7973 -0.0310
 8110SOL     OW27475   1.783   4.976   4.473  0.3878  0.3459  0.2254
 8110SOL    HW127476   1.817   4.969   4.384  0.9027  2.6500  0.1875
 8110SOL    HW227477   1.695   4.938   4.468  1.2530 -1.6767 -0.6913
 8111SOL     OW27478   3.948   6.198   2.686  0.6872  0.4457  0.3457
 8111SOL    HW127479   3.886   6.208   2.614 -0.2752  1.1792  1.2446
 8111SOL    HW227480   3.921   6.117   2.730  0.1405  0.9330  0.9280
 8112SOL     OW27481   4.104   6.874   0.005 -0.4219 -0.2282  0.1024
 8112SOL    HW127482   4.158   6.830   0.071  2.2733 -1.0056 -2.3995
 8112SOL    HW227483   4.024   6.822   0.001  0.3577 -1.5615  1.1132
 8113SOL     OW27484   6.339   3.524   6.817  0.5571  0.5188  0.4034
 8113SOL    HW127485   6.296   3.455   6.767  2.1786 -0.8158  0.7681
 8113SOL    HW227486   6.288   3.603   6.798 -2.5830 -1.0716  1.5432
 8114SOL     OW27487   6.633   5.004   1.380  0.3500  0.0228 -0.6317
 8114SOL    HW127488   6.724   5.009   1.351  0.9513 -0.6773  1.0213
 8114SOL    HW227489   6.622   5.077   1.440  0.1323 -0.4816 -0.0454
 8115SOL     OW27490   3.372   6.101   5.258 -0.1438  0.0910 -0.3362
 8115SOL    HW127491   3.418   6.040   5.202 -2.0913 -1.1474 -0.6991
 8115SOL    HW227492   3.320   6.046   5.317 -0.2864  1.3796  0.8115
 8116SOL     OW27493   0.719   3.860   6.149  0.2451  0.3587 -0.0767
 8116SOL    HW127494   0.807   3.895   6.141  0.2275  1.0812  2.2478
 8116SOL    HW227495   0.721   3.808   6.229 -1.2821 -0.1209 -0.3174
 8117SOL     OW27496   5.930   0.235   0.910 -0.2318  0.2233 -0.2065
 8117SOL    HW127497   5.921   0.240   1.006  0.0964  0.9406 -0.2106
 8117SOL    HW227498   5.970   0.149   0.895  1.2410  0.7683  0.4226
 8118SOL     OW27499   5.044   4.167   5.089 -0.1856 -0.1217  0.3100
 8118SOL    HW127500   4.983   4.234   5.118 -0.4731 -0.2887  0.0885
 8118SOL    HW227501   5.112   4.166   5.157 -0.1920  0.3715  0.3265
 8119SOL     OW27502   5.768   3.958   5.009 -0.3991  0.2076 -0.0898
 8119SOL    HW127503   5.708   4.009   4.954  0.4731  3.2355  1.5101
 8119SOL    HW227504   5.717   3.935   5.086 -0.3269  0.0900 -0.0767
 8120SOL     OW27505   0.480   0.003   7.699  0.2127  0.2467  0.5141
 8120SOL    HW127506   0.453   0.086   7.659 -1.9995 -0.4447  0.4384
 8120SOL    HW227507   0.537  -0.038   7.634 -0.9114  0.4882 -0.6619
 8121SOL     OW27508   3.968   2.288   6.311  0.7728 -0.0048  0.1628
 8121SOL    HW127509   4.027   2.315   6.382 -0.4536  0.1945  1.1402
 8121SOL    HW227510   3.967   2.193   6.316  0.0241  0.0317  1.0046
 8122SOL     OW27511   5.750   6.348   6.235  0.4861  0.6418 -0.1132
 8122SOL    HW127512   5.752   6.433   6.278 -0.4865 -0.4833  2.3273
 8122SOL    HW227513   5.821   6.298   6.275 -0.8409 -0.6546  0.7220
 8123SOL     OW27514   5.333   4.247   6.697  0.3502 -0.4642  0.0213
 8123SOL    HW127515   5.265   4.184   6.718  0.0711 -0.2205 -0.1461
 8123SOL    HW227516   5.332   4.309   6.771  0.2960 -0.3833 -0.0468
 8124SOL     OW27517   0.038   6.761   4.330 -0.8743  0.8629  0.8703
 8124SOL    HW127518  -0.038   6.810   4.360 -1.3088 -0.2871  1.6971
 8124SOL    HW227519   0.073   6.814   4.257 -1.0794  2.5889  1.9648
 8125SOL     OW27520   3.030   6.885   3.861  0.2026 -0.0697  0.1483
 8125SOL    HW127521   3.044   6.842   3.946 -0.9635 -0.1817  0.3008
 8125SOL    HW227522   3.112   6.871   3.814  1.3815  1.1554  1.7359
 8126SOL     OW27523   4.260   2.182   7.941  0.0919 -0.3593 -0.2253
 8126SOL    HW127524   4.208   2.118   7.989 -0.7588  0.9875  0.6750
 8126SOL    HW227525   4.286   2.135   7.861 -1.4114 -1.4789 -0.1090
 8127SOL     OW27526   2.078   2.110   7.531 -0.1931  0.0375 -0.3710
 8127SOL    HW127527   2.076   2.174   7.461  0.6875 -1.7746 -2.1365
 8127SOL    HW227528   1.994   2.122   7.576 -0.3110  1.9589 -1.0055
 8128SOL     OW27529   2.403   6.065   1.396 -0.1769  0.6768  0.0275
 8128SOL    HW127530   2.415   6.107   1.311 -1.6039  0.5695 -0.2498
 8128SOL    HW227531   2.308   6.052   1.404  0.0111 -0.1893  1.2143
 8129SOL     OW27532   7.427   3.688   2.850  0.1166 -0.5017 -0.4517
 8129SOL    HW127533   7.455   3.716   2.763  0.5638  0.0946 -0.1313
 8129SOL    HW227534   7.399   3.769   2.893  0.7764 -0.6400  0.2641
 8130SOL     OW27535   1.811   3.796   0.327 -0.2916 -0.1479  0.4423
 8130SOL    HW127536   1.882   3.750   0.371 -0.0175 -1.7630 -1.5164
 8130SOL    HW227537   1.776   3.732   0.265 -2.2708  1.1994  0.0675
 8131SOL     OW27538   1.074   1.799   4.699  0.6359 -0.6254 -0.3335
 8131SOL    HW127539   1.106   1.745   4.626  1.0284 -0.2738 -0.4226
 8131SOL    HW227540   1.102   1.888   4.677  0.5363 -0.4792  0.1247
 8132SOL     OW27541   4.668   5.576   3.837 -1.0066  0.2334  0.2572
 8132SOL    HW127542   4.709   5.662   3.832  1.0092 -0.5231  2.0829
 8132SOL    HW227543   4.706   5.527   3.765 -1.2397  0.4980 -0.0504
 8133SOL     OW27544   3.958   7.613   2.025  0.2253  0.4733  0.1272
 8133SOL    HW127545   3.934   7.684   1.965 -0.9334  0.4093  0.5036
 8133SOL    HW227546   3.877   7.567   2.042  0.1699  1.4758  3.0445
 8134SOL     OW27547   0.003   0.523   6.762 -0.4417  0.1388 -0.3501
 8134SOL    HW127548   0.084   0.575   6.758 -0.4184  0.0301 -1.7293
 8134SOL    HW227549  -0.033   0.542   6.849  1.8855 -1.0951  0.9867
 8135SOL     OW27550   2.443   6.161   1.154 -0.6680 -0.4248 -0.3336
 8135SOL    HW127551   2.527   6.145   1.109 -1.0337 -0.1750 -1.1235
 8135SOL    HW227552   2.399   6.225   1.099 -0.8613  0.3823  0.7520
 8136SOL     OW27553   0.877   6.781   4.298  0.0684  0.2690 -0.5075
 8136SOL    HW127554   0.889   6.836   4.375  1.3052  0.8242 -1.0701
 8136SOL    HW227555   0.819   6.831   4.240 -0.4798  0.0557 -0.1517
 8137SOL     OW27556   2.705   2.616   6.020 -0.0767 -0.0930  0.2517
 8137SOL    HW127557   2.766   2.545   6.041  1.7381  0.8669 -1.3523
 8137SOL    HW227558   2.721   2.682   6.088  1.7099  0.6883 -0.8483
 8138SOL     OW27559   7.180   5.713   4.251 -0.8712 -0.5856 -0.0264
 8138SOL    HW127560   7.227   5.693   4.170 -0.1898  1.3785 -0.1677
 8138SOL    HW227561   7.103   5.656   4.248 -0.6009 -0.9286 -1.7944
 8139SOL     OW27562   5.694   7.124   6.640 -0.1118 -0.4167  0.5732
 8139SOL    HW127563   5.706   7.031   6.619 -0.2596 -0.3572  0.2271
 8139SOL    HW227564   5.732   7.133   6.727 -1.7370 -1.1937  1.4039
 8140SOL     OW27565   1.133   0.984   2.453  0.7930 -0.3664  0.2665
 8140SOL    HW127566   1.127   0.899   2.408  0.2738 -0.5336  0.6309
 8140SOL    HW227567   1.042   1.014   2.458  0.9407  0.0563  0.4295
 8141SOL     OW27568   3.130   0.374   1.043 -0.0625 -0.3104  0.2044
 8141SOL    HW127569   3.046   0.358   1.086 -0.8228 -2.3725 -1.8681
 8141SOL    HW227570   3.113   0.449   0.985 -0.9924 -1.6756 -1.3612
 8142SOL     OW27571   6.356   6.610   6.406  0.7536 -0.4167  0.4004
 8142SOL    HW127572   6.435   6.628   6.456  2.4725 -0.6417 -2.0338
 8142SOL    HW227573   6.388   6.590   6.318 -1.9263 -2.1846 -0.2860
 8143SOL     OW27574   4.429   4.937   3.429 -0.1298 -0.0428 -0.7970
 8143SOL    HW127575   4.448   4.845   3.411  0.4084  0.0281 -0.6170
 8143SOL    HW227576   4.490   4.985   3.372  0.6955  0.1881  0.2530
 8144SOL     OW27577   6.051   8.015   7.260  0.7026  0.5186 -0.0781
 8144SOL    HW127578   6.112   7.942   7.271 -0.0294 -0.1379 -0.2269
 8144SOL    HW227579   5.977   7.992   7.316  0.1519  0.7948 -0.6802
 8145SOL     OW27580   6.772   3.061   5.312  0.2770 -0.2776 -0.1781
 8145SOL    HW127581   6.722   3.078   5.392 -1.3774  0.2383 -1.2868
 8145SOL    HW227582   6.864   3.072   5.339 -0.0604 -2.2909  2.1604
 8146SOL     OW27583   2.346   1.300   7.176  0.3043  0.2412  0.5090
 8146SOL    HW127584   2.441   1.309   7.186  0.1304  0.7877  1.8554
 8146SOL    HW227585   2.314   1.390   7.171  0.1263  0.1762 -3.6351
 8147SOL     OW27586   2.493   1.529   4.985 -0.8056  0.2615 -0.3242
 8147SOL    HW127587   2.474   1.438   5.008 -1.2816  0.3318 -0.4192
 8147SOL    HW227588   2.427   1.580   5.033 -0.5355  0.5564 -0.2623
 8148SOL     OW27589   7.740   4.575   1.556  0.2631  0.1951 -0.7429
 8148SOL    HW127590   7.735   4.501   1.616 -0.0079  0.5270 -0.3507
 8148SOL    HW227591   7.650   4.608   1.550  0.4781  0.8751 -0.4199
 8149SOL     OW27592   2.389   0.514   4.930  0.0571 -0.1899  0.0201
 8149SOL    HW127593   2.302   0.543   4.901 -0.3056  1.1089  2.1821
 8149SOL    HW227594   2.380   0.419   4.939 -1.4249 -0.0058  0.9120
 8150SOL     OW27595   1.353   1.032   5.831  0.9471 -0.4153  0.2758
 8150SOL    HW127596   1.261   1.057   5.840  0.6035 -0.5615 -2.0771
 8150SOL    HW227597   1.350   0.941   5.801  1.9705 -1.1931  2.3621
 8151SOL     OW27598   1.722   3.409   5.359  0.3394  0.1977  0.0732
 8151SOL    HW127599   1.792   3.399   5.294 -0.1686 -0.0286 -0.4439
 8151SOL    HW227600   1.671   3.328   5.353 -1.1855  1.1778 -1.0210
 8152SOL     OW27601   6.671   2.670   1.159 -0.0512  0.2943  0.2824
 8152SOL    HW127602   6.694   2.762   1.142 -2.3759  1.3213  2.1015
 8152SOL    HW227603   6.727   2.645   1.232  0.2530  0.4443  0.1015
 8153SOL     OW27604   7.719   0.158   5.286  0.4044  0.5588  0.5078
 8153SOL    HW127605   7.706   0.123   5.198  0.4509  0.3687  0.5763
 8153SOL    HW227606   7.657   0.232   5.292  0.4652  0.6284  0.2862
 8154SOL     OW27607   5.063   6.566   0.225  0.0374  0.1648  0.2448
 8154SOL    HW127608   5.133   6.562   0.160 -1.0584 -0.0564 -0.9623
 8154SOL    HW227609   5.038   6.658   0.228 -0.0389  0.1445  0.2213
 8155SOL     OW27610   5.648   1.647   4.190  0.2081 -0.2648 -0.0332
 8155SOL    HW127611   5.658   1.737   4.161  1.4246 -0.9232 -1.8821
 8155SOL    HW227612   5.707   1.597   4.132 -0.7695 -2.2814  0.6305
 8156SOL     OW27613   1.465   8.003   3.847 -0.1034 -0.9693  0.1130
 8156SOL    HW127614   1.529   7.957   3.902  0.0658 -0.7150  0.1311
 8156SOL    HW227615   1.440   7.939   3.780  0.6858 -0.8400 -0.3056
 8157SOL     OW27616   4.912   4.047   0.130 -0.0239  0.4069 -0.4544
 8157SOL    HW127617   4.965   4.054   0.051  1.9547  1.0781  0.8773
 8157SOL    HW227618   4.881   4.136   0.146 -0.0856  0.3494 -0.2545
 8158SOL     OW27619   7.753   5.916   1.089 -0.2768  0.3710  0.2958
 8158SOL    HW127620   7.845   5.902   1.068 -0.1716 -0.5056  1.2470
 8158SOL    HW227621   7.754   5.954   1.177 -0.8595 -1.8666  1.3452
 8159SOL     OW27622   4.222   1.501   8.067  0.3810 -0.1245 -0.1460
 8159SOL    HW127623   4.128   1.499   8.083  0.3251 -0.6610 -0.4948
 8159SOL    HW227624   4.258   1.433   8.124  0.2206 -1.7839 -1.9121
 8160SOL     OW27625   5.747   7.438   0.558  0.7218 -0.1842 -0.0248
 8160SOL    HW127626   5.725   7.525   0.590  1.3093  0.2672 -0.8045
 8160SOL    HW227627   5.823   7.452   0.501  1.0813 -1.2611  0.1592
 8161SOL     OW27628   4.968   2.465   2.827  0.0018  0.2669 -0.4705
 8161SOL    HW127629   4.910   2.541   2.824  1.1420  1.1615 -2.5592
 8161SOL    HW227630   4.912   2.391   2.804 -1.3392  0.2081  2.5162
 8162SOL     OW27631   2.517   6.163   4.083 -0.1698  0.2883  0.0193
 8162SOL    HW127632   2.573   6.241   4.079  1.0625 -0.5525  0.0608
 8162SOL    HW227633   2.500   6.150   4.176  1.5542 -0.7676  0.2292
 8163SOL     OW27634   2.011   1.093   2.867  0.1065 -0.1694  0.1127
 8163SOL    HW127635   1.996   1.093   2.773 -1.0332  1.3710  0.2683
 8163SOL    HW227636   1.940   1.040   2.903 -0.5377  0.7751  0.2443
 8164SOL     OW27637   0.897   4.295   0.875 -0.1611 -0.2801 -0.2505
 8164SOL    HW127638   0.898   4.214   0.925  0.3644 -0.8284 -1.1284
 8164SOL    HW227639   0.810   4.332   0.891  0.3129  0.0556  1.8178
 8165SOL     OW27640   5.751   6.136   4.670 -0.4375 -0.1682  0.3054
 8165SOL    HW127641   5.837   6.172   4.694 -0.3371 -0.7934  0.9312
 8165SOL    HW227642   5.694   6.162   4.742 -1.0399  1.1155 -0.5885
 8166SOL     OW27643   1.519   1.131   3.528 -0.2090 -0.2630  0.2942
 8166SOL    HW127644   1.520   1.216   3.486 -1.1940 -0.0451  0.6748
 8166SOL    HW227645   1.442   1.087   3.493 -0.7686 -0.2675  1.4686
 8167SOL     OW27646   4.460   1.747   0.408 -0.1607  0.0819 -0.1385
 8167SOL    HW127647   4.459   1.762   0.313 -0.1708 -1.1138 -0.3456
 8167SOL    HW227648   4.552   1.729   0.428 -0.1692  0.2709  0.0730
 8168SOL     OW27649   0.691   3.352   3.677 -0.4971 -0.5384 -0.5618
 8168SOL    HW127650   0.647   3.386   3.755  0.0795  0.4331 -0.6352
 8168SOL    HW227651   0.650   3.268   3.660 -0.1134 -1.1216  1.2339
 8169SOL     OW27652   3.716   3.677   6.008  0.7221  0.1687 -0.0973
 8169SOL    HW127653   3.651   3.731   5.964 -2.1554 -0.9020  2.4234
 8169SOL    HW227654   3.750   3.619   5.940 -1.9816 -0.0821 -1.3619
 8170SOL     OW27655   6.594   0.661   3.171  0.3361 -0.1480 -0.1531
 8170SOL    HW127656   6.640   0.602   3.111 -0.0989 -1.1226  0.4524
 8170SOL    HW227657   6.530   0.605   3.215  0.3335  0.6466  0.8820
 8171SOL     OW27658   2.777   1.366   5.630 -0.0773 -0.0454 -0.2654
 8171SOL    HW127659   2.733   1.377   5.714  0.0453  2.2605 -0.4535
 8171SOL    HW227660   2.712   1.324   5.574 -0.5452 -0.5478  0.6344
 8172SOL     OW27661   5.526   7.299   3.788  0.1986 -0.8387  0.1646
 8172SOL    HW127662   5.571   7.218   3.763  1.5112 -0.2016  0.3864
 8172SOL    HW227663   5.512   7.345   3.705  0.0177 -1.0059  0.1025
 8173SOL     OW27664   1.462   4.341   4.169  0.2960  0.4372  0.1254
 8173SOL    HW127665   1.443   4.397   4.093  0.4472 -0.2531 -0.4371
 8173SOL    HW227666   1.398   4.270   4.162 -2.6127  2.4986  3.0479
 8174SOL     OW27667   2.630   4.701   5.108  0.1998  0.2736 -0.6243
 8174SOL    HW127668   2.721   4.729   5.121  0.1264 -0.0817  0.9150
 8174SOL    HW227669   2.626   4.615   5.150 -1.0053  0.5863 -0.0817
 8175SOL     OW27670   2.515   5.330   4.730  0.0013 -0.0322  0.0529
 8175SOL    HW127671   2.535   5.370   4.815 -0.7952 -1.7168  1.1115
 8175SOL    HW227672   2.422   5.347   4.717  0.2089  0.5428 -0.6705
 8176SOL     OW27673   2.858   6.554   7.063  0.1208 -0.2891 -0.3651
 8176SOL    HW127674   2.817   6.598   6.988 -1.0356  0.6210  0.7461
 8176SOL    HW227675   2.786   6.508   7.105  0.4687  0.3124  0.9239
 8177SOL     OW27676   2.469   5.306   2.036 -0.5083 -0.7307  0.5117
 8177SOL    HW127677   2.553   5.319   2.080 -0.9933  0.2428  1.1918
 8177SOL    HW227678   2.409   5.281   2.106 -1.0708 -0.1292  0.2494
 8178SOL     OW27679   5.815   2.590   4.689  0.0715 -0.3373 -0.2243
 8178SOL    HW127680   5.881   2.556   4.628 -1.3077 -1.3068 -1.2363
 8178SOL    HW227681   5.792   2.515   4.744 -1.0102 -0.3280 -0.6431
 8179SOL     OW27682   1.048   3.984   7.926 -0.1935  0.1117  0.3596
 8179SOL    HW127683   1.100   3.932   7.865 -0.0192 -0.2462  0.8093
 8179SOL    HW227684   0.965   3.998   7.880 -0.6674 -1.5274  0.6590
 8180SOL     OW27685   6.986   6.938   0.037 -0.1780 -0.3232 -0.1527
 8180SOL    HW127686   6.894   6.959   0.021 -0.1181 -0.3454 -0.5461
 8180SOL    HW227687   7.034   6.991  -0.027  0.1471  0.4735  0.7432
 8181SOL     OW27688   7.059   7.090   5.974 -0.0485 -0.2142  0.2342
 8181SOL    HW127689   7.012   7.060   5.896 -0.4923 -0.0717  0.4462
 8181SOL    HW227690   7.125   7.151   5.941  1.4336 -1.9984 -0.3141
 8182SOL     OW27691   3.847   0.098   3.271 -0.2629  0.2658 -0.0532
 8182SOL    HW127692   3.773   0.043   3.247 -1.4680  1.2023  1.3428
 8182SOL    HW227693   3.875   0.138   3.188 -1.2680 -0.1591 -0.6145
 8183SOL     OW27694   5.509   6.568   7.802  0.1112 -0.7848 -0.2615
 8183SOL    HW127695   5.546   6.572   7.714  1.8316 -0.5279  0.4366
 8183SOL    HW227696   5.535   6.650   7.844 -0.9654 -0.7531  0.3872
 8184SOL     OW27697   3.964   1.477   0.016  0.1954  0.2902  0.4101
 8184SOL    HW127698   3.916   1.396   0.036  0.0962  0.4728  0.9282
 8184SOL    HW227699   3.928   1.541   0.077 -0.8385  1.1396 -1.0074
 8185SOL     OW27700   0.018   2.631   5.208  0.2237 -0.1172 -0.5588
 8185SOL    HW127701  -0.025   2.634   5.122  0.3006 -0.3035 -0.6054
 8185SOL    HW227702   0.111   2.619   5.188  0.6804  2.8168 -0.5422
 8186SOL     OW27703   7.058   1.287   3.755 -0.6466 -0.0158  0.0879
 8186SOL    HW127704   7.009   1.209   3.784 -0.9930  0.2536  0.2382
 8186SOL    HW227705   7.021   1.358   3.807  0.8976 -0.0244  1.2512
 8187SOL     OW27706   5.141   5.010   6.764  0.4780  0.0564 -0.0514
 8187SOL    HW127707   5.102   4.998   6.851  0.1745 -1.2672 -0.3455
 8187SOL    HW227708   5.094   5.085   6.727 -0.4919 -0.3477  0.3251
 8188SOL     OW27709   2.111   0.149   7.425 -0.6803 -0.3377 -0.1277
 8188SOL    HW127710   2.187   0.138   7.368 -0.1660  1.7390  0.0792
 8188SOL    HW227711   2.042   0.184   7.368 -0.3603  1.1260  0.3282
 8189SOL     OW27712   5.628   6.995   0.111 -0.5528 -0.2266  0.5141
 8189SOL    HW127713   5.560   7.029   0.052 -0.9966  3.4820  2.8555
 8189SOL    HW227714   5.707   7.043   0.085 -0.6584  1.1264  2.5287
 8190SOL     OW27715   1.186   1.415   4.732  0.7526  0.5858 -0.6820
 8190SOL    HW127716   1.268   1.458   4.755  1.7565 -1.8991  0.8317
 8190SOL    HW227717   1.118   1.473   4.766  2.0108  1.0815  1.1442
 8191SOL     OW27718   1.199   5.496   6.244 -0.2068  0.0393 -0.7055
 8191SOL    HW127719   1.107   5.519   6.256 -0.0531  0.3067 -0.0103
 8191SOL    HW227720   1.219   5.437   6.316  0.3224  0.4475 -0.5051
 8192SOL     OW27721   4.239   6.326   5.819 -0.0204 -0.2287  0.2710
 8192SOL    HW127722   4.147   6.347   5.801 -0.1174 -0.3680  0.6070
 8192SOL    HW227723   4.255   6.362   5.906  0.8365  1.6795 -0.5992
 8193SOL     OW27724   4.878   6.557   1.227  0.2272 -0.6488 -0.0352
 8193SOL    HW127725   4.869   6.498   1.302 -0.5301  0.2245  0.5930
 8193SOL    HW227726   4.792   6.554   1.184  0.9511 -1.8752 -1.4483
 8194SOL     OW27727   7.403   5.247   2.443  0.2376 -0.1371 -0.3227
 8194SOL    HW127728   7.424   5.313   2.510  1.1103 -1.3629  0.6557
 8194SOL    HW227729   7.312   5.265   2.420 -0.3861 -0.2062  1.8529
 8195SOL     OW27730   6.434   3.243   7.442  0.2945 -0.0982 -0.1508
 8195SOL    HW127731   6.353   3.264   7.396  0.7036 -0.0013 -0.8553
 8195SOL    HW227732   6.469   3.328   7.468  0.3696 -0.1091 -0.2135
 8196SOL     OW27733   0.909   6.367   0.885  0.5836  0.2691 -0.2554
 8196SOL    HW127734   0.885   6.401   0.798 -0.5191  1.1241  0.3516
 8196SOL    HW227735   0.839   6.305   0.906 -0.3234  1.5984  0.8597
 8197SOL     OW27736   7.869   4.282   7.961 -0.8541  0.2149 -0.3100
 8197SOL    HW127737   7.887   4.247   8.048 -0.5110 -1.0538 -0.8783
 8197SOL    HW227738   7.774   4.293   7.958 -0.8740  0.1888  0.1837
 8198SOL     OW27739   4.572   4.817   1.256  0.1275  0.5172  0.2036
 8198SOL    HW127740   4.566   4.766   1.175  0.4341 -1.4087  1.3099
 8198SOL    HW227741   4.495   4.873   1.256 -1.2491 -1.2970 -0.2439
 8199SOL     OW27742   0.527   7.615   3.935 -0.2319 -0.0317  0.0912
 8199SOL    HW127743   0.517   7.655   3.848 -3.2436 -1.7931 -0.4988
 8199SOL    HW227744   0.487   7.529   3.926  1.7208 -1.3082  2.5955
 8200SOL     OW27745   3.445   0.129   3.987 -0.2652  0.2167  0.2228
 8200SOL    HW127746   3.440   0.053   3.928  2.6740  1.5898 -2.0855
 8200SOL    HW227747   3.370   0.183   3.962 -0.3135 -0.2467 -0.7032
 8201SOL     OW27748   0.675   4.263   5.751 -0.0187 -0.6225  0.0066
 8201SOL    HW127749   0.758   4.219   5.732  0.3171  0.3545 -0.9554
 8201SOL    HW227750   0.608   4.196   5.738  0.4485 -0.8009 -1.7859
 8202SOL     OW27751   6.590   2.654   3.541  0.3566  0.5228 -0.2675
 8202SOL    HW127752   6.586   2.559   3.554 -2.1809  0.5682 -0.1891
 8202SOL    HW227753   6.499   2.680   3.525  1.0280  2.9133 -0.6166
 8203SOL     OW27754   4.283   2.866   7.852 -0.0988  0.2376 -0.1651
 8203SOL    HW127755   4.330   2.936   7.896  1.3852  0.3419 -1.7858
 8203SOL    HW227756   4.270   2.799   7.919  0.5097  1.1080  0.8395
 8204SOL     OW27757   3.187   1.536   2.228 -0.5998 -0.1979  0.5270
 8204SOL    HW127758   3.128   1.553   2.301  2.1465 -0.1454  2.8802
 8204SOL    HW227759   3.197   1.441   2.227  0.5373 -0.1050  1.2669
 8205SOL     OW27760   1.612   1.005   2.047  0.5928 -0.6710  0.4920
 8205SOL    HW127761   1.573   0.980   1.963 -0.2073 -1.9720  1.1951
 8205SOL    HW227762   1.559   0.958   2.112  2.0869 -0.8527  1.6334
 8206SOL     OW27763   2.837   8.084   4.439 -0.0471 -0.0998  0.6185
 8206SOL    HW127764   2.865   8.073   4.348 -0.4884 -2.8572  0.7410
 8206SOL    HW227765   2.870   8.171   4.464 -0.5153  1.0474 -2.3430
 8207SOL     OW27766   7.568   4.781   5.549 -0.0379  0.4564  0.0211
 8207SOL    HW127767   7.663   4.768   5.551  0.5036  3.6428  0.4280
 8207SOL    HW227768   7.540   4.769   5.640 -0.2365 -1.3322 -0.2363
 8208SOL     OW27769   7.911   1.491   3.844  0.4408 -0.7007 -0.4215
 8208SOL    HW127770   7.865   1.569   3.812 -0.5857 -1.3163 -0.4669
 8208SOL    HW227771   7.896   1.492   3.939  0.5000 -0.7978 -0.4116
 8209SOL     OW27772   2.354   2.326   4.095 -0.2521 -0.0160 -0.5500
 8209SOL    HW127773   2.434   2.329   4.042 -0.6828  1.0908 -1.1456
 8209SOL    HW227774   2.332   2.417   4.112  0.0800 -0.3038  1.8890
 8210SOL     OW27775   0.784   3.788   6.749 -0.3857 -0.2524 -0.2424
 8210SOL    HW127776   0.815   3.698   6.759  0.9004  0.4769  3.8931
 8210SOL    HW227777   0.701   3.790   6.796  0.4421  1.0591  1.2417
 8211SOL     OW27778   0.020   6.561   3.059 -0.0554 -0.1235  0.3369
 8211SOL    HW127779  -0.031   6.514   3.125  0.3706  0.0451  0.7933
 8211SOL    HW227780   0.004   6.654   3.078  0.1362 -0.0733  0.2542
 8212SOL     OW27781   2.984   2.328   5.618  0.3676  0.0933 -0.2346
 8212SOL    HW127782   3.031   2.331   5.701  2.7795  3.2594 -1.5208
 8212SOL    HW227783   2.919   2.399   5.625  1.7690  1.5860 -1.5648
 8213SOL     OW27784   2.503   2.559   7.557 -0.4930 -0.5109  0.2421
 8213SOL    HW127785   2.590   2.519   7.549  0.4116  1.1614  0.9889
 8213SOL    HW227786   2.515   2.628   7.622 -2.4068 -0.2370  0.3642
 8214SOL     OW27787   6.839   1.857   3.970  0.6071 -0.1876  0.4688
 8214SOL    HW127788   6.926   1.890   3.989  1.4675 -2.6543  1.3043
 8214SOL    HW227789   6.853   1.785   3.908 -0.8926 -0.2504  0.1508
 8215SOL     OW27790   6.219   7.571   7.614  0.1293  0.1442  0.0599
 8215SOL    HW127791   6.282   7.553   7.545  0.5668 -0.4952  0.6073
 8215SOL    HW227792   6.205   7.486   7.656  0.7268  0.7124  1.4601
 8216SOL     OW27793   0.246   2.884   2.348 -0.1369  0.5631  0.8502
 8216SOL    HW127794   0.314   2.926   2.400 -0.0788 -0.1724  1.3761
 8216SOL    HW227795   0.283   2.800   2.321  0.4913  1.5734 -1.8197
 8217SOL     OW27796   1.385   1.507   7.273 -0.5015 -0.3445 -0.8023
 8217SOL    HW127797   1.401   1.599   7.292 -1.7689 -0.3110  0.1915
 8217SOL    HW227798   1.461   1.480   7.220 -0.5419  1.4739 -1.8531
 8218SOL     OW27799   7.929   5.906   4.884 -0.4728 -0.5749 -0.4954
 8218SOL    HW127800   7.879   5.958   4.948  0.3083  1.7056 -1.6372
 8218SOL    HW227801   7.957   5.829   4.933 -0.6074  0.6822  1.6874
 8219SOL     OW27802   6.678   0.635   6.093 -0.2295  0.5727 -0.0429
 8219SOL    HW127803   6.617   0.576   6.050  0.7525  1.1625 -2.4025
 8219SOL    HW227804   6.623   0.705   6.130 -1.0421  0.8805 -1.7578
 8220SOL     OW27805   7.213   2.581   4.255  0.4702 -0.1059  0.6350
 8220SOL    HW127806   7.283   2.597   4.318 -1.1992  1.9218  2.1255
 8220SOL    HW227807   7.256   2.584   4.170  2.3748 -0.1873  1.5300
 8221SOL     OW27808   1.160   6.640   5.677  0.0187 -0.4892  0.2898
 8221SOL    HW127809   1.075   6.681   5.664  0.4797  0.5026  0.2756
 8221SOL    HW227810   1.141   6.556   5.719 -1.0105 -0.6331 -0.4402
 8222SOL     OW27811   2.381   5.714   7.410 -0.2814  0.0160 -0.5456
 8222SOL    HW127812   2.417   5.629   7.385 -1.6245 -0.4849 -0.8800
 8222SOL    HW227813   2.286   5.703   7.402 -0.6856  0.6240  2.3313
 8223SOL     OW27814   6.217   4.948   7.878  0.4799 -0.1557  0.1385
 8223SOL    HW127815   6.179   4.889   7.943  0.5592 -1.4714 -0.9625
 8223SOL    HW227816   6.226   4.895   7.799 -1.6070  1.9223 -1.6552
 8224SOL     OW27817   3.438   4.957   0.904  0.5400  0.2929  0.2029
 8224SOL    HW127818   3.494   4.988   0.833 -1.1902 -0.8285 -1.7979
 8224SOL    HW227819   3.474   4.871   0.927  1.4590  0.9120  1.1516
 8225SOL     OW27820   1.020   0.191   7.778 -0.7030 -0.2452 -0.5109
 8225SOL    HW127821   1.030   0.169   7.685  0.7498 -1.3337 -0.1268
 8225SOL    HW227822   1.017   0.287   7.779 -0.3025 -0.2001 -1.6570
 8226SOL     OW27823   7.224   6.424   7.997  0.5321  0.0771  0.2001
 8226SOL    HW127824   7.249   6.434   8.089 -0.6114 -2.0226  0.8039
 8226SOL    HW227825   7.297   6.378   7.957  0.3027 -0.5537  0.4921
 8227SOL     OW27826   0.380   8.068   4.322  0.1347  0.1491  0.0160
 8227SOL    HW127827   0.432   8.111   4.254 -0.7593 -0.8946 -1.3743
 8227SOL    HW227828   0.292   8.105   4.312 -0.5447 -1.5859 -0.9052
 8228SOL     OW27829   5.310   3.209   5.209  0.3460  0.2949  0.7478
 8228SOL    HW127830   5.375   3.149   5.172 -0.1258 -0.2869  0.8509
 8228SOL    HW227831   5.277   3.163   5.286 -0.4124  0.4497  0.5167
 8229SOL     OW27832   7.457   5.527   6.718 -0.4354  0.7014 -0.6108
 8229SOL    HW127833   7.510   5.447   6.713  1.4442  1.9098 -0.6893
 8229SOL    HW227834   7.446   5.554   6.626  1.1643  1.9100 -0.4814
 8230SOL     OW27835   3.900   7.814   4.680 -0.0968  0.1035  0.4521
 8230SOL    HW127836   3.861   7.860   4.754 -1.0454 -0.1707  0.1475
 8230SOL    HW227837   3.878   7.722   4.695  2.9331 -0.5332  1.7734
 8231SOL     OW27838   1.153   1.198   7.292 -0.1230  0.0804 -0.3188
 8231SOL    HW127839   1.199   1.253   7.228 -0.9147  1.2644  0.1067
 8231SOL    HW227840   1.064   1.192   7.259 -0.3375  0.0313  0.2694
 8232SOL     OW27841   5.556   7.146   7.290 -0.1569  0.2441 -0.5026
 8232SOL    HW127842   5.591   7.114   7.373 -0.8417 -1.6964 -0.9146
 8232SOL    HW227843   5.601   7.230   7.276 -0.6055  1.0421  2.1885
 8233SOL     OW27844   3.777   2.079   1.758  0.2355  0.4620 -0.5129
 8233SOL    HW127845   3.721   2.156   1.748 -2.3152 -1.1796  0.2463
 8233SOL    HW227846   3.757   2.025   1.681  1.4624  0.1813 -0.6648
 8234SOL     OW27847   3.691   0.737   5.681 -0.1185 -0.4545 -0.6527
 8234SOL    HW127848   3.619   0.673   5.677 -1.7391  1.1473  0.9991
 8234SOL    HW227849   3.714   0.753   5.589 -0.7818 -2.1478 -1.1563
 8235SOL     OW27850   3.886   4.457   1.307  0.1750 -0.0590 -0.0954
 8235SOL    HW127851   3.865   4.539   1.262  3.2658  0.3616 -0.9762
 8235SOL    HW227852   3.830   4.392   1.265 -1.1260  1.2812 -0.5443
 8236SOL     OW27853   4.164   0.787   1.662 -0.2017  0.1361 -0.1631
 8236SOL    HW127854   4.144   0.856   1.725  2.6043  1.0582 -0.1199
 8236SOL    HW227855   4.172   0.832   1.578  1.8541  0.0057 -0.1054
 8237SOL     OW27856   4.706   4.776   0.433  0.4200 -0.0663  0.2166
 8237SOL    HW127857   4.725   4.812   0.347  1.5070 -0.0003  0.4732
 8237SOL    HW227858   4.680   4.852   0.486  0.8265  0.0610  0.2369
 8238SOL     OW27859   2.330   5.062   7.426 -0.0148  0.3155 -0.2791
 8238SOL    HW127860   2.235   5.055   7.421 -0.2369  1.0184  1.9446
 8238SOL    HW227861   2.361   4.971   7.431 -0.6581  0.1107  0.0668
 8239SOL     OW27862   6.257   1.579   6.272 -0.5724 -0.1331 -0.0477
 8239SOL    HW127863   6.244   1.506   6.333  0.2138  0.7725  1.2484
 8239SOL    HW227864   6.169   1.598   6.239 -0.9119 -1.0818  0.2672
 8240SOL     OW27865   0.240   4.507   5.274 -0.0954  0.2468 -0.2646
 8240SOL    HW127866   0.222   4.595   5.309  1.9236  0.6186 -0.0434
 8240SOL    HW227867   0.304   4.470   5.335 -0.1526 -0.9908 -0.9295
 8241SOL     OW27868   3.033   5.316   6.275  0.3289 -0.8521  0.2585
 8241SOL    HW127869   2.962   5.305   6.338  0.6212  1.0972  1.0110
 8241SOL    HW227870   2.993   5.361   6.201  0.2865 -1.9176 -0.3848
 8242SOL     OW27871   3.051   1.881   3.074 -0.7797  0.4801  0.6033
 8242SOL    HW127872   3.071   1.851   3.163 -0.3883 -1.6846 -0.1557
 8242SOL    HW227873   2.956   1.890   3.073 -0.8376 -0.0081  1.0902
 8243SOL     OW27874   2.736   2.055   6.074 -0.0734  0.5708 -0.1983
 8243SOL    HW127875   2.825   2.025   6.059 -0.4265 -1.0918  0.8299
 8243SOL    HW227876   2.744   2.122   6.142  0.1938 -1.4244  1.8406
 8244SOL     OW27877   5.267   7.388   3.881  0.0416 -0.5010 -0.1230
 8244SOL    HW127878   5.346   7.365   3.832 -1.7349 -2.8654 -2.1459
 8244SOL    HW227879   5.251   7.480   3.859  0.0452 -1.0991 -3.0754
 8245SOL     OW27880   0.274   7.539   5.610 -0.5363 -0.3163  0.0772
 8245SOL    HW127881   0.250   7.488   5.532  0.9635  0.4509 -0.9474
 8245SOL    HW227882   0.264   7.477   5.683 -0.7382 -1.4532 -0.8739
 8246SOL     OW27883   5.561   5.571   5.221 -0.0454 -0.6159  0.1246
 8246SOL    HW127884   5.524   5.531   5.143 -0.0361 -1.4778  0.5548
 8246SOL    HW227885   5.600   5.499   5.270 -1.0657 -0.2848  1.4968
 8247SOL     OW27886   4.784   6.487   4.808  0.1695  0.0646  0.0270
 8247SOL    HW127887   4.690   6.499   4.820  0.0829 -0.4292 -0.1441
 8247SOL    HW227888   4.817   6.575   4.791 -0.4623  0.0811 -1.2515
 8248SOL     OW27889   3.653   7.222   2.125  0.3558 -0.1550 -0.6584
 8248SOL    HW127890   3.705   7.145   2.149  0.0062 -0.5460 -1.1224
 8248SOL    HW227891   3.616   7.200   2.040 -1.0400 -0.1349 -0.0905
 8249SOL     OW27892   4.943   3.613   6.703  0.0794  0.1322 -0.6520
 8249SOL    HW127893   5.017   3.566   6.663  0.0455 -1.8553  1.3767
 8249SOL    HW227894   4.929   3.568   6.786 -2.4127  1.4838 -0.2443
 8250SOL     OW27895   0.124   0.216   3.985  0.5351  0.8650 -0.3429
 8250SOL    HW127896   0.043   0.179   4.021  0.2698  1.8433  0.1182
 8250SOL    HW227897   0.111   0.216   3.890 -0.4839  2.0283 -0.2232
 8251SOL     OW27898   0.831   7.141   3.474 -0.0700 -0.4472 -0.2246
 8251SOL    HW127899   0.865   7.053   3.466  0.8486  0.0366 -2.8250
 8251SOL    HW227900   0.810   7.167   3.383 -1.7515  1.4503  0.6107
 8252SOL     OW27901   7.753   4.623   3.053 -0.0071  0.2594  0.0501
 8252SOL    HW127902   7.827   4.574   3.017 -0.6592 -1.3169  0.7478
 8252SOL    HW227903   7.782   4.650   3.140 -0.1616 -0.1647  0.2358
 8253SOL     OW27904   0.033   6.711   3.904 -0.1263 -0.2282  0.1768
 8253SOL    HW127905   0.005   6.782   3.962 -0.4435  0.5435 -0.8845
 8253SOL    HW227906   0.084   6.652   3.960 -0.7491  0.2889  1.3113
 8254SOL     OW27907   6.815   5.746   7.726 -0.0939 -0.1258 -0.2085
 8254SOL    HW127908   6.814   5.650   7.720  0.3383 -0.0917 -0.8658
 8254SOL    HW227909   6.774   5.775   7.645 -2.2873  0.2324  0.9590
 8255SOL     OW27910   5.715   3.506   4.285  0.1763 -0.6670  0.1555
 8255SOL    HW127911   5.634   3.552   4.308  0.9462  0.1569  1.3264
 8255SOL    HW227912   5.718   3.433   4.346 -0.1170 -1.2252 -0.4854
 8256SOL     OW27913   2.142   6.441   0.380 -0.1709 -0.0080  0.2883
 8256SOL    HW127914   2.202   6.410   0.448  0.3928 -0.0729 -0.2186
 8256SOL    HW227915   2.189   6.422   0.298 -1.0088 -0.3009 -0.1301
 8257SOL     OW27916   0.427   3.616   0.734  1.0199  0.1356 -0.2947
 8257SOL    HW127917   0.381   3.646   0.812  0.0379 -0.2508 -0.6995
 8257SOL    HW227918   0.467   3.533   0.760 -0.3975 -0.6637 -0.5304
 8258SOL     OW27919   2.065   7.407   0.467  0.0715 -0.3997  0.0809
 8258SOL    HW127920   2.066   7.502   0.478  0.3894 -0.4789  0.7166
 8258SOL    HW227921   1.972   7.385   0.457  0.1060  0.2173 -2.2733
 8259SOL     OW27922   7.600   4.204   3.533 -0.4375  0.0186 -0.1277
 8259SOL    HW127923   7.514   4.224   3.569 -0.5455 -1.6894  0.6383
 8259SOL    HW227924   7.599   4.242   3.445 -1.3624  1.4055  0.4425
 8260SOL     OW27925   1.353   7.261   4.729  0.3571 -0.8068  0.1703
 8260SOL    HW127926   1.352   7.176   4.684 -1.0668 -0.4568 -0.5121
 8260SOL    HW227927   1.306   7.320   4.670 -0.0303  0.0930  1.3370
 8261SOL     OW27928   1.655   1.781   6.536 -0.0783  0.3604 -0.0276
 8261SOL    HW127929   1.576   1.753   6.489 -0.0893  0.9183 -0.3592
 8261SOL    HW227930   1.680   1.705   6.588 -1.0970  0.3216  0.4450
 8262SOL     OW27931   0.167   2.573   0.769 -0.1200  0.1325 -0.6403
 8262SOL    HW127932   0.167   2.509   0.697 -0.2760  0.4003 -0.8826
 8262SOL    HW227933   0.087   2.624   0.755 -2.2275 -2.1604  1.8503
 8263SOL     OW27934   3.414   1.720   7.281  0.8180 -0.1096  0.0947
 8263SOL    HW127935   3.419   1.760   7.195  0.7951  0.6074  0.4204
 8263SOL    HW227936   3.506   1.712   7.309  0.7660  2.0672  1.0786
 8264SOL     OW27937   1.612   7.969   5.166  0.8796  0.4779  0.2271
 8264SOL    HW127938   1.663   7.946   5.088 -0.0112 -0.2070 -0.1723
 8264SOL    HW227939   1.558   8.043   5.138 -0.8510 -0.9608 -0.4431
 8265SOL     OW27940   1.281   1.936   4.145 -0.1521 -0.4849 -0.2910
 8265SOL    HW127941   1.312   2.012   4.194 -0.2877 -0.0213 -0.9145
 8265SOL    HW227942   1.270   1.867   4.211 -0.1173  0.0627  0.2881
 8266SOL     OW27943   7.261   2.889   0.693  0.3619  0.6614  0.1846
 8266SOL    HW127944   7.169   2.883   0.719  1.0871 -0.9713  2.6896
 8266SOL    HW227945   7.275   2.812   0.637  0.6496 -0.2351  1.4582
 8267SOL     OW27946   2.382   3.706   3.307  0.0625 -0.0710 -0.4138
 8267SOL    HW127947   2.392   3.691   3.402  0.5610 -0.7784 -0.5690
 8267SOL    HW227948   2.470   3.733   3.279  0.2020 -0.9834 -0.8691
 8268SOL     OW27949   1.763   5.121   7.024  0.1450 -0.2174 -0.4317
 8268SOL    HW127950   1.749   5.125   7.119  1.3901  2.6163 -0.2549
 8268SOL    HW227951   1.676   5.112   6.987 -0.6546  1.3500  0.9416
 8269SOL     OW27952   0.438   6.763   3.334  0.6444  0.1179  0.3772
 8269SOL    HW127953   0.359   6.779   3.282  1.6365  1.9770 -0.6467
 8269SOL    HW227954   0.430   6.671   3.362 -1.6605  0.1344 -0.0160
 8270SOL     OW27955   3.436   0.700   6.055 -0.1510  0.0210 -0.2053
 8270SOL    HW127956   3.350   0.691   6.097  0.0726  0.7611  0.4225
 8270SOL    HW227957   3.436   0.788   6.017  0.6146  0.3264  0.4740
 8271SOL     OW27958   6.106   5.764   0.188  0.9983  0.2642  0.1592
 8271SOL    HW127959   6.080   5.813   0.110 -0.5714  0.5495  0.8305
 8271SOL    HW227960   6.032   5.706   0.207  1.4243  0.0604  1.3228
 8272SOL     OW27961   2.425   0.187   0.931 -0.3571  0.0942 -0.4937
 8272SOL    HW127962   2.402   0.263   0.985 -0.1970  1.0754 -1.7586
 8272SOL    HW227963   2.383   0.113   0.975  0.8077  0.6292  1.6591
 8273SOL     OW27964   0.552   1.461   5.201 -0.2278 -0.0783 -0.0461
 8273SOL    HW127965   0.645   1.442   5.201  0.0495  1.1841  0.3276
 8273SOL    HW227966   0.509   1.376   5.214  0.9608 -0.2830  3.6301
 8274SOL     OW27967   7.614   3.867   6.410 -0.1950 -0.2248 -0.0163
 8274SOL    HW127968   7.553   3.835   6.343 -0.5159 -0.6345  0.4579
 8274SOL    HW227969   7.635   3.789   6.461 -0.5696  0.2197  0.8365
 8275SOL     OW27970   3.220   0.176   7.387  0.3303 -0.9310 -0.2240
 8275SOL    HW127971   3.228   0.150   7.478 -0.1671 -0.1742  0.0537
 8275SOL    HW227972   3.309   0.173   7.352  0.6073 -0.6839  0.4469
 8276SOL     OW27973   5.726   5.585   2.810  0.3438  0.5791  0.3784
 8276SOL    HW127974   5.724   5.656   2.746 -2.6866  0.3320  0.0477
 8276SOL    HW227975   5.731   5.505   2.756  2.3169  0.4309  0.6989
 8277SOL     OW27976   1.041   4.149   7.668  0.0986 -0.5793 -0.3140
 8277SOL    HW127977   0.956   4.108   7.683 -0.2180  0.2928  0.3723
 8277SOL    HW227978   1.104   4.076   7.671 -0.6751 -1.3510 -1.6337
 8278SOL     OW27979   5.683   2.059   4.832 -0.1370  0.0068  0.0960
 8278SOL    HW127980   5.733   2.081   4.754  1.7129  0.2699  1.3121
 8278SOL    HW227981   5.736   1.994   4.878 -1.0217  0.0868  1.3032
 8279SOL     OW27982   6.771   2.460   4.125 -0.1932 -0.0045 -0.3075
 8279SOL    HW127983   6.847   2.436   4.178 -0.6238  0.6168  0.6331
 8279SOL    HW227984   6.808   2.490   4.042  0.5336 -0.4896 -0.1711
 8280SOL     OW27985   3.952   5.062   7.921 -0.1038 -0.7686 -0.5068
 8280SOL    HW127986   4.032   5.038   7.968  0.9354  1.3159 -1.0650
 8280SOL    HW227987   3.927   4.982   7.875  0.8142 -1.8834  0.8357
 8281SOL     OW27988   2.334   0.271   1.480  0.0850  0.6079 -0.1376
 8281SOL    HW127989   2.425   0.245   1.467  0.2542  0.7372  0.7071
 8281SOL    HW227990   2.336   0.327   1.557 -0.3049  2.9121 -1.6965
 8282SOL     OW27991   5.332   4.136   7.000  0.1146 -0.4711 -0.5279
 8282SOL    HW127992   5.371   4.085   7.071 -2.1339 -1.1297  0.3164
 8282SOL    HW227993   5.318   4.073   6.929 -2.3928 -1.0730  0.4080
 8283SOL     OW27994   1.911   2.477   5.893  0.2571  0.2671  0.5839
 8283SOL    HW127995   1.924   2.383   5.886  0.2731  0.3064 -0.0164
 8283SOL    HW227996   1.816   2.489   5.902  0.2999  0.1699  1.1830
 8284SOL     OW27997   7.775   3.618   7.605 -0.2903  0.3154  0.1407
 8284SOL    HW127998   7.697   3.674   7.602  0.6288  1.6819  0.4274
 8284SOL    HW227999   7.753   3.548   7.666 -0.8219  1.4879  1.3349
 8285SOL     OW28000   2.736   6.954   7.484 -0.0307 -0.9254 -0.4543
 8285SOL    HW128001   2.766   7.027   7.538  0.7802 -1.6076  0.0407
 8285SOL    HW228002   2.737   6.988   7.394 -0.5294 -0.0626 -0.1407
 8286SOL     OW28003   6.134   0.734   1.640  0.6314 -0.6764  0.0509
 8286SOL    HW128004   6.041   0.714   1.654  0.0548  1.9911  0.4183
 8286SOL    HW228005   6.143   0.736   1.544  0.1912 -0.4100  0.0113
 8287SOL     OW28006   0.086   5.358   1.057 -0.4357  0.5531  0.0354
 8287SOL    HW128007   0.181   5.354   1.052 -0.4724 -4.2523 -1.2404
 8287SOL    HW228008   0.065   5.334   1.147 -0.5302  1.4818  0.2797
 8288SOL     OW28009   0.708   0.772   0.451  0.0065 -0.2228  0.0865
 8288SOL    HW128010   0.643   0.775   0.522 -0.7847  0.0210 -0.6376
 8288SOL    HW228011   0.685   0.846   0.395  0.7659 -0.2854 -0.3114
 8289SOL     OW28012   7.840   5.731   3.031 -0.4961 -0.3694 -0.2796
 8289SOL    HW128013   7.778   5.804   3.027  0.0732  0.1122 -0.6586
 8289SOL    HW228014   7.810   5.671   2.963  0.8574  1.0468 -2.2588
 8290SOL     OW28015   1.017   0.467   2.345  0.2294  0.3554 -0.3198
 8290SOL    HW128016   0.982   0.459   2.257 -1.1174 -0.3628  0.2564
 8290SOL    HW228017   1.084   0.400   2.351  0.8681  0.9116 -1.0279
 8291SOL     OW28018   0.469   0.154   3.265 -0.2884  0.1400  0.1404
 8291SOL    HW128019   0.438   0.239   3.297 -1.9938 -0.4352  0.1305
 8291SOL    HW228020   0.423   0.090   3.320  2.4158 -0.8210  1.4599
 8292SOL     OW28021   7.859   0.654   5.436  0.1283  0.1891  0.2349
 8292SOL    HW128022   7.942   0.702   5.429  0.7453 -0.8618  0.1305
 8292SOL    HW228023   7.871   0.577   5.380  0.3412 -1.7136  2.7579
 8293SOL     OW28024   7.415   5.889   4.721 -0.2271 -0.3324 -0.1499
 8293SOL    HW128025   7.391   5.857   4.634  2.8808  0.8845 -1.5843
 8293SOL    HW228026   7.473   5.822   4.756 -0.4950 -0.2344  0.5021
 8294SOL     OW28027   4.174   0.934   4.791 -0.4600  0.6035 -0.2397
 8294SOL    HW128028   4.162   0.984   4.710  0.5320  0.1666 -0.6771
 8294SOL    HW228029   4.094   0.950   4.841 -1.2062  0.6939 -1.4114
 8295SOL     OW28030   4.406   6.234   5.623 -0.5226  0.0178 -0.2725
 8295SOL    HW128031   4.424   6.143   5.646 -2.1811 -0.2979 -0.0811
 8295SOL    HW228032   4.359   6.269   5.698  2.2448  1.8439  0.7683
 8296SOL     OW28033   6.888   2.156   1.378  0.0254 -0.7306  0.4784
 8296SOL    HW128034   6.953   2.170   1.447  1.5962 -0.8788 -0.9070
 8296SOL    HW228035   6.936   2.108   1.310 -1.3241 -0.1541 -0.9287
 8297SOL     OW28036   6.001   1.927   6.456  0.1297  0.2680  0.0811
 8297SOL    HW128037   5.990   2.009   6.505 -0.1933  1.0485 -1.2520
 8297SOL    HW228038   5.912   1.898   6.439  0.2348 -0.8508  1.2795
 8298SOL     OW28039   4.496   3.031   4.553 -0.2720  0.0941  0.5361
 8298SOL    HW128040   4.504   3.020   4.458 -3.0207  1.2519  0.0616
 8298SOL    HW228041   4.519   3.123   4.569  0.5397 -0.1900  1.0719
 8299SOL     OW28042   6.539   0.843   3.551 -0.1452  0.3490  0.2574
 8299SOL    HW128043   6.469   0.831   3.486 -1.8899  0.1714  2.0924
 8299SOL    HW228044   6.608   0.889   3.503 -2.2776  2.3085 -1.1367
 8300SOL     OW28045   3.898   4.313   8.091  0.1890  0.3608  0.3999
 8300SOL    HW128046   3.845   4.234   8.087  0.9510 -0.2147  1.2560
 8300SOL    HW228047   3.955   4.308   8.013 -0.0701  0.3009  0.2130
 8301SOL     OW28048   4.868   2.065   6.778  0.4847 -0.0137  0.0651
 8301SOL    HW128049   4.845   2.066   6.685  0.6736 -1.9261 -0.0512
 8301SOL    HW228050   4.934   2.134   6.788 -0.7235  1.3221 -0.8590
 8302SOL     OW28051   4.722   0.485   2.432 -0.1378 -0.1158  0.1139
 8302SOL    HW128052   4.782   0.472   2.358 -0.5685 -2.5175  0.0879
 8302SOL    HW228053   4.776   0.466   2.509 -0.2200  0.2811  0.2671
 8303SOL     OW28054   2.347   7.310   6.755 -0.1421  0.4326  0.2805
 8303SOL    HW128055   2.427   7.273   6.792 -0.9072 -0.1684  1.3854
 8303SOL    HW228056   2.280   7.243   6.771 -0.6742  0.4775 -1.5341
 8304SOL     OW28057   5.510   2.317   5.853 -0.1873  0.1587  0.5456
 8304SOL    HW128058   5.524   2.222   5.852  1.9400  0.4176  0.6327
 8304SOL    HW228059   5.435   2.331   5.795  0.2737 -1.4765 -0.5245
 8305SOL     OW28060   4.116   2.135   3.372 -0.0730  0.0799 -0.7288
 8305SOL    HW128061   4.101   2.227   3.351 -2.5159 -0.1333 -0.2509
 8305SOL    HW228062   4.090   2.088   3.292  2.2281 -0.1964 -1.3739
 8306SOL     OW28063   7.147   0.551   1.290  0.0638  0.2633  0.0978
 8306SOL    HW128064   7.214   0.483   1.288 -0.3311 -0.2827  2.7139
 8306SOL    HW228065   7.164   0.600   1.371 -1.7003  1.1510 -0.0196
 8307SOL     OW28066   3.948   3.936   0.172  0.4856  0.1120 -0.1060
 8307SOL    HW128067   3.905   3.952   0.256 -1.0391  0.1993 -0.8588
 8307SOL    HW228068   3.897   3.865   0.132  1.8362 -0.6658 -0.5252
 8308SOL     OW28069   1.917   0.322   3.136  0.0592 -0.2494 -0.1763
 8308SOL    HW128070   1.873   0.357   3.059  0.6768  2.0363  0.4347
 8308SOL    HW228071   1.992   0.273   3.100 -0.8492 -1.0356 -1.0659
 8309SOL     OW28072   7.821   3.549   3.045  0.0405  0.1052 -0.2262
 8309SOL    HW128073   7.730   3.563   3.071 -0.7121  1.9107 -3.2535
 8309SOL    HW228074   7.832   3.454   3.046 -0.9122 -0.1079  2.8021
 8310SOL     OW28075   2.777   7.925   1.196  0.1529  0.4318 -0.3118
 8310SOL    HW128076   2.830   7.866   1.142  1.3960  1.7745 -0.6487
 8310SOL    HW228077   2.795   8.012   1.159 -2.4759  0.9371 -0.5606
 8311SOL     OW28078   0.498   1.405   4.414  0.7949 -0.0736 -0.1266
 8311SOL    HW128079   0.483   1.468   4.484  1.6166  0.2334 -0.2167
 8311SOL    HW228080   0.431   1.424   4.349  0.3492 -0.0249  0.3352
 8312SOL     OW28081   6.018   2.188   5.650 -0.0500  0.0018  0.2828
 8312SOL    HW128082   5.923   2.180   5.664 -0.0945 -1.0496 -0.4698
 8312SOL    HW228083   6.030   2.278   5.620 -0.6590  0.4859  1.4233
 8313SOL     OW28084   1.023   1.849   5.157  0.0100  0.1159 -0.3423
 8313SOL    HW128085   0.965   1.795   5.211 -0.1764  2.1888  1.6984
 8313SOL    HW228086   0.965   1.888   5.091 -0.1199 -0.9698 -0.8883
 8314SOL     OW28087   7.687   7.236   6.564 -0.4650 -0.4290 -0.2644
 8314SOL    HW128088   7.778   7.229   6.534 -0.3586 -1.1742  0.2012
 8314SOL    HW228089   7.682   7.321   6.608  0.2416 -0.7680  0.4822
 8315SOL     OW28090   7.522   7.623   6.524  0.2105  0.2119  0.1590
 8315SOL    HW128091   7.564   7.655   6.605 -0.5788  1.7428 -0.0185
 8315SOL    HW228092   7.430   7.647   6.534 -0.5921 -2.5779  0.2651
 8316SOL     OW28093   3.348   5.806   7.567 -0.5151 -0.0676  0.1724
 8316SOL    HW128094   3.315   5.731   7.617  0.1808 -0.6437 -0.2096
 8316SOL    HW228095   3.327   5.784   7.476  1.8975 -1.0294 -0.2323
 8317SOL     OW28096   6.169   6.696   3.417 -0.2048  0.3261 -0.1853
 8317SOL    HW128097   6.241   6.675   3.477  1.3146  0.6195 -1.7909
 8317SOL    HW228098   6.213   6.738   3.343 -2.1894  1.4730 -0.7731
 8318SOL     OW28099   7.981   6.182   4.220  0.0685 -0.9947  0.3576
 8318SOL    HW128100   7.933   6.104   4.194  0.5903 -1.5015  0.8942
 8318SOL    HW228101   8.017   6.162   4.306 -0.7311  0.2682  1.0076
 8319SOL     OW28102   6.038   0.981   7.615 -0.2713  0.6353 -0.0757
 8319SOL    HW128103   6.045   0.996   7.520 -0.7041  0.6269 -0.1096
 8319SOL    HW228104   5.984   0.903   7.623  0.7986 -0.1125  0.1461
 8320SOL     OW28105   0.895   0.416   6.654 -0.9729 -0.5967  0.0968
 8320SOL    HW128106   0.948   0.345   6.618 -0.0946  0.5230 -0.8845
 8320SOL    HW228107   0.928   0.427   6.744  1.4997  0.9647 -0.9051
 8321SOL     OW28108   7.315   3.331   6.752  0.4185 -0.0036 -0.0874
 8321SOL    HW128109   7.272   3.257   6.794  0.4595  0.2268  0.3571
 8321SOL    HW228110   7.355   3.293   6.673  0.8865 -0.5647  0.4106
 8322SOL     OW28111   2.226   1.852   7.579  0.6398 -0.1621  0.4008
 8322SOL    HW128112   2.190   1.934   7.545 -1.0177 -0.9763  0.0905
 8322SOL    HW228113   2.298   1.879   7.636 -0.9440  1.6155  1.6578
 8323SOL     OW28114   6.892   5.610   7.385  0.4206 -0.0505 -0.0295
 8323SOL    HW128115   6.977   5.571   7.366  1.1485  1.4345  0.0304
 8323SOL    HW228116   6.857   5.558   7.458  1.7610 -0.0078  0.6686
 8324SOL     OW28117   4.688   3.700   0.473  0.0131  0.8460 -0.0711
 8324SOL    HW128118   4.646   3.762   0.532  0.3169 -0.3681  1.4687
 8324SOL    HW228119   4.648   3.718   0.387 -2.3743  0.9111  0.9836
 8325SOL     OW28120   2.968   6.586   7.302  0.1921 -0.0954 -0.4430
 8325SOL    HW128121   2.888   6.602   7.351  0.1013 -1.4601 -0.1212
 8325SOL    HW228122   2.939   6.581   7.211  0.0138  0.0679 -0.3967
 8326SOL     OW28123   3.400   6.461   0.591 -0.3757 -0.2417  0.2698
 8326SOL    HW128124   3.388   6.545   0.635 -0.8356  0.3407 -0.9303
 8326SOL    HW228125   3.425   6.483   0.502 -0.9867 -1.3591 -0.2066
 8327SOL     OW28126   5.995   3.833   6.274  0.4852 -0.0130  0.2941
 8327SOL    HW128127   5.980   3.742   6.300 -1.3477  0.3750  0.7903
 8327SOL    HW228128   5.927   3.882   6.321  3.1914  2.0374  2.3650
 8328SOL     OW28129   6.115   4.526   4.359  0.2845 -0.2190 -0.2697
 8328SOL    HW128130   6.170   4.531   4.437 -0.4602  0.0488  0.2490
 8328SOL    HW228131   6.175   4.503   4.289  1.2911  1.3074  0.0504
 8329SOL     OW28132   5.940   7.407   7.449  0.4727 -0.8913  0.2728
 8329SOL    HW128133   5.848   7.384   7.437  0.3983 -0.5062  0.0969
 8329SOL    HW228134   5.963   7.368   7.534  0.1729 -1.0544  0.2837
 8330SOL     OW28135   3.273   5.378   3.166  0.1340 -0.2769  0.3009
 8330SOL    HW128136   3.219   5.300   3.153 -0.1662 -0.1748  0.8848
 8330SOL    HW228137   3.337   5.351   3.233 -0.1533  0.0585  0.7182
 8331SOL     OW28138   2.381   0.797   7.309  0.1197 -0.5118  0.4522
 8331SOL    HW128139   2.342   0.882   7.331  1.4881  0.0565  0.7789
 8331SOL    HW228140   2.457   0.789   7.367  1.4646 -0.8214 -1.2640
 8332SOL     OW28141   4.840   3.646   5.468  0.4138  0.0459  0.1163
 8332SOL    HW128142   4.787   3.725   5.458 -0.7131 -0.8092 -0.8345
 8332SOL    HW228143   4.918   3.662   5.415 -0.9129 -0.4024 -2.0850
 8333SOL     OW28144   3.228   0.031   3.063 -0.4654  0.0740 -0.3708
 8333SOL    HW128145   3.145   0.007   3.104  0.1783  1.8973  2.2130
 8333SOL    HW228146   3.211   0.116   3.022  0.2310  0.7119  0.6320
 8334SOL     OW28147   1.851   2.995   3.321  0.0801  0.0503 -0.3248
 8334SOL    HW128148   1.857   3.001   3.417  0.5159 -1.5161 -0.2232
 8334SOL    HW228149   1.763   3.025   3.300  0.5427  2.0650  0.3858
 8335SOL     OW28150   5.655   6.997   5.529  0.0063 -0.7041  0.2121
 8335SOL    HW128151   5.630   6.944   5.453 -1.4203 -1.1499  0.9626
 8335SOL    HW228152   5.725   6.946   5.570  0.3322 -0.7886 -0.4335
 8336SOL     OW28153   4.813   1.782   4.032  0.2960  0.2766 -0.1644
 8336SOL    HW128154   4.845   1.734   4.109  1.9341 -0.9785 -1.5320
 8336SOL    HW228155   4.892   1.817   3.991 -0.4456  0.2497 -1.7024
 8337SOL     OW28156   6.635   4.807   1.161  0.0251  0.3644 -0.3119
 8337SOL    HW128157   6.632   4.866   1.086  0.3783  0.1202 -0.5233
 8337SOL    HW228158   6.600   4.859   1.234 -0.8011  0.4342 -0.7484
 8338SOL     OW28159   5.125   7.044   6.985 -0.3080 -0.4022 -0.3316
 8338SOL    HW128160   5.202   7.041   7.043 -1.1563 -2.3025  0.7953
 8338SOL    HW228161   5.089   7.132   6.998  0.8297  0.0031  0.2665
 8339SOL     OW28162   5.033   2.982   7.783 -0.2857 -0.7678 -0.2438
 8339SOL    HW128163   5.053   3.057   7.840 -1.3264  0.1581 -1.0534
 8339SOL    HW228164   4.951   3.005   7.741  0.3254 -1.5342 -1.9397
 8340SOL     OW28165   1.789   1.005   0.245  0.3139  0.1209  0.1822
 8340SOL    HW128166   1.842   1.084   0.232  1.1446  0.0523  2.6201
 8340SOL    HW228167   1.826   0.941   0.184 -0.2316  1.4973 -1.6832
 8341SOL     OW28168   1.069   5.580   3.933  0.0736 -0.0171  0.8309
 8341SOL    HW128169   1.079   5.549   4.023  0.1217 -0.7715  0.5695
 8341SOL    HW228170   0.974   5.592   3.922  0.1079  0.5870  1.1419
 8342SOL     OW28171   7.670   0.627   2.964  0.1992 -0.0839 -0.0007
 8342SOL    HW128172   7.737   0.563   2.987 -0.2818 -0.2061  1.1464
 8342SOL    HW228173   7.664   0.623   2.869  1.5276 -0.3518 -0.0854
 8343SOL     OW28174   5.240   1.353   6.749  0.5041  0.4244  0.1032
 8343SOL    HW128175   5.192   1.396   6.819  0.4764  0.5953 -0.0189
 8343SOL    HW228176   5.292   1.285   6.793  0.5740  0.6063  0.3033
 8344SOL     OW28177   2.004   3.676   7.134 -0.4519 -0.9075 -0.4242
 8344SOL    HW128178   1.982   3.622   7.209  1.7249 -1.6267 -0.2356
 8344SOL    HW228179   2.014   3.615   7.061  0.8755 -0.6636 -0.4767
 8345SOL     OW28180   0.084   2.594   1.428  0.2742  0.2626  0.2702
 8345SOL    HW128181   0.018   2.584   1.360  0.3875 -0.9527  0.3286
 8345SOL    HW228182   0.166   2.602   1.380  0.5125 -1.8205  0.2442
 8346SOL     OW28183   0.760   4.043   2.740  0.5610  0.4077 -0.0288
 8346SOL    HW128184   0.836   4.051   2.682  1.7150  0.0913  1.3641
 8346SOL    HW228185   0.745   4.132   2.772 -1.8966  1.1948 -2.8643
 8347SOL     OW28186   1.556   4.693   2.559 -0.5601  0.3278  0.1646
 8347SOL    HW128187   1.641   4.657   2.534  0.0054  0.8581  1.2599
 8347SOL    HW228188   1.534   4.647   2.640 -0.5057  1.3981  0.8049
 8348SOL     OW28189   4.514   2.383   4.667 -0.3306 -0.1404  0.3617
 8348SOL    HW128190   4.442   2.419   4.616  0.3680  0.3780 -0.2704
 8348SOL    HW228191   4.565   2.459   4.695 -0.9580 -0.3627  2.2757
 8349SOL     OW28192   1.344   7.174   8.002  0.4516 -0.0253 -0.5903
 8349SOL    HW128193   1.368   7.252   7.951  0.7557  0.0636 -0.3124
 8349SOL    HW228194   1.427   7.140   8.033  0.3463 -0.6361 -0.9571
 8350SOL     OW28195   7.818   1.305   4.289  0.2433  0.0238  0.0657
 8350SOL    HW128196   7.801   1.340   4.377  1.1348 -3.6566  1.9168
 8350SOL    HW228197   7.731   1.303   4.247 -0.4682  0.4734  1.4571
 8351SOL     OW28198   7.778   1.049   1.758  0.7740 -0.5140  0.1615
 8351SOL    HW128199   7.747   0.960   1.745  1.3388 -0.6695 -0.1194
 8351SOL    HW228200   7.702   1.095   1.794  0.4992 -1.1182  0.3691
 8352SOL     OW28201   7.318   4.901   1.605 -0.2641 -0.3435  0.5812
 8352SOL    HW128202   7.364   4.818   1.612 -0.1904 -0.4074 -0.4967
 8352SOL    HW228203   7.245   4.884   1.545 -3.1780 -0.8479  3.9106
 8353SOL     OW28204   4.573   1.162   7.650  0.2194 -0.2000  0.0655
 8353SOL    HW128205   4.531   1.099   7.592  0.2389 -0.5022  0.3807
 8353SOL    HW228206   4.546   1.248   7.616  0.1035 -0.3792 -0.2932
 8354SOL     OW28207   7.090   0.482   2.905 -0.5097 -0.1127 -0.6536
 8354SOL    HW128208   7.065   0.551   2.844 -0.7386  0.2426 -0.1591
 8354SOL    HW228209   7.094   0.525   2.990  3.5300  0.2972 -0.8920
 8355SOL     OW28210   0.505   1.176   5.246  0.1468  0.3513 -0.1819
 8355SOL    HW128211   0.565   1.154   5.175  0.3880  1.0998 -0.2156
 8355SOL    HW228212   0.521   1.109   5.312 -0.1828 -0.4407 -0.8855
 8356SOL     OW28213   1.955   6.869   4.732 -0.2721 -0.4433 -0.0983
 8356SOL    HW128214   2.012   6.919   4.791  0.4786 -1.6992  0.2820
 8356SOL    HW228215   1.878   6.849   4.784  1.0032 -2.7920  1.0164
 8357SOL     OW28216   4.481   2.757   0.765 -0.2280  0.1924 -0.8188
 8357SOL    HW128217   4.399   2.738   0.720 -0.5410 -0.8411  0.1490
 8357SOL    HW228218   4.456   2.771   0.856  0.7101 -0.7198 -0.3959
 8358SOL     OW28219   1.669   3.512   6.096 -0.3675  0.1395  0.4042
 8358SOL    HW128220   1.649   3.473   6.182  1.5171 -0.0898  0.7914
 8358SOL    HW228221   1.670   3.607   6.112 -1.9110  0.2101  0.1727
 8359SOL     OW28222   5.382   3.802   5.045  0.5959  0.3132 -0.7196
 8359SOL    HW128223   5.379   3.716   5.004  0.2682 -0.3573  0.6443
 8359SOL    HW228224   5.307   3.849   5.009 -0.4624 -0.7210  0.0669
 8360SOL     OW28225   0.955   3.205   2.994 -0.7712  0.0662  0.0371
 8360SOL    HW128226   1.018   3.141   3.028 -0.4010 -1.0476 -2.4893
 8360SOL    HW228227   0.882   3.152   2.962 -1.5731  1.1238  0.0711
 8361SOL     OW28228   0.702   7.838   0.555  0.0652 -0.2838  0.0648
 8361SOL    HW128229   0.716   7.790   0.474 -0.3573 -0.0777 -0.1372
 8361SOL    HW228230   0.773   7.902   0.558 -0.1460 -0.0247 -0.3472
 8362SOL     OW28231   5.296   0.245   7.111 -0.5890 -0.2385  0.3187
 8362SOL    HW128232   5.324   0.244   7.203  0.6721 -1.4902 -0.0447
 8362SOL    HW228233   5.209   0.286   7.113  0.5638  2.3925  1.7008
 8363SOL     OW28234   1.363   6.637   5.001  0.3425  0.1479 -0.1613
 8363SOL    HW128235   1.302   6.667   4.934 -0.7900  0.0533  0.7895
 8363SOL    HW228236   1.433   6.593   4.952 -0.6737 -0.3049 -1.2617
 8364SOL     OW28237   7.249   0.256   5.839 -0.2697 -0.3172  0.3055
 8364SOL    HW128238   7.287   0.305   5.912  0.7004 -0.4380 -0.0955
 8364SOL    HW228239   7.191   0.319   5.796 -0.0100  0.0927  0.5453
 8365SOL     OW28240   7.550   0.402   2.559 -0.3983 -0.5104  0.2309
 8365SOL    HW128241   7.484   0.396   2.628 -1.5193 -1.2926 -0.8730
 8365SOL    HW228242   7.519   0.473   2.502 -0.3251 -0.9135 -0.3187
 8366SOL     OW28243   2.580   1.642   0.215 -0.3832 -0.3731  0.2225
 8366SOL    HW128244   2.569   1.567   0.273 -2.1120 -2.1794 -2.1922
 8366SOL    HW228245   2.636   1.609   0.144  1.2690  1.5954  0.5384
 8367SOL     OW28246   3.247   7.727   4.853  0.3430 -0.2054  0.0254
 8367SOL    HW128247   3.263   7.636   4.879  0.9626 -0.2103 -0.3461
 8367SOL    HW228248   3.152   7.734   4.845 -0.0385  0.0576  3.2389
 8368SOL     OW28249   4.480   1.616   5.624  0.2910 -0.3899 -0.0726
 8368SOL    HW128250   4.536   1.538   5.626 -0.1391 -0.7133 -0.3390
 8368SOL    HW228251   4.431   1.607   5.542 -0.6933 -0.4977  0.5127
 8369SOL     OW28252   2.149   6.869   2.947  0.1441  0.3209 -0.5187
 8369SOL    HW128253   2.063   6.826   2.951  0.3155  0.0622  0.8736
 8369SOL    HW228254   2.163   6.903   3.035  1.2011  0.9204 -0.8991
 8370SOL     OW28255   8.055   2.227   5.046 -0.2563 -0.4039 -0.2225
 8370SOL    HW128256   8.149   2.231   5.063 -0.1443 -1.2077 -0.6428
 8370SOL    HW228257   8.015   2.244   5.131  0.2660 -0.0088 -0.0509
 8371SOL     OW28258   0.226   5.264   6.516 -0.2126  0.3377  0.0241
 8371SOL    HW128259   0.307   5.217   6.538 -0.8252 -1.9841 -2.2271
 8371SOL    HW228260   0.254   5.355   6.505  1.7939 -0.1320  0.7583
 8372SOL     OW28261   4.748   3.403   0.552 -0.1704  0.5012 -0.1308
 8372SOL    HW128262   4.829   3.357   0.530 -1.0523 -0.7831 -0.7907
 8372SOL    HW228263   4.735   3.465   0.481 -0.5551 -0.3807 -0.8540
 8373SOL     OW28264   0.364   1.949   2.506  0.3451  0.6656 -0.0630
 8373SOL    HW128265   0.269   1.955   2.494  0.3224 -0.0222 -0.2724
 8373SOL    HW228266   0.374   1.913   2.594  0.4354  1.5096  0.2840
 8374SOL     OW28267   7.842   4.646   6.957  0.1499  0.6155  0.1417
 8374SOL    HW128268   7.812   4.557   6.972 -0.2677  0.7164 -0.0471
 8374SOL    HW228269   7.931   4.637   6.924 -0.4134  0.1707 -1.3512
 8375SOL     OW28270   4.207   3.748   6.755 -0.0477  0.3025  0.1366
 8375SOL    HW128271   4.192   3.842   6.768  0.6402  0.1793  2.1966
 8375SOL    HW228272   4.120   3.713   6.736 -0.7678  1.0195  1.8682
 8376SOL     OW28273   3.880   3.174   0.216  0.6657 -0.0066 -0.2089
 8376SOL    HW128274   3.890   3.211   0.304  1.3638  1.6423 -0.9340
 8376SOL    HW228275   3.948   3.217   0.164  1.0028 -1.8007 -1.3181
 8377SOL     OW28276   5.412   3.714   7.535  0.3495 -0.0949  0.0879
 8377SOL    HW128277   5.345   3.778   7.513  1.3068 -0.1268 -3.5500
 8377SOL    HW228278   5.489   3.742   7.485  1.3878 -2.9882 -0.0911
 8378SOL     OW28279   6.488   7.466   0.830 -0.1500 -0.0828  0.0174
 8378SOL    HW128280   6.490   7.485   0.923  0.8336 -2.6814  0.6131
 8378SOL    HW228281   6.577   7.437   0.809 -0.2271  0.8695 -1.8478
 8379SOL     OW28282   0.817   6.715   1.034 -0.1534 -0.1979 -0.1461
 8379SOL    HW128283   0.735   6.669   1.051  0.8882 -1.9330  0.4444
 8379SOL    HW228284   0.881   6.672   1.091  1.1630  1.1497 -0.5404
 8380SOL     OW28285   6.672   0.961   4.806 -0.0752 -0.0576  0.0694
 8380SOL    HW128286   6.604   0.991   4.746  1.4266  1.7287 -0.8143
 8380SOL    HW228287   6.715   0.890   4.759 -0.1000  0.0936 -0.1848
 8381SOL     OW28288   0.407   0.716   5.291 -0.2331 -0.4922  0.4074
 8381SOL    HW128289   0.373   0.750   5.374 -1.8550 -0.0506 -0.3948
 8381SOL    HW228290   0.330   0.684   5.245  0.6015 -0.4837 -1.0568
 8382SOL     OW28291   1.103   5.209   1.036  0.2601 -0.4777  0.2444
 8382SOL    HW128292   1.127   5.295   1.069 -4.0479  1.6924 -1.4060
 8382SOL    HW228293   1.042   5.174   1.101  0.5431 -1.4692  0.0018
 8383SOL     OW28294   2.384   3.238   1.056 -0.1177  0.5354 -0.1022
 8383SOL    HW128295   2.323   3.269   0.989 -0.8170 -1.7762 -0.6164
 8383SOL    HW228296   2.431   3.165   1.015  3.2501  2.3304  0.1951
 8384SOL     OW28297   7.636   7.234   3.307 -0.2139  0.0882 -0.0789
 8384SOL    HW128298   7.633   7.288   3.228 -0.8773 -0.4196 -0.4062
 8384SOL    HW228299   7.546   7.203   3.318  0.1218 -0.7903  0.2145
 8385SOL     OW28300   6.653   5.304   7.931 -0.0949  0.2999 -0.0123
 8385SOL    HW128301   6.624   5.230   7.985  0.2789  1.1099  1.3455
 8385SOL    HW228302   6.600   5.378   7.962 -1.1600  0.4469 -2.0061
 8386SOL     OW28303   1.146   4.411   5.705 -0.0012 -0.4534 -0.7803
 8386SOL    HW128304   1.219   4.390   5.647 -0.6009  0.0338 -1.7558
 8386SOL    HW228305   1.162   4.501   5.733 -0.0574 -0.4523 -0.7512
 8387SOL     OW28306   6.797   7.558   2.547 -0.0098 -0.0409 -0.3276
 8387SOL    HW128307   6.787   7.621   2.618 -1.0156  0.3888 -0.8372
 8387SOL    HW228308   6.812   7.474   2.591  0.9368  0.4725  0.3576
 8388SOL     OW28309   2.040   0.534   0.277  0.7265 -0.8068  0.6390
 8388SOL    HW128310   2.102   0.484   0.224  0.8149  2.2676 -2.5619
 8388SOL    HW228311   2.090   0.561   0.354  2.1844 -1.4108 -0.0703
 8389SOL     OW28312   4.900   3.608   3.063 -0.7223 -0.6336  0.6953
 8389SOL    HW128313   4.817   3.565   3.041 -1.1977  0.0693  1.0597
 8389SOL    HW228314   4.930   3.563   3.142 -0.3829 -1.3680  0.1593
 8390SOL     OW28315   1.108   1.640   4.961 -0.2004  0.2589  0.2848
 8390SOL    HW128316   1.070   1.715   5.007 -3.5633 -1.2824  0.3737
 8390SOL    HW228317   1.091   1.658   4.868  0.6070  0.3900  0.1560
 8391SOL     OW28318   0.303   3.371   1.864  0.1672 -0.0375 -0.0297
 8391SOL    HW128319   0.371   3.308   1.841  0.4072 -0.9183  2.7826
 8391SOL    HW228320   0.294   3.426   1.786  3.1336 -0.7335 -0.9824
 8392SOL     OW28321   7.315   6.712   6.669  0.0042  0.0299 -0.3407
 8392SOL    HW128322   7.220   6.707   6.665  0.0415 -0.1626 -1.1505
 8392SOL    HW228323   7.343   6.625   6.697 -0.1057  0.4798  1.3094
 8393SOL     OW28324   3.478   0.833   7.115  0.1094  0.2906 -0.4472
 8393SOL    HW128325   3.512   0.889   7.185 -1.4770 -1.0539  1.5208
 8393SOL    HW228326   3.553   0.779   7.089  0.4044 -0.1966  1.2878
 8394SOL     OW28327   0.983   3.966   2.565  0.2484 -0.2081  0.1273
 8394SOL    HW128328   1.007   3.940   2.476 -0.6173  0.5287 -0.3312
 8394SOL    HW228329   1.010   4.058   2.571  0.8593 -0.4249  0.8407
 8395SOL     OW28330   2.937   8.047   6.015  0.3387 -0.2857 -0.0970
 8395SOL    HW128331   2.978   8.110   6.074  1.2463 -1.4872  0.6066
 8395SOL    HW228332   2.996   8.042   5.940  0.2274 -0.2371 -0.1884
 8396SOL     OW28333   3.042   8.081   4.683 -0.2966 -0.4352  0.1898
 8396SOL    HW128334   2.991   8.125   4.614 -0.0924 -1.0538 -0.3568
 8396SOL    HW228335   3.008   7.992   4.685  1.0658 -0.9881 -0.4869
 8397SOL     OW28336   6.961   1.251   2.311 -0.1089 -0.0566  0.1297
 8397SOL    HW128337   7.016   1.308   2.365 -0.4083  0.2734  0.0904
 8397SOL    HW228338   6.925   1.188   2.373 -1.8163  1.3554  0.6466
 8398SOL     OW28339   3.996   6.905   0.562  0.1719  0.7390  0.0603
 8398SOL    HW128340   4.010   6.999   0.545  0.2720  0.5793 -0.7776
 8398SOL    HW228341   4.085   6.869   0.569  0.1384  0.5836 -0.3195
 8399SOL     OW28342   7.112   4.132   4.293 -0.1469 -0.2404 -0.1591
 8399SOL    HW128343   7.057   4.091   4.360 -0.5582  0.7111  0.1124
 8399SOL    HW228344   7.052   4.149   4.220 -0.0435  0.0956 -0.1685
 8400SOL     OW28345   7.739   5.150   4.434 -0.2943 -0.5066  0.2177
 8400SOL    HW128346   7.684   5.126   4.359 -1.1825  1.5700  0.1366
 8400SOL    HW228347   7.825   5.169   4.396 -0.2620 -1.1133 -0.0276
 8401SOL     OW28348   2.534   4.207   3.339  0.1120 -0.4204 -0.2134
 8401SOL    HW128349   2.462   4.156   3.375 -1.3886  0.4216 -1.8581
 8401SOL    HW228350   2.533   4.188   3.245 -0.1351  2.0558 -0.8069
 8402SOL     OW28351   2.862   3.711   0.916  0.0176  0.3703  0.5021
 8402SOL    HW128352   2.789   3.731   0.975 -0.9492  1.4337 -0.9807
 8402SOL    HW228353   2.922   3.785   0.926  0.4124  0.0018  0.9472
 8403SOL     OW28354   0.402   3.063   6.327 -0.0820  0.4157 -0.0378
 8403SOL    HW128355   0.465   3.011   6.277  0.7275  0.6001  0.7563
 8403SOL    HW228356   0.373   3.130   6.266  0.9463  0.6839 -0.2514
 8404SOL     OW28357   3.064   3.625   0.043  0.9249  0.6054  0.3590
 8404SOL    HW128358   3.108   3.633  -0.041 -1.8440 -1.5021 -1.4782
 8404SOL    HW228359   3.055   3.715   0.074  4.2679  1.2667 -0.2194
 8405SOL     OW28360   3.547   0.175   4.251 -0.2952  0.1320 -0.7559
 8405SOL    HW128361   3.496   0.119   4.309 -0.1595  0.5738 -0.1982
 8405SOL    HW228362   3.523   0.147   4.162 -1.6584  0.4499 -0.5168
 8406SOL     OW28363   3.994   4.205   3.082  0.1587 -0.0895 -0.0171
 8406SOL    HW128364   4.001   4.138   3.150 -0.3833  0.4538  0.5809
 8406SOL    HW228365   4.008   4.288   3.127 -1.6356  0.3961 -0.2710
 8407SOL     OW28366   5.472   3.353   2.873  0.4863  0.6551  0.2363
 8407SOL    HW128367   5.567   3.342   2.872  0.3252 -0.9926 -0.0647
 8407SOL    HW228368   5.444   3.324   2.786 -0.3061  0.8873  0.4085
 8408SOL     OW28369   1.983   1.418   0.254  0.1703 -0.1832 -0.8935
 8408SOL    HW128370   2.025   1.499   0.225 -1.0429  0.2170 -1.6148
 8408SOL    HW228371   1.977   1.428   0.349 -1.6079  1.4549 -1.1058
 8409SOL     OW28372   2.773   2.662   3.675 -0.0605  0.2341 -0.0745
 8409SOL    HW128373   2.810   2.609   3.604 -3.6131 -0.1131 -1.8878
 8409SOL    HW228374   2.830   2.644   3.750  2.2848 -1.5399 -2.1001
 8410SOL     OW28375   4.771   7.114   7.757 -0.0981 -0.0728 -0.0715
 8410SOL    HW128376   4.847   7.060   7.735  0.9091  0.7384  1.2380
 8410SOL    HW228377   4.730   7.134   7.673  0.1282 -1.9201 -0.6801
 8411SOL     OW28378   2.511   0.163   3.854 -0.4049  0.1359 -0.3964
 8411SOL    HW128379   2.494   0.249   3.815 -1.0708 -0.0627 -0.5620
 8411SOL    HW228380   2.447   0.156   3.925 -1.8650 -1.0985 -1.7613
 8412SOL     OW28381   0.218   7.491   3.647 -0.1774  0.1872 -0.3579
 8412SOL    HW128382   0.283   7.474   3.715  0.1635 -0.7308 -0.8836
 8412SOL    HW228383   0.264   7.472   3.565 -0.3841  1.8850 -0.9069
 8413SOL     OW28384   2.801   1.133   7.292 -0.3090  0.0159 -0.4664
 8413SOL    HW128385   2.872   1.104   7.350 -1.2121  0.3439  0.8518
 8413SOL    HW228386   2.803   1.071   7.219  0.2232 -1.0366  0.4034
 8414SOL     OW28387   6.315   1.819   4.695  0.0300 -0.0269  0.4270
 8414SOL    HW128388   6.256   1.749   4.723 -0.3991 -0.4076 -1.2690
 8414SOL    HW228389   6.377   1.828   4.767 -0.1734 -1.8482  0.9016
 8415SOL     OW28390   0.854   6.479   6.056  0.0569 -0.4148  0.6988
 8415SOL    HW128391   0.920   6.424   6.014 -1.6949 -0.8843 -1.6585
 8415SOL    HW228392   0.815   6.422   6.122 -1.1650 -1.8662 -1.1451
 8416SOL     OW28393   2.127   2.309   2.476  0.4675 -0.4450 -0.0482
 8416SOL    HW128394   2.163   2.222   2.462 -0.5803 -0.8629 -0.2711
 8416SOL    HW228395   2.055   2.315   2.413  2.0454  1.5447 -1.8139
 8417SOL     OW28396   2.738   5.942   6.742  0.0600  0.5274 -0.4410
 8417SOL    HW128397   2.833   5.942   6.731  0.2271  1.0804  0.9066
 8417SOL    HW228398   2.712   5.852   6.721  1.3884 -0.8207  2.9555
 8418SOL     OW28399   2.747   6.045   4.423 -0.0764  0.7166 -0.1943
 8418SOL    HW128400   2.693   6.018   4.498  0.2617  0.4435 -0.0489
 8418SOL    HW228401   2.732   5.976   4.358 -0.9488  1.3285 -0.6687
 8419SOL     OW28402   2.323   6.638   4.736  0.1160 -0.7783 -0.0326
 8419SOL    HW128403   2.258   6.586   4.689  0.0120  0.1957 -1.0002
 8419SOL    HW228404   2.300   6.729   4.717  0.8688 -0.3805  0.8407
 8420SOL     OW28405   7.861   6.993   2.262  0.1898  0.4007  0.0780
 8420SOL    HW128406   7.940   7.045   2.250  0.5650 -0.0662  0.5098
 8420SOL    HW228407   7.853   6.982   2.357 -0.7955  1.0557  0.0901
 8421SOL     OW28408   2.414   1.615   1.885  0.2864 -0.1124  0.0963
 8421SOL    HW128409   2.438   1.523   1.881 -0.4822 -0.2604 -1.6146
 8421SOL    HW228410   2.477   1.659   1.828  0.2531  0.3477  0.4011
 8422SOL     OW28411   1.546   7.637   3.928  0.6071  0.1390  0.7833
 8422SOL    HW128412   1.540   7.581   3.850  0.4877 -1.4684  1.9023
 8422SOL    HW228413   1.634   7.675   3.924  0.3398  0.6832 -0.5020
 8423SOL     OW28414   6.198   5.994   7.399 -0.4421  0.0919  0.5294
 8423SOL    HW128415   6.159   6.070   7.355 -1.2981 -0.3494  0.4998
 8423SOL    HW228416   6.207   6.021   7.490  1.3712  1.0241  0.1256
 8424SOL     OW28417   5.819   6.155   3.945 -0.2659  0.3675 -0.5315
 8424SOL    HW128418   5.809   6.249   3.958  1.1400  0.5268 -0.4090
 8424SOL    HW228419   5.807   6.142   3.851  0.0317  0.7524 -0.6249
 8425SOL     OW28420   2.258   1.366   8.008 -0.0924  0.1693  0.7010
 8425SOL    HW128421   2.300   1.394   7.927 -1.7755  0.6532 -0.0553
 8425SOL    HW228422   2.323   1.381   8.076  2.2600 -2.4423 -0.7771
 8426SOL     OW28423   7.661   0.215   5.550 -0.3298  0.1786  0.5331
 8426SOL    HW128424   7.671   0.199   5.456  1.1701  0.5791  0.6055
 8426SOL    HW228425   7.631   0.305   5.556  2.6375  1.2860  0.4779
 8427SOL     OW28426   3.297   1.042   2.125  0.0100  0.3956  0.1401
 8427SOL    HW128427   3.377   0.993   2.106  0.6905  2.1219 -1.8655
 8427SOL    HW228428   3.226   0.980   2.106  0.8435 -0.4543 -0.3056
 8428SOL     OW28429   2.502   0.774   4.648  0.7705  0.2710 -0.2236
 8428SOL    HW128430   2.498   0.810   4.559 -0.3256 -1.1971 -0.8144
 8428SOL    HW228431   2.451   0.836   4.701  2.4835  1.8447 -0.3184
 8429SOL     OW28432   0.665   7.498   1.096  0.7078  0.5486 -0.3923
 8429SOL    HW128433   0.694   7.587   1.075  0.4267  0.3366 -1.8106
 8429SOL    HW228434   0.746   7.446   1.101  0.7822  0.5886 -1.1088
 8430SOL     OW28435   1.683   7.540   8.014  0.3964 -0.7841 -0.4005
 8430SOL    HW128436   1.723   7.614   8.059  1.2126 -1.5533  0.1829
 8430SOL    HW228437   1.590   7.561   8.011  0.6575  0.4605 -0.6575
 8431SOL     OW28438   2.896   3.960   7.392 -0.0812 -0.4309  0.1624
 8431SOL    HW128439   2.919   3.989   7.480  0.8442  1.4606 -0.6333
 8431SOL    HW228440   2.800   3.962   7.390 -0.1269 -0.9724  1.2548
 8432SOL     OW28441   0.655   5.253   1.399 -0.0076  0.1876 -0.3324
 8432SOL    HW128442   0.664   5.346   1.418 -0.0949 -0.1234  1.4071
 8432SOL    HW228443   0.625   5.214   1.481  0.5957 -1.4685 -0.8448
 8433SOL     OW28444   0.708   1.909   7.784 -0.3413 -0.5925 -0.4697
 8433SOL    HW128445   0.680   1.993   7.746  2.0873  0.9698  0.8826
 8433SOL    HW228446   0.698   1.921   7.878  2.2830 -0.8066 -0.0774
 8434SOL     OW28447   6.627   1.183   1.604  0.1370 -0.0386  0.0442
 8434SOL    HW128448   6.622   1.143   1.691  1.6944 -0.7782 -0.1660
 8434SOL    HW228449   6.537   1.179   1.571 -0.0707 -1.8739  0.6969
 8435SOL     OW28450   2.423   3.966   2.465 -0.0955  0.1028 -0.0987
 8435SOL    HW128451   2.502   3.964   2.520 -0.5428 -2.1779  0.5405
 8435SOL    HW228452   2.455   3.987   2.377  1.1811 -0.4395  0.2179
 8436SOL     OW28453   5.426   4.050   0.787  0.3394  0.6707 -0.1619
 8436SOL    HW128454   5.414   4.085   0.875  0.0585  0.4167 -0.0971
 8436SOL    HW228455   5.429   3.955   0.800 -2.8989  0.3618 -0.7349
 8437SOL     OW28456   6.543   1.514   4.863  0.5099 -0.1266 -0.2074
 8437SOL    HW128457   6.482   1.440   4.859  0.8851 -0.5169  0.9856
 8437SOL    HW228458   6.489   1.591   4.844 -0.2006 -0.5358  0.1247
 8438SOL     OW28459   3.814   0.965   2.386  0.0111 -0.3473 -0.2133
 8438SOL    HW128460   3.792   0.922   2.303 -0.4358 -1.4572  0.4666
 8438SOL    HW228461   3.730   0.978   2.429 -0.1717  3.3079 -1.3294
 8439SOL     OW28462   4.945   5.240   6.736 -0.1272  0.1254 -0.2519
 8439SOL    HW128463   4.910   5.307   6.795 -0.6988 -0.5884  0.2448
 8439SOL    HW228464   4.981   5.289   6.662 -0.7640  0.9588 -0.0253
 8440SOL     OW28465   3.508   6.905   2.758  0.0827  0.0856  0.4120
 8440SOL    HW128466   3.551   6.853   2.826 -1.3177 -0.4141  0.9593
 8440SOL    HW228467   3.415   6.888   2.770 -0.2807  1.0263 -0.8099
 8441SOL     OW28468   5.795   7.169   4.320  0.1648  0.4913 -0.5646
 8441SOL    HW128469   5.737   7.210   4.256 -0.2703  1.1682  0.2281
 8441SOL    HW228470   5.746   7.093   4.352 -1.3456  2.2701  1.7081
 8442SOL     OW28471   5.188   2.009   0.465  0.1299  0.4527 -0.1205
 8442SOL    HW128472   5.161   1.943   0.529 -0.7506 -0.2470 -1.1707
 8442SOL    HW228473   5.129   2.082   0.479 -1.1130 -0.3125 -1.1282
 8443SOL     OW28474   4.480   4.520   0.845  0.0239 -0.5907 -0.3731
 8443SOL    HW128475   4.523   4.588   0.896  0.0212 -1.6778  1.1425
 8443SOL    HW228476   4.387   4.534   0.861 -0.0743  0.0578 -1.4215
 8444SOL     OW28477   4.271   5.832   5.581  0.0059  0.0908 -0.1435
 8444SOL    HW128478   4.332   5.896   5.617 -1.4479  0.2977  2.1925
 8444SOL    HW228479   4.209   5.816   5.652 -2.1121 -0.8074 -2.0748
 8445SOL     OW28480   3.039   1.606   5.099  0.2028  0.1087 -0.4247
 8445SOL    HW128481   3.105   1.539   5.081 -0.5206 -0.3879 -1.3414
 8445SOL    HW228482   2.994   1.618   5.015 -2.7383 -1.6391  0.7334
 8446SOL     OW28483   6.768   6.192   1.543  0.2788 -0.5232  0.1534
 8446SOL    HW128484   6.833   6.234   1.599  0.9958 -2.0525  0.4905
 8446SOL    HW228485   6.812   6.179   1.459 -0.1426 -0.0827 -0.1476
 8447SOL     OW28486   2.409   5.783   7.697 -0.1630 -0.4540  0.1847
 8447SOL    HW128487   2.368   5.727   7.631  0.2052  0.9604 -1.3201
 8447SOL    HW228488   2.345   5.786   7.768 -0.2290 -2.6616  0.2874
 8448SOL     OW28489   3.364   1.348   6.738  0.5493  0.9158  0.0652
 8448SOL    HW128490   3.452   1.313   6.727  0.1905 -0.2672  0.8823
 8448SOL    HW228491   3.335   1.368   6.648  0.9307 -0.4895 -0.3958
 8449SOL     OW28492   0.280   4.646   2.474  0.0966 -0.3624 -0.2899
 8449SOL    HW128493   0.322   4.724   2.438 -1.4079  1.0526  0.8436
 8449SOL    HW228494   0.312   4.641   2.564  0.0207 -0.9280 -0.2903
 8450SOL     OW28495   2.457   0.882   2.786  0.1247 -0.5568 -0.2070
 8450SOL    HW128496   2.500   0.808   2.828  0.3528  0.8106  2.1145
 8450SOL    HW228497   2.449   0.948   2.854  0.7599  1.9722 -2.3970
 8451SOL     OW28498   6.517   7.742   4.247  0.0372 -0.8408  0.2630
 8451SOL    HW128499   6.553   7.676   4.188  0.2250 -0.7566  0.2830
 8451SOL    HW228500   6.500   7.695   4.328  1.8672 -0.5083  0.8961
 8452SOL     OW28501   0.862   1.349   6.925  0.6096 -0.0826  0.3172
 8452SOL    HW128502   0.858   1.254   6.913 -2.6980 -0.0785  0.5120
 8452SOL    HW228503   0.878   1.383   6.837 -0.3124 -0.8100 -0.1583
 8453SOL     OW28504   4.410   0.315   7.471 -0.4050  0.7665  0.7077
 8453SOL    HW128505   4.333   0.340   7.523 -1.3266 -1.0844  0.3358
 8453SOL    HW228506   4.377   0.311   7.381  0.3773  0.8656  0.4141
 8454SOL     OW28507   2.639   1.433   1.298  0.3517 -0.2804  0.1983
 8454SOL    HW128508   2.695   1.496   1.253 -0.2214 -1.0808 -1.7401
 8454SOL    HW228509   2.612   1.372   1.229 -2.6252 -0.1402  1.1208
 8455SOL     OW28510   7.581   0.932   4.955  0.4258  0.0816 -0.1635
 8455SOL    HW128511   7.660   0.922   4.902 -0.1580 -0.4584 -0.9596
 8455SOL    HW228512   7.580   0.855   5.012 -0.0007 -0.4034 -0.8112
 8456SOL     OW28513   4.204   3.914   7.853 -0.0615 -0.3200 -0.1078
 8456SOL    HW128514   4.176   3.882   7.768  0.1418 -0.4666 -0.1214
 8456SOL    HW228515   4.173   3.847   7.915 -0.0189 -0.3237 -0.0903
 8457SOL     OW28516   4.691   0.775   4.735  0.1577  0.3850  0.0287
 8457SOL    HW128517   4.777   0.775   4.777  0.5616 -4.6470 -0.2830
 8457SOL    HW228518   4.703   0.831   4.658  2.8753  0.5486  0.4787
 8458SOL     OW28519   1.621   0.560   5.587 -0.0384 -0.1639 -0.5301
 8458SOL    HW128520   1.537   0.565   5.632 -0.0701 -1.0217 -0.4813
 8458SOL    HW228521   1.600   0.576   5.495 -0.5892 -2.3266 -0.8491
 8459SOL     OW28522   6.435   6.944   2.707  0.3880 -0.3137  0.0832
 8459SOL    HW128523   6.505   6.880   2.696 -0.2542 -0.9357 -0.4497
 8459SOL    HW228524   6.477   7.028   2.695  1.2389 -0.6261  0.7450
 8460SOL     OW28525   6.158   0.542   6.735 -0.1995 -0.6832 -0.3321
 8460SOL    HW128526   6.097   0.599   6.781 -0.3065 -1.6406  0.7526
 8460SOL    HW228527   6.150   0.458   6.780 -1.1249 -1.9984 -2.7653
 8461SOL     OW28528   0.158   1.989   3.859  0.3712  0.1336 -0.5568
 8461SOL    HW128529   0.185   2.035   3.780 -0.5292 -0.0779 -0.9878
 8461SOL    HW228530   0.208   1.907   3.858  1.5633  0.8355 -0.0711
 8462SOL     OW28531   2.528   1.645   6.208 -0.4523  0.2178 -0.0571
 8462SOL    HW128532   2.480   1.629   6.290 -0.3811  0.8669  0.1105
 8462SOL    HW228533   2.612   1.681   6.236  0.5280 -1.7584 -0.2991
 8463SOL     OW28534   5.921   4.034   2.239  0.0070 -0.3060 -0.2039
 8463SOL    HW128535   5.844   4.069   2.285 -1.6426  1.9113 -4.1566
 8463SOL    HW228536   5.896   3.945   2.214  0.5290 -1.1619  2.0661
 8464SOL     OW28537   7.986   2.632   3.556 -0.0583 -0.2228 -0.1020
 8464SOL    HW128538   8.072   2.652   3.519  0.0990 -0.0925  0.3249
 8464SOL    HW228539   8.003   2.564   3.622 -0.5547 -1.6536 -1.3824
 8465SOL     OW28540   0.558   7.039   2.892 -0.0050  0.4681 -0.0503
 8465SOL    HW128541   0.572   7.110   2.954  0.1649  0.0538  0.3923
 8465SOL    HW228542   0.509   6.973   2.942 -0.7471  0.5496 -0.6448
 8466SOL     OW28543   7.173   6.442   5.245 -0.1663  0.3150 -0.1711
 8466SOL    HW128544   7.170   6.474   5.335  0.6387  1.2418 -0.4534
 8466SOL    HW228545   7.085   6.410   5.228 -0.0139 -1.0926  1.3720
 8467SOL     OW28546   4.558   2.310   3.394 -0.3052 -0.1638  0.2302
 8467SOL    HW128547   4.544   2.233   3.339 -0.2542  0.3999 -0.5912
 8467SOL    HW228548   4.475   2.357   3.392 -0.1990  0.0339  0.3624
 8468SOL     OW28549   2.695   2.359   2.195  0.4281 -0.7287  0.3445
 8468SOL    HW128550   2.636   2.323   2.129 -0.4566  0.7848  0.2766
 8468SOL    HW228551   2.767   2.397   2.145 -0.3892  0.6805  0.2096
 8469SOL     OW28552   1.366   7.021   5.062 -0.2575  0.0936 -0.0545
 8469SOL    HW128553   1.419   6.941   5.069 -0.2592  0.0306 -0.6702
 8469SOL    HW228554   1.427   7.092   5.078 -0.0473  0.0080 -0.4744
 8470SOL     OW28555   2.772   2.051   5.705 -0.2199  0.0092  0.0778
 8470SOL    HW128556   2.770   2.108   5.783 -0.5065  0.5983 -0.3510
 8470SOL    HW228557   2.863   2.026   5.697  0.0832  1.1375 -0.2319
 8471SOL     OW28558   2.818   3.519   6.212  0.1291 -0.6581  0.1711
 8471SOL    HW128559   2.778   3.489   6.131  0.1757 -1.1807  0.3366
 8471SOL    HW228560   2.798   3.450   6.276  2.4704 -1.6641 -0.0713
 8472SOL     OW28561   2.823   5.889   7.861  0.2030 -0.5456 -0.4643
 8472SOL    HW128562   2.800   5.868   7.771 -0.0835 -1.2174 -0.2466
 8472SOL    HW228563   2.784   5.818   7.913  2.0988 -1.3132 -0.0050
 8473SOL     OW28564   7.012   2.156   3.666  0.1784  0.0232 -0.4369
 8473SOL    HW128565   6.941   2.209   3.630  0.3166  0.2949 -0.3114
 8473SOL    HW228566   6.971   2.103   3.734 -0.1835 -0.8500 -1.3200
 8474SOL     OW28567   4.508   1.561   1.492 -0.8369  0.7157 -0.1322
 8474SOL    HW128568   4.590   1.533   1.451 -0.0565 -0.2690  1.9643
 8474SOL    HW228569   4.526   1.651   1.521 -1.8561  1.9611 -2.9606
 8475SOL     OW28570   1.431   1.320   6.687 -0.4301  0.4987  0.0565
 8475SOL    HW128571   1.513   1.338   6.732 -0.6407 -1.3837  1.3020
 8475SOL    HW228572   1.456   1.267   6.611 -0.3615  1.3221 -0.5141
 8476SOL     OW28573   2.356   7.517   3.978  0.2148 -0.5086  0.1416
 8476SOL    HW128574   2.279   7.475   4.017 -0.7738 -0.2568 -1.4097
 8476SOL    HW228575   2.426   7.453   3.988 -0.4556 -1.1705  0.7121
 8477SOL     OW28576   4.690   7.071   2.314 -0.2678  0.8351 -0.8921
 8477SOL    HW128577   4.687   6.998   2.376  0.2949  0.9775 -0.6901
 8477SOL    HW228578   4.639   7.041   2.239 -0.8611  0.6143 -0.4113
 8478SOL     OW28579   3.260   5.977   0.381 -0.2430 -0.1011  0.6992
 8478SOL    HW128580   3.232   6.034   0.309 -0.6101 -0.9111  0.1864
 8478SOL    HW228581   3.202   5.901   0.375  1.4894 -1.4301  0.1515
 8479SOL     OW28582   6.245   5.511   4.752 -0.1854  0.1946 -0.1555
 8479SOL    HW128583   6.214   5.601   4.736 -1.2340 -0.0586  0.3667
 8479SOL    HW228584   6.199   5.484   4.832 -1.0830 -1.3523 -1.1551
 8480SOL     OW28585   6.484   3.416   1.423 -0.0479 -0.2665  0.0430
 8480SOL    HW128586   6.470   3.363   1.501  0.3408  1.3711  1.2663
 8480SOL    HW228587   6.402   3.409   1.374 -1.2985  0.7832  1.9084
 8481SOL     OW28588   4.635   4.465   2.454  0.5049  0.2628  0.0373
 8481SOL    HW128589   4.552   4.499   2.421 -0.3475 -2.0988 -0.4477
 8481SOL    HW228590   4.695   4.470   2.380 -0.1183 -0.8746 -0.5628
 8482SOL     OW28591   1.519   4.741   0.619 -0.1249  0.4448  0.1770
 8482SOL    HW128592   1.529   4.754   0.714 -0.9484 -0.3101  0.3772
 8482SOL    HW228593   1.602   4.773   0.582  0.3328  0.4604  1.1777
 8483SOL     OW28594   2.614   0.030   7.255 -0.5207 -0.0040 -0.2512
 8483SOL    HW128595   2.570   0.104   7.214  1.7481  2.1581  0.9308
 8483SOL    HW228596   2.678   0.001   7.190 -0.7317 -0.2709 -0.3396
 8484SOL     OW28597   0.876   0.977   6.131 -0.0388 -0.2941  0.1911
 8484SOL    HW128598   0.940   0.958   6.199 -0.4567  1.0644  1.0058
 8484SOL    HW228599   0.914   0.940   6.051  2.1697  1.1564  0.4832
 8485SOL     OW28600   2.335   3.313   5.592  0.2406  0.0712 -0.5959
 8485SOL    HW128601   2.359   3.221   5.583  0.3137  0.1489 -1.2604
 8485SOL    HW228602   2.240   3.314   5.598  0.2372 -0.0399 -0.6475
 8486SOL     OW28603   3.558   3.039   7.856  0.0948  0.8796 -0.2639
 8486SOL    HW128604   3.580   3.041   7.949  1.1169 -1.2094 -0.4084
 8486SOL    HW228605   3.463   3.026   7.854  0.0036  1.3504  0.4544
 8487SOL     OW28606   5.729   3.242   4.453  0.0780  0.1741 -0.4040
 8487SOL    HW128607   5.692   3.154   4.451  1.3221 -0.3871  0.1162
 8487SOL    HW228608   5.821   3.230   4.428  0.6011  1.1144  0.9516
 8488SOL     OW28609   0.590   6.923   3.672 -0.3133 -0.0693 -0.4290
 8488SOL    HW128610   0.624   6.939   3.584  0.2510  0.6086 -0.0977
 8488SOL    HW228611   0.612   6.831   3.690  0.0950 -0.0397 -0.7676
 8489SOL     OW28612   7.444   5.710   3.085  0.1840 -0.2120 -0.4628
 8489SOL    HW128613   7.366   5.712   3.140  0.5116 -0.8782  0.0469
 8489SOL    HW228614   7.453   5.618   3.060  1.2928 -0.3136  0.2100
 8490SOL     OW28615   1.793   5.563   3.901 -0.0562 -0.0402 -0.1206
 8490SOL    HW128616   1.767   5.636   3.846  0.1582 -0.4280 -0.7410
 8490SOL    HW228617   1.855   5.601   3.963  0.0788  0.2930 -0.4571
 8491SOL     OW28618   0.198   2.106   3.566 -0.0791 -0.4293 -0.1281
 8491SOL    HW128619   0.238   2.193   3.559  0.3181 -0.5104  0.9150
 8491SOL    HW228620   0.265   2.046   3.534 -0.5289 -0.3205 -1.2936
 8492SOL     OW28621   0.183   5.209   7.196  0.3985  0.0412 -0.1172
 8492SOL    HW128622   0.141   5.169   7.272  0.6380 -1.2543 -0.6397
 8492SOL    HW228623   0.269   5.169   7.192 -0.6253 -2.2143 -2.7469
 8493SOL     OW28624   5.610   3.266   4.056 -0.2504  0.1049 -0.6273
 8493SOL    HW128625   5.521   3.298   4.038 -0.2220  0.2973 -0.4299
 8493SOL    HW228626   5.608   3.240   4.148 -0.2780 -0.4840 -0.7874
 8494SOL     OW28627   7.469   1.965   1.145 -0.3231  0.7608  0.4243
 8494SOL    HW128628   7.412   1.915   1.087 -1.0844 -0.5617  2.2170
 8494SOL    HW228629   7.555   1.962   1.103 -0.6469 -0.9243 -0.1750
 8495SOL     OW28630   0.733   6.626   0.341 -0.3075 -0.2348 -0.3459
 8495SOL    HW128631   0.780   6.543   0.352  0.3120 -0.0335 -1.3128
 8495SOL    HW228632   0.690   6.618   0.256 -2.5357 -0.6303  0.7616
 8496SOL     OW28633   7.944   5.509   2.441  0.3350  0.1064 -0.9011
 8496SOL    HW128634   7.899   5.446   2.386 -0.2768 -0.2184 -0.0437
 8496SOL    HW228635   7.938   5.474   2.530  2.2944  0.0393 -0.7361
 8497SOL     OW28636   7.151   0.056   5.197  0.6521  0.4230  0.0980
 8497SOL    HW128637   7.157   0.133   5.254  2.3411  0.0149  0.5520
 8497SOL    HW228638   7.166   0.090   5.109  0.1126  0.7759  0.1384
 8498SOL     OW28639   2.712   0.149   6.476  0.0485  0.0154  0.2276
 8498SOL    HW128640   2.715   0.053   6.477  1.9541  0.0389  0.5183
 8498SOL    HW228641   2.722   0.174   6.568  0.5426  0.4977  0.0486
 8499SOL     OW28642   7.882   0.809   2.797 -0.2508 -0.2184 -0.1716
 8499SOL    HW128643   7.798   0.825   2.840 -1.6111 -0.0787 -2.7009
 8499SOL    HW228644   7.866   0.732   2.743  1.7119 -1.0292  0.3141
 8500SOL     OW28645   7.408   6.046   6.023  0.2300 -0.5456  0.4686
 8500SOL    HW128646   7.402   5.951   6.021  1.0765 -0.6139  0.9687
 8500SOL    HW228647   7.359   6.072   6.102 -0.2261 -0.5451  0.1868
 8501SOL     OW28648   4.755   5.205   6.091 -0.2703 -0.3848  0.4778
 8501SOL    HW128649   4.679   5.252   6.057  1.4652  2.4013  0.1767
 8501SOL    HW228650   4.779   5.143   6.022 -1.2229 -0.0743 -0.1392
 8502SOL     OW28651   4.469   7.197   0.303  0.2413 -0.3546 -0.6386
 8502SOL    HW128652   4.468   7.207   0.207  1.7656 -0.8262 -0.7335
 8502SOL    HW228653   4.517   7.273   0.334  0.4830 -0.6361 -0.3210
 8503SOL     OW28654   7.995   0.478   6.166  0.3814  0.1283  0.0554
 8503SOL    HW128655   8.078   0.439   6.194  1.2886  0.4300 -2.0604
 8503SOL    HW228656   7.973   0.539   6.236  1.0351 -1.1777  1.4717
 8504SOL     OW28657   6.535   1.634   5.213 -0.6451 -0.2083 -0.2667
 8504SOL    HW128658   6.565   1.686   5.287 -0.5743  0.2192 -0.5886
 8504SOL    HW228659   6.451   1.672   5.189 -0.6328 -0.2953 -0.4521
 8505SOL     OW28660   7.281   2.199   7.564 -0.0615  0.1623  0.5409
 8505SOL    HW128661   7.314   2.158   7.484 -0.8844 -0.3222  0.4304
 8505SOL    HW228662   7.358   2.237   7.605  0.7450 -1.4293  0.5963
 8506SOL     OW28663   1.955   1.069   2.602 -0.3463 -0.3912  0.2163
 8506SOL    HW128664   1.979   1.042   2.514 -0.5249 -1.2663  0.4319
 8506SOL    HW228665   1.878   1.124   2.590 -0.0746 -0.0966 -0.2107
 8507SOL     OW28666   3.693   3.281   0.912  0.1676 -0.1585  0.1274
 8507SOL    HW128667   3.732   3.365   0.884  0.0367  0.0515  0.5678
 8507SOL    HW228668   3.713   3.221   0.841 -0.3555  0.4248 -0.5383
 8508SOL     OW28669   5.486   8.042   6.639 -0.0671  0.4719 -0.4885
 8508SOL    HW128670   5.538   8.030   6.560  0.1922 -0.2213 -0.2140
 8508SOL    HW228671   5.522   8.122   6.679  0.9669 -0.1412 -0.1642
 8509SOL     OW28672   3.606   0.688   1.283  0.6625 -0.3522 -0.8323
 8509SOL    HW128673   3.540   0.746   1.245 -1.0125 -1.1267  0.7155
 8509SOL    HW228674   3.653   0.652   1.208  0.4144  1.4559 -1.9099
 8510SOL     OW28675   1.289   7.236   6.443  0.0403  0.1299 -0.0208
 8510SOL    HW128676   1.296   7.323   6.481  2.1728  0.9963 -2.1389
 8510SOL    HW228677   1.213   7.241   6.385 -1.1202 -0.1425  1.4104
 8511SOL     OW28678   6.523   3.247   2.977 -0.3367 -0.2800 -0.6585
 8511SOL    HW128679   6.579   3.210   3.045  0.0079  1.7478  0.2522
 8511SOL    HW228680   6.478   3.172   2.938  0.7728 -1.6558  0.6172
 8512SOL     OW28681   3.689   2.858   6.887  0.4673  0.5658 -0.5339
 8512SOL    HW128682   3.780   2.835   6.900  0.6580  1.7248  0.3585
 8512SOL    HW228683   3.640   2.787   6.928  0.9282 -0.3608 -1.5289
 8513SOL     OW28684   6.037   4.899   3.910  0.3202 -0.7005  0.2670
 8513SOL    HW128685   6.068   4.927   3.823 -1.2720 -0.1229 -0.1499
 8513SOL    HW228686   6.114   4.860   3.951  1.9003  1.5640 -0.2981
 8514SOL     OW28687   4.657   8.008   5.502 -0.1044 -0.3390  0.1053
 8514SOL    HW128688   4.716   8.011   5.427  0.1264  0.0064  0.2998
 8514SOL    HW228689   4.582   7.958   5.471  0.5642 -1.3345  0.0597
 8515SOL     OW28690   2.879   7.758   2.905  0.0383  0.6116 -0.6220
 8515SOL    HW128691   2.973   7.741   2.901  0.1414  1.3162 -1.5281
 8515SOL    HW228692   2.866   7.804   2.988  0.4762  0.4531 -0.4659
 8516SOL     OW28693   5.143   5.219   1.712 -0.0372  0.1391 -0.1793
 8516SOL    HW128694   5.202   5.253   1.644  0.2876 -1.3330 -0.6697
 8516SOL    HW228695   5.202   5.178   1.776 -0.4948 -2.4709 -1.2913
 8517SOL     OW28696   3.328   5.454   5.257  0.6069  0.0557  0.5696
 8517SOL    HW128697   3.386   5.528   5.276  0.9111 -0.5051  1.9561
 8517SOL    HW228698   3.289   5.433   5.341 -0.4955 -0.5301 -0.0724
 8518SOL     OW28699   4.276   2.717   0.511 -0.1437  0.1908 -0.2328
 8518SOL    HW128700   4.259   2.759   0.426  0.4710  0.5284 -0.1937
 8518SOL    HW228701   4.355   2.665   0.496  0.3611  0.7812  0.3084
 8519SOL     OW28702   3.906   6.224   8.036  0.3728  0.0131 -0.3684
 8519SOL    HW128703   3.995   6.219   7.999  0.2963 -1.5986 -0.3951
 8519SOL    HW228704   3.850   6.186   7.968 -0.3213  0.7861 -0.2425
 8520SOL     OW28705   2.837   3.917   5.866  0.5893  0.3348  0.2237
 8520SOL    HW128706   2.824   3.846   5.803  0.5891  0.9844 -0.5282
 8520SOL    HW228707   2.873   3.988   5.814  0.6354  0.8724  0.9784
 8521SOL     OW28708   5.126   6.479   4.685  0.3468 -0.0769 -0.2557
 8521SOL    HW128709   5.215   6.453   4.707  0.5587 -0.5249 -1.5635
 8521SOL    HW228710   5.130   6.573   4.672  0.9275 -0.2572 -1.5518
 8522SOL     OW28711   3.586   0.885   4.729  0.5552 -0.3909  0.0537
 8522SOL    HW128712   3.586   0.856   4.638  0.6301 -0.1212 -0.0341
 8522SOL    HW228713   3.678   0.881   4.755  0.6373  0.2577 -0.1213
 8523SOL     OW28714   4.677   5.539   3.262 -0.2668  0.6594  0.6363
 8523SOL    HW128715   4.738   5.493   3.319 -0.3470 -0.6894 -0.3075
 8523SOL    HW228716   4.593   5.496   3.277 -0.9162  2.1846  1.5682
 8524SOL     OW28717   0.653   2.194   7.723 -0.0367 -0.2691  0.6139
 8524SOL    HW128718   0.590   2.164   7.657 -2.2812  0.4267  2.2921
 8524SOL    HW228719   0.657   2.289   7.710  0.5101 -0.2852  0.6574
 8525SOL     OW28720   2.352   2.395   5.783 -0.4566 -0.1391 -0.3984
 8525SOL    HW128721   2.430   2.354   5.746 -0.0009 -0.0844  0.4583
 8525SOL    HW228722   2.299   2.321   5.815  0.4549 -0.1075  1.3208
 8526SOL     OW28723   1.276   7.424   6.978 -0.3098  0.5219  0.2546
 8526SOL    HW128724   1.215   7.493   7.003  0.9805  0.8929  2.6254
 8526SOL    HW228725   1.343   7.424   7.047 -0.0703 -2.8700  0.1924
 8527SOL     OW28726   4.088   1.081   1.635  0.5395 -0.1980  0.5054
 8527SOL    HW128727   4.142   1.120   1.565 -0.7059  0.7543  0.0337
 8527SOL    HW228728   4.112   1.130   1.713  0.3526  0.2332  0.2959
 8528SOL     OW28729   6.345   5.649   0.162 -0.0707  0.3167 -0.7725
 8528SOL    HW128730   6.329   5.595   0.239 -1.9894 -0.4433 -1.6388
 8528SOL    HW228731   6.266   5.703   0.154  0.7903  1.5374 -1.3023
 8529SOL     OW28732   0.441   0.671   0.552  0.3403  0.4622  0.6421
 8529SOL    HW128733   0.478   0.585   0.530 -0.6407  0.4078 -0.9631
 8529SOL    HW228734   0.351   0.652   0.581  0.1261  0.9368  0.3045
 8530SOL     OW28735   0.115   2.982   4.926 -0.1680  0.1954 -0.5436
 8530SOL    HW128736   0.033   2.949   4.889 -0.0716  1.2256 -1.7169
 8530SOL    HW228737   0.182   2.922   4.894 -0.3895 -0.3941  0.0652
 8531SOL     OW28738   5.101   0.765   4.596 -0.1826 -0.4060 -0.4110
 8531SOL    HW128739   5.097   0.669   4.600  1.5088 -0.4975  0.1591
 8531SOL    HW228740   5.118   0.784   4.504  1.3285 -0.7976 -0.2439
 8532SOL     OW28741   2.764   7.811   3.929  0.8213 -0.1965  0.3368
 8532SOL    HW128742   2.739   7.903   3.919  1.9392  0.1255  0.2577
 8532SOL    HW228743   2.702   7.775   3.992  0.4491  0.6497  0.4640
 8533SOL     OW28744   1.463   1.941   6.667  0.2932  0.4873  0.0783
 8533SOL    HW128745   1.463   1.996   6.588  1.0226 -0.7824 -0.8292
 8533SOL    HW228746   1.502   1.859   6.639 -1.1298 -0.6579  1.3177
 8534SOL     OW28747   5.612   1.178   3.163  0.3608  0.2337 -0.6731
 8534SOL    HW128748   5.619   1.096   3.115 -0.9592 -0.0659 -0.3877
 8534SOL    HW228749   5.518   1.194   3.170  0.5226  0.5530  1.3247
 8535SOL     OW28750   6.269   5.671   5.717 -0.0799  0.4050 -0.2898
 8535SOL    HW128751   6.254   5.697   5.808 -2.1270 -0.4995 -0.2983
 8535SOL    HW228752   6.257   5.576   5.717 -1.2942  0.5214 -1.6765
 8536SOL     OW28753   5.710   5.967   1.381 -0.2941 -0.5526  0.9665
 8536SOL    HW128754   5.767   5.943   1.453  1.4856 -0.4940 -0.3705
 8536SOL    HW228755   5.695   6.061   1.393 -1.7506 -0.9093  2.3870
 8537SOL     OW28756   3.250   4.301   7.074  0.4046 -0.3258  0.4588
 8537SOL    HW128757   3.182   4.344   7.125  1.8265  0.3163  1.8702
 8537SOL    HW228758   3.322   4.287   7.135  2.1235  0.2981 -1.3134
 8538SOL     OW28759   4.622   1.860   6.434 -0.2310 -0.0016  0.2068
 8538SOL    HW128760   4.695   1.919   6.453 -2.3975  3.0324 -0.1857
 8538SOL    HW228761   4.598   1.824   6.519  2.6838 -2.5074  0.1467
 8539SOL     OW28762   1.721   0.233   2.733  0.0509 -0.5494 -0.1853
 8539SOL    HW128763   1.773   0.290   2.678 -1.4261 -1.0507 -2.2244
 8539SOL    HW228764   1.678   0.292   2.795  0.4919  0.2362 -0.6176
 8540SOL     OW28765   6.275   6.940   2.160  0.0220 -0.2924 -0.1794
 8540SOL    HW128766   6.269   7.030   2.128  1.9883  0.8239  2.2573
 8540SOL    HW228767   6.234   6.942   2.246 -0.5952 -1.9602 -0.3964
 8541SOL     OW28768   6.432   1.126   3.920 -0.0809  0.2548  0.5450
 8541SOL    HW128769   6.475   1.122   4.006  0.5221 -0.5560  0.2157
 8541SOL    HW228770   6.360   1.188   3.932 -0.0581  0.0785  1.6643
 8542SOL     OW28771   2.827   3.937   5.520  0.0610  0.1062 -0.5961
 8542SOL    HW128772   2.751   3.929   5.577 -0.0545  0.2684 -0.7263
 8542SOL    HW228773   2.803   3.890   5.441  0.5758 -0.9162 -0.1599
 8543SOL     OW28774   1.207   7.168   1.151  0.1122 -0.4189  0.0528
 8543SOL    HW128775   1.167   7.114   1.083 -0.3741  0.1171 -0.0894
 8543SOL    HW228776   1.300   7.147   1.146  0.2016  0.1914 -1.3060
 8544SOL     OW28777   1.373   1.591   6.928 -0.0788 -0.5938  0.2785
 8544SOL    HW128778   1.465   1.610   6.913 -0.3449  1.2025  0.6860
 8544SOL    HW228779   1.337   1.576   6.840 -0.1504  2.6224 -0.3515
 8545SOL     OW28780   3.744   0.115   1.629  0.0113 -0.3058  0.0138
 8545SOL    HW128781   3.748   0.032   1.582 -1.3681 -1.0197  1.0651
 8545SOL    HW228782   3.661   0.112   1.676  0.2859  1.3472  0.6860
 8546SOL     OW28783   3.014   3.126   8.006  0.0845 -0.2948 -0.2928
 8546SOL    HW128784   3.060   3.059   7.955 -0.1255 -0.3399 -0.4261
 8546SOL    HW228785   2.924   3.122   7.975 -0.1282 -0.5673  0.3376
 8547SOL     OW28786   6.450   3.232   0.056  0.1305 -0.2981 -0.0011
 8547SOL    HW128787   6.369   3.281   0.043 -0.5978 -1.9033 -2.0605
 8547SOL    HW228788   6.519   3.293   0.028 -0.6507 -0.0510 -1.4686
 8548SOL     OW28789   6.830   0.220   6.976  0.0161 -0.6640 -0.2056
 8548SOL    HW128790   6.785   0.299   6.946 -0.9427 -1.0112  0.2643
 8548SOL    HW228791   6.912   0.219   6.927 -1.2153 -0.8976 -2.3896
 8549SOL     OW28792   2.169   0.480   6.405  0.2692  0.6619  0.1305
 8549SOL    HW128793   2.096   0.489   6.467  1.3818  1.1721  1.4384
 8549SOL    HW228794   2.144   0.534   6.330 -0.2714  1.6615  0.9972
 8550SOL     OW28795   5.491   3.285   2.381  0.0908 -0.4311  0.3339
 8550SOL    HW128796   5.426   3.278   2.311  0.1336 -0.0838  0.2559
 8550SOL    HW228797   5.498   3.379   2.398  1.6481 -0.3263 -0.6800
 8551SOL     OW28798   6.722   0.046   0.945 -0.6748 -0.3379 -0.4739
 8551SOL    HW128799   6.630   0.061   0.965 -0.5082  0.1251 -0.0570
 8551SOL    HW228800   6.748  -0.024   1.004 -0.2138  0.9480  0.8992
 8552SOL     OW28801   5.182   1.792   3.063  0.6637  0.1029 -0.6202
 8552SOL    HW128802   5.103   1.759   3.019  0.4586 -1.0517  0.5321
 8552SOL    HW228803   5.236   1.827   2.993 -0.2036 -0.5138 -1.6262
 8553SOL     OW28804   0.087   7.725   5.399 -0.1587 -0.5904 -0.0479
 8553SOL    HW128805   0.015   7.735   5.336 -1.1835  0.6730  1.2580
 8553SOL    HW228806   0.136   7.650   5.367 -1.1829 -0.5590 -1.8299
 8554SOL     OW28807   1.976   0.453   6.593  0.2380 -0.2687 -0.0232
 8554SOL    HW128808   1.991   0.411   6.677 -0.0115  1.4456  0.9372
 8554SOL    HW228809   1.919   0.528   6.613 -1.6520 -1.0199 -2.0503
 8555SOL     OW28810   6.790   4.844   7.398 -0.1392  0.0971  0.2118
 8555SOL    HW128811   6.885   4.858   7.402 -0.3288  1.1966  1.2280
 8555SOL    HW228812   6.758   4.868   7.485 -1.5060  0.9733 -0.4914
 8556SOL     OW28813   6.809   4.251   3.182  0.2334  0.1051 -0.2178
 8556SOL    HW128814   6.826   4.185   3.115 -0.6642 -0.3649 -0.0001
 8556SOL    HW228815   6.892   4.263   3.227  1.4690  1.9562 -2.7292
 8557SOL     OW28816   2.245   5.771   4.946 -0.0857  0.5751 -0.2620
 8557SOL    HW128817   2.264   5.714   5.021  1.9564  1.4820 -0.0179
 8557SOL    HW228818   2.246   5.859   4.983 -0.5466  0.9403 -1.1037
 8558SOL     OW28819   7.852   1.904   4.759 -0.1845 -0.1592 -0.0213
 8558SOL    HW128820   7.912   1.925   4.831 -0.2163 -0.9649  0.2541
 8558SOL    HW228821   7.896   1.833   4.712  0.1346  0.7781 -1.1932
 8559SOL     OW28822   2.865   1.644   2.754  0.0560 -0.1253  0.1038
 8559SOL    HW128823   2.888   1.727   2.711  0.0210 -0.1918 -0.0447
 8559SOL    HW228824   2.814   1.597   2.688 -0.0538 -0.2008  0.2428
 8560SOL     OW28825   8.023   6.050   1.815  0.1101  0.9457 -0.8755
 8560SOL    HW128826   7.934   6.051   1.850  0.4617  1.3619  0.0376
 8560SOL    HW228827   8.024   5.975   1.756 -0.7121  0.6520 -0.5376
 8561SOL     OW28828   4.704   0.180   1.915  0.1178 -0.0194  0.3527
 8561SOL    HW128829   4.666   0.264   1.939 -1.1127 -0.0427 -1.3315
 8561SOL    HW228830   4.798   0.191   1.928 -0.1374  1.1429  1.4300
 8562SOL     OW28831   6.609   5.906   3.215  0.3658  0.4356 -0.0815
 8562SOL    HW128832   6.643   5.843   3.152 -0.8423 -2.1174  1.6327
 8562SOL    HW228833   6.521   5.927   3.183 -1.1339 -2.5329  1.6193
 8563SOL     OW28834   0.252   0.245   7.781 -0.5732  0.0481  0.1787
 8563SOL    HW128835   0.299   0.241   7.698 -1.5742  0.5080 -0.4325
 8563SOL    HW228836   0.210   0.331   7.781 -0.1967  0.2401  1.3875
 8564SOL     OW28837   6.045   6.500   3.071  0.2096 -0.3482  0.0286
 8564SOL    HW128838   5.964   6.452   3.090  0.3581 -0.1166  1.3185
 8564SOL    HW228839   6.046   6.573   3.133  1.5689 -0.5356  0.2680
 8565SOL     OW28840   7.013   5.319   2.649  0.0697  0.2505  0.4940
 8565SOL    HW128841   6.931   5.314   2.697 -1.5061 -0.6914 -2.0992
 8565SOL    HW228842   7.033   5.229   2.625  0.0143  0.7762 -1.7277
 8566SOL     OW28843   5.430   7.783   0.671  0.0526  0.1186 -0.7858
 8566SOL    HW128844   5.390   7.870   0.672 -0.5232 -0.1339 -1.0322
 8566SOL    HW228845   5.370   7.728   0.722  0.6586 -0.0335 -0.2264
 8567SOL     OW28846   8.062   2.216   2.612  0.2882  0.5746 -0.3091
 8567SOL    HW128847   8.146   2.222   2.657 -0.4545 -1.8439  1.6292
 8567SOL    HW228848   8.007   2.281   2.656  0.3731  0.2521  0.2702
 8568SOL     OW28849   5.008   0.791   7.568 -0.4508  0.0139  0.8383
 8568SOL    HW128850   4.952   0.726   7.612 -2.2197  1.7109  1.1918
 8568SOL    HW228851   4.950   0.864   7.548  1.1683  0.9054 -0.9014
 8569SOL     OW28852   7.505   3.985   1.338  0.2795  0.3400  0.6423
 8569SOL    HW128853   7.481   4.068   1.296  2.5259  0.2049 -1.0740
 8569SOL    HW228854   7.422   3.950   1.371 -0.6023  3.9117  2.8277
 8570SOL     OW28855   0.584   1.162   2.594  0.3494 -0.2160  0.6739
 8570SOL    HW128856   0.607   1.237   2.648 -1.0165  1.2154 -0.6081
 8570SOL    HW228857   0.489   1.156   2.600  0.1992 -0.2764 -1.1787
 8571SOL     OW28858   2.155   3.768   3.111  0.1388  0.9504 -0.0900
 8571SOL    HW128859   2.196   3.729   3.034 -0.7794 -0.6436  0.1940
 8571SOL    HW228860   2.213   3.745   3.184 -0.3389  0.1970  0.0596
 8572SOL     OW28861   3.411   7.978   1.922  0.3287  0.0038 -0.2697
 8572SOL    HW128862   3.372   8.064   1.936  0.7913  0.4263 -1.4248
 8572SOL    HW228863   3.505   7.993   1.933  0.2969 -0.7384  1.2472
 8573SOL     OW28864   6.566   6.314   1.162 -0.7038  0.0390  0.0014
 8573SOL    HW128865   6.622   6.384   1.196  2.5563 -2.4117  0.0840
 8573SOL    HW228866   6.499   6.302   1.230  0.1331  1.3947  1.1247
 8574SOL     OW28867   7.625   7.111   2.926  0.5048 -0.1507  0.6664
 8574SOL    HW128868   7.628   7.171   2.852  1.0893  0.2497  1.0060
 8574SOL    HW228869   7.554   7.144   2.981 -2.2344 -2.3422 -1.2655
 8575SOL     OW28870   5.170   6.077   1.736  0.1475 -0.4222  0.2793
 8575SOL    HW128871   5.206   5.993   1.707 -0.7854 -0.0157 -2.3379
 8575SOL    HW228872   5.238   6.114   1.792  1.2139 -2.2462  0.2831
 8576SOL     OW28873   5.012   1.499   1.726 -0.1292 -0.0666  0.0402
 8576SOL    HW128874   4.961   1.574   1.757 -0.0272 -0.4565  1.1806
 8576SOL    HW228875   5.091   1.500   1.780 -0.7062 -1.7524  0.9599
 8577SOL     OW28876   7.370   1.191   4.248 -0.4397  0.1056  0.0692
 8577SOL    HW128877   7.300   1.239   4.204 -1.8535  0.2249  2.3198
 8577SOL    HW228878   7.369   1.223   4.338  1.4710 -1.0575  0.5707
 8578SOL     OW28879   3.477   1.018   6.921 -0.1817  0.1453  0.1633
 8578SOL    HW128880   3.450   0.956   6.989  0.3167 -1.2376 -0.8576
 8578SOL    HW228881   3.444   0.980   6.840 -0.2241  1.4534 -0.4463
 8579SOL     OW28882   7.662   5.503   2.599 -0.4303  0.1197 -0.3291
 8579SOL    HW128883   7.637   5.581   2.550  1.0244  0.7566 -0.1113
 8579SOL    HW228884   7.582   5.451   2.605 -1.3455  1.4496 -0.7458
 8580SOL     OW28885   6.314   2.201   0.101 -0.3056  0.3064  0.2509
 8580SOL    HW128886   6.291   2.172   0.013 -0.5496  0.8476  0.1321
 8580SOL    HW228887   6.294   2.126   0.157 -3.4383  1.0339  0.3016
 8581SOL     OW28888   1.692   5.746   1.736 -0.1446 -0.4772  0.0210
 8581SOL    HW128889   1.723   5.692   1.809 -1.1054 -0.3495  0.5369
 8581SOL    HW228890   1.675   5.832   1.775 -2.2249 -0.8466  0.0364
 8582SOL     OW28891   5.831   7.957   0.138 -0.5964  0.3716 -0.5591
 8582SOL    HW128892   5.922   7.986   0.148 -0.3922 -0.0945 -0.9863
 8582SOL    HW228893   5.794   8.017   0.073 -0.8592  1.1089  0.2470
 8583SOL     OW28894   4.298   5.154   8.006  0.6247  0.5627 -0.4756
 8583SOL    HW128895   4.388   5.144   7.975  0.3420  0.0877 -1.1695
 8583SOL    HW228896   4.245   5.112   7.939 -0.0175 -0.4171  0.6100
 8584SOL     OW28897   4.236   6.424   3.778 -0.0196 -0.4470 -0.2756
 8584SOL    HW128898   4.175   6.466   3.717 -0.3728  1.5116  1.3115
 8584SOL    HW228899   4.181   6.376   3.839 -0.1282  1.6687  1.4175
 8585SOL     OW28900   2.063   7.168   7.855  0.7111  0.5145 -0.2894
 8585SOL    HW128901   2.053   7.127   7.941  1.9214  0.9247  0.0616
 8585SOL    HW228902   2.132   7.233   7.866  2.6533 -1.0840 -2.1225
 8586SOL     OW28903   0.694   4.797   2.185  0.2109 -0.0345 -1.0706
 8586SOL    HW128904   0.786   4.780   2.164  0.1270 -1.9558 -0.0979
 8586SOL    HW228905   0.697   4.846   2.267  0.3773 -0.2041 -0.9737
 8587SOL     OW28906   5.712   2.634   3.275  0.1245  0.1269 -0.1634
 8587SOL    HW128907   5.675   2.636   3.363  2.0855  0.8034  0.7056
 8587SOL    HW228908   5.687   2.549   3.240 -1.6039  0.2846  0.6130
 8588SOL     OW28909   1.758   0.677   4.832  0.2297  0.3589  0.0177
 8588SOL    HW128910   1.691   0.615   4.860 -0.5472  0.2349 -1.9290
 8588SOL    HW228911   1.834   0.657   4.886 -1.3798  0.7702  2.5796
 8589SOL     OW28912   5.528   4.091   6.114  0.0503  0.4320  0.1011
 8589SOL    HW128913   5.445   4.137   6.122 -1.6693 -2.1882 -1.0833
 8589SOL    HW228914   5.574   4.110   6.196 -3.4345 -1.0890  2.7042
 8590SOL     OW28915   2.589   6.442   5.554 -0.2401 -0.4139  0.0566
 8590SOL    HW128916   2.575   6.498   5.630  0.4558 -1.0998  0.7098
 8590SOL    HW228917   2.591   6.353   5.589  3.6335 -0.5693 -0.1607
 8591SOL     OW28918   7.049   0.690   2.057 -0.0076 -0.1969 -0.5534
 8591SOL    HW128919   7.043   0.630   2.131  0.5366 -1.8478 -1.7749
 8591SOL    HW228920   6.987   0.760   2.077 -1.2630 -1.5753  0.5880
 8592SOL     OW28921   5.662   1.189   6.549  0.6555 -0.1442 -0.1255
 8592SOL    HW128922   5.655   1.214   6.641 -0.3744 -0.7036 -0.0356
 8592SOL    HW228923   5.740   1.235   6.517 -0.3559  2.0356  0.3870
 8593SOL     OW28924   5.046   3.777   5.325 -0.5618  0.0557  0.1736
 8593SOL    HW128925   5.069   3.690   5.292 -0.9639  0.1285 -0.3056
 8593SOL    HW228926   5.129   3.815   5.353 -0.5880 -1.2469  2.2680
 8594SOL     OW28927   6.388   5.020   0.157  0.2937  0.4018 -0.1346
 8594SOL    HW128928   6.431   4.988   0.237  0.6874 -0.1273 -0.5490
 8594SOL    HW228929   6.331   4.948   0.130 -2.2640  1.7248  1.3702
 8595SOL     OW28930   3.291   2.200   3.789 -0.1354  0.1965 -0.0804
 8595SOL    HW128931   3.365   2.145   3.764 -0.0365  0.5629 -0.6011
 8595SOL    HW228932   3.305   2.283   3.743 -0.6634  0.4045  0.1227
 8596SOL     OW28933   1.904   0.037   1.663  0.0079 -0.0999 -0.8277
 8596SOL    HW128934   1.952   0.085   1.596  1.6233 -1.1285 -0.4697
 8596SOL    HW228935   1.877   0.104   1.726 -0.4435  0.7047 -1.8490
 8597SOL     OW28936   0.497   5.052   6.434 -0.0303  0.2761  0.4657
 8597SOL    HW128937   0.501   5.052   6.339 -1.3850  0.6090  0.3853
 8597SOL    HW228938   0.500   5.145   6.458 -1.2818  0.2823  0.6446
 8598SOL     OW28939   0.401   5.036   0.119  0.6816  0.5863 -0.1672
 8598SOL    HW128940   0.484   5.029   0.072  0.5618  1.7206 -0.5782
 8598SOL    HW228941   0.425   5.075   0.203  0.7527 -0.4830  0.3274
 8599SOL     OW28942   6.366   5.944   7.940  0.3438 -0.3965  0.5582
 8599SOL    HW128943   6.352   6.005   7.867  1.2296 -0.6671  0.1470
 8599SOL    HW228944   6.297   5.878   7.931 -1.6580  1.3579  1.9357
 8600SOL     OW28945   3.058   6.875   6.559 -0.6400 -0.8569 -0.4554
 8600SOL    HW128946   3.030   6.929   6.486  0.5567 -0.0815 -0.3574
 8600SOL    HW228947   3.149   6.853   6.540 -0.3831 -0.8538  0.6664
 8601SOL     OW28948   5.649   1.492   7.131  0.2509  0.7173  0.3560
 8601SOL    HW128949   5.734   1.498   7.088  1.8349  0.2433  3.1899
 8601SOL    HW228950   5.585   1.502   7.060  2.6320 -0.0220 -2.0335
 8602SOL     OW28951   3.540   2.362   4.339 -0.4431 -0.4436 -0.4007
 8602SOL    HW128952   3.560   2.401   4.254 -2.0750  0.0363 -0.5938
 8602SOL    HW228953   3.517   2.271   4.318 -0.9858 -0.2854 -0.4816
 8603SOL     OW28954   0.894   4.519   2.895  0.1496 -0.0382  0.1329
 8603SOL    HW128955   0.982   4.486   2.878  0.7948  1.2077  0.9262
 8603SOL    HW228956   0.884   4.596   2.839  0.1684  0.7325  1.1511
 8604SOL     OW28957   4.811   3.686   1.431  0.2130  0.0396 -0.4416
 8604SOL    HW128958   4.894   3.668   1.475  1.3309  0.1988 -2.3806
 8604SOL    HW228959   4.773   3.599   1.416  0.0690 -0.0399  0.3290
 8605SOL     OW28960   4.252   3.871   2.933 -0.0857  0.0019 -0.2515
 8605SOL    HW128961   4.255   3.948   2.877  2.1013 -0.0429 -0.2955
 8605SOL    HW228962   4.221   3.902   3.017 -1.8438  0.3804 -1.0098
 8606SOL     OW28963   1.366   7.143   6.164 -0.1131 -0.2831  0.3077
 8606SOL    HW128964   1.399   7.138   6.074 -1.5612  1.5430 -0.3949
 8606SOL    HW228965   1.374   7.053   6.197  1.3350 -0.8102 -1.2913
 8607SOL     OW28966   0.479   4.024   2.177  0.2170 -0.3429 -0.8033
 8607SOL    HW128967   0.530   4.068   2.109  0.7819 -2.1649 -1.6239
 8607SOL    HW228968   0.539   4.017   2.251 -0.1755  1.0231 -0.3190
 8608SOL     OW28969   3.860   0.316   6.456 -0.7457  0.7590 -0.0247
 8608SOL    HW128970   3.792   0.321   6.524  0.2131 -0.9836  1.1520
 8608SOL    HW228971   3.853   0.226   6.424  0.2525  0.9201 -0.7073
 8609SOL     OW28972   0.803   5.557   3.854  0.0584 -0.6124 -0.3153
 8609SOL    HW128973   0.814   5.549   3.759 -3.3286 -1.2895 -0.7701
 8609SOL    HW228974   0.766   5.473   3.881  0.8344 -0.3887  1.6342
 8610SOL     OW28975   6.166   3.753   0.186 -0.0322 -0.3173 -0.5551
 8610SOL    HW128976   6.228   3.700   0.136  3.0326  0.6195  1.9066
 8610SOL    HW228977   6.161   3.711   0.272 -1.9982  0.2973 -0.3019
 8611SOL     OW28978   7.220   7.675   5.975  0.8073  0.2959 -0.3814
 8611SOL    HW128979   7.177   7.604   5.927  2.0291 -1.5067  1.0579
 8611SOL    HW228980   7.199   7.658   6.066  1.4622  1.5635  0.0236
 8612SOL     OW28981   5.741   4.193   7.428 -0.2120  0.8117  0.1389
 8612SOL    HW128982   5.803   4.232   7.490 -0.7228  2.6660 -0.4647
 8612SOL    HW228983   5.667   4.166   7.482  0.2345  0.4851  0.5992
 8613SOL     OW28984   0.475   4.090   0.792 -0.3178  0.2070  0.0569
 8613SOL    HW128985   0.554   4.133   0.825 -1.4992  1.3174  1.5866
 8613SOL    HW228986   0.506   4.008   0.754  2.1905  2.6559 -3.7885
 8614SOL     OW28987   0.655   6.519   7.194  0.3663  0.6704  0.1054
 8614SOL    HW128988   0.710   6.589   7.157 -1.5822  1.8102 -0.7969
 8614SOL    HW228989   0.566   6.544   7.169 -0.4103 -2.1721 -0.2626
 8615SOL     OW28990   3.990   2.861   7.628  0.1005 -0.3582 -0.3582
 8615SOL    HW128991   3.970   2.790   7.688 -0.4990  1.4549  1.6949
 8615SOL    HW228992   4.066   2.830   7.579 -0.4160 -2.5671  0.1174
 8616SOL     OW28993   6.112   0.713   7.893 -0.1711  0.3219 -1.0841
 8616SOL    HW128994   6.172   0.747   7.827 -1.6806  1.9917 -1.6728
 8616SOL    HW228995   6.118   0.777   7.965 -1.2421  0.5273 -1.1667
 8617SOL     OW28996   7.168   1.261   1.998 -0.3280 -0.5246  0.0094
 8617SOL    HW128997   7.253   1.219   2.006 -0.5124 -0.6961  1.3036
 8617SOL    HW228998   7.187   1.355   1.997 -0.1601 -0.5332  1.1718
 8618SOL     OW28999   1.443   7.996   7.119  0.0971 -0.1030  0.7598
 8618SOL    HW129000   1.374   7.957   7.065  0.2984  1.5696 -0.7952
 8618SOL    HW229001   1.406   7.999   7.207 -1.3464 -0.3298  0.1834
 8619SOL     OW29002   6.336   3.227   1.659  0.1086 -0.0152 -0.2327
 8619SOL    HW129003   6.421   3.271   1.671 -1.0658  1.7599  2.5490
 8619SOL    HW229004   6.331   3.163   1.730 -0.8911 -0.0553 -0.3238
 8620SOL     OW29005   1.844   2.398   6.605  0.1090 -0.0946 -0.4416
 8620SOL    HW129006   1.813   2.473   6.555  2.0263  0.8490 -0.3166
 8620SOL    HW229007   1.768   2.369   6.655 -0.6701  1.8199 -0.4284
 8621SOL     OW29008   4.413   7.163   4.493  0.1100  0.1344 -0.0611
 8621SOL    HW129009   4.379   7.230   4.433  0.4130 -2.6563 -3.6724
 8621SOL    HW229010   4.370   7.082   4.467  0.1734 -1.3493  3.7549
 8622SOL     OW29011   8.013   7.881   6.868  0.2627  0.4531  0.7830
 8622SOL    HW129012   7.944   7.904   6.806 -0.1423 -2.4268  0.0401
 8622SOL    HW229013   8.063   7.962   6.879 -0.4711  1.4448 -2.2222
 8623SOL     OW29014   7.520   7.347   7.555 -0.1074 -0.1099 -0.2432
 8623SOL    HW129015   7.615   7.339   7.564  0.6543  3.2658 -3.1400
 8623SOL    HW229016   7.489   7.369   7.643  1.9277 -0.0650  0.5098
 8624SOL     OW29017   6.931   2.464   0.173 -0.0335  0.0116 -0.1541
 8624SOL    HW129018   7.010   2.432   0.130 -0.0392 -0.1982 -0.0103
 8624SOL    HW229019   6.876   2.496   0.101  0.2745  0.3697 -0.2328
 8625SOL     OW29020   4.385   2.035   0.520 -0.4281  0.4746  0.1372
 8625SOL    HW129021   4.334   1.959   0.548 -0.0290  0.2912  0.3733
 8625SOL    HW229022   4.398   2.021   0.426  0.5208 -0.2857  0.3618
 8626SOL     OW29023   5.006   5.625   5.688  0.3765  0.1842  0.0588
 8626SOL    HW129024   5.071   5.689   5.716  0.0180  0.0698  1.2094
 8626SOL    HW229025   4.922   5.666   5.707  0.1404 -0.6832  0.9669
 8627SOL     OW29026   2.501   1.344   6.525  0.5067  0.4440 -0.5737
 8627SOL    HW129027   2.476   1.332   6.434  0.2613 -0.3289 -0.4157
 8627SOL    HW229028   2.448   1.280   6.573  2.3034 -0.7824 -0.1494
 8628SOL     OW29029   2.397   2.812   4.736 -0.6582  0.4121  0.2046
 8628SOL    HW129030   2.483   2.770   4.728 -0.5226  0.9345 -1.4604
 8628SOL    HW229031   2.416   2.906   4.730 -1.3713  0.5127 -0.7993
 8629SOL     OW29032   2.877   2.210   2.318 -0.2405  0.1656  0.0891
 8629SOL    HW129033   2.800   2.250   2.279  0.5110  2.7946  1.1255
 8629SOL    HW229034   2.844   2.131   2.360 -2.0643  0.4038 -0.7896
 8630SOL     OW29035   7.548   1.560   2.064 -0.6487  0.2406 -0.0584
 8630SOL    HW129036   7.636   1.568   2.101  0.0149 -0.5322 -1.4287
 8630SOL    HW229037   7.534   1.641   2.015 -0.3377 -0.0169 -0.5781
 8631SOL     OW29038   5.657   7.467   1.674  0.3219  0.1759 -0.1587
 8631SOL    HW129039   5.677   7.475   1.581  0.3799 -0.9627 -0.2599
 8631SOL    HW229040   5.742   7.472   1.718  0.2831  0.8347 -0.1505
 8632SOL     OW29041   4.412   7.554   6.171  0.1462 -0.0980 -0.5021
 8632SOL    HW129042   4.329   7.524   6.132 -0.6069  2.0491 -0.7169
 8632SOL    HW229043   4.405   7.650   6.169  2.0111  0.1094  0.8783
 8633SOL     OW29044   2.163   2.868   6.723 -0.2331 -0.3431  0.1867
 8633SOL    HW129045   2.239   2.815   6.746 -0.9108 -1.7131 -0.6136
 8633SOL    HW229046   2.187   2.957   6.750  0.6524 -1.1314  2.2577
 8634SOL     OW29047   4.202   4.963   5.198  0.0916 -0.4112  0.4271
 8634SOL    HW129048   4.116   5.004   5.189  1.2965  2.4060  0.6545
 8634SOL    HW229049   4.215   4.956   5.293  0.4863  0.0844  0.4137
 8635SOL     OW29050   4.055   1.755   3.581 -0.1507 -0.0157 -0.0544
 8635SOL    HW129051   4.074   1.834   3.529 -0.0563  1.4684  2.0898
 8635SOL    HW229052   3.973   1.775   3.625  0.6294 -0.4622  1.6852
 8636SOL     OW29053   7.852   0.044   5.892  0.1213  0.0075 -0.0824
 8636SOL    HW129054   7.834  -0.005   5.973 -0.1556  0.7624  0.3208
 8636SOL    HW229055   7.766   0.052   5.850  0.4074 -1.2669 -0.9831
 8637SOL     OW29056   2.286   4.467   3.575  0.0731 -1.0188 -0.3360
 8637SOL    HW129057   2.299   4.380   3.612 -0.5095 -0.4218  1.4051
 8637SOL    HW229058   2.304   4.457   3.482  0.3480 -2.9165 -0.1180
 8638SOL     OW29059   6.179   6.119   5.132 -0.5173 -0.0949  0.7990
 8638SOL    HW129060   6.119   6.127   5.058 -0.0650  0.6452  0.4917
 8638SOL    HW229061   6.222   6.035   5.120 -1.6509 -0.7588  1.1626
 8639SOL     OW29062   0.544   1.503   3.456 -0.0728  0.1104  0.0185
 8639SOL    HW129063   0.459   1.469   3.430 -0.0464  0.9511 -1.2934
 8639SOL    HW229064   0.588   1.429   3.498 -1.5455 -0.2498  1.0135
 8640SOL     OW29065   1.885   1.310   3.072 -0.2087 -0.0709 -0.0949
 8640SOL    HW129066   1.815   1.333   3.011  0.5944 -0.5830 -1.2380
 8640SOL    HW229067   1.924   1.231   3.036  0.1377 -0.5269  1.2259
 8641SOL     OW29068   6.811   2.124   0.597  0.7519 -0.0768 -0.2525
 8641SOL    HW129069   6.867   2.195   0.567 -0.2235  2.3668  3.1556
 8641SOL    HW229070   6.840   2.107   0.687 -0.6189 -2.4058 -0.1644
 8642SOL     OW29071   4.795   5.111   4.176  0.5569 -0.2624 -0.1803
 8642SOL    HW129072   4.785   5.181   4.112 -0.9720  0.2625  0.5814
 8642SOL    HW229073   4.775   5.031   4.128  2.5938 -0.2606 -1.1272
 8643SOL     OW29074   2.379   0.843   3.189 -0.0617 -0.1456 -0.0711
 8643SOL    HW129075   2.291   0.846   3.152  0.2761 -0.5175 -0.9400
 8643SOL    HW229076   2.434   0.809   3.118  0.7518 -0.0968  0.5146
 8644SOL     OW29077   7.983   4.855   2.290 -0.8176 -0.4960  0.1102
 8644SOL    HW129078   8.046   4.916   2.326 -0.1505 -1.6957  1.0476
 8644SOL    HW229079   8.027   4.815   2.214 -0.6347 -0.9606  0.4564
 8645SOL     OW29080   5.812   0.669   0.342  0.1561  0.2555 -0.7427
 8645SOL    HW129081   5.759   0.747   0.326  0.2999  0.4881 -0.1537
 8645SOL    HW229082   5.756   0.612   0.394 -0.0706 -0.1885 -1.4704
 8646SOL     OW29083   4.573   6.295   6.113 -0.0962  0.6163 -0.1098
 8646SOL    HW129084   4.604   6.206   6.097 -0.1145  0.5560  0.1932
 8646SOL    HW229085   4.645   6.337   6.160 -1.2417 -0.1369  2.4796
 8647SOL     OW29086   1.105   6.028   4.155  1.2697 -0.2971  0.3113
 8647SOL    HW129087   1.092   6.118   4.186  0.4582 -0.2939 -0.0252
 8647SOL    HW229088   1.037   5.978   4.200  1.0958 -0.5735 -0.2638
 8648SOL     OW29089   6.771   4.265   2.070 -0.9426  0.0917 -0.4688
 8648SOL    HW129090   6.854   4.220   2.058 -1.8997 -2.1389  0.6234
 8648SOL    HW229091   6.716   4.232   1.999 -2.2219 -2.0659  1.3818
 8649SOL     OW29092   3.287   7.553   7.828 -0.1464  0.3820  0.1061
 8649SOL    HW129093   3.221   7.606   7.783  0.9572  0.7008 -1.2019
 8649SOL    HW229094   3.312   7.604   7.904 -1.6445  0.0977  0.8191
 8650SOL     OW29095   1.729   0.703   0.480 -0.2652 -0.0752 -0.1351
 8650SOL    HW129096   1.759   0.623   0.525 -1.6410 -0.4939  0.0833
 8650SOL    HW229097   1.810   0.747   0.455  0.5757 -2.2013 -1.4907
 8651SOL     OW29098   6.857   4.918   4.368 -0.3151  0.2427 -0.9823
 8651SOL    HW129099   6.822   4.961   4.447  0.7862  0.8146 -0.7790
 8651SOL    HW229100   6.789   4.857   4.342 -0.1187 -1.0644  1.2881
 8652SOL     OW29101   3.000   6.036   0.973 -0.4137 -0.9866 -0.1137
 8652SOL    HW129102   2.950   6.115   0.994  1.0109 -0.2222  0.5591
 8652SOL    HW229103   2.988   6.024   0.878 -0.8630 -0.1149 -0.1742
 8653SOL     OW29104   4.136   6.437   2.767  1.1023  0.3690 -0.2988
 8653SOL    HW129105   4.182   6.439   2.683  1.7257 -0.2902  0.0209
 8653SOL    HW229106   4.083   6.358   2.763 -0.3151  1.3119 -0.8106
 8654SOL     OW29107   4.963   4.562   3.967  0.0459 -0.5161 -0.2912
 8654SOL    HW129108   4.957   4.649   3.927 -4.0149  1.0203  2.9267
 8654SOL    HW229109   5.013   4.577   4.047 -1.8168 -0.7168  0.9670
 8655SOL     OW29110   4.410   5.392   0.050  0.4013 -0.4698  0.1865
 8655SOL    HW129111   4.390   5.309   0.006  0.4606 -0.0091 -0.7464
 8655SOL    HW229112   4.401   5.458  -0.019 -0.7242  0.4398  1.1617
 8656SOL     OW29113   0.359   0.122   2.326 -0.0803  0.0644 -0.2172
 8656SOL    HW129114   0.337   0.191   2.263 -0.1802 -1.3930 -1.8407
 8656SOL    HW229115   0.446   0.092   2.300 -0.1975 -0.6823  0.2254
 8657SOL     OW29116   5.150   6.098   5.770 -0.0863 -0.3771 -0.1193
 8657SOL    HW129117   5.082   6.124   5.708  0.9958 -1.6937 -1.9254
 8657SOL    HW229118   5.143   6.162   5.841 -0.8484  1.6798 -1.9565
 8658SOL     OW29119   1.924   6.008   1.272 -0.1095 -0.1877 -0.0873
 8658SOL    HW129120   1.995   6.018   1.336  0.0738  0.1943 -0.3468
 8658SOL    HW229121   1.861   6.076   1.295  0.4386  0.6268 -0.9379
 8659SOL     OW29122   6.734   3.582   1.712 -0.4611 -0.1113 -0.5109
 8659SOL    HW129123   6.754   3.652   1.774 -0.5374  0.0424 -0.6571
 8659SOL    HW229124   6.698   3.627   1.636 -1.7587 -0.4158 -0.0928
 8660SOL     OW29125   7.400   7.502   2.172 -0.1133 -0.7281  0.1904
 8660SOL    HW129126   7.318   7.497   2.123  1.0285 -2.3211 -1.7281
 8660SOL    HW229127   7.458   7.555   2.116  0.6797 -1.0312  0.7109
 8661SOL     OW29128   1.730   7.177   5.277 -0.3945 -0.6539  0.0374
 8661SOL    HW129129   1.820   7.146   5.288  0.0673  0.3175 -0.8881
 8661SOL    HW229130   1.702   7.197   5.366  0.4780 -0.4841  0.2889
 8662SOL     OW29131   5.132   4.178   6.240  0.5002  0.5818 -0.4042
 8662SOL    HW129132   5.094   4.131   6.315 -0.1648  1.2652 -0.3032
 8662SOL    HW229133   5.202   4.121   6.210  1.6664  0.8890  1.5443
 8663SOL     OW29134   7.963   0.331   2.154 -0.3944 -0.5911 -0.2819
 8663SOL    HW129135   8.004   0.390   2.091 -1.0695 -0.3809 -0.5267
 8663SOL    HW229136   7.869   0.350   2.148 -0.3742  0.4595  1.8246
 8664SOL     OW29137   0.534   2.967   7.329 -0.5503 -0.7788 -0.7921
 8664SOL    HW129138   0.515   2.924   7.413 -0.3598  0.1154 -0.2773
 8664SOL    HW229139   0.627   2.952   7.315  0.2487  1.8980  0.8778
 8665SOL     OW29140   3.520   4.139   2.104  0.5268 -0.4877  0.2495
 8665SOL    HW129141   3.436   4.116   2.063 -0.1021  0.5778  0.9054
 8665SOL    HW229142   3.559   4.055   2.127  1.0703 -1.2081 -2.7722
 8666SOL     OW29143   7.036   4.346   5.253 -0.6468 -0.1510 -0.0060
 8666SOL    HW129144   7.103   4.414   5.259 -0.3054 -0.4807 -0.0783
 8666SOL    HW229145   7.082   4.270   5.220 -1.1809 -0.2205 -0.5942
 8667SOL     OW29146   2.037   0.476   3.370  0.2786 -0.1498 -0.0106
 8667SOL    HW129147   2.001   0.565   3.370  0.9732  0.1399  0.8689
 8667SOL    HW229148   2.026   0.446   3.279  1.5077  1.4493 -0.7379
 8668SOL     OW29149   0.297   6.577   6.738  0.4427 -0.1368 -0.2053
 8668SOL    HW129150   0.296   6.490   6.778 -0.7221 -0.4109 -0.8134
 8668SOL    HW229151   0.338   6.633   6.805 -0.4796 -0.7979  0.9415
 8669SOL     OW29152   2.134   7.649   7.900  0.1355  0.0675  0.3998
 8669SOL    HW129153   2.049   7.605   7.890 -0.7597  2.1602 -2.4752
 8669SOL    HW229154   2.119   7.714   7.969 -0.2491 -0.3123  0.6853
 8670SOL     OW29155   1.377   6.427   3.307  0.2747 -0.2650 -0.3050
 8670SOL    HW129156   1.314   6.430   3.235 -1.0715 -0.2863  0.8068
 8670SOL    HW229157   1.406   6.517   3.318 -1.0490  0.1163  0.3625
 8671SOL     OW29158   7.254   5.120   0.099 -0.5853 -0.3012 -0.7257
 8671SOL    HW129159   7.313   5.061   0.053  0.8130  0.7073 -0.2752
 8671SOL    HW229160   7.273   5.207   0.064 -0.7946  0.2329  0.4332
 8672SOL     OW29161   4.511   3.358   0.971 -0.3938 -0.2064  0.4844
 8672SOL    HW129162   4.570   3.416   1.019  1.5802 -0.1380 -1.8120
 8672SOL    HW229163   4.569   3.296   0.927 -2.1339 -0.9637 -0.8568
 8673SOL     OW29164   7.681   7.405   5.603 -0.0449 -0.1880  0.0572
 8673SOL    HW129165   7.634   7.337   5.652 -0.2996 -0.1400 -0.1214
 8673SOL    HW229166   7.618   7.476   5.595  0.6836  0.6682  1.5072
 8674SOL     OW29167   4.722   4.397   3.969  0.1763  0.4604  0.4365
 8674SOL    HW129168   4.804   4.448   3.970  0.3597  0.1918 -0.3519
 8674SOL    HW229169   4.747   4.313   3.932 -0.7341  0.8710 -1.2414
 8675SOL     OW29170   3.179   7.697   4.174  0.3072 -0.4408 -0.4904
 8675SOL    HW129171   3.085   7.708   4.158 -0.0664 -0.1577  1.6588
 8675SOL    HW229172   3.188   7.607   4.205  0.8609 -0.6887 -1.3447
 8676SOL     OW29173   2.460   3.899   4.876 -0.5092 -0.2276  0.2016
 8676SOL    HW129174   2.541   3.938   4.843 -0.5278 -0.8487 -0.6294
 8676SOL    HW229175   2.412   3.972   4.915  0.3017  0.2065  0.4095
 8677SOL     OW29176   0.448   3.367   2.873  0.7070  0.3462 -0.4164
 8677SOL    HW129177   0.502   3.330   2.804 -0.5966 -2.1947 -0.2067
 8677SOL    HW229178   0.360   3.372   2.835  0.1953 -0.0162  0.6779
 8678SOL     OW29179   2.221   0.481   2.619  0.2019 -0.3718  0.3726
 8678SOL    HW129180   2.229   0.506   2.711  0.8670 -0.9916  0.4974
 8678SOL    HW229181   2.156   0.541   2.583 -1.7149 -1.4868  1.7607
 8679SOL     OW29182   6.460   6.326   0.382 -0.2411  0.1225  0.3344
 8679SOL    HW129183   6.513   6.283   0.316 -2.1552 -3.0381  0.6365
 8679SOL    HW229184   6.394   6.376   0.333  0.1175  0.1986 -0.0688
 8680SOL     OW29185   0.369   3.154   1.332  0.0229  0.3667 -0.4319
 8680SOL    HW129186   0.462   3.134   1.333 -0.1241 -0.3474 -0.7289
 8680SOL    HW229187   0.353   3.188   1.244  0.0414  0.7097 -0.3062
 8681SOL     OW29188   5.182   0.404   5.542 -0.1969  0.4001 -0.3708
 8681SOL    HW129189   5.274   0.420   5.563 -0.1234 -1.0679  0.5990
 8681SOL    HW229190   5.143   0.491   5.535  1.0453  1.0232  0.2148
 8682SOL     OW29191   7.424   7.003   3.357 -0.2349 -0.3969  0.2577
 8682SOL    HW129192   7.359   6.942   3.393  0.3715  0.0093  2.1522
 8682SOL    HW229193   7.408   7.002   3.263 -1.9115 -1.5428  0.5087
 8683SOL     OW29194   4.931   4.765   7.026 -0.0485  0.3149 -0.0593
 8683SOL    HW129195   4.880   4.691   7.060  1.0878 -0.7522 -0.6352
 8683SOL    HW229196   4.904   4.772   6.935 -1.9762  2.2263  0.5637
 8684SOL     OW29197   6.155   1.756   6.979 -0.1894  0.4240 -0.5504
 8684SOL    HW129198   6.174   1.783   6.889  2.7794 -1.4876 -0.6190
 8684SOL    HW229199   6.149   1.661   6.975 -0.0703  0.3010  1.2849
 8685SOL     OW29200   3.544   4.512   3.184  0.0216  0.2542 -0.0414
 8685SOL    HW129201   3.541   4.580   3.252  0.1890  0.3678 -0.1457
 8685SOL    HW229202   3.587   4.555   3.110  1.0392 -0.2559  0.2283
 8686SOL     OW29203   5.758   5.731   2.549  0.1420 -0.5386  0.5120
 8686SOL    HW129204   5.830   5.792   2.533  2.6033 -3.3217  0.1026
 8686SOL    HW229205   5.702   5.739   2.472  1.7102 -0.4901 -0.6562
 8687SOL     OW29206   4.802   3.115   1.016 -0.3829 -0.1163 -0.2249
 8687SOL    HW129207   4.759   3.031   1.031 -0.3347  0.0244  0.7599
 8687SOL    HW229208   4.758   3.152   0.940 -1.7016 -0.1724  0.4935
 8688SOL     OW29209   2.568   3.055   7.117 -0.3486 -0.5525 -0.6378
 8688SOL    HW129210   2.505   2.984   7.126  0.1652 -0.8385  1.2596
 8688SOL    HW229211   2.590   3.078   7.207 -0.9664  2.4682 -1.1539
 8689SOL     OW29212   7.455   2.965   6.769 -0.0537 -0.5942  0.2829
 8689SOL    HW129213   7.471   2.881   6.812 -0.1291  0.4259  2.3787
 8689SOL    HW229214   7.536   3.014   6.782 -0.7072  0.3669  0.8105
 8690SOL     OW29215   4.510   7.602   7.024 -0.0931  0.0497 -0.0582
 8690SOL    HW129216   4.498   7.638   6.936  0.9160  1.1841  0.2379
 8690SOL    HW229217   4.450   7.653   7.079 -0.0118  0.0056  0.0709
 8691SOL     OW29218   7.324   4.201   0.909  0.2991  0.0518  0.1507
 8691SOL    HW129219   7.271   4.121   0.920  0.1349 -0.1197 -1.6248
 8691SOL    HW229220   7.269   4.271   0.944 -0.6615 -0.2765 -0.6561
 8692SOL     OW29221   0.257   1.929   4.898  0.3739 -0.0015 -0.1752
 8692SOL    HW129222   0.166   1.949   4.922  0.2683 -0.3564 -0.2742
 8692SOL    HW229223   0.307   2.005   4.928 -0.0624  0.5516 -0.8295
 8693SOL     OW29224   6.274   7.656   8.035  0.0005  0.0394  0.3043
 8693SOL    HW129225   6.295   7.696   8.119  1.3540 -2.4742  1.2560
 8693SOL    HW229226   6.357   7.660   7.986 -0.0848 -0.7560  0.0857
 8694SOL     OW29227   5.054   2.169   0.832 -0.5240 -0.3370  0.2509
 8694SOL    HW129228   5.092   2.232   0.771 -0.9689 -0.8126 -0.5344
 8694SOL    HW229229   5.112   2.093   0.829  0.7529  0.4729  2.1770
 8695SOL     OW29230   0.611   4.635   0.949  0.0813  0.1690 -0.1661
 8695SOL    HW129231   0.631   4.546   0.979  3.1749  0.8630  0.2173
 8695SOL    HW229232   0.555   4.671   1.017  0.6045 -0.7984  0.8167
 8696SOL     OW29233   0.725   3.158   1.629 -0.6236  1.0795 -0.5596
 8696SOL    HW129234   0.640   3.114   1.634  0.1389 -0.5653 -1.3134
 8696SOL    HW229235   0.746   3.180   1.720 -0.3156 -1.6072  0.0946
 8697SOL     OW29236   1.288   1.791   3.065 -0.1015 -0.3618 -0.5847
 8697SOL    HW129237   1.265   1.767   2.975  1.9908  0.0099 -1.2542
 8697SOL    HW229238   1.248   1.722   3.118  0.0706 -1.5612 -1.9458
 8698SOL     OW29239   5.569   4.872   7.673 -0.2469  0.0218  0.1994
 8698SOL    HW129240   5.578   4.884   7.579  1.5836  0.5222  0.3971
 8698SOL    HW229241   5.587   4.779   7.688 -0.6402 -0.0780  0.0402
 8699SOL     OW29242   4.406   4.001   1.640 -0.3556  0.1544  0.3408
 8699SOL    HW129243   4.390   3.909   1.661  0.6896 -0.2705 -0.6214
 8699SOL    HW229244   4.336   4.023   1.578  0.0876 -0.3561 -0.3581
 8700SOL     OW29245   2.628   3.277   6.098  0.4461 -0.4382 -0.2513
 8700SOL    HW129246   2.535   3.298   6.098  0.9645  2.3407  0.8322
 8700SOL    HW229247   2.639   3.216   6.172 -0.5854 -1.5440 -0.9687
 8701SOL     OW29248   6.051   7.537   5.712  0.6552 -0.5383 -0.0996
 8701SOL    HW129249   6.137   7.500   5.733  1.0496  1.3158  1.9603
 8701SOL    HW229250   6.068   7.596   5.638  1.0625 -0.5987 -0.0574
 8702SOL     OW29251   2.547   5.618   5.911 -0.7375 -0.0869  0.3660
 8702SOL    HW129252   2.612   5.555   5.879  0.0117  0.5280  0.6474
 8702SOL    HW229253   2.463   5.578   5.889 -0.2686 -0.4267 -0.9603
 8703SOL     OW29254   6.161   0.143   1.173  0.0409 -0.2104  0.2527
 8703SOL    HW129255   6.113   0.215   1.214 -1.2316 -0.5800 -0.5550
 8703SOL    HW229256   6.240   0.134   1.227 -1.2737 -0.2874  2.2612
 8704SOL     OW29257   0.598   2.765   0.682  0.0022  0.5738 -0.0019
 8704SOL    HW129258   0.618   2.845   0.634 -2.6520  0.2087 -1.9150
 8704SOL    HW229259   0.631   2.695   0.626  0.2172  0.2356  0.5389
 8705SOL     OW29260   3.796   3.638   1.464  0.0187  0.1828 -0.4754
 8705SOL    HW129261   3.765   3.548   1.449  0.4198 -0.1607  0.6365
 8705SOL    HW229262   3.742   3.671   1.535 -0.9763  1.3062 -1.6919
 8706SOL     OW29263   0.701   6.570   6.871  0.1121 -0.2800 -0.2069
 8706SOL    HW129264   0.612   6.596   6.895 -0.2899 -2.2066  0.6417
 8706SOL    HW229265   0.755   6.600   6.944  0.2938  1.3365 -0.9535
 8707SOL     OW29266   8.032   2.375   3.255  0.1821  0.7785 -0.6719
 8707SOL    HW129267   7.970   2.430   3.206 -0.6430  0.1320 -0.3764
 8707SOL    HW229268   7.993   2.287   3.253 -0.0084  0.7802  1.3775
 8708SOL     OW29269   5.135   8.079   1.116  0.1920 -0.0030  0.4993
 8708SOL    HW129270   5.144   8.094   1.210  1.2291  0.6697  0.3114
 8708SOL    HW229271   5.195   8.007   1.098  0.6942  0.4787  0.2131
 8709SOL     OW29272   3.687   3.087   0.729 -0.4059  0.2340 -0.1052
 8709SOL    HW129273   3.676   3.021   0.661 -1.6483 -0.4689  0.7471
 8709SOL    HW229274   3.598   3.103   0.762  0.1883  0.3812  1.5050
 8710SOL     OW29275   1.091   2.829   8.030 -0.1893 -0.0934  0.4480
 8710SOL    HW129276   1.107   2.749   7.980  0.5057 -0.3247  1.0210
 8710SOL    HW229277   1.122   2.809   8.119  0.4175  0.9607  0.4885
 8711SOL     OW29278   1.749   2.636   2.162 -0.2212  0.2790 -0.3600
 8711SOL    HW129279   1.753   2.722   2.119 -2.0639  1.3254  1.4183
 8711SOL    HW229280   1.673   2.593   2.122  0.8136 -0.6965 -1.3963
 8712SOL     OW29281   5.060   2.887   2.772 -0.1954  0.1382  0.4142
 8712SOL    HW129282   5.060   2.881   2.867  2.2922 -1.3455  0.4236
 8712SOL    HW229283   4.968   2.888   2.748 -0.8997 -0.4189  2.8028
 8713SOL     OW29284   7.467   3.399   6.161 -0.4030  0.6311  0.0969
 8713SOL    HW129285   7.484   3.364   6.248  0.9538  0.2601 -0.3026
 8713SOL    HW229286   7.497   3.331   6.101 -1.7546  0.6739 -0.6863
 8714SOL     OW29287   1.078   5.857   3.820  0.1816 -0.1536 -0.1633
 8714SOL    HW129288   1.087   5.779   3.874 -0.2328 -0.9165 -1.1778
 8714SOL    HW229289   1.168   5.882   3.798  0.2817 -1.1856 -1.0031
 8715SOL     OW29290   4.556   3.494   2.007 -0.1000  0.3761 -0.1130
 8715SOL    HW129291   4.593   3.416   1.964 -0.9183 -0.7488  1.1233
 8715SOL    HW229292   4.610   3.566   1.976  2.1795 -0.9725  0.4349
 8716SOL     OW29293   3.624   5.645   6.393  0.1909  0.1690  0.5782
 8716SOL    HW129294   3.621   5.740   6.390 -0.3136  0.1528  0.5303
 8716SOL    HW229295   3.556   5.621   6.456  2.2863 -0.0326  2.9445
 8717SOL     OW29296   7.616   3.127   4.278  0.1628  0.2904 -0.2953
 8717SOL    HW129297   7.615   3.039   4.315 -2.1740  1.1920  2.1836
 8717SOL    HW229298   7.665   3.179   4.342  1.0122  0.9163 -1.4269
 8718SOL     OW29299   3.172   5.548   6.382 -0.7164 -0.3904 -0.2392
 8718SOL    HW129300   3.137   5.461   6.397 -0.0739 -0.6556 -0.2329
 8718SOL    HW229301   3.101   5.597   6.341 -2.0062 -0.1273  2.1565
 8719SOL     OW29302   5.838   2.300   2.254  0.1698 -0.4659  0.1669
 8719SOL    HW129303   5.829   2.388   2.216 -0.1512  0.6134  2.5532
 8719SOL    HW229304   5.886   2.315   2.336 -1.4522 -2.2495  1.5081
 8720SOL     OW29305   2.276   6.605   5.049 -0.3887 -0.0056  0.0067
 8720SOL    HW129306   2.274   6.700   5.063  1.9462  0.0306  0.5489
 8720SOL    HW229307   2.329   6.593   4.970  0.6473 -0.8666  0.7931
 8721SOL     OW29308   5.638   1.672   2.455 -0.2346 -0.0694  0.3912
 8721SOL    HW129309   5.637   1.738   2.525  1.0460  0.1047  0.2636
 8721SOL    HW229310   5.719   1.689   2.407 -0.9305 -0.4053 -0.9400
 8722SOL     OW29311   0.330   6.115   6.134  0.1242 -0.6669 -0.1957
 8722SOL    HW129312   0.360   6.024   6.140 -0.9696 -1.0610 -0.5271
 8722SOL    HW229313   0.321   6.142   6.225  2.7927 -0.0584 -0.0375
 8723SOL     OW29314   0.791   4.128   1.828  0.0546 -0.0440  0.3878
 8723SOL    HW129315   0.731   4.128   1.903 -0.0349 -0.9228  0.3265
 8723SOL    HW229316   0.769   4.207   1.779 -2.1804 -1.1445 -0.5249
 8724SOL     OW29317   6.357   0.746   7.335 -0.1348 -0.3212  0.7662
 8724SOL    HW129318   6.350   0.834   7.372 -2.2888  0.1013 -0.4780
 8724SOL    HW229319   6.319   0.688   7.402  0.2221 -0.1669  1.1047
 8725SOL     OW29320   1.621   5.363   4.022 -0.5207  0.0334 -0.1086
 8725SOL    HW129321   1.553   5.350   3.956 -1.1507  0.7131  0.3855
 8725SOL    HW229322   1.655   5.450   4.004  0.8249 -0.6242 -0.8751
 8726SOL     OW29323   2.652   7.955   2.164  0.3069  0.4762  0.2943
 8726SOL    HW129324   2.662   7.996   2.250 -0.7327  2.3660 -0.4153
 8726SOL    HW229325   2.650   8.029   2.103  0.4036 -0.7903 -1.2949
 8727SOL     OW29326   5.460   3.700   7.103 -0.0801 -0.1263  0.2536
 8727SOL    HW129327   5.382   3.658   7.139  0.3926 -0.7859  0.5323
 8727SOL    HW229328   5.427   3.762   7.038 -0.8331 -0.3504  0.4187
 8728SOL     OW29329   1.835   3.415   1.353  0.0346  0.0180  0.0119
 8728SOL    HW129330   1.784   3.404   1.433 -2.3424 -0.1067 -1.4316
 8728SOL    HW229331   1.832   3.330   1.310  1.9084 -0.1283  0.0642
 8729SOL     OW29332   4.336   6.995   1.769 -0.4701  0.2360  0.6288
 8729SOL    HW129333   4.390   7.018   1.845  0.5721 -0.0888  0.0123
 8729SOL    HW229334   4.246   6.997   1.802  0.0164 -1.0785  2.2033
 8730SOL     OW29335   0.229   5.709   7.017 -0.0616  0.1967 -0.0001
 8730SOL    HW129336   0.210   5.675   6.930 -0.6130 -0.2182  0.2775
 8730SOL    HW229337   0.271   5.794   7.001  0.4424 -0.1710 -0.6754
 8731SOL     OW29338   8.091   2.675   1.088 -0.0395 -0.3885 -0.4419
 8731SOL    HW129339   8.019   2.630   1.043 -0.2903 -0.2968 -0.1313
 8731SOL    HW229340   8.065   2.767   1.089 -0.4100 -0.4957  0.5951
 8732SOL     OW29341   4.540   6.053   7.550  0.0501  0.2535 -0.1310
 8732SOL    HW129342   4.630   6.082   7.568 -0.8344  2.4109  1.2015
 8732SOL    HW229343   4.502   6.123   7.497 -1.0872 -0.2719 -0.0396
 8733SOL     OW29344   2.777   0.939   5.404 -0.0495  0.0454  0.8336
 8733SOL    HW129345   2.722   0.991   5.345  1.0662  0.1814 -0.1187
 8733SOL    HW229346   2.862   0.934   5.360  1.6099  2.0973  3.4046
 8734SOL     OW29347   7.222   6.272   4.531  0.2244 -0.1083 -0.0466
 8734SOL    HW129348   7.166   6.300   4.603  0.0540 -0.1801 -0.1489
 8734SOL    HW229349   7.299   6.328   4.537  0.1965 -0.0932  0.1710
 8735SOL     OW29350   3.961   0.747   5.754 -0.2894  0.4402  0.3759
 8735SOL    HW129351   3.985   0.839   5.766  0.5580  0.3195 -0.2189
 8735SOL    HW229352   3.866   0.746   5.753 -0.3031  1.3799 -0.0634
 8736SOL     OW29353   4.361   4.273   0.993  0.1522  0.2363 -0.0763
 8736SOL    HW129354   4.338   4.358   0.956  1.9201 -0.1356 -2.2146
 8736SOL    HW229355   4.285   4.218   0.977  0.3077  0.5032 -1.9191
 8737SOL     OW29356   3.761   8.035   5.796 -0.4328 -0.1906  0.0557
 8737SOL    HW129357   3.737   8.127   5.781 -0.8119  0.1772  2.5259
 8737SOL    HW229358   3.701   8.006   5.864  1.2866 -1.5344  1.0696
 8738SOL     OW29359   4.080   2.843   0.007 -1.1604 -0.1387  0.2968
 8738SOL    HW129360   4.063   2.912  -0.057 -0.8594  0.0583  0.4279
 8738SOL    HW229361   4.010   2.852   0.071  0.5021  2.0177  1.9768
 8739SOL     OW29362   2.639   0.077   5.300  0.0631  0.2463 -0.2391
 8739SOL    HW129363   2.567   0.132   5.268  0.3590  0.1507 -1.1159
 8739SOL    HW229364   2.653   0.014   5.230 -1.7581 -2.4646  1.6658
 8740SOL     OW29365   0.157   7.434   6.554 -0.6820  0.4293  0.0367
 8740SOL    HW129366   0.091   7.465   6.492 -0.6890  0.7402  0.1990
 8740SOL    HW229367   0.106   7.392   6.623 -0.9886  3.5231  1.8626
 8741SOL     OW29368   3.188   2.125   3.064 -0.6986 -0.2141  0.5477
 8741SOL    HW129369   3.160   2.034   3.073 -0.9505 -0.2573 -0.5209
 8741SOL    HW229370   3.122   2.175   3.112 -1.0253 -0.5422  0.4449
 8742SOL     OW29371   4.086   2.566   1.283 -0.5878 -0.1300 -0.2982
 8742SOL    HW129372   4.145   2.605   1.347  0.8173 -1.0932 -0.9598
 8742SOL    HW229373   4.088   2.626   1.209  0.1981 -0.5493 -0.6266
 8743SOL     OW29374   0.258   2.735   3.082  0.0212 -0.4638 -0.0164
 8743SOL    HW129375   0.290   2.809   3.134  0.5253 -1.6855  1.5048
 8743SOL    HW229376   0.291   2.658   3.128 -1.8998 -1.6926 -0.5783
 8744SOL     OW29377   6.491   5.247   7.557  0.1066 -0.5642 -0.5340
 8744SOL    HW129378   6.441   5.217   7.481 -0.6296  0.2206 -0.3755
 8744SOL    HW229379   6.447   5.208   7.632 -1.1068  1.1254 -0.2924
 8745SOL     OW29380   0.910   2.619   7.332  0.4057  0.2326  0.3912
 8745SOL    HW129381   0.994   2.663   7.332  0.3853  0.3281 -0.8543
 8745SOL    HW229382   0.931   2.527   7.316  0.3359  0.0685  1.2046
 8746SOL     OW29383   5.775   3.924   2.709 -0.5194  0.1099  0.2946
 8746SOL    HW129384   5.734   3.943   2.625  0.1492 -2.1591 -0.6236
 8746SOL    HW229385   5.843   3.860   2.688  0.5548  0.4905  2.3906
 8747SOL     OW29386   2.079   3.227   7.388 -0.0519 -0.4439  0.2007
 8747SOL    HW129387   2.070   3.222   7.483  1.6268 -1.1295  0.3600
 8747SOL    HW229388   2.085   3.136   7.360  2.9061 -0.2384 -0.1250
 8748SOL     OW29389   3.000   5.485   6.859  0.2872 -0.2964  0.0217
 8748SOL    HW129390   2.956   5.503   6.775  1.3131 -1.0109 -0.6885
 8748SOL    HW229391   3.047   5.403   6.844  0.5141 -0.4139  1.3017
 8749SOL     OW29392   5.009   3.796   0.197  0.2179 -0.0410  0.0427
 8749SOL    HW129393   5.051   3.799   0.111 -0.9050  0.4445 -0.5194
 8749SOL    HW229394   4.968   3.882   0.206 -0.7583 -0.5342  0.4833
 8750SOL     OW29395   6.433   7.298   0.607 -0.1519  0.3938  0.5083
 8750SOL    HW129396   6.516   7.267   0.574 -0.5278  0.6000 -0.6847
 8750SOL    HW229397   6.456   7.368   0.668  0.5279  1.6049 -1.0616
 8751SOL     OW29398   1.058   7.679   2.704 -0.5157 -0.3411 -0.3398
 8751SOL    HW129399   1.120   7.737   2.660  0.3846 -0.6841  0.4278
 8751SOL    HW229400   0.988   7.665   2.641 -0.6202  1.3647 -0.6413
 8752SOL     OW29401   7.731   1.685   3.765  0.4421 -0.2004  0.4282
 8752SOL    HW129402   7.671   1.681   3.839  2.6676  1.1687  2.4427
 8752SOL    HW229403   7.724   1.775   3.732 -0.8699 -0.9171 -1.4209
 8753SOL     OW29404   6.899   7.344   1.136  0.6604 -0.0056 -0.0649
 8753SOL    HW129405   6.852   7.298   1.067 -1.4018 -1.2226  1.9868
 8753SOL    HW229406   6.832   7.398   1.179  1.6954  0.1743  1.4091
 8754SOL     OW29407   3.567   7.028   5.673 -0.2882  0.2343 -0.5028
 8754SOL    HW129408   3.614   7.057   5.594 -0.4163 -0.4345 -0.8317
 8754SOL    HW229409   3.566   6.933   5.666 -0.0152  0.1506  0.4779
 8755SOL     OW29410   2.680   7.987   6.471 -0.0109  0.0778  0.6780
 8755SOL    HW129411   2.741   7.927   6.514 -0.2656 -2.0333 -1.6765
 8755SOL    HW229412   2.601   7.985   6.526  0.8094  0.1832  1.9077
 8756SOL     OW29413   0.875   5.949   0.333 -0.0495 -0.7907 -0.3375
 8756SOL    HW129414   0.928   5.904   0.268 -0.9283 -2.5352  0.0812
 8756SOL    HW229415   0.938   5.994   0.390  0.8641 -1.5032 -0.7759
 8757SOL     OW29416   4.560   1.353   3.454  0.3483  0.2806 -0.1191
 8757SOL    HW129417   4.479   1.365   3.405 -0.5855 -1.2223  0.9835
 8757SOL    HW229418   4.567   1.430   3.509 -0.8230  0.0119  0.4226
 8758SOL     OW29419   5.770   5.294   0.514  0.2306  0.6491  0.0397
 8758SOL    HW129420   5.786   5.275   0.422 -0.0357 -1.2260  0.3371
 8758SOL    HW229421   5.846   5.344   0.543 -0.3625  2.5817 -1.5226
 8759SOL     OW29422   6.528   2.336   4.069  0.0549  0.4506 -0.1378
 8759SOL    HW129423   6.613   2.358   4.106 -0.5261 -0.9865  2.2805
 8759SOL    HW229424   6.538   2.245   4.039 -0.9005 -0.1331  1.2232
 8760SOL     OW29425   4.294   6.051   2.597  0.0305 -0.3584  0.7107
 8760SOL    HW129426   4.264   6.095   2.518  0.3864  0.8982  1.2494
 8760SOL    HW229427   4.238   5.974   2.604 -0.3178 -0.2369 -0.4999
 8761SOL     OW29428   4.999   1.071   6.143 -0.1819 -0.2540 -0.7044
 8761SOL    HW129429   5.065   1.054   6.076  0.6297  1.5965 -0.4199
 8761SOL    HW229430   5.041   1.043   6.225 -0.3293 -0.4739 -0.7038
 8762SOL     OW29431   2.798   3.063   7.554  0.1199  0.5601  0.1491
 8762SOL    HW129432   2.754   3.022   7.479 -0.2785  0.1425  0.6071
 8762SOL    HW229433   2.887   3.027   7.552  0.0439  0.3768  0.0045
 8763SOL     OW29434   1.477   8.030   7.972 -0.2175 -0.0514 -0.0952
 8763SOL    HW129435   1.514   7.958   7.920 -1.9094 -2.5228  1.8481
 8763SOL    HW229436   1.423   8.079   7.910  0.8111 -0.5620 -1.4504
 8764SOL     OW29437   3.805   0.607   2.566  0.0169  0.2232 -0.2971
 8764SOL    HW129438   3.717   0.609   2.604  0.7173 -1.7784  1.6768
 8764SOL    HW229439   3.791   0.582   2.475 -1.4222 -1.8859  0.4281
 8765SOL     OW29440   6.207   3.436   4.784 -0.1982 -0.4068 -0.0694
 8765SOL    HW129441   6.120   3.453   4.749 -0.6852  0.5146  1.4825
 8765SOL    HW229442   6.227   3.346   4.758 -1.9130 -0.8826  0.1562
 8766SOL     OW29443   7.761   5.178   4.839  0.1011 -0.5146 -0.1439
 8766SOL    HW129444   7.768   5.191   4.933  0.2372  1.0923 -0.3415
 8766SOL    HW229445   7.841   5.216   4.803 -0.3472 -0.3047 -0.9569
 8767SOL     OW29446   4.788   2.247   2.784  0.4075  0.5675  0.0216
 8767SOL    HW129447   4.739   2.197   2.718 -1.3148  0.8966  0.9831
 8767SOL    HW229448   4.807   2.184   2.853 -2.5266  1.2783  1.6418
 8768SOL     OW29449   2.520   3.237   6.891 -0.3924  0.3895  0.6293
 8768SOL    HW129450   2.594   3.209   6.945 -0.1238 -0.0230  0.0448
 8768SOL    HW229451   2.560   3.274   6.813 -0.8026 -1.9485 -0.7754
 8769SOL     OW29452   2.959   5.179   4.088  0.4853 -0.0569  0.3228
 8769SOL    HW129453   2.876   5.196   4.133  0.1143 -1.7884  0.3635
 8769SOL    HW229454   2.958   5.085   4.070  2.0110  0.0602 -0.5638
 8770SOL     OW29455   1.401   3.584   4.592 -0.3931 -0.1584  0.6240
 8770SOL    HW129456   1.311   3.560   4.569 -0.4460  0.1812  0.4685
 8770SOL    HW229457   1.423   3.527   4.666 -0.1017 -1.5342 -0.4687
 8771SOL     OW29458   0.012   0.788   2.951  0.1366 -0.6885  0.4340
 8771SOL    HW129459  -0.035   0.784   3.034  1.5827  0.3200  1.3415
 8771SOL    HW229460  -0.056   0.797   2.885 -0.9775 -0.0357  1.6314
 8772SOL     OW29461   3.718   7.465   4.811 -0.3509 -0.4547  0.3163
 8772SOL    HW129462   3.666   7.545   4.804  1.4035  0.7100  0.0528
 8772SOL    HW229463   3.656   7.394   4.794 -2.0779  0.8021  1.1839
 8773SOL     OW29464   2.706   2.519   0.243  0.1469 -0.1508 -0.3913
 8773SOL    HW129465   2.698   2.508   0.149 -1.8767  2.9718 -0.7226
 8773SOL    HW229466   2.789   2.566   0.254  0.1938 -0.1661 -0.6718
 8774SOL     OW29467   3.062   7.304   7.627 -0.0691  0.3020  0.9183
 8774SOL    HW129468   3.131   7.239   7.642  0.1531  0.4317  0.4773
 8774SOL    HW229469   3.109   7.384   7.606 -0.2945  1.0101  2.9172
 8775SOL     OW29470   2.379   4.284   6.466 -0.0196  0.1263 -0.2090
 8775SOL    HW129471   2.474   4.281   6.464 -0.0148  0.5670 -1.3518
 8775SOL    HW229472   2.351   4.195   6.448  0.1907  0.2182 -1.0524
 8776SOL     OW29473   6.127   7.585   5.437 -0.2407  0.9570  0.3055
 8776SOL    HW129474   6.068   7.659   5.429 -0.7548  0.3763 -1.7851
 8776SOL    HW229475   6.208   7.614   5.394 -0.4940  0.2959 -0.6520
 8777SOL     OW29476   2.578   4.112   5.851 -0.2413  0.0745  0.1850
 8777SOL    HW129477   2.512   4.139   5.915 -0.7282 -1.7299  0.4941
 8777SOL    HW229478   2.589   4.018   5.867  0.4251 -0.1873 -1.6698
 8778SOL     OW29479   3.187   7.869   7.150  0.4201 -0.4015  0.8567
 8778SOL    HW129480   3.215   7.952   7.111 -0.0400 -0.6987 -0.1517
 8778SOL    HW229481   3.166   7.891   7.241  0.7877  0.4764  0.7370
 8779SOL     OW29482   6.704   4.985   4.615 -0.3895  0.7051 -0.3352
 8779SOL    HW129483   6.658   5.068   4.601  0.1509  1.1829  0.6151
 8779SOL    HW229484   6.779   5.008   4.669  1.4437  0.0881 -2.4719
 8780SOL     OW29485   6.351   4.720   0.463 -0.1999 -0.7509  0.2378
 8780SOL    HW129486   6.379   4.631   0.443  2.7222  0.2828 -0.7939
 8780SOL    HW229487   6.289   4.742   0.393  0.1430 -1.4797 -0.3092
 8781SOL     OW29488   5.999   3.773   7.622 -0.4600 -0.7395  0.0297
 8781SOL    HW129489   5.981   3.741   7.711  1.1829 -2.3237 -0.1614
 8781SOL    HW229490   5.927   3.739   7.569  0.0613 -2.2627  0.2556
 8782SOL     OW29491   3.024   1.463   5.886 -0.2630  0.4573  0.3321
 8782SOL    HW129492   2.987   1.551   5.898 -0.6159  0.2212  0.9638
 8782SOL    HW229493   3.031   1.454   5.791 -1.1847  0.7754  0.2223
 8783SOL     OW29494   0.836   5.376   7.718  0.0012  0.1153  0.5427
 8783SOL    HW129495   0.888   5.433   7.775 -0.4643  1.4020 -0.2821
 8783SOL    HW229496   0.829   5.424   7.636  0.4002 -1.5553 -0.5304
 8784SOL     OW29497   0.251   1.655   0.324  0.5430  0.2362 -0.5506
 8784SOL    HW129498   0.269   1.653   0.229  1.0465 -0.0060 -0.4538
 8784SOL    HW229499   0.324   1.607   0.363 -0.6803 -1.4275 -0.1869
 8785SOL     OW29500   3.220   1.350   4.378 -0.8280 -0.3981 -0.1218
 8785SOL    HW129501   3.247   1.441   4.369 -1.1891 -0.1384  1.1981
 8785SOL    HW229502   3.212   1.336   4.473 -3.0024 -1.1193 -0.3382
 8786SOL     OW29503   7.893   1.159   7.790  0.0209 -0.1773  0.6275
 8786SOL    HW129504   7.988   1.163   7.798  0.1133  0.6214 -0.5553
 8786SOL    HW229505   7.866   1.251   7.783 -0.7405 -0.4350  0.0692
 8787SOL     OW29506   6.694   0.215   5.590 -0.3760  0.1536 -0.3302
 8787SOL    HW129507   6.641   0.243   5.515  0.1558  1.7960 -0.1401
 8787SOL    HW229508   6.764   0.163   5.552  0.6418  2.0441 -1.1948
 8788SOL     OW29509   7.701   6.871   6.236  0.0162  0.0839 -0.3214
 8788SOL    HW129510   7.685   6.944   6.177 -0.8810  0.2585  0.1226
 8788SOL    HW229511   7.739   6.803   6.180 -1.4348  0.0031 -1.2441
 8789SOL     OW29512   4.463   6.001   1.429 -0.1635 -0.5815 -0.8807
 8789SOL    HW129513   4.501   5.916   1.409  0.1696 -0.6050 -0.1946
 8789SOL    HW229514   4.414   6.025   1.350  0.8737 -0.7799 -1.6159
 8790SOL     OW29515   6.124   7.461   2.226 -0.6882 -0.0643  0.0696
 8790SOL    HW129516   6.137   7.554   2.244  0.0423 -0.3246  0.9955
 8790SOL    HW229517   6.053   7.458   2.163 -0.7046  1.1237  0.0127
 8791SOL     OW29518   3.486   4.906   7.214  0.3060 -0.0756  0.0402
 8791SOL    HW129519   3.425   4.893   7.141  0.6522 -1.0960 -0.0796
 8791SOL    HW229520   3.454   4.985   7.258 -1.6258 -1.0672  0.5142
 8792SOL     OW29521   6.291   6.027   6.423  0.5603 -0.1307  0.1790
 8792SOL    HW129522   6.348   5.999   6.494  0.4874  0.6436  0.5483
 8792SOL    HW229523   6.292   6.122   6.427 -0.0119 -0.0921 -0.4080
 8793SOL     OW29524   1.136   4.922   7.724 -0.2896  0.4026  0.2781
 8793SOL    HW129525   1.168   4.835   7.748 -1.2429 -0.4037 -1.1578
 8793SOL    HW229526   1.045   4.922   7.754 -0.3253  0.8418  0.1662
 8794SOL     OW29527   2.378   7.627   1.740  0.6676  0.2314 -0.1643
 8794SOL    HW129528   2.396   7.719   1.760  0.1330  0.5734 -1.1773
 8794SOL    HW229529   2.296   7.629   1.691  0.9117 -0.7443 -0.6338
 8795SOL     OW29530   0.500   4.406   5.987  0.2271  0.2404  0.3548
 8795SOL    HW129531   0.433   4.350   6.027 -0.1027  1.3708  1.4291
 8795SOL    HW229532   0.559   4.344   5.943 -0.0537 -0.9870  1.6109
 8796SOL     OW29533   0.778   7.952   7.930  0.5910 -0.1943  0.4016
 8796SOL    HW129534   0.742   7.962   8.018  1.2208 -1.4306  0.8185
 8796SOL    HW229535   0.705   7.920   7.878 -0.0340  1.4270  0.2429
 8797SOL     OW29536   7.965   3.504   5.130 -0.0978 -0.6212 -0.1146
 8797SOL    HW129537   8.056   3.513   5.158 -0.6935  2.6890  1.1915
 8797SOL    HW229538   7.926   3.443   5.192  0.2614  1.3566  2.1923
 8798SOL     OW29539   4.105   5.642   7.877  0.0318  0.0285 -0.4102
 8798SOL    HW129540   4.018   5.679   7.882  0.0196 -0.0970  0.3831
 8798SOL    HW229541   4.164   5.714   7.900  0.2948  0.6728 -2.8645
 8799SOL     OW29542   1.814   0.257   4.474 -0.0768 -0.2892 -0.0792
 8799SOL    HW129543   1.819   0.276   4.568  0.4684 -0.4292 -0.0751
 8799SOL    HW229544   1.721   0.244   4.457 -0.1736 -0.3212  0.4566
 8800SOL     OW29545   1.276   3.225   5.309  0.1285 -0.0747  0.4695
 8800SOL    HW129546   1.260   3.135   5.339  0.3004 -0.7130 -1.2024
 8800SOL    HW229547   1.371   3.234   5.312  0.3208 -0.8116 -1.4832
 8801SOL     OW29548   1.488   0.607   5.336  1.0838  0.2452  0.0572
 8801SOL    HW129549   1.412   0.664   5.326  0.5860 -0.2916  0.6822
 8801SOL    HW229550   1.470   0.532   5.278  0.0705 -0.9452  1.8245
 8802SOL     OW29551   7.544   3.195   7.178 -0.1897  0.3231 -0.1924
 8802SOL    HW129552   7.546   3.224   7.269 -1.1142  1.3596 -0.4655
 8802SOL    HW229553   7.451   3.181   7.160  0.0435 -0.5594 -0.7830
 8803SOL     OW29554   5.021   1.502   7.499 -0.0121  0.0885 -0.1618
 8803SOL    HW129555   4.986   1.562   7.433  1.9712  0.3110 -1.0786
 8803SOL    HW229556   4.979   1.418   7.479 -1.4949  0.7378  0.0525
 8804SOL     OW29557   3.836   0.288   3.454 -0.4075 -0.2488 -0.4311
 8804SOL    HW129558   3.834   0.209   3.401 -0.3242  0.4719 -1.5248
 8804SOL    HW229559   3.744   0.308   3.471 -0.4180 -0.8313  0.2502
 8805SOL     OW29560   3.212   5.291   4.075 -0.1829 -0.0943 -0.6073
 8805SOL    HW129561   3.120   5.271   4.093 -0.2436  0.6067 -0.0894
 8805SOL    HW229562   3.256   5.278   4.159 -0.3371  2.4870 -0.0603
 8806SOL     OW29563   5.734   7.098   6.941  0.4795  0.6447 -0.0547
 8806SOL    HW129564   5.740   7.004   6.927  0.4354  0.8178 -1.3955
 8806SOL    HW229565   5.640   7.117   6.935  0.4929  0.7832  0.1605
 8807SOL     OW29566   5.206   7.571   3.019  0.0812  0.3035  0.4206
 8807SOL    HW129567   5.164   7.542   2.939 -2.9971  0.4852  1.8430
 8807SOL    HW229568   5.180   7.507   3.085 -0.8737  2.2980  2.0873
 8808SOL     OW29569   7.519   7.194   0.293  0.3300 -0.0394  0.1564
 8808SOL    HW129570   7.546   7.218   0.382 -0.7940 -0.0231  0.5107
 8808SOL    HW229571   7.563   7.110   0.277  1.8202  0.7268  0.0907
 8809SOL     OW29572   3.077   3.570   1.856 -0.1431  0.1750 -0.2111
 8809SOL    HW129573   3.014   3.559   1.928  0.1465  0.5751  0.1038
 8809SOL    HW229574   3.025   3.604   1.784  0.1474  3.0955  0.8449
 8810SOL     OW29575   6.456   3.596   4.069  0.4916 -0.1754  0.9413
 8810SOL    HW129576   6.408   3.658   4.123 -1.4575 -1.5856  0.9523
 8810SOL    HW229577   6.461   3.517   4.123 -1.1881 -1.5012 -0.7192
 8811SOL     OW29578   3.723   7.349   2.490  0.5123  0.2725  0.0930
 8811SOL    HW129579   3.715   7.385   2.579 -1.4171 -1.1746  0.5451
 8811SOL    HW229580   3.685   7.416   2.434  2.7788  1.7251  0.1299
 8812SOL     OW29581   6.788   4.452   5.172 -0.2940 -0.0204  0.1758
 8812SOL    HW129582   6.827   4.539   5.173  1.2613 -0.6489 -1.2996
 8812SOL    HW229583   6.862   4.392   5.173 -1.2195 -1.2820 -1.5101
 8813SOL     OW29584   3.586   8.029   0.122  0.1124  0.0903  0.3701
 8813SOL    HW129585   3.626   8.048   0.037  0.7876 -2.5369 -0.0085
 8813SOL    HW229586   3.594   8.110   0.172  0.9616  1.2740 -1.5912
 8814SOL     OW29587   3.166   4.658   7.776 -0.3361 -0.7086  0.3238
 8814SOL    HW129588   3.101   4.708   7.725 -0.6453  0.8994  2.1644
 8814SOL    HW229589   3.119   4.581   7.806 -0.0882 -1.8137 -1.9018
 8815SOL     OW29590   8.086   2.779   5.720 -0.2614 -0.2303  0.0502
 8815SOL    HW129591   8.035   2.698   5.728  1.4799 -1.5744 -1.6699
 8815SOL    HW229592   8.073   2.807   5.629 -0.2280  1.0331  0.4083
 8816SOL     OW29593   1.385   4.984   5.252 -0.7059  0.0058 -0.1886
 8816SOL    HW129594   1.306   4.958   5.299 -0.9650  2.6367  0.9736
 8816SOL    HW229595   1.381   5.079   5.248  2.3907  0.2427 -0.1423
 8817SOL     OW29596   3.769   0.577   1.103 -0.6102 -0.1279  0.0162
 8817SOL    HW129597   3.762   0.485   1.079 -0.2295 -0.4477  1.0387
 8817SOL    HW229598   3.835   0.578   1.173 -2.3041  0.5765  1.6840
 8818SOL     OW29599   2.965   4.816   0.722 -0.4182  0.2103  0.3655
 8818SOL    HW129600   2.874   4.788   0.713 -0.4084  0.3059 -0.0464
 8818SOL    HW229601   3.000   4.762   0.794 -0.5171 -0.5305 -0.1330
 8819SOL     OW29602   0.227   0.216   2.045 -0.2625  0.2417  1.0532
 8819SOL    HW129603   0.165   0.282   2.074 -0.4493  1.6230 -2.0854
 8819SOL    HW229604   0.263   0.251   1.964  0.2290 -3.1774 -0.3697
 8820SOL     OW29605   5.637   3.616   2.033  0.1784  0.0748  0.1268
 8820SOL    HW129606   5.720   3.569   2.027  0.5117  0.5339  0.9536
 8820SOL    HW229607   5.579   3.569   1.973  0.5428 -1.3113  0.8055
 8821SOL     OW29608   6.157   1.345   0.681 -0.2628 -0.0878  0.2349
 8821SOL    HW129609   6.225   1.337   0.747  1.3869  1.6200 -1.1492
 8821SOL    HW229610   6.096   1.409   0.717  0.2197  0.2562  0.4512
 8822SOL     OW29611   6.856   2.326   3.501  0.2356 -0.0522  0.4136
 8822SOL    HW129612   6.811   2.291   3.425 -0.2439  0.1476  0.6032
 8822SOL    HW229613   6.791   2.323   3.571  0.1273  1.3592  0.4025
 8823SOL     OW29614   1.744   5.069   8.015  0.2668  0.4121  0.2946
 8823SOL    HW129615   1.832   5.071   7.978 -0.5448  0.9759 -1.7232
 8823SOL    HW229616   1.696   5.136   7.967 -1.9319 -1.5363 -0.4221
 8824SOL     OW29617   5.962   3.258   5.254 -0.2458 -0.4621  0.1876
 8824SOL    HW129618   5.949   3.212   5.337 -3.2899 -1.0668 -0.5261
 8824SOL    HW229619   5.913   3.207   5.190 -1.3017  2.1133 -1.1987
 8825SOL     OW29620   2.016   0.523   7.517  0.4129  0.4627  0.2490
 8825SOL    HW129621   1.998   0.617   7.518  2.0087  0.8886  3.7877
 8825SOL    HW229622   2.067   0.509   7.438  1.0023  2.7907  0.1380
 8826SOL     OW29623   1.276   6.156   0.716  0.0764  0.5557 -0.1686
 8826SOL    HW129624   1.259   6.076   0.765 -1.0804 -0.2833 -1.8555
 8826SOL    HW229625   1.297   6.127   0.628 -0.1830  2.0952 -0.7840
 8827SOL     OW29626   7.833   7.202   8.059  0.0083 -0.1219 -0.1107
 8827SOL    HW129627   7.846   7.236   7.971 -1.3769 -1.0017 -0.6933
 8827SOL    HW229628   7.840   7.279   8.116  0.1298  0.5890 -1.0646
 8828SOL     OW29629   0.230   4.591   1.623 -0.1064  0.0940  0.9544
 8828SOL    HW129630   0.135   4.594   1.625 -0.2536 -2.1867 -0.2870
 8828SOL    HW229631   0.253   4.517   1.679  0.9401  0.3496  0.8826
 8829SOL     OW29632   3.083   7.586   6.113 -0.2495  0.2402 -0.5246
 8829SOL    HW129633   3.012   7.521   6.110 -1.0626  1.1590 -2.0275
 8829SOL    HW229634   3.132   7.563   6.192  0.0458 -2.7742 -1.4539
 8830SOL     OW29635   5.287   3.438   1.169 -0.0476 -0.0231  0.6266
 8830SOL    HW129636   5.285   3.475   1.081 -1.4137 -0.3383  0.4983
 8830SOL    HW229637   5.370   3.391   1.174 -1.3619 -2.9472 -1.7644
 8831SOL     OW29638   3.933   6.652   0.318 -0.4148 -0.2937  0.7000
 8831SOL    HW129639   3.884   6.731   0.342  1.5178  0.9673  0.6904
 8831SOL    HW229640   3.866   6.591   0.288 -2.0047  1.2304  0.9627
 8832SOL     OW29641   2.282   5.180   6.795  1.0056  0.6355 -0.3855
 8832SOL    HW129642   2.207   5.200   6.851  0.8355 -0.7247 -0.1054
 8832SOL    HW229643   2.246   5.125   6.725  1.5109  1.0250 -0.9661
 8833SOL     OW29644   7.831   5.835   2.464  0.3110  0.2434 -0.1042
 8833SOL    HW129645   7.758   5.774   2.449  0.7425  0.3841 -3.5433
 8833SOL    HW229646   7.899   5.781   2.504 -1.0206 -0.2648  1.6274
 8834SOL     OW29647   2.241   2.537   1.495  0.5608 -1.0838  0.1599
 8834SOL    HW129648   2.243   2.543   1.591 -0.6895 -1.5781  0.2348
 8834SOL    HW229649   2.239   2.443   1.477 -0.9220 -0.9940 -0.2745
 8835SOL     OW29650   4.811   3.913   6.340 -0.1976 -0.1113  0.2147
 8835SOL    HW129651   4.782   3.859   6.414  0.9859 -0.1023  0.7079
 8835SOL    HW229652   4.879   3.969   6.377 -1.8224  2.2131 -0.1132
 8836SOL     OW29653   1.663   5.228   4.297  0.1615  0.0496  0.2384
 8836SOL    HW129654   1.590   5.165   4.297  0.7654 -0.7094 -0.8778
 8836SOL    HW229655   1.655   5.272   4.212 -0.5164  1.8441  1.1961
 8837SOL     OW29656   0.469   5.763   2.944  0.1783 -0.1471 -0.1690
 8837SOL    HW129657   0.502   5.779   3.033  2.3087  1.3805 -1.1520
 8837SOL    HW229658   0.520   5.821   2.889 -2.0856 -0.0036 -2.2788
 8838SOL     OW29659   6.830   6.615   6.255  0.0937  0.1035  0.3867
 8838SOL    HW129660   6.842   6.523   6.228  1.7645  0.2951  0.3371
 8838SOL    HW229661   6.858   6.666   6.179 -4.4574  0.7977 -1.1210
 8839SOL     OW29662   4.713   2.560   3.532 -0.1377 -0.3995  0.3235
 8839SOL    HW129663   4.618   2.561   3.539 -0.0641 -1.3460  1.9094
 8839SOL    HW229664   4.734   2.637   3.478 -1.9278 -1.9297 -2.8025
 8840SOL     OW29665   2.253   2.882   4.222  0.0708  0.0800 -0.0235
 8840SOL    HW129666   2.235   2.857   4.312  0.3028 -0.5475 -0.1464
 8840SOL    HW229667   2.173   2.927   4.193 -1.2951 -2.4143 -0.4610
 8841SOL     OW29668   5.436   0.242   4.901 -0.1070 -0.6024 -0.5990
 8841SOL    HW129669   5.513   0.292   4.928 -0.6346  1.8680 -3.2047
 8841SOL    HW229670   5.468   0.182   4.834 -0.4825  1.0117 -2.2951
 8842SOL     OW29671   5.003   1.461   7.770 -0.6714 -0.0908 -0.4787
 8842SOL    HW129672   5.020   1.462   7.676 -0.2178 -1.6138 -0.4435
 8842SOL    HW229673   4.930   1.400   7.781  1.3505 -2.5505  0.3823
 8843SOL     OW29674   6.778   2.559   3.059 -0.2478  0.1225  0.0041
 8843SOL    HW129675   6.837   2.525   3.127  1.5363  1.9359 -0.5500
 8843SOL    HW229676   6.803   2.511   2.980  0.9411  1.2911 -0.3571
 8844SOL     OW29677   5.166   4.961   4.123 -0.4098  0.2865  0.9109
 8844SOL    HW129678   5.146   4.933   4.034  0.0012  0.4828  0.7546
 8844SOL    HW229679   5.152   4.883   4.177  0.9196 -0.2800  0.4579
 8845SOL     OW29680   5.987   4.459   7.363 -0.9115  0.4936  0.0460
 8845SOL    HW129681   6.053   4.404   7.320 -2.2933 -1.9771  0.8903
 8845SOL    HW229682   5.965   4.411   7.443  0.0225  3.8460  2.5255
 8846SOL     OW29683   0.499   0.025   0.578  0.1940  0.4201  0.1847
 8846SOL    HW129684   0.460  -0.062   0.589 -0.4021  0.5595 -0.6609
 8846SOL    HW229685   0.428   0.077   0.541 -0.1664  1.8776  2.7238
 8847SOL     OW29686   4.768   1.176   3.452 -0.3425  0.0382  0.4542
 8847SOL    HW129687   4.816   1.177   3.369  1.3928  0.7326  1.4102
 8847SOL    HW229688   4.706   1.248   3.445  0.2502  0.5138  0.0011
 8848SOL     OW29689   0.057   2.341   7.377  0.7708 -0.2617  0.7136
 8848SOL    HW129690   0.006   2.315   7.301  0.3349 -1.8463  1.4929
 8848SOL    HW229691   0.148   2.339   7.348  0.7159 -2.1725  0.5396
 8849SOL     OW29692   3.389   7.386   5.528  0.7982  0.1156  0.6713
 8849SOL    HW129693   3.421   7.455   5.585 -2.3028  0.7143  1.9234
 8849SOL    HW229694   3.339   7.432   5.460  0.7972 -0.7801  0.0504
 8850SOL     OW29695   7.194   4.283   6.685  0.1690  0.1249  0.1758
 8850SOL    HW129696   7.173   4.190   6.678 -0.6610  0.2098  1.2877
 8850SOL    HW229697   7.193   4.300   6.779  1.3054  1.0480  0.0416
 8851SOL     OW29698   0.015   5.287   6.154 -0.2892 -0.5048  0.0739
 8851SOL    HW129699   0.108   5.294   6.137 -0.3232 -0.7630 -0.2187
 8851SOL    HW229700   0.010   5.245   6.241 -0.1352 -0.7066 -0.0133
 8852SOL     OW29701   0.618   0.057   6.467 -1.1105 -0.5561 -0.0236
 8852SOL    HW129702   0.679   0.057   6.541 -1.4047  0.3475  0.2306
 8852SOL    HW229703   0.633   0.141   6.424 -3.7264  0.7340  1.3545
 8853SOL     OW29704   4.811   3.687   5.150  0.4488 -0.5538  0.2960
 8853SOL    HW129705   4.746   3.707   5.216 -1.5002 -0.3418 -1.5687
 8853SOL    HW229706   4.795   3.595   5.127  1.0106 -0.5916  0.0214
 8854SOL     OW29707   7.397   6.575   2.431  0.0721 -0.2544  0.2895
 8854SOL    HW129708   7.450   6.568   2.351  2.0523  0.7320  1.4390
 8854SOL    HW229709   7.324   6.632   2.406  1.3245  1.0744 -0.5329
 8855SOL     OW29710   4.407   0.104   5.296 -0.3046 -0.0359 -0.0497
 8855SOL    HW129711   4.493   0.138   5.322 -0.8740  0.1320  1.7183
 8855SOL    HW229712   4.383   0.044   5.366 -1.5517 -0.2444 -0.6352
 8856SOL     OW29713   0.385   3.269   6.734  0.2361 -0.0184 -0.6354
 8856SOL    HW129714   0.404   3.214   6.810 -0.5106 -0.8988 -1.0641
 8856SOL    HW229715   0.471   3.298   6.703  0.6122 -0.5308 -0.0976
 8857SOL     OW29716   3.977   3.146   7.548 -0.4818 -0.3050 -0.6845
 8857SOL    HW129717   3.896   3.166   7.500 -0.8317  0.2125  0.1010
 8857SOL    HW229718   3.965   3.057   7.579 -0.5867 -0.3632 -0.8878
 8858SOL     OW29719   6.547   5.501   0.475  0.1998  0.1060 -0.0427
 8858SOL    HW129720   6.542   5.588   0.434 -1.5419 -0.7346 -1.7815
 8858SOL    HW229721   6.598   5.449   0.413  0.0708 -0.4619  0.3282
 8859SOL     OW29722   0.636   6.361   7.405  0.3007 -0.2236 -0.1802
 8859SOL    HW129723   0.549   6.394   7.426 -0.1513  0.0347 -2.2053
 8859SOL    HW229724   0.669   6.419   7.336  1.7280 -0.8157 -0.0511
 8860SOL     OW29725   5.303   1.252   1.648  0.1250 -0.1460  0.5897
 8860SOL    HW129726   5.342   1.203   1.720 -0.3353 -1.6099 -0.1152
 8860SOL    HW229727   5.252   1.186   1.599 -0.2784  0.9842 -0.5605
 8861SOL     OW29728   6.396   1.898   5.573 -0.7335 -0.5855  0.4359
 8861SOL    HW129729   6.320   1.893   5.515 -1.0652  1.7160  0.5607
 8861SOL    HW229730   6.366   1.951   5.647  0.1728 -2.0715  1.9275
 8862SOL     OW29731   0.535   1.383   3.778  0.2482  0.0342 -0.3965
 8862SOL    HW129732   0.519   1.315   3.713  2.2468 -0.0584 -0.8468
 8862SOL    HW229733   0.624   1.366   3.809  0.4580  1.9237  0.1266
 8863SOL     OW29734   6.506   0.985   7.948  0.0717  0.4743 -0.0380
 8863SOL    HW129735   6.507   1.080   7.938 -0.8640  0.4498 -0.4219
 8863SOL    HW229736   6.427   0.967   7.998  0.4080 -0.0811  0.2992
 8864SOL     OW29737   2.968   0.342   6.958 -0.0287  0.1001  0.2688
 8864SOL    HW129738   2.901   0.294   7.006  0.4435  0.1439  0.9784
 8864SOL    HW229739   3.039   0.353   7.020 -0.2826  2.0803  0.2745
 8865SOL     OW29740   0.153   3.184   7.323 -0.1628  0.4020 -0.2356
 8865SOL    HW129741   0.186   3.124   7.390  1.6208  0.1680 -1.2749
 8865SOL    HW229742   0.197   3.267   7.341 -1.9917  1.2297  0.6876
 8866SOL     OW29743   0.886   7.868   7.597 -0.0941  0.5702 -0.4369
 8866SOL    HW129744   0.957   7.846   7.657 -0.7474 -0.0890  0.1174
 8866SOL    HW229745   0.907   7.821   7.516 -0.7083 -0.9664  0.2488
 8867SOL     OW29746   0.242   2.668   1.036  0.6946 -0.0128  0.1686
 8867SOL    HW129747   0.244   2.614   0.957 -0.2484  1.0899 -0.6461
 8867SOL    HW229748   0.151   2.663   1.066  0.5948  1.0842  0.0893
 8868SOL     OW29749   7.943   2.576   2.375  0.0143  0.3907 -0.5229
 8868SOL    HW129750   7.891   2.496   2.381 -1.2273  1.2342  0.9066
 8868SOL    HW229751   8.033   2.548   2.393 -0.5402 -0.5744  0.9568
 8869SOL     OW29752   5.474   2.234   5.427 -0.4068  0.1383  0.5108
 8869SOL    HW129753   5.410   2.284   5.376  1.1565  1.2112 -0.5281
 8869SOL    HW229754   5.558   2.260   5.390  0.6428 -1.1588  1.8697
 8870SOL     OW29755   6.218   6.934   5.859  0.2006  0.4566 -0.8264
 8870SOL    HW129756   6.153   6.928   5.789 -1.6508  0.0169  0.8140
 8870SOL    HW229757   6.172   6.902   5.937  1.9097  1.6071  0.7556
 8871SOL     OW29758   6.315   4.002   4.438  0.1488  0.0538 -0.5807
 8871SOL    HW129759   6.261   3.934   4.479  0.8511 -1.1829 -1.6357
 8871SOL    HW229760   6.254   4.074   4.423 -0.2894  0.3216  1.9524
 8872SOL     OW29761   7.648   0.581   0.717  0.2390 -0.1098 -0.0547
 8872SOL    HW129762   7.591   0.538   0.781 -1.0038  1.5518  0.0305
 8872SOL    HW229763   7.731   0.535   0.724 -1.2864 -3.2388 -0.8086
 8873SOL     OW29764   8.023   1.199   1.651  0.4070 -0.3538 -0.2309
 8873SOL    HW129765   8.087   1.197   1.722 -0.2142  0.4458  0.3735
 8873SOL    HW229766   8.074   1.183   1.572  1.2019 -0.6811  0.3360
 8874SOL     OW29767   2.250   3.614   3.526  0.1289  0.2912  0.0322
 8874SOL    HW129768   2.205   3.558   3.462  0.8406  0.0647 -0.2780
 8874SOL    HW229769   2.306   3.554   3.575 -0.9221  0.3504  1.3508
 8875SOL     OW29770   3.970   7.392   1.509  0.0929  0.6021 -0.2700
 8875SOL    HW129771   3.890   7.386   1.457 -0.1673 -0.9025  0.2465
 8875SOL    HW229772   4.039   7.363   1.449 -0.3784 -2.4661  0.4822
 8876SOL     OW29773   2.175   5.050   3.659 -0.3240  0.7066 -0.6326
 8876SOL    HW129774   2.213   4.972   3.699 -2.5113 -0.9019 -1.5116
 8876SOL    HW229775   2.222   5.123   3.700  2.4427 -1.0356 -0.4579
 8877SOL     OW29776   1.377   1.696   1.059 -0.0065 -1.1866  0.1333
 8877SOL    HW129777   1.430   1.632   1.011  1.4112 -0.1375  0.2174
 8877SOL    HW229778   1.333   1.747   0.992  1.0408 -0.4950 -0.0645
 8878SOL     OW29779   7.510   4.289   1.738 -0.2079  0.0528  0.2101
 8878SOL    HW129780   7.574   4.272   1.669 -1.4657 -0.9427 -0.7819
 8878SOL    HW229781   7.488   4.381   1.728  1.4843  0.5863  0.9872
 8879SOL     OW29782   7.418   7.051   1.061  0.1964 -0.7510 -0.3779
 8879SOL    HW129783   7.484   6.983   1.058 -0.9908 -1.9748 -0.0104
 8879SOL    HW229784   7.467   7.133   1.068  1.6462 -1.7045  1.5092
 8880SOL     OW29785   2.504   7.601   4.477 -0.1360  0.3505 -0.0697
 8880SOL    HW129786   2.546   7.548   4.545 -0.7333  0.7530  0.6263
 8880SOL    HW229787   2.573   7.661   4.447  0.3471 -0.3516 -0.3783
 8881SOL     OW29788   4.983   1.674   7.028  0.1577 -0.5435  0.0694
 8881SOL    HW129789   5.069   1.701   7.058 -0.3218  0.3696  0.6440
 8881SOL    HW229790   4.998   1.590   6.984  1.0598 -1.3186  1.7746
 8882SOL     OW29791   2.314   5.499   2.817  0.3493 -0.0733 -0.1348
 8882SOL    HW129792   2.366   5.534   2.888  0.3524  1.1047 -0.6983
 8882SOL    HW229793   2.330   5.558   2.743 -1.1065 -0.1682 -0.5697
 8883SOL     OW29794   5.319   2.004   3.791 -0.7175  0.2084 -0.2994
 8883SOL    HW129795   5.341   1.945   3.863 -1.1007  1.9807  1.3633
 8883SOL    HW229796   5.397   2.058   3.779 -1.8330  2.3768  1.4061
 8884SOL     OW29797   0.392   2.727   2.759 -0.9756  0.0364 -0.0087
 8884SOL    HW129798   0.314   2.774   2.728  0.1859  1.6043 -0.6982
 8884SOL    HW229799   0.373   2.635   2.739 -1.9611  0.5565 -1.7401
 8885SOL     OW29800   7.148   3.823   3.294  0.4866 -0.5805  0.9213
 8885SOL    HW129801   7.067   3.802   3.339 -0.5129  0.9277 -0.0836
 8885SOL    HW229802   7.187   3.893   3.345  0.7656 -0.7576  0.9559
 8886SOL     OW29803   0.477   2.258   5.535 -0.2376 -0.1380 -0.3926
 8886SOL    HW129804   0.484   2.202   5.612 -2.0973  2.7339  2.0859
 8886SOL    HW229805   0.565   2.294   5.524  0.2324 -1.1539 -0.1041
 8887SOL     OW29806   2.750   6.855   2.894 -0.0415  0.4673  0.4321
 8887SOL    HW129807   2.752   6.761   2.875  0.3357  0.6195 -0.3002
 8887SOL    HW229808   2.658   6.874   2.910  0.0510 -0.3505  2.3124
 8888SOL     OW29809   4.262   3.103   3.996 -0.2090  0.0267  0.6203
 8888SOL    HW129810   4.189   3.042   3.982 -0.1172 -0.2239  1.2101
 8888SOL    HW229811   4.340   3.050   3.983 -0.1261  0.2774  0.0703
 8889SOL     OW29812   0.430   3.277   7.882 -0.4024  0.3414  0.0318
 8889SOL    HW129813   0.435   3.293   7.977 -0.3020  0.1422  0.0607
 8889SOL    HW229814   0.489   3.203   7.867 -0.3213  0.4539 -0.2066
 8890SOL     OW29815   4.283   4.171   0.291 -0.1998 -0.1705 -0.0050
 8890SOL    HW129816   4.354   4.228   0.261 -0.1361  0.5809  1.4740
 8890SOL    HW229817   4.251   4.129   0.212  2.1340 -0.8265 -0.6825
 8891SOL     OW29818   1.307   2.011   1.889  0.0028 -0.6705  0.1173
 8891SOL    HW129819   1.357   1.930   1.877  2.5443  0.5834  1.3480
 8891SOL    HW229820   1.356   2.076   1.838 -0.2957  0.6414  1.4345
 8892SOL     OW29821   6.897   7.494   0.458  0.4811  0.1254 -0.1717
 8892SOL    HW129822   6.993   7.492   0.463  0.4146 -0.7456  2.0959
 8892SOL    HW229823   6.875   7.587   0.468  1.0720  0.5034 -1.9720
 8893SOL     OW29824   4.133   1.837   5.524 -0.4288  0.0275  0.1164
 8893SOL    HW129825   4.201   1.904   5.515  0.6990 -1.0905 -0.0214
 8893SOL    HW229826   4.057   1.874   5.480  0.6513  0.5669 -1.4161
 8894SOL     OW29827   5.453   1.302   6.345 -0.0243 -0.3879 -0.1207
 8894SOL    HW129828   5.529   1.267   6.392 -1.5751 -2.2404  1.1825
 8894SOL    HW229829   5.404   1.350   6.411 -1.2460 -1.3781 -0.2716
 8895SOL     OW29830   1.835   6.850   3.145  0.3177 -0.4696 -0.3758
 8895SOL    HW129831   1.812   6.918   3.208 -1.6575 -0.3769 -1.1466
 8895SOL    HW229832   1.841   6.770   3.197  1.0946 -0.0004  0.2831
 8896SOL     OW29833   3.542   5.012   0.257 -0.0930 -0.0273  0.0392
 8896SOL    HW129834   3.589   5.006   0.340 -0.6697  0.4174  0.4033
 8896SOL    HW229835   3.589   5.078   0.207 -0.7361  0.9436  0.6846
 8897SOL     OW29836   4.782   1.866   6.933 -0.4267 -0.0151 -0.5729
 8897SOL    HW129837   4.848   1.805   6.966 -1.3013 -1.5533 -1.5688
 8897SOL    HW229838   4.833   1.938   6.896  0.6111  0.4297  1.5692
 8898SOL     OW29839   3.337   4.069   5.671 -0.1300  0.2127 -0.1646
 8898SOL    HW129840   3.419   4.074   5.622  0.1549  1.3098  0.3826
 8898SOL    HW229841   3.288   4.147   5.643 -0.0648  0.7282  1.0741
 8899SOL     OW29842   7.154   6.781   5.672  0.3563  0.3131 -0.2350
 8899SOL    HW129843   7.137   6.780   5.578 -1.0868  0.1171  0.0106
 8899SOL    HW229844   7.108   6.859   5.704  0.7405  0.3117  0.3256
 8900SOL     OW29845   4.900   4.886   3.408  0.1530  0.0329 -0.0182
 8900SOL    HW129846   4.912   4.977   3.435 -0.1841  0.1274 -0.1753
 8900SOL    HW229847   4.851   4.846   3.480 -2.5265  0.7890 -1.2986
 8901SOL     OW29848   3.876   6.709   8.086 -0.3194 -0.4015 -0.2749
 8901SOL    HW129849   3.897   6.623   8.122  0.2800 -0.2532 -0.2531
 8901SOL    HW229850   3.780   6.711   8.081 -0.4378 -0.3671  1.4901
 8902SOL     OW29851   7.522   7.112   7.284  0.2114 -0.3654 -0.1023
 8902SOL    HW129852   7.528   7.195   7.332  2.0711 -0.2839 -0.4020
 8902SOL    HW229853   7.540   7.135   7.193 -3.3470 -0.5147 -0.9971
 8903SOL     OW29854   7.854   1.425   7.616 -0.2111  0.1486 -0.2028
 8903SOL    HW129855   7.845   1.488   7.545  0.8194  0.8932  0.2921
 8903SOL    HW229856   7.769   1.383   7.622 -0.8043  1.2124 -0.8213
 8904SOL     OW29857   2.496   1.151   1.418  0.4835  0.4917  0.0839
 8904SOL    HW129858   2.572   1.178   1.470  1.0409  2.1462 -1.4792
 8904SOL    HW229859   2.422   1.196   1.459  0.6158  0.3000  0.5418
 8905SOL     OW29860   7.960   7.142   6.495 -0.5723 -0.1515  0.5423
 8905SOL    HW129861   7.953   7.046   6.499  1.3618 -0.3475  0.2600
 8905SOL    HW229862   8.053   7.158   6.477 -1.0170  1.7613 -0.2751
 8906SOL     OW29863   0.952   7.752   8.005  0.5082  0.1203  0.3028
 8906SOL    HW129864   0.920   7.837   7.976  0.5149 -0.2313 -0.7541
 8906SOL    HW229865   1.047   7.755   7.990  0.7222  0.4254  1.5706
 8907SOL     OW29866   0.804   0.213   1.547 -0.4797 -0.1123 -0.1857
 8907SOL    HW129867   0.807   0.143   1.481  1.4424  0.0613 -0.3516
 8907SOL    HW229868   0.872   0.274   1.519 -1.2854  1.2050  0.6527
 8908SOL     OW29869   1.585   7.226   2.017 -0.7777 -0.1819 -0.1340
 8908SOL    HW129870   1.574   7.152   1.957  0.3022 -0.0818 -0.4666
 8908SOL    HW229871   1.498   7.266   2.021 -1.3654 -1.4210  0.0091
 8909SOL     OW29872   7.854   5.014   1.569 -0.5257 -0.1288  0.1161
 8909SOL    HW129873   7.811   5.081   1.516  0.0689 -0.1291 -0.3872
 8909SOL    HW229874   7.831   4.931   1.526 -2.4387 -0.3934  1.5676
 8910SOL     OW29875   1.478   8.055   6.838 -0.0190  0.2800 -0.1886
 8910SOL    HW129876   1.390   8.024   6.819 -0.0200 -0.0095  0.2647
 8910SOL    HW229877   1.495   8.026   6.928  1.1399 -1.0809 -0.7968
 8911SOL     OW29878   7.030   2.679   4.932 -0.2085 -0.5217 -0.2722
 8911SOL    HW129879   6.964   2.656   4.998 -0.4323  0.5060 -0.1139
 8911SOL    HW229880   6.989   2.658   4.848  0.2301 -2.2156 -0.0918
 8912SOL     OW29881   3.729   7.532   6.252 -0.2917 -0.2543  0.6353
 8912SOL    HW129882   3.637   7.522   6.227 -0.4522  0.4861  0.9135
 8912SOL    HW229883   3.737   7.623   6.279  0.8821  0.1056 -0.8267
 8913SOL     OW29884   1.710   2.617   7.485 -0.4955  0.4737 -0.2914
 8913SOL    HW129885   1.734   2.553   7.417 -0.5453 -0.5834  0.6532
 8913SOL    HW229886   1.657   2.567   7.547  0.4074  1.1361  1.0686
 8914SOL     OW29887   2.946   0.816   3.944  1.2506 -0.2154 -0.0528
 8914SOL    HW129888   2.910   0.790   4.029  0.5235 -1.3706 -0.6992
 8914SOL    HW229889   2.962   0.910   3.953 -1.0365  0.1747  0.6045
 8915SOL     OW29890   6.948   2.694   2.466  0.4146  0.0011  0.4826
 8915SOL    HW129891   7.007   2.763   2.498  1.0785 -0.1599 -0.3575
 8915SOL    HW229892   6.876   2.741   2.424  0.6033  0.1910  0.3678
 8916SOL     OW29893   4.330   0.551   1.614  0.1597 -0.5681 -0.1817
 8916SOL    HW129894   4.356   0.571   1.525  0.2746 -0.0816 -0.0421
 8916SOL    HW229895   4.264   0.616   1.635  1.2211  0.2961  0.6116
 8917SOL     OW29896   6.542   7.840   5.695  0.2207 -0.2597 -0.3490
 8917SOL    HW129897   6.514   7.931   5.705 -0.2833 -0.3945 -0.5195
 8917SOL    HW229898   6.559   7.830   5.601  1.5864  0.0280 -0.1561
 8918SOL     OW29899   5.862   1.647   3.151 -0.1524  0.5503  0.6815
 8918SOL    HW129900   5.845   1.553   3.139 -0.9199  0.4089  2.5357
 8918SOL    HW229901   5.788   1.690   3.109  0.3357  0.3535 -0.4067
 8919SOL     OW29902   1.625   2.105   7.910 -0.1551 -0.0495 -0.2226
 8919SOL    HW129903   1.541   2.092   7.866 -0.4962 -2.4357  0.9942
 8919SOL    HW229904   1.611   2.070   7.999  1.3208  2.0711  0.9382
 8920SOL     OW29905   0.127   1.702   3.582 -0.4671  0.5527 -0.1706
 8920SOL    HW129906   0.220   1.717   3.601 -0.3105 -0.8198  0.2458
 8920SOL    HW229907   0.127   1.658   3.497 -0.6392 -0.6193  0.4235
 8921SOL     OW29908   1.282   1.958   0.553  0.4130 -0.3722  0.0038
 8921SOL    HW129909   1.285   2.053   0.565 -0.5087  0.0750 -2.6190
 8921SOL    HW229910   1.189   1.937   0.551  0.6181 -1.5224  1.5487
 8922SOL     OW29911   1.582   3.651   7.594  0.5985  0.0990 -0.3415
 8922SOL    HW129912   1.657   3.594   7.609  0.1244 -0.3526  0.3948
 8922SOL    HW229913   1.607   3.736   7.630  0.2411 -0.4263  1.2359
 8923SOL     OW29914   4.089   1.611   7.068 -0.3426  0.3083  0.5481
 8923SOL    HW129915   4.016   1.635   7.126 -0.3824 -0.1913  0.7049
 8923SOL    HW229916   4.155   1.679   7.085 -0.6497  0.5923  0.6269
 8924SOL     OW29917   2.058   2.960   1.659  0.0566 -0.1882  0.1855
 8924SOL    HW129918   2.088   2.909   1.584  1.5110  0.3758  0.3659
 8924SOL    HW229919   1.962   2.951   1.656 -0.0599  0.9951 -2.5726
 8925SOL     OW29920   0.511   5.025   4.341  0.0408  0.2731 -0.7279
 8925SOL    HW129921   0.505   4.984   4.255  0.9171 -0.6446 -0.3711
 8925SOL    HW229922   0.470   4.962   4.400  1.5212 -0.1859 -0.1533
 8926SOL     OW29923   5.183   8.086   6.741  0.3105 -0.6911 -0.1161
 8926SOL    HW129924   5.227   8.016   6.693  0.7596  0.0795 -0.8616
 8926SOL    HW229925   5.226   8.087   6.827 -0.6549 -2.2329  0.4213
 8927SOL     OW29926   3.280   4.429   1.439 -0.0185 -0.4026  0.2022
 8927SOL    HW129927   3.263   4.483   1.362  2.1174 -0.3515 -0.3085
 8927SOL    HW229928   3.215   4.359   1.435 -0.6321  0.2158 -1.0376
 8928SOL     OW29929   5.726   6.453   3.946 -0.3378 -0.3190 -0.0711
 8928SOL    HW129930   5.643   6.469   3.901  0.8283  1.2861 -1.7729
 8928SOL    HW229931   5.793   6.460   3.878  1.1731 -2.6314  1.0445
 8929SOL     OW29932   7.294   2.281   6.109 -0.0929 -0.3742  0.1076
 8929SOL    HW129933   7.256   2.316   6.190 -0.3405 -2.1618  0.8150
 8929SOL    HW229934   7.238   2.317   6.040 -0.2633  0.6821  0.7674
 8930SOL     OW29935   5.956   7.194   2.472 -0.0987 -0.2340  0.5535
 8930SOL    HW129936   6.043   7.233   2.461  0.4282 -1.5216 -0.1702
 8930SOL    HW229937   5.906   7.225   2.397  0.1754 -0.5588  0.2293
 8931SOL     OW29938   5.803   1.199   3.819 -0.0889 -0.5620  0.2038
 8931SOL    HW129939   5.739   1.150   3.767 -0.7278  0.0075  0.4420
 8931SOL    HW229940   5.792   1.165   3.908 -1.2959  0.7243  0.5892
 8932SOL     OW29941   6.744   2.846   2.366  0.0931 -0.5146 -0.2066
 8932SOL    HW129942   6.661   2.827   2.324 -0.2333 -1.9431  1.0040
 8932SOL    HW229943   6.755   2.941   2.357 -1.2104 -0.4325 -1.1548
 8933SOL     OW29944   3.931   3.685   6.751 -0.5009  0.8480  0.0133
 8933SOL    HW129945   3.885   3.725   6.677  0.5801  0.3321 -0.9647
 8933SOL    HW229946   3.925   3.591   6.735  1.1090  0.7704 -0.3072
 8934SOL     OW29947   6.995   4.267   6.440 -0.2536 -0.3502 -0.4291
 8934SOL    HW129948   6.942   4.261   6.520 -0.2841 -0.1877 -0.4375
 8934SOL    HW229949   7.084   4.281   6.472 -0.2843 -0.1621 -0.4274
 8935SOL     OW29950   4.752   0.932   4.100  0.0870 -0.0532  0.2640
 8935SOL    HW129951   4.663   0.902   4.083 -0.1016  0.6807 -0.0424
 8935SOL    HW229952   4.807   0.867   4.056 -0.1494 -2.1966  2.8638
 8936SOL     OW29953   2.496   3.759   2.043  0.0151 -0.2551  0.2740
 8936SOL    HW129954   2.468   3.727   1.958  0.5563  0.0635 -0.0304
 8936SOL    HW229955   2.506   3.680   2.097 -1.7876 -0.3571  0.5140
 8937SOL     OW29956   4.579   4.079   4.845 -0.4102  0.0477 -0.5752
 8937SOL    HW129957   4.634   4.103   4.920 -1.0335 -2.5184  0.8070
 8937SOL    HW229958   4.496   4.124   4.860 -0.1405  0.4837 -0.3651
 8938SOL     OW29959   8.080   6.851   2.991 -0.5124  0.3427 -0.1776
 8938SOL    HW129960   8.023   6.921   2.962 -1.4010 -0.3129 -0.0536
 8938SOL    HW229961   8.130   6.889   3.063  2.2850  2.2570 -2.8651
 8939SOL     OW29962   1.698   0.011   7.501 -0.1020 -0.1257  0.4917
 8939SOL    HW129963   1.735   0.092   7.535 -0.7784  0.0723  0.7664
 8939SOL    HW229964   1.641  -0.021   7.571  1.5850 -1.8321  1.1757
 8940SOL     OW29965   7.574   0.627   5.363 -0.1568 -0.0581  0.2931
 8940SOL    HW129966   7.507   0.653   5.426 -0.1386 -0.9395  0.6880
 8940SOL    HW229967   7.656   0.626   5.412 -0.2760 -1.6193  0.5082
 8941SOL     OW29968   3.893   5.007   2.150  0.1560 -0.8575 -0.0546
 8941SOL    HW129969   3.939   5.009   2.234  0.5648 -1.2118 -0.2649
 8941SOL    HW229970   3.962   4.994   2.085  0.0898  1.5011 -0.6605
 8942SOL     OW29971   2.387   3.492   4.181  0.0259 -0.3256  0.5422
 8942SOL    HW129972   2.416   3.573   4.222 -1.5065  0.2326  0.5810
 8942SOL    HW229973   2.435   3.488   4.098 -0.9931  1.4320 -0.1913
 8943SOL     OW29974   2.531   2.987   6.800  0.1741 -0.5709 -0.4765
 8943SOL    HW129975   2.563   2.916   6.856  0.2590 -0.5840 -0.5409
 8943SOL    HW229976   2.538   3.066   6.854  0.4759 -0.5476 -0.5466
 8944SOL     OW29977   3.491   6.496   0.326 -0.1849 -0.2183 -0.1521
 8944SOL    HW129978   3.528   6.582   0.308  0.1652 -0.6384 -1.5595
 8944SOL    HW229979   3.401   6.500   0.293 -0.3720 -0.2149  0.3393
 8945SOL     OW29980   1.971   6.428   4.634  0.2479  0.6700  0.1451
 8945SOL    HW129981   2.016   6.414   4.717  0.5796 -1.6745 -0.3406
 8945SOL    HW229982   1.997   6.515   4.606  2.0463  0.5666  1.3660
 8946SOL     OW29983   7.163   5.350   0.648 -0.0272 -0.0013  0.2265
 8946SOL    HW129984   7.100   5.295   0.694  1.2926  0.2988  2.5522
 8946SOL    HW229985   7.205   5.291   0.586 -0.6378 -0.8908  0.6252
 8947SOL     OW29986   4.959   0.436   5.788  0.3815  0.3166  0.1589
 8947SOL    HW129987   4.935   0.463   5.700 -0.3044  1.8500  0.7879
 8947SOL    HW229988   4.958   0.516   5.840 -1.2187 -0.7954  2.0148
 8948SOL     OW29989   1.456   5.964   4.338  0.7386  0.1104  0.2479
 8948SOL    HW129990   1.472   5.881   4.384 -0.2226  1.0044  2.3034
 8948SOL    HW229991   1.377   5.947   4.287  0.9962 -0.4694  0.0279
 8949SOL     OW29992   4.102   3.882   7.577 -0.6105 -0.1973  0.1537
 8949SOL    HW129993   4.079   3.801   7.532  1.9973  0.2344 -2.1693
 8949SOL    HW229994   4.034   3.944   7.551 -0.5990 -0.6831 -1.0933
 8950SOL     OW29995   1.226   3.873   0.815 -0.3049 -0.0038 -0.3619
 8950SOL    HW129996   1.198   3.782   0.806 -1.0193  0.2848 -1.2589
 8950SOL    HW229997   1.145   3.922   0.829  0.0986  0.4718  0.4221
 8951SOL     OW29998   6.646   7.685   1.766 -0.3220 -0.0495 -0.1685
 8951SOL    HW129999   6.576   7.679   1.701 -0.0276  0.8011 -0.5760
 8951SOL    HW230000   6.612   7.744   1.833  0.1943  0.8035 -0.6366
 8952SOL     OW30001   0.188   1.683   6.548 -0.5330 -0.2264 -0.5878
 8952SOL    HW130002   0.111   1.682   6.491 -0.9931  0.6647 -0.0106
 8952SOL    HW230003   0.240   1.757   6.517 -1.5501  1.2610  1.0803
 8953SOL     OW30004   5.564   2.409   1.555 -0.0353 -0.0784 -0.0393
 8953SOL    HW130005   5.542   2.472   1.486  1.4058  0.7863  0.2512
 8953SOL    HW230006   5.618   2.343   1.510  1.2589  0.7106  0.3097
 8954SOL     OW30007   6.858   0.547   6.651  0.2246 -0.0982 -0.0490
 8954SOL    HW130008   6.937   0.510   6.611  0.5111 -0.0173  0.4357
 8954SOL    HW230009   6.788   0.486   6.626  0.1525  0.6359 -1.7508
 8955SOL     OW30010   1.209   6.374   3.556  0.1400 -0.1779  0.0819
 8955SOL    HW130011   1.273   6.392   3.625  0.3481 -0.6881  0.0255
 8955SOL    HW230012   1.262   6.367   3.476  0.0224 -0.6820  0.0488
 8956SOL     OW30013   7.477   2.435   5.727  0.7497 -0.5541 -0.6177
 8956SOL    HW130014   7.571   2.434   5.708  0.6305  0.6007 -1.3456
 8956SOL    HW230015   7.467   2.497   5.799  0.5635 -0.8828 -0.3532
 8957SOL     OW30016   5.251   0.842   5.579 -0.3229 -0.3487  0.2127
 8957SOL    HW130017   5.330   0.896   5.590 -0.0904 -0.4039 -1.0372
 8957SOL    HW230018   5.185   0.903   5.545  0.4144 -1.1045 -2.8486
 8958SOL     OW30019   1.636   3.503   4.805  0.1940 -0.1551 -0.0626
 8958SOL    HW130020   1.638   3.558   4.883  1.1944 -1.5644  0.9442
 8958SOL    HW230021   1.578   3.430   4.828  0.7738 -0.7678 -0.4879
 8959SOL     OW30022   1.415   5.939   6.653  0.0213 -0.6353 -0.3630
 8959SOL    HW130023   1.348   5.879   6.620  1.4603 -2.2344 -0.4972
 8959SOL    HW230024   1.433   5.998   6.579 -0.5855 -0.7548 -0.6135
 8960SOL     OW30025   6.787   6.904   0.854  0.1814 -0.2802 -0.7763
 8960SOL    HW130026   6.802   6.838   0.923 -2.8036  2.1455  2.5830
 8960SOL    HW230027   6.771   6.852   0.775  0.8689 -3.4326  0.9630
 8961SOL     OW30028   6.026   4.137   5.226  0.2505  0.0650  0.3006
 8961SOL    HW130029   6.065   4.051   5.211 -0.7776 -0.0295 -2.3299
 8961SOL    HW230030   6.055   4.190   5.152  0.9597  2.0833  1.9282
 8962SOL     OW30031   5.418   4.765   3.842 -0.1560 -0.3482 -0.1740
 8962SOL    HW130032   5.346   4.789   3.900  2.6479  2.6462  2.4018
 8962SOL    HW230033   5.446   4.679   3.873 -0.5374 -0.0773  0.9639
 8963SOL     OW30034   6.013   5.778   6.858  0.4307 -0.2133 -0.2077
 8963SOL    HW130035   6.027   5.789   6.952 -0.9593 -0.7871  0.0929
 8963SOL    HW230036   5.925   5.811   6.843 -0.2019 -2.0785 -0.9027
 8964SOL     OW30037   5.814   4.549   2.993  0.1765  0.4325 -0.0074
 8964SOL    HW130038   5.722   4.555   2.968  0.0678 -0.4881  0.1299
 8964SOL    HW230039   5.850   4.483   2.933  0.0207 -1.4688  1.8886
 8965SOL     OW30040   1.013   4.214   2.967  0.0962  0.2732 -0.0420
 8965SOL    HW130041   1.090   4.270   2.977  0.8345 -0.9436  1.7245
 8965SOL    HW230042   1.006   4.200   2.873  0.3557  2.6181 -0.4719
 8966SOL     OW30043   3.414   6.820   6.904  0.0330 -0.4269 -0.0131
 8966SOL    HW130044   3.380   6.910   6.900  2.3433  0.5173 -3.4604
 8966SOL    HW230045   3.450   6.812   6.992 -0.2569  2.0591  0.4102
 8967SOL     OW30046   3.113   5.805   4.331 -0.2315  0.2515 -0.0874
 8967SOL    HW130047   3.100   5.728   4.275 -1.8249  0.9689 -0.7765
 8967SOL    HW230048   3.101   5.773   4.420 -2.3792 -0.0677 -0.4418
 8968SOL     OW30049   2.121   6.410   4.891  0.0805  0.0092 -0.7751
 8968SOL    HW130050   2.155   6.467   4.960  0.9344 -1.3507 -0.0365
 8968SOL    HW230051   2.042   6.370   4.929  0.5058 -0.6774 -0.5862
 8969SOL     OW30052   7.015   5.167   7.413 -0.3130  0.2954 -0.2726
 8969SOL    HW130053   7.044   5.079   7.394 -0.3151 -0.0193  1.0548
 8969SOL    HW230054   7.000   5.167   7.508 -0.1389  1.7630 -0.2199
 8970SOL     OW30055   5.146   4.377   2.445  0.5884  0.4374 -0.2071
 8970SOL    HW130056   5.145   4.298   2.390  0.4846  1.0998 -1.1789
 8970SOL    HW230057   5.098   4.352   2.524 -1.6843  0.2752 -1.5681
 8971SOL     OW30058   5.531   2.513   0.793 -0.3857 -0.5108 -0.3712
 8971SOL    HW130059   5.542   2.578   0.723  1.2528 -0.1079  0.2090
 8971SOL    HW230060   5.448   2.470   0.773 -1.3856  1.5395 -0.9693
 8972SOL     OW30061   2.336   2.102   3.472  0.5406  0.0522  0.3537
 8972SOL    HW130062   2.299   2.014   3.460 -1.3069  0.7827  0.3927
 8972SOL    HW230063   2.377   2.122   3.388  1.7395 -1.1611  0.6133
 8973SOL     OW30064   0.610   5.902   0.265  0.7147  0.1559  0.0138
 8973SOL    HW130065   0.695   5.906   0.310 -0.2503  2.3651  1.8386
 8973SOL    HW230066   0.546   5.895   0.336 -0.7216 -0.0518 -1.2568
 8974SOL     OW30067   6.607   1.988   4.530 -0.9242 -0.2948 -0.4009
 8974SOL    HW130068   6.567   2.036   4.603  0.1724 -0.2482  0.1793
 8974SOL    HW230069   6.630   2.056   4.467  1.2270  0.0778  0.7013
 8975SOL     OW30070   7.102   2.531   6.910  0.3067  0.4216 -0.3470
 8975SOL    HW130071   7.064   2.468   6.970  0.7856  1.2131  0.8393
 8975SOL    HW230072   7.163   2.581   6.964  0.6747  1.2359 -1.4772
 8976SOL     OW30073   4.407   1.973   5.473 -0.2055  0.0813 -0.1799
 8976SOL    HW130074   4.455   1.992   5.392 -1.1702 -0.9483 -1.0359
 8976SOL    HW230075   4.467   1.918   5.524  0.8064  1.5505  0.3051
 8977SOL     OW30076   1.100   6.544   7.956 -0.0584  0.0668  0.8133
 8977SOL    HW130077   1.122   6.515   7.867  0.2419 -0.3428  1.0179
 8977SOL    HW230078   1.089   6.463   8.006  2.2976  0.2610  1.7663
 8978SOL     OW30079   3.872   1.489   3.826 -0.0899  0.5244  0.3683
 8978SOL    HW130080   3.941   1.552   3.807 -0.0308  0.3726  0.0737
 8978SOL    HW230081   3.811   1.497   3.753  1.6691 -2.2285 -1.6527
 8979SOL     OW30082   4.445   3.112   5.930  0.1221  0.1557  0.4923
 8979SOL    HW130083   4.518   3.094   5.870 -0.7338 -1.0405 -0.2154
 8979SOL    HW230084   4.488   3.141   6.011  1.3436  0.4691 -0.2304
 8980SOL     OW30085   1.509   4.542   2.187  0.0416 -0.3259 -0.6537
 8980SOL    HW130086   1.565   4.620   2.187 -2.1771  1.3889 -0.4905
 8980SOL    HW230087   1.522   4.504   2.100  3.2408 -1.4814  0.1995
 8981SOL     OW30088   2.190   5.759   5.428 -0.0718 -0.0203 -0.0223
 8981SOL    HW130089   2.143   5.842   5.420  0.3384  0.0874 -1.8281
 8981SOL    HW230090   2.271   5.774   5.378  0.9131 -0.8783  1.2719
 8982SOL     OW30091   6.973   1.779   7.501  0.3041  0.0608 -0.1255
 8982SOL    HW130092   6.902   1.766   7.564  0.1045  1.4386 -0.0185
 8982SOL    HW230093   7.024   1.852   7.537  0.5484  0.4710 -1.2328
 8983SOL     OW30094   3.670   8.053   2.531  0.1898  0.4527 -0.2154
 8983SOL    HW130095   3.651   8.097   2.448 -0.1948 -1.1340 -1.0057
 8983SOL    HW230096   3.593   7.999   2.548  1.0172 -0.6284  0.2163
 8984SOL     OW30097   1.905   4.936   3.082 -0.0893 -0.8331  0.0096
 8984SOL    HW130098   1.962   4.861   3.069 -0.4488 -1.1108  0.0114
 8984SOL    HW230099   1.883   4.965   2.993 -0.0995 -0.8469  0.0075
 8985SOL     OW30100   4.299   3.310   5.825 -0.2666 -0.3754 -0.4444
 8985SOL    HW130101   4.322   3.375   5.891 -0.9422  0.0286 -0.5984
 8985SOL    HW230102   4.334   3.228   5.858 -0.2646 -0.1048  0.2276
 8986SOL     OW30103   6.718   0.797   4.204 -0.5682 -0.1712 -0.1412
 8986SOL    HW130104   6.718   0.889   4.178  1.0962 -0.3421 -0.8812
 8986SOL    HW230105   6.706   0.749   4.122  2.0643 -0.6532 -0.3303
 8987SOL     OW30106   3.854   1.201   1.841  0.5017 -0.2355 -0.0784
 8987SOL    HW130107   3.931   1.149   1.864  0.1177 -0.9206 -0.3140
 8987SOL    HW230108   3.871   1.287   1.878  1.6591 -0.1977 -0.6510
 8988SOL     OW30109   7.820   7.332   7.836  0.3214 -0.0104  0.8176
 8988SOL    HW130110   7.776   7.304   7.756 -1.4898  0.2717  1.6679
 8988SOL    HW230111   7.869   7.410   7.810 -0.6453  0.3800  0.0747
 8989SOL     OW30112   0.008   1.685   6.363 -0.1548 -0.3835 -0.0084
 8989SOL    HW130113  -0.065   1.649   6.313 -0.6309  0.2418  0.2258
 8989SOL    HW230114   0.073   1.711   6.298 -0.3139 -0.5665 -0.2387
 8990SOL     OW30115   0.857   0.081   2.363 -0.2774  0.6762  0.2051
 8990SOL    HW130116   0.941   0.125   2.363  0.7817 -1.1895  1.3995
 8990SOL    HW230117   0.854   0.035   2.447 -1.5235 -1.0070 -0.6908
 8991SOL     OW30118   2.753   5.201   4.663  0.4530  0.8015  0.5452
 8991SOL    HW130119   2.790   5.224   4.749 -0.6130  0.5578  1.0873
 8991SOL    HW230120   2.679   5.261   4.652 -0.1373  0.0579  0.3435
 8992SOL     OW30121   1.089   0.350   3.677  0.1198 -0.2493 -0.0203
 8992SOL    HW130122   1.052   0.267   3.704 -1.5566  0.8267  1.1540
 8992SOL    HW230123   1.172   0.356   3.725 -0.4833 -0.5565  1.0835
 8993SOL     OW30124   2.026   1.509   3.202  0.3613  0.1193 -0.2956
 8993SOL    HW130125   1.969   1.437   3.177 -0.3108  0.5632 -0.0672
 8993SOL    HW230126   1.969   1.586   3.203  0.0830  0.0521  3.2645
 8994SOL     OW30127   6.859   6.667   7.936 -0.0756  0.1181 -0.4884
 8994SOL    HW130128   6.815   6.752   7.945 -0.6585 -0.3307  1.3671
 8994SOL    HW230129   6.952   6.690   7.927  0.1851  1.0352  2.8758
 8995SOL     OW30130   2.839   4.199   3.097 -0.1387 -0.2407 -0.2533
 8995SOL    HW130131   2.928   4.214   3.065  0.1365 -2.7124 -0.8823
 8995SOL    HW230132   2.831   4.255   3.174  2.2667 -0.5847  0.3197
 8996SOL     OW30133   4.269   1.913   5.757 -0.1899 -0.7376 -0.3608
 8996SOL    HW130134   4.195   1.973   5.768  2.3819  2.5390  0.6557
 8996SOL    HW230135   4.245   1.859   5.681 -3.8529 -0.3834  0.3641
 8997SOL     OW30136   2.468   5.255   1.447 -0.4752 -0.1936  1.0128
 8997SOL    HW130137   2.375   5.280   1.452 -0.5741 -0.1046 -0.6553
 8997SOL    HW230138   2.491   5.269   1.355  1.5179  0.9083  1.6275
 8998SOL     OW30139   7.275   5.122   0.520  0.5032 -0.1665 -0.6644
 8998SOL    HW130140   7.229   5.165   0.449 -1.3668 -0.9914 -0.0094
 8998SOL    HW230141   7.341   5.068   0.477 -0.5615 -0.6174 -1.7760
 8999SOL     OW30142   5.556   3.661   7.946  0.0067  0.2727 -0.4528
 8999SOL    HW130143   5.567   3.634   7.855  0.6526  0.0672 -0.3187
 8999SOL    HW230144   5.595   3.748   7.950  1.4638 -0.3706 -0.0218
 9000SOL     OW30145   4.953   3.954   1.142  0.5036  0.6108  0.3444
 9000SOL    HW130146   5.001   3.896   1.083 -0.4297 -0.3160  0.4676
 9000SOL    HW230147   4.979   3.926   1.229 -0.8153 -0.4274  0.4334
 9001SOL     OW30148   1.957   0.500   5.977  0.3163  0.3188  0.3715
 9001SOL    HW130149   2.045   0.463   5.983  0.2942  0.5415  3.0174
 9001SOL    HW230150   1.899   0.424   5.967  0.5938 -0.0707  1.6149
 9002SOL     OW30151   2.439   7.313   1.735 -0.4301 -0.0746 -0.0759
 9002SOL    HW130152   2.478   7.398   1.754  0.1120 -0.3868  0.2534
 9002SOL    HW230153   2.484   7.252   1.794 -0.3873 -0.6800 -0.7121
 9003SOL     OW30154   7.948   2.732   2.167  0.2058  0.1957  0.9055
 9003SOL    HW130155   7.947   2.655   2.224  1.0529 -0.0683  0.5707
 9003SOL    HW230156   8.011   2.791   2.208 -0.9682  1.0455  1.5668
 9004SOL     OW30157   6.355   1.038   5.574  1.0152  0.2360  1.1252
 9004SOL    HW130158   6.343   0.967   5.511  0.2033  0.7006  0.7335
 9004SOL    HW230159   6.443   1.025   5.609  1.4989 -0.0255 -0.1206
 9005SOL     OW30160   2.136   6.459   7.565 -0.1710 -0.1214 -0.0038
 9005SOL    HW130161   2.209   6.483   7.507 -0.4378 -0.2314 -0.3821
 9005SOL    HW230162   2.063   6.441   7.507 -0.5139  0.0132  0.3788
 9006SOL     OW30163   6.373   4.386   1.522 -0.3712  0.1823  0.4206
 9006SOL    HW130164   6.286   4.347   1.526  0.2777 -1.2722  3.0195
 9006SOL    HW230165   6.362   4.475   1.556 -0.7766 -0.2113  1.3547
 9007SOL     OW30166   5.997   4.926   5.188  0.1761 -0.0971  0.3312
 9007SOL    HW130167   5.992   4.831   5.182 -0.1983 -0.0447 -0.3124
 9007SOL    HW230168   5.939   4.958   5.118  0.5838  0.6012  0.2947
 9008SOL     OW30169   7.701   6.627   6.853 -0.0761  0.5993  0.2325
 9008SOL    HW130170   7.689   6.644   6.760 -1.7588  1.4514  0.5690
 9008SOL    HW230171   7.750   6.545   6.856  0.6017  0.8925 -1.3882
 9009SOL     OW30172   7.882   7.049   3.161 -0.8109 -0.0351  0.0911
 9009SOL    HW130173   7.821   7.123   3.156 -0.6343  0.0381 -1.8288
 9009SOL    HW230174   7.907   7.033   3.070  2.0989 -0.0004  0.7896
 9010SOL     OW30175   0.336   5.192   7.529  0.3050 -0.6126  0.1337
 9010SOL    HW130176   0.254   5.173   7.483  1.2119  0.0854 -1.8786
 9010SOL    HW230177   0.315   5.267   7.584 -0.6888 -1.1304  0.4881
 9011SOL     OW30178   1.730   6.723   0.136 -0.0513  0.1544 -0.5387
 9011SOL    HW130179   1.758   6.675   0.058  0.5182  1.6017 -1.2728
 9011SOL    HW230180   1.760   6.669   0.209 -0.2541 -1.0461 -1.3164
 9012SOL     OW30181   3.708   7.381   2.812  0.2467  0.3070  0.6318
 9012SOL    HW130182   3.683   7.289   2.821 -3.0746  1.0547  0.4541
 9012SOL    HW230183   3.724   7.411   2.901 -1.0411  0.0947  0.9522
 9013SOL     OW30184   7.032   5.725   2.821  0.0398 -0.3840  0.3726
 9013SOL    HW130185   7.067   5.788   2.883  0.9263 -1.3238  0.8494
 9013SOL    HW230186   7.061   5.640   2.853 -0.1319 -0.9525 -0.9072
 9014SOL     OW30187   0.549   2.787   7.568 -0.5952 -0.1133  0.4608
 9014SOL    HW130188   0.637   2.748   7.567  0.2289  1.6580 -0.9977
 9014SOL    HW230189   0.527   2.792   7.661  1.7087  1.1686  1.0175
 9015SOL     OW30190   7.050   3.639   1.936 -0.4848  1.0557  0.0371
 9015SOL    HW130191   6.999   3.632   2.017 -1.4834 -0.3634 -0.6690
 9015SOL    HW230192   6.997   3.594   1.870  0.1583  2.4267 -1.4980
 9016SOL     OW30193   2.026   1.517   8.043 -0.2997  0.1472 -0.1829
 9016SOL    HW130194   2.095   1.452   8.033 -1.2262 -0.4292 -4.6220
 9016SOL    HW230195   1.945   1.470   8.025 -1.0773  2.2277 -2.7093
 9017SOL     OW30196   4.212   6.199   0.703 -0.1364 -0.5861 -0.6997
 9017SOL    HW130197   4.179   6.267   0.761 -3.0740 -1.1878 -1.5127
 9017SOL    HW230198   4.264   6.246   0.638  0.7079  0.4340  0.6695
 9018SOL     OW30199   7.856   0.262   6.946 -0.1413 -0.0550  0.5439
 9018SOL    HW130200   7.793   0.311   6.998  0.2335  2.5851 -1.2754
 9018SOL    HW230201   7.883   0.323   6.877  1.8431 -2.2330 -0.7718
 9019SOL     OW30202   1.916   2.155   3.465  0.7326 -0.3379  0.3291
 9019SOL    HW130203   1.995   2.196   3.499  1.7970 -2.2770  0.3416
 9019SOL    HW230204   1.944   2.067   3.439 -1.1228 -0.6068 -0.9685
 9020SOL     OW30205   6.451   4.617   1.658  0.1501  0.2843 -0.3527
 9020SOL    HW130206   6.543   4.606   1.684 -0.2799 -1.0347  0.7920
 9020SOL    HW230207   6.421   4.693   1.707  0.0029 -0.7508  1.2258
 9021SOL     OW30208   4.101   6.457   2.467 -0.2391 -0.4249 -0.6210
 9021SOL    HW130209   4.106   6.423   2.378 -0.0519 -2.6318  0.1779
 9021SOL    HW230210   4.190   6.485   2.488 -0.2501 -0.0536 -1.0668
 9022SOL     OW30211   0.025   7.816   5.871 -0.4275  0.3157  0.0597
 9022SOL    HW130212  -0.057   7.769   5.883  0.6416 -1.4345  0.9417
 9022SOL    HW230213   0.022   7.849   5.782 -2.3874  0.9362  0.3183
 9023SOL     OW30214   6.006   6.571   2.180 -0.0882 -0.2736 -0.1719
 9023SOL    HW130215   6.034   6.483   2.156  0.1986 -1.1541  3.0164
 9023SOL    HW230216   6.000   6.570   2.275 -1.2189  2.8445 -0.0832
 9024SOL     OW30217   2.506   7.481   5.397 -0.6196 -0.2907 -0.1652
 9024SOL    HW130218   2.497   7.570   5.429  0.7701 -0.2079  0.0567
 9024SOL    HW230219   2.509   7.489   5.302  0.4440  0.0126 -0.1163
 9025SOL     OW30220   3.411   2.276   6.332 -0.0177 -0.1235  0.3477
 9025SOL    HW130221   3.338   2.320   6.290 -0.9922 -1.7686  0.2146
 9025SOL    HW230222   3.470   2.253   6.260  0.0352  0.1500  0.3047
 9026SOL     OW30223   1.623   1.994   4.078  0.0847 -0.2104  0.2400
 9026SOL    HW130224   1.646   2.069   4.023  1.9592 -1.3307 -0.5948
 9026SOL    HW230225   1.617   2.030   4.167  1.2091  0.8889 -0.1053
 9027SOL     OW30226   6.891   4.494   7.766  0.7428 -0.2444 -0.1426
 9027SOL    HW130227   6.811   4.546   7.766  0.7620 -0.0104 -3.7611
 9027SOL    HW230228   6.953   4.545   7.714  1.9682 -2.1953 -0.6964
 9028SOL     OW30229   5.453   4.235   5.651 -0.2251  0.2427  0.4553
 9028SOL    HW130230   5.427   4.315   5.606  1.0607 -0.2244 -1.2068
 9028SOL    HW230231   5.412   4.165   5.601  0.6947 -0.2513  0.3692
 9029SOL     OW30232   4.164   5.326   2.376  0.0656  0.4411 -0.0708
 9029SOL    HW130233   4.242   5.333   2.432  0.7998 -1.1980 -0.7941
 9029SOL    HW230234   4.154   5.232   2.362 -1.1015  0.7239 -1.3252
 9030SOL     OW30235   5.931   7.306   7.688 -0.1589  0.4383 -0.2202
 9030SOL    HW130236   6.018   7.279   7.716 -0.2435 -0.8823 -1.1022
 9030SOL    HW230237   5.872   7.250   7.740 -0.3482 -1.0729 -1.9684
 9031SOL     OW30238   2.055   5.612   0.384 -0.0322 -0.5515 -0.4211
 9031SOL    HW130239   2.024   5.662   0.308 -0.4186 -1.7982 -1.0979
 9031SOL    HW230240   2.149   5.629   0.387 -0.3344  1.2640  0.1597
 9032SOL     OW30241   3.135   3.959   3.172 -0.1835  0.3104 -0.5565
 9032SOL    HW130242   3.097   4.008   3.246  1.3222  0.5420  0.1025
 9032SOL    HW230243   3.108   3.869   3.187 -0.3198  0.4367  0.0016
 9033SOL     OW30244   4.593   3.554   4.862 -0.2118 -0.2941 -0.5712
 9033SOL    HW130245   4.648   3.624   4.826 -1.4208 -0.3642 -2.7640
 9033SOL    HW230246   4.653   3.500   4.914  1.0050  1.6114  0.0982
 9034SOL     OW30247   0.817   5.215   1.856  0.3620  0.3985 -0.1157
 9034SOL    HW130248   0.904   5.210   1.816  0.4167  0.0698  0.0430
 9034SOL    HW230249   0.826   5.168   1.939 -0.3273 -0.8738 -0.7385
 9035SOL     OW30250   0.717   3.620   2.007  0.1319  0.3375  0.4388
 9035SOL    HW130251   0.709   3.570   2.089 -1.0682  0.1985  0.2695
 9035SOL    HW230252   0.632   3.663   1.998  0.7411  1.4702 -0.0364
 9036SOL     OW30253   3.694   7.849   6.802 -0.1158 -0.2566 -0.1396
 9036SOL    HW130254   3.619   7.864   6.859 -0.4240 -0.8127 -0.3932
 9036SOL    HW230255   3.688   7.756   6.779  0.4898 -0.2358 -0.3856
 9037SOL     OW30256   0.375   1.098   0.505 -0.0867 -0.5494 -0.0637
 9037SOL    HW130257   0.381   1.123   0.412 -0.2921  1.0622  0.3259
 9037SOL    HW230258   0.366   1.181   0.551  0.5119 -1.3019  1.4592
 9038SOL     OW30259   5.542   7.972   3.835 -0.0298 -0.0555 -0.1473
 9038SOL    HW130260   5.514   7.882   3.813  0.6797 -0.0187 -1.2916
 9038SOL    HW230261   5.606   7.994   3.767  1.6778  0.4133  1.5286
 9039SOL     OW30262   6.596   8.059   2.764  0.2610  0.7716 -0.1562
 9039SOL    HW130263   6.514   8.067   2.715  0.1108  2.1070  0.2780
 9039SOL    HW230264   6.575   7.999   2.836 -0.7302  2.0708  0.6936
 9040SOL     OW30265   3.510   7.133   3.083  0.1439  0.4195 -0.0601
 9040SOL    HW130266   3.506   7.187   3.162  1.3107  0.7139 -0.1946
 9040SOL    HW230267   3.480   7.047   3.112 -1.6043  1.0580  0.1825
 9041SOL     OW30268   8.089   2.303   0.957 -0.3447 -0.5027  0.1248
 9041SOL    HW130269   8.010   2.312   0.904  1.0391  1.9562 -1.7863
 9041SOL    HW230270   8.085   2.375   1.020 -0.4327 -1.4391  1.2165
 9042SOL     OW30271   7.415   3.600   5.058 -0.5465 -0.1984  0.4513
 9042SOL    HW130272   7.399   3.647   4.977 -1.9766 -0.5643  0.5038
 9042SOL    HW230273   7.493   3.642   5.095 -1.0749  1.3125 -0.0919
 9043SOL     OW30274   5.644   5.233   3.490 -0.3252  0.0765  0.1879
 9043SOL    HW130275   5.671   5.319   3.522 -0.0658  0.8850 -2.0899
 9043SOL    HW230276   5.702   5.215   3.416 -2.0001 -0.9209 -0.9431
 9044SOL     OW30277   6.754   4.377   4.287  0.6554 -0.6380 -0.1828
 9044SOL    HW130278   6.729   4.359   4.378  0.7088  0.0914 -0.0151
 9044SOL    HW230279   6.846   4.403   4.292  0.2785  0.8183 -0.2397
 9045SOL     OW30280   5.211   1.048   5.940  0.8279  0.1224 -0.4844
 9045SOL    HW130281   5.185   1.095   5.861  1.3715  1.3369  0.0293
 9045SOL    HW230282   5.285   1.099   5.974  0.3510 -0.1476  1.0159
 9046SOL     OW30283   4.299   4.433   4.271 -0.1953 -0.4263 -0.1390
 9046SOL    HW130284   4.360   4.367   4.239 -0.4987 -0.7534 -0.0566
 9046SOL    HW230285   4.216   4.411   4.229 -0.3584 -0.2514  0.0863
 9047SOL     OW30286   0.132   2.957   7.791  0.3427 -0.4681  0.0287
 9047SOL    HW130287   0.068   2.906   7.841  0.3306  0.7866  1.3866
 9047SOL    HW230288   0.119   3.047   7.822  2.1161 -0.0400 -0.3652
 9048SOL     OW30289   7.430   2.828   2.846  0.2411 -0.0990 -0.2188
 9048SOL    HW130290   7.450   2.737   2.822  0.4386 -0.8157  2.3700
 9048SOL    HW230291   7.342   2.825   2.883  0.3319  0.7194  0.0865
 9049SOL     OW30292   4.559   7.571   5.518 -0.1643  0.1005  0.1485
 9049SOL    HW130293   4.615   7.647   5.500  0.8704 -1.0341 -1.7235
 9049SOL    HW230294   4.513   7.555   5.435 -1.6643 -0.3162  1.0254
 9050SOL     OW30295   0.874   1.113   0.643 -0.0220  0.2660  0.1427
 9050SOL    HW130296   0.895   1.131   0.734 -0.0321  1.0089  0.0054
 9050SOL    HW230297   0.787   1.074   0.645 -0.1698  0.6072  0.4266
 9051SOL     OW30298   2.861   3.871   2.660  0.0963 -0.0052  0.3271
 9051SOL    HW130299   2.875   3.807   2.730 -0.1720 -0.8185 -0.3368
 9051SOL    HW230300   2.949   3.893   2.630  0.1821 -0.3642  0.3083
 9052SOL     OW30301   2.634   1.301   7.841 -0.0219  0.6048  0.0994
 9052SOL    HW130302   2.607   1.214   7.871  0.6786  0.3747  0.0762
 9052SOL    HW230303   2.586   1.315   7.760  2.1917 -1.0931 -1.6080
 9053SOL     OW30304   5.235   1.830   2.598  0.3020  0.2650  0.1039
 9053SOL    HW130305   5.191   1.909   2.567 -0.2612  0.5647  1.5984
 9053SOL    HW230306   5.185   1.758   2.560 -0.8540  0.6137  0.9132
 9054SOL     OW30307   2.798   4.182   0.877  0.5156 -0.3590 -0.2426
 9054SOL    HW130308   2.881   4.136   0.864  1.0457  0.7845 -1.0167
 9054SOL    HW230309   2.759   4.140   0.954  1.8252 -0.8930  0.1502
 9055SOL     OW30310   4.896   3.078   7.391  0.4998 -0.4626 -0.0422
 9055SOL    HW130311   4.967   3.140   7.410  0.3704  0.2301 -1.5885
 9055SOL    HW230312   4.940   3.005   7.347  0.6889 -1.6485  2.0074
 9056SOL     OW30313   3.221   0.085   6.775  0.8142 -0.2986 -0.4291
 9056SOL    HW130314   3.311   0.117   6.766  0.3807  0.7135 -1.3701
 9056SOL    HW230315   3.201   0.046   6.689  1.2845 -3.1294  0.6284
 9057SOL     OW30316   5.384   3.808   1.103  0.0876  0.1369  0.5570
 9057SOL    HW130317   5.448   3.746   1.070 -0.1747  0.0685  0.1688
 9057SOL    HW230318   5.395   3.806   1.198  1.8816  1.4340  0.4407
 9058SOL     OW30319   3.979   1.043   3.925 -0.3919 -0.8525 -0.2400
 9058SOL    HW130320   3.939   1.092   3.853  0.3625  1.0684  0.5954
 9058SOL    HW230321   3.911   0.982   3.953 -2.4576  1.6408  0.4942
 9059SOL     OW30322   4.455   0.095   1.654  0.3907  0.3327 -0.5025
 9059SOL    HW130323   4.486   0.184   1.638 -0.9179  0.9360  0.2164
 9059SOL    HW230324   4.419   0.066   1.571  1.8604  0.0123 -1.0610
 9060SOL     OW30325   2.013   7.640   3.599  0.6403  0.2328 -0.4921
 9060SOL    HW130326   2.052   7.724   3.576  1.4802 -0.3599 -1.2976
 9060SOL    HW230327   2.070   7.604   3.667 -0.4943  0.9088  0.8575
 9061SOL     OW30328   7.313   5.443   1.113  0.7752 -0.3168  0.0129
 9061SOL    HW130329   7.271   5.467   1.196  1.0905 -1.9671  0.7011
 9061SOL    HW230330   7.314   5.347   1.114  1.3442 -0.3566 -1.6322
 9062SOL     OW30331   1.777   7.124   1.386 -0.3247  0.0313  0.0445
 9062SOL    HW130332   1.856   7.098   1.433  0.1266  1.0112 -0.1613
 9062SOL    HW230333   1.794   7.098   1.295  0.4092  1.5732 -0.2949
 9063SOL     OW30334   0.245   0.641   6.792 -0.4409 -0.2315  0.2495
 9063SOL    HW130335   0.296   0.627   6.712 -1.9628 -1.1681 -0.5879
 9063SOL    HW230336   0.228   0.735   6.793 -0.3941 -0.2085 -0.5114
 9064SOL     OW30337   5.998   7.016   3.775 -0.5632 -0.1592 -0.2636
 9064SOL    HW130338   6.073   7.051   3.727 -0.0899  0.9099  1.1679
 9064SOL    HW230339   5.922   7.044   3.725 -0.0587  0.2218 -0.8309
 9065SOL     OW30340   4.413   7.439   5.314 -0.0981  0.1730 -0.5672
 9065SOL    HW130341   4.397   7.346   5.300 -0.5792  0.0992  0.3794
 9065SOL    HW230342   4.438   7.473   5.228  0.6121 -0.9324 -0.8146
 9066SOL     OW30343   0.589   1.773   7.075  0.2387  0.3084  0.2138
 9066SOL    HW130344   0.602   1.747   7.167  0.3662 -1.8077 -0.3353
 9066SOL    HW230345   0.520   1.839   7.078 -0.9849 -0.9539  1.7234
 9067SOL     OW30346   3.850   2.426   6.951 -0.4888 -0.4296 -0.3907
 9067SOL    HW130347   3.807   2.484   7.014 -0.4922 -1.0705  0.2016
 9067SOL    HW230348   3.778   2.387   6.902 -0.6505 -1.9229  0.9669
 9068SOL     OW30349   6.097   4.767   5.943 -0.5406 -0.2191 -0.4462
 9068SOL    HW130350   6.114   4.721   5.861  1.4122 -1.0517  0.3644
 9068SOL    HW230351   6.077   4.698   6.006  1.7581 -0.0050  0.6257
 9069SOL     OW30352   6.889   5.550   4.947  0.0423  0.1406  0.1657
 9069SOL    HW130353   6.957   5.574   4.884  0.0292  0.0703  0.1246
 9069SOL    HW230354   6.853   5.634   4.976 -2.9576  0.2262 -3.1332
 9070SOL     OW30355   2.788   6.387   5.342 -0.7217 -0.9847 -0.2462
 9070SOL    HW130356   2.736   6.405   5.264  1.7938  3.8925 -1.1807
 9070SOL    HW230357   2.729   6.406   5.415 -1.4947  0.2104 -1.1484
 9071SOL     OW30358   6.464   2.894   5.347  0.2732  0.3040 -0.2688
 9071SOL    HW130359   6.473   2.987   5.368 -0.0018 -0.0792  1.7758
 9071SOL    HW230360   6.370   2.881   5.336  0.0532 -0.1126  1.7096
 9072SOL     OW30361   3.421   7.060   3.912 -0.0071 -0.8920 -0.0660
 9072SOL    HW130362   3.453   7.088   3.826  0.2426  0.7694  0.5336
 9072SOL    HW230363   3.338   7.017   3.893 -0.2044 -0.1023 -1.1057
 9073SOL     OW30364   3.990   2.760   2.467 -0.1630  0.8104 -0.1787
 9073SOL    HW130365   3.928   2.705   2.419 -1.4046  0.2561  1.9118
 9073SOL    HW230366   4.048   2.698   2.511 -1.4626  1.0557  2.0579
 9074SOL     OW30367   1.497   0.198   7.344  0.0368 -0.4892 -0.3759
 9074SOL    HW130368   1.523   0.289   7.350  0.6293 -0.7281  1.0278
 9074SOL    HW230369   1.561   0.158   7.285 -1.0264  0.2452 -2.1080
 9075SOL     OW30370   0.026   1.108   1.347 -0.0223 -0.2741 -0.7117
 9075SOL    HW130371   0.108   1.086   1.303  0.4723 -1.1894  0.6047
 9075SOL    HW230372  -0.033   1.036   1.325 -0.4383  0.2847 -1.4954
 9076SOL     OW30373   4.942   5.948   3.590 -0.2302  0.4760  0.0661
 9076SOL    HW130374   4.864   5.948   3.535 -0.6561 -0.8467  0.6431
 9076SOL    HW230375   4.910   5.922   3.677  0.7619  0.4712  0.4406
 9077SOL     OW30376   7.583   5.080   4.657  0.1004  0.3350 -0.0007
 9077SOL    HW130377   7.634   5.120   4.728 -0.0157  1.7511 -0.6849
 9077SOL    HW230378   7.639   5.089   4.580  0.8042 -2.3796  0.0877
 9078SOL     OW30379   5.331   2.470   0.142  0.2067 -0.2211 -0.0405
 9078SOL    HW130380   5.279   2.446   0.066  0.8232 -0.5398 -0.3621
 9078SOL    HW230381   5.333   2.390   0.196  0.3300 -0.1938 -0.0051
 9079SOL     OW30382   4.455   5.500   5.817 -0.2206  0.1203  0.3534
 9079SOL    HW130383   4.363   5.515   5.838 -0.5314 -0.6639 -0.3874
 9079SOL    HW230384   4.500   5.577   5.851 -1.4258  1.6289 -1.2823
 9080SOL     OW30385   1.835   2.754   2.931 -0.1596 -0.4203 -0.2720
 9080SOL    HW130386   1.819   2.685   2.867 -1.6690 -0.9753  0.6481
 9080SOL    HW230387   1.773   2.736   3.002  0.5812  0.9086  0.7662
 9081SOL     OW30388   7.004   3.104   7.933  0.4528 -0.0492  0.0724
 9081SOL    HW130389   6.960   3.134   8.012 -0.7118 -3.5755  0.9604
 9081SOL    HW230390   7.097   3.124   7.947 -0.0378  1.5896  1.1807
 9082SOL     OW30391   3.746   1.092   6.918 -0.3972 -0.2576  0.1757
 9082SOL    HW130392   3.803   1.017   6.901  1.1406  1.3004 -2.1520
 9082SOL    HW230393   3.658   1.059   6.904  0.3062 -1.4270 -1.8954
 9083SOL     OW30394   5.848   2.923   6.369  0.2546 -0.4524  0.4367
 9083SOL    HW130395   5.786   2.850   6.372 -0.3415 -0.0221 -0.6118
 9083SOL    HW230396   5.794   3.001   6.381  0.7242 -0.1214  0.4329
 9084SOL     OW30397   4.504   7.953   4.530  0.1025  0.2739  0.1807
 9084SOL    HW130398   4.419   7.984   4.560  0.5380  0.4842  1.2481
 9084SOL    HW230399   4.544   8.030   4.488 -0.8062 -0.2196 -1.6719
 9085SOL     OW30400   7.690   3.910   7.379 -0.2111  0.3928 -0.1884
 9085SOL    HW130401   7.756   3.967   7.420  0.2702 -0.6831  0.5744
 9085SOL    HW230402   7.650   3.965   7.312  1.5783  1.0441 -0.7933
 9086SOL     OW30403   6.746   0.627   4.866  0.2020  0.2767 -0.2420
 9086SOL    HW130404   6.691   0.672   4.931 -1.4759  0.6218 -1.8044
 9086SOL    HW230405   6.710   0.538   4.863  1.4182 -0.2688  0.5105
 9087SOL     OW30406   0.529   3.594   4.794 -0.3800 -0.5607 -0.0361
 9087SOL    HW130407   0.582   3.588   4.873  0.7048 -0.1407 -0.7162
 9087SOL    HW230408   0.442   3.621   4.825 -0.0052 -0.5468  1.0143
 9088SOL     OW30409   1.653   0.596   0.955 -0.5403  0.3033  0.6421
 9088SOL    HW130410   1.571   0.634   0.925 -1.0375 -1.2178 -0.0564
 9088SOL    HW230411   1.711   0.671   0.968 -0.3812  1.2341 -3.8818
 9089SOL     OW30412   5.835   1.616   1.705  0.5181  0.4995 -0.3072
 9089SOL    HW130413   5.925   1.642   1.688  1.1461 -1.9527 -1.2810
 9089SOL    HW230414   5.784   1.659   1.635  1.1158  0.9200 -0.4923
 9090SOL     OW30415   5.482   5.799   4.456  0.8878 -0.0747 -0.3533
 9090SOL    HW130416   5.476   5.727   4.393 -1.8955  1.4781 -2.0750
 9090SOL    HW230417   5.488   5.878   4.403  0.7603  1.1841  1.3885
 9091SOL     OW30418   7.940   3.260   0.633 -0.4494  0.4961 -0.7455
 9091SOL    HW130419   7.918   3.321   0.563 -1.4556  0.5284 -0.4227
 9091SOL    HW230420   7.966   3.180   0.588  0.1831  0.9307 -1.1620
 9092SOL     OW30421   2.737   0.630   5.505 -0.0980  0.2529 -0.2931
 9092SOL    HW130422   2.671   0.698   5.496  0.1869  0.6531  0.5028
 9092SOL    HW230423   2.783   0.630   5.422 -1.3947 -0.3659 -1.0487
 9093SOL     OW30424   3.103   0.850   2.043 -0.5094  0.0960 -0.0051
 9093SOL    HW130425   3.058   0.865   1.960 -1.3305 -1.5999  0.0865
 9093SOL    HW230426   3.143   0.764   2.034  2.1129  1.2012  0.2301
 9094SOL     OW30427   2.448   0.437   7.921  0.4014  0.4013  0.3456
 9094SOL    HW130428   2.447   0.442   7.826 -0.6836 -0.4754  0.2817
 9094SOL    HW230429   2.489   0.519   7.950  0.3527  0.8640 -0.8596
 9095SOL     OW30430   0.705   1.886   5.279  0.2311 -0.3049 -0.0446
 9095SOL    HW130431   0.613   1.874   5.258 -0.3415 -1.3389  2.5672
 9095SOL    HW230432   0.742   1.797   5.276  0.7309 -0.1232  0.4735
 9096SOL     OW30433   5.181   4.917   4.847 -0.0139 -0.4712  0.1976
 9096SOL    HW130434   5.250   4.911   4.914 -1.1128 -1.9867  1.2765
 9096SOL    HW230435   5.129   4.837   4.859 -0.7680 -0.3703 -1.9348
 9097SOL     OW30436   1.819   1.657   1.039  0.4171  0.2243 -0.0660
 9097SOL    HW130437   1.791   1.572   1.006  1.2027 -0.3214  0.6150
 9097SOL    HW230438   1.756   1.719   1.003 -0.6935 -0.7522  0.1340
 9098SOL     OW30439   4.545   6.403   0.393  0.2757  0.6408 -0.9606
 9098SOL    HW130440   4.600   6.324   0.398  0.9426  1.1723  2.1845
 9098SOL    HW230441   4.579   6.450   0.317  1.8673 -0.7043 -1.1636
 9099SOL     OW30442   4.282   6.195   0.144 -0.0081 -0.2258 -0.9012
 9099SOL    HW130443   4.349   6.264   0.137  0.9006 -0.5968  2.3041
 9099SOL    HW230444   4.201   6.239   0.120  0.6217  1.8802  0.4751
 9100SOL     OW30445   0.720   7.637   1.512  0.2474 -0.2655  0.6804
 9100SOL    HW130446   0.748   7.653   1.602 -1.2870  1.8110  0.8641
 9100SOL    HW230447   0.798   7.655   1.459  0.4963  1.0104  1.4492
 9101SOL     OW30448   3.756   2.853   5.246 -0.7746 -0.0332 -0.3583
 9101SOL    HW130449   3.836   2.823   5.290 -1.0133  1.0332  0.8536
 9101SOL    HW230450   3.690   2.857   5.315 -1.2330  1.4338 -0.8368
 9102SOL     OW30451   7.892   5.466   1.701  0.5919  0.1365 -0.0195
 9102SOL    HW130452   7.977   5.496   1.735  1.5295  0.3219 -2.3135
 9102SOL    HW230453   7.891   5.373   1.720 -0.2174  0.6272  2.9106
 9103SOL     OW30454   6.829   2.282   5.870  0.3388 -0.6921 -0.1344
 9103SOL    HW130455   6.820   2.193   5.904  1.6629 -0.2195  1.6909
 9103SOL    HW230456   6.920   2.286   5.839 -0.4145 -0.6475 -2.5187
 9104SOL     OW30457   5.323   0.218   7.437  0.4420  0.3952  0.4699
 9104SOL    HW130458   5.366   0.281   7.495  0.5312  0.3464  0.4564
 9104SOL    HW230459   5.379   0.141   7.441  0.8294  0.6343 -0.2344
 9105SOL     OW30460   2.305   1.214   6.836  0.1555  0.6236 -0.0828
 9105SOL    HW130461   2.237   1.271   6.873 -1.0819  1.6247 -3.4685
 9105SOL    HW230462   2.269   1.126   6.843 -0.3559  0.8626  0.3948
 9106SOL     OW30463   1.166   0.588   0.823  0.0220  0.5209 -0.3430
 9106SOL    HW130464   1.109   0.512   0.810 -0.9042  1.0027  0.6945
 9106SOL    HW230465   1.174   0.628   0.737  0.3167 -0.6055 -0.8500
 9107SOL     OW30466   4.527   1.780   4.048 -0.4078 -0.1072 -0.4577
 9107SOL    HW130467   4.529   1.715   4.118  1.4047  1.0702  0.6538
 9107SOL    HW230468   4.619   1.794   4.026 -0.8371  1.1854 -1.5379
 9108SOL     OW30469   7.756   7.152   2.053  0.8153 -0.2108  0.3134
 9108SOL    HW130470   7.821   7.216   2.081  0.7266 -0.7601  1.8902
 9108SOL    HW230471   7.798   7.067   2.067  0.1119 -0.5479  0.4556
 9109SOL     OW30472   1.888   7.928   1.363 -0.1055 -0.3864  0.3247
 9109SOL    HW130473   1.851   7.890   1.284  1.9211 -0.0971 -0.8205
 9109SOL    HW230474   1.871   8.022   1.355  0.3288 -0.3259  0.0973
 9110SOL     OW30475   3.465   4.753   1.444 -0.0508  0.1983 -0.3669
 9110SOL    HW130476   3.446   4.825   1.384 -0.4943  0.2417 -0.1749
 9110SOL    HW230477   3.557   4.765   1.468  0.1039  0.2368 -0.9652
 9111SOL     OW30478   3.415   5.222   0.999 -0.6984 -0.0808 -0.0356
 9111SOL    HW130479   3.413   5.144   0.944  0.3896 -0.3167  0.2541
 9111SOL    HW230480   3.327   5.228   1.036 -1.2534 -0.2816 -1.2836
 9112SOL     OW30481   5.381   5.555   7.007 -0.9385  0.5994 -0.0896
 9112SOL    HW130482   5.364   5.596   7.091 -0.1850  1.2144 -0.2250
 9112SOL    HW230483   5.396   5.463   7.027  0.0083  0.8845  0.5526
 9113SOL     OW30484   3.918   0.831   7.570 -0.2258 -0.6626 -0.3119
 9113SOL    HW130485   3.943   0.752   7.523 -3.9268 -0.6652 -2.6550
 9113SOL    HW230486   3.865   0.800   7.643  0.5916 -0.4088  0.4057
 9114SOL     OW30487   2.998   0.925   2.558 -0.3751  0.1645 -0.2418
 9114SOL    HW130488   3.080   0.879   2.578 -0.6965 -0.2889  0.0351
 9114SOL    HW230489   2.957   0.940   2.643 -2.9098 -3.9025 -0.4848
 9115SOL     OW30490   7.059   0.351   7.255 -0.4418 -0.4457 -0.6312
 9115SOL    HW130491   6.971   0.378   7.283  0.1776  1.2945 -0.2292
 9115SOL    HW230492   7.068   0.261   7.287 -1.7395 -0.3325  0.1213
 9116SOL     OW30493   0.722   2.394   6.775  0.0250  0.0656 -0.0379
 9116SOL    HW130494   0.793   2.330   6.766  0.7556  1.0411 -1.6777
 9116SOL    HW230495   0.748   2.466   6.718 -2.7070  0.0714 -1.4097
 9117SOL     OW30496   2.358   7.210   2.586  0.4177  0.2069  0.4370
 9117SOL    HW130497   2.343   7.303   2.600 -0.0712 -0.1229  2.4162
 9117SOL    HW230498   2.453   7.203   2.573  0.7993  0.7931  2.5013
 9118SOL     OW30499   0.090   3.491   7.080 -0.0582  0.4565 -0.1291
 9118SOL    HW130500   0.016   3.431   7.089 -0.5682  0.9435 -0.9035
 9118SOL    HW230501   0.161   3.437   7.046 -0.7608  0.4354 -1.6437
 9119SOL     OW30502   4.833   3.503   4.085  0.1692  0.5252  0.6773
 9119SOL    HW130503   4.822   3.482   4.178 -1.1318 -1.1322  0.1848
 9119SOL    HW230504   4.927   3.490   4.069  0.1040 -1.0008  1.3639
 9120SOL     OW30505   6.624   6.124   6.483 -0.0858 -0.7003 -0.6701
 9120SOL    HW130506   6.655   6.140   6.394 -2.0724  4.1685 -0.7856
 9120SOL    HW230507   6.670   6.189   6.536 -0.2042 -2.3708  1.6121
 9121SOL     OW30508   7.991   1.377   6.553 -0.3191 -0.0642 -0.2600
 9121SOL    HW130509   7.937   1.398   6.630 -0.6240 -0.4677 -0.3537
 9121SOL    HW230510   8.078   1.360   6.589  0.5707  3.5525 -0.4116
 9122SOL     OW30511   4.258   4.257   3.007  0.7565 -0.7853  0.2565
 9122SOL    HW130512   4.267   4.258   3.102  1.1996 -0.1461  0.2135
 9122SOL    HW230513   4.163   4.250   2.992  0.5382  0.6656  0.7702
 9123SOL     OW30514   2.069   7.722   0.412  0.4890 -0.0526 -0.6606
 9123SOL    HW130515   2.019   7.772   0.476 -0.3293 -2.3370  0.6165
 9123SOL    HW230516   2.003   7.688   0.351  0.7574 -0.9771 -0.4634
 9124SOL     OW30517   6.306   0.491   7.439  0.2396 -0.0109 -0.2459
 9124SOL    HW130518   6.320   0.404   7.403  0.2164  0.3440 -1.1274
 9124SOL    HW230519   6.384   0.508   7.493  0.3352 -0.4867 -0.2332
 9125SOL     OW30520   6.755   5.546   6.826  0.0322 -0.5016  0.2463
 9125SOL    HW130521   6.676   5.553   6.771 -0.9049  0.4059  1.6313
 9125SOL    HW230522   6.753   5.456   6.858  0.2321 -0.8433 -0.6776
 9126SOL     OW30523   5.481   3.397   1.955 -0.1371 -0.3132  0.4869
 9126SOL    HW130524   5.396   3.375   1.992 -0.4285 -0.9028 -0.5104
 9126SOL    HW230525   5.544   3.356   2.014 -0.5917 -1.2371  0.3410
 9127SOL     OW30526   7.501   5.409   6.134  0.3525  0.6444 -0.4866
 9127SOL    HW130527   7.549   5.486   6.103 -1.0999  1.1993 -1.4744
 9127SOL    HW230528   7.568   5.353   6.173  1.4267  2.4935  0.4609
 9128SOL     OW30529   7.261   4.809   7.607  0.0510 -0.5549 -0.0744
 9128SOL    HW130530   7.325   4.880   7.599  1.1775 -1.7229 -2.3427
 9128SOL    HW230531   7.314   4.730   7.614 -1.1544 -1.4339 -0.6403
 9129SOL     OW30532   5.573   5.290   6.089  0.4010  0.1801  0.0590
 9129SOL    HW130533   5.514   5.232   6.137  1.0290 -0.9085 -0.4620
 9129SOL    HW230534   5.658   5.278   6.130  0.6055  0.5065 -0.2625
 9130SOL     OW30535   4.856   2.006   7.918  0.0999 -0.1523  0.1422
 9130SOL    HW130536   4.915   1.936   7.947 -0.9812 -0.9418  0.5109
 9130SOL    HW230537   4.769   1.965   7.918 -0.7670  1.5585  1.6494
 9131SOL     OW30538   2.117   7.560   7.615 -0.4436 -0.6031 -0.7212
 9131SOL    HW130539   2.197   7.566   7.562  0.2865 -0.6467  0.3414
 9131SOL    HW230540   2.133   7.618   7.689 -1.5680 -0.3230 -0.6800
 9132SOL     OW30541   5.058   1.198   7.485  0.0561 -0.7727  0.0439
 9132SOL    HW130542   5.090   1.186   7.395  0.4901 -0.7512  0.1923
 9132SOL    HW230543   5.131   1.170   7.540  0.0968 -0.0079  0.3894
 9133SOL     OW30544   6.803   7.399   7.532 -0.0294 -0.4763 -0.3230
 9133SOL    HW130545   6.886   7.444   7.518 -0.0216 -0.5381 -0.4862
 9133SOL    HW230546   6.823   7.328   7.593 -0.0229 -0.3120 -0.1366
 9134SOL     OW30547   3.625   3.008   5.645  0.1615 -0.4414  0.7031
 9134SOL    HW130548   3.702   3.000   5.701  0.0089 -1.6304  0.7640
 9134SOL    HW230549   3.630   2.934   5.585 -0.3868  0.0592  0.0163
 9135SOL     OW30550   7.672   0.016   6.279  0.3555 -0.0915 -0.2214
 9135SOL    HW130551   7.716   0.092   6.243 -1.7303  1.7516  0.8631
 9135SOL    HW230552   7.593   0.005   6.225  0.1620 -0.9119  0.1984
 9136SOL     OW30553   4.445   7.225   2.575 -0.5458  1.0848  0.0469
 9136SOL    HW130554   4.540   7.230   2.566 -0.7262  1.3291 -2.8113
 9136SOL    HW230555   4.421   7.148   2.523 -1.9193  1.0766  0.6597
 9137SOL     OW30556   6.736   3.940   6.931  0.0443 -0.1234 -0.4042
 9137SOL    HW130557   6.671   3.993   6.885  0.4164  1.1763  0.5169
 9137SOL    HW230558   6.758   3.870   6.869 -0.5141  0.7507 -1.6251
 9138SOL     OW30559   6.534   2.642   6.928  0.2030  0.3353  0.7848
 9138SOL    HW130560   6.456   2.686   6.896  1.2467  0.9667 -1.1003
 9138SOL    HW230561   6.547   2.569   6.867  1.1346  0.3252  0.9739
 9139SOL     OW30562   3.154   0.238   2.706  0.4360 -0.2028  0.3763
 9139SOL    HW130563   3.213   0.166   2.688 -0.2331 -0.5789 -0.3706
 9139SOL    HW230564   3.068   0.207   2.678  0.2311  1.1120 -0.5922
 9140SOL     OW30565   6.185   7.567   3.098  0.2725 -0.1298  0.5186
 9140SOL    HW130566   6.200   7.656   3.129 -2.2742  1.4262 -2.2735
 9140SOL    HW230567   6.106   7.539   3.144 -0.2508 -0.0382 -0.3179
 9141SOL     OW30568   1.579   7.536   7.002  0.4984 -0.1901  0.6604
 9141SOL    HW130569   1.554   7.532   7.094 -1.0522  0.2634  0.2743
 9141SOL    HW230570   1.671   7.509   7.001  0.1501 -1.5651  2.1767
 9142SOL     OW30571   5.967   7.389   6.933 -0.4196  0.3708 -0.5515
 9142SOL    HW130572   5.890   7.383   6.989  0.3898 -0.3318  0.5083
 9142SOL    HW230573   6.033   7.336   6.977  0.7854  1.2377 -1.2699
 9143SOL     OW30574   0.082   1.260   4.337  0.1650  0.4346 -0.2991
 9143SOL    HW130575  -0.000   1.216   4.315 -0.4217  0.9257  0.8823
 9143SOL    HW230576   0.145   1.189   4.345 -0.4700 -0.0762  0.2320
 9144SOL     OW30577   7.892   6.474   2.255  0.1988  0.3371 -0.5735
 9144SOL    HW130578   7.933   6.560   2.253 -0.5029  0.7524  1.2018
 9144SOL    HW230579   7.807   6.487   2.212  0.9449 -0.0128 -2.2457
 9145SOL     OW30580   2.301   1.067   7.320  0.1217  0.1726 -0.2272
 9145SOL    HW130581   2.307   1.124   7.244  2.6226  0.4187  0.0697
 9145SOL    HW230582   2.373   1.096   7.377  1.1463 -2.8599  0.1835
 9146SOL     OW30583   3.552   6.994   1.634 -0.5122  0.3596 -0.1123
 9146SOL    HW130584   3.590   6.973   1.719 -2.1862 -1.8726  0.1625
 9146SOL    HW230585   3.617   7.050   1.592  2.9774 -2.8768  0.4576
 9147SOL     OW30586   7.068   3.075   5.291  0.0187 -0.4936  0.1890
 9147SOL    HW130587   7.112   3.031   5.364  1.0533  0.9092  0.4384
 9147SOL    HW230588   7.137   3.087   5.225 -0.5182 -0.2522 -0.3377
 9148SOL     OW30589   6.510   4.309   6.917  0.3612  0.0877 -0.7914
 9148SOL    HW130590   6.420   4.288   6.944  0.9094  0.1737  1.2150
 9148SOL    HW230591   6.526   4.252   6.842 -0.8906 -0.9561 -0.3045
 9149SOL     OW30592   2.585   5.861   0.977  0.3422  0.5349 -0.2256
 9149SOL    HW130593   2.491   5.878   0.977  0.4544  1.3956 -2.0862
 9149SOL    HW230594   2.612   5.875   1.068 -0.9892  2.3566 -0.0528
 9150SOL     OW30595   1.824   2.892   7.445  0.3092 -0.0551  0.2669
 9150SOL    HW130596   1.803   2.798   7.452 -2.4794  0.3387 -1.3751
 9150SOL    HW230597   1.909   2.894   7.403 -1.0025 -1.9573 -2.8304
 9151SOL     OW30598   0.473   6.208   6.974 -0.6802  0.3680 -0.5248
 9151SOL    HW130599   0.544   6.245   6.921  0.5211 -1.5022 -0.2980
 9151SOL    HW230600   0.518   6.164   7.046 -2.0834 -0.8026 -0.3304
 9152SOL     OW30601   5.792   6.747   3.642  0.0338 -0.0018 -0.7625
 9152SOL    HW130602   5.702   6.776   3.631  0.8429  3.3376  0.3005
 9152SOL    HW230603   5.845   6.820   3.609  2.3047 -0.2101  2.0167
 9153SOL     OW30604   7.620   2.291   1.132 -0.0406  0.1792 -0.0171
 9153SOL    HW130605   7.527   2.286   1.109 -0.0384 -0.2041  0.0566
 9153SOL    HW230606   7.621   2.341   1.214 -0.4288 -1.9786  1.3828
 9154SOL     OW30607   6.149   2.214   3.269 -0.2150  0.3556 -0.4739
 9154SOL    HW130608   6.224   2.159   3.245 -1.4299 -1.8450  0.5241
 9154SOL    HW230609   6.153   2.218   3.365 -1.5405 -0.0729 -0.3886
 9155SOL     OW30610   5.357   7.217   2.668  0.2814  0.0740 -0.0854
 9155SOL    HW130611   5.366   7.228   2.763  0.2390 -0.5158 -0.0076
 9155SOL    HW230612   5.265   7.237   2.651 -0.0414 -1.0819  0.1974
 9156SOL     OW30613   0.395   5.319   5.419  0.0304  0.0047  0.4700
 9156SOL    HW130614   0.481   5.353   5.397  0.2286 -1.7070 -1.8041
 9156SOL    HW230615   0.400   5.225   5.398 -2.3994 -0.1142  0.0687
 9157SOL     OW30616   7.085   1.958   3.195 -0.8356  1.1791  0.2063
 9157SOL    HW130617   7.159   1.959   3.133  1.5417  0.2749  2.7991
 9157SOL    HW230618   7.029   1.888   3.165  0.2239  0.7949 -0.9569
 9158SOL     OW30619   3.694   6.142   2.103  0.1006 -0.0095 -0.6340
 9158SOL    HW130620   3.745   6.223   2.098  1.8605 -0.9591  0.6527
 9158SOL    HW230621   3.629   6.150   2.034 -0.2669  2.8121 -0.0607
 9159SOL     OW30622   7.155   4.139   4.658  0.3341 -0.2376 -0.4788
 9159SOL    HW130623   7.163   4.053   4.616  0.9755  0.1487 -1.1872
 9159SOL    HW230624   7.199   4.129   4.742  1.5812 -0.2618 -1.1110
 9160SOL     OW30625   2.632   7.640   4.089  0.1864  0.2437 -0.1866
 9160SOL    HW130626   2.563   7.695   4.127  0.5805 -0.1262  1.1197
 9160SOL    HW230627   2.592   7.554   4.081  0.6391 -0.1180  1.1306
 9161SOL     OW30628   3.913   1.185   3.288 -0.4614  0.9505  0.1762
 9161SOL    HW130629   3.967   1.230   3.353  1.1251 -1.8837  0.9991
 9161SOL    HW230630   3.889   1.103   3.329 -0.0896 -0.6218 -2.4948
 9162SOL     OW30631   6.552   2.013   1.326 -0.2718 -0.1459 -0.0113
 9162SOL    HW130632   6.609   2.074   1.279  0.0199 -0.1003  0.4003
 9162SOL    HW230633   6.478   2.067   1.355 -1.4238 -0.5157 -2.0004
 9163SOL     OW30634   2.608   6.893   0.803  0.4341 -0.4720 -0.7858
 9163SOL    HW130635   2.648   6.854   0.881  1.1131  0.8976 -0.4154
 9163SOL    HW230636   2.524   6.927   0.834 -0.5505 -2.3535 -1.3057
 9164SOL     OW30637   6.789   2.406   7.381  0.1125 -0.9541  0.0827
 9164SOL    HW130638   6.713   2.454   7.414  0.2856  0.0710 -0.9406
 9164SOL    HW230639   6.799   2.332   7.442 -1.4887 -0.9292  0.4243
 9165SOL     OW30640   7.867   1.029   3.655 -0.4678  0.0224 -0.3880
 9165SOL    HW130641   7.895   1.120   3.669 -5.0478  1.4318  1.2681
 9165SOL    HW230642   7.897   0.983   3.734  0.9307  0.3142 -0.7260
 9166SOL     OW30643   3.218   3.218   3.303  0.1912 -0.1304  0.3656
 9166SOL    HW130644   3.274   3.216   3.381 -0.1716 -1.2763  0.6091
 9166SOL    HW230645   3.135   3.253   3.334 -0.0925 -0.9997  0.5893
 9167SOL     OW30646   1.828   1.397   3.529 -0.0092  0.2348 -0.4459
 9167SOL    HW130647   1.920   1.425   3.534  0.4646 -1.4777  1.3651
 9167SOL    HW230648   1.830   1.304   3.550 -2.0958 -0.0259 -1.2280
 9168SOL     OW30649   3.612   5.773   2.248 -0.0509  0.1907  0.3444
 9168SOL    HW130650   3.652   5.858   2.265  0.0093  0.5324 -1.3001
 9168SOL    HW230651   3.653   5.743   2.167 -0.4207 -1.1858  0.6400
 9169SOL     OW30652   1.569   0.350   5.993 -0.2420  0.0433 -0.5182
 9169SOL    HW130653   1.574   0.275   5.934 -1.6375 -0.0176 -0.5879
 9169SOL    HW230654   1.646   0.340   6.051  0.9498 -0.0820 -2.0560
 9170SOL     OW30655   0.924   4.288   5.378  0.2932  0.6457 -0.4752
 9170SOL    HW130656   0.941   4.252   5.465 -0.2198  0.7813 -0.3162
 9170SOL    HW230657   0.975   4.232   5.319 -1.5063 -1.1917 -0.3693
 9171SOL     OW30658   2.339   6.120   2.553 -0.0973 -0.1459  0.2139
 9171SOL    HW130659   2.266   6.082   2.603 -0.2389  0.5540  0.5499
 9171SOL    HW230660   2.365   6.197   2.604  1.7597 -1.1177  0.8079
 9172SOL     OW30661   6.328   1.463   3.714  0.2399  0.3301  0.4779
 9172SOL    HW130662   6.233   1.459   3.711  0.2581 -0.5156  0.7051
 9172SOL    HW230663   6.349   1.460   3.807  0.4313  2.9167  0.5902
 9173SOL     OW30664   0.462   4.666   1.706  0.1291 -0.5386  0.8484
 9173SOL    HW130665   0.377   4.660   1.664  0.3378  0.1969  0.3033
 9173SOL    HW230666   0.453   4.616   1.787 -0.4760 -1.4003  0.2519
 9174SOL     OW30667   4.438   2.069   0.261  0.5894  0.0027  0.4473
 9174SOL    HW130668   4.521   2.116   0.253  1.0842 -0.8941  0.1639
 9174SOL    HW230669   4.451   1.990   0.209 -1.1724  0.8026 -1.3406
 9175SOL     OW30670   4.318   1.740   5.967 -0.2133 -0.3128  0.0121
 9175SOL    HW130671   4.327   1.807   6.036  1.2652 -1.0432  0.5731
 9175SOL    HW230672   4.303   1.790   5.887 -1.7945  0.5693  0.8183
 9176SOL     OW30673   0.757   4.908   7.652  0.1678  0.8519 -0.6389
 9176SOL    HW130674   0.766   4.918   7.746  1.0115  0.8391 -0.7097
 9176SOL    HW230675   0.676   4.955   7.630 -1.4322 -1.2432  0.4103
 9177SOL     OW30676   3.266   4.466   0.013  0.2367  0.4156 -0.0829
 9177SOL    HW130677   3.210   4.543   0.015  0.7361  0.7632  1.1529
 9177SOL    HW230678   3.329   4.479   0.084  0.9090 -0.6973 -0.4390
 9178SOL     OW30679   3.445   3.871   1.280  0.0909  0.2564  0.3189
 9178SOL    HW130680   3.423   3.792   1.232  1.6539 -0.4441  0.6932
 9178SOL    HW230681   3.377   3.880   1.346 -0.1719 -0.6836  0.1790
 9179SOL     OW30682   1.151   2.264   5.635 -0.0133 -0.1329  0.5508
 9179SOL    HW130683   1.171   2.179   5.594 -1.3994 -0.7216  1.0213
 9179SOL    HW230684   1.194   2.328   5.578  0.7779 -1.1235 -0.0113
 9180SOL     OW30685   5.604   1.939   3.120 -0.3331  0.0551 -0.4117
 9180SOL    HW130686   5.682   1.928   3.065 -1.5893 -2.7402 -1.8255
 9180SOL    HW230687   5.576   2.029   3.104  1.1351  0.2998 -1.9027
 9181SOL     OW30688   6.747   7.406   0.711 -0.0722  0.4573  0.3337
 9181SOL    HW130689   6.817   7.408   0.777 -0.5912 -1.9689  1.0803
 9181SOL    HW230690   6.789   7.437   0.631  1.5989  0.0456  0.9871
 9182SOL     OW30691   1.886   2.474   4.084  0.0425 -0.5135  0.7502
 9182SOL    HW130692   1.959   2.414   4.069 -1.0155 -1.9853  1.2555
 9182SOL    HW230693   1.818   2.420   4.125 -1.3286  0.8073  0.3264
 9183SOL     OW30694   5.151   0.366   1.228  0.2392  0.2460  0.2638
 9183SOL    HW130695   5.218   0.432   1.210 -0.8164  1.0387 -0.9447
 9183SOL    HW230696   5.156   0.306   1.153 -0.9562  0.8073 -0.2941
 9184SOL     OW30697   0.804   0.030   5.770  0.6068  0.1601 -0.0149
 9184SOL    HW130698   0.750   0.101   5.804  0.8531  0.3234  0.0395
 9184SOL    HW230699   0.747  -0.046   5.770  0.1659  0.4794 -0.6143
 9185SOL     OW30700   1.498   6.173   2.123  0.5579  0.2100 -0.0342
 9185SOL    HW130701   1.436   6.235   2.085  0.0096  1.2070  2.2826
 9185SOL    HW230702   1.449   6.128   2.191  2.0458  0.2790  1.1602
 9186SOL     OW30703   5.865   6.876   6.661 -0.2661  0.8126  0.3376
 9186SOL    HW130704   5.940   6.858   6.604 -0.8721 -0.0760 -0.2066
 9186SOL    HW230705   5.893   6.951   6.714  0.4077  1.5358 -0.9774
 9187SOL     OW30706   6.423   7.055   7.569  0.3061  0.4805 -0.0476
 9187SOL    HW130707   6.402   6.997   7.642  0.0656 -0.9293 -1.1832
 9187SOL    HW230708   6.338   7.083   7.535  0.3757 -0.0412 -0.6705
 9188SOL     OW30709   7.501   4.956   7.589  0.4117  0.1609  0.1061
 9188SOL    HW130710   7.556   4.927   7.517  0.3380 -3.5534  1.3389
 9188SOL    HW230711   7.546   4.925   7.668 -0.7960  1.7803  1.4993
 9189SOL     OW30712   2.996   6.088   4.306 -0.0108 -0.2549 -0.1203
 9189SOL    HW130713   3.042   6.004   4.315 -0.5634 -0.8790 -2.3583
 9189SOL    HW230714   2.915   6.077   4.355 -0.3979 -1.3311 -0.9633
 9190SOL     OW30715   6.618   2.321   6.197  0.0524  0.3843  0.4500
 9190SOL    HW130716   6.582   2.342   6.283  0.0702 -1.6871  1.0184
 9190SOL    HW230717   6.713   2.314   6.213  0.2173  1.2972 -0.0526
 9191SOL     OW30718   0.857   7.298   1.099  0.2118 -1.0090 -0.0600
 9191SOL    HW130719   0.799   7.222   1.089 -1.7128  0.3711 -0.0151
 9191SOL    HW230720   0.908   7.298   1.018 -0.6445 -1.6588 -0.6367
 9192SOL     OW30721   4.843   6.358   3.901  0.2394 -0.1998  0.0131
 9192SOL    HW130722   4.832   6.280   3.956 -0.2968 -0.3065 -0.2371
 9192SOL    HW230723   4.780   6.421   3.936  0.2894 -0.0744 -0.1242
 9193SOL     OW30724   1.707   5.222   1.463 -0.0156  0.5883  0.4071
 9193SOL    HW130725   1.680   5.306   1.425  1.1402  0.1448 -1.5263
 9193SOL    HW230726   1.682   5.157   1.398  1.5499 -0.2819  0.6276
 9194SOL     OW30727   2.476   2.285   7.876 -0.1945 -0.1621 -0.1754
 9194SOL    HW130728   2.397   2.231   7.871 -0.8126  0.5236  1.4351
 9194SOL    HW230729   2.490   2.316   7.787 -2.0370  0.0925 -0.4190
 9195SOL     OW30730   3.803   5.675   2.065  0.2108  0.0432  0.3146
 9195SOL    HW130731   3.838   5.703   1.980 -1.0438  3.0694  0.6494
 9195SOL    HW230732   3.862   5.606   2.094  1.6233  0.0328 -2.2719
 9196SOL     OW30733   1.499   5.109   2.021  0.3767  0.0121  0.0689
 9196SOL    HW130734   1.438   5.137   1.954 -0.2277  0.1318  0.6550
 9196SOL    HW230735   1.582   5.097   1.975  0.8774  3.3696 -0.1298
 9197SOL     OW30736   6.218   3.079   3.623 -0.0336 -0.0286 -0.4714
 9197SOL    HW130737   6.228   3.141   3.551 -0.9764  0.5468 -0.1331
 9197SOL    HW230738   6.201   2.995   3.580  1.4307 -0.1069 -0.9346
 9198SOL     OW30739   1.504   3.126   4.259 -0.3065  0.7593 -0.2685
 9198SOL    HW130740   1.484   3.040   4.296 -3.1753  0.9893 -0.9746
 9198SOL    HW230741   1.435   3.183   4.294  0.4544  2.3331 -1.2404
 9199SOL     OW30742   8.021   7.294   5.052  0.0326 -0.0848  0.1334
 9199SOL    HW130743   8.028   7.198   5.054  0.3513 -0.1856 -2.6894
 9199SOL    HW230744   8.107   7.325   5.082 -0.2213 -0.6051  1.5158
 9200SOL     OW30745   1.241   7.839   4.746  0.0090 -1.0243 -0.0364
 9200SOL    HW130746   1.149   7.822   4.765 -0.3989 -0.9420 -1.7695
 9200SOL    HW230747   1.278   7.867   4.830 -2.0785  1.2647  0.2580
 9201SOL     OW30748   7.823   7.342   7.544 -0.1747  0.3233 -0.1181
 9201SOL    HW130749   7.871   7.280   7.490  1.4051 -0.5002  2.0441
 9201SOL    HW230750   7.890   7.405   7.573 -0.3086 -0.6781  2.7380
 9202SOL     OW30751   1.288   3.175   0.929  0.1954  0.4221 -0.2414
 9202SOL    HW130752   1.205   3.164   0.977  0.3613  3.4596  0.9353
 9202SOL    HW230753   1.347   3.217   0.992  2.2495 -0.4413 -1.4904
 9203SOL     OW30754   5.480   0.100   3.050  0.4273 -0.2629 -0.0882
 9203SOL    HW130755   5.517   0.063   2.970  1.4099  0.4837  0.0063
 9203SOL    HW230756   5.538   0.173   3.072 -0.3143  0.0660  0.8421
 9204SOL     OW30757   6.651   6.839   4.250  0.2221 -0.1675 -0.5304
 9204SOL    HW130758   6.676   6.928   4.275 -2.2925 -0.1048  2.2497
 9204SOL    HW230759   6.727   6.785   4.273  0.3458  0.7814  1.4639
 9205SOL     OW30760   4.166   6.138   7.972 -0.2499 -0.3356 -0.1941
 9205SOL    HW130761   4.179   6.215   8.027 -1.6650 -0.8482  0.9077
 9205SOL    HW230762   4.245   6.134   7.918  0.3532  1.2309  0.5095
 9206SOL     OW30763   0.737   4.159   4.716 -0.2345 -0.3430  0.2296
 9206SOL    HW130764   0.649   4.186   4.740  0.9929  2.8565  1.6670
 9206SOL    HW230765   0.777   4.238   4.680  2.3519 -1.4074  0.5721
 9207SOL     OW30766   5.940   1.756   7.740 -0.3915 -0.0463 -0.0828
 9207SOL    HW130767   5.867   1.697   7.758 -0.2592  0.2705  1.6194
 9207SOL    HW230768   6.014   1.697   7.723 -0.6375 -0.3690 -0.0491
 9208SOL     OW30769   2.714   3.763   5.335  0.2252 -0.4261 -0.1390
 9208SOL    HW130770   2.632   3.773   5.382  0.1402 -0.2919 -0.3145
 9208SOL    HW230771   2.713   3.833   5.270  0.6097 -0.2402  0.0519
 9209SOL     OW30772   6.142   7.929   7.999 -0.1446  0.0827 -1.0825
 9209SOL    HW130773   6.181   7.874   8.067  0.4907  1.5633 -0.2088
 9209SOL    HW230774   6.207   7.929   7.929  0.4517  0.7531 -0.5449
 9210SOL     OW30775   1.900   5.734   0.921  0.1125 -0.3986 -0.1753
 9210SOL    HW130776   1.894   5.647   0.881  0.1014  0.3369 -1.8518
 9210SOL    HW230777   1.886   5.795   0.848  0.1387  1.0154  0.9601
 9211SOL     OW30778   1.074   4.130   5.200 -0.1952 -0.0093 -0.2280
 9211SOL    HW130779   1.065   4.156   5.109 -1.1284 -0.8344 -0.3785
 9211SOL    HW230780   1.165   4.152   5.222  0.0882  0.0500 -1.4001
 9212SOL     OW30781   5.066   1.077   1.972 -0.0522 -0.4643  0.2630
 9212SOL    HW130782   5.014   1.005   2.008 -2.3727  1.0594  0.1609
 9212SOL    HW230783   5.004   1.127   1.918  0.8089  2.9189  2.1309
 9213SOL     OW30784   7.675   6.486   1.763  0.3113 -0.0197  0.3103
 9213SOL    HW130785   7.694   6.572   1.727  2.0138  0.2287  1.6973
 9213SOL    HW230786   7.743   6.429   1.726  0.3266 -0.3693  0.8753
 9214SOL     OW30787   0.860   4.238   3.687  0.5799  0.1769  0.1641
 9214SOL    HW130788   0.775   4.257   3.726 -0.2084 -2.1596 -0.2714
 9214SOL    HW230789   0.920   4.233   3.761 -0.4861 -2.1311  0.9608
 9215SOL     OW30790   7.629   4.243   2.698 -0.8138 -0.2710 -0.2473
 9215SOL    HW130791   7.697   4.211   2.639 -0.8687 -0.0696 -0.4181
 9215SOL    HW230792   7.623   4.175   2.766  1.8157  1.1334  1.5891
 9216SOL     OW30793   5.686   3.289   7.328  0.2203  0.0443 -0.0875
 9216SOL    HW130794   5.721   3.361   7.380  2.1734 -1.2871  0.5959
 9216SOL    HW230795   5.626   3.330   7.267  1.4152  2.2753  0.1244
 9217SOL     OW30796   2.120   1.490   0.746 -0.4028  0.4913 -0.4006
 9217SOL    HW130797   2.120   1.557   0.815  1.2507  2.9072 -2.5327
 9217SOL    HW230798   2.198   1.438   0.765 -0.5809  0.4222  0.1694
 9218SOL     OW30799   5.548   4.356   3.450  0.3556  0.1486 -0.6778
 9218SOL    HW130800   5.584   4.391   3.368  1.1667  0.4236 -0.2156
 9218SOL    HW230801   5.502   4.431   3.489 -1.0273 -0.2845 -1.4180
 9219SOL     OW30802   4.193   4.745   2.800 -0.4251  0.0512  0.6244
 9219SOL    HW130803   4.166   4.676   2.740 -0.1988  0.0194  0.5589
 9219SOL    HW230804   4.111   4.782   2.832 -0.5474 -0.1388  0.5356
 9220SOL     OW30805   4.190   2.637   6.205 -0.3604 -0.1854 -0.5279
 9220SOL    HW130806   4.179   2.627   6.299 -2.3319  0.9571 -0.5774
 9220SOL    HW230807   4.126   2.577   6.166 -0.4758  0.2955 -1.1007
 9221SOL     OW30808   6.320   7.768   5.321 -0.0978  0.0343  0.0932
 9221SOL    HW130809   6.336   7.857   5.353  0.7808  0.2517 -0.9116
 9221SOL    HW230810   6.404   7.740   5.284 -0.8720 -0.4850 -1.3439
 9222SOL     OW30811   2.382   4.848   7.960  0.4187 -0.4824 -0.5614
 9222SOL    HW130812   2.367   4.788   7.886  1.0018 -0.4971 -0.6740
 9222SOL    HW230813   2.477   4.858   7.963  0.3389  0.3027 -0.4343
 9223SOL     OW30814   6.744   3.222   5.622  0.2684 -0.1154  0.3129
 9223SOL    HW130815   6.721   3.312   5.642  0.6032 -0.0584  0.4606
 9223SOL    HW230816   6.661   3.175   5.620  0.1374  0.0904  0.7830
 9224SOL     OW30817   6.958   0.484   4.596 -0.0176  1.1045 -0.3915
 9224SOL    HW130818   6.874   0.438   4.607 -0.0567  1.5017  1.2281
 9224SOL    HW230819   7.005   0.432   4.531  0.3670 -1.9467  2.0717
 9225SOL     OW30820   4.365   3.524   3.082  0.0717 -0.1394  0.1905
 9225SOL    HW130821   4.344   3.431   3.084 -1.2733  0.1385 -0.1065
 9225SOL    HW230822   4.300   3.564   3.139  0.4806  0.6531  0.1140
 9226SOL     OW30823   6.435   0.841   3.808 -0.4061  0.3307 -0.4143
 9226SOL    HW130824   6.442   0.921   3.860  1.0504 -0.2118  0.2559
 9226SOL    HW230825   6.479   0.862   3.726 -1.4294  0.7109 -0.8868
 9227SOL     OW30826   0.697   5.977   4.104 -0.0617  0.0483  0.3402
 9227SOL    HW130827   0.645   6.043   4.151 -2.2284 -1.2406 -0.1146
 9227SOL    HW230828   0.753   5.938   4.170  0.6398  1.7258  0.7872
 9228SOL     OW30829   0.683   4.910   1.889  0.1737  0.0424 -0.2025
 9228SOL    HW130830   0.704   4.931   1.980 -1.2820 -0.2658  0.2307
 9228SOL    HW230831   0.768   4.900   1.846  0.9047 -1.1174  1.4349
 9229SOL     OW30832   1.519   2.764   3.342  0.2291  0.3538 -0.6458
 9229SOL    HW130833   1.546   2.698   3.405 -0.4206 -1.1212 -1.8388
 9229SOL    HW230834   1.496   2.840   3.395  1.4042 -0.2157  0.7415
 9230SOL     OW30835   6.087   5.740   7.146 -0.8425 -0.0639  0.5773
 9230SOL    HW130836   6.176   5.773   7.141 -1.0255  0.4924  0.9054
 9230SOL    HW230837   6.094   5.647   7.124 -0.2132  0.0202  0.4209
 9231SOL     OW30838   1.998   6.511   5.987  0.0088  0.6415  0.2285
 9231SOL    HW130839   2.024   6.514   5.895  2.4063  0.5169  0.8347
 9231SOL    HW230840   2.019   6.598   6.021  1.9254 -0.1728  1.2792
 9232SOL     OW30841   1.626   7.197   4.497 -0.1293  0.0553 -0.0642
 9232SOL    HW130842   1.699   7.136   4.489 -0.1772  0.1462 -1.2989
 9232SOL    HW230843   1.552   7.143   4.526  0.5714  0.0880  1.9741
 9233SOL     OW30844   5.683   0.298   4.984 -0.3720 -0.0833 -0.2705
 9233SOL    HW130845   5.708   0.368   4.924  0.2175  0.5539  0.6898
 9233SOL    HW230846   5.699   0.334   5.071 -0.7312 -1.1674  0.2642
 9234SOL     OW30847   4.264   6.135   2.861 -0.1005  0.3669  0.1211
 9234SOL    HW130848   4.278   6.111   2.769  0.2747  0.7325  0.0805
 9234SOL    HW230849   4.353   6.140   2.898 -0.2610 -0.0636  0.5771
 9235SOL     OW30850   5.597   6.407   0.756 -0.1319 -0.2394  0.1141
 9235SOL    HW130851   5.621   6.385   0.847  0.7348 -2.6674 -0.6190
 9235SOL    HW230852   5.519   6.355   0.739 -0.5508  0.5523 -0.4193
 9236SOL     OW30853   0.361   6.912   7.577 -0.0787  0.2195 -0.1637
 9236SOL    HW130854   0.371   6.817   7.576 -0.0086  0.2075  0.9053
 9236SOL    HW230855   0.292   6.930   7.512 -0.6976 -0.6326  0.2431
 9237SOL     OW30856   2.428   0.562   6.306  0.4306 -0.7486  0.1664
 9237SOL    HW130857   2.362   0.505   6.347  1.1183  0.0109  2.4603
 9237SOL    HW230858   2.512   0.528   6.337  0.9791  0.0831 -0.3710
 9238SOL     OW30859   2.764   7.251   7.878 -0.5394 -0.0367  0.1711
 9238SOL    HW130860   2.729   7.244   7.967  1.6016 -0.1818  1.0595
 9238SOL    HW230861   2.693   7.292   7.828 -1.9356 -0.2896  1.8354
 9239SOL     OW30862   6.332   2.864   0.644 -0.3170 -0.2085 -0.3931
 9239SOL    HW130863   6.390   2.818   0.704 -0.1021  0.1934 -0.2920
 9239SOL    HW230864   6.246   2.863   0.687 -0.2271 -0.1740 -0.2145
 9240SOL     OW30865   1.983   7.967   6.203 -0.1588 -0.2702  0.5124
 9240SOL    HW130866   2.057   7.928   6.249 -1.0386  0.1273  2.3407
 9240SOL    HW230867   1.923   7.893   6.187  0.7744 -0.6833 -1.4008
 9241SOL     OW30868   1.008   7.855   3.114  0.2951  0.0281 -0.3968
 9241SOL    HW130869   0.916   7.877   3.128  0.6912  2.3074 -0.9867
 9241SOL    HW230870   1.056   7.916   3.170  1.4919 -0.9641 -0.2900
 9242SOL     OW30871   2.170   5.136   0.577  0.3206 -0.0212  0.9194
 9242SOL    HW130872   2.221   5.072   0.528  0.2260  0.8275 -0.3415
 9242SOL    HW230873   2.150   5.205   0.513  0.0270  1.0384  2.1094
 9243SOL     OW30874   5.167   6.141   1.025 -0.3109 -0.0926 -0.3099
 9243SOL    HW130875   5.098   6.206   1.007  0.1582 -0.1224 -2.4791
 9243SOL    HW230876   5.135   6.061   0.985  1.6234  0.2856 -2.8590
 9244SOL     OW30877   4.028   5.389   7.143 -0.4772 -0.1507  0.5913
 9244SOL    HW130878   3.973   5.364   7.217 -0.6965  0.3724  0.6075
 9244SOL    HW230879   4.008   5.481   7.128  1.5865  0.5386  1.6440
 9245SOL     OW30880   2.223   2.472   2.685  0.6421 -0.3406 -0.0003
 9245SOL    HW130881   2.142   2.478   2.736  0.1367  0.3669 -0.8613
 9245SOL    HW230882   2.195   2.432   2.602  0.4017  3.2407 -1.8124
 9246SOL     OW30883   3.194   0.608   4.700 -0.2158  0.0990 -0.3022
 9246SOL    HW130884   3.122   0.555   4.666  1.0380 -1.5549 -0.5375
 9246SOL    HW230885   3.250   0.623   4.624  1.0027 -0.9055  0.3595
 9247SOL     OW30886   3.306   0.138   1.898  0.0661 -0.0676  0.1283
 9247SOL    HW130887   3.267   0.075   1.838  0.1221 -0.2351  0.2674
 9247SOL    HW230888   3.337   0.209   1.841 -1.7097  0.7578  0.1435
 9248SOL     OW30889   3.640   1.771   0.636 -0.0772 -0.1384  0.5806
 9248SOL    HW130890   3.650   1.706   0.566 -1.0376  0.4420 -0.1352
 9248SOL    HW230891   3.720   1.823   0.632 -0.7555  0.8742 -1.1883
 9249SOL     OW30892   3.193   1.944   0.265  0.4747  0.4199  0.7685
 9249SOL    HW130893   3.258   1.915   0.201 -1.0151 -0.7022 -0.3084
 9249SOL    HW230894   3.110   1.945   0.216 -0.6717 -0.2179  2.5972
 9250SOL     OW30895   0.998   5.826   5.610  0.1053  0.6220 -0.4641
 9250SOL    HW130896   1.018   5.747   5.559 -0.3233  0.4781 -0.4121
 9250SOL    HW230897   0.904   5.820   5.628  0.5368 -0.1781  1.7793
 9251SOL     OW30898   1.288   0.174   4.433  0.1319 -0.6311 -0.7893
 9251SOL    HW130899   1.239   0.241   4.387  1.0057  1.0082  0.5386
 9251SOL    HW230900   1.259   0.182   4.524  2.6584  0.3308  0.0227
 9252SOL     OW30901   5.601   0.106   0.668  0.0006  0.0103 -0.6778
 9252SOL    HW130902   5.588   0.079   0.577 -0.2614  0.3997 -0.7560
 9252SOL    HW230903   5.513   0.109   0.705  0.1565 -0.8449 -0.2034
 9253SOL     OW30904   6.255   1.342   3.953  0.1304 -0.4926  0.4568
 9253SOL    HW130905   6.238   1.375   4.041 -3.1918  1.4526 -0.7240
 9253SOL    HW230906   6.170   1.347   3.908  1.2942 -2.9565 -2.4100
 9254SOL     OW30907   3.179   0.386   3.693 -0.1570 -0.5315 -0.7354
 9254SOL    HW130908   3.179   0.476   3.726  1.1757 -0.2148 -1.5288
 9254SOL    HW230909   3.105   0.383   3.632  1.2598  0.8129 -2.6441
 9255SOL     OW30910   5.121   3.759   1.005 -0.8307 -0.2484  0.1585
 9255SOL    HW130911   5.130   3.779   0.912  0.4724 -2.5291 -0.2815
 9255SOL    HW230912   5.210   3.762   1.039 -1.2313  0.0305  1.2365
 9256SOL     OW30913   5.406   7.489   5.939  0.6201  0.1621 -0.2362
 9256SOL    HW130914   5.376   7.555   6.001 -0.4309 -0.6350  0.1499
 9256SOL    HW230915   5.429   7.414   5.994  3.0158  0.5835 -0.5518
 9257SOL     OW30916   3.011   5.400   3.884  1.0448 -0.6417 -0.3142
 9257SOL    HW130917   2.934   5.343   3.893  1.1344 -0.5619  1.3309
 9257SOL    HW230918   3.085   5.339   3.885  1.0999 -0.5777  0.6163
 9258SOL     OW30919   3.636   3.315   0.032 -0.1721 -0.0677  0.2522
 9258SOL    HW130920   3.554   3.277   0.001  0.9245 -0.7975 -1.9845
 9258SOL    HW230921   3.701   3.245   0.021  0.6716  0.2705  2.6027
 9259SOL     OW30922   3.551   7.711   4.880  0.6191  0.1060  0.1319
 9259SOL    HW130923   3.457   7.702   4.861  0.3927  1.1209  0.6950
 9259SOL    HW230924   3.579   7.783   4.823  0.8830  0.3182  0.5292
 9260SOL     OW30925   1.026   6.068   2.356 -0.1067  0.4672 -0.3187
 9260SOL    HW130926   1.000   5.989   2.308  1.5687  0.5643 -1.4442
 9260SOL    HW230927   1.074   6.035   2.432 -1.6608  0.3616  0.6720
 9261SOL     OW30928   3.933   2.567   7.515 -0.2542 -0.1332  0.3454
 9261SOL    HW130929   3.990   2.491   7.529 -1.5559 -1.4095 -0.9775
 9261SOL    HW230930   3.956   2.600   7.429 -0.7485  0.0208  0.2673
 9262SOL     OW30931   1.858   4.175   5.158 -0.1597  0.1049 -0.1920
 9262SOL    HW130932   1.857   4.102   5.096  0.6610  0.4725 -0.6439
 9262SOL    HW230933   1.808   4.143   5.233 -0.8454 -0.4765 -0.8877
 9263SOL     OW30934   5.028   3.391   4.986 -0.2766  0.2390  0.4144
 9263SOL    HW130935   5.073   3.323   4.935  1.0740  1.3958 -0.0084
 9263SOL    HW230936   4.951   3.413   4.935 -0.8187 -1.0407  0.6234
 9264SOL     OW30937   3.619   5.442   3.794  0.2149 -0.6490 -0.3133
 9264SOL    HW130938   3.616   5.504   3.866 -0.1030 -0.8542 -0.1480
 9264SOL    HW230939   3.536   5.395   3.799  0.9939 -2.0425  0.4198
 9265SOL     OW30940   0.822   3.799   4.797 -0.2245  0.4083  0.0260
 9265SOL    HW130941   0.859   3.871   4.746 -0.2974  0.8011  0.5283
 9265SOL    HW230942   0.751   3.764   4.742  0.0684  0.4605 -0.3885
 9266SOL     OW30943   2.489   3.066   1.357 -0.0775  0.3346  0.7667
 9266SOL    HW130944   2.502   3.145   1.303  0.4258  0.1519  0.6143
 9266SOL    HW230945   2.404   3.032   1.329 -0.2725  0.7984  0.7964
 9267SOL     OW30946   0.947   2.512   3.463 -0.6329 -0.4053 -0.3212
 9267SOL    HW130947   0.926   2.419   3.466 -2.0386 -0.1092 -0.1233
 9267SOL    HW230948   0.879   2.550   3.406 -1.3515  0.7924  1.2564
 9268SOL     OW30949   1.354   3.218   3.040 -0.0940 -0.2718  0.5858
 9268SOL    HW130950   1.280   3.210   3.100 -0.9264 -0.7943 -0.4740
 9268SOL    HW230951   1.399   3.134   3.045  0.8111  0.2510  1.6779
 9269SOL     OW30952   0.581   5.252   7.749  0.0911 -0.6186 -0.5274
 9269SOL    HW130953   0.669   5.269   7.782 -0.6651  0.7630  0.9242
 9269SOL    HW230954   0.569   5.316   7.679 -0.4827  0.7139  0.7245
 9270SOL     OW30955   0.662   0.823   6.179 -0.3643  0.2040 -0.5648
 9270SOL    HW130956   0.583   0.876   6.187 -0.4183 -0.0115  0.5451
 9270SOL    HW230957   0.734   0.886   6.189 -0.4269  0.1310  0.5331
 9271SOL     OW30958   5.536   2.609   7.010 -0.4490 -0.4888 -0.0842
 9271SOL    HW130959   5.580   2.684   7.050  0.9527  0.2066 -2.7049
 9271SOL    HW230960   5.603   2.541   7.006 -0.2752 -0.2443 -1.9303
 9272SOL     OW30961   4.652   2.128   7.658 -0.1093 -0.2891 -0.3823
 9272SOL    HW130962   4.682   2.042   7.628 -0.5470 -0.0267 -1.6253
 9272SOL    HW230963   4.561   2.115   7.682  0.3308 -0.5792  1.2716
 9273SOL     OW30964   0.477   2.196   4.145 -0.4920  0.2861  0.3523
 9273SOL    HW130965   0.502   2.263   4.209  1.8361  0.6245 -0.7946
 9273SOL    HW230966   0.411   2.238   4.090  0.2469  1.3387  0.2382
 9274SOL     OW30967   0.155   6.904   1.524 -0.4019  0.6090  0.7411
 9274SOL    HW130968   0.076   6.869   1.563  0.1297  0.5035  1.7423
 9274SOL    HW230969   0.217   6.831   1.524  0.4224  1.2741  2.0266
 9275SOL     OW30970   7.039   6.161   4.901 -0.4930  0.6573  0.0469
 9275SOL    HW130971   7.045   6.126   4.990 -0.0913  1.1990  0.2428
 9275SOL    HW230972   6.956   6.128   4.868 -0.2254 -0.3165  0.2868
 9276SOL     OW30973   7.654   7.814   7.547 -0.0061  0.0001 -0.4140
 9276SOL    HW130974   7.698   7.871   7.609 -2.6448  1.8742 -0.0996
 9276SOL    HW230975   7.565   7.804   7.582 -1.8992  1.7630 -4.1183
 9277SOL     OW30976   5.697   2.831   6.696  0.1432 -0.1436 -0.2518
 9277SOL    HW130977   5.625   2.772   6.722  1.8126 -1.5580  1.4292
 9277SOL    HW230978   5.728   2.868   6.778  1.8673 -0.2107 -0.8450
 9278SOL     OW30979   5.923   3.312   3.019 -0.4021  0.2805 -0.2166
 9278SOL    HW130980   5.921   3.383   2.954 -0.1692 -0.0458 -0.5779
 9278SOL    HW230981   5.867   3.344   3.090 -0.7148  0.6101 -0.6061
 9279SOL     OW30982   2.798   2.739   2.267  0.0725  0.4499 -0.1163
 9279SOL    HW130983   2.752   2.722   2.184  0.2457 -1.7709  0.1794
 9279SOL    HW230984   2.861   2.807   2.246 -0.3360  0.3918 -1.6578
 9280SOL     OW30985   1.044   2.674   5.727  0.2883  0.3852  0.2896
 9280SOL    HW130986   1.054   2.769   5.717 -1.3855  0.4456 -1.2570
 9280SOL    HW230987   1.042   2.661   5.822 -2.2111  2.2884  0.6083
 9281SOL     OW30988   6.956   6.967   0.609 -0.2349  0.6857 -0.1303
 9281SOL    HW130989   6.928   6.875   0.606  1.0729  0.2491  0.1498
 9281SOL    HW230990   6.939   6.995   0.698  0.1874  0.4226  0.0380
 9282SOL     OW30991   5.016   6.591   1.916 -0.7412 -0.1114  0.1766
 9282SOL    HW130992   4.944   6.625   1.862  0.7280  2.3082 -0.4433
 9282SOL    HW230993   5.010   6.639   1.998 -0.0977 -0.1950  0.2824
 9283SOL     OW30994   4.054   0.573   7.014  0.3395  0.0360  0.2257
 9283SOL    HW130995   4.086   0.660   6.991  0.8400  0.1256  1.2223
 9283SOL    HW230996   4.100   0.551   7.095  0.1481 -1.1147  0.0392
 9284SOL     OW30997   6.370   6.641   3.853  0.3949 -0.5771  1.4102
 9284SOL    HW130998   6.378   6.547   3.839  0.5842 -0.3955  0.2035
 9284SOL    HW230999   6.281   6.662   3.825  1.2810  0.0448 -1.1472
 9285SOL     OW31000   0.594   0.768   0.747 -0.1725  0.3598 -0.3712
 9285SOL    HW131001   0.672   0.713   0.756 -0.5759 -0.0019  1.0347
 9285SOL    HW231002   0.531   0.711   0.703 -0.0859  0.2260 -0.3235
 9286SOL     OW31003   2.124   5.374   5.994  0.2889 -0.0646  0.5426
 9286SOL    HW131004   2.066   5.396   6.067  0.2644  0.5738  0.3341
 9286SOL    HW231005   2.103   5.282   5.974 -1.3490  0.4085 -0.1440
 9287SOL     OW31006   2.468   2.126   1.074 -0.0397 -0.3858  0.4851
 9287SOL    HW131007   2.383   2.084   1.062  0.0320  0.1592 -3.1447
 9287SOL    HW231008   2.529   2.073   1.022  0.9546  1.5231 -0.4255
 9288SOL     OW31009   7.711   2.444   7.355  0.2787  0.2947 -0.0492
 9288SOL    HW131010   7.777   2.486   7.409  1.5398  2.7172 -3.1645
 9288SOL    HW231011   7.755   2.365   7.321  0.0883 -0.2744  0.9761
 9289SOL     OW31012   7.407   7.708   4.911 -0.0465  0.2563 -0.3765
 9289SOL    HW131013   7.372   7.642   4.850  0.9442 -1.1627  0.5219
 9289SOL    HW231014   7.348   7.783   4.902 -0.8760 -0.5380 -1.8648
 9290SOL     OW31015   3.737   0.738   7.806 -0.9131  0.0958  0.1631
 9290SOL    HW131016   3.653   0.735   7.852 -0.3091 -0.3357  1.2909
 9290SOL    HW231017   3.801   0.751   7.876 -0.0349  0.3799 -0.6796
 9291SOL     OW31018   5.747   3.122   5.987  0.4450 -0.3274  0.4483
 9291SOL    HW131019   5.730   3.207   5.946  1.7192 -0.8311 -1.2609
 9291SOL    HW231020   5.673   3.068   5.962 -0.1244  0.1291  1.1181
 9292SOL     OW31021   2.547   0.638   8.057 -0.2767  0.3182 -0.0996
 9292SOL    HW131022   2.562   0.732   8.053  4.5107 -0.1338  0.8625
 9292SOL    HW231023   2.519   0.621   8.147 -0.5460  0.7503 -0.1017
 9293SOL     OW31024   0.412   3.631   2.933  0.0606 -0.0112 -0.3428
 9293SOL    HW131025   0.469   3.554   2.932 -0.1498 -0.1672 -1.8899
 9293SOL    HW231026   0.460   3.697   2.881  0.8649  1.4170  2.0212
 9294SOL     OW31027   4.480   3.834   2.001 -0.0207 -0.4946 -0.2100
 9294SOL    HW131028   4.491   3.927   1.981 -0.0695 -0.2373  0.9067
 9294SOL    HW231029   4.565   3.795   1.978  0.1073 -0.1247 -0.3766
 9295SOL     OW31030   5.316   4.598   0.003 -0.4909 -0.3833 -0.1027
 9295SOL    HW131031   5.392   4.566   0.051  1.1938  2.6451 -0.5305
 9295SOL    HW231032   5.333   4.572  -0.088  0.2350  0.5694 -0.2498
 9296SOL     OW31033   7.725   3.927   0.517 -0.2306  0.2354  0.2373
 9296SOL    HW131034   7.812   3.901   0.486 -0.3966  0.0468 -0.0683
 9296SOL    HW231035   7.715   4.017   0.487 -1.7457 -0.9200 -3.2793
 9297SOL     OW31036   2.501   3.405   5.773 -0.6512  0.0569 -0.0264
 9297SOL    HW131037   2.509   3.350   5.851 -0.2433  0.3317  0.1230
 9297SOL    HW231038   2.447   3.353   5.713 -0.2071 -0.5365  0.0851
 9298SOL     OW31039   6.074   4.106   8.066  0.1996  0.1618  0.2178
 9298SOL    HW131040   6.028   4.079   8.146  0.5350 -0.1373  0.3093
 9298SOL    HW231041   6.157   4.143   8.097  0.6709 -0.6717 -0.0392
 9299SOL     OW31042   3.902   2.090   0.343  0.3477  0.0223  0.6667
 9299SOL    HW131043   3.979   2.107   0.287  0.4072 -0.3998  0.6206
 9299SOL    HW231044   3.828   2.093   0.282  0.4568 -0.8993  0.4832
 9300SOL     OW31045   0.514   6.716   2.641  0.3932  0.0074 -0.4212
 9300SOL    HW131046   0.583   6.710   2.708 -0.3129  1.9660  0.5407
 9300SOL    HW231047   0.561   6.734   2.560  1.1490 -0.7961 -0.1800
 9301SOL     OW31048   4.170   7.851   0.743  0.2227 -0.1203 -0.0646
 9301SOL    HW131049   4.261   7.828   0.724 -0.1177 -1.3779 -0.2264
 9301SOL    HW231050   4.151   7.807   0.826 -0.5418 -0.6765 -0.5332
 9302SOL     OW31051   4.839   2.984   5.201  0.1227  0.3970  0.4307
 9302SOL    HW131052   4.922   2.940   5.182 -0.3326 -0.1203 -0.4437
 9302SOL    HW231053   4.861   3.050   5.267  0.9014 -0.8649  1.4916
 9303SOL     OW31054   1.862   0.689   2.190  0.5477 -0.1320  0.1471
 9303SOL    HW131055   1.907   0.763   2.150 -0.3741  0.6149  0.4493
 9303SOL    HW231056   1.799   0.729   2.250  0.9812 -1.1933  1.3538
 9304SOL     OW31057   0.589   3.052   4.769 -0.2253  0.4677  0.1337
 9304SOL    HW131058   0.561   2.970   4.729  1.3459  0.4137 -0.9809
 9304SOL    HW231059   0.607   3.029   4.860 -1.5421  0.0243  0.3046
 9305SOL     OW31060   1.643   4.185   7.913  0.2473 -0.3782 -0.1249
 9305SOL    HW131061   1.581   4.229   7.854  0.7338  1.0352  0.3750
 9305SOL    HW231062   1.655   4.098   7.875 -1.7938 -0.5770 -0.4000
 9306SOL     OW31063   6.321   1.984   3.224 -0.5733  0.5009 -0.2065
 9306SOL    HW131064   6.396   1.991   3.165 -1.0299  2.1291 -0.6509
 9306SOL    HW231065   6.358   2.001   3.311  0.3255 -3.0943  0.2699
 9307SOL     OW31066   7.741   5.397   0.360  0.5579 -0.2325 -0.1526
 9307SOL    HW131067   7.748   5.492   0.368 -1.1201  0.0943 -1.7411
 9307SOL    HW231068   7.774   5.378   0.272  0.0281 -0.9762 -0.1985
 9308SOL     OW31069   2.104   2.934   0.779  0.1513  0.1898  0.5035
 9308SOL    HW131070   2.134   3.010   0.729 -2.7557  0.9600 -0.2821
 9308SOL    HW231071   2.135   2.950   0.868  0.7466  1.6213  0.0737
 9309SOL     OW31072   7.939   0.068   6.582 -0.1530  0.3643  0.6927
 9309SOL    HW131073   8.012   0.127   6.602 -0.7902  1.3480  0.2386
 9309SOL    HW231074   7.864   0.127   6.571  0.0547  0.0691 -4.7203
 9310SOL     OW31075   3.806   5.557   6.212  0.1139 -0.6746 -0.0009
 9310SOL    HW131076   3.823   5.651   6.221  1.5159 -0.8752 -0.2689
 9310SOL    HW231077   3.722   5.543   6.255 -0.9203  0.9713 -1.3870
 9311SOL     OW31078   6.826   0.882   3.459  0.5386  0.5989 -0.1424
 9311SOL    HW131079   6.826   0.865   3.365  1.1080 -1.9665  0.2250
 9311SOL    HW231080   6.910   0.845   3.489  0.6191  1.8834  1.2995
 9312SOL     OW31081   1.364   5.084   6.607  0.3966 -0.5245 -0.1928
 9312SOL    HW131082   1.444   5.135   6.622  1.9530 -2.2002 -2.0911
 9312SOL    HW231083   1.316   5.132   6.540  0.3711 -0.0657  0.1561
 9313SOL     OW31084   6.431   5.610   7.832  0.4381 -0.6912  0.2182
 9313SOL    HW131085   6.357   5.628   7.775 -0.7555  2.7873  2.5200
 9313SOL    HW231086   6.485   5.689   7.828  2.6774 -2.0877  0.6035
 9314SOL     OW31087   7.046   6.028   3.637 -0.1771 -0.0130  0.1155
 9314SOL    HW131088   6.967   5.992   3.598 -0.3008  1.2129 -0.7941
 9314SOL    HW231089   7.038   6.123   3.627  1.9405  0.1018 -1.0906
 9315SOL     OW31090   7.134   1.509   2.436  0.1553  0.5818  0.6502
 9315SOL    HW131091   7.083   1.576   2.481 -1.1407 -0.3840  0.6588
 9315SOL    HW231092   7.163   1.450   2.506  0.7504  0.7757  0.5697
 9316SOL     OW31093   0.877   2.841   4.643 -0.2907 -0.3616  0.5862
 9316SOL    HW131094   0.926   2.908   4.595 -0.6463 -0.5480 -0.0491
 9316SOL    HW231095   0.932   2.819   4.718  0.6463 -0.6321 -0.1639
 9317SOL     OW31096   5.402   7.707   6.432  0.6686 -0.1105  0.5644
 9317SOL    HW131097   5.442   7.740   6.512  2.7232 -1.9166  0.3630
 9317SOL    HW231098   5.473   7.662   6.386 -0.8428 -0.5634 -1.4751
 9318SOL     OW31099   4.796   6.057   6.846 -0.2520 -0.2843  0.1841
 9318SOL    HW131100   4.784   6.062   6.751 -0.1802  0.1629  0.1932
 9318SOL    HW231101   4.891   6.047   6.857 -0.1924  0.2688  0.2206
 9319SOL     OW31102   2.816   3.313   1.643 -0.1413 -0.0946 -0.2735
 9319SOL    HW131103   2.807   3.229   1.598 -1.9132  0.9278 -1.9856
 9319SOL    HW231104   2.776   3.376   1.583 -0.3634  1.7256  1.6956
 9320SOL     OW31105   7.979   4.818   2.790  0.0223 -0.1440 -0.3432
 9320SOL    HW131106   7.903   4.811   2.732  0.3055  1.9331 -1.0310
 9320SOL    HW231107   8.016   4.729   2.791 -1.7254 -0.9201 -0.9067
 9321SOL     OW31108   0.443   3.349   0.052  0.4975  0.5528 -0.0226
 9321SOL    HW131109   0.459   3.263   0.091 -1.4674  0.2781  0.2769
 9321SOL    HW231110   0.453   3.411   0.125 -0.6343  0.2975  0.3673
 9322SOL     OW31111   3.983   1.209   6.941 -0.4541 -0.8001 -0.3637
 9322SOL    HW131112   3.964   1.302   6.928  1.5215 -0.4111 -0.7888
 9322SOL    HW231113   3.898   1.167   6.940 -1.7560  1.3417  3.0405
 9323SOL     OW31114   3.903   2.522   6.538  0.3000  0.1181 -0.7380
 9323SOL    HW131115   3.910   2.527   6.443  0.0646  2.4500 -0.6729
 9323SOL    HW231116   3.916   2.611   6.569  3.4491 -0.9511  1.6795
 9324SOL     OW31117   4.883   1.253   3.212  0.3028 -0.4793  0.5758
 9324SOL    HW131118   4.971   1.247   3.175 -0.3284  1.5730 -1.5261
 9324SOL    HW231119   4.867   1.347   3.221 -1.2462 -0.8404  2.0301
 9325SOL     OW31120   1.425   7.364   4.303  0.4090  0.8744  0.1480
 9325SOL    HW131121   1.371   7.296   4.263  0.6298  0.1166  1.1008
 9325SOL    HW231122   1.477   7.317   4.368  1.3007  1.7979  0.1162
 9326SOL     OW31123   7.857   1.997   2.976  0.8338  0.2090  0.2016
 9326SOL    HW131124   7.833   2.012   2.885 -1.2722  0.3169  0.7165
 9326SOL    HW231125   7.808   1.918   3.001  0.1207  1.0606  1.6499
 9327SOL     OW31126   1.848   0.266   6.803  0.6514  0.1396  0.1871
 9327SOL    HW131127   1.888   0.188   6.765  1.8982  1.0647 -0.4555
 9327SOL    HW231128   1.754   0.246   6.805  1.0957 -2.2931  2.1908
 9328SOL     OW31129   0.423   0.608   3.874  0.0793  0.1336 -0.1172
 9328SOL    HW131130   0.499   0.664   3.889  0.6870 -0.3636 -1.1697
 9328SOL    HW231131   0.459   0.530   3.831 -0.9427 -0.4083 -0.0303
 9329SOL     OW31132   4.849   5.777   1.296 -0.4043  0.0270  0.0948
 9329SOL    HW131133   4.894   5.700   1.260 -1.0701 -0.6644  0.7018
 9329SOL    HW231134   4.851   5.841   1.226 -0.2798 -0.7252 -0.6076
 9330SOL     OW31135   0.065   5.276   1.675  0.3746  0.3558  0.5629
 9330SOL    HW131136   0.151   5.256   1.638 -0.6066 -0.7543 -1.3060
 9330SOL    HW231137   0.050   5.368   1.655  0.6655  0.2511 -0.1581
 9331SOL     OW31138   3.638   3.845   3.445  0.2385  0.2055  0.6024
 9331SOL    HW131139   3.643   3.920   3.504  0.4742  0.1409  0.6689
 9331SOL    HW231140   3.623   3.883   3.359 -2.3543  0.1968  0.9777
 9332SOL     OW31141   6.015   1.218   2.006 -0.3493 -0.2875 -0.2696
 9332SOL    HW131142   5.983   1.186   2.090  0.1918 -0.7688 -0.2397
 9332SOL    HW231143   6.072   1.148   1.974  2.2752  1.3426  0.5892
 9333SOL     OW31144   1.178   6.944   7.337 -0.1508  0.3888  0.0099
 9333SOL    HW131145   1.126   6.926   7.415 -0.9735  1.3224 -0.2985
 9333SOL    HW231146   1.265   6.966   7.371  0.0065 -0.9555  0.5457
 9334SOL     OW31147   6.021   1.115   5.800  0.0579  0.1630  0.4579
 9334SOL    HW131148   6.075   1.170   5.744 -0.0347 -0.0444  0.1565
 9334SOL    HW231149   6.078   1.043   5.826 -0.0175  0.0420  0.2916
 9335SOL     OW31150   2.504   1.082   7.912 -0.4808  0.1285 -0.7812
 9335SOL    HW131151   2.430   1.085   7.973  0.1351  0.9275 -0.0330
 9335SOL    HW231152   2.468   1.045   7.831 -1.3402 -0.8474  0.0318
 9336SOL     OW31153   2.348   0.644   5.668 -0.4468 -0.0166 -0.2311
 9336SOL    HW131154   2.351   0.681   5.756 -1.5621 -1.7625  0.6210
 9336SOL    HW231155   2.272   0.585   5.671 -0.4561 -0.1651 -2.3481
 9337SOL     OW31156   4.944   2.669   6.245  0.6407  0.1109  0.6975
 9337SOL    HW131157   4.890   2.590   6.252 -2.6685  2.1443  0.5761
 9337SOL    HW231158   5.024   2.640   6.202 -0.1481 -3.2467  1.1905
 9338SOL     OW31159   7.432   1.278   5.680 -0.9821 -0.5761 -0.0113
 9338SOL    HW131160   7.471   1.361   5.652 -1.1109 -1.0043 -1.5414
 9338SOL    HW231161   7.436   1.281   5.776 -1.3965  1.3905 -0.0081
 9339SOL     OW31162   6.766   6.667   7.255 -0.4513 -0.2347 -0.1029
 9339SOL    HW131163   6.707   6.649   7.328 -1.1639  0.2765 -0.5481
 9339SOL    HW231164   6.838   6.716   7.294 -1.8582  1.9366 -0.0692
 9340SOL     OW31165   2.622   7.255   5.499 -0.1318 -0.1825  0.0357
 9340SOL    HW131166   2.533   7.224   5.482 -0.2919 -0.1428  0.7460
 9340SOL    HW231167   2.625   7.342   5.461 -0.6346  0.1040  0.6366
 9341SOL     OW31168   6.524   4.907   0.390  0.0678 -0.4669 -0.0296
 9341SOL    HW131169   6.615   4.880   0.385  0.3556  0.5885 -0.7052
 9341SOL    HW231170   6.474   4.828   0.369  0.8648 -0.6945 -1.1215
 9342SOL     OW31171   2.387   3.475   3.716  0.7868  0.0838 -0.2638
 9342SOL    HW131172   2.316   3.428   3.759  1.4831 -1.8387 -1.1347
 9342SOL    HW231173   2.430   3.524   3.787 -0.2640 -0.1937  0.5863
 9343SOL     OW31174   4.827   7.133   4.553  0.0635  0.0751 -0.2470
 9343SOL    HW131175   4.804   7.041   4.567 -0.2704  0.2466  0.3835
 9343SOL    HW231176   4.905   7.146   4.607  0.0304  0.1903 -0.2265
 9344SOL     OW31177   4.678   6.692   5.213  0.2964 -0.4012  0.1078
 9344SOL    HW131178   4.607   6.666   5.154  1.9982 -0.6927 -1.9612
 9344SOL    HW231179   4.637   6.753   5.274 -1.6429 -0.1821 -1.2888
 9345SOL     OW31180   6.371   5.717   3.726  0.0396  0.3062  0.3794
 9345SOL    HW131181   6.458   5.678   3.722  0.3755  0.8734  1.6551
 9345SOL    HW231182   6.347   5.731   3.634  0.7715 -0.9597 -0.0261
 9346SOL     OW31183   1.534   6.753   6.757  0.1063 -0.6864  0.1428
 9346SOL    HW131184   1.529   6.697   6.834 -2.0700 -1.7237 -0.6884
 9346SOL    HW231185   1.574   6.699   6.689 -0.8666 -0.8333 -0.3207
 9347SOL     OW31186   0.716   3.264   3.325 -0.4993  0.2639 -0.5583
 9347SOL    HW131187   0.771   3.191   3.352  0.3628  0.5510 -1.4538
 9347SOL    HW231188   0.647   3.224   3.271 -1.5631 -0.1678  1.0593
 9348SOL     OW31189   1.519   6.254   4.380 -0.2533 -0.6637 -0.5307
 9348SOL    HW131190   1.491   6.162   4.377 -0.9518 -0.5273  0.7433
 9348SOL    HW231191   1.530   6.279   4.289 -2.1029 -1.4221 -1.0122
 9349SOL     OW31192   0.014   5.810   2.553 -0.3689  0.0840  0.0671
 9349SOL    HW131193   0.004   5.717   2.573  0.1388  0.1330  0.5836
 9349SOL    HW231194  -0.024   5.855   2.628  0.2013  0.2835  0.2444
 9350SOL     OW31195   1.849   2.019   5.075 -0.4736 -0.1908 -0.0662
 9350SOL    HW131196   1.881   1.932   5.051 -0.1642  0.1424 -0.8880
 9350SOL    HW231197   1.755   2.017   5.055 -0.5163 -0.4101  0.1486
 9351SOL     OW31198   5.909   5.563   0.107  0.1334  0.0914 -0.3711
 9351SOL    HW131199   5.903   5.599   0.019  3.1422  1.7136 -0.0303
 9351SOL    HW231200   5.930   5.471   0.094  1.1262  0.4369 -1.3951
 9352SOL     OW31201   0.246   3.932   1.255 -0.4776 -0.4148  0.4648
 9352SOL    HW131202   0.261   3.861   1.318 -0.7992 -1.9481 -1.1066
 9352SOL    HW231203   0.326   3.985   1.260  0.6159 -1.9680  0.3411
 9353SOL     OW31204   7.107   2.698   6.007  0.6929  0.3783 -0.1980
 9353SOL    HW131205   7.195   2.736   6.009  0.3088  1.3249  1.4478
 9353SOL    HW231206   7.090   2.674   6.098 -0.5787 -0.2177 -0.5744
 9354SOL     OW31207   7.511   3.867   4.133  0.4150  0.0320 -0.0418
 9354SOL    HW131208   7.606   3.873   4.145  0.3612 -1.1077  1.2880
 9354SOL    HW231209   7.475   3.927   4.199  0.2079 -0.0701 -0.0609
 9355SOL     OW31210   4.562   0.171   7.050  0.0683 -0.3381 -0.2754
 9355SOL    HW131211   4.610   0.134   7.125  0.2192  0.8215  0.2294
 9355SOL    HW231212   4.600   0.128   6.974  2.5089  1.0680  0.0449
 9356SOL     OW31213   4.948   4.169   2.279  0.0005 -0.5117  0.0444
 9356SOL    HW131214   4.937   4.238   2.213 -0.8314 -0.6182  0.0575
 9356SOL    HW231215   4.899   4.201   2.355 -0.3219 -1.0743  0.0788
 9357SOL     OW31216   6.510   4.363   0.747 -0.0584  0.0218 -0.0275
 9357SOL    HW131217   6.539   4.452   0.727 -0.1921  0.0084 -0.2858
 9357SOL    HW231218   6.446   4.343   0.679  1.6532 -1.1388 -1.3762
 9358SOL     OW31219   8.086   0.488   7.230  0.0150 -0.4526 -0.2987
 9358SOL    HW131220   8.175   0.497   7.198  0.1661 -1.2555 -0.1134
 9358SOL    HW231221   8.057   0.578   7.246  0.8198 -0.1971 -0.2587
 9359SOL     OW31222   1.696   7.726   4.999 -0.2647 -0.2496  0.2506
 9359SOL    HW131223   1.671   7.705   5.089 -0.4107  1.2091  0.5813
 9359SOL    HW231224   1.614   7.723   4.950 -0.2113 -0.8815  0.1951
 9360SOL     OW31225   4.846   6.673   7.358  0.3038  0.0546  0.1704
 9360SOL    HW131226   4.831   6.648   7.449  1.5600  1.3901  0.8026
 9360SOL    HW231227   4.929   6.720   7.360  0.7116 -0.4881 -1.8033
 9361SOL     OW31228   7.661   2.859   4.022 -0.0122  0.3043  0.2559
 9361SOL    HW131229   7.732   2.802   4.052  0.3180 -0.3417 -1.6567
 9361SOL    HW231230   7.620   2.811   3.950 -0.9200  1.6881 -0.1844
 9362SOL     OW31231   7.992   7.842   3.723  0.2466  0.8443 -0.0457
 9362SOL    HW131232   7.916   7.885   3.684 -1.1312 -0.6073  0.9097
 9362SOL    HW231233   8.035   7.797   3.650  0.3842  1.9060 -0.6378
 9363SOL     OW31234   6.766   4.561   5.762 -0.0227  0.0244 -0.8958
 9363SOL    HW131235   6.768   4.517   5.847 -2.0896 -0.6549 -1.1506
 9363SOL    HW231236   6.827   4.634   5.771  0.5926 -0.6570  0.8094
 9364SOL     OW31237   1.065   7.983   5.042  0.4015 -0.4775  0.2234
 9364SOL    HW131238   1.024   8.025   5.118  0.0629 -0.3589 -0.0279
 9364SOL    HW231239   1.008   7.910   5.020 -0.6303  0.7035 -1.2014
 9365SOL     OW31240   1.438   6.720   3.565  0.3914 -0.3026 -0.6017
 9365SOL    HW131241   1.466   6.637   3.603 -2.0100 -1.5133 -1.2398
 9365SOL    HW231242   1.452   6.709   3.471 -0.5887 -0.3182 -0.7633
 9366SOL     OW31243   0.139   0.949   6.352  0.2650 -0.0166 -0.0864
 9366SOL    HW131244   0.156   0.895   6.275  1.6390 -0.9951  0.8481
 9366SOL    HW231245   0.057   0.916   6.388 -0.6623  0.7890 -1.3743
 9367SOL     OW31246   1.450   1.976   2.772 -0.0806 -0.2213  0.9309
 9367SOL    HW131247   1.402   2.023   2.839  0.7503 -1.1761  2.2491
 9367SOL    HW231248   1.407   1.890   2.768 -1.2990  0.4186 -1.1194
 9368SOL     OW31249   1.556   3.676   3.086 -0.9674 -0.4718 -0.0795
 9368SOL    HW131250   1.472   3.714   3.059  0.3138  2.2742 -0.5496
 9368SOL    HW231251   1.609   3.752   3.110  1.2209 -2.1716  0.7251
 9369SOL     OW31252   8.035   4.609   5.776  0.3950 -0.0512 -0.2132
 9369SOL    HW131253   8.117   4.595   5.729 -0.6182  0.0692 -2.1303
 9369SOL    HW231254   8.005   4.521   5.799  1.4452 -0.0572  1.2880
 9370SOL     OW31255   0.307   3.993   4.444 -0.0558 -0.0548  0.0352
 9370SOL    HW131256   0.244   4.046   4.494 -0.0650 -0.9496  0.9934
 9370SOL    HW231257   0.258   3.966   4.366 -0.8708 -0.7153  0.7558
 9371SOL     OW31258   2.844   1.616   3.043  0.2983  0.2929  0.0497
 9371SOL    HW131259   2.795   1.688   3.084 -1.8824 -0.5399 -0.9264
 9371SOL    HW231260   2.838   1.633   2.949 -0.0227 -1.0038 -0.1821
 9372SOL     OW31261   0.947   5.220   3.891 -0.0711  0.5494 -0.5820
 9372SOL    HW131262   0.856   5.192   3.879  0.6054 -1.5874 -1.0958
 9372SOL    HW231263   0.997   5.138   3.897  1.8717  1.6703 -0.6334
 9373SOL     OW31264   1.808   6.177   0.023 -0.0168  0.4800 -0.3340
 9373SOL    HW131265   1.879   6.227   0.063  0.7977 -0.5631 -0.4030
 9373SOL    HW231266   1.728   6.214   0.059  0.4783  2.5260 -1.2129
 9374SOL     OW31267   4.439   4.059   0.765 -0.5084  0.4612  0.0397
 9374SOL    HW131268   4.451   4.134   0.706  2.1314 -0.3048 -0.5202
 9374SOL    HW231269   4.353   4.074   0.805 -0.8206  2.8727 -1.3233
 9375SOL     OW31270   0.575   7.177   4.702  0.4459 -0.5249  0.2893
 9375SOL    HW131271   0.566   7.121   4.625  0.1640 -1.3135  0.8707
 9375SOL    HW231272   0.502   7.151   4.759  0.2633  0.4996  0.5422
 9376SOL     OW31273   6.693   2.205   6.648 -0.2088 -0.2000 -0.2345
 9376SOL    HW131274   6.769   2.255   6.620 -0.5085 -0.5912 -1.8708
 9376SOL    HW231275   6.696   2.126   6.594 -2.3550  0.2670 -1.1220
 9377SOL     OW31276   2.897   3.415   4.021  0.4518 -0.0403 -0.1720
 9377SOL    HW131277   2.856   3.493   4.059 -1.2263 -1.4898  1.1549
 9377SOL    HW231278   2.916   3.360   4.097  1.3603 -1.0527 -1.1143
 9378SOL     OW31279   3.351   0.017   3.325 -0.3584 -0.3237  0.2003
 9378SOL    HW131280   3.334   0.031   3.232 -0.8156 -0.9916  0.1723
 9378SOL    HW231281   3.315   0.095   3.368 -0.1268 -0.0040 -0.1838
 9379SOL     OW31282   3.651   3.375   1.360  0.4330 -0.0917 -0.0477
 9379SOL    HW131283   3.695   3.416   1.286  0.9415 -0.2316  0.1735
 9379SOL    HW231284   3.560   3.406   1.354  0.3781 -0.3980 -0.9348
 9380SOL     OW31285   2.062   4.479   6.678  0.2037  0.2006  0.0447
 9380SOL    HW131286   2.077   4.400   6.627  1.1836 -0.6814  1.6201
 9380SOL    HW231287   2.149   4.507   6.705 -0.2047  1.3105  0.2963
 9381SOL     OW31288   6.527   2.143   0.620 -0.3522  0.0082 -0.3784
 9381SOL    HW131289   6.621   2.122   0.617 -0.1510  0.4801  1.4102
 9381SOL    HW231290   6.524   2.233   0.654 -1.4558 -0.0374 -0.3316
 9382SOL     OW31291   5.996   0.277   1.383 -0.0207 -0.3405  0.4310
 9382SOL    HW131292   5.981   0.364   1.344  0.5176  0.4430  1.9218
 9382SOL    HW231293   6.008   0.294   1.476  0.7345 -1.9615  0.6586
 9383SOL     OW31294   2.711   1.604   6.451  0.0061 -0.5077 -0.7348
 9383SOL    HW131295   2.673   1.516   6.454  1.3802 -1.0983 -0.2325
 9383SOL    HW231296   2.653   1.656   6.507 -0.0972 -1.3802  0.0018
 9384SOL     OW31297   1.005   2.139   4.405  0.4134 -0.4420  0.0607
 9384SOL    HW131298   0.955   2.067   4.366  0.1179  0.2465 -0.8720
 9384SOL    HW231299   0.953   2.217   4.386  1.3275  0.1623 -0.0040
 9385SOL     OW31300   4.408   3.719   6.499 -0.0491 -0.0758  0.2381
 9385SOL    HW131301   4.385   3.811   6.511  1.8606  0.5220 -0.2980
 9385SOL    HW231302   4.403   3.680   6.586 -1.9231  0.2508  0.2983
 9386SOL     OW31303   5.855   4.971   6.761  0.2158 -0.3001  0.6919
 9386SOL    HW131304   5.927   4.928   6.808  0.2728 -0.8135  0.1393
 9386SOL    HW231305   5.778   4.954   6.816 -0.0515 -2.4079 -0.2166
 9387SOL     OW31306   7.655   3.107   3.432  0.0730  0.5557  0.1908
 9387SOL    HW131307   7.567   3.142   3.417 -0.5335 -0.5072  1.1059
 9387SOL    HW231308   7.643   3.012   3.427  1.0043  0.3826  1.2010
 9388SOL     OW31309   5.176   6.529   1.497  0.0281 -0.2703  0.3377
 9388SOL    HW131310   5.144   6.453   1.546 -0.7848 -0.3444 -0.2810
 9388SOL    HW231311   5.203   6.493   1.413  0.2957  0.0297  0.2944
 9389SOL     OW31312   4.795   4.062   2.655  0.6808 -0.1915  0.5247
 9389SOL    HW131313   4.834   3.975   2.647 -0.4744 -0.6289 -0.6693
 9389SOL    HW231314   4.708   4.046   2.691  0.0693  0.3475 -0.6634
 9390SOL     OW31315   2.854   1.789   0.308  0.7884  0.2744  0.5552
 9390SOL    HW131316   2.889   1.776   0.220  0.0217 -0.0109  0.2810
 9390SOL    HW231317   2.884   1.876   0.334 -0.3153  1.0452 -0.6474
 9391SOL     OW31318   5.040   5.117   4.293 -0.0746 -0.6172  0.5659
 9391SOL    HW131319   5.091   5.059   4.237  0.4269 -1.0103  1.4040
 9391SOL    HW231320   4.976   5.157   4.235  0.7860 -0.5957 -0.3843
 9392SOL     OW31321   5.813   2.645   6.521  0.2413 -0.6009  0.0575
 9392SOL    HW131322   5.796   2.721   6.576  1.2336 -0.5219  0.2756
 9392SOL    HW231323   5.758   2.658   6.444 -0.4357 -0.2290  0.5834
 9393SOL     OW31324   7.662   1.011   6.673 -0.3302  0.6788 -0.2029
 9393SOL    HW131325   7.742   0.980   6.631 -0.5261 -0.8362  0.4973
 9393SOL    HW231326   7.655   1.103   6.646  0.6045  0.2994 -1.8221
 9394SOL     OW31327   2.159   0.819   1.210  0.4965  0.1807  0.1366
 9394SOL    HW131328   2.106   0.757   1.160  0.3024  0.3213  0.1659
 9394SOL    HW231329   2.247   0.810   1.175  0.2605  0.6639 -0.6019
 9395SOL     OW31330   1.282   1.784   1.507 -0.3766 -0.6703  0.1733
 9395SOL    HW131331   1.234   1.760   1.428  1.3505  0.7732 -1.4291
 9395SOL    HW231332   1.286   1.879   1.505 -0.7263 -0.5505  2.3329
 9396SOL     OW31333   8.045   7.862   7.346 -0.9931  0.2604 -0.1550
 9396SOL    HW131334   8.047   7.949   7.385 -1.4681 -0.1236  0.7664
 9396SOL    HW231335   8.072   7.804   7.417 -2.0603 -0.4759 -0.3200
 9397SOL     OW31336   3.085   1.440   0.859 -0.9856 -0.3559  0.4779
 9397SOL    HW131337   3.084   1.344   0.854 -1.5207 -0.4714  2.1282
 9397SOL    HW231338   3.023   1.468   0.791 -0.4571 -1.1473 -0.3515
 9398SOL     OW31339   4.422   6.262   7.425  0.3675 -0.1006  0.3755
 9398SOL    HW131340   4.460   6.345   7.453  1.1616 -0.5106  0.5475
 9398SOL    HW231341   4.359   6.285   7.357  2.0531  0.4658 -1.0507
 9399SOL     OW31342   1.458   6.090   4.917  0.4314  0.6244  0.8875
 9399SOL    HW131343   1.437   6.183   4.920 -0.4290  0.4159  2.7180
 9399SOL    HW231344   1.431   6.061   4.830  1.6001  2.2499 -0.0722
 9400SOL     OW31345   1.231   1.420   7.867 -0.0078  0.0954  0.2361
 9400SOL    HW131346   1.205   1.482   7.935 -0.0307 -0.0766  0.3870
 9400SOL    HW231347   1.284   1.355   7.913  0.1670  0.1019  0.0453
 9401SOL     OW31348   4.688   6.327   6.956 -0.2417 -0.2671  0.4732
 9401SOL    HW131349   4.723   6.382   7.026  1.3259  0.3735 -0.7393
 9401SOL    HW231350   4.756   6.261   6.942  0.2043  0.5257 -1.4279
 9402SOL     OW31351   5.935   0.928   2.858  0.4308  0.2330 -0.7501
 9402SOL    HW131352   5.998   0.856   2.867  0.8839  0.7975  0.8660
 9402SOL    HW231353   5.967   0.995   2.917 -1.6100  0.6140 -0.0073
 9403SOL     OW31354   3.051   1.241   6.461  0.4223 -0.9051 -0.0905
 9403SOL    HW131355   3.089   1.312   6.409  0.2010 -0.1251  0.7880
 9403SOL    HW231356   2.971   1.217   6.415  0.2562 -0.2582 -0.1484
 9404SOL     OW31357   4.084   0.570   0.283  0.0244 -0.0347  0.1686
 9404SOL    HW131358   4.035   0.646   0.313 -0.3708 -1.0888  2.4575
 9404SOL    HW231359   4.132   0.540   0.360  1.2084 -1.3375 -1.0068
 9405SOL     OW31360   5.609   6.391   1.844 -0.5182  0.1614  0.0148
 9405SOL    HW131361   5.631   6.302   1.870  0.5420  0.6835  0.9522
 9405SOL    HW231362   5.649   6.447   1.911 -0.9717  1.3530 -0.6792
 9406SOL     OW31363   7.785   0.397   7.172 -0.1960  0.0483  0.1894
 9406SOL    HW131364   7.774   0.478   7.222 -2.3646 -0.2858  0.3486
 9406SOL    HW231365   7.872   0.405   7.133  0.7845  1.1998  2.4137
 9407SOL     OW31366   7.640   7.376   6.910 -0.4538  0.1081  0.2542
 9407SOL    HW131367   7.668   7.399   6.822  1.2664  0.7572  0.9313
 9407SOL    HW231368   7.688   7.436   6.967  0.2713 -1.7941  1.7723
 9408SOL     OW31369   5.921   2.569   5.079  0.0796  0.2299  0.1962
 9408SOL    HW131370   5.983   2.517   5.028 -0.3255  0.8211 -0.9433
 9408SOL    HW231371   5.848   2.510   5.096  0.4115 -0.1037  0.4909
 9409SOL     OW31372   7.819   3.928   1.022  0.1516  0.1379 -0.4547
 9409SOL    HW131373   7.856   3.845   0.995 -1.1093 -0.4707 -0.3904
 9409SOL    HW231374   7.770   3.959   0.946 -1.6939 -0.5726  0.3844
 9410SOL     OW31375   1.244   3.467   0.396 -0.6995  0.6062  0.2730
 9410SOL    HW131376   1.190   3.544   0.413 -1.2701 -0.0963  1.7481
 9410SOL    HW231377   1.322   3.480   0.450 -0.2263  0.7215 -0.4233
 9411SOL     OW31378   0.242   6.467   1.707 -0.2469 -0.4066 -0.0538
 9411SOL    HW131379   0.188   6.527   1.655 -1.3828  0.3150  1.8640
 9411SOL    HW231380   0.181   6.400   1.737  0.2249 -0.4010  0.9494
 9412SOL     OW31381   3.610   7.714   2.118  0.5098 -0.2912  0.0999
 9412SOL    HW131382   3.541   7.738   2.056  0.3593 -0.6312  0.1393
 9412SOL    HW231383   3.655   7.640   2.077  2.1673  1.1861 -0.9129
 9413SOL     OW31384   6.994   1.377   5.133 -0.1868  0.3689 -0.2453
 9413SOL    HW131385   7.011   1.292   5.092  1.3403  1.2926 -1.6333
 9413SOL    HW231386   6.990   1.357   5.227 -2.5230 -1.6064 -0.6504
 9414SOL     OW31387   6.652   7.345   5.793  0.1482 -0.4040  0.0932
 9414SOL    HW131388   6.677   7.407   5.862  0.1096 -1.4509  1.0940
 9414SOL    HW231389   6.635   7.263   5.841  4.8312 -2.6945 -1.4515
 9415SOL     OW31390   5.615   1.422   0.618  0.5105  0.1940  0.0875
 9415SOL    HW131391   5.605   1.337   0.575  2.2521  0.7275 -1.4547
 9415SOL    HW231392   5.583   1.406   0.707  2.0928 -2.4826  0.2967
 9416SOL     OW31393   0.958   4.675   5.846 -0.6872 -0.4915 -0.2590
 9416SOL    HW131394   0.888   4.710   5.791 -1.4080  1.1366  1.5776
 9416SOL    HW231395   0.940   4.709   5.934  2.1070 -0.4529  0.4123
 9417SOL     OW31396   3.247   4.667   4.899  0.1354 -0.4513 -0.0902
 9417SOL    HW131397   3.259   4.761   4.887 -0.3944 -0.1403  1.5122
 9417SOL    HW231398   3.241   4.656   4.994 -0.7983 -1.9676 -0.2928
 9418SOL     OW31399   7.098   2.097   7.267  0.0141  0.3761 -0.0775
 9418SOL    HW131400   7.138   2.053   7.191  0.6850 -1.8424  1.4285
 9418SOL    HW231401   7.015   2.131   7.234  0.0090 -1.0232 -1.6934
 9419SOL     OW31402   0.267   1.554   6.025  0.2870  0.0432  0.1605
 9419SOL    HW131403   0.191   1.497   6.017  0.6432 -0.1365 -2.7901
 9419SOL    HW231404   0.342   1.495   6.019  0.6629  0.5328  0.0244
 9420SOL     OW31405   4.020   2.724   4.240  0.9958  0.2097  0.0344
 9420SOL    HW131406   4.107   2.707   4.276  0.5023  0.3066  1.3245
 9420SOL    HW231407   3.977   2.638   4.239  1.0962  0.1578 -0.6168
 9421SOL     OW31408   4.086   5.068   7.222  0.6423  0.0445 -0.0059
 9421SOL    HW131409   4.079   5.127   7.147  1.8163 -0.6629 -0.7053
 9421SOL    HW231410   4.181   5.062   7.238  0.5534 -1.6008  0.0690
 9422SOL     OW31411   6.460   1.009   1.344 -0.0396 -0.0195  0.1528
 9422SOL    HW131412   6.533   1.031   1.285  0.8087  0.8380  1.4695
 9422SOL    HW231413   6.395   1.077   1.328 -0.2029 -0.3058 -0.4290
 9423SOL     OW31414   4.983   3.319   2.539 -0.0599 -0.4980 -0.2572
 9423SOL    HW131415   4.989   3.328   2.444  0.3381  0.7173 -0.1297
 9423SOL    HW231416   4.957   3.405   2.570  1.5939 -0.3672  0.8925
 9424SOL     OW31417   2.632   2.491   8.081 -0.5776  0.2969  0.6927
 9424SOL    HW131418   2.717   2.473   8.041 -0.7588 -0.2373  0.5407
 9424SOL    HW231419   2.579   2.413   8.062 -1.4483  1.0512 -0.1520
 9425SOL     OW31420   4.886   4.294   2.048 -0.0574 -0.0960  0.0992
 9425SOL    HW131421   4.839   4.211   2.051  0.8799 -0.6225  2.5410
 9425SOL    HW231422   4.942   4.287   1.970  1.1892 -2.4904  1.1050
 9426SOL     OW31423   1.076   2.878   2.202  0.0921  0.5324  0.1404
 9426SOL    HW131424   1.046   2.787   2.206  1.1447  0.1412 -0.5216
 9426SOL    HW231425   1.037   2.919   2.280 -0.7518 -0.3607  0.2110
 9427SOL     OW31426   7.801   5.251   5.124 -0.5840 -0.2066  0.6079
 9427SOL    HW131427   7.890   5.286   5.128 -0.0826 -1.2769 -0.5582
 9427SOL    HW231428   7.806   5.169   5.174 -0.9164 -0.2731  0.5314
 9428SOL     OW31429   0.822   0.642   7.950  0.7170  0.2324 -0.5583
 9428SOL    HW131430   0.886   0.710   7.970  1.1890  0.0426 -1.3747
 9428SOL    HW231431   0.737   0.681   7.971  1.0933  0.4370  0.6838
 9429SOL     OW31432   2.763   0.735   7.073  0.5975  0.1342  0.4456
 9429SOL    HW131433   2.786   0.826   7.093  0.1176  0.3170  0.1678
 9429SOL    HW231434   2.844   0.698   7.039  0.4096  0.8884 -0.9087
 9430SOL     OW31435   5.647   0.429   7.859  0.1702  0.5152 -0.4984
 9430SOL    HW131436   5.610   0.355   7.810  2.2390 -1.2637  0.4556
 9430SOL    HW231437   5.714   0.465   7.801 -1.4473  2.3257 -1.3383
 9431SOL     OW31438   4.773   0.708   0.100  0.2145 -0.0700  0.0240
 9431SOL    HW131439   4.779   0.736   0.191  1.5779 -0.3223  0.0279
 9431SOL    HW231440   4.813   0.621   0.099  1.4428  0.4806 -1.0394
 9432SOL     OW31441   6.624   4.347   1.654  0.0185  0.2975 -0.2111
 9432SOL    HW131442   6.549   4.389   1.611 -0.1459 -0.8315 -1.0788
 9432SOL    HW231443   6.694   4.350   1.589 -0.1006 -1.0427 -0.4429
 9433SOL     OW31444   5.888   0.829   3.700  0.5404 -0.0102 -0.2435
 9433SOL    HW131445   5.819   0.890   3.726 -0.2162  0.0312 -2.2171
 9433SOL    HW231446   5.969   0.879   3.710  0.1386  0.5366  0.3529
 9434SOL     OW31447   2.668   7.871   8.084 -0.2243 -0.0369 -0.4499
 9434SOL    HW131448   2.717   7.933   8.030  0.9862 -0.4202  0.1701
 9434SOL    HW231449   2.600   7.924   8.125 -0.4560  0.4767 -1.4569
 9435SOL     OW31450   1.611   7.423   0.634 -0.8367  0.5028 -0.3320
 9435SOL    HW131451   1.685   7.480   0.616  1.3163 -1.8330  0.3813
 9435SOL    HW231452   1.587   7.387   0.548  0.4612 -0.4564 -0.3336
 9436SOL     OW31453   0.873   7.256   2.470 -0.2479  0.0921  0.2221
 9436SOL    HW131454   0.847   7.184   2.528  0.9857 -1.5002 -1.0952
 9436SOL    HW231455   0.902   7.212   2.390  1.0191  2.0573 -0.4490
 9437SOL     OW31456   0.133   0.726   2.234 -0.2533 -0.0390  0.0594
 9437SOL    HW131457   0.125   0.703   2.326 -0.0876 -0.7791 -0.1045
 9437SOL    HW231458   0.044   0.715   2.199 -0.5839  1.4252  0.3817
 9438SOL     OW31459   0.743   4.445   1.146 -0.3293 -0.0579 -0.3994
 9438SOL    HW131460   0.743   4.367   1.090  1.2227 -0.3280 -0.0581
 9438SOL    HW231461   0.787   4.418   1.226 -1.0214  0.8001  0.3003
 9439SOL     OW31462   6.067   5.475   3.540  0.5661 -0.4757 -0.0171
 9439SOL    HW131463   6.155   5.475   3.502  0.6065 -0.8059  0.0677
 9439SOL    HW231464   6.055   5.564   3.573  1.3348 -0.7319  1.0148
 9440SOL     OW31465   3.843   4.049   3.336 -0.0114  0.8572  0.3924
 9440SOL    HW131466   3.861   4.047   3.430  1.6932  1.2781  0.1014
 9440SOL    HW231467   3.748   4.060   3.330 -0.1066  1.1569  2.0619
 9441SOL     OW31468   4.564   0.621   0.286  0.6892 -0.1886  0.6365
 9441SOL    HW131469   4.529   0.703   0.251 -0.5588 -0.3194  1.4902
 9441SOL    HW231470   4.604   0.577   0.211 -2.1886 -0.6339 -0.7768
 9442SOL     OW31471   5.667   4.004   0.991 -0.3039  0.3610  0.0591
 9442SOL    HW131472   5.666   3.969   0.902 -0.1868  1.3929 -0.3530
 9442SOL    HW231473   5.756   3.989   1.022 -0.4207 -0.2506  0.1141
 9443SOL     OW31474   2.996   5.678   5.363 -0.3128 -0.1870  0.4107
 9443SOL    HW131475   3.017   5.619   5.291  0.7689  0.9799 -0.2737
 9443SOL    HW231476   2.994   5.765   5.323  0.7374  0.5418  1.8337
 9444SOL     OW31477   0.557   8.063   6.020 -0.3397  0.3973 -0.2436
 9444SOL    HW131478   0.594   8.143   5.985 -1.9903  1.3212  0.0201
 9444SOL    HW231479   0.518   8.089   6.104 -0.1567 -0.8667  0.2624
 9445SOL     OW31480   2.911   0.481   4.329 -0.0213 -0.7660 -0.0343
 9445SOL    HW131481   2.940   0.572   4.342  0.6554 -1.1857  1.6061
 9445SOL    HW231482   2.816   0.485   4.339 -0.0580 -0.1671 -0.5090
 9446SOL     OW31483   3.265   1.889   6.616  1.0539 -0.7347 -0.3332
 9446SOL    HW131484   3.268   1.925   6.527  1.8007  1.0755  0.3895
 9446SOL    HW231485   3.187   1.834   6.617 -0.2543  1.0175 -1.4558
 9447SOL     OW31486   2.510   3.521   4.576  0.1615  0.3677 -0.4101
 9447SOL    HW131487   2.491   3.472   4.656 -2.2060 -0.7853 -1.5570
 9447SOL    HW231488   2.426   3.526   4.530  1.9041 -1.9334 -4.4128
 9448SOL     OW31489   7.394   3.955   1.028  0.1113 -0.6743 -0.6028
 9448SOL    HW131490   7.430   4.035   1.067 -1.7958 -0.0020 -0.1213
 9448SOL    HW231491   7.411   3.964   0.935  2.2087 -0.9674 -0.3051
 9449SOL     OW31492   6.382   3.850   7.266 -0.1716  0.9501  0.0603
 9449SOL    HW131493   6.380   3.756   7.284 -1.3829  1.0429  0.5057
 9449SOL    HW231494   6.456   3.861   7.205  0.5063 -0.1587  0.6414
 9450SOL     OW31495   5.300   1.361   2.218  0.8423 -0.6919  0.2360
 9450SOL    HW131496   5.205   1.376   2.224  0.3872 -3.2945  0.8572
 9450SOL    HW231497   5.332   1.377   2.306  0.5058 -2.2182  0.6727
 9451SOL     OW31498   2.700   6.968   6.242 -0.2055 -0.0080  0.6110
 9451SOL    HW131499   2.726   6.876   6.240  0.9092  0.2963  0.3699
 9451SOL    HW231500   2.613   6.968   6.281  0.0311 -1.1088  1.1581
 9452SOL     OW31501   2.859   5.071   0.552  0.4084 -0.4282 -0.3466
 9452SOL    HW131502   2.927   5.016   0.511  0.5068  1.0181 -2.2192
 9452SOL    HW231503   2.783   5.062   0.494  1.1005  3.0397 -2.0475
 9453SOL     OW31504   7.080   6.957   7.138 -0.3739 -0.1283  0.3955
 9453SOL    HW131505   7.024   6.959   7.061 -0.9837 -0.6926  0.8119
 9453SOL    HW231506   7.076   7.045   7.173 -1.7992 -0.3901  0.9696
 9454SOL     OW31507   2.766   1.775   3.980 -0.9775 -0.1453  0.3199
 9454SOL    HW131508   2.846   1.792   4.031 -0.7249  0.5731 -0.3028
 9454SOL    HW231509   2.695   1.794   4.040 -0.6811 -0.0467  0.6461
 9455SOL     OW31510   5.576   3.595   5.691  0.1600 -0.0575  0.2058
 9455SOL    HW131511   5.507   3.571   5.629  0.0110 -1.0428  0.7299
 9455SOL    HW231512   5.530   3.632   5.766 -0.1428 -3.3483  1.8287
 9456SOL     OW31513   5.014   7.477   2.460  0.8275  0.4465 -0.5234
 9456SOL    HW131514   4.982   7.391   2.488 -1.4338  0.8297 -1.7564
 9456SOL    HW231515   5.014   7.529   2.540  1.4115 -0.4325  0.0763
 9457SOL     OW31516   3.244   7.174   2.885  0.0316  0.6568 -0.4710
 9457SOL    HW131517   3.187   7.203   2.957 -0.3364 -1.2071  0.0385
 9457SOL    HW231518   3.331   7.171   2.924  0.0407  0.8550 -0.4719
 9458SOL     OW31519   3.077   1.863   2.174  0.6376 -0.0301  0.4019
 9458SOL    HW131520   3.026   1.800   2.224  1.5339 -1.1834 -0.1033
 9458SOL    HW231521   3.051   1.850   2.083  1.1701 -0.0101  0.2404
 9459SOL     OW31522   0.875   4.622   0.564 -0.1288  0.2804 -0.3611
 9459SOL    HW131523   0.883   4.651   0.655 -0.8826  2.8402 -1.0217
 9459SOL    HW231524   0.796   4.568   0.563  0.0222  0.0286  0.5561
 9460SOL     OW31525   4.244   2.182   6.038  0.2653 -0.1203 -0.2450
 9460SOL    HW131526   4.169   2.132   6.006 -0.6469  0.9430  0.1616
 9460SOL    HW231527   4.252   2.157   6.130 -0.0358  0.2786 -0.1067
 9461SOL     OW31528   7.245   0.484   7.403  0.2871  0.2322  0.1704
 9461SOL    HW131529   7.186   0.425   7.356 -0.9490  0.1114  1.7654
 9461SOL    HW231530   7.329   0.439   7.404  0.2445  0.0435 -1.4831
 9462SOL     OW31531   6.394   3.355   3.490 -0.3646  0.0413 -0.2202
 9462SOL    HW131532   6.343   3.286   3.448 -0.7643  0.0426  0.2565
 9462SOL    HW231533   6.477   3.357   3.442  0.0204 -1.4005  0.3440
 9463SOL     OW31534   1.457   2.589   7.291  0.2009 -0.1843 -0.0658
 9463SOL    HW131535   1.544   2.552   7.280  0.1318 -0.6919  0.9766
 9463SOL    HW231536   1.468   2.657   7.357  0.2960  1.6358 -1.8477
 9464SOL     OW31537   4.866   8.030   7.770  0.0546 -0.2495  0.2221
 9464SOL    HW131538   4.793   7.998   7.717 -1.1973  2.1845  0.3506
 9464SOL    HW231539   4.929   8.063   7.707 -0.1563  0.0492  0.1644
 9465SOL     OW31540   7.703   4.822   6.588 -0.2482  0.1848 -0.3106
 9465SOL    HW131541   7.675   4.818   6.680  1.3290 -2.7420  0.1517
 9465SOL    HW231542   7.790   4.861   6.591 -0.2693  0.2512 -0.5881
 9466SOL     OW31543   4.583   5.490   1.588  0.0666 -0.1344  0.1040
 9466SOL    HW131544   4.617   5.557   1.648  0.7816 -0.5266  0.1478
 9466SOL    HW231545   4.661   5.447   1.553 -0.3791 -1.3677  0.5550
 9467SOL     OW31546   7.982   3.841   0.448  0.0109 -0.1063  0.3120
 9467SOL    HW131547   8.007   3.862   0.358 -0.6249 -0.5273  0.0267
 9467SOL    HW231548   8.031   3.903   0.502 -0.8033  1.2330 -0.4248
 9468SOL     OW31549   7.625   6.560   0.912  0.0430  0.2359 -0.1856
 9468SOL    HW131550   7.701   6.606   0.877 -0.7394 -0.2668 -2.7798
 9468SOL    HW231551   7.660   6.476   0.942  0.5125 -0.1668 -1.7380
 9469SOL     OW31552   3.858   6.205   1.431 -0.4232  0.2756 -0.1578
 9469SOL    HW131553   3.800   6.131   1.450  1.0308 -1.3939 -1.8670
 9469SOL    HW231554   3.798   6.276   1.406 -1.8751 -0.0863  2.0131
 9470SOL     OW31555   0.797   0.183   7.365 -0.5160  0.3238  0.4011
 9470SOL    HW131556   0.743   0.260   7.347 -1.0958 -0.1652 -0.0113
 9470SOL    HW231557   0.816   0.147   7.279  0.2278  0.3197  0.5642
 9471SOL     OW31558   6.632   4.730   3.960 -0.3595 -0.4119 -0.2016
 9471SOL    HW131559   6.537   4.724   3.956 -0.5951  1.7412  0.7529
 9471SOL    HW231560   6.656   4.782   3.884  0.0846 -1.0059 -0.4791
 9472SOL     OW31561   3.819   1.720   1.145 -0.4485  0.0326  0.6362
 9472SOL    HW131562   3.756   1.692   1.211 -1.1099  0.5597  0.2416
 9472SOL    HW231563   3.878   1.646   1.135 -1.4085 -0.7361  0.5174
 9473SOL     OW31564   6.654   0.286   1.551 -0.3289  0.3716  0.0272
 9473SOL    HW131565   6.566   0.276   1.588 -0.3957  1.5971  0.2702
 9473SOL    HW231566   6.645   0.361   1.492  0.5690  0.5445  0.1059
 9474SOL     OW31567   5.242   5.103   5.766 -0.0147 -0.4588  0.4979
 9474SOL    HW131568   5.206   5.081   5.852 -1.5002  0.1985  0.0577
 9474SOL    HW231569   5.216   5.194   5.751  1.9654  0.1095  0.2100
 9475SOL     OW31570   5.143   4.129   7.609 -0.0814  0.2104  0.2526
 9475SOL    HW131571   5.185   4.189   7.671 -1.0248 -0.4594  1.5931
 9475SOL    HW231572   5.060   4.172   7.586 -0.1211  0.0621  0.1142
 9476SOL     OW31573   4.723   6.525   0.563 -0.0232 -0.3395 -0.3310
 9476SOL    HW131574   4.648   6.487   0.518  0.1575 -0.1987 -0.7554
 9476SOL    HW231575   4.799   6.496   0.513  0.2779 -1.1401  0.5571
 9477SOL     OW31576   1.230   2.422   2.614  0.0015 -0.3337 -0.0640
 9477SOL    HW131577   1.203   2.482   2.545 -0.7582 -1.0888 -0.4384
 9477SOL    HW231578   1.235   2.337   2.571  0.7897 -0.5910  0.5252
 9478SOL     OW31579   5.462   6.534   0.563 -0.2296 -0.0961  0.2060
 9478SOL    HW131580   5.422   6.453   0.530  0.5844 -0.9137  1.1559
 9478SOL    HW231581   5.540   6.505   0.609  0.1136  1.2546  0.5206
 9479SOL     OW31582   6.909   4.121   5.963  0.0462  0.4823  0.0168
 9479SOL    HW131583   6.833   4.118   6.021  0.4303  0.3210  0.5212
 9479SOL    HW231584   6.874   4.151   5.879 -0.3583  1.6690  0.5865
 9480SOL     OW31585   3.655   1.017   4.328  0.0616  1.0074 -0.5853
 9480SOL    HW131586   3.578   1.073   4.331 -0.0831  0.8427 -1.0632
 9480SOL    HW231587   3.673   1.006   4.234  0.0948  0.2659 -0.4993
 9481SOL     OW31588   6.470   7.721   3.342 -0.0891  0.7184  0.9964
 9481SOL    HW131589   6.435   7.809   3.355  0.2399  0.8496  1.0120
 9481SOL    HW231590   6.562   7.735   3.321 -0.0852  0.3872  0.7882
 9482SOL     OW31591   1.213   7.418   5.650  0.0612  0.0005 -0.1493
 9482SOL    HW131592   1.220   7.428   5.745  0.8664 -2.7152  0.1506
 9482SOL    HW231593   1.303   7.404   5.621 -0.2371  0.3092 -1.2800
 9483SOL     OW31594   6.661   4.250   5.028 -0.2500  0.9165 -0.4213
 9483SOL    HW131595   6.666   4.343   5.050 -0.0829  0.9718 -0.6953
 9483SOL    HW231596   6.671   4.205   5.112 -0.9311  1.1533 -0.2031
 9484SOL     OW31597   5.563   5.212   6.456  0.0111 -0.0005 -0.6096
 9484SOL    HW131598   5.651   5.218   6.492 -0.1520 -0.7143 -0.0932
 9484SOL    HW231599   5.577   5.192   6.363  0.4488  2.5239 -1.1651
 9485SOL     OW31600   0.025   1.991   0.672 -0.4699  0.2950  0.0812
 9485SOL    HW131601   0.101   1.959   0.625 -0.3330 -0.7310  0.9539
 9485SOL    HW231602  -0.026   1.912   0.692 -2.0751  1.0027 -0.9872
 9486SOL     OW31603   3.249   2.611   0.311 -0.3282  0.5453 -0.0208
 9486SOL    HW131604   3.260   2.704   0.332 -0.7021  0.2919  1.3590
 9486SOL    HW231605   3.337   2.582   0.286  0.8365  0.3091  3.6680
 9487SOL     OW31606   2.801   5.306   1.857  0.3221 -0.8959  0.8042
 9487SOL    HW131607   2.798   5.275   1.947  0.0662  1.1786  1.5825
 9487SOL    HW231608   2.728   5.368   1.851  1.5110  0.4919 -0.1942
 9488SOL     OW31609   5.538   2.911   4.753  0.1120 -0.1138  0.0758
 9488SOL    HW131610   5.631   2.900   4.773  0.2678  0.5497 -0.2743
 9488SOL    HW231611   5.514   2.832   4.705 -0.1510 -1.5357  2.3776
 9489SOL     OW31612   3.644   6.770   6.733 -0.1387 -0.1680 -0.3744
 9489SOL    HW131613   3.640   6.853   6.685  2.7503  0.1274 -0.2825
 9489SOL    HW231614   3.572   6.775   6.796 -1.0267  1.5386 -1.4354
 9490SOL     OW31615   0.566   0.516   0.180  0.2343 -0.6028 -0.1139
 9490SOL    HW131616   0.481   0.495   0.219  0.3414  0.0829  0.4983
 9490SOL    HW231617   0.603   0.431   0.157 -0.5166 -0.9208 -0.1783
 9491SOL     OW31618   2.950   6.591   8.061  0.0594 -0.0515  0.2038
 9491SOL    HW131619   2.992   6.537   7.994 -2.4857 -2.2037  0.1553
 9491SOL    HW231620   2.895   6.651   8.012  1.3800  1.3048  0.3211
 9492SOL     OW31621   6.293   3.978   1.324 -0.2798  0.5882 -0.3030
 9492SOL    HW131622   6.243   4.055   1.297  0.4058  1.7653  1.5827
 9492SOL    HW231623   6.366   4.013   1.375  1.3441 -1.1953 -1.2593
 9493SOL     OW31624   2.019   5.016   0.760 -0.0925 -0.2971 -0.1830
 9493SOL    HW131625   2.056   5.049   0.678  1.4802 -0.6823  0.3372
 9493SOL    HW231626   1.990   5.095   0.806  0.1013  0.0265 -0.6014
 9494SOL     OW31627   4.804   1.435   4.673 -0.3006  0.1708 -0.0396
 9494SOL    HW131628   4.747   1.447   4.750 -0.7821  0.6261 -0.4597
 9494SOL    HW231629   4.783   1.347   4.641 -0.8274  0.3640 -0.2343
 9495SOL     OW31630   3.029   2.068   5.801  0.4371  0.0791  0.2210
 9495SOL    HW131631   3.113   2.043   5.764  0.7480  0.6389  0.5307
 9495SOL    HW231632   3.030   2.164   5.801 -0.2540  0.0958  0.1094
 9496SOL     OW31633   3.918   1.551   5.412 -0.0372  0.0710  0.2078
 9496SOL    HW131634   3.834   1.593   5.431 -0.2914 -0.4613  0.2733
 9496SOL    HW231635   3.970   1.564   5.491  0.1092  0.8036 -0.0040
 9497SOL     OW31636   0.766   3.570   1.005  0.3841  0.2161  0.3720
 9497SOL    HW131637   0.733   3.581   0.916 -1.0653 -0.8258  0.7516
 9497SOL    HW231638   0.838   3.507   0.997  0.5791  0.5001 -0.1141
 9498SOL     OW31639   2.503   6.443   1.008  0.4889  0.3166  0.4458
 9498SOL    HW131640   2.437   6.453   0.939  1.0680  0.3741 -0.1165
 9498SOL    HW231641   2.547   6.360   0.987  0.6661  0.3317  0.7462
 9499SOL     OW31642   4.253   3.426   5.362 -0.6153 -0.6657  0.3436
 9499SOL    HW131643   4.206   3.343   5.370 -0.3227 -0.7907  0.8157
 9499SOL    HW231644   4.310   3.428   5.439 -1.0617  0.2536  0.6530
 9500SOL     OW31645   1.346   3.615   7.759  0.6485 -0.4158  0.6998
 9500SOL    HW131646   1.428   3.615   7.709  1.4133  0.0705  1.9045
 9500SOL    HW231647   1.311   3.527   7.747  0.3754 -0.0911 -1.3328
 9501SOL     OW31648   5.021   2.610   4.472 -0.1639  0.0867 -0.5745
 9501SOL    HW131649   4.946   2.640   4.421 -0.7970  2.1952  1.4242
 9501SOL    HW231650   5.014   2.515   4.472 -2.8561  0.2144 -0.4742
 9502SOL     OW31651   0.173   7.395   4.460 -0.2753 -0.2025 -0.3385
 9502SOL    HW131652   0.134   7.315   4.423  1.9770 -1.2354 -0.6635
 9502SOL    HW231653   0.260   7.400   4.419  1.1466  0.2667  2.4852
 9503SOL     OW31654   4.008   3.846   3.258  0.0886  0.2371 -0.1234
 9503SOL    HW131655   3.950   3.913   3.292  0.1627  0.7686 -1.0156
 9503SOL    HW231656   4.094   3.888   3.252 -0.0181  0.3101 -1.3846
 9504SOL     OW31657   1.535   2.980   6.229  0.1771  0.0604  0.1620
 9504SOL    HW131658   1.590   3.057   6.218 -0.7244  0.9540  1.5412
 9504SOL    HW231659   1.529   2.969   6.324 -1.3208 -0.5201  0.0207
 9505SOL     OW31660   1.152   2.344   7.869  0.3806  0.0627 -0.3579
 9505SOL    HW131661   1.073   2.342   7.922  0.8753  1.3663  0.4805
 9505SOL    HW231662   1.131   2.290   7.792 -0.7942 -0.7943  0.5292
 9506SOL     OW31663   5.122   0.100   3.093  0.3781  0.1614  0.6156
 9506SOL    HW131664   5.056   0.047   3.138  0.7174 -0.2886  0.5875
 9506SOL    HW231665   5.193   0.108   3.156 -0.0553  1.3960  0.9835
 9507SOL     OW31666   4.093   5.186   4.165  0.4239 -0.0763 -0.0464
 9507SOL    HW131667   4.153   5.205   4.093 -0.1394  0.9733 -0.2556
 9507SOL    HW231668   4.092   5.090   4.171  0.6452 -0.1687 -1.2760
 9508SOL     OW31669   5.934   1.410   0.448  0.6898 -0.0925 -0.1393
 9508SOL    HW131670   6.017   1.370   0.422  0.3636 -1.0630  0.2838
 9508SOL    HW231671   5.906   1.360   0.525 -1.2454 -1.0604 -1.3850
 9509SOL     OW31672   1.619   5.630   5.397 -0.1085  0.0380  0.1572
 9509SOL    HW131673   1.710   5.653   5.416  0.0687 -1.1711  0.8833
 9509SOL    HW231674   1.577   5.713   5.373  1.1079  0.6528  0.1201
 9510SOL     OW31675   1.914   4.902   5.701  0.1448  0.4541 -0.0089
 9510SOL    HW131676   1.960   4.826   5.665  0.2237 -0.6392  2.2182
 9510SOL    HW231677   1.977   4.973   5.696  0.5961  0.0158 -0.7878
 9511SOL     OW31678   6.286   6.052   5.831  0.1040 -0.2176  0.1727
 9511SOL    HW131679   6.290   6.147   5.818 -0.7481  0.0839  1.8738
 9511SOL    HW231680   6.367   6.031   5.877 -1.4649  0.3977  3.4732
 9512SOL     OW31681   4.812   6.460   7.795 -0.2750 -0.1546  0.4113
 9512SOL    HW131682   4.892   6.415   7.823  0.0018 -0.7712 -1.2873
 9512SOL    HW231683   4.833   6.553   7.803 -0.0345 -0.2943  1.6744
 9513SOL     OW31684   7.429   6.166   8.067  0.1785  0.0812 -0.4916
 9513SOL    HW131685   7.422   6.094   8.129 -0.6112  0.5121 -0.0761
 9513SOL    HW231686   7.397   6.243   8.114 -0.7724  0.3540 -1.5220
 9514SOL     OW31687   4.078   5.054   2.358  0.0192 -0.5392 -0.5179
 9514SOL    HW131688   4.150   5.035   2.418 -0.0822  0.2469 -0.1259
 9514SOL    HW231689   3.999   5.040   2.411 -0.1943 -2.5860 -1.2838
 9515SOL     OW31690   7.854   5.798   7.987  0.1887  0.4397  0.4868
 9515SOL    HW131691   7.918   5.865   7.962  0.8374  0.4239  1.9617
 9515SOL    HW231692   7.827   5.823   8.075 -0.4683 -0.5803  0.5882
 9516SOL     OW31693   5.263   5.344   5.186 -0.1757  0.5268 -0.1018
 9516SOL    HW131694   5.328   5.306   5.244 -0.0311  1.2837  0.2345
 9516SOL    HW231695   5.311   5.366   5.106 -0.5761 -1.5199 -0.9864
 9517SOL     OW31696   7.467   5.326   5.704 -0.3836 -0.8006  0.6203
 9517SOL    HW131697   7.546   5.367   5.739 -0.6034 -0.7418  1.0490
 9517SOL    HW231698   7.470   5.346   5.610 -0.1099 -0.4380  0.7037
 9518SOL     OW31699   6.638   0.661   3.987 -0.1972 -0.4423 -0.0954
 9518SOL    HW131700   6.693   0.594   4.029 -1.1895 -1.1467  0.1271
 9518SOL    HW231701   6.666   0.660   3.896  1.3539  0.4613  0.3217
 9519SOL     OW31702   1.147   7.908   1.663  0.3087  0.2033 -0.1506
 9519SOL    HW131703   1.080   7.974   1.646  0.0617 -0.2310 -0.9185
 9519SOL    HW231704   1.207   7.914   1.590  0.1754 -0.5478 -0.3360
 9520SOL     OW31705   0.179   5.001   0.601 -0.2610 -0.3458  0.1184
 9520SOL    HW131706   0.168   5.085   0.556 -1.1268 -0.2682  0.4593
 9520SOL    HW231707   0.196   4.938   0.530 -1.6663 -0.2333 -0.3493
 9521SOL     OW31708   4.150   0.864   1.200 -0.1823  0.5935 -0.3610
 9521SOL    HW131709   4.061   0.869   1.234 -0.1310  0.2087 -0.1575
 9521SOL    HW231710   4.143   0.809   1.122 -0.1899  0.9006 -0.5749
 9522SOL     OW31711   7.633   4.680   2.122  0.0030  0.2987 -0.0401
 9522SOL    HW131712   7.573   4.607   2.110  1.0581 -1.0617  2.3299
 9522SOL    HW231713   7.656   4.707   2.033  1.3983 -3.8268 -1.1403
 9523SOL     OW31714   5.054   6.388   5.396  0.0510 -0.5414  0.2150
 9523SOL    HW131715   5.134   6.404   5.446 -1.4445 -0.6286  2.7822
 9523SOL    HW231716   5.030   6.474   5.361 -0.4542  0.1811  2.2247
 9524SOL     OW31717   7.544   2.559   2.446 -0.2215 -0.0683  0.4028
 9524SOL    HW131718   7.450   2.577   2.437 -0.7090 -1.7449  1.4952
 9524SOL    HW231719   7.579   2.564   2.357 -1.4826 -0.0880 -0.1130
 9525SOL     OW31720   2.040   2.954   7.773  0.4111 -0.2496  0.4876
 9525SOL    HW131721   2.001   2.868   7.760 -2.7050  1.0580  0.2223
 9525SOL    HW231722   1.971   3.005   7.817  1.1328  2.7665 -1.5514
 9526SOL     OW31723   0.124   4.694   3.727 -0.0591  0.0844  0.0354
 9526SOL    HW131724   0.141   4.605   3.695 -0.1807  0.3154 -0.6882
 9526SOL    HW231725   0.204   4.742   3.707  0.9116 -0.3740  2.4409
 9527SOL     OW31726   6.914   7.505   7.910  0.4758  0.3110  0.1244
 9527SOL    HW131727   6.951   7.556   7.981  1.3415 -0.1591  0.0252
 9527SOL    HW231728   6.824   7.537   7.901  0.7894  1.3250  0.5105
 9528SOL     OW31729   2.996   3.246   0.709 -0.0769  0.0439 -0.3417
 9528SOL    HW131730   3.000   3.175   0.773  0.6945 -0.4757 -0.9554
 9528SOL    HW231731   2.903   3.252   0.686 -0.4150  0.4042  0.9829
 9529SOL     OW31732   4.085   3.518   6.928  0.2407 -0.5346 -0.0793
 9529SOL    HW131733   4.127   3.582   6.870 -0.1634  0.8813  1.1326
 9529SOL    HW231734   4.047   3.570   6.999  1.4324 -2.2535  1.9415
 9530SOL     OW31735   2.624   4.021   7.360  0.5720 -0.5352 -0.1252
 9530SOL    HW131736   2.629   4.117   7.362 -1.4196 -0.3668 -0.7342
 9530SOL    HW231737   2.583   3.997   7.444 -2.4124 -0.4720 -1.4297
 9531SOL     OW31738   6.510   6.342   0.875  0.1508  0.4134  0.2976
 9531SOL    HW131739   6.557   6.425   0.871 -1.1185  1.3005  2.5003
 9531SOL    HW231740   6.470   6.334   0.788  1.0676  1.6028 -0.2735
 9532SOL     OW31741   3.798   1.572   3.314  0.6036 -0.0895  0.8472
 9532SOL    HW131742   3.754   1.629   3.378  1.4355  2.0895 -0.3855
 9532SOL    HW231743   3.786   1.484   3.348 -1.3132  0.7442  2.5743
 9533SOL     OW31744   3.840   1.432   6.188  0.1424 -0.3910 -0.3330
 9533SOL    HW131745   3.752   1.401   6.165 -0.3908  0.1048  0.9716
 9533SOL    HW231746   3.844   1.427   6.283  1.7126 -0.8490 -0.3944
 9534SOL     OW31747   6.797   4.721   7.906 -0.1012 -0.3340 -0.1132
 9534SOL    HW131748   6.844   4.787   7.957 -0.2566 -1.8000  2.0961
 9534SOL    HW231749   6.860   4.649   7.896 -0.7827 -0.9452 -0.0926
 9535SOL     OW31750   5.063   5.198   2.519 -0.0243  0.4436  0.2781
 9535SOL    HW131751   5.141   5.151   2.549 -0.3479 -0.5957 -0.4481
 9535SOL    HW231752   5.057   5.274   2.577  0.2003 -0.6960  1.8558
 9536SOL     OW31753   6.825   0.746   6.832 -0.1494  0.7217  0.1076
 9536SOL    HW131754   6.843   0.687   6.758 -0.7551  2.2544 -1.3060
 9536SOL    HW231755   6.912   0.769   6.865  0.2374  1.3747 -1.2600
 9537SOL     OW31756   5.050   7.209   0.195  0.3678 -0.0267 -0.1717
 9537SOL    HW131757   4.957   7.233   0.191  0.6360  2.1322  3.0194
 9537SOL    HW231758   5.091   7.264   0.128 -0.2700  1.6710  0.7780
 9538SOL     OW31759   7.896   0.698   5.713 -0.3813 -0.2150 -0.0053
 9538SOL    HW131760   7.897   0.653   5.628 -0.2785  0.7036 -0.5068
 9538SOL    HW231761   7.917   0.789   5.692 -1.4445  0.2611  0.8771
 9539SOL     OW31762   6.530   3.494   0.990  0.7481  0.3691  0.3880
 9539SOL    HW131763   6.554   3.472   1.081  1.5133  2.1442  0.6650
 9539SOL    HW231764   6.478   3.574   0.998  0.7473  0.4933 -0.7336
 9540SOL     OW31765   6.222   4.258   4.357 -0.3378  0.1088  0.4836
 9540SOL    HW131766   6.240   4.327   4.421 -1.2125  1.3020 -0.5009
 9540SOL    HW231767   6.264   4.289   4.277 -0.1862 -0.8298  0.1957
 9541SOL     OW31768   3.358   1.409   0.779  0.1110 -0.2462 -0.3557
 9541SOL    HW131769   3.362   1.474   0.709  0.5877  0.9632  0.7751
 9541SOL    HW231770   3.268   1.415   0.812  0.2363  0.0576 -0.0616
 9542SOL     OW31771   7.871   1.257   3.356 -0.2037  0.0702  0.3604
 9542SOL    HW131772   7.966   1.250   3.367 -0.1264 -1.3357 -0.9227
 9542SOL    HW231773   7.836   1.242   3.443  0.7507  0.7765  0.8846
 9543SOL     OW31774   4.873   3.851   7.868 -0.1758 -0.2094 -0.0809
 9543SOL    HW131775   4.915   3.818   7.788 -0.7150 -0.9610 -0.0623
 9543SOL    HW231776   4.943   3.850   7.934 -0.0052 -0.6376 -0.2666
 9544SOL     OW31777   5.359   2.378   2.133 -0.2292 -0.1600  0.0320
 9544SOL    HW131778   5.422   2.415   2.070 -0.4801  1.0403  0.4503
 9544SOL    HW231779   5.406   2.377   2.216 -0.9415  1.3674  0.4849
 9545SOL     OW31780   3.374   2.103   3.422 -0.0637 -0.1720 -0.0664
 9545SOL    HW131781   3.294   2.150   3.445 -1.2673 -1.8573 -0.5864
 9545SOL    HW231782   3.431   2.113   3.499 -0.8664  0.8567  0.4169
 9546SOL     OW31783   2.486   2.719   0.009  0.6821  0.5189  0.5162
 9546SOL    HW131784   2.541   2.645  -0.014 -2.8326 -1.8287 -1.3273
 9546SOL    HW231785   2.477   2.715   0.104  0.3267 -1.6866  0.4288
 9547SOL     OW31786   7.119   4.867   5.011 -0.1200  0.1951  0.2464
 9547SOL    HW131787   7.163   4.823   4.937  0.9032  0.3078  0.7681
 9547SOL    HW231788   7.182   4.932   5.041 -0.9756  0.9182  0.5217
 9548SOL     OW31789   1.266   3.590   2.349  0.0488 -0.3054  0.3280
 9548SOL    HW131790   1.271   3.572   2.255  0.1979 -0.5999  0.3916
 9548SOL    HW231791   1.293   3.681   2.358 -0.2930 -0.1710  0.0479
 9549SOL     OW31792   7.028   1.647   5.403 -0.3934  0.1505  0.1393
 9549SOL    HW131793   7.111   1.609   5.433 -0.9292 -0.1573  1.2836
 9549SOL    HW231794   7.055   1.720   5.347  0.6487 -0.2880  0.0353
 9550SOL     OW31795   2.486   1.134   2.970 -0.0011  0.2148 -0.0749
 9550SOL    HW131796   2.408   1.170   2.928  0.3017  0.1582 -0.6975
 9550SOL    HW231797   2.472   1.150   3.064  0.0744  1.8802 -0.3116
 9551SOL     OW31798   3.437   1.060   3.114 -0.8345  0.4438  0.4600
 9551SOL    HW131799   3.479   1.054   3.028 -0.7312 -0.1976  0.5479
 9551SOL    HW231800   3.365   1.122   3.101 -0.7526  0.4382 -0.0629
 9552SOL     OW31801   3.367   4.828   7.869  0.0695  0.5008 -0.1683
 9552SOL    HW131802   3.293   4.777   7.839 -0.9307  1.3509  0.7829
 9552SOL    HW231803   3.441   4.768   7.865 -1.2534 -1.4112  2.0195
 9553SOL     OW31804   2.275   6.929   6.502  0.1331  0.3709 -0.7746
 9553SOL    HW131805   2.256   6.846   6.460 -0.3760  0.1308 -0.0921
 9553SOL    HW231806   2.197   6.983   6.485 -0.4726 -0.0306  0.5740
 9554SOL     OW31807   2.037   1.356   7.734  0.7450 -0.6801  0.2894
 9554SOL    HW131808   2.069   1.445   7.718  0.8851 -0.6425  0.7669
 9554SOL    HW231809   2.042   1.313   7.648 -1.2101  0.3454 -0.3914
 9555SOL     OW31810   1.629   7.798   0.057  0.0060  0.4299 -0.0755
 9555SOL    HW131811   1.534   7.798   0.067  0.1707  0.0938  1.9158
 9555SOL    HW231812   1.651   7.888   0.031 -0.7086  0.9956  1.2267
 9556SOL     OW31813   2.564   5.474   6.192 -0.4232 -0.2657  0.2440
 9556SOL    HW131814   2.489   5.454   6.137 -0.8884  3.1996 -0.6409
 9556SOL    HW231815   2.637   5.428   6.152 -1.0912  0.7324 -2.2885
 9557SOL     OW31816   7.714   7.719   5.246 -1.5027 -0.3420 -0.1486
 9557SOL    HW131817   7.656   7.645   5.264 -1.6648 -0.8421 -2.4213
 9557SOL    HW231818   7.670   7.768   5.177  0.2548 -0.1290 -1.1705
 9558SOL     OW31819   2.408   1.562   1.500  0.4823  0.0171 -0.0443
 9558SOL    HW131820   2.483   1.549   1.441 -0.0188 -1.7118 -0.3500
 9558SOL    HW231821   2.440   1.623   1.566  2.0858 -0.4887 -0.3110
 9559SOL     OW31822   6.373   5.145   5.963  0.2150 -0.4665  0.1768
 9559SOL    HW131823   6.353   5.090   6.039 -1.4758 -0.6299 -0.3361
 9559SOL    HW231824   6.287   5.165   5.925  0.9919  0.0417 -1.3898
 9560SOL     OW31825   5.237   1.915   0.924  0.0674 -0.3166 -0.4573
 9560SOL    HW131826   5.177   1.885   0.992 -1.2406  1.0886 -0.9160
 9560SOL    HW231827   5.305   1.848   0.920 -0.7404 -1.2863  1.0287
 9561SOL     OW31828   4.611   2.842   3.328 -0.3008 -0.0610  0.2328
 9561SOL    HW131829   4.609   2.914   3.265  2.4270 -0.9967 -1.0530
 9561SOL    HW231830   4.605   2.763   3.275  0.3083 -0.8377  1.2939
 9562SOL     OW31831   3.410   1.910   0.092  0.3100 -0.2914  0.1336
 9562SOL    HW131832   3.496   1.887   0.057  0.0860  0.6824 -1.1305
 9562SOL    HW231833   3.355   1.921   0.014 -0.5254  0.7484  0.8487
 9563SOL     OW31834   3.021   4.065   3.423  0.3240  0.1175 -0.2376
 9563SOL    HW131835   2.960   4.020   3.482  0.1125  1.2906  0.4666
 9563SOL    HW231836   2.982   4.152   3.410  1.0331  0.3232 -1.0757
 9564SOL     OW31837   1.699   0.524   2.633  0.1445 -0.2039 -0.6443
 9564SOL    HW131838   1.649   0.597   2.669  0.6353 -0.7503  1.2638
 9564SOL    HW231839   1.788   0.538   2.664  0.6686 -0.6147 -1.8728
 9565SOL     OW31840   6.017   2.638   7.748  0.1972 -0.0524 -0.1340
 9565SOL    HW131841   5.925   2.612   7.757 -0.4334  1.6766 -0.9845
 9565SOL    HW231842   6.065   2.577   7.803 -1.6851  0.1664  1.8990
 9566SOL     OW31843   5.162   7.172   7.725 -0.2864 -0.8625  0.0085
 9566SOL    HW131844   5.217   7.225   7.667 -0.4341 -1.4578 -0.6865
 9566SOL    HW231845   5.125   7.235   7.787  3.4085 -0.7105  2.3971
 9567SOL     OW31846   1.391   7.973   0.360  0.2845  0.1303 -0.3609
 9567SOL    HW131847   1.306   8.014   0.377  0.6408  0.8156 -0.1931
 9567SOL    HW231848   1.430   8.027   0.291  0.8286  0.1623 -0.0299
 9568SOL     OW31849   6.998   1.859   1.885  0.4739  0.2447 -0.6517
 9568SOL    HW131850   6.961   1.802   1.953  2.2756 -1.1228 -0.7332
 9568SOL    HW231851   6.972   1.819   1.802  0.6210  0.3057 -0.7287
 9569SOL     OW31852   4.101   3.860   1.787 -0.2171  0.6101 -0.1520
 9569SOL    HW131853   4.105   3.831   1.696 -1.2601 -0.9644  0.2799
 9569SOL    HW231854   4.011   3.890   1.798 -0.1132  0.7230  0.3985
 9570SOL     OW31855   4.816   1.199   2.650 -0.2156  0.2276 -0.3833
 9570SOL    HW131856   4.732   1.229   2.615 -0.7008 -1.3273 -0.6327
 9570SOL    HW231857   4.793   1.132   2.714  0.7856  1.0337  0.8609
 9571SOL     OW31858   4.789   4.678   5.022  0.2020  0.0249  0.4501
 9571SOL    HW131859   4.696   4.699   5.012  0.3225  1.2021  1.5842
 9571SOL    HW231860   4.790   4.590   5.059 -0.4180 -0.3911 -0.4729
 9572SOL     OW31861   0.482   2.361   7.454 -0.3128  0.5346  0.1158
 9572SOL    HW131862   0.508   2.301   7.384  2.7673  0.8817  0.8172
 9572SOL    HW231863   0.556   2.360   7.515 -0.8681  3.7678  0.9999
 9573SOL     OW31864   5.234   2.176   1.330 -0.0888 -0.1023 -0.2788
 9573SOL    HW131865   5.252   2.221   1.248  2.6440  1.8548  1.2464
 9573SOL    HW231866   5.231   2.245   1.396 -3.3825 -1.4638  1.2195
 9574SOL     OW31867   1.760   1.203   6.566  0.0906 -0.5231  0.2488
 9574SOL    HW131868   1.670   1.188   6.537  0.5571 -1.5413 -0.7661
 9574SOL    HW231869   1.800   1.252   6.494  0.2494  0.2612  0.8640
 9575SOL     OW31870   1.796   6.529   8.029  0.3629  0.1566  0.1078
 9575SOL    HW131871   1.873   6.499   8.077  0.8402  0.9055 -0.1707
 9575SOL    HW231872   1.829   6.553   7.942 -0.0831  0.9590  0.1412
 9576SOL     OW31873   3.466   5.842   6.591  0.3767 -0.3651 -0.1893
 9576SOL    HW131874   3.390   5.801   6.551  0.6395 -1.2574  0.1876
 9576SOL    HW231875   3.434   5.926   6.624 -0.4007 -0.6446 -0.2067
 9577SOL     OW31876   8.065   7.046   3.775 -1.0535  0.2809  0.0901
 9577SOL    HW131877   7.983   7.015   3.737 -1.3215  1.1747 -0.0997
 9577SOL    HW231878   8.078   7.133   3.736  0.8257 -0.4929 -1.1123
 9578SOL     OW31879   1.103   3.266   5.092  0.2145 -0.0218 -0.3672
 9578SOL    HW131880   1.191   3.241   5.119  0.1969  0.5905  0.2526
 9578SOL    HW231881   1.094   3.357   5.118 -1.6609 -0.8602  2.3456
 9579SOL     OW31882   7.576   5.900   3.982 -0.4039  0.6925 -0.6043
 9579SOL    HW131883   7.631   5.914   4.060 -0.2261 -0.2767 -0.5490
 9579SOL    HW231884   7.578   5.806   3.968 -0.7637  0.8192 -1.5539
 9580SOL     OW31885   0.331   4.999   6.031  0.0661 -0.8935  0.3422
 9580SOL    HW131886   0.370   5.056   5.964  0.0882 -0.9698  0.2902
 9580SOL    HW231887   0.237   5.021   6.028  0.0362 -1.0503  0.1366
 9581SOL     OW31888   1.306   3.680   5.293 -0.5654  0.0080 -0.7018
 9581SOL    HW131889   1.272   3.683   5.382  0.8007 -2.6003  0.0035
 9581SOL    HW231890   1.398   3.707   5.301 -0.4783 -0.0550 -1.3764
 9582SOL     OW31891   6.198   0.289   3.427  0.0132  0.3569 -0.3242
 9582SOL    HW131892   6.256   0.365   3.430  2.2164 -1.2500  2.0447
 9582SOL    HW231893   6.110   0.326   3.432  0.9306  2.7827 -0.6074
 9583SOL     OW31894   3.953   7.615   1.141  0.6242  0.0797 -0.0759
 9583SOL    HW131895   3.929   7.589   1.052 -0.9310  0.5686  0.1781
 9583SOL    HW231896   3.993   7.536   1.179  1.2024 -0.1668 -1.1566
 9584SOL     OW31897   3.540   1.340   6.460 -0.1625  0.3726 -0.6226
 9584SOL    HW131898   3.591   1.420   6.446 -0.0242  0.1582 -1.3944
 9584SOL    HW231899   3.566   1.310   6.547  0.3637  0.7447 -0.6458
 9585SOL     OW31900   7.409   4.277   2.980  0.4497  0.4739 -0.4247
 9585SOL    HW131901   7.435   4.189   2.954 -1.1312 -0.5733  1.2997
 9585SOL    HW231902   7.316   4.269   3.001  0.9309  1.8116  2.6819
 9586SOL     OW31903   5.441   2.200   3.190  0.0559  0.0400 -0.2167
 9586SOL    HW131904   5.381   2.256   3.141 -0.9088  0.8820  1.8025
 9586SOL    HW231905   5.384   2.132   3.227  0.3062  0.7644  1.6075
 9587SOL     OW31906   5.706   0.416   5.221  0.1667  0.1647  0.3330
 9587SOL    HW131907   5.750   0.477   5.280  0.5833 -0.5722  0.8061
 9587SOL    HW231908   5.628   0.388   5.270 -1.4548  2.2615 -0.9140
 9588SOL     OW31909   4.781   3.181   2.650 -0.0073  0.2814 -0.5771
 9588SOL    HW131910   4.774   3.086   2.644  1.3073  0.1492 -0.3423
 9588SOL    HW231911   4.859   3.203   2.599 -0.8628  1.3525 -1.4733
 9589SOL     OW31912   0.178   4.683   7.893 -0.0415  0.4205 -1.1205
 9589SOL    HW131913   0.114   4.667   7.824  1.2044 -0.5850 -2.0923
 9589SOL    HW231914   0.245   4.737   7.852  0.5930  0.0123 -0.6405
 9590SOL     OW31915   4.963   4.628   2.745  0.4776  0.4594 -0.0844
 9590SOL    HW131916   4.872   4.600   2.750  1.0831 -2.4688 -2.7086
 9590SOL    HW231917   4.959   4.713   2.699 -0.9273  0.7725  0.5540
 9591SOL     OW31918   1.300   6.064   7.496  0.1742  0.8001  0.0108
 9591SOL    HW131919   1.321   6.033   7.584 -1.5707 -1.8988 -0.3953
 9591SOL    HW231920   1.204   6.064   7.494  0.1345 -1.0954 -2.4064
 9592SOL     OW31921   7.120   3.394   7.785  0.2580 -0.0452  0.1545
 9592SOL    HW131922   7.061   3.427   7.853  3.1925  1.1511  2.3649
 9592SOL    HW231923   7.134   3.303   7.808 -0.7330 -0.3598 -0.4334
 9593SOL     OW31924   5.504   1.777   1.821 -0.2067  0.1095 -0.1582
 9593SOL    HW131925   5.540   1.700   1.777 -0.5518  0.7886 -1.7056
 9593SOL    HW231926   5.483   1.838   1.750 -3.3174  0.2333  0.7123
 9594SOL     OW31927   6.652   5.491   1.039 -0.2055  0.1092  0.0705
 9594SOL    HW131928   6.639   5.463   1.129 -0.7959  1.8281  0.5673
 9594SOL    HW231929   6.578   5.452   0.991 -0.1353 -0.4529  0.4165
 9595SOL     OW31930   1.592   4.368   7.683 -0.1034  0.0492 -0.6599
 9595SOL    HW131931   1.499   4.387   7.673  0.0722 -0.1187 -3.0395
 9595SOL    HW231932   1.633   4.406   7.606  1.9486  0.8044  0.7127
 9596SOL     OW31933   3.381   5.527   4.513  0.1399 -0.0020 -0.0983
 9596SOL    HW131934   3.469   5.564   4.507  0.3541 -0.3606  0.6737
 9596SOL    HW231935   3.365   5.518   4.607 -1.0176  0.7425 -0.2015
 9597SOL     OW31936   7.038   7.093   0.855  0.3006  0.2431  0.2501
 9597SOL    HW131937   7.005   7.031   0.920 -0.5099 -0.0979 -0.4573
 9597SOL    HW231938   6.982   7.170   0.865  1.0130  0.6962  0.8224
 9598SOL     OW31939   6.126   3.994   7.293  0.6602 -0.1040  0.0364
 9598SOL    HW131940   6.094   4.012   7.381 -0.2338  0.9726 -0.4765
 9598SOL    HW231941   6.197   3.931   7.305  1.0204  0.5554  1.5758
 9599SOL     OW31942   3.394   0.127   5.723  0.6192  0.0342  0.0245
 9599SOL    HW131943   3.305   0.115   5.757  0.9760 -0.0536  0.9588
 9599SOL    HW231944   3.429   0.201   5.772  1.0568  0.0817 -0.3501
 9600SOL     OW31945   6.455   2.863   5.028  0.0538  0.2507  0.2703
 9600SOL    HW131946   6.452   2.958   5.020 -2.0458  0.1676 -0.4026
 9600SOL    HW231947   6.499   2.848   5.112  0.0565  1.8238  0.5805
 9601SOL     OW31948   2.847   2.369   4.679  0.3587 -0.1846  0.4601
 9601SOL    HW131949   2.890   2.287   4.703  1.1047  0.0958  0.1244
 9601SOL    HW231950   2.892   2.396   4.598 -1.7679 -0.8969 -1.0369
 9602SOL     OW31951   6.116   1.936   7.872 -0.3043 -0.0956 -0.0063
 9602SOL    HW131952   6.043   1.884   7.837  1.3223 -2.2193 -0.4251
 9602SOL    HW231953   6.177   1.871   7.907  1.9201  1.5015 -0.6916
 9603SOL     OW31954   7.422   5.114   6.232  0.1892  0.3510 -0.4039
 9603SOL    HW131955   7.498   5.064   6.263  0.0505 -1.4080 -2.6342
 9603SOL    HW231956   7.364   5.118   6.308  1.3527 -0.6393  0.5860
 9604SOL     OW31957   1.511   5.933   7.388 -0.2837 -0.0702  0.2575
 9604SOL    HW131958   1.509   5.841   7.415 -0.5630 -0.4249 -0.9520
 9604SOL    HW231959   1.438   5.973   7.436  0.3596 -0.2673  1.4537
 9605SOL     OW31960   6.156   6.212   2.492  0.2666  0.4638 -0.2000
 9605SOL    HW131961   6.110   6.187   2.412  0.0895 -1.5991  0.4903
 9605SOL    HW231962   6.243   6.241   2.462  0.1434 -0.1243 -1.1539
 9606SOL     OW31963   5.517   1.040   4.028  0.4065 -0.5722 -0.4967
 9606SOL    HW131964   5.601   1.084   4.023  0.4361 -0.5159  0.3176
 9606SOL    HW231965   5.481   1.046   3.940  0.1251  1.6361 -0.2741
 9607SOL     OW31966   6.690   1.647   6.175 -0.2945 -0.2757  0.3133
 9607SOL    HW131967   6.751   1.680   6.109  0.4802 -0.1220  1.0892
 9607SOL    HW231968   6.731   1.568   6.209 -0.6598 -0.3231  0.6492
 9608SOL     OW31969   2.680   0.375   0.173 -0.0986  0.4683  0.6290
 9608SOL    HW131970   2.765   0.356   0.212  0.5677  0.3017 -0.8588
 9608SOL    HW231971   2.700   0.412   0.087 -1.4857 -1.7292 -0.7631
 9609SOL     OW31972   5.234   2.425   2.867 -0.7283 -0.0458 -0.0426
 9609SOL    HW131973   5.143   2.426   2.838 -1.1176 -1.7813  0.9671
 9609SOL    HW231974   5.234   2.368   2.944  1.3472 -0.7813 -0.5154
 9610SOL     OW31975   3.754   7.712   7.216  0.0021 -0.5405  0.0374
 9610SOL    HW131976   3.787   7.657   7.287 -0.0774  0.1432  0.6183
 9610SOL    HW231977   3.671   7.746   7.249  0.2461  0.2463 -0.1472
 9611SOL     OW31978   7.467   6.760   0.070 -0.7620  0.2671 -0.0361
 9611SOL    HW131979   7.385   6.798   0.102  0.8996  2.6514  1.6986
 9611SOL    HW231980   7.519   6.745   0.149  0.7876 -0.5264 -1.1509
 9612SOL     OW31981   6.458   0.740   1.182 -0.0097 -0.6030 -0.6823
 9612SOL    HW131982   6.518   0.808   1.215 -0.8599  0.1514 -0.6725
 9612SOL    HW231983   6.502   0.706   1.104  0.3965 -0.0070 -0.7200
 9613SOL     OW31984   2.701   1.210   1.604 -0.2999 -0.0955  0.0403
 9613SOL    HW131985   2.782   1.242   1.562 -0.1988  1.5932  1.4363
 9613SOL    HW231986   2.731   1.142   1.664 -0.0125 -0.0579 -0.0576
 9614SOL     OW31987   2.207   3.871   3.550  0.3765  0.0321 -0.3166
 9614SOL    HW131988   2.220   3.780   3.523 -0.0158  0.1774 -1.0306
 9614SOL    HW231989   2.189   3.866   3.643  0.7050 -0.5917 -0.2768
 9615SOL     OW31990   5.155   0.917   6.665 -0.0289  0.5682  0.3357
 9615SOL    HW131991   5.065   0.893   6.645  0.3942 -1.1216  0.2451
 9615SOL    HW231992   5.154   0.941   6.758  0.0069 -3.2413  1.4969
 9616SOL     OW31993   1.208   3.386   2.502 -0.3770  0.3771 -0.2312
 9616SOL    HW131994   1.236   3.461   2.450  0.7559  1.2286  1.5111
 9616SOL    HW231995   1.169   3.424   2.581 -0.0917 -0.8413  0.5324
 9617SOL     OW31996   5.695   3.411   2.717  0.7828  0.4633  0.7494
 9617SOL    HW131997   5.773   3.376   2.675  0.1506  1.9098 -1.8188
 9617SOL    HW231998   5.660   3.475   2.655 -3.3037 -1.1711  1.0462
 9618SOL     OW31999   4.527   0.694   3.919 -0.5022 -0.1242 -0.1576
 9618SOL    HW132000   4.614   0.717   3.886 -0.3921 -0.8853 -0.4053
 9618SOL    HW232001   4.543   0.670   4.010 -0.7671  1.7096  0.4291
 9619SOL     OW32002   6.650   0.659   1.721 -0.4113 -0.4278 -0.8031
 9619SOL    HW132003   6.727   0.714   1.706 -1.3527  0.7136 -1.5927
 9619SOL    HW232004   6.685   0.570   1.725  1.0025  0.1067 -0.6969
 9620SOL     OW32005   7.150   1.546   0.626  0.3055 -0.5092  0.2573
 9620SOL    HW132006   7.204   1.495   0.566 -2.2648 -2.1128 -0.8725
 9620SOL    HW232007   7.151   1.635   0.590  0.7413 -0.9156 -0.7641
 9621SOL     OW32008   2.002   7.818   2.310  0.2609  0.3134 -0.1939
 9621SOL    HW132009   1.926   7.871   2.330 -0.4016 -0.3717 -0.8444
 9621SOL    HW232010   2.042   7.861   2.234 -0.1449  0.0152 -0.5784
 9622SOL     OW32011   5.743   5.766   5.362 -0.5612 -0.2730 -0.3421
 9622SOL    HW132012   5.783   5.834   5.309 -3.5391  1.4551 -0.6077
 9622SOL    HW232013   5.688   5.718   5.301 -1.5586 -0.3257  0.5706
 9623SOL     OW32014   7.282   3.654   4.475  0.1798 -0.1898 -0.0294
 9623SOL    HW132015   7.350   3.592   4.449 -0.6836 -0.5233 -1.6610
 9623SOL    HW232016   7.212   3.600   4.511 -0.0963 -0.0633 -0.3673
 9624SOL     OW32017   2.226   4.461   2.303  0.1075 -0.1647 -0.4155
 9624SOL    HW132018   2.177   4.381   2.322 -1.3873  0.9526  0.6493
 9624SOL    HW232019   2.280   4.476   2.380 -1.2098  0.9588  0.3288
 9625SOL     OW32020   7.298   5.722   5.307 -0.3202  0.3091 -0.0449
 9625SOL    HW132021   7.368   5.687   5.252  0.1676  2.3256 -0.7825
 9625SOL    HW232022   7.336   5.723   5.396 -0.2684 -0.7439 -0.0395
 9626SOL     OW32023   6.603   3.275   6.400  0.3209  0.5219  0.2940
 9626SOL    HW132024   6.675   3.314   6.449  1.0024 -0.8209  0.3862
 9626SOL    HW232025   6.639   3.196   6.361 -0.5953  0.7869 -1.2060
 9627SOL     OW32026   8.024   4.685   4.089 -0.0055  0.3745 -0.1996
 9627SOL    HW132027   8.090   4.743   4.126  0.9824 -1.0831  0.4352
 9627SOL    HW232028   8.062   4.597   4.097 -2.2892 -0.6189  0.8327
 9628SOL     OW32029   5.934   5.408   4.008 -0.2518  0.7511 -0.0450
 9628SOL    HW132030   5.865   5.424   3.944  1.2949  1.0863 -1.7110
 9628SOL    HW232031   6.003   5.365   3.958  1.3486  1.7542  1.2170
 9629SOL     OW32032   7.602   1.339   5.326  0.2513  0.4116  0.1462
 9629SOL    HW132033   7.592   1.282   5.249  2.0622 -1.5819  1.2696
 9629SOL    HW232034   7.512   1.354   5.356 -0.3670 -0.8725 -0.9093
 9630SOL     OW32035   6.593   2.494   0.928  0.2187 -0.2153 -0.1996
 9630SOL    HW132036   6.612   2.536   1.012  2.2915  1.3906 -1.3843
 9630SOL    HW232037   6.676   2.452   0.903 -0.0546  0.1652 -1.8710
 9631SOL     OW32038   2.700   7.932   6.194  0.1323  0.1767 -0.0430
 9631SOL    HW132039   2.778   7.879   6.177 -0.0809 -0.4355  0.8184
 9631SOL    HW232040   2.695   7.937   6.290  0.4170  2.1728 -0.0752
 9632SOL     OW32041   1.851   4.203   4.535  0.5396  0.0262  0.5180
 9632SOL    HW132042   1.818   4.286   4.568  0.5392 -0.4571  1.7888
 9632SOL    HW232043   1.785   4.174   4.472  0.1176  0.5694  0.7033
 9633SOL     OW32044   2.196   7.116   2.400  0.4031 -0.1314 -0.0397
 9633SOL    HW132045   2.183   7.201   2.358 -0.4640 -0.3682 -0.2750
 9633SOL    HW232046   2.271   7.129   2.458  1.2156  0.3883 -1.1689
 9634SOL     OW32047   5.043   7.637   0.032 -0.0627  0.7148  0.7429
 9634SOL    HW132048   5.114   7.628   0.095 -0.2962  2.2447  1.2706
 9634SOL    HW232049   4.966   7.601   0.078  0.0258  0.6261  0.8213
 9635SOL     OW32050   1.361   4.454   0.209 -0.1197 -0.2888 -0.0483
 9635SOL    HW132051   1.348   4.377   0.264  0.8566 -1.2493 -1.1048
 9635SOL    HW232052   1.377   4.418   0.122  1.1994  1.0651 -0.4002
 9636SOL     OW32053   0.084   1.939   2.505 -0.1831  0.3931  0.0658
 9636SOL    HW132054   0.050   1.922   2.593  0.6368 -0.8095  0.1732
 9636SOL    HW232055   0.017   1.993   2.464 -2.3440 -1.9668  0.2158
 9637SOL     OW32056   3.005   2.709   4.772  0.5870  0.3109  0.2293
 9637SOL    HW132057   3.055   2.630   4.792  0.1040 -0.0829 -0.0844
 9637SOL    HW232058   2.921   2.697   4.816  0.7993  1.0206  0.8563
 9638SOL     OW32059   0.800   0.114   4.311  0.3403  0.4369 -0.3225
 9638SOL    HW132060   0.790   0.151   4.223  0.9247  0.7759 -0.2593
 9638SOL    HW232061   0.774   0.185   4.369 -3.8659 -0.9601 -0.1743
 9639SOL     OW32062   5.894   2.021   0.817  0.1179 -0.3240 -0.0577
 9639SOL    HW132063   5.799   2.025   0.823  0.2192  2.0704  1.7184
 9639SOL    HW232064   5.924   2.019   0.908  1.7681 -0.1059 -0.5607
 9640SOL     OW32065   6.367   6.118   2.230 -0.2222  0.0903  0.7918
 9640SOL    HW132066   6.413   6.155   2.154  0.3025  0.6965  1.3916
 9640SOL    HW232067   6.384   6.180   2.301 -1.8048  0.2251  1.0889
 9641SOL     OW32068   4.763   4.473   2.213  0.1888  0.2766  0.2599
 9641SOL    HW132069   4.671   4.472   2.185  0.2674 -0.3946  0.0017
 9641SOL    HW232070   4.805   4.407   2.158  0.9785  1.0822 -0.1231
 9642SOL     OW32071   3.888   1.905   6.633  0.8861  0.5870  0.1452
 9642SOL    HW132072   3.942   1.894   6.711 -0.6329  0.4046  1.2174
 9642SOL    HW232073   3.945   1.876   6.561  2.3242  0.7658  1.1555
 9643SOL     OW32074   1.013   5.331   4.622  0.6012 -0.0353  0.5345
 9643SOL    HW132075   0.978   5.398   4.563  1.3094  0.4232  0.6189
 9643SOL    HW232076   1.022   5.376   4.707  1.2961 -0.1522  0.5331
 9644SOL     OW32077   2.570   7.603   7.203 -0.0330 -0.5680  0.2586
 9644SOL    HW132078   2.563   7.674   7.139  0.4380 -0.8232 -0.0798
 9644SOL    HW232079   2.605   7.645   7.281 -1.9223  0.0263  0.8305
 9645SOL     OW32080   4.605   7.571   7.642  0.0376 -0.5359  0.6457
 9645SOL    HW132081   4.550   7.498   7.617 -1.5898 -0.1359  2.7435
 9645SOL    HW232082   4.545   7.646   7.648  0.6546 -0.1429  3.2723
 9646SOL     OW32083   0.236   1.229   6.715  0.4714  0.1977 -0.0337
 9646SOL    HW132084   0.257   1.303   6.657 -0.0022 -0.8647 -1.6422
 9646SOL    HW232085   0.319   1.206   6.755  0.7539  1.1829 -0.0201
 9647SOL     OW32086   6.353   3.461   4.312 -0.6247  0.7590  0.3150
 9647SOL    HW132087   6.387   3.518   4.381 -0.4581  1.4963 -0.3613
 9647SOL    HW232088   6.335   3.378   4.356  0.5378  0.8566  1.0189
 9648SOL     OW32089   1.463   2.592   2.890  0.2604 -0.1304 -0.1718
 9648SOL    HW132090   1.407   2.517   2.910  0.4631  0.1282  1.4339
 9648SOL    HW232091   1.404   2.655   2.847 -0.1776 -0.7045 -0.4262
 9649SOL     OW32092   6.038   0.509   0.387  0.5147 -0.2915  0.2866
 9649SOL    HW132093   5.955   0.549   0.360 -0.0618 -1.0899  0.8190
 9649SOL    HW232094   6.087   0.581   0.427  0.2395  0.2746 -0.3719
 9650SOL     OW32095   2.453   2.881   2.337 -0.6351 -0.3195  0.4336
 9650SOL    HW132096   2.479   2.957   2.389  0.0597 -1.1815  1.4092
 9650SOL    HW232097   2.530   2.860   2.284 -0.8768 -0.2520  0.0530
 9651SOL     OW32098   1.089   7.052   1.893  0.7796 -0.4972  0.6264
 9651SOL    HW132099   1.130   7.108   1.828  0.6168 -1.1707 -0.0692
 9651SOL    HW232100   1.108   6.963   1.864 -0.3772 -0.8134  0.8023
 9652SOL     OW32101   5.449   1.335   5.668  0.1643 -0.0805 -0.1147
 9652SOL    HW132102   5.470   1.298   5.754  1.3719 -1.2582 -0.8832
 9652SOL    HW232103   5.478   1.426   5.674 -1.4717  0.4015  1.3111
 9653SOL     OW32104   2.812   3.551   7.472  0.0117  1.0350 -0.0744
 9653SOL    HW132105   2.751   3.483   7.445 -0.1707 -0.0014  2.5573
 9653SOL    HW232106   2.779   3.580   7.558  0.3903  4.1227 -0.8466
 9654SOL     OW32107   4.783   1.681   4.543 -0.3946 -0.3258  0.0607
 9654SOL    HW132108   4.801   1.753   4.603 -0.7925  0.1951 -0.4455
 9654SOL    HW232109   4.788   1.603   4.598 -0.4493  0.1247  0.7127
 9655SOL     OW32110   4.951   5.036   6.304  0.2005  0.2598 -0.2645
 9655SOL    HW132111   4.908   5.119   6.284 -0.1032  0.3697  0.8262
 9655SOL    HW232112   4.987   5.008   6.219  0.4742  1.5845 -0.6226
 9656SOL     OW32113   3.061   2.341   6.437 -0.3287 -0.5922 -0.4671
 9656SOL    HW132114   2.995   2.403   6.467  0.4998  0.4415 -0.7273
 9656SOL    HW232115   3.122   2.334   6.511  0.3286 -0.0162 -0.9411
 9657SOL     OW32116   6.015   5.957   6.458 -0.1848 -0.2449 -0.4592
 9657SOL    HW132117   6.026   5.864   6.477 -0.8382 -0.3667 -0.6235
 9657SOL    HW232118   6.103   5.993   6.454  0.0524 -0.7732  0.0360
 9658SOL     OW32119   3.218   5.129   6.219 -0.1161 -0.2005 -0.4532
 9658SOL    HW132120   3.216   5.099   6.128  2.4718  0.9784 -0.9870
 9658SOL    HW232121   3.148   5.195   6.224  0.4059  0.5194 -1.9415
 9659SOL     OW32122   4.866   6.888   0.600 -0.0102  0.6158  0.2813
 9659SOL    HW132123   4.806   6.939   0.546 -2.7137 -2.1661  0.4012
 9659SOL    HW232124   4.891   6.813   0.545  0.9329  0.1366  1.3144
 9660SOL     OW32125   6.352   0.525   2.296  0.2109  0.7019  0.2221
 9660SOL    HW132126   6.260   0.532   2.271 -0.4020 -0.6725  1.8912
 9660SOL    HW232127   6.374   0.433   2.282  0.9829  0.7701  0.8964
 9661SOL     OW32128   5.882   3.054   0.209  0.1868  0.1972  0.5435
 9661SOL    HW132129   5.866   3.145   0.233 -2.8440  0.2644 -1.1882
 9661SOL    HW232130   5.957   3.057   0.150  2.0096  1.1113  2.7924
 9662SOL     OW32131   7.111   7.977   3.365 -0.2413 -0.1301 -0.2433
 9662SOL    HW132132   7.027   7.985   3.412 -0.1229 -1.7090  0.2953
 9662SOL    HW232133   7.156   8.060   3.382 -2.6152  1.8085 -2.5104
 9663SOL     OW32134   1.447   7.133   5.902 -0.0958 -0.7968  0.7292
 9663SOL    HW132135   1.419   7.119   5.811  0.7014  0.0246  0.3474
 9663SOL    HW232136   1.484   7.221   5.902  0.5264 -1.0512  1.7035
 9664SOL     OW32137   2.090   3.282   6.024 -0.5581  0.0871  0.3115
 9664SOL    HW132138   2.056   3.369   6.045 -0.6485  0.7484 -2.2322
 9664SOL    HW232139   2.045   3.258   5.943  3.3392  0.0833 -2.1224
 9665SOL     OW32140   2.313   5.484   4.529 -0.0225 -0.4489  0.5480
 9665SOL    HW132141   2.296   5.395   4.500 -0.6562 -0.2471  0.2896
 9665SOL    HW232142   2.236   5.508   4.580 -0.8885  0.7246 -1.2138
 9666SOL     OW32143   7.974   3.664   5.824  0.3391  0.0048 -0.6699
 9666SOL    HW132144   8.016   3.610   5.757 -0.1068  0.8777 -1.6739
 9666SOL    HW232145   8.031   3.741   5.832 -0.1737  0.4104 -0.8413
 9667SOL     OW32146   6.619   3.318   0.472  0.4702  0.4490  0.1994
 9667SOL    HW132147   6.687   3.311   0.539  0.4975 -0.9994  0.0681
 9667SOL    HW232148   6.650   3.263   0.401 -0.1561  0.9522 -0.4736
 9668SOL     OW32149   7.266   8.015   4.513 -0.1065  0.0824  0.6992
 9668SOL    HW132150   7.286   7.921   4.512 -1.0039 -0.1268  1.2239
 9668SOL    HW232151   7.277   8.042   4.422  0.5414 -0.4503  0.6138
 9669SOL     OW32152   6.554   7.297   5.565 -0.0451 -0.2395 -0.2709
 9669SOL    HW132153   6.582   7.317   5.654  1.3592 -0.1639 -0.6994
 9669SOL    HW232154   6.477   7.351   5.551  0.3325  0.5367  0.5405
 9670SOL     OW32155   1.042   6.121   4.857 -0.2691 -0.4690 -0.1492
 9670SOL    HW132156   1.076   6.113   4.768 -1.7874 -5.4851 -0.6203
 9670SOL    HW232157   1.112   6.086   4.912 -0.7486 -1.0328  0.1102
 9671SOL     OW32158   5.095   6.269   6.862 -0.1124  0.4048 -0.4429
 9671SOL    HW132159   5.143   6.187   6.876 -0.9754 -0.0360  0.0115
 9671SOL    HW232160   5.046   6.282   6.943  0.5437  1.7397 -0.2482
 9672SOL     OW32161   4.304   4.196   3.604 -0.0549 -0.1214  0.6513
 9672SOL    HW132162   4.314   4.223   3.695 -0.0592  1.0760  0.3081
 9672SOL    HW232163   4.215   4.222   3.580  0.2318  0.3379  0.0578
 9673SOL     OW32164   5.057   6.277   1.567 -0.2220  0.9278  0.7641
 9673SOL    HW132165   5.075   6.216   1.638 -2.8484  0.6453  1.3005
 9673SOL    HW232166   5.076   6.227   1.487  4.2967  1.7520  1.0931
 9674SOL     OW32167   7.028   2.851   3.582  0.2901 -0.0609  0.0994
 9674SOL    HW132168   6.989   2.784   3.526 -0.7728 -1.0917  1.9833
 9674SOL    HW232169   7.110   2.874   3.538 -0.3482 -1.0309 -1.6921
 9675SOL     OW32170   0.836   1.437   4.112  0.2979  0.0293  0.0307
 9675SOL    HW132171   0.823   1.398   4.025 -1.3624 -1.0229  0.6897
 9675SOL    HW232172   0.882   1.519   4.095 -2.8379  1.5344 -2.2254
 9676SOL     OW32173   0.599   3.509   5.501 -0.2492  0.0543 -0.2662
 9676SOL    HW132174   0.675   3.550   5.458 -0.4972  0.3570 -0.4272
 9676SOL    HW232175   0.578   3.569   5.573 -0.6119  0.2112 -0.4997
 9677SOL     OW32176   1.911   7.432   1.637 -0.3675 -0.3099 -0.1219
 9677SOL    HW132177   1.965   7.507   1.611 -1.1232  0.3451  0.1880
 9677SOL    HW232178   1.948   7.404   1.721 -0.6663  0.2878  0.2066
 9678SOL     OW32179   0.589   6.436   1.322 -0.0187  0.1603  0.5874
 9678SOL    HW132180   0.584   6.341   1.335 -2.3622 -0.0725 -1.3591
 9678SOL    HW232181   0.528   6.472   1.387  1.1906  0.4162  1.6164
 9679SOL     OW32182   7.885   1.869   7.221 -0.5416 -0.0610  0.2005
 9679SOL    HW132183   7.930   1.806   7.277  2.1421  1.6266  0.1841
 9679SOL    HW232184   7.822   1.818   7.171 -0.6788 -2.1594  2.3651
 9680SOL     OW32185   1.944   0.061   2.026 -0.3917  0.5244  0.1394
 9680SOL    HW132186   1.954  -0.032   2.010  0.8803  0.6833 -0.0709
 9680SOL    HW232187   1.852   0.079   2.006 -0.4369 -0.5153 -0.6525
 9681SOL     OW32188   0.910   6.460   2.557 -0.2077 -0.4988 -0.0789
 9681SOL    HW132189   0.958   6.544   2.558 -0.7431 -0.1896  0.2344
 9681SOL    HW232190   0.876   6.453   2.468 -1.5240  0.4206  0.3158
 9682SOL     OW32191   2.883   6.701   5.473  0.0495 -0.6779 -0.6237
 9682SOL    HW132192   2.937   6.754   5.531  1.2234 -0.3597 -1.9528
 9682SOL    HW232193   2.888   6.613   5.509  0.7741 -0.4903 -0.2434
 9683SOL     OW32194   4.799   1.044   4.900 -0.4617  0.6622 -0.3305
 9683SOL    HW132195   4.739   1.103   4.946  0.5863  1.3309  0.2067
 9683SOL    HW232196   4.763   1.039   4.811 -2.6324 -0.8126  0.5367
 9684SOL     OW32197   3.858   0.627   0.793  0.1517  0.2972  0.2920
 9684SOL    HW132198   3.931   0.665   0.745  1.2266 -1.2413  0.6331
 9684SOL    HW232199   3.882   0.636   0.885 -1.2937  2.0496  0.5525
 9685SOL     OW32200   6.162   7.096   2.847  0.2677 -0.0933  0.0644
 9685SOL    HW132201   6.208   7.079   2.929  0.6485  1.6808  0.2685
 9685SOL    HW232202   6.206   7.042   2.783  1.4467  0.1827  0.6203
 9686SOL     OW32203   3.740   7.847   7.739 -0.3102 -0.1138 -0.1281
 9686SOL    HW132204   3.799   7.775   7.715 -0.1661  0.0461 -0.2581
 9686SOL    HW232205   3.799   7.917   7.766 -0.4678 -0.3689  0.9452
 9687SOL     OW32206   6.531   0.011   0.226  0.1182 -0.4433 -0.0665
 9687SOL    HW132207   6.609  -0.021   0.272  0.8731  0.3485 -0.7630
 9687SOL    HW232208   6.458  -0.024   0.276  0.9008  0.5856  1.8771
 9688SOL     OW32209   3.991   5.999   4.330 -0.2812 -0.1245  0.2686
 9688SOL    HW132210   4.049   5.992   4.255 -0.7121 -1.8978  0.0436
 9688SOL    HW232211   3.999   5.915   4.375 -0.8464  0.4902  1.6058
 9689SOL     OW32212   4.258   7.234   4.078 -0.5070  0.0139 -0.7387
 9689SOL    HW132213   4.194   7.248   4.008  0.6064  0.4081 -1.7214
 9689SOL    HW232214   4.340   7.267   4.041  0.8171 -2.7444 -0.4773
 9690SOL     OW32215   7.228   1.336   4.051 -0.5407 -0.3627  0.0979
 9690SOL    HW132216   7.140   1.374   4.057 -1.6475 -2.7122 -0.0979
 9690SOL    HW232217   7.257   1.354   3.962 -1.9003 -1.6268 -0.6494
 9691SOL     OW32218   2.672   2.151   0.012  0.4409  0.0284 -0.0622
 9691SOL    HW132219   2.589   2.197  -0.002  0.0756 -0.6093 -0.0224
 9691SOL    HW232220   2.702   2.129  -0.076  0.9041  0.8353 -0.1131
 9692SOL     OW32221   3.391   5.836   3.945 -0.3822  0.2099  0.4191
 9692SOL    HW132222   3.300   5.830   3.914  0.3391 -2.1516 -1.5768
 9692SOL    HW232223   3.426   5.748   3.931  2.5430  1.3473  0.0602
 9693SOL     OW32224   1.194   1.465   1.077 -0.0232 -0.0503  0.5036
 9693SOL    HW132225   1.277   1.440   1.038  0.1401  1.4369 -0.1762
 9693SOL    HW232226   1.192   1.561   1.071 -0.9067  0.0922  2.3111
 9694SOL     OW32227   0.258   5.866   0.231 -0.1651 -0.1371  0.2146
 9694SOL    HW132228   0.222   5.820   0.155 -1.4917  1.0568  0.0738
 9694SOL    HW232229   0.286   5.951   0.197  0.0174  0.0888  0.9016
 9695SOL     OW32230   2.125   5.524   5.566  0.1745 -0.1290 -0.2828
 9695SOL    HW132231   2.135   5.592   5.499 -0.0940  0.2603  0.0728
 9695SOL    HW232232   2.057   5.557   5.624  1.0936 -0.0262  0.7470
 9696SOL     OW32233   6.404   0.110   2.349 -0.2590  0.5869 -0.2789
 9696SOL    HW132234   6.491   0.127   2.386  0.2980  0.2035 -1.3860
 9696SOL    HW232235   6.419   0.042   2.283 -1.5726 -0.2554  0.2581
 9697SOL     OW32236   5.136   2.355   5.505  0.3140  0.0197  0.1407
 9697SOL    HW132237   5.072   2.400   5.451 -0.7041  0.1750  1.4217
 9697SOL    HW232238   5.216   2.354   5.452 -0.7587 -0.2711 -1.5320
 9698SOL     OW32239   6.254   3.650   3.235 -0.1784 -0.0323  0.3579
 9698SOL    HW132240   6.281   3.572   3.186 -0.1411  0.9978 -1.3393
 9698SOL    HW232241   6.326   3.667   3.295  1.0238  0.1568 -1.0736
 9699SOL     OW32242   7.209   1.425   0.183  0.3707 -0.0370  0.7130
 9699SOL    HW132243   7.247   1.495   0.237  0.7300 -0.7125  1.3428
 9699SOL    HW232244   7.114   1.435   0.196  0.2748  1.6158 -0.8244
 9700SOL     OW32245   7.604   0.025   5.727 -0.1350 -0.1557 -0.0288
 9700SOL    HW132246   7.634   0.091   5.664  1.3194  0.7177  1.5007
 9700SOL    HW232247   7.629  -0.058   5.687  1.1187  0.3961 -0.4627
 9701SOL     OW32248   1.881   0.923   2.045  0.0483 -0.1240  0.3573
 9701SOL    HW132249   1.787   0.934   2.026 -0.0274  1.8362  1.6032
 9701SOL    HW232250   1.922   1.002   2.009  1.5308 -1.7104 -1.6624
 9702SOL     OW32251   2.966   1.752   5.911 -0.2125  0.0542  0.3019
 9702SOL    HW132252   2.999   1.838   5.886 -2.1660  1.4135  2.0791
 9702SOL    HW232253   2.871   1.760   5.903 -0.5378 -1.3643  2.1847
 9703SOL     OW32254   7.104   2.721   7.942 -0.0139 -0.2074 -0.0799
 9703SOL    HW132255   7.108   2.729   8.037  1.9233  2.4242 -0.2401
 9703SOL    HW232256   7.020   2.760   7.918 -0.2957 -0.4292  0.5347
 9704SOL     OW32257   2.152   2.942   2.442 -0.1184  0.0308 -0.3008
 9704SOL    HW132258   2.086   2.979   2.501 -0.1649 -0.6269  0.0725
 9704SOL    HW232259   2.138   2.987   2.359 -1.2018 -0.2670 -0.2999
 9705SOL     OW32260   0.139   5.349   2.402 -0.1268 -0.4957 -0.4911
 9705SOL    HW132261   0.199   5.317   2.470 -0.2082 -1.9217 -1.0498
 9705SOL    HW232262   0.081   5.275   2.385 -1.1771  0.4145 -0.9301
 9706SOL     OW32263   4.143   4.384   1.192 -0.4374 -0.4457 -0.3127
 9706SOL    HW132264   4.085   4.413   1.262 -0.3891  1.1564 -0.8897
 9706SOL    HW232265   4.089   4.327   1.137 -0.8741 -0.5706  0.2436
 9707SOL     OW32266   0.718   0.343   3.337 -0.1494 -0.2191 -0.5580
 9707SOL    HW132267   0.774   0.419   3.322  0.4975 -0.6263 -0.2406
 9707SOL    HW232268   0.630   0.380   3.347  0.0803  0.4390 -0.9112
 9708SOL     OW32269   6.383   6.552   2.651  0.2753  0.5797 -0.0958
 9708SOL    HW132270   6.358   6.580   2.563  0.6028  2.4993  0.3712
 9708SOL    HW232271   6.466   6.596   2.668  1.3804 -1.5565  0.3613
 9709SOL     OW32272   0.551   6.064   5.112 -0.1169 -0.2766  0.1744
 9709SOL    HW132273   0.500   6.066   5.193  1.4586 -0.9137  1.2558
 9709SOL    HW232274   0.640   6.088   5.140  0.5500 -0.9328 -1.2876
 9710SOL     OW32275   4.408   5.478   1.053 -0.0966 -0.1852 -0.0851
 9710SOL    HW132276   4.393   5.383   1.049  0.1171 -0.1858 -1.3438
 9710SOL    HW232277   4.423   5.496   1.145 -1.1864 -1.2165  0.3231
 9711SOL     OW32278   7.458   1.749   8.007  0.3352 -0.8835  0.5082
 9711SOL    HW132279   7.419   1.836   8.011 -0.6337 -1.3169  0.5591
 9711SOL    HW232280   7.482   1.729   8.097  1.0572 -0.4663  0.4257
 9712SOL     OW32281   2.518   5.657   3.028 -0.4475  0.2251  0.1550
 9712SOL    HW132282   2.454   5.674   3.097 -1.5569  0.9171 -0.9821
 9712SOL    HW232283   2.529   5.742   2.985  1.2227  0.1013  0.2877
 9713SOL     OW32284   0.031   6.598   6.776  0.0368 -0.0774 -0.2026
 9713SOL    HW132285   0.043   6.564   6.865  0.4341 -0.1500 -0.2824
 9713SOL    HW232286   0.120   6.605   6.741 -0.0022  1.3724 -0.0658
 9714SOL     OW32287   2.475   7.362   2.871 -0.2722 -0.4411 -0.5490
 9714SOL    HW132288   2.524   7.353   2.790 -0.0534  2.0169 -0.7495
 9714SOL    HW232289   2.395   7.408   2.846 -1.2348 -1.5651  0.3140
 9715SOL     OW32290   1.042   5.433   0.274 -0.3980 -0.1587 -0.6339
 9715SOL    HW132291   0.965   5.385   0.302 -1.0887  0.9850 -0.5157
 9715SOL    HW232292   1.081   5.467   0.355 -1.6267  1.9953 -0.8871
 9716SOL     OW32293   1.396   6.138   5.898  0.5648  0.1857 -0.3927
 9716SOL    HW132294   1.433   6.188   5.971 -0.9948  1.3079 -0.3114
 9716SOL    HW232295   1.309   6.176   5.885 -0.4100 -2.0464 -0.8257
 9717SOL     OW32296   0.901   5.005   5.962  0.2987  0.1067 -0.0643
 9717SOL    HW132297   0.976   4.945   5.970 -0.2027 -0.4413  0.6579
 9717SOL    HW232298   0.825   4.949   5.974 -0.2102  0.7650 -0.1931
 9718SOL     OW32299   0.539   0.610   2.751 -0.1212 -0.3466  0.4693
 9718SOL    HW132300   0.566   0.519   2.751  1.2254 -0.0043 -0.9697
 9718SOL    HW232301   0.444   0.608   2.756 -0.2848 -1.9524 -1.8395
 9719SOL     OW32302   3.722   2.342   6.614  0.2094  0.8858  0.3876
 9719SOL    HW132303   3.783   2.268   6.619  0.5090  1.0325 -0.8510
 9719SOL    HW232304   3.778   2.419   6.611 -0.0263  1.0255 -0.6555
 9720SOL     OW32305   0.851   1.351   7.957  0.5843  0.6507  0.0602
 9720SOL    HW132306   0.904   1.352   7.877  0.1844  0.3543 -0.2092
 9720SOL    HW232307   0.910   1.316   8.024  2.2562  4.4663  0.8542
 9721SOL     OW32308   3.035   0.808   1.111  0.2035 -0.0020 -0.1212
 9721SOL    HW132309   3.000   0.773   1.193 -0.0312  0.6413  0.0510
 9721SOL    HW232310   3.045   0.902   1.126  2.2491 -0.1696 -0.0592
 9722SOL     OW32311   6.725   7.348   2.351 -0.4666  0.1616 -0.3597
 9722SOL    HW132312   6.749   7.433   2.387  0.7067 -0.3418  0.1183
 9722SOL    HW232313   6.640   7.362   2.310 -2.0644  0.6910  2.8663
 9723SOL     OW32314   1.158   7.568   3.000  0.1785 -0.1435 -0.2356
 9723SOL    HW132315   1.225   7.520   3.050 -1.2482 -1.7650  0.2001
 9723SOL    HW232316   1.123   7.503   2.939  0.0828  1.1239 -1.6016
 9724SOL     OW32317   4.046   4.619   7.938 -0.2354  0.6991 -0.2674
 9724SOL    HW132318   4.050   4.627   7.842 -0.0203  0.1104 -0.3162
 9724SOL    HW232319   4.088   4.534   7.956  3.4291  2.5183  0.6921
 9725SOL     OW32320   0.709   3.295   6.945  0.1532 -0.1818  0.3421
 9725SOL    HW132321   0.773   3.344   6.894 -0.1594  0.7831  0.8584
 9725SOL    HW232322   0.758   3.263   7.021  0.2465 -0.2746  0.2427
 9726SOL     OW32323   0.811   5.969   4.800 -0.6579  0.3332  1.0397
 9726SOL    HW132324   0.885   6.018   4.835 -0.6552  0.8882  0.3052
 9726SOL    HW232325   0.737   6.030   4.806 -0.9183  0.0007  1.2144
 9727SOL     OW32326   2.268   0.753   3.629 -0.1837  0.9169  0.1424
 9727SOL    HW132327   2.262   0.671   3.581 -0.3219  1.3810 -0.6483
 9727SOL    HW232328   2.292   0.727   3.718 -0.4302  0.0090 -0.0460
 9728SOL     OW32329   4.702   2.309   3.627 -0.7595  0.0221 -0.1862
 9728SOL    HW132330   4.751   2.391   3.623  0.5844 -0.7411  0.0423
 9728SOL    HW232331   4.640   2.314   3.554  0.9795  0.2101 -1.7297
 9729SOL     OW32332   3.071   4.032   0.849  0.0088  0.1068 -0.3462
 9729SOL    HW132333   3.070   4.012   0.943  0.7967  2.1129  0.1381
 9729SOL    HW232334   3.162   4.055   0.830 -0.5298  1.7921 -1.0997
 9730SOL     OW32335   6.239   6.915   4.799  1.0022 -0.3596  0.8147
 9730SOL    HW132336   6.312   6.948   4.850  1.7045 -1.1776  0.3521
 9730SOL    HW232337   6.245   6.820   4.804 -0.0911 -0.4486  0.8552
 9731SOL     OW32338   3.400   1.472   4.053  0.6980  0.4607  0.2644
 9731SOL    HW132339   3.392   1.454   4.147  0.4289  1.2023  0.3871
 9731SOL    HW232340   3.316   1.512   4.029  1.5019  2.1301  0.1335
 9732SOL     OW32341   2.715   2.649   6.390 -0.2103  0.1991  0.5294
 9732SOL    HW132342   2.677   2.570   6.352 -0.1489 -0.7390  2.3159
 9732SOL    HW232343   2.653   2.719   6.368 -0.6655 -0.4697 -0.3864
 9733SOL     OW32344   2.565   7.111   5.220 -0.2842  0.3328  0.4879
 9733SOL    HW132345   2.490   7.100   5.278 -2.0792 -0.1353 -1.8121
 9733SOL    HW232346   2.592   7.202   5.233 -0.4356  0.1706  2.2129
 9734SOL     OW32347   2.145   2.144   5.021  0.3250 -0.1816  0.0673
 9734SOL    HW132348   2.194   2.205   4.967 -0.8255 -0.1811 -1.0196
 9734SOL    HW232349   2.212   2.091   5.064  1.3183  1.1895  0.2875
 9735SOL     OW32350   1.044   1.440   3.568 -0.5601  0.8721 -0.4902
 9735SOL    HW132351   0.994   1.402   3.641 -0.6451  0.5941 -0.6922
 9735SOL    HW232352   1.128   1.393   3.571 -1.2196 -0.4545 -1.6934
 9736SOL     OW32353   6.743   3.630   5.948  0.1955 -0.1621  0.2694
 9736SOL    HW132354   6.785   3.632   6.034  0.1604  0.8447  0.2691
 9736SOL    HW232355   6.815   3.615   5.886  0.2177 -0.9073  0.4664
 9737SOL     OW32356   6.104   4.350   6.713  0.3332  0.2067 -0.0944
 9737SOL    HW132357   6.071   4.422   6.658 -0.5281 -0.4661 -0.4863
 9737SOL    HW232358   6.025   4.302   6.739  0.8163 -0.0696  0.9283
 9738SOL     OW32359   7.699   6.925   7.183  0.2166  0.5029  0.1795
 9738SOL    HW132360   7.748   6.976   7.119 -0.4702  0.6251 -0.2627
 9738SOL    HW232361   7.651   6.990   7.234  1.7331  0.5025  1.6823
 9739SOL     OW32362   6.936   1.737   2.495 -0.0423 -0.5272 -0.6562
 9739SOL    HW132363   6.899   1.727   2.407 -1.4451 -3.8442  0.1866
 9739SOL    HW232364   6.870   1.701   2.554  1.3879  0.4282  1.6868
 9740SOL     OW32365   4.202   5.281   3.943 -0.6002  0.0069 -0.4459
 9740SOL    HW132366   4.167   5.368   3.924 -0.6556 -0.2215 -1.4359
 9740SOL    HW232367   4.242   5.252   3.861  2.1951  0.3450  0.6922
 9741SOL     OW32368   2.652   1.044   4.557 -0.0085  0.0617  0.3033
 9741SOL    HW132369   2.618   0.967   4.513 -0.1764  0.0896  0.3816
 9741SOL    HW232370   2.734   1.015   4.597 -0.0267 -0.0522  0.2579
 9742SOL     OW32371   2.738   0.179   6.740 -0.5299  0.0726 -0.1905
 9742SOL    HW132372   2.815   0.127   6.765 -1.1263 -0.7267  0.0489
 9742SOL    HW232373   2.664   0.126   6.770 -1.1528  1.5831  1.1082
 9743SOL     OW32374   6.101   7.036   7.434 -0.3088 -0.0807  0.2391
 9743SOL    HW132375   6.021   7.055   7.385 -0.2629  1.7146  0.7990
 9743SOL    HW232376   6.073   6.971   7.499 -1.0594 -0.2714 -0.2607
 9744SOL     OW32377   2.773   1.620   0.524 -0.1389  0.5808 -0.4722
 9744SOL    HW132378   2.798   1.673   0.448 -0.8078  1.3556 -0.1656
 9744SOL    HW232379   2.699   1.568   0.494 -0.2664  0.7294 -0.4181
 9745SOL     OW32380   3.810   2.975   5.857 -0.4142  0.0765  0.3860
 9745SOL    HW132381   3.897   2.996   5.891 -0.9553 -0.3850  2.2168
 9745SOL    HW232382   3.819   2.888   5.820  0.3729  0.8900 -1.4426
 9746SOL     OW32383   6.875   6.109   5.791 -0.4774  0.0060 -0.1293
 9746SOL    HW132384   6.822   6.185   5.816 -0.8678 -0.3072  0.0147
 9746SOL    HW232385   6.910   6.132   5.705 -1.9583 -0.3249 -0.8503
 9747SOL     OW32386   0.112   4.788   0.355  0.1227  0.1710 -0.6576
 9747SOL    HW132387   0.024   4.762   0.327  0.2293  0.3518 -1.1621
 9747SOL    HW232388   0.157   4.813   0.274 -0.0461  2.1420 -0.1944
 9748SOL     OW32389   0.764   4.990   4.409  0.3837 -0.1013  0.3620
 9748SOL    HW132390   0.750   4.966   4.501  0.6533 -1.1420  0.1501
 9748SOL    HW232391   0.683   5.033   4.382  0.4199  0.4924  1.1676
 9749SOL     OW32392   5.379   0.401   2.993  0.0168  0.6442  0.6198
 9749SOL    HW132393   5.400   0.309   3.010 -0.1530  0.6461  0.8572
 9749SOL    HW232394   5.283   0.403   2.986  0.0765  0.6511 -0.3323
 9750SOL     OW32395   1.304   1.514   2.505 -0.2091 -0.7367  0.5145
 9750SOL    HW132396   1.357   1.537   2.428 -0.6674  0.8748  0.6325
 9750SOL    HW232397   1.214   1.512   2.471 -0.5641  1.2702  1.2126
 9751SOL     OW32398   0.296   6.777   0.250 -0.2284  0.0481  0.4164
 9751SOL    HW132399   0.252   6.835   0.312 -4.1642 -1.6615 -0.4270
 9751SOL    HW232400   0.297   6.692   0.294  0.4452 -0.3760 -0.3967
 9752SOL     OW32401   3.614   1.195   5.224  0.5372  0.0044 -0.2131
 9752SOL    HW132402   3.675   1.158   5.161  1.8307  0.8295  0.5037
 9752SOL    HW232403   3.634   1.149   5.306  1.2879  1.3313  0.3853
 9753SOL     OW32404   7.698   5.786   1.823  0.3419 -0.0071 -0.0582
 9753SOL    HW132405   7.646   5.730   1.766 -0.5413  0.4322  0.2962
 9753SOL    HW232406   7.770   5.817   1.769  0.3090 -0.7348 -0.5205
 9754SOL     OW32407   6.807   1.231   3.509 -0.2834 -0.2118  0.3976
 9754SOL    HW132408   6.777   1.318   3.535 -1.5446 -0.2992 -0.6460
 9754SOL    HW232409   6.787   1.175   3.584 -1.5688 -0.0065  0.2363
 9755SOL     OW32410   4.244   1.093   4.107 -0.0587 -0.4307 -0.5281
 9755SOL    HW132411   4.166   1.071   4.055 -0.1098  0.8687 -1.0426
 9755SOL    HW232412   4.235   1.187   4.124  1.3855 -0.2743 -0.5667
 9756SOL     OW32413   1.602   7.869   1.917  0.4998 -0.1269 -0.2464
 9756SOL    HW132414   1.610   7.964   1.908  1.8014 -0.0148  1.5529
 9756SOL    HW232415   1.602   7.836   1.827  2.8243  1.4123 -0.9027
 9757SOL     OW32416   8.067   8.066   0.122 -0.3377  0.3901 -0.1583
 9757SOL    HW132417   8.133   8.004   0.151 -0.2317  0.6224  0.1074
 9757SOL    HW232418   8.109   8.114   0.051  0.4573  1.7588  1.1598
 9758SOL     OW32419   1.396   4.473   3.941 -0.0308  0.1599  0.7606
 9758SOL    HW132420   1.356   4.387   3.926 -0.4515  0.7195 -1.6725
 9758SOL    HW232421   1.457   4.485   3.868 -0.5926  2.2723  0.5646
 9759SOL     OW32422   6.417   1.165   7.664 -0.1123  1.3602 -0.1879
 9759SOL    HW132423   6.402   1.148   7.757  0.8489 -0.5525 -0.3406
 9759SOL    HW232424   6.492   1.226   7.663 -0.0826  1.3323  0.2886
 9760SOL     OW32425   0.254   7.545   0.125  0.4176 -0.1080 -0.7850
 9760SOL    HW132426   0.347   7.524   0.130  0.4557  0.2248 -0.0116
 9760SOL    HW232427   0.214   7.494   0.195 -0.1602 -1.1209 -1.8192
 9761SOL     OW32428   6.574   7.602   0.261  0.0994 -0.5158 -0.1980
 9761SOL    HW132429   6.644   7.660   0.231 -2.2817  2.6365 -0.2351
 9761SOL    HW232430   6.536   7.566   0.181 -0.5222  0.6597 -0.4617
 9762SOL     OW32431   8.040   4.710   5.256 -0.0106  0.4449 -0.9169
 9762SOL    HW132432   8.071   4.755   5.335  0.4080 -0.2038 -0.6986
 9762SOL    HW232433   8.117   4.705   5.200  0.0648 -0.3940 -0.7475
 9763SOL     OW32434   4.879   4.582   4.583 -0.6756  0.0637 -0.6111
 9763SOL    HW132435   4.912   4.612   4.498  0.1759 -0.3883 -0.4494
 9763SOL    HW232436   4.957   4.550   4.629 -1.0547  0.7163  0.5178
 9764SOL     OW32437   2.597   4.646   6.815 -0.6977 -0.2016  0.1275
 9764SOL    HW132438   2.639   4.728   6.840  2.0672 -1.6957  0.8809
 9764SOL    HW232439   2.534   4.628   6.885  0.0137  0.3833  0.9417
 9765SOL     OW32440   7.697   3.381   0.990 -0.3795 -0.1078 -0.1315
 9765SOL    HW132441   7.773   3.424   0.951  0.1802 -0.0104  1.0278
 9765SOL    HW232442   7.622   3.432   0.958  0.3612  3.7801  3.4189
 9766SOL     OW32443   2.451   2.090   7.176 -0.0170 -0.1019 -0.1236
 9766SOL    HW132444   2.417   2.158   7.118 -0.7753 -0.6391 -0.3218
 9766SOL    HW232445   2.374   2.050   7.215  0.4824  0.2415  1.2705
 9767SOL     OW32446   5.114   3.243   7.449 -0.2012 -0.2668  0.1486
 9767SOL    HW132447   5.057   3.308   7.489 -0.3028  0.0451 -0.4963
 9767SOL    HW232448   5.202   3.266   7.479  0.1605  1.9270 -2.3194
 9768SOL     OW32449   1.829   2.431   3.180  0.5653 -0.1736 -0.1060
 9768SOL    HW132450   1.752   2.438   3.236  1.1235  0.6836  0.5847
 9768SOL    HW232451   1.841   2.337   3.168 -0.3772 -0.3280  0.0617
 9769SOL     OW32452   0.680   0.281   0.118 -0.5253 -0.3913 -0.4301
 9769SOL    HW132453   0.666   0.201   0.168 -1.1273  0.1156  0.2355
 9769SOL    HW232454   0.770   0.274   0.086  0.5100  0.0401  2.1714
 9770SOL     OW32455   7.928   3.249   4.109  0.4273 -0.7410 -0.0207
 9770SOL    HW132456   8.008   3.208   4.079  0.4014 -2.5325  2.1349
 9770SOL    HW232457   7.956   3.309   4.179  0.1607  0.9589 -1.3053
 9771SOL     OW32458   8.030   4.240   3.817  0.0902 -0.2873 -0.3919
 9771SOL    HW132459   8.042   4.192   3.899  0.1259  0.2562 -0.0701
 9771SOL    HW232460   8.100   4.209   3.760 -1.6351 -2.8636 -1.2996
 9772SOL     OW32461   3.844   4.329   7.391  0.0367  0.1263  0.3799
 9772SOL    HW132462   3.917   4.328   7.329 -0.9633 -1.0133 -0.8406
 9772SOL    HW232463   3.781   4.389   7.352  0.4589  1.4043  1.6234
 9773SOL     OW32464   0.169   3.111   2.123  0.2060  0.0567  0.2296
 9773SOL    HW132465   0.230   3.168   2.170  0.6245 -0.3917  0.2344
 9773SOL    HW232466   0.174   3.027   2.169 -0.3793  0.0026  0.1999
 9774SOL     OW32467   1.814   6.792   2.884 -0.3452  0.2574  0.3665
 9774SOL    HW132468   1.805   6.820   2.975  0.1451  0.5034  0.3442
 9774SOL    HW232469   1.890   6.840   2.852 -0.6779  0.3806 -0.2557
 9775SOL     OW32470   6.720   6.954   2.292 -0.0425 -1.1093 -0.1866
 9775SOL    HW132471   6.797   6.975   2.345 -0.6336  0.1310  0.1951
 9775SOL    HW232472   6.646   6.959   2.352 -0.6615 -0.2189 -0.9900
 9776SOL     OW32473   2.626   4.743   6.013  0.3942 -0.1399  0.0238
 9776SOL    HW132474   2.583   4.768   5.932 -0.8331 -1.8200  0.1144
 9776SOL    HW232475   2.559   4.755   6.081  1.2363  0.7403  0.7275
 9777SOL     OW32476   5.640   1.508   3.863  0.2463  0.1991 -0.5273
 9777SOL    HW132477   5.565   1.558   3.898  1.6560  1.9893  0.0939
 9777SOL    HW232478   5.683   1.473   3.941 -0.9304 -2.4571 -0.9691
 9778SOL     OW32479   0.046   5.010   1.345  0.4423 -0.1633 -0.4194
 9778SOL    HW132480   0.070   4.950   1.416  0.6414  0.0556 -0.3050
 9778SOL    HW232481   0.128   5.025   1.298  0.3072 -0.3198 -0.7053
 9779SOL     OW32482   1.699   4.006   0.026 -0.0541  0.1358  0.0078
 9779SOL    HW132483   1.674   4.052  -0.054 -0.1576  1.8577  0.9692
 9779SOL    HW232484   1.640   4.043   0.093 -1.0459 -2.3644  0.6263
 9780SOL     OW32485   5.139   3.126   3.421  0.5521  0.0223  0.0249
 9780SOL    HW132486   5.052   3.152   3.392  0.1857 -1.3707 -0.1986
 9780SOL    HW232487   5.125   3.084   3.506  1.0581  0.1137  0.1572
 9781SOL     OW32488   2.211   2.184   0.872 -0.6647 -0.2030  0.3196
 9781SOL    HW132489   2.130   2.134   0.864  0.1004 -1.5356  0.7248
 9781SOL    HW232490   2.268   2.149   0.804  0.1311 -0.3847  1.0622
 9782SOL     OW32491   3.920   0.568   1.318 -0.1690  0.2650 -0.2739
 9782SOL    HW132492   4.013   0.568   1.342 -0.4168  1.4257  0.7913
 9782SOL    HW232493   3.877   0.521   1.388 -0.5343  0.9061 -0.0576
 9783SOL     OW32494   4.793   7.427   8.010 -0.0432  0.1136 -0.0400
 9783SOL    HW132495   4.832   7.455   7.927  0.1060 -0.7385 -0.2722
 9783SOL    HW232496   4.713   7.382   7.985  0.3433 -0.7439  0.2157
 9784SOL     OW32497   5.820   6.238   6.690 -0.0870 -0.1598  0.4875
 9784SOL    HW132498   5.788   6.187   6.765  0.7053  1.7518  2.2091
 9784SOL    HW232499   5.761   6.314   6.686  0.8974  0.6112  0.2402
 9785SOL     OW32500   4.443   2.607   3.587  0.0184  0.7103  0.3028
 9785SOL    HW132501   4.416   2.549   3.658  1.5258  0.2125  0.5133
 9785SOL    HW232502   4.463   2.690   3.631  0.3958  0.5785  0.3819
 9786SOL     OW32503   3.137   6.319   3.246 -0.3243 -0.1333  0.3562
 9786SOL    HW132504   3.207   6.256   3.260  0.1880  0.7556  2.1756
 9786SOL    HW232505   3.068   6.293   3.307 -0.7134  0.2189  0.0749
 9787SOL     OW32506   7.690   1.136   0.715  0.0022 -0.5292  0.1069
 9787SOL    HW132507   7.696   1.043   0.736  1.4739 -0.4535  0.1615
 9787SOL    HW232508   7.782   1.164   0.708 -0.4250  0.6813 -0.9194
 9788SOL     OW32509   3.718   5.333   6.512 -0.3415 -0.1080 -0.1828
 9788SOL    HW132510   3.785   5.361   6.450  1.0415  1.4089  1.8706
 9788SOL    HW232511   3.693   5.412   6.559 -0.5796 -1.3146  1.8741
 9789SOL     OW32512   3.054   7.479   0.466  0.0166 -0.0321 -0.2628
 9789SOL    HW132513   2.983   7.522   0.417  0.9822  1.0033 -0.8126
 9789SOL    HW232514   3.027   7.388   0.473 -0.8188  0.0988 -1.4934
 9790SOL     OW32515   4.898   0.713   3.526 -0.3173 -0.1452 -0.6324
 9790SOL    HW132516   4.913   0.774   3.454 -0.7452  1.3192  0.4819
 9790SOL    HW232517   4.919   0.627   3.488  2.6792  0.8503 -1.5986
 9791SOL     OW32518   4.567   2.958   5.239 -0.1666 -0.5258  0.2609
 9791SOL    HW132519   4.531   3.041   5.271 -1.2290 -0.5039 -0.9023
 9791SOL    HW232520   4.653   2.982   5.203 -1.1651  0.4449 -1.6155
 9792SOL     OW32521   5.658   3.073   2.410 -0.2008 -0.3338 -0.2413
 9792SOL    HW132522   5.754   3.072   2.407 -0.1661 -0.5317  0.7408
 9792SOL    HW232523   5.635   3.166   2.410  0.1046 -0.2100  2.0189
 9793SOL     OW32524   4.175   0.428   2.577  0.2641 -0.2234  0.7870
 9793SOL    HW132525   4.265   0.418   2.544  0.2211 -0.4081  0.7216
 9793SOL    HW232526   4.149   0.516   2.550  0.5872  0.0021  1.2051
 9794SOL     OW32527   5.315   7.472   1.509 -0.0811  0.3281  0.2151
 9794SOL    HW132528   5.227   7.435   1.506  0.0326  0.1321 -1.2234
 9794SOL    HW232529   5.330   7.490   1.602 -0.2792 -2.8467  0.9521
 9795SOL     OW32530   2.710   1.481   3.979 -0.0144 -0.3712  0.0782
 9795SOL    HW132531   2.685   1.461   3.889  0.4771  0.0304 -0.1557
 9795SOL    HW232532   2.746   1.569   3.974  1.1070 -0.7836  0.4470
 9796SOL     OW32533   1.323   2.358   0.289  0.5925 -0.6194  0.0290
 9796SOL    HW132534   1.273   2.281   0.264  1.0221 -1.2895  1.1627
 9796SOL    HW232535   1.318   2.360   0.385  0.9110  0.5461  0.0432
 9797SOL     OW32536   7.449   7.945   3.571 -0.0274 -0.0482 -0.1814
 9797SOL    HW132537   7.449   7.958   3.476  1.3726  2.4337  0.0656
 9797SOL    HW232538   7.540   7.962   3.598 -0.8877  2.0199  1.8427
 9798SOL     OW32539   2.270   8.042   1.021  0.1185 -0.7719 -0.1887
 9798SOL    HW132540   2.287   8.085   1.105 -2.7409 -1.3783  0.8421
 9798SOL    HW232541   2.175   8.031   1.020  0.2252 -2.0923 -2.8968
 9799SOL     OW32542   0.173   6.896   1.875  0.0878  0.4983  0.1570
 9799SOL    HW132543   0.240   6.962   1.893 -0.0003  0.5513  0.2935
 9799SOL    HW232544   0.212   6.814   1.906  0.4582  0.3771 -0.6092
 9800SOL     OW32545   4.613   0.759   5.051 -0.5085  0.0673  0.1996
 9800SOL    HW132546   4.564   0.815   4.991 -0.7572  0.6519  0.9277
 9800SOL    HW232547   4.694   0.738   5.004 -0.4266  1.0151 -0.1067
 9801SOL     OW32548   5.774   4.254   5.114 -0.1938 -0.4886  0.5294
 9801SOL    HW132549   5.691   4.291   5.143 -0.4130 -0.1498 -0.4700
 9801SOL    HW232550   5.760   4.159   5.118 -0.5063 -0.4385  0.7005
 9802SOL     OW32551   0.950   0.961   7.973  0.6818 -0.2726  0.2439
 9802SOL    HW132552   0.978   0.921   8.055  0.3621  1.4409  1.2445
 9802SOL    HW232553   1.022   1.018   7.948  0.6439 -0.5474 -0.5179
 9803SOL     OW32554   4.306   7.781   7.074 -0.1055  0.6109  0.1404
 9803SOL    HW132555   4.291   7.874   7.058 -1.5313  0.3592 -0.1521
 9803SOL    HW232556   4.237   7.737   7.024 -0.5211 -0.5258  1.6434
 9804SOL     OW32557   2.573   4.336   1.494  0.2079  0.2878  0.9260
 9804SOL    HW132558   2.487   4.296   1.480  1.1230 -1.4582 -0.1345
 9804SOL    HW232559   2.595   4.313   1.584  0.4607 -1.1898  0.5214
 9805SOL     OW32560   2.880   5.396   6.590  0.1729 -0.5306 -0.3675
 9805SOL    HW132561   2.861   5.317   6.539  1.5842 -0.7843 -0.5349
 9805SOL    HW232562   2.867   5.468   6.529  1.0727 -0.7873 -0.8780
 9806SOL     OW32563   3.120   1.720   4.811 -0.1092  1.0667 -0.2638
 9806SOL    HW132564   3.199   1.764   4.781 -0.3357  0.2936 -2.1293
 9806SOL    HW232565   3.124   1.633   4.770 -2.0043  1.0875 -0.5769
 9807SOL     OW32566   5.883   8.039   7.017  0.2552 -0.5298  0.3884
 9807SOL    HW132567   5.948   8.020   6.950  0.0710  0.9459 -0.2558
 9807SOL    HW232568   5.929   8.026   7.100  1.7660  1.5106 -0.0341
 9808SOL     OW32569   4.706   3.354   7.497  0.0193  0.5637  0.2239
 9808SOL    HW132570   4.702   3.259   7.497  0.7175  0.5001 -1.3068
 9808SOL    HW232571   4.633   3.382   7.553 -0.8529 -0.8445 -0.1698
 9809SOL     OW32572   1.166   7.631   1.631  0.0756  0.2517 -0.0616
 9809SOL    HW132573   1.201   7.625   1.542  1.5999 -0.3118  0.5565
 9809SOL    HW232574   1.167   7.725   1.651  1.1416  0.2654 -0.1116
 9810SOL     OW32575   4.483   3.354   0.186 -0.1214  0.3182  0.3337
 9810SOL    HW132576   4.528   3.269   0.187  1.4849  1.0700  3.1037
 9810SOL    HW232577   4.406   3.340   0.240  0.9399  0.9068  2.0908
 9811SOL     OW32578   2.219   6.248   3.748 -0.0725 -0.6268 -0.4103
 9811SOL    HW132579   2.310   6.256   3.722  0.4225 -1.2235  1.0252
 9811SOL    HW232580   2.175   6.323   3.707  0.9159 -0.7217 -1.6701
 9812SOL     OW32581   3.764   4.465   1.910  0.1196 -0.0996 -0.3953
 9812SOL    HW132582   3.767   4.445   1.816 -0.4051 -0.3189 -0.3730
 9812SOL    HW232583   3.834   4.528   1.924 -0.9056  1.3057 -1.2801
 9813SOL     OW32584   5.104   0.885   3.358 -0.3290 -0.9785 -0.3413
 9813SOL    HW132585   5.085   0.967   3.403 -3.5517  0.1743 -3.3044
 9813SOL    HW232586   5.199   0.885   3.346 -0.1328  1.8103  0.6643
 9814SOL     OW32587   1.925   0.118   2.864 -0.1998 -0.2436  0.6089
 9814SOL    HW132588   1.865   0.161   2.803 -0.9302 -1.6611  0.2878
 9814SOL    HW232589   1.869   0.059   2.915  0.6255 -0.1273  1.6703
 9815SOL     OW32590   5.728   6.015   4.189  0.3136  0.0353 -0.1777
 9815SOL    HW132591   5.735   6.056   4.103  1.8937 -0.3885 -0.2832
 9815SOL    HW232592   5.762   6.081   4.250  0.8238 -0.2894 -0.0995
 9816SOL     OW32593   7.159   2.073   2.294  0.0137 -0.1030  0.1647
 9816SOL    HW132594   7.246   2.040   2.314  1.1137  2.6580  0.3888
 9816SOL    HW232595   7.167   2.168   2.302 -2.1660  0.5279 -3.1056
 9817SOL     OW32596   1.245   6.629   2.236 -0.1513 -0.0429 -0.1599
 9817SOL    HW132597   1.197   6.662   2.312 -0.8201  0.3789 -0.7489
 9817SOL    HW232598   1.326   6.680   2.235  0.1207 -0.4455  0.5864
 9818SOL     OW32599   4.174   1.551   3.409 -0.4523  0.2009 -0.0393
 9818SOL    HW132600   4.097   1.580   3.459 -0.6432  0.1360 -0.2917
 9818SOL    HW232601   4.234   1.517   3.475 -1.7730 -2.3466 -0.0081
 9819SOL     OW32602   6.880   0.608   7.127 -0.3397  0.6028  0.0090
 9819SOL    HW132603   6.951   0.558   7.087 -1.8694 -0.5070 -1.4495
 9819SOL    HW232604   6.870   0.570   7.214  0.9011  0.8705  0.2973
 9820SOL     OW32605   2.004   7.171   0.264 -0.4768  0.4604  1.1059
 9820SOL    HW132606   2.081   7.209   0.306  0.6157 -0.0918 -0.3206
 9820SOL    HW232607   1.938   7.168   0.333  1.0904 -0.0166  2.6581
 9821SOL     OW32608   1.256   5.826   0.662  0.5763 -0.0458 -1.2161
 9821SOL    HW132609   1.164   5.800   0.654  0.3413  0.2320  0.3670
 9821SOL    HW232610   1.303   5.744   0.675  0.1794  0.0134  0.8818
 9822SOL     OW32611   0.562   1.668   0.184 -0.1219 -0.3710  0.2356
 9822SOL    HW132612   0.481   1.666   0.133  0.4745  0.8096 -0.8261
 9822SOL    HW232613   0.592   1.577   0.184 -0.4734 -0.5142 -1.0169
 9823SOL     OW32614   4.394   3.493   6.013  0.0555 -0.5503  0.0943
 9823SOL    HW132615   4.373   3.584   5.990  0.2125 -0.6775 -0.5558
 9823SOL    HW232616   4.489   3.493   6.024  0.2829 -0.9993 -1.6066
 9824SOL     OW32617   6.180   2.986   4.244 -0.0146 -0.2743  0.1961
 9824SOL    HW132618   6.181   3.071   4.200 -2.0216  0.1170  0.8404
 9824SOL    HW232619   6.263   2.984   4.293  1.2486  0.1868 -1.8224
 9825SOL     OW32620   6.879   5.382   4.666  0.5659 -0.1549  0.0628
 9825SOL    HW132621   6.913   5.424   4.587  1.1772 -0.0013  0.3942
 9825SOL    HW232622   6.804   5.435   4.692  0.7432  0.1587 -0.0664
 9826SOL     OW32623   3.729   0.409   3.808 -0.7397 -0.2309 -0.4147
 9826SOL    HW132624   3.698   0.329   3.766  2.0150 -1.0006 -1.2006
 9826SOL    HW232625   3.663   0.429   3.874 -1.7544 -2.8573 -0.5354
 9827SOL     OW32626   2.942   1.640   1.433  0.1558  0.0949  0.1143
 9827SOL    HW132627   2.860   1.624   1.386  1.1674 -0.4286 -1.5826
 9827SOL    HW232628   2.931   1.595   1.516 -0.6008 -1.5416 -0.8255
 9828SOL     OW32629   6.518   0.160   4.621 -0.2473  0.2633 -0.0750
 9828SOL    HW132630   6.491   0.216   4.693  0.1214  0.7759 -0.3320
 9828SOL    HW232631   6.563   0.086   4.663  0.6820  0.9588  0.1895
 9829SOL     OW32632   1.911   4.302   1.822  0.5075  0.8024 -0.3341
 9829SOL    HW132633   1.957   4.367   1.875  2.0263  0.3247 -1.0126
 9829SOL    HW232634   1.849   4.352   1.770  0.6760  1.5401  0.1655
 9830SOL     OW32635   1.940   5.233   4.415 -0.2942 -0.1567  0.4421
 9830SOL    HW132636   1.862   5.214   4.363 -0.4156 -0.9274  0.8899
 9830SOL    HW232637   1.922   5.193   4.500 -0.0239  0.9399  1.0259
 9831SOL     OW32638   0.127   2.906   0.413 -0.1822  0.2162  0.2263
 9831SOL    HW132639   0.054   2.870   0.362 -1.1889 -0.2707  1.9481
 9831SOL    HW232640   0.198   2.845   0.400 -1.5730 -2.0419  2.3430
 9832SOL     OW32641   2.833   6.761   6.445 -0.4217  0.4813 -0.6335
 9832SOL    HW132642   2.888   6.837   6.424  1.2544 -0.1670  1.1820
 9832SOL    HW232643   2.863   6.692   6.386  1.6823 -0.2393  1.1729
 9833SOL     OW32644   1.460   1.480   0.596  0.3910  0.2119 -0.1352
 9833SOL    HW132645   1.555   1.486   0.598  0.5338 -1.6726  1.5838
 9833SOL    HW232646   1.437   1.485   0.503  2.1753  0.4837 -0.5813
 9834SOL     OW32647   2.489   4.550   1.356 -0.3248  0.1568  0.4778
 9834SOL    HW132648   2.533   4.469   1.383 -0.3461  0.3827  1.2169
 9834SOL    HW232649   2.549   4.590   1.292 -1.7779 -2.0211 -2.4559
 9835SOL     OW32650   5.631   6.493   4.969  0.2028 -0.1853  0.0130
 9835SOL    HW132651   5.559   6.432   4.979  0.5006 -0.5007  0.2667
 9835SOL    HW232652   5.619   6.557   5.040  0.1408 -0.2072  0.0218
 9836SOL     OW32653   0.892   4.047   0.942  0.0533 -0.2065  0.0013
 9836SOL    HW132654   0.866   3.993   0.867 -1.1690 -0.3201  0.4782
 9836SOL    HW232655   0.981   4.020   0.962  0.5237  0.0283 -1.5931
 9837SOL     OW32656   2.979   6.504   3.048 -0.6374 -0.7267  0.1230
 9837SOL    HW132657   3.018   6.522   3.134  0.3222  2.5884 -0.8487
 9837SOL    HW232658   2.893   6.545   3.052  0.5089  2.1032 -1.2797
 9838SOL     OW32659   7.917   7.726   4.968 -0.1509  0.3882  0.3007
 9838SOL    HW132660   7.956   7.670   4.900 -1.3297 -1.3435  0.9836
 9838SOL    HW232661   7.859   7.785   4.920 -0.2751 -0.2087 -0.2993
 9839SOL     OW32662   1.030   2.004   2.460 -0.4633  0.6257 -0.3551
 9839SOL    HW132663   0.940   1.995   2.429 -0.1997 -1.1644 -0.6954
 9839SOL    HW232664   1.081   1.943   2.407  1.0548  1.8878 -0.4491
 9840SOL     OW32665   6.088   7.418   5.012 -0.6022  0.0214  0.0548
 9840SOL    HW132666   6.125   7.418   5.100 -0.3994 -0.1265 -0.0308
 9840SOL    HW232667   6.105   7.506   4.979 -0.0957 -0.1284 -0.0826
 9841SOL     OW32668   7.174   0.033   0.811 -0.4190 -0.4978 -0.1651
 9841SOL    HW132669   7.185  -0.016   0.730 -1.2047  1.3042 -1.4338
 9841SOL    HW232670   7.245   0.097   0.811  0.7016 -1.6688  1.5504
 9842SOL     OW32671   2.193   3.050   5.499  0.3111 -0.0933 -0.2346
 9842SOL    HW132672   2.119   3.105   5.472  0.7672  1.0248  0.7153
 9842SOL    HW232673   2.250   3.048   5.422 -1.2707 -2.0846 -1.4727
 9843SOL     OW32674   6.777   1.121   3.257 -0.1462  0.0468  0.1442
 9843SOL    HW132675   6.709   1.054   3.254 -0.8715  0.7634  0.4209
 9843SOL    HW232676   6.772   1.156   3.346  0.5102  0.1881  0.1303
 9844SOL     OW32677   1.208   3.086   3.885  0.2416 -0.0098 -0.0968
 9844SOL    HW132678   1.184   3.091   3.792  0.6111 -1.1965 -0.2706
 9844SOL    HW232679   1.304   3.091   3.885  0.3003 -0.9448  0.1356
 9845SOL     OW32680   5.159   7.804   0.990  0.3374  0.0055 -0.6305
 9845SOL    HW132681   5.166   7.718   0.947  0.1396  0.3934 -1.4559
 9845SOL    HW232682   5.074   7.838   0.963 -0.1228 -0.0423  0.6753
 9846SOL     OW32683   6.742   5.802   0.827  0.4759  0.4674  0.6143
 9846SOL    HW132684   6.794   5.778   0.751 -0.5070 -0.7278  0.2916
 9846SOL    HW232685   6.680   5.730   0.838 -1.7574  2.2587  0.4070
 9847SOL     OW32686   6.368   3.572   0.140  0.2367  0.6363 -0.4402
 9847SOL    HW132687   6.341   3.488   0.103 -0.7815  1.3537 -1.4364
 9847SOL    HW232688   6.439   3.551   0.200 -0.9609 -1.1002  0.4439
 9848SOL     OW32689   5.428   0.357   0.923  0.5858  0.4603  0.1211
 9848SOL    HW132690   5.502   0.376   0.866 -0.2358  2.2429 -0.4147
 9848SOL    HW232691   5.463   0.297   0.989  1.7076 -1.2224 -1.8853
 9849SOL     OW32692   7.530   2.003   0.039  0.8302  0.0035  1.0208
 9849SOL    HW132693   7.620   2.036   0.039  1.3066 -1.2357  0.7124
 9849SOL    HW232694   7.521   1.958   0.122  1.0179 -1.1697  0.4288
 9850SOL     OW32695   3.758   7.777   0.840  0.2192 -1.0472 -0.1828
 9850SOL    HW132696   3.759   7.772   0.744 -1.4792  0.0133 -0.3041
 9850SOL    HW232697   3.773   7.687   0.869 -0.6302 -1.6377 -1.4833
 9851SOL     OW32698   4.826   0.235   5.359 -0.1607 -0.5223 -0.3312
 9851SOL    HW132699   4.775   0.223   5.279 -1.3457 -0.0136  0.3146
 9851SOL    HW232700   4.845   0.329   5.362  0.1406 -0.5876 -0.1763
 9852SOL     OW32701   4.802   4.444   7.856  0.3986  0.1437 -0.0785
 9852SOL    HW132702   4.788   4.491   7.938  1.3264  0.3212 -0.0081
 9852SOL    HW232703   4.724   4.390   7.846 -0.1595  0.8280  0.4340
 9853SOL     OW32704   4.896   3.630   1.030 -0.4639 -0.2441 -0.2337
 9853SOL    HW132705   4.879   3.608   0.938  1.3834  0.1910 -0.7170
 9853SOL    HW232706   4.971   3.689   1.027 -1.0809  0.7049  1.5033
 9854SOL     OW32707   0.306   0.361   5.417  0.3518  0.1905  0.1064
 9854SOL    HW132708   0.293   0.412   5.337 -0.9662 -1.8774 -1.1177
 9854SOL    HW232709   0.274   0.417   5.487  0.7871  1.7561 -0.8839
 9855SOL     OW32710   2.472   4.327   5.365  0.0722 -0.0599 -0.0756
 9855SOL    HW132711   2.457   4.337   5.271 -2.3149 -1.5757  0.0559
 9855SOL    HW232712   2.533   4.397   5.387 -1.4504  2.1403 -2.2446
 9856SOL     OW32713   3.538   7.526   4.421  0.0684  0.1833 -0.4364
 9856SOL    HW132714   3.498   7.456   4.371 -0.4288 -0.8623  1.3352
 9856SOL    HW232715   3.465   7.576   4.456  0.3463  0.0477  0.3759
 9857SOL     OW32716   7.945   7.268   4.480  0.7105  0.1583  0.2285
 9857SOL    HW132717   7.917   7.338   4.422  0.7254 -0.1072 -0.1013
 9857SOL    HW232718   8.029   7.240   4.445  1.5310  1.1151  1.3552
 9858SOL     OW32719   2.544   3.190   1.742 -0.2430 -0.4531  0.1186
 9858SOL    HW132720   2.452   3.164   1.737  0.0339 -1.2528 -1.2886
 9858SOL    HW232721   2.557   3.212   1.834 -1.7993 -0.4563  0.3762
 9859SOL     OW32722   3.218   5.079   5.169  0.6704 -0.2371  0.1081
 9859SOL    HW132723   3.126   5.063   5.189  1.0012 -1.0474  1.0616
 9859SOL    HW232724   3.217   5.151   5.106 -0.7340 -1.9526 -1.9544
 9860SOL     OW32725   7.285   7.113   5.813 -0.2479  0.2550 -0.0583
 9860SOL    HW132726   7.258   7.090   5.725 -0.8836  2.6179 -0.5707
 9860SOL    HW232727   7.376   7.142   5.804  0.3143 -1.2754  0.4389
 9861SOL     OW32728   4.585   4.424   7.268 -0.2778 -0.6251  0.0743
 9861SOL    HW132729   4.561   4.348   7.215 -2.2878 -2.3259  3.1182
 9861SOL    HW232730   4.623   4.387   7.347 -0.0561  1.6173  1.0741
 9862SOL     OW32731   2.919   1.527   4.130 -0.0336  0.1591 -0.4456
 9862SOL    HW132732   2.918   1.575   4.213  0.7710  1.0549 -0.9324
 9862SOL    HW232733   2.827   1.507   4.112 -0.0718 -2.7752  2.1747
 9863SOL     OW32734   2.297   3.377   0.648  0.2146 -0.1304  0.0849
 9863SOL    HW132735   2.256   3.402   0.730  0.5915 -1.0474  0.5712
 9863SOL    HW232736   2.233   3.401   0.581 -1.0656 -1.3914  0.8049
 9864SOL     OW32737   8.021   5.966   0.993 -0.1036  0.9510 -0.2180
 9864SOL    HW132738   8.078   5.892   0.973  0.8444  0.6250  3.0163
 9864SOL    HW232739   7.965   5.976   0.916 -0.3476 -3.1923 -0.7820
 9865SOL     OW32740   7.560   4.271   0.818  0.3665  0.5288 -0.7391
 9865SOL    HW132741   7.562   4.307   0.907  0.3629 -1.1990  0.0029
 9865SOL    HW232742   7.471   4.237   0.809  1.1778 -1.9325 -0.2400
 9866SOL     OW32743   7.852   2.136   7.304  0.3261 -0.2016  0.4199
 9866SOL    HW132744   7.880   2.046   7.288 -0.8020 -0.2697 -1.4797
 9866SOL    HW232745   7.912   2.191   7.254  0.2634  0.0225  0.5839
 9867SOL     OW32746   4.083   3.093   5.027  0.2860  0.1496  0.1698
 9867SOL    HW132747   4.042   3.178   5.042  0.7046  0.1469  1.5119
 9867SOL    HW232748   4.175   3.113   5.014 -0.0941  0.1847 -3.1677
 9868SOL     OW32749   6.607   3.986   7.165  0.6100 -0.2177 -0.6586
 9868SOL    HW132750   6.674   3.974   7.097  2.1692  0.3251  0.7095
 9868SOL    HW232751   6.631   4.067   7.208 -2.4611  1.4147 -1.7103
 9869SOL     OW32752   2.338   2.298   3.181 -0.0881 -0.0135 -0.1855
 9869SOL    HW132753   2.364   2.207   3.189  1.0926  0.2555 -0.7227
 9869SOL    HW232754   2.381   2.342   3.254  2.0293  0.6284 -1.7165
 9870SOL     OW32755   6.563   5.623   0.726 -0.1849 -0.2017  0.2787
 9870SOL    HW132756   6.564   5.713   0.693  1.1085 -0.6948 -1.1562
 9870SOL    HW232757   6.573   5.569   0.648 -2.1253 -1.6826  0.9692
 9871SOL     OW32758   6.481   4.440   7.589 -0.4078 -0.2127  0.3370
 9871SOL    HW132759   6.494   4.387   7.510  1.0700  0.2038  0.2855
 9871SOL    HW232760   6.503   4.529   7.562  0.6600 -0.1469  1.3466
 9872SOL     OW32761   5.257   2.192   0.047 -0.1414  0.4774 -0.0451
 9872SOL    HW132762   5.264   2.130  -0.025  0.4607  1.7542 -1.1369
 9872SOL    HW232763   5.179   2.166   0.095 -0.4923 -0.4567 -1.1026
 9873SOL     OW32764   5.181   4.347   4.935 -0.2609  0.8484  0.3273
 9873SOL    HW132765   5.123   4.365   4.861  0.5828  1.9705 -0.0837
 9873SOL    HW232766   5.131   4.288   4.991 -1.4343  1.0683 -0.4632
 9874SOL     OW32767   5.779   7.042   0.365 -0.5159 -0.3260 -0.3258
 9874SOL    HW132768   5.700   7.047   0.312 -0.8614 -0.2587  0.1882
 9874SOL    HW232769   5.748   7.026   0.454  0.1505 -3.1697 -0.4985
 9875SOL     OW32770   6.200   3.635   2.107 -0.1602 -0.1774 -0.0256
 9875SOL    HW132771   6.271   3.685   2.147 -1.4778  2.1999 -0.4839
 9875SOL    HW232772   6.174   3.571   2.174 -1.2376  2.5902  2.3949
 9876SOL     OW32773   0.589   1.977   6.562 -0.5842  0.1866 -0.0016
 9876SOL    HW132774   0.531   2.052   6.554 -0.3753  0.2694 -0.9283
 9876SOL    HW232775   0.651   1.987   6.489  1.0028  0.4465  1.3225
 9877SOL     OW32776   5.452   0.117   7.921  0.4331 -0.3196 -0.4106
 9877SOL    HW132777   5.393   0.105   7.846  0.4747  1.8723 -0.8367
 9877SOL    HW232778   5.394   0.142   7.993  0.7602  1.8262 -0.8259
 9878SOL     OW32779   7.584   4.108   7.243 -0.1104  0.5883  0.3490
 9878SOL    HW132780   7.648   4.170   7.209  2.3542 -2.1675 -0.3778
 9878SOL    HW232781   7.514   4.108   7.177  1.2794  0.4355 -1.1984
 9879SOL     OW32782   6.028   1.884   5.764 -0.0059 -0.3871  0.3810
 9879SOL    HW132783   6.058   1.935   5.689 -0.2731  0.2636  0.7033
 9879SOL    HW232784   6.081   1.916   5.837 -1.0086  0.3080  0.8266
 9880SOL     OW32785   2.324   1.327   1.728  0.3259 -1.0950  0.1539
 9880SOL    HW132786   2.361   1.239   1.721 -0.4032 -1.3204 -1.2135
 9880SOL    HW232787   2.333   1.363   1.640  0.3680  0.1078  0.6381
 9881SOL     OW32788   1.681   3.613   5.845 -0.3844  0.4031  0.0885
 9881SOL    HW132789   1.645   3.553   5.911 -0.3808  0.7937  0.4539
 9881SOL    HW232790   1.608   3.672   5.825 -0.1230  0.8411  0.4086
 9882SOL     OW32791   3.651   6.941   0.697  0.1868 -0.1218  0.4413
 9882SOL    HW132792   3.614   6.879   0.760 -0.5714  0.2251  0.3471
 9882SOL    HW232793   3.665   7.021   0.748  0.8693 -0.2596  0.4866
 9883SOL     OW32794   7.774   5.927   5.978  0.6083  0.0719 -0.6097
 9883SOL    HW132795   7.830   5.899   6.051 -0.5691 -0.6176  0.0659
 9883SOL    HW232796   7.835   5.945   5.907  1.7037 -0.5510  0.1319
 9884SOL     OW32797   6.820   2.769   6.296  0.1036 -0.1628 -0.1381
 9884SOL    HW132798   6.850   2.815   6.374 -0.4191 -1.7430  1.0538
 9884SOL    HW232799   6.725   2.779   6.297  0.0489 -0.6534 -0.2637
 9885SOL     OW32800   5.837   3.056   0.967 -0.0744 -0.2265 -0.0262
 9885SOL    HW132801   5.885   3.042   1.048 -1.1251  0.4420  0.7396
 9885SOL    HW232802   5.842   2.973   0.921  0.7878 -0.5205  0.5867
 9886SOL     OW32803   1.554   6.807   5.092 -0.1506 -0.3983  0.3032
 9886SOL    HW132804   1.483   6.746   5.076 -1.3834  0.7306  1.2811
 9886SOL    HW232805   1.582   6.836   5.005 -2.0280  0.3903 -0.0843
 9887SOL     OW32806   1.944   1.779   5.005 -0.2138 -0.9425  0.6266
 9887SOL    HW132807   1.889   1.706   4.977 -1.0486  0.8834 -3.0624
 9887SOL    HW232808   1.995   1.802   4.928 -2.6980  4.5948  0.1611
 9888SOL     OW32809   7.063   5.561   2.233 -0.4565  0.0353 -0.4607
 9888SOL    HW132810   7.110   5.549   2.151  1.9070  2.4323  0.3760
 9888SOL    HW232811   6.994   5.624   2.213 -0.5012 -0.1163 -0.7830
 9889SOL     OW32812   5.466   5.836   5.225  0.0431  0.0052  0.3709
 9889SOL    HW132813   5.546   5.887   5.237  0.0331  0.8844 -2.5800
 9889SOL    HW232814   5.497   5.751   5.192 -0.2148  0.0585 -0.0063
 9890SOL     OW32815   1.984   2.239   1.585 -0.4180 -0.2585 -0.2210
 9890SOL    HW132816   1.946   2.157   1.555  1.4705 -0.4919 -2.2308
 9890SOL    HW232817   2.078   2.226   1.578  0.0572  0.9656  2.6517
 9891SOL     OW32818   1.044   5.482   5.031  0.2195 -0.2080  0.5581
 9891SOL    HW132819   1.101   5.463   4.956 -0.6520 -1.1643  0.1121
 9891SOL    HW232820   1.068   5.571   5.057 -0.3774  0.7246 -1.7365
 9892SOL     OW32821   5.630   5.315   0.151  0.0203  0.3370 -0.2920
 9892SOL    HW132822   5.591   5.389   0.106 -1.2032 -0.5568 -0.7575
 9892SOL    HW232823   5.724   5.322   0.133 -0.1935  1.2467 -1.1015
 9893SOL     OW32824   5.805   2.638   3.024  0.1876  0.6065 -0.4954
 9893SOL    HW132825   5.777   2.646   3.116 -2.8425 -0.6105 -1.1752
 9893SOL    HW232826   5.840   2.550   3.017 -0.8182  0.2081 -0.7345
 9894SOL     OW32827   2.855   7.854   6.630  0.7989 -0.3657  0.1260
 9894SOL    HW132828   2.826   7.823   6.715  0.3024  2.1705  0.9690
 9894SOL    HW232829   2.948   7.829   6.624  0.8830 -0.4126  1.5075
 9895SOL     OW32830   1.293   3.256   1.579 -0.3408  0.0825  0.4705
 9895SOL    HW132831   1.322   3.250   1.488 -0.9372  0.1425  0.2720
 9895SOL    HW232832   1.237   3.179   1.592 -1.4470  0.8470  0.3385
 9896SOL     OW32833   0.035   7.540   4.654  0.3221 -0.2409 -0.2303
 9896SOL    HW132834   0.032   7.634   4.635 -0.8977 -0.4515 -1.2103
 9896SOL    HW232835   0.083   7.502   4.580  2.9732 -0.1784  1.3202
 9897SOL     OW32836   6.938   5.199   6.854  0.6903  0.2284 -0.8351
 9897SOL    HW132837   6.992   5.172   6.928  0.9768  0.7718 -0.8445
 9897SOL    HW232838   6.893   5.119   6.826  0.8478 -0.0478 -0.2961
 9898SOL     OW32839   4.292   1.490   7.728  0.2107 -0.0769  0.0687
 9898SOL    HW132840   4.304   1.439   7.808  1.0639 -1.5170 -0.9387
 9898SOL    HW232841   4.204   1.469   7.699  0.3760 -0.5904 -0.0681
 9899SOL     OW32842   7.965   1.456   4.852  0.0664  0.2538  0.1898
 9899SOL    HW132843   7.940   1.373   4.810  0.8062 -0.2223  0.6709
 9899SOL    HW232844   8.054   1.441   4.883 -0.2049  0.8394  1.2895
 9900SOL     OW32845   4.288   0.028   7.550 -0.2814  0.1506 -0.6179
 9900SOL    HW132846   4.298   0.019   7.644 -1.8365 -1.4472 -0.5671
 9900SOL    HW232847   4.218   0.092   7.539 -1.2334 -0.8540 -0.6140
 9901SOL     OW32848   3.400   4.085   3.713  0.4271  0.4554  0.2462
 9901SOL    HW132849   3.313   4.125   3.721  0.2760 -0.1493  2.4433
 9901SOL    HW232850   3.411   4.067   3.620 -0.8566  2.5774 -0.3805
 9902SOL     OW32851   5.390   2.997   6.198 -0.5426 -0.3675 -0.0206
 9902SOL    HW132852   5.412   3.069   6.140 -1.0398  0.2180  0.4986
 9902SOL    HW232853   5.437   3.017   6.279 -0.6076 -0.6784  0.0956
 9903SOL     OW32854   3.999   6.282   4.258  0.0892 -0.3261  0.3318
 9903SOL    HW132855   4.028   6.288   4.167  1.7349 -0.3710  0.8331
 9903SOL    HW232856   3.991   6.188   4.274 -0.7149 -0.3099  0.1056
 9904SOL     OW32857   1.759   4.679   8.068  0.0798 -0.9190  0.1341
 9904SOL    HW132858   1.727   4.716   8.151 -1.1796 -2.9024  0.6205
 9904SOL    HW232859   1.713   4.729   8.000  1.1638  0.7643  0.5776
 9905SOL     OW32860   5.987   2.003   1.071 -0.5047  0.0878  0.1496
 9905SOL    HW132861   6.070   2.024   1.113 -0.1690  0.6820 -0.7879
 9905SOL    HW232862   5.922   2.011   1.141  0.0636  0.8299  0.6069
 9906SOL     OW32863   1.160   4.538   6.688 -0.1936  0.3484 -0.8470
 9906SOL    HW132864   1.199   4.459   6.651 -2.1874  0.1069 -2.7031
 9906SOL    HW232865   1.208   4.610   6.647  1.3735  0.1602  0.5565
 9907SOL     OW32866   3.938   5.646   6.871 -0.6189 -0.1529  0.9304
 9907SOL    HW132867   3.989   5.724   6.894  0.4533  0.0124 -1.6975
 9907SOL    HW232868   4.003   5.576   6.863 -1.1270 -0.5508  0.1140
 9908SOL     OW32869   7.612   2.526   1.883  0.2060  0.7942 -1.0591
 9908SOL    HW132870   7.697   2.568   1.878 -0.1132  1.4043 -1.5070
 9908SOL    HW232871   7.631   2.432   1.883  0.9307  0.9275 -0.0462
 9909SOL     OW32872   1.358   3.463   5.136  0.5384  0.9141  0.0518
 9909SOL    HW132873   1.321   3.551   5.138  1.1115  1.1552  1.4958
 9909SOL    HW232874   1.363   3.437   5.228  1.4530 -0.1603 -0.2778
 9910SOL     OW32875   1.402   4.296   0.931  0.3117  0.5110 -0.4410
 9910SOL    HW132876   1.487   4.283   0.974 -0.6303 -0.3989  1.2643
 9910SOL    HW232877   1.399   4.390   0.912  1.6890  0.5572 -0.4946
 9911SOL     OW32878   2.954   5.698   7.243  0.1052 -0.0438 -0.2179
 9911SOL    HW132879   2.931   5.674   7.154 -0.2778 -1.1726  0.1617
 9911SOL    HW232880   2.881   5.753   7.273  0.6743  1.1052 -0.8854
 9912SOL     OW32881   6.223   0.119   0.520  0.7416  0.6349  0.0302
 9912SOL    HW132882   6.220   0.198   0.466 -0.7456  0.6334  0.0742
 9912SOL    HW232883   6.163   0.136   0.592  0.3974 -0.5323  0.0467
 9913SOL     OW32884   1.511   0.310   7.005 -0.2734  0.0593 -0.0797
 9913SOL    HW132885   1.585   0.266   7.047  1.2047  1.2372 -1.3375
 9913SOL    HW232886   1.550   0.358   6.932 -2.5571 -0.9645 -2.1251
 9914SOL     OW32887   7.445   0.813   5.906  0.6291  0.0066  0.4133
 9914SOL    HW132888   7.449   0.718   5.908  0.0001 -0.1882 -2.4520
 9914SOL    HW232889   7.362   0.836   5.947  0.6204 -0.6917  0.7921
 9915SOL     OW32890   2.715   1.114   0.801  0.3834  0.1840  0.9115
 9915SOL    HW132891   2.806   1.091   0.816  0.7173  1.6585  1.3520
 9915SOL    HW232892   2.672   1.032   0.780  1.9543 -0.4303 -0.0238
 9916SOL     OW32893   0.646   3.857   7.601 -0.1706 -0.0164 -0.2601
 9916SOL    HW132894   0.684   3.845   7.514  0.4441  1.6673 -0.2563
 9916SOL    HW232895   0.653   3.771   7.643  2.9150 -0.0146 -0.5594
 9917SOL     OW32896   1.861   5.544   4.323 -0.2779  0.5974  0.0031
 9917SOL    HW132897   1.864   5.477   4.392 -1.0412  1.5133  0.9484
 9917SOL    HW232898   1.953   5.557   4.300 -0.0818 -0.4461  0.1255
 9918SOL     OW32899   3.796   1.852   1.470  0.6269 -0.0261  0.2990
 9918SOL    HW132900   3.753   1.826   1.389  1.3649  0.6786 -0.3435
 9918SOL    HW232901   3.846   1.775   1.497 -0.3112 -0.5559  0.5784
 9919SOL     OW32902   0.626   0.381   6.627  1.0477 -0.3423  0.1638
 9919SOL    HW132903   0.709   0.427   6.612  1.1418 -0.0003  1.5195
 9919SOL    HW232904   0.559   0.438   6.590  1.2988  0.1257  0.4285
 9920SOL     OW32905   5.476   0.983   0.829 -0.9278  0.2852 -0.0599
 9920SOL    HW132906   5.415   1.017   0.895 -2.1646 -2.9415  0.6426
 9920SOL    HW232907   5.425   0.921   0.778  1.3183 -1.2449 -0.6189
 9921SOL     OW32908   7.814   6.764   0.854 -0.0680 -0.4012 -0.1261
 9921SOL    HW132909   7.847   6.730   0.771 -0.9355 -0.0403 -0.6234
 9921SOL    HW232910   7.761   6.839   0.830 -0.8815 -0.6967  0.6978
 9922SOL     OW32911   0.621   0.750   7.563 -0.0767 -0.1952  0.3030
 9922SOL    HW132912   0.635   0.812   7.635 -0.8779 -0.1784  0.4495
 9922SOL    HW232913   0.530   0.763   7.537  0.3142  0.1044 -1.0046
 9923SOL     OW32914   1.698   3.876   3.874 -0.4336  0.5779 -0.2101
 9923SOL    HW132915   1.662   3.871   3.962  3.1461  0.1856  1.3964
 9923SOL    HW232916   1.729   3.966   3.866  0.3834  0.2753 -0.5695
 9924SOL     OW32917   4.124   1.381   4.552  0.5611  0.5323 -0.2777
 9924SOL    HW132918   4.130   1.311   4.487  0.3579 -0.3081  0.5916
 9924SOL    HW232919   4.203   1.371   4.605 -0.3060 -0.1457  0.9286
 9925SOL     OW32920   0.784   6.538   6.474 -0.3767  0.4502 -0.4488
 9925SOL    HW132921   0.738   6.490   6.543  0.3771 -0.1707 -0.3611
 9925SOL    HW232922   0.777   6.483   6.397  1.4276 -0.3677 -0.0760
 9926SOL     OW32923   5.652   7.504   8.012 -0.5753 -0.1310 -0.1934
 9926SOL    HW132924   5.734   7.528   7.969  0.3554  2.6650  2.7182
 9926SOL    HW232925   5.583   7.537   7.953  0.4844  0.3757 -1.1826
 9927SOL     OW32926   1.667   1.745   1.341 -0.2781 -0.1798 -0.2120
 9927SOL    HW132927   1.646   1.761   1.433 -0.5801 -0.2179 -0.2739
 9927SOL    HW232928   1.763   1.745   1.338 -0.2624 -0.6147  0.1793
 9928SOL     OW32929   4.585   3.186   2.320 -0.1939  0.9147  0.4591
 9928SOL    HW132930   4.641   3.231   2.257  0.6568 -0.6125  0.0760
 9928SOL    HW232931   4.530   3.129   2.267 -0.7426  0.9549  0.9782
 9929SOL     OW32932   5.639   7.920   1.511  0.3111 -0.4529 -0.2908
 9929SOL    HW132933   5.673   7.861   1.444  0.0362 -1.8577  0.7569
 9929SOL    HW232934   5.717   7.958   1.552  0.4855  0.0453 -1.0611
 9930SOL     OW32935   2.754   4.627   4.756 -0.3713 -0.0612  0.2562
 9930SOL    HW132936   2.781   4.693   4.819 -1.1274  0.6649 -0.1730
 9930SOL    HW232937   2.666   4.602   4.783 -0.6002  0.0638 -0.3574
 9931SOL     OW32938   0.072   5.703   0.877  0.2889 -0.3692 -0.0011
 9931SOL    HW132939  -0.009   5.702   0.929  0.4511  0.8116  0.2970
 9931SOL    HW232940   0.127   5.635   0.918 -0.1894 -0.5369  0.3786
 9932SOL     OW32941   3.955   7.077   1.393 -0.3510 -0.1192  0.2866
 9932SOL    HW132942   3.924   6.998   1.349 -2.7705  1.4547 -1.0960
 9932SOL    HW232943   4.023   7.111   1.336  1.2379 -1.4778  1.2595
 9933SOL     OW32944   4.444   3.891   6.014  0.1291  0.4934 -0.0437
 9933SOL    HW132945   4.391   3.845   5.948 -1.0098  1.4464  0.1836
 9933SOL    HW232946   4.438   3.836   6.092 -0.5915  0.6310  0.0017
 9934SOL     OW32947   2.327   6.491   6.292 -0.0046 -0.2010  0.0094
 9934SOL    HW132948   2.262   6.432   6.254  0.0225  1.0984 -2.2134
 9934SOL    HW232949   2.380   6.435   6.349 -1.4859 -1.7850 -0.0871
 9935SOL     OW32950   7.049   3.241   0.821 -0.2507  0.1713  0.0736
 9935SOL    HW132951   7.143   3.245   0.835 -0.3972  2.1130  0.7333
 9935SOL    HW232952   7.036   3.276   0.733 -0.5308  2.7958  1.0720
 9936SOL     OW32953   6.105   5.223   6.266  0.1200 -0.5257  0.0010
 9936SOL    HW132954   6.082   5.288   6.199  1.8704  0.9655  0.7463
 9936SOL    HW232955   6.118   5.142   6.217  0.0023  0.1856 -1.2708
 9937SOL     OW32956   7.739   2.688   0.796 -0.0748  0.4886  0.2810
 9937SOL    HW132957   7.783   2.623   0.742 -0.7392 -0.0485  0.3661
 9937SOL    HW232958   7.788   2.769   0.783 -0.1037  0.3128 -0.9637
 9938SOL     OW32959   1.449   7.352   5.493  0.2134 -0.3680 -0.2972
 9938SOL    HW132960   1.381   7.300   5.451 -0.7060  1.8143 -1.6858
 9938SOL    HW232961   1.522   7.292   5.505 -1.3951 -2.4010 -0.1321
 9939SOL     OW32962   5.967   7.638   6.447 -0.3024  0.0810  0.1439
 9939SOL    HW132963   6.053   7.667   6.419 -0.8011  0.4445 -1.0817
 9939SOL    HW232964   5.980   7.604   6.535  1.4072 -1.4818 -0.6652
 9940SOL     OW32965   0.459   3.623   7.778 -0.1747  0.3098 -0.1217
 9940SOL    HW132966   0.483   3.663   7.862  0.9060 -1.2505  0.3492
 9940SOL    HW232967   0.543   3.609   7.734 -0.6074 -0.4524 -0.7180
 9941SOL     OW32968   5.944   5.281   5.333 -0.3285  0.0399 -0.3140
 9941SOL    HW132969   5.928   5.195   5.372  0.8017 -0.9491 -1.8746
 9941SOL    HW232970   6.009   5.264   5.265  1.8385  2.5529  0.9529
 9942SOL     OW32971   2.456   3.260   6.394 -0.4225 -0.0970 -0.7766
 9942SOL    HW132972   2.478   3.347   6.363  0.8917 -0.0861  0.1105
 9942SOL    HW232973   2.530   3.205   6.368 -0.0288 -0.4083  0.8748
 9943SOL     OW32974   0.157   0.998   3.578 -0.1140 -0.0925  0.1682
 9943SOL    HW132975   0.099   1.010   3.652  0.0326 -1.2000  0.4828
 9943SOL    HW232976   0.201   0.914   3.595  1.9519  0.9366  0.1943
 9944SOL     OW32977   0.219   0.429   2.297  0.2546 -0.4856  0.3116
 9944SOL    HW132978   0.229   0.464   2.385 -2.9164 -0.5326  0.8236
 9944SOL    HW232979   0.155   0.358   2.306 -1.1462  0.3242 -2.1538
 9945SOL     OW32980   7.048   0.392   0.994  0.1910  0.1323 -0.0864
 9945SOL    HW132981   7.106   0.450   0.945 -0.8981  0.3014 -1.2140
 9945SOL    HW232982   7.027   0.322   0.933 -0.7217  0.0288  0.3342
 9946SOL     OW32983   5.717   7.678   4.368  0.5780  0.1087  0.5789
 9946SOL    HW132984   5.728   7.672   4.273  0.3447 -1.3110  0.6208
 9946SOL    HW232985   5.646   7.741   4.380 -1.4297 -1.8043 -0.3836
 9947SOL     OW32986   4.727   1.667   2.189  0.7124 -0.0205  0.4530
 9947SOL    HW132987   4.752   1.612   2.263  2.7933  0.3364  0.0775
 9947SOL    HW232988   4.781   1.745   2.198 -1.5985  1.6939  0.5260
 9948SOL     OW32989   7.266   1.007   6.355  0.6442  0.0612 -0.2034
 9948SOL    HW132990   7.333   1.025   6.290  1.3029  0.9336  0.6745
 9948SOL    HW232991   7.293   0.925   6.396  1.8665  0.9952  0.9467
 9949SOL     OW32992   7.152   1.990   7.824  0.0110 -0.0863 -0.1415
 9949SOL    HW132993   7.107   2.052   7.767  1.0635  1.0389  0.1992
 9949SOL    HW232994   7.083   1.953   7.879 -0.4269  2.7035  1.4147
 9950SOL     OW32995   6.936   4.404   2.936 -0.4887  0.4768  0.6257
 9950SOL    HW132996   6.999   4.466   2.901 -2.4032  1.5125 -1.1686
 9950SOL    HW232997   6.917   4.345   2.863 -2.3670  0.8653  0.7509
 9951SOL     OW32998   2.989   7.249   6.952  0.4014  0.3630  0.0588
 9951SOL    HW132999   3.018   7.190   6.883 -0.7239 -0.4530  0.2673
 9951SOL    HW233000   2.899   7.271   6.930  0.1629  0.4306  1.0269
 9952SOL     OW33001   2.662   6.833   1.952  0.1577 -0.3377 -0.5167
 9952SOL    HW133002   2.598   6.763   1.967  1.0497 -1.1294 -0.3210
 9952SOL    HW233003   2.741   6.787   1.923  0.3608  0.6962 -1.6662
 9953SOL     OW33004   4.928   4.588   5.697  0.5483  0.0082  0.4888
 9953SOL    HW133005   4.983   4.665   5.704 -0.4308  0.7125  0.6012
 9953SOL    HW233006   4.863   4.611   5.631 -0.2648 -0.3918  1.1323
 9954SOL     OW33007   4.466   7.567   0.793 -0.4224  0.1813 -0.2297
 9954SOL    HW133008   4.433   7.522   0.715  0.7535  0.1894 -0.7553
 9954SOL    HW233009   4.561   7.554   0.790 -0.4239 -0.6202  1.7062
 9955SOL     OW33010   3.678   4.498   0.725 -0.3629  0.7614  0.0225
 9955SOL    HW133011   3.692   4.591   0.745 -0.1059  0.8816 -0.7031
 9955SOL    HW233012   3.731   4.482   0.647 -0.1668 -0.0737  0.3190
 9956SOL     OW33013   5.858   4.428   4.910 -0.2198  0.0375 -0.1931
 9956SOL    HW133014   5.771   4.423   4.872 -1.0336  0.5913  1.4834
 9956SOL    HW233015   5.854   4.371   4.987  0.7437  0.4608  0.1923
 9957SOL     OW33016   7.532   1.531   5.638 -0.1095  0.3340  0.1613
 9957SOL    HW133017   7.610   1.538   5.584  0.2080 -0.2851  0.5285
 9957SOL    HW233018   7.462   1.568   5.584  0.5879  1.7982  0.1925
 9958SOL     OW33019   5.710   7.695   0.648  0.0190 -0.3514  0.2775
 9958SOL    HW133020   5.618   7.722   0.647  0.1621  0.1367 -0.9635
 9958SOL    HW233021   5.738   7.711   0.738  0.5543  5.2835 -0.5461
 9959SOL     OW33022   3.867   5.408   7.371  0.1792  0.0253 -0.6489
 9959SOL    HW133023   3.791   5.467   7.374 -0.6478 -1.0223  0.0931
 9959SOL    HW233024   3.880   5.383   7.462 -0.4944 -2.1323 -1.0783
 9960SOL     OW33025   1.203   7.428   2.717  0.0433 -0.2350  0.2726
 9960SOL    HW133026   1.191   7.515   2.679 -0.4916 -1.2266 -2.0042
 9960SOL    HW233027   1.115   7.393   2.724  0.3152 -0.9139  0.3274
 9961SOL     OW33028   0.456   2.602   7.287  0.1085 -0.1023  0.3660
 9961SOL    HW133029   0.464   2.542   7.360 -0.7838  0.3993  0.8927
 9961SOL    HW233030   0.368   2.587   7.252  0.3423  0.0098 -0.2967
 9962SOL     OW33031   4.953   7.245   7.117 -0.3005  0.4932  0.0491
 9962SOL    HW133032   4.900   7.322   7.139 -0.0982  1.1198 -1.5322
 9962SOL    HW233033   4.946   7.189   7.194 -1.8315  1.3380  0.5764
 9963SOL     OW33034   0.437   4.091   5.856  0.4028  0.4504 -0.4789
 9963SOL    HW133035   0.384   4.122   5.930 -0.8896 -0.7733 -0.8559
 9963SOL    HW233036   0.449   3.997   5.873  2.4212  0.6531 -0.4620
 9964SOL     OW33037   2.092   7.627   1.614  0.6145  0.1700  0.2922
 9964SOL    HW133038   2.042   7.705   1.639  0.0083 -0.3212  0.6568
 9964SOL    HW233039   2.105   7.637   1.519  0.0388  0.4343  0.2357
 9965SOL     OW33040   6.427   7.062   0.754  0.2531  0.0475  0.2544
 9965SOL    HW133041   6.436   7.105   0.669 -0.7203 -2.4284 -1.2271
 9965SOL    HW233042   6.333   7.046   0.762  0.6161 -2.3205  0.3598
 9966SOL     OW33043   6.614   7.521   6.274  0.1802 -0.0288 -0.0324
 9966SOL    HW133044   6.542   7.499   6.215  0.6906 -1.9790 -0.0001
 9966SOL    HW233045   6.602   7.613   6.294 -1.9211 -0.1511 -0.5619
 9967SOL     OW33046   3.198   1.843   2.832  0.3193 -0.3359  0.0555
 9967SOL    HW133047   3.151   1.835   2.915  1.2465  1.1780  0.7593
 9967SOL    HW233048   3.158   1.919   2.789  1.0098 -0.0486 -0.0885
 9968SOL     OW33049   6.107   3.561   5.022  0.4592  0.0090  0.0582
 9968SOL    HW133050   6.090   3.653   5.004 -0.3025 -0.2531 -0.5975
 9968SOL    HW233051   6.132   3.523   4.938  2.7772  0.0103  0.6654
 9969SOL     OW33052   0.452   4.599   6.460  0.3920  0.0427  0.1547
 9969SOL    HW133053   0.546   4.611   6.464  0.5895 -0.5992 -1.5078
 9969SOL    HW233054   0.416   4.688   6.457  0.8843  0.2964  1.4351
 9970SOL     OW33055   3.168   7.008   0.392 -0.2536  0.1686 -0.2998
 9970SOL    HW133056   3.204   7.056   0.467  1.5235  0.5875 -1.3581
 9970SOL    HW233057   3.136   6.926   0.430  0.2241  0.5434  0.9794
 9971SOL     OW33058   6.599   1.973   7.211  0.5192 -0.4411  0.1873
 9971SOL    HW133059   6.541   1.967   7.287  0.4817  0.4296  0.2339
 9971SOL    HW233060   6.686   1.959   7.247  0.5008 -0.0415  0.4002
 9972SOL     OW33061   0.669   6.446   5.286  0.0292  0.3985  0.5004
 9972SOL    HW133062   0.762   6.468   5.286  0.0984  0.1656 -0.5954
 9972SOL    HW233063   0.628   6.513   5.232 -0.4862  0.6466  1.1854
 9973SOL     OW33064   2.075   4.243   6.556  0.3389 -0.5229  0.5697
 9973SOL    HW133065   2.145   4.215   6.496 -0.6067 -2.1688  0.1805
 9973SOL    HW233066   2.073   4.176   6.624 -1.3138 -0.9300  0.1770
 9974SOL     OW33067   5.134   2.114   4.544 -0.1008 -0.1403  0.2583
 9974SOL    HW133068   5.228   2.111   4.565 -0.3624 -1.0296  1.3901
 9974SOL    HW233069   5.108   2.022   4.541 -1.1486  0.1280  0.9021
 9975SOL     OW33070   7.055   6.528   6.913  0.2561  0.5106  0.1658
 9975SOL    HW133071   6.986   6.590   6.938 -0.1561  0.4338 -0.7748
 9975SOL    HW233072   7.133   6.559   6.960  0.0303  1.6936 -0.2178
 9976SOL     OW33073   4.878   7.474   6.811  0.0965  0.1908 -0.0000
 9976SOL    HW133074   4.896   7.543   6.875  0.7789  1.0079 -1.0408
 9976SOL    HW233075   4.783   7.476   6.800  0.2076  1.9505 -1.0373
 9977SOL     OW33076   3.857   3.162   3.551 -0.0957 -0.1788 -0.8447
 9977SOL    HW133077   3.935   3.213   3.573 -0.4354  1.7080 -3.4971
 9977SOL    HW233078   3.784   3.223   3.565 -0.8297 -0.9494 -1.1954
 9978SOL     OW33079   3.774   2.768   1.657  0.1147  0.6624  0.4707
 9978SOL    HW133080   3.746   2.685   1.696  3.1095 -1.4384 -1.3914
 9978SOL    HW233081   3.701   2.794   1.600 -0.3974 -1.4493  0.0774
 9979SOL     OW33082   3.838   5.181   2.748  0.4098  0.5662 -0.0535
 9979SOL    HW133083   3.800   5.096   2.723  0.2809  0.5383  0.2263
 9979SOL    HW233084   3.891   5.161   2.825 -1.0522  1.0336  1.1256
 9980SOL     OW33085   3.117   6.948   3.530 -0.0353 -0.3196 -0.8061
 9980SOL    HW133086   3.032   6.946   3.485 -0.3800  2.7563 -0.5212
 9980SOL    HW233087   3.166   7.017   3.486  2.7508 -2.6150 -1.5327
 9981SOL     OW33088   1.975   5.181   2.915  0.1797 -0.2961  0.4945
 9981SOL    HW133089   1.992   5.272   2.891 -1.0748 -0.3178 -0.6056
 9981SOL    HW233090   2.060   5.146   2.939  0.8759  0.8453 -0.2240
 9982SOL     OW33091   5.241   3.662   3.055  0.1062 -0.0590  0.0039
 9982SOL    HW133092   5.277   3.574   3.050  0.8245  0.2581 -0.6437
 9982SOL    HW233093   5.163   3.654   3.111  1.0042 -0.8143  1.1890
 9983SOL     OW33094   2.741   0.130   4.087  0.3550  0.2809 -0.3414
 9983SOL    HW133095   2.655   0.124   4.046 -0.2270 -1.0108  0.9719
 9983SOL    HW233096   2.728   0.192   4.159  0.4775 -0.0325 -0.0489
 9984SOL     OW33097   2.858   6.617   2.652 -0.1650 -0.0097  0.1996
 9984SOL    HW133098   2.900   6.561   2.716  0.8176  0.2172 -0.2216
 9984SOL    HW233099   2.783   6.566   2.620  0.2826 -0.7755  0.3544
 9985SOL     OW33100   7.591   0.639   3.494 -0.3234 -0.0092 -0.9442
 9985SOL    HW133101   7.666   0.673   3.542 -0.7654 -0.1994 -0.1121
 9985SOL    HW233102   7.623   0.559   3.452 -0.5167 -1.0924  0.8685
 9986SOL     OW33103   3.381   4.892   5.800 -0.2131 -0.0848  0.2981
 9986SOL    HW133104   3.386   4.812   5.748  0.0278 -0.1062  0.3525
 9986SOL    HW233105   3.305   4.879   5.857  0.3416 -0.6631  0.9395
 9987SOL     OW33106   3.171   2.818   4.969  0.6678  0.6063 -0.2478
 9987SOL    HW133107   3.261   2.785   4.965  1.0009  1.5599 -0.9833
 9987SOL    HW233108   3.131   2.787   4.889  0.3854  0.3159  0.0052
 9988SOL     OW33109   7.175   3.714   6.084 -0.2315 -0.7497 -0.5318
 9988SOL    HW133110   7.169   3.785   6.020 -3.7374 -0.2298  0.1984
 9988SOL    HW233111   7.153   3.636   6.034  1.9355 -1.1580 -0.9498
 9989SOL     OW33112   1.669   3.675   1.982  0.1069 -0.4284 -0.2170
 9989SOL    HW133113   1.625   3.592   2.002 -0.4919 -0.0979 -0.1487
 9989SOL    HW233114   1.648   3.732   2.056 -0.5634  0.1970 -0.8751
 9990SOL     OW33115   4.752   3.258   7.908 -0.1377  0.0219 -0.4137
 9990SOL    HW133116   4.683   3.213   7.859 -0.8446  1.0940 -0.4436
 9990SOL    HW233117   4.832   3.238   7.860 -0.4186 -1.1945 -0.4157
 9991SOL     OW33118   0.545   2.617   5.046 -0.0924  0.3525  0.3262
 9991SOL    HW133119   0.537   2.553   4.975 -0.4632  1.1073 -0.3161
 9991SOL    HW233120   0.640   2.631   5.055 -0.0350  0.0951  0.1272
 9992SOL     OW33121   4.821   5.075   0.031 -0.4832  0.0865  0.3095
 9992SOL    HW133122   4.801   5.162  -0.004  0.5169  0.3173  0.2665
 9992SOL    HW233123   4.913   5.081   0.058 -0.7123 -0.6350  1.3049
 9993SOL     OW33124   1.354   1.463   7.621 -0.1500 -0.1466 -0.0009
 9993SOL    HW133125   1.300   1.458   7.699 -0.6163  0.9248 -0.2391
 9993SOL    HW233126   1.437   1.501   7.650 -1.0042  2.1151 -0.3170
 9994SOL     OW33127   6.343   5.927   3.158 -0.0555  0.3809 -0.3075
 9994SOL    HW133128   6.257   5.952   3.191 -0.2961  1.9745 -1.9721
 9994SOL    HW233129   6.338   5.832   3.145 -2.0912  0.6390 -1.7613
 9995SOL     OW33130   0.657   2.062   6.064  0.2710  0.0049  0.4464
 9995SOL    HW133131   0.640   2.066   5.970  0.2760  1.5692  0.4884
 9995SOL    HW233132   0.715   2.136   6.082 -0.1415  0.0428  1.7647
 9996SOL     OW33133   0.377   5.520   5.143  0.2025 -0.0434  0.0181
 9996SOL    HW133134   0.383   5.473   5.225 -0.5745  1.5173  1.0257
 9996SOL    HW233135   0.467   5.522   5.109  0.1622 -2.7715 -0.4418
 9997SOL     OW33136   2.392   6.803   0.119 -0.9618 -0.0315 -0.7565
 9997SOL    HW133137   2.397   6.880   0.063 -0.3105 -1.6742 -3.1132
 9997SOL    HW233138   2.307   6.811   0.163 -1.5163  1.3354 -1.9952
 9998SOL     OW33139   3.644   0.705   4.187  0.3608  0.0593  0.1415
 9998SOL    HW133140   3.713   0.685   4.251  2.0352  0.8123 -1.3713
 9998SOL    HW233141   3.591   0.625   4.184  1.2233 -0.5817  1.2611
 9999SOL     OW33142   1.780   4.928   2.833 -0.0965 -0.0971  0.0559
 9999SOL    HW133143   1.718   5.001   2.843 -1.1961 -0.8626 -0.8082
 9999SOL    HW233144   1.728   4.850   2.850  0.3175 -0.8371 -1.7796
10000SOL     OW33145   4.485   7.901   1.210 -0.8200 -0.2731  0.2358
10000SOL    HW133146   4.403   7.854   1.219 -1.6213  0.9519 -0.4397
10000SOL    HW233147   4.529   7.859   1.135 -1.2769 -0.2964 -0.0194
10001SOL     OW33148   7.868   7.325   0.251 -0.3178  0.0939 -0.6637
10001SOL    HW133149   7.807   7.335   0.325  1.9080  1.5310  1.1196
10001SOL    HW233150   7.882   7.231   0.244  0.9013 -0.0458  2.1622
10002SOL     OW33151   7.133   0.238   4.483 -0.7499 -0.5427 -0.4134
10002SOL    HW133152   7.048   0.194   4.490 -1.3205  0.7248  1.3920
10002SOL    HW233153   7.194   0.180   4.530 -1.4237  0.3240  1.6261
10003SOL     OW33154   7.804   7.517   2.017 -0.3123  0.0449  0.2220
10003SOL    HW133155   7.867   7.588   2.022  1.2528 -1.1960 -0.8653
10003SOL    HW233156   7.842   7.448   2.072  0.2725 -1.3864 -1.8623
10004SOL     OW33157   7.212   7.606   4.195 -0.0915 -0.1554  0.2801
10004SOL    HW133158   7.295   7.615   4.148 -0.0137 -0.9796  0.2456
10004SOL    HW233159   7.229   7.539   4.260 -0.9870 -0.9970 -0.3257
10005SOL     OW33160   4.244   1.421   4.135  0.5229  0.4655  0.2214
10005SOL    HW133161   4.322   1.445   4.185  0.5155  0.2269  0.3514
10005SOL    HW233162   4.195   1.502   4.125 -0.0750  0.3062  1.6465
10006SOL     OW33163   5.259   0.446   1.740 -0.6922  0.1860  0.4578
10006SOL    HW133164   5.192   0.407   1.683  0.2256  0.1595 -0.6455
10006SOL    HW233165   5.220   0.528   1.770 -1.0122  0.4629 -0.6583
10007SOL     OW33166   2.353   7.686   1.354  0.6959  0.4744  0.5557
10007SOL    HW133167   2.355   7.590   1.352  1.3257  0.4766  0.8090
10007SOL    HW233168   2.260   7.708   1.353  0.4923 -0.1811  2.3349
10008SOL     OW33169   2.931   4.521   3.373  0.2256 -0.2678 -0.6650
10008SOL    HW133170   2.896   4.601   3.414  0.2047  0.0749 -1.3403
10008SOL    HW233171   2.877   4.451   3.407  1.7340 -0.3458  1.8708
10009SOL     OW33172   3.791   2.003   5.025 -0.0632  0.2290 -0.0906
10009SOL    HW133173   3.802   2.053   5.106 -1.1280  0.3235  0.0123
10009SOL    HW233174   3.874   2.014   4.979  0.3180  0.7232  0.6823
10010SOL     OW33175   6.670   0.384   7.772  0.7205  0.2027  0.4794
10010SOL    HW133176   6.657   0.301   7.816  2.0771 -0.3101 -0.0507
10010SOL    HW233177   6.723   0.363   7.695 -0.5440  1.2540 -0.7476
10011SOL     OW33178   5.805   2.918   6.918  0.9818 -0.2242 -0.2871
10011SOL    HW133179   5.758   2.968   6.985 -0.4188 -0.4147 -1.0862
10011SOL    HW233180   5.893   2.906   6.954  0.7396  1.0425  0.8071
10012SOL     OW33181   1.916   4.284   0.532 -0.1759  0.7308  0.2292
10012SOL    HW133182   1.858   4.355   0.505 -0.0271  0.8443  0.2059
10012SOL    HW233183   1.922   4.227   0.455 -0.4108  0.6161  0.2956
10013SOL     OW33184   4.546   1.188   1.452 -0.0290  0.2940  0.5334
10013SOL    HW133185   4.462   1.191   1.405  0.7994 -1.2534 -1.1275
10013SOL    HW233186   4.563   1.095   1.467  1.2400  0.5988  1.1503
10014SOL     OW33187   7.793   7.481   5.083 -0.2996 -0.3380 -0.2909
10014SOL    HW133188   7.812   7.563   5.039  2.0481  0.1162  1.4103
10014SOL    HW233189   7.852   7.417   5.044  1.4271 -0.0501  1.6736
10015SOL     OW33190   6.339   4.527   6.670  0.3829  0.0011 -0.8235
10015SOL    HW133191   6.277   4.568   6.609 -1.5061 -0.1955  0.8672
10015SOL    HW233192   6.307   4.552   6.757  0.5874 -2.9589  0.2145
10016SOL     OW33193   2.217   0.364   5.996  0.1153 -0.1898  0.2992
10016SOL    HW133194   2.301   0.405   6.016 -0.2136  0.1728  0.9868
10016SOL    HW233195   2.206   0.298   6.065 -1.3618  1.5456  1.8717
10017SOL     OW33196   7.842   2.782   7.790 -0.5613 -0.3367  0.2665
10017SOL    HW133197   7.887   2.825   7.718  0.6063 -0.0465  1.1425
10017SOL    HW233198   7.799   2.853   7.837 -0.2500 -0.3543  0.5869
10018SOL     OW33199   6.761   8.014   0.349 -0.1717 -0.0949  0.4235
10018SOL    HW133200   6.843   8.064   0.356 -1.0829  1.6900 -0.6981
10018SOL    HW233201   6.733   8.001   0.439  0.1595  1.4103  0.7691
10019SOL     OW33202   5.554   3.968   7.179 -0.3502  0.0114 -0.1621
10019SOL    HW133203   5.609   3.909   7.230 -0.6606 -0.5136 -0.4277
10019SOL    HW233204   5.615   4.035   7.147  0.4382 -1.2805 -1.5501
10020SOL     OW33205   5.466   3.076   4.227 -0.4409 -0.3333  0.5400
10020SOL    HW133206   5.421   3.010   4.280 -1.2908 -0.6234 -0.5082
10020SOL    HW233207   5.405   3.149   4.222 -1.3189 -1.1475 -1.7824
10021SOL     OW33208   4.112   7.491   6.114  0.1175  0.0803 -0.7772
10021SOL    HW133209   4.113   7.586   6.122  1.1391  0.1444 -1.4718
10021SOL    HW233210   4.039   7.463   6.169  0.7139  1.1557  0.6441
10022SOL     OW33211   0.319   3.783   5.657  0.3844  0.0569 -0.4924
10022SOL    HW133212   0.292   3.833   5.733 -1.2569 -1.5526  0.0523
10022SOL    HW233213   0.333   3.694   5.689  1.3960 -0.2887 -1.7601
10023SOL     OW33214   1.466   5.149   2.730  0.7099 -0.2726 -0.4796
10023SOL    HW133215   1.531   5.122   2.795  1.4394 -0.2811 -1.1886
10023SOL    HW233216   1.405   5.076   2.726 -0.3411  0.4331  1.4127
10024SOL     OW33217   0.069   2.846   5.974  0.6493 -0.3830  0.5361
10024SOL    HW133218   0.158   2.815   5.994  0.3791 -1.2762  0.3702
10024SOL    HW233219   0.054   2.820   5.883  0.7747  1.0989  0.0714
10025SOL     OW33220   7.713   1.211   2.047 -0.2463  0.0298  0.1541
10025SOL    HW133221   7.746   1.248   2.129  0.4212  0.5121 -0.3217
10025SOL    HW233222   7.766   1.252   1.979 -0.1139 -1.1217 -0.4546
10026SOL     OW33223   7.056   2.944   2.559 -0.0612 -0.0043  0.6196
10026SOL    HW133224   7.058   3.037   2.582  1.9740  0.1966 -0.1508
10026SOL    HW233225   7.132   2.932   2.502 -0.0040 -2.2523  1.0864
10027SOL     OW33226   3.950   6.945   7.246  0.3704 -0.3386  1.0681
10027SOL    HW133227   3.972   6.855   7.223 -1.5453 -0.5686 -0.1041
10027SOL    HW233228   3.918   6.940   7.337  0.0547 -0.8912  0.9293
10028SOL     OW33229   0.820   2.608   3.974 -0.1029  0.0544  0.2666
10028SOL    HW133230   0.782   2.520   3.974  1.3824 -0.6447 -1.2693
10028SOL    HW233231   0.851   2.621   4.063 -0.3105 -0.9956  0.5059
10029SOL     OW33232   1.482   3.451   7.454  0.1182 -0.0962  0.3719
10029SOL    HW133233   1.526   3.532   7.478  0.2881 -0.1379  0.2096
10029SOL    HW233234   1.434   3.472   7.374  0.2832 -0.1932  0.2457
10030SOL     OW33235   5.073   1.083   3.763 -0.6474 -0.1877 -0.2751
10030SOL    HW133236   4.984   1.048   3.757 -0.2139 -1.3805  0.0540
10030SOL    HW233237   5.117   1.026   3.826  1.3165 -1.7031 -2.8250
10031SOL     OW33238   5.852   1.295   6.947  0.7790  0.1259 -0.4183
10031SOL    HW133239   5.899   1.223   6.904  0.8370  0.0578 -0.2428
10031SOL    HW233240   5.904   1.373   6.928  0.5969  0.1592 -0.7982
10032SOL     OW33241   6.085   1.660   3.984 -0.4812 -0.6601  1.0553
10032SOL    HW133242   6.043   1.594   3.929 -0.3822 -1.6330  2.1061
10032SOL    HW233243   6.038   1.655   4.067 -1.9457  2.1648  0.5054
10033SOL     OW33244   7.882   5.092   6.285 -0.3034  0.0170  0.5731
10033SOL    HW133245   7.966   5.074   6.328 -0.5891 -0.0667  1.1059
10033SOL    HW233246   7.902   5.087   6.191  0.0149 -1.2692  0.6922
10034SOL     OW33247   2.715   2.935   6.110  0.1856 -0.0533 -0.2551
10034SOL    HW133248   2.706   2.890   6.026  0.4938 -0.8173  0.1066
10034SOL    HW233249   2.809   2.939   6.125  0.3613  2.9191 -1.4050
10035SOL     OW33250   0.659   3.160   6.200 -0.0249  0.4991 -0.0196
10035SOL    HW133251   0.708   3.214   6.138  1.4866  0.3548  1.0051
10035SOL    HW233252   0.600   3.222   6.244  0.4370  0.9925 -0.0870
10036SOL     OW33253   1.079   1.321   0.032  0.6148 -0.3733 -0.0377
10036SOL    HW133254   1.087   1.415   0.042 -0.7485 -0.3239  0.7816
10036SOL    HW233255   1.169   1.289   0.025  1.1243  0.8730  0.6831
10037SOL     OW33256   1.290   2.292   3.778 -0.4600 -0.2380 -0.5248
10037SOL    HW133257   1.275   2.209   3.823  0.8294  0.6440  1.7017
10037SOL    HW233258   1.240   2.285   3.697 -1.4431 -2.6480  0.2055
10038SOL     OW33259   1.943   2.064   1.331  0.1446 -0.0076 -0.2831
10038SOL    HW133260   2.034   2.077   1.305  1.0539 -2.9249  1.0766
10038SOL    HW233261   1.920   1.978   1.295 -2.2963  0.8732 -1.0393
10039SOL     OW33262   3.158   2.988   1.304 -0.0863  0.0510  0.1086
10039SOL    HW133263   3.206   2.925   1.357 -0.1443  0.4266  0.6192
10039SOL    HW233264   3.206   2.991   1.221 -0.5925 -1.3100 -0.2610
10040SOL     OW33265   8.078   1.849   5.961  0.8106 -0.7767 -0.5866
10040SOL    HW133266   8.079   1.755   5.944  0.0465 -0.8270 -0.3909
10040SOL    HW233267   8.122   1.887   5.885  0.7952 -1.2642 -0.8471
10041SOL     OW33268   2.509   7.984   7.507  0.2885  0.2235  0.4399
10041SOL    HW133269   2.543   7.897   7.530 -0.1390  0.4762  2.2441
10041SOL    HW233270   2.544   8.001   7.420 -0.0366 -1.9678 -0.1996
10042SOL     OW33271   2.095   3.396   8.059 -0.0089  0.2906 -0.0915
10042SOL    HW133272   2.146   3.321   8.026 -1.7342 -2.0047  2.0214
10042SOL    HW233273   2.050   3.430   7.982  0.2569 -1.3639 -1.0325
10043SOL     OW33274   1.611   4.921   7.200 -0.1321 -0.3002  0.0721
10043SOL    HW133275   1.595   4.834   7.163 -0.4370  0.2041 -1.0086
10043SOL    HW233276   1.526   4.964   7.198 -0.5928 -0.8183  3.0220
10044SOL     OW33277   7.183   2.268   7.912 -0.0596  0.0329 -0.4809
10044SOL    HW133278   7.189   2.344   7.854  0.2923  2.9737  2.9915
10044SOL    HW233279   7.089   2.250   7.918 -0.2762  1.0792 -0.4246
10045SOL     OW33280   4.235   5.664   7.111  0.2141 -0.4952  0.0599
10045SOL    HW133281   4.177   5.644   7.185 -1.1326  0.6351 -0.6444
10045SOL    HW233282   4.229   5.588   7.054  0.9409 -1.1997  0.8901
10046SOL     OW33283   3.270   1.576   6.814  0.0285 -0.1535 -0.4338
10046SOL    HW133284   3.299   1.487   6.795 -1.8331 -0.7434 -0.7039
10046SOL    HW233285   3.219   1.601   6.737 -2.2822 -0.1431  1.0326
10047SOL     OW33286   7.729   1.783   7.934 -0.0567 -0.2993 -0.4808
10047SOL    HW133287   7.749   1.801   8.025  0.1355  0.8715 -0.7358
10047SOL    HW233288   7.767   1.697   7.917 -1.2699 -1.1390  0.8938
10048SOL     OW33289   1.606   5.433   4.492  0.2835  0.8066  0.3948
10048SOL    HW133290   1.596   5.390   4.407 -2.3494  1.4006  0.3317
10048SOL    HW233291   1.634   5.364   4.551  1.1589  0.1721 -0.7133
10049SOL     OW33292   0.618   5.623   5.842 -0.4411 -0.1910 -0.0379
10049SOL    HW133293   0.624   5.660   5.930 -0.8262  1.0544 -0.5020
10049SOL    HW233294   0.651   5.693   5.785 -1.3660 -0.4910 -0.9759
10050SOL     OW33295   7.382   3.556   8.070 -0.3675 -0.1604  0.2901
10050SOL    HW133296   7.370   3.462   8.072 -2.0752  0.0076 -0.1913
10050SOL    HW233297   7.328   3.589   8.142 -1.7088  0.5743 -0.9919
10051SOL     OW33298   0.088   6.001   0.399  0.1141  0.0474  0.0478
10051SOL    HW133299   0.125   6.004   0.487 -1.6577 -0.2384  0.8401
10051SOL    HW233300   0.125   5.922   0.359  0.6156 -0.0383  0.6744
10052SOL     OW33301   7.537   5.365   4.430 -0.4113 -0.2075  0.0165
10052SOL    HW133302   7.531   5.453   4.468  0.9917  0.6025 -1.5547
10052SOL    HW233303   7.617   5.328   4.468  1.3874  0.8616 -2.4759
10053SOL     OW33304   0.810   1.803   5.934  0.1105  0.3794  0.4424
10053SOL    HW133305   0.894   1.821   5.977 -0.1654 -0.1311  1.2110
10053SOL    HW233306   0.787   1.886   5.892  1.7139  0.1240 -1.0482
10054SOL     OW33307   5.382   6.447   6.769  0.2338  0.2409  0.2862
10054SOL    HW133308   5.361   6.371   6.823  0.9926 -0.1232  0.0674
10054SOL    HW233309   5.306   6.505   6.780 -0.5741 -0.7375  0.0876
10055SOL     OW33310   0.255   3.408   4.251 -0.1726 -0.1222  0.1259
10055SOL    HW133311   0.292   3.342   4.192 -2.2594  0.4377 -1.9715
10055SOL    HW233312   0.311   3.485   4.238  0.5049 -0.5711  0.3342
10056SOL     OW33313   0.008   1.439   7.782  0.2219  0.0759  0.0346
10056SOL    HW133314   0.060   1.507   7.738 -0.8868  0.7349 -0.3015
10056SOL    HW233315   0.065   1.362   7.783  1.0605  0.6666 -0.6562
10057SOL     OW33316   5.716   6.723   0.255  0.3802 -0.5575 -0.1887
10057SOL    HW133317   5.644   6.684   0.207  0.3971  0.3197 -0.9524
10057SOL    HW233318   5.726   6.810   0.217  1.4251 -0.4300  0.3390
10058SOL     OW33319   2.269   2.714   2.160  0.4487  0.9072 -0.3917
10058SOL    HW133320   2.207   2.641   2.161  2.0023 -0.5070  1.8034
10058SOL    HW233321   2.334   2.689   2.095  0.0316  1.2345 -0.9453
10059SOL     OW33322   0.693   4.362   1.731  0.7894 -0.0350  0.5328
10059SOL    HW133323   0.676   4.430   1.797  1.5029  1.1147 -0.4267
10059SOL    HW233324   0.743   4.407   1.663  1.2911 -1.5392 -0.1326
10060SOL     OW33325   6.607   4.686   2.771 -0.3656 -0.8021 -0.3416
10060SOL    HW133326   6.606   4.590   2.769 -1.1241 -0.9479  2.4863
10060SOL    HW233327   6.699   4.710   2.758 -0.2634 -1.8307 -1.7489
10061SOL     OW33328   4.814   4.183   3.868  0.6969 -0.0818 -0.2853
10061SOL    HW133329   4.777   4.131   3.796  1.3091  1.4319 -1.7563
10061SOL    HW233330   4.867   4.120   3.918  2.6926 -0.6517 -2.9009
10062SOL     OW33331   3.585   6.262   6.786 -0.5312 -0.3540 -0.4665
10062SOL    HW133332   3.530   6.340   6.793  1.4045  1.0534  0.2654
10062SOL    HW233333   3.582   6.223   6.873 -0.4462 -0.3262 -0.4508
10063SOL     OW33334   8.081   7.678   2.530  0.5745  0.3101  0.2032
10063SOL    HW133335   8.175   7.663   2.529  0.4835 -0.2825 -0.3230
10063SOL    HW233336   8.071   7.771   2.511  1.0749  0.5385  1.0111
10064SOL     OW33337   0.959   1.817   7.014  0.3551 -0.2020 -0.2237
10064SOL    HW133338   0.963   1.808   6.919  1.1285 -0.9178 -0.1331
10064SOL    HW233339   0.936   1.729   7.045 -0.2270  0.1114  0.2299
10065SOL     OW33340   2.724   0.391   5.149 -0.3009  0.2916 -0.1233
10065SOL    HW133341   2.665   0.466   5.136 -0.5366  0.1988  0.4165
10065SOL    HW233342   2.722   0.374   5.243  1.8280  1.3114  0.1899
10066SOL     OW33343   0.521   5.877   4.731 -0.2200 -0.6797 -0.5342
10066SOL    HW133344   0.532   5.972   4.730 -3.1086 -0.2436 -0.1765
10066SOL    HW233345   0.556   5.850   4.815  0.1205  0.1376 -0.4004
10067SOL     OW33346   7.066   7.598   1.789  0.0841  0.2973 -0.4745
10067SOL    HW133347   6.993   7.536   1.792  1.4768 -1.3976  0.5667
10067SOL    HW233348   7.028   7.678   1.752 -1.5751 -1.4672 -2.9208
10068SOL     OW33349   3.874   2.395   5.460 -0.7000 -0.3599  0.2908
10068SOL    HW133350   3.904   2.471   5.410 -0.9946 -0.4273  0.0105
10068SOL    HW233351   3.811   2.352   5.403 -2.0716  0.3178  1.2194
10069SOL     OW33352   0.400   4.810   3.859  0.2510  0.3068 -0.0381
10069SOL    HW133353   0.479   4.793   3.809  1.5129  3.1820  0.7650
10069SOL    HW233354   0.350   4.872   3.805 -0.7117 -0.2831  0.1521
10070SOL     OW33355   7.852   7.247   1.441  0.0293 -0.0973  0.2688
10070SOL    HW133356   7.849   7.236   1.536 -0.5599  0.5469  0.3309
10070SOL    HW233357   7.811   7.332   1.425  1.0678  0.2824 -0.4904
10071SOL     OW33358   2.269   2.453   6.804 -0.6222  0.4003 -0.2977
10071SOL    HW133359   2.190   2.417   6.845  0.2843 -0.8148  0.4560
10071SOL    HW233360   2.269   2.416   6.716 -1.9425  2.0629 -1.0683
10072SOL     OW33361   6.320   6.282   0.658  0.0806 -0.5552 -0.5524
10072SOL    HW133362   6.237   6.328   0.646  1.0177  1.4892  0.3619
10072SOL    HW233363   6.372   6.305   0.580  0.5089 -0.1462 -0.1533
10073SOL     OW33364   1.434   2.084   6.410  0.1751 -0.0408 -0.3120
10073SOL    HW133365   1.450   2.030   6.332  0.4609  0.5605 -0.6750
10073SOL    HW233366   1.344   2.062   6.436 -0.1527  0.2115 -1.1887
10074SOL     OW33367   1.045   1.753   3.605 -0.7884 -0.1961  0.3522
10074SOL    HW133368   1.014   1.673   3.647 -1.6732  0.7213  1.5254
10074SOL    HW233369   1.139   1.741   3.596 -0.8542 -1.1963  0.8869
10075SOL     OW33370   4.733   5.474   7.363  0.2440  0.0208  0.0501
10075SOL    HW133371   4.800   5.525   7.319  0.3819 -0.3565 -0.1806
10075SOL    HW233372   4.674   5.446   7.293  0.3832 -0.4584  0.1210
10076SOL     OW33373   6.035   7.717   3.493 -0.3467 -0.2627  0.4393
10076SOL    HW133374   6.015   7.695   3.584 -1.2273  1.1960  0.6271
10076SOL    HW233375   5.951   7.709   3.448  0.1028 -1.0682 -0.2889
10077SOL     OW33376   4.607   4.486   5.303 -0.5026 -0.2416 -0.1835
10077SOL    HW133377   4.650   4.457   5.223 -1.2245 -1.8942  0.0046
10077SOL    HW233378   4.564   4.568   5.279  1.5436  0.7354 -0.7416
10078SOL     OW33379   5.494   4.483   3.929  0.1754 -0.5926 -0.0299
10078SOL    HW133380   5.440   4.483   4.008  0.1784  0.2703 -0.0254
10078SOL    HW233381   5.582   4.503   3.960  0.0291  0.6052 -0.3361
10079SOL     OW33382   7.798   1.717   2.563  0.1139 -0.4570  0.1113
10079SOL    HW133383   7.819   1.661   2.638 -1.2650  1.3281  1.9479
10079SOL    HW233384   7.717   1.680   2.528  0.8101 -1.3513 -0.5916
10080SOL     OW33385   4.955   0.519   3.298  0.4955 -0.4651 -0.9561
10080SOL    HW133386   5.043   0.544   3.327  0.1790 -0.4199  0.0113
10080SOL    HW233387   4.924   0.593   3.246 -0.0932  0.8324  1.1344
10081SOL     OW33388   0.322   3.791   3.324 -0.7391  0.2735  0.2607
10081SOL    HW133389   0.321   3.869   3.269  1.2660 -0.8960 -1.5740
10081SOL    HW233390   0.236   3.751   3.312 -1.1283  1.2463 -0.1984
10082SOL     OW33391   5.731   0.680   6.042 -0.1485  0.3612 -0.0008
10082SOL    HW133392   5.648   0.705   6.002 -0.3533 -1.1986 -0.6505
10082SOL    HW233393   5.707   0.649   6.129 -0.4998 -1.3643 -0.6551
10083SOL     OW33394   5.408   3.873   0.156  0.3422 -0.0315 -0.6220
10083SOL    HW133395   5.387   3.818   0.231  1.2570 -0.0996 -0.3971
10083SOL    HW233396   5.389   3.818   0.079 -1.9199  0.5069 -0.5257
10084SOL     OW33397   7.466   0.945   4.241  0.4065  0.7563  0.5529
10084SOL    HW133398   7.480   0.913   4.330 -0.7486  0.1826  0.5498
10084SOL    HW233399   7.427   1.031   4.252 -2.7784 -0.5787  0.7279
10085SOL     OW33400   1.523   1.016   0.201 -0.9014  0.0374 -0.4211
10085SOL    HW133401   1.617   1.031   0.214 -0.8665  0.6683 -1.3184
10085SOL    HW233402   1.513   0.921   0.212 -0.3623  0.1043  0.8257
10086SOL     OW33403   3.127   0.282   2.042 -0.2807  0.3650  0.3141
10086SOL    HW133404   3.198   0.235   1.999  1.2244  1.1804  1.8195
10086SOL    HW233405   3.094   0.220   2.107  1.9236  1.3598  2.5299
10087SOL     OW33406   1.214   6.437   6.862 -0.4602  0.4335  0.1852
10087SOL    HW133407   1.183   6.484   6.784 -2.6174 -1.5393 -0.2529
10087SOL    HW233408   1.291   6.389   6.831  0.0428  1.4012 -0.1096
10088SOL     OW33409   3.445   1.406   2.887  0.0358 -0.4143 -0.0461
10088SOL    HW133410   3.351   1.414   2.899 -0.3413 -0.5060 -2.5139
10088SOL    HW233411   3.480   1.492   2.911 -0.8971  0.2139 -0.8676
10089SOL     OW33412   5.064   6.535   7.563  0.4690 -0.0309 -0.4218
10089SOL    HW133413   5.023   6.597   7.623 -1.3318  1.5305 -3.0701
10089SOL    HW233414   5.150   6.517   7.602 -0.0667  1.9205  1.8667
10090SOL     OW33415   2.517   7.076   5.874  0.0977 -0.3834 -0.1647
10090SOL    HW133416   2.595   7.107   5.828  0.3214  0.5245  0.7791
10090SOL    HW233417   2.519   7.123   5.958 -1.5972 -0.1646 -0.2222
10091SOL     OW33418   7.989   3.520   1.145  0.3299 -0.0293 -1.3716
10091SOL    HW133419   7.979   3.424   1.146  0.1562 -0.0120 -1.4523
10091SOL    HW233420   7.938   3.550   1.221  1.3204 -0.0894 -0.6597
10092SOL     OW33421   5.660   1.835   0.261 -0.1796 -0.0491 -0.1203
10092SOL    HW133422   5.672   1.816   0.168  0.1528 -0.3714 -0.0161
10092SOL    HW233423   5.565   1.845   0.272 -0.2089  0.0963 -0.5126
10093SOL     OW33424   7.885   4.565   2.528 -0.5758  0.1499  0.2178
10093SOL    HW133425   7.908   4.649   2.488  0.0101 -0.6496 -1.2101
10093SOL    HW233426   7.845   4.515   2.457 -0.6646 -0.8907  0.9752
10094SOL     OW33427   5.386   1.832   1.295  0.0689  0.1837  0.4223
10094SOL    HW133428   5.388   1.740   1.321  1.5439  0.1045  0.1624
10094SOL    HW233429   5.294   1.853   1.286 -0.3224 -1.0540  1.2464
10095SOL     OW33430   2.518   6.041   1.881 -0.5053 -0.2547  0.8472
10095SOL    HW133431   2.427   6.052   1.852  0.0163  1.5054 -0.3339
10095SOL    HW233432   2.514   5.975   1.950 -2.7175 -0.0002  1.0332
10096SOL     OW33433   5.959   2.419   5.462 -0.0958  0.0180 -0.1987
10096SOL    HW133434   5.882   2.400   5.409 -1.9597  4.1764  0.6273
10096SOL    HW233435   6.029   2.432   5.398 -1.1769  0.4558 -1.3353
10097SOL     OW33436   3.940   2.641   7.766  0.5727  0.6274 -0.4010
10097SOL    HW133437   3.997   2.602   7.832 -0.1118 -0.4918 -0.4446
10097SOL    HW233438   3.951   2.586   7.689  1.2032  1.8010 -1.1755
10098SOL     OW33439   1.956   7.847   4.073  0.3498 -0.1275  0.0077
10098SOL    HW133440   1.918   7.909   4.135  0.8442  0.0200  0.1674
10098SOL    HW233441   1.978   7.771   4.126 -0.2475 -0.4352 -0.1866
10099SOL     OW33442   1.597   6.208   4.055  0.3698 -0.4706 -0.4115
10099SOL    HW133443   1.577   6.134   3.997  1.5627 -0.3354 -1.0249
10099SOL    HW233444   1.516   6.259   4.057  0.1251 -0.7853 -1.5083
10100SOL     OW33445   7.613   2.908   4.473 -0.1097 -0.2815 -0.2742
10100SOL    HW133446   7.671   2.927   4.547  0.6177 -1.1562 -0.6081
10100SOL    HW233447   7.575   2.823   4.493 -0.5366 -0.1534 -0.5250
10101SOL     OW33448   3.999   5.474   2.241 -0.6329 -0.3876  0.0059
10101SOL    HW133449   3.958   5.436   2.163 -1.2951  0.3711 -0.0184
10101SOL    HW233450   4.054   5.403   2.275  2.5247  0.2810 -3.1193
10102SOL     OW33451   6.874   1.391   4.203  0.7403  0.2566 -0.0821
10102SOL    HW133452   6.950   1.395   4.261  0.1030  0.3598  0.7594
10102SOL    HW233453   6.807   1.445   4.246 -1.1235 -2.7850  1.1619
10103SOL     OW33454   7.127   4.394   5.824 -0.0635  0.3111 -0.3152
10103SOL    HW133455   7.041   4.358   5.844 -0.2041  1.7120  2.0001
10103SOL    HW233456   7.175   4.322   5.782 -1.7636 -1.0302 -0.0459
10104SOL     OW33457   2.115   1.134   0.497 -0.0272 -0.7297  0.3436
10104SOL    HW133458   2.160   1.116   0.415  0.9340  2.6694 -0.0249
10104SOL    HW233459   2.182   1.121   0.565  0.2163 -0.1404  0.2239
10105SOL     OW33460   2.256   0.065   1.273 -0.6621 -0.6984  0.0710
10105SOL    HW133461   2.264   0.161   1.271  0.3234 -0.7369  1.1906
10105SOL    HW233462   2.293   0.040   1.357  0.8485 -2.2246 -0.9861
10106SOL     OW33463   6.455   4.065   1.531 -0.2505  0.3591  0.0402
10106SOL    HW133464   6.549   4.070   1.515 -0.2750  0.1243 -0.1880
10106SOL    HW233465   6.429   4.155   1.553 -0.0078  0.4585 -0.0799
10107SOL     OW33466   0.767   1.451   4.360  0.2236  0.6401  0.0468
10107SOL    HW133467   0.796   1.429   4.271  0.0883 -0.5258  0.2708
10107SOL    HW233468   0.677   1.419   4.363  0.3564  0.3269  0.7204
10108SOL     OW33469   4.047   0.676   6.480 -0.1673 -0.5659 -0.4471
10108SOL    HW133470   4.056   0.621   6.402  0.1664 -1.3202  0.1118
10108SOL    HW233471   4.118   0.739   6.473 -0.1634 -0.6048 -0.7704
10109SOL     OW33472   4.522   4.934   7.077  0.0830  0.1886 -0.1231
10109SOL    HW133473   4.611   4.968   7.083  0.6464 -1.1940 -0.2237
10109SOL    HW233474   4.476   4.977   7.149  0.9665  0.5373  0.2591
10110SOL     OW33475   3.200   2.049   6.843  0.0035 -0.1830 -0.5958
10110SOL    HW133476   3.243   2.016   6.922 -2.0175 -1.9974 -0.1695
10110SOL    HW233477   3.205   1.977   6.781 -1.2433  0.0199 -0.9611
10111SOL     OW33478   0.964   7.243   4.267  0.0600 -0.0583 -0.8331
10111SOL    HW133479   0.869   7.256   4.270  0.0327 -0.0390 -1.5650
10111SOL    HW233480   0.987   7.212   4.355 -0.9817 -2.4226 -1.3128
10112SOL     OW33481   2.513   3.703   0.473  0.2654  0.0526 -0.2125
10112SOL    HW133482   2.520   3.636   0.541  0.9506  1.1490  0.8328
10112SOL    HW233483   2.459   3.662   0.406 -1.9013 -0.4917  1.7119
10113SOL     OW33484   0.645   5.771   5.350  0.5001 -0.3045 -0.2334
10113SOL    HW133485   0.654   5.793   5.443 -0.3927  0.6442 -0.3505
10113SOL    HW233486   0.733   5.779   5.315  0.7176  0.0916  0.3831
10114SOL     OW33487   6.197   6.266   2.966  0.6336 -0.1988  0.0742
10114SOL    HW133488   6.187   6.281   2.872 -0.7531  2.2634  0.5308
10114SOL    HW233489   6.165   6.346   3.007  2.0283 -0.8347  2.6520
10115SOL     OW33490   2.255   3.902   5.876 -0.0003 -0.2806 -0.0351
10115SOL    HW133491   2.307   3.830   5.841  1.3062  0.8096 -0.4233
10115SOL    HW233492   2.286   3.912   5.966  0.2750  0.2009 -0.1829
10116SOL     OW33493   6.064   1.809   4.387  0.2489 -0.3773 -0.4371
10116SOL    HW133494   5.974   1.835   4.365  1.0281  1.5721 -1.5765
10116SOL    HW233495   6.094   1.760   4.311  0.8579  0.9124 -1.0551
10117SOL     OW33496   3.488   1.458   7.442  0.0295 -0.1070 -0.0087
10117SOL    HW133497   3.506   1.526   7.377  1.6132  1.1401  1.5847
10117SOL    HW233498   3.552   1.389   7.423  0.0947 -0.0117 -0.1365
10118SOL     OW33499   7.289   5.387   6.366 -0.2583 -0.2413  0.0745
10118SOL    HW133500   7.339   5.439   6.429  0.6213 -1.5835  0.5240
10118SOL    HW233501   7.353   5.356   6.303 -0.3097 -2.5569  1.0462
10119SOL     OW33502   4.563   6.663   6.944  0.5077  0.6636 -0.0293
10119SOL    HW133503   4.488   6.722   6.948  0.0418  0.1366 -0.7625
10119SOL    HW233504   4.526   6.579   6.917  1.3643  0.4031 -0.4263
10120SOL     OW33505   5.720   5.471   4.613  0.2232 -0.9866  0.4103
10120SOL    HW133506   5.742   5.480   4.706  0.5378 -0.0025  0.2504
10120SOL    HW233507   5.802   5.489   4.567 -0.2550 -0.0381 -0.0990
10121SOL     OW33508   4.381   0.313   3.867 -0.7046 -0.0861  0.2044
10121SOL    HW133509   4.454   0.264   3.829 -1.1332 -1.7424  1.3750
10121SOL    HW233510   4.402   0.405   3.852  2.2240 -0.4418  1.4880
10122SOL     OW33511   1.637   5.912   5.460  0.2888  0.2549 -0.5005
10122SOL    HW133512   1.603   5.997   5.431 -0.5227 -0.4903 -1.8212
10122SOL    HW233513   1.617   5.909   5.554  2.0320  2.2842  0.0227
10123SOL     OW33514   4.531   3.168   2.957 -0.0707 -0.0391  0.2729
10123SOL    HW133515   4.616   3.206   2.938 -0.8413  0.6808 -2.2508
10123SOL    HW233516   4.540   3.076   2.933 -0.3711  0.3736 -1.6258
10124SOL     OW33517   5.246   4.994   1.604 -0.2867 -0.1325  0.0508
10124SOL    HW133518   5.191   5.067   1.633 -0.1658 -0.8011  2.1122
10124SOL    HW233519   5.233   4.990   1.510 -2.5832  0.6901  0.2790
10125SOL     OW33520   3.698   1.381   7.098  0.5142  0.2240 -0.3218
10125SOL    HW133521   3.752   1.395   7.021  0.0320  1.2711 -0.4981
10125SOL    HW233522   3.608   1.391   7.066 -0.0033 -3.7073 -0.5067
10126SOL     OW33523   7.375   3.158   3.841 -0.2867  0.4496 -0.0445
10126SOL    HW133524   7.364   3.081   3.785 -0.4633  1.8110 -1.9660
10126SOL    HW233525   7.469   3.162   3.858 -0.2253  0.0216 -0.2691
10127SOL     OW33526   6.725   3.429   7.650  0.0189  0.0879  0.0493
10127SOL    HW133527   6.809   3.453   7.610  0.4561  1.2649  1.6022
10127SOL    HW233528   6.659   3.454   7.585  0.7882  0.4936 -0.5915
10128SOL     OW33529   3.787   3.369   7.172  0.2225 -0.0542  0.1644
10128SOL    HW133530   3.871   3.398   7.209  0.4322  1.4472 -1.3566
10128SOL    HW233531   3.803   3.278   7.145  1.0123 -0.1316  0.8376
10129SOL     OW33532   1.492   7.129   1.113 -0.0153 -0.3358 -0.1781
10129SOL    HW133533   1.581   7.096   1.127  0.3810  1.3715  1.6096
10129SOL    HW233534   1.502   7.195   1.044  0.1995  0.1682  0.3272
10130SOL     OW33535   0.756   2.179   1.600 -0.2316 -0.0734  0.2193
10130SOL    HW133536   0.696   2.249   1.624 -1.3544 -0.9200  0.0071
10130SOL    HW233537   0.714   2.099   1.635  1.4469 -0.5601  1.2557
10131SOL     OW33538   5.203   3.822   6.384  0.0618  0.6740  0.3870
10131SOL    HW133539   5.124   3.834   6.437 -0.2883  0.2787 -0.0241
10131SOL    HW233540   5.250   3.904   6.391 -0.9593  1.3488 -0.2816
10132SOL     OW33541   2.999   2.729   6.360  0.4625 -0.4474 -0.1883
10132SOL    HW133542   2.919   2.692   6.399  0.1416  1.6574  1.3138
10132SOL    HW233543   3.068   2.706   6.423  0.6638 -0.3984 -0.3920
10133SOL     OW33544   4.372   1.307   1.681 -0.4226 -0.4021  0.0255
10133SOL    HW133545   4.427   1.339   1.609 -0.5919 -0.3112 -0.0621
10133SOL    HW233546   4.431   1.251   1.733 -0.6141 -1.4302 -0.8382
10134SOL     OW33547   1.517   2.098   0.836 -0.2036 -0.2213  0.0034
10134SOL    HW133548   1.491   2.006   0.839 -1.0024 -0.1549 -2.6898
10134SOL    HW233549   1.463   2.136   0.767  1.1017  1.9590  0.1046
10135SOL     OW33550   4.548   5.373   6.040  0.3860 -0.1910  0.3463
10135SOL    HW133551   4.516   5.402   5.954 -1.0861 -0.9180  0.6072
10135SOL    HW233552   4.515   5.438   6.101 -0.7749 -1.0114  0.6334
10136SOL     OW33553   7.708   2.837   2.258 -0.4102 -0.5627  0.9257
10136SOL    HW133554   7.643   2.769   2.244 -1.3369  0.5337 -0.3508
10136SOL    HW233555   7.791   2.796   2.235 -1.1433 -0.8163 -1.5290
10137SOL     OW33556   7.715   2.344   3.412 -0.0654  0.3705  0.6314
10137SOL    HW133557   7.722   2.401   3.336  1.7868 -0.0143  0.4610
10137SOL    HW233558   7.753   2.261   3.383 -0.5941 -0.2156  1.5654
10138SOL     OW33559   3.327   1.020   1.350  0.5487  0.0709  1.1280
10138SOL    HW133560   3.265   1.059   1.288  0.9754  1.7457  1.7048
10138SOL    HW233561   3.290   1.038   1.436  1.3946  0.3229  1.4501
10139SOL     OW33562   0.373   1.197   1.448 -0.4046  0.1417 -0.5459
10139SOL    HW133563   0.432   1.247   1.391 -2.1553  1.7576 -1.0358
10139SOL    HW233564   0.355   1.116   1.399 -0.2692  0.5858 -1.3389
10140SOL     OW33565   5.029   2.246   7.008  0.2074  0.1118  0.1889
10140SOL    HW133566   5.039   2.259   7.102 -0.7291  1.6769  0.1101
10140SOL    HW233567   4.938   2.269   6.990  0.1577 -0.8944 -0.9936
10141SOL     OW33568   0.299   2.235   1.075 -0.3496 -0.1001 -0.2190
10141SOL    HW133569   0.218   2.235   1.127 -0.3030 -0.7514 -0.1264
10141SOL    HW233570   0.302   2.321   1.034  0.4141  1.0752  2.1026
10142SOL     OW33571   4.180   0.505   7.257  0.0378 -0.1027 -0.0076
10142SOL    HW133572   4.237   0.428   7.256  0.3741  0.1463 -0.1596
10142SOL    HW233573   4.232   0.573   7.300 -1.1683 -0.6461  2.5479
10143SOL     OW33574   3.346   4.300   2.730 -0.0204  0.2863 -0.2487
10143SOL    HW133575   3.271   4.245   2.752  0.4287 -1.0712 -1.8762
10143SOL    HW233576   3.382   4.326   2.814 -1.0620 -0.7970  0.5773
10144SOL     OW33577   5.865   5.894   5.951 -0.3228 -0.1504  0.2188
10144SOL    HW133578   5.879   5.987   5.969 -1.6987  0.8686 -3.1845
10144SOL    HW233579   5.904   5.880   5.865 -1.2824 -2.4021  0.0755
10145SOL     OW33580   7.599   0.118   3.434 -0.2914  0.5186  0.0349
10145SOL    HW133581   7.542   0.060   3.382  0.5280  0.1439 -0.4704
10145SOL    HW233582   7.643   0.060   3.495  0.3888  0.6212 -0.3424
10146SOL     OW33583   5.159   2.679   3.565  0.3116  0.3841 -0.1679
10146SOL    HW133584   5.178   2.701   3.474  1.0388  0.8695  0.1006
10146SOL    HW233585   5.148   2.763   3.609 -1.3394  0.1498 -0.0632
10147SOL     OW33586   0.387   5.817   1.672  0.0095  0.4642 -0.3325
10147SOL    HW133587   0.468   5.797   1.719  1.5079  1.4735 -2.3292
10147SOL    HW233588   0.326   5.845   1.740  2.7055  3.9613  0.9863
10148SOL     OW33589   5.347   6.430   3.011 -0.0215  0.4746 -0.2637
10148SOL    HW133590   5.283   6.497   2.985 -0.1308  1.1305  1.5721
10148SOL    HW233591   5.294   6.358   3.045  0.1559 -0.0473 -1.0447
10149SOL     OW33592   4.227   0.897   5.613 -0.0690  0.1527  0.0496
10149SOL    HW133593   4.275   0.916   5.533 -1.5747 -0.1079 -0.9507
10149SOL    HW233594   4.271   0.821   5.651  2.2060  1.7494  0.8522
10150SOL     OW33595   5.048   2.879   7.288 -0.5372  0.0804  0.1140
10150SOL    HW133596   5.029   2.814   7.221  1.2769  0.5448 -0.9143
10150SOL    HW233597   5.117   2.934   7.250 -0.4692  1.2406  1.8019
10151SOL     OW33598   1.015   1.293   1.173 -0.5850 -0.6588 -0.2447
10151SOL    HW133599   1.075   1.256   1.237  0.6693 -0.5533 -1.3025
10151SOL    HW233600   1.062   1.369   1.137 -2.1138  0.5561  0.1913
10152SOL     OW33601   7.330   7.565   1.054 -0.4756 -0.1577 -0.3532
10152SOL    HW133602   7.380   7.567   1.135 -1.1671  0.9438  0.0727
10152SOL    HW233603   7.264   7.498   1.067  1.2502 -2.1118 -1.1760
10153SOL     OW33604   0.633   6.297   7.800  0.1659 -0.2104  0.2411
10153SOL    HW133605   0.562   6.336   7.750 -0.4051 -0.6529  0.6870
10153SOL    HW233606   0.610   6.313   7.891  0.5019 -0.5874  0.3978
10154SOL     OW33607   5.615   2.131   2.275 -0.1552  0.0737  0.0699
10154SOL    HW133608   5.693   2.183   2.257  0.9455 -1.4465  0.3480
10154SOL    HW233609   5.580   2.112   2.188 -1.0815  1.9399 -0.0310
10155SOL     OW33610   3.064   5.538   1.553  0.2991 -0.1957  0.0357
10155SOL    HW133611   3.041   5.599   1.483  0.7163 -1.5783 -1.3806
10155SOL    HW233612   2.985   5.485   1.566  0.1070  0.2842  0.8842
10156SOL     OW33613   4.692   6.005   3.057 -0.1552 -0.3573 -0.1478
10156SOL    HW133614   4.599   6.027   3.067  0.1849  1.5236 -0.8216
10156SOL    HW233615   4.706   5.933   3.118 -1.7735  0.1559  0.8936
10157SOL     OW33616   5.639   0.991   3.758  0.4292 -0.4229 -0.1402
10157SOL    HW133617   5.565   1.033   3.714  0.3497 -1.1115 -0.6888
10157SOL    HW233618   5.602   0.910   3.794  1.0349 -1.0717 -0.9321
10158SOL     OW33619   6.874   7.752   1.607  0.2049 -0.3994 -0.4718
10158SOL    HW133620   6.808   7.721   1.670 -0.6569  0.4475 -0.9208
10158SOL    HW233621   6.833   7.738   1.521  1.1487 -1.0445 -0.8292
10159SOL     OW33622   5.254   2.621   1.413  0.5693  0.0919  0.0940
10159SOL    HW133623   5.229   2.654   1.326  0.6259 -0.5280 -0.1598
10159SOL    HW233624   5.174   2.626   1.465  0.7818  1.4740  0.3287
10160SOL     OW33625   2.365   7.615   2.341 -0.1755 -0.1306 -0.3451
10160SOL    HW133626   2.316   7.542   2.304  1.4598 -0.9092 -1.0875
10160SOL    HW233627   2.301   7.663   2.394 -1.7827 -0.8846 -1.5290
10161SOL     OW33628   7.889   0.823   0.146 -0.2814  0.2056 -0.7596
10161SOL    HW133629   7.972   0.859   0.174  0.4802 -0.9218 -1.4816
10161SOL    HW233630   7.894   0.730   0.168 -1.4280  0.1539 -0.6323
10162SOL     OW33631   5.731   2.299   0.873 -0.2112  0.1027  0.4099
10162SOL    HW133632   5.803   2.241   0.849 -0.0874  0.1223  0.7418
10162SOL    HW233633   5.687   2.317   0.790  0.9653  1.1860 -0.0007
10163SOL     OW33634   5.733   0.266   0.095 -0.1456 -0.1663 -0.6404
10163SOL    HW133635   5.750   0.336   0.032 -1.9817  0.5650 -0.3898
10163SOL    HW233636   5.811   0.263   0.149 -0.0023  1.6836 -0.6887
10164SOL     OW33637   6.277   2.154   4.726  0.0431 -0.0744 -0.2206
10164SOL    HW133638   6.202   2.212   4.738  0.3540  0.0564  1.3120
10164SOL    HW233639   6.240   2.074   4.688 -0.5955  0.5962 -1.0603
10165SOL     OW33640   6.533   3.331   4.655 -0.2598  0.0028  0.6083
10165SOL    HW133641   6.569   3.281   4.729 -0.3122 -0.9602  0.0046
10165SOL    HW233642   6.467   3.273   4.616 -1.8124  1.3627  1.1115
10166SOL     OW33643   6.006   6.579   6.617 -0.0710 -0.4652  0.0294
10166SOL    HW133644   6.029   6.620   6.533 -2.2153 -0.7397 -0.7436
10166SOL    HW233645   6.037   6.488   6.608  2.1730  0.1634  0.6700
10167SOL     OW33646   5.895   1.445   0.804 -0.3325 -0.4441  0.1197
10167SOL    HW133647   5.822   1.416   0.860 -0.3265 -1.3850 -0.3307
10167SOL    HW233648   5.874   1.535   0.782 -0.0822  0.1373  2.0446
10168SOL     OW33649   1.780   0.445   0.560 -0.4914  0.3348  0.5355
10168SOL    HW133650   1.780   0.405   0.647  0.5002  0.6498  0.6867
10168SOL    HW233651   1.726   0.387   0.506 -0.7095 -0.1213  1.2392
10169SOL     OW33652   5.479   7.939   3.454 -0.3377 -0.2366  0.3411
10169SOL    HW133653   5.480   7.843   3.458  2.3648 -0.2362  1.4067
10169SOL    HW233654   5.449   7.958   3.365  0.5029 -2.1398 -0.4121
10170SOL     OW33655   3.842   3.233   4.053  0.1955 -0.1824  0.1574
10170SOL    HW133656   3.917   3.262   4.002 -0.1824  1.0690  0.2753
10170SOL    HW233657   3.773   3.217   3.989 -1.0494  3.6986  0.2892
10171SOL     OW33658   6.340   6.164   1.011 -0.2186  0.3303  0.1262
10171SOL    HW133659   6.411   6.206   0.963 -0.4455  0.5937  0.0173
10171SOL    HW233660   6.349   6.194   1.101  0.2197 -0.1777  0.2572
10172SOL     OW33661   2.091   2.765   0.473 -0.6423 -0.3115 -0.4807
10172SOL    HW133662   2.008   2.760   0.425 -1.8005  1.4517  1.1976
10172SOL    HW233663   2.123   2.853   0.456 -0.7754  0.1489  1.4011
10173SOL     OW33664   2.502   7.878   3.669 -0.6737  0.2589 -0.5691
10173SOL    HW133665   2.420   7.850   3.710 -1.1442  0.0587 -1.6187
10173SOL    HW233666   2.503   7.835   3.583 -0.5471  1.9740 -1.4881
10174SOL     OW33667   7.862   7.464   4.282 -0.3493 -0.4224  0.5661
10174SOL    HW133668   7.911   7.542   4.309 -0.5772 -0.1469  0.1744
10174SOL    HW233669   7.771   7.484   4.301 -0.5462 -0.1219 -0.6490
10175SOL     OW33670   7.934   3.054   3.183  0.6507  0.0932  0.2061
10175SOL    HW133671   7.965   3.135   3.142 -0.4068  0.3194 -0.1931
10175SOL    HW233672   7.869   3.019   3.122 -0.1077 -0.1845  1.1297
10176SOL     OW33673   8.053   7.129   4.056 -0.5054  0.0671 -0.4287
10176SOL    HW133674   7.981   7.192   4.058 -0.1132  0.5120 -0.2022
10176SOL    HW233675   8.055   7.096   3.966 -1.6802 -0.7585 -0.1750
10177SOL     OW33676   0.812   7.597   3.985 -0.1273  0.4124 -0.4180
10177SOL    HW133677   0.724   7.635   3.978 -0.5613 -0.4622  0.1488
10177SOL    HW233678   0.832   7.602   4.078  0.6523  1.0754 -0.6077
10178SOL     OW33679   7.283   3.145   0.275  0.1349 -0.6479 -0.4485
10178SOL    HW133680   7.340   3.134   0.352  1.0994  1.6141 -0.7665
10178SOL    HW233681   7.207   3.193   0.308 -0.0973 -0.8663 -0.6607
10179SOL     OW33682   0.742   7.827   2.089 -0.1180 -1.0560  0.6707
10179SOL    HW133683   0.823   7.866   2.054 -0.3000 -0.6198  0.7273
10179SOL    HW233684   0.772   7.757   2.147  0.2425 -0.3899  1.2937
10180SOL     OW33685   4.143   7.529   7.399 -0.1008  0.3983 -0.3312
10180SOL    HW133686   4.118   7.533   7.306  0.8713  1.4071 -0.5664
10180SOL    HW233687   4.161   7.619   7.423  1.4297 -0.0522  0.3341
10181SOL     OW33688   7.554   7.975   2.561  0.5342  0.6608 -0.0107
10181SOL    HW133689   7.507   8.055   2.539 -0.0786 -0.1411 -1.8436
10181SOL    HW233690   7.556   7.973   2.657 -0.4970  2.2455  0.0727
10182SOL     OW33691   3.674   5.690   5.057 -0.5476  0.7559  0.2518
10182SOL    HW133692   3.746   5.712   5.116 -0.4247 -2.7766  1.6848
10182SOL    HW233693   3.712   5.699   4.969  1.1873  0.5079  0.9304
10183SOL     OW33694   1.268   3.043   0.223  0.0692  0.1794 -0.0118
10183SOL    HW133695   1.200   3.107   0.243  1.5727  1.3724  1.6521
10183SOL    HW233696   1.224   2.959   0.227 -1.5244  0.9719 -0.0890
10184SOL     OW33697   2.151   2.674   4.820  0.0434 -0.3764  0.3828
10184SOL    HW133698   2.234   2.707   4.784  0.3205 -0.0996  1.2399
10184SOL    HW233699   2.109   2.630   4.747  1.5027 -1.5924  0.2157
10185SOL     OW33700   7.854   2.771   4.378 -0.1040  0.3283  0.2795
10185SOL    HW133701   7.796   2.847   4.379 -1.1974 -0.4704 -0.4208
10185SOL    HW233702   7.890   2.768   4.467 -0.6831  1.1861  0.5581
10186SOL     OW33703   5.940   7.481   6.230  0.1114 -0.3698  0.3585
10186SOL    HW133704   5.938   7.530   6.312  0.4472 -0.3111  0.3331
10186SOL    HW233705   6.007   7.414   6.244  3.1749  2.0860 -1.2214
10187SOL     OW33706   3.560   6.406   1.174  0.4741  0.0844  0.1930
10187SOL    HW133707   3.609   6.405   1.092  0.7643 -0.6061  0.3666
10187SOL    HW233708   3.474   6.441   1.151  0.1289 -1.2613 -0.6456
10188SOL     OW33709   2.514   2.361   0.362  0.5796  0.1890  0.3573
10188SOL    HW133710   2.475   2.311   0.291  0.9605 -0.3533  0.5223
10188SOL    HW233711   2.571   2.425   0.318  1.6435 -0.8362  0.1769
10189SOL     OW33712   1.268   6.990   2.609 -0.2691  0.9259 -0.1392
10189SOL    HW133713   1.348   6.953   2.570 -1.5709 -1.6459 -0.5563
10189SOL    HW233714   1.223   7.031   2.535 -0.1003  0.9658 -0.2208
10190SOL     OW33715   1.095   7.697   6.000  0.3126  0.1913 -0.2781
10190SOL    HW133716   1.133   7.781   6.024  0.3763  0.2571 -0.6053
10190SOL    HW233717   1.110   7.690   5.905 -0.6888  0.3201 -0.4521
10191SOL     OW33718   1.912   1.956   5.467  0.2314 -0.7208  0.1479
10191SOL    HW133719   1.928   1.874   5.420  0.0038  0.9250 -3.1198
10191SOL    HW233720   1.820   1.950   5.495 -0.3175 -0.9639 -1.5870
10192SOL     OW33721   5.349   7.522   2.632  0.1844  0.0812  0.3000
10192SOL    HW133722   5.299   7.441   2.630 -1.2347  0.9365 -0.0146
10192SOL    HW233723   5.387   7.529   2.544 -1.3036  0.7100 -0.3174
10193SOL     OW33724   7.365   3.910   7.476 -0.2308  0.2646 -0.0009
10193SOL    HW133725   7.328   3.951   7.398  0.2567  1.2553  0.2793
10193SOL    HW233726   7.401   3.982   7.527 -1.1649 -0.2879  1.5066
10194SOL     OW33727   6.916   5.949   0.975 -0.8627  0.4570 -0.2951
10194SOL    HW133728   6.867   6.030   0.990  0.3021  1.1765 -0.2160
10194SOL    HW233729   6.855   5.893   0.928 -1.4048  1.7291 -1.1739
10195SOL     OW33730   2.711   0.226   2.805  0.1875  0.4239 -0.4142
10195SOL    HW133731   2.715   0.300   2.744 -0.3925  0.6374 -0.2022
10195SOL    HW233732   2.617   0.205   2.810  0.1242  0.9589  1.0624
10196SOL     OW33733   0.343   1.889   0.502  0.4438  0.3806  0.4977
10196SOL    HW133734   0.274   1.854   0.447  0.1781  0.1050  0.9982
10196SOL    HW233735   0.324   1.983   0.509  1.0304  0.6074 -0.6610
10197SOL     OW33736   5.009   2.964   4.268 -0.2889  0.6438  0.1384
10197SOL    HW133737   4.947   2.895   4.246 -1.6433  2.4578 -2.2921
10197SOL    HW233738   5.045   2.992   4.184  4.0463 -0.3620  1.4497
10198SOL     OW33739   3.358   0.166   1.548 -0.2035  0.0015  0.0605
10198SOL    HW133740   3.369   0.244   1.601  0.8578  1.0678 -1.6128
10198SOL    HW233741   3.435   0.113   1.566 -0.9607 -0.7379  1.2531
10199SOL     OW33742   6.744   2.927   1.139  0.1082 -0.4667 -0.3270
10199SOL    HW133743   6.823   2.955   1.092  0.4238 -0.6913  0.0661
10199SOL    HW233744   6.683   2.999   1.126  0.6864  0.1215  0.1061
10200SOL     OW33745   2.693   7.938   5.433 -0.0104 -0.0255 -0.2654
10200SOL    HW133746   2.675   8.016   5.380  2.3629  1.0142  0.3513
10200SOL    HW233747   2.711   7.973   5.521  1.9545 -1.1580 -0.1733
10201SOL     OW33748   3.641   3.132   3.911  0.8314  0.4144 -0.0953
10201SOL    HW133749   3.566   3.078   3.933  0.4433  0.5915 -0.9393
10201SOL    HW233750   3.695   3.076   3.855  0.2631  0.9900 -1.2506
10202SOL     OW33751   6.446   1.783   0.101 -0.5073  0.3171 -0.0637
10202SOL    HW133752   6.490   1.719   0.156 -0.0176  0.8060  0.1296
10202SOL    HW233753   6.435   1.859   0.158  0.4851  1.0255 -0.7744
10203SOL     OW33754   5.778   5.442   3.583 -0.0699 -0.2440  0.2836
10203SOL    HW133755   5.745   5.503   3.650 -0.2592  0.3205 -0.3127
10203SOL    HW233756   5.859   5.406   3.621  0.5947  1.1407  0.2462
10204SOL     OW33757   2.550   7.121   4.516 -0.0812  1.1342 -0.0727
10204SOL    HW133758   2.639   7.114   4.481 -0.5434  2.0903 -1.5540
10204SOL    HW233759   2.551   7.068   4.595  0.9977 -1.3716 -1.6372
10205SOL     OW33760   3.771   6.453   7.836 -0.3288  0.6605 -0.7584
10205SOL    HW133761   3.764   6.468   7.930  0.1630 -0.3108 -0.5579
10205SOL    HW233762   3.863   6.435   7.821 -0.7853 -1.6736 -1.0163
10206SOL     OW33763   6.718   7.495   4.951 -0.4623 -0.1596  0.1474
10206SOL    HW133764   6.779   7.513   5.022  0.0667  0.3222 -0.4096
10206SOL    HW233765   6.644   7.554   4.967 -0.0521  0.4193 -0.0506
10207SOL     OW33766   3.895   2.455   5.810  0.1970  0.0579  0.6255
10207SOL    HW133767   3.931   2.529   5.761 -1.3884  0.7578  0.4412
10207SOL    HW233768   3.953   2.382   5.789  1.4840  1.1057  0.3725
10208SOL     OW33769   1.856   4.016   0.992  0.3242  0.2849  0.1408
10208SOL    HW133770   1.929   4.017   1.053 -0.4080  0.0651  1.0332
10208SOL    HW233771   1.822   3.927   0.995  0.0193  0.3806 -0.2738
10209SOL     OW33772   1.232   6.776   0.938  0.4878 -0.0349  0.0786
10209SOL    HW133773   1.327   6.782   0.926  0.4340  0.4950 -0.1416
10209SOL    HW233774   1.210   6.686   0.916  0.8960 -0.0718 -0.1886
10210SOL     OW33775   4.156   4.414   2.356  0.9997 -0.5189  0.0224
10210SOL    HW133776   4.233   4.378   2.312  0.6243  0.8572 -1.8421
10210SOL    HW233777   4.083   4.366   2.318  0.7034  0.3829 -0.5581
10211SOL     OW33778   4.696   4.042   3.658  0.3350 -0.4260  0.2047
10211SOL    HW133779   4.623   4.024   3.598  0.2607 -0.0324  0.1744
10211SOL    HW233780   4.740   3.957   3.668  1.2331 -0.2380 -1.5759
10212SOL     OW33781   2.686   5.773   4.396  0.0580 -0.1509  0.0207
10212SOL    HW133782   2.689   5.700   4.458  1.0170 -0.4671 -0.3884
10212SOL    HW233783   2.592   5.785   4.379 -0.1174 -3.7985 -2.8082
10213SOL     OW33784   3.171   0.936   7.154  0.3316 -0.0564  0.1222
10213SOL    HW133785   3.257   0.899   7.134  0.9414  0.6386  1.3419
10213SOL    HW233786   3.185   1.030   7.158 -0.7826  0.1879 -0.9396
10214SOL     OW33787   2.769   0.809   5.081 -0.1370 -0.0626 -0.1865
10214SOL    HW133788   2.851   0.767   5.108 -1.0039 -1.3909  0.4974
10214SOL    HW233789   2.734   0.751   5.012 -1.9514 -1.2268  1.6066
10215SOL     OW33790   3.366   3.186   7.029 -0.3422  0.1013 -0.0104
10215SOL    HW133791   3.427   3.223   7.093 -0.6880 -1.0121  1.0010
10215SOL    HW233792   3.287   3.240   7.037  0.1570  0.9627 -0.6642
10216SOL     OW33793   5.182   7.660   0.767  0.3297 -0.0429 -0.7797
10216SOL    HW133794   5.190   7.640   0.674 -1.0202 -0.0711 -0.9072
10216SOL    HW233795   5.172   7.575   0.810 -1.5813  0.0671 -0.9118
10217SOL     OW33796   4.447   2.267   7.227  0.4831  0.7818  0.3286
10217SOL    HW133797   4.436   2.327   7.153  0.6893  1.0889  0.5433
10217SOL    HW233798   4.518   2.209   7.200 -0.0212  0.3421 -0.0661
10218SOL     OW33799   5.568   6.352   0.051 -0.3254 -0.2356  0.2177
10218SOL    HW133800   5.612   6.437   0.045 -0.8020  0.0350  0.5241
10218SOL    HW233801   5.621   6.303   0.115 -0.8742  0.3491  1.1393
10219SOL     OW33802   5.731   0.469   4.028  0.3227 -0.8437  0.9568
10219SOL    HW133803   5.789   0.461   3.952 -0.0459 -0.5497  0.6353
10219SOL    HW233804   5.733   0.383   4.069 -1.0911 -1.6936 -0.5961
10220SOL     OW33805   4.971   1.229   4.001  0.1392 -0.4377 -0.4215
10220SOL    HW133806   4.899   1.277   3.958 -1.5158 -1.9122  0.5639
10220SOL    HW233807   4.985   1.152   3.946  0.0968 -0.7925  0.0591
10221SOL     OW33808   4.215   4.518   0.894  0.5313 -0.4000  0.4348
10221SOL    HW133809   4.139   4.499   0.948 -1.1358  0.9089 -1.3148
10221SOL    HW233810   4.184   4.507   0.804  2.1527  0.9745 -0.3528
10222SOL     OW33811   6.464   5.964   6.633 -0.1408  0.2010 -0.0236
10222SOL    HW133812   6.518   5.925   6.702 -1.4762  2.9172  2.7901
10222SOL    HW233813   6.527   6.001   6.571  1.1921  0.4075  1.3949
10223SOL     OW33814   5.049   0.448   0.784  0.1257  0.0318  0.0007
10223SOL    HW133815   5.105   0.395   0.728 -1.0516  0.0476 -1.2576
10223SOL    HW233816   4.992   0.384   0.829 -0.0358  0.1156 -0.0837
10224SOL     OW33817   2.765   7.443   7.130 -0.8816  0.2353  0.0010
10224SOL    HW133818   2.693   7.492   7.168  0.3852  2.0001  0.2280
10224SOL    HW233819   2.822   7.421   7.204 -0.6265 -0.1895 -0.3138
10225SOL     OW33820   6.426   6.733   5.785 -0.9749  0.1002 -0.5385
10225SOL    HW133821   6.375   6.813   5.794 -2.3113 -0.6222 -1.3714
10225SOL    HW233822   6.517   6.760   5.801 -1.2363  2.0092 -2.0287
10226SOL     OW33823   6.229   8.023   5.829 -0.4935 -0.1004  0.0454
10226SOL    HW133824   6.320   8.023   5.857 -0.3579 -1.3014 -0.3425
10226SOL    HW233825   6.201   7.932   5.836 -1.3820  0.0936 -0.7271
10227SOL     OW33826   0.556   7.439   2.064  0.2060  0.0990 -0.0346
10227SOL    HW133827   0.542   7.476   2.151  0.0212 -1.3686  0.5967
10227SOL    HW233828   0.474   7.392   2.044  0.9008 -1.0847 -0.1972
10228SOL     OW33829   7.875   3.403   0.417  0.0972 -0.0167 -0.1348
10228SOL    HW133830   7.932   3.382   0.343 -0.0881 -3.4901  0.5145
10228SOL    HW233831   7.787   3.385   0.384 -0.0324 -1.0467  0.7269
10229SOL     OW33832   4.210   1.528   5.847  0.5732  0.2974 -0.4013
10229SOL    HW133833   4.247   1.606   5.889 -0.8200  0.8480 -0.1552
10229SOL    HW233834   4.152   1.491   5.913  1.0172 -0.8042 -0.6198
10230SOL     OW33835   6.624   5.475   1.314  0.6172  0.2988  0.3885
10230SOL    HW133836   6.641   5.536   1.386 -1.8785  2.7144 -0.8819
10230SOL    HW233837   6.533   5.448   1.328  1.0180 -1.4788 -0.2960
10231SOL     OW33838   7.152   7.918   5.859  0.3312  0.3174 -0.5106
10231SOL    HW133839   7.155   7.832   5.902 -0.0397 -0.0163 -1.1317
10231SOL    HW233840   7.237   7.958   5.877  0.6909 -0.3853 -0.6307
10232SOL     OW33841   1.550   3.405   3.142 -0.6876  0.3623  0.0749
10232SOL    HW133842   1.489   3.374   3.075 -1.7309  1.8443  0.2785
10232SOL    HW233843   1.567   3.497   3.117  0.8092  0.2342  0.5075
10233SOL     OW33844   6.956   3.095   5.965  0.2551 -0.3345 -0.3163
10233SOL    HW133845   6.888   3.028   5.957 -0.0218 -0.1774  0.5751
10233SOL    HW233846   6.967   3.129   5.877  0.0339 -1.2001 -0.6838
10234SOL     OW33847   7.693   5.474   5.783  0.1995  0.0486 -0.2410
10234SOL    HW133848   7.684   5.532   5.859 -0.1868  0.1175 -0.3375
10234SOL    HW233849   7.780   5.436   5.793  0.4992  0.7212 -0.2382
10235SOL     OW33850   6.906   5.696   5.879 -0.1451 -0.3650  0.4806
10235SOL    HW133851   6.858   5.775   5.904 -0.2467 -0.3185  0.1443
10235SOL    HW233852   6.854   5.658   5.808  0.3761 -0.2518  0.0329
10236SOL     OW33853   6.013   1.423   3.864  0.5029  0.1319  0.6150
10236SOL    HW133854   5.934   1.398   3.911  1.3630 -1.2384  1.3756
10236SOL    HW233855   6.025   1.355   3.798 -0.0050  1.3803 -0.8416
10237SOL     OW33856   1.594   7.757   0.963 -0.2920 -0.4621 -0.1681
10237SOL    HW133857   1.561   7.668   0.973 -0.8916 -0.1171  1.1501
10237SOL    HW233858   1.525   7.803   0.915  0.4309 -0.9151 -1.6946
10238SOL     OW33859   5.450   0.707   6.443  0.0475 -0.3052 -0.0395
10238SOL    HW133860   5.396   0.685   6.519  0.0823  0.5345  0.2413
10238SOL    HW233861   5.389   0.746   6.380  0.2198  0.1306  0.0568
10239SOL     OW33862   4.425   5.407   3.048  0.0101  0.1132  0.3599
10239SOL    HW133863   4.414   5.324   3.094  0.2384 -0.1780 -0.1036
10239SOL    HW233864   4.358   5.465   3.085 -0.9677 -0.6493 -0.1794
10240SOL     OW33865   4.105   3.342   3.334 -0.4735 -0.0650  0.1780
10240SOL    HW133866   4.131   3.423   3.291 -2.1965  0.0442 -0.7792
10240SOL    HW233867   4.187   3.297   3.354  0.4553  0.6168 -1.8442
10241SOL     OW33868   4.061   3.913   6.498 -0.2069  0.7355 -0.0435
10241SOL    HW133869   4.145   3.957   6.513  0.3860 -0.7683  1.5386
10241SOL    HW233870   4.018   3.913   6.584 -1.5902  0.9994 -0.7137
10242SOL     OW33871   3.698   3.363   5.007 -0.6533 -0.3476  0.1444
10242SOL    HW133872   3.755   3.362   5.084 -2.0923  0.4864  1.2438
10242SOL    HW233873   3.687   3.270   4.985  1.3334 -0.5399 -0.3015
10243SOL     OW33874   7.231   5.719   2.466 -0.1225  0.7450 -0.1481
10243SOL    HW133875   7.261   5.810   2.465  0.0295  0.6967 -1.5494
10243SOL    HW233876   7.187   5.708   2.382 -1.0964 -0.1739  0.4570
10244SOL     OW33877   2.871   4.426   0.037  0.3796 -0.0624  0.5624
10244SOL    HW133878   2.794   4.466   0.078 -0.2373 -1.2533  0.6114
10244SOL    HW233879   2.937   4.424   0.106  0.7527  1.6890  0.2999
10245SOL     OW33880   1.575   0.000   0.751  0.3639  0.4316  0.4027
10245SOL    HW133881   1.506  -0.066   0.760  1.1455 -0.2755  1.2548
10245SOL    HW233882   1.587   0.035   0.839 -0.8329  2.5688 -0.1963
10246SOL     OW33883   7.304   7.014   1.484  0.2383 -0.6435 -0.2977
10246SOL    HW133884   7.224   6.989   1.529  1.8557 -0.7212  2.8429
10246SOL    HW233885   7.312   6.952   1.412 -0.9557 -2.6322  1.2035
10247SOL     OW33886   7.808   7.788   4.639  0.3613 -0.2867  0.4653
10247SOL    HW133887   7.765   7.872   4.653  0.5676 -0.0463 -0.2677
10247SOL    HW233888   7.901   7.809   4.635  0.2895  0.0409 -3.0807
10248SOL     OW33889   1.539   2.599   0.351  0.6653 -1.2278 -0.1453
10248SOL    HW133890   1.601   2.671   0.341 -0.0324 -0.3075  1.6230
10248SOL    HW233891   1.495   2.592   0.266  0.8829  0.3262 -0.4097
10249SOL     OW33892   4.927   2.129   7.491 -0.3686 -0.0516 -0.4211
10249SOL    HW133893   4.880   2.154   7.570 -0.2013 -0.1855 -0.2790
10249SOL    HW233894   4.891   2.044   7.467  0.0373 -0.3161 -0.1169
10250SOL     OW33895   1.296   5.359   6.768 -0.8459  0.4672  0.0671
10250SOL    HW133896   1.315   5.273   6.730 -2.2159  0.8197 -1.5235
10250SOL    HW233897   1.357   5.418   6.724 -1.0646  0.5624 -0.1113
10251SOL     OW33898   1.845   0.386   4.767 -0.8368  0.8493  0.0364
10251SOL    HW133899   1.783   0.325   4.809 -1.9005  1.7850 -0.1324
10251SOL    HW233900   1.850   0.460   4.827  1.3787  0.1405  0.8324
10252SOL     OW33901   5.973   3.408   0.203 -0.3154  0.4012 -0.0783
10252SOL    HW133902   6.018   3.392   0.287  0.2206 -0.5818 -0.5376
10252SOL    HW233903   5.884   3.431   0.228 -0.4391 -0.8832  0.7446
10253SOL     OW33904   6.765   3.689   0.402 -0.7087  0.1602 -0.1584
10253SOL    HW133905   6.723   3.691   0.488 -0.7680 -0.3184 -0.1754
10253SOL    HW233906   6.858   3.682   0.420 -0.8335 -1.9493 -0.1290
10254SOL     OW33907   5.962   5.314   2.723  0.3854 -0.3448 -0.2879
10254SOL    HW133908   5.970   5.345   2.633  0.5323  1.3313  0.2617
10254SOL    HW233909   5.891   5.250   2.720 -0.6491  0.8012 -1.3434
10255SOL     OW33910   1.039   5.931   7.705 -0.2555 -0.3266  0.2246
10255SOL    HW133911   1.025   5.899   7.794 -0.1210  1.5858  0.9830
10255SOL    HW233912   1.041   6.026   7.714  3.2771 -0.1188 -1.2661
10256SOL     OW33913   1.450   3.400   5.857  0.0307  0.3918  0.5669
10256SOL    HW133914   1.392   3.394   5.933  0.9216 -0.8427  1.1723
10256SOL    HW233915   1.535   3.371   5.889  1.4717  3.6728  0.1204
10257SOL     OW33916   2.300   5.500   1.852  0.2367  0.4147 -0.4616
10257SOL    HW133917   2.389   5.502   1.816  1.3461 -1.4106  1.9158
10257SOL    HW233918   2.311   5.521   1.945 -1.4363 -2.1419  0.4319
10258SOL     OW33919   1.578   0.310   0.130  0.0733 -0.1685  0.3756
10258SOL    HW133920   1.529   0.327   0.210  0.5150 -0.2933  0.6744
10258SOL    HW233921   1.610   0.396   0.103 -2.1440  0.2736 -1.0403
10259SOL     OW33922   4.750   8.032   2.986 -0.7158 -0.0116  0.4634
10259SOL    HW133923   4.708   8.105   3.031 -2.2959 -1.7055  1.9303
10259SOL    HW233924   4.677   7.976   2.959  0.4309 -0.9819 -0.7871
10260SOL     OW33925   6.013   0.132   7.952  0.2689  0.2486  0.5814
10260SOL    HW133926   5.924   0.112   7.923  0.4704  0.9571 -0.5691
10260SOL    HW233927   6.066   0.062   7.914  0.1980 -0.2937  1.4418
10261SOL     OW33928   2.176   2.469   0.098 -0.2421  0.2444  0.0130
10261SOL    HW133929   2.158   2.431   0.183 -0.7357 -0.1145 -0.2462
10261SOL    HW233930   2.263   2.508   0.107 -0.6846  1.0621  0.9593
10262SOL     OW33931   4.095   5.248   6.064  0.0106 -0.0686  0.9756
10262SOL    HW133932   4.037   5.218   5.994 -0.0043  2.8096 -0.3905
10262SOL    HW233933   4.062   5.206   6.143 -0.7928 -2.3890 -0.5166
10263SOL     OW33934   2.984   2.341   0.097 -0.0478  0.2105 -0.2200
10263SOL    HW133935   2.919   2.324   0.028  0.5578  0.0282 -0.7542
10263SOL    HW233936   3.063   2.297   0.066  0.7747  1.7045 -0.3243
10264SOL     OW33937   5.945   3.156   1.369 -0.3309 -0.1748  0.3508
10264SOL    HW133938   5.977   3.150   1.280 -0.6209 -0.4327  0.2637
10264SOL    HW233939   5.931   3.065   1.396 -0.1991 -0.1009  0.6740
10265SOL     OW33940   3.185   4.701   1.584  0.4466  0.0229  0.3892
10265SOL    HW133941   3.231   4.644   1.523  0.6396  1.2537 -0.6496
10265SOL    HW233942   3.252   4.729   1.646  0.6785  0.2863  0.0232
10266SOL     OW33943   0.837   5.805   1.683 -0.7308  0.3033 -0.4771
10266SOL    HW133944   0.819   5.793   1.776 -2.6861  0.1107 -0.8375
10266SOL    HW233945   0.924   5.768   1.670 -1.3121 -1.7015  0.8657
10267SOL     OW33946   2.128   7.030   0.957 -0.2390  0.4578 -0.2322
10267SOL    HW133947   2.211   7.063   0.989 -0.0548 -0.6154  0.4745
10267SOL    HW233948   2.068   7.104   0.965 -0.0634  0.4395  2.1351
10268SOL     OW33949   0.057   6.652   5.015  0.5312 -0.0244  0.1227
10268SOL    HW133950   0.001   6.580   4.987  2.3590 -2.0340  1.3238
10268SOL    HW233951   0.082   6.695   4.933  0.7758 -1.8714 -0.8416
10269SOL     OW33952   1.102   0.944   3.212  0.7002 -0.2245  0.4428
10269SOL    HW133953   1.166   0.998   3.167 -1.0954  1.4138 -0.2744
10269SOL    HW233954   1.091   0.986   3.297 -1.8724  1.6581 -0.6927
10270SOL     OW33955   7.282   0.431   7.891  0.4781 -0.6679  0.2929
10270SOL    HW133956   7.228   0.442   7.969  0.1214 -1.7621  0.2150
10270SOL    HW233957   7.255   0.502   7.833  1.3268  0.6736  1.4626
10271SOL     OW33958   0.175   7.933   2.642  0.5742  0.5854  0.1895
10271SOL    HW133959   0.254   7.906   2.596  0.0340 -0.4860 -0.1411
10271SOL    HW233960   0.149   8.015   2.601 -0.1127 -0.5338 -1.7217
10272SOL     OW33961   5.326   2.302   5.005  0.3626  0.0410 -0.5163
10272SOL    HW133962   5.355   2.216   4.974 -0.7239  0.2084 -2.1430
10272SOL    HW233963   5.388   2.364   4.966  0.4732  0.0757 -0.2858
10273SOL     OW33964   6.551   1.191   2.055 -0.2719 -0.0631 -0.3409
10273SOL    HW133965   6.619   1.140   2.100  0.9780  1.3881 -0.4942
10273SOL    HW233966   6.561   1.166   1.963  0.3970  0.4767 -0.4274
10274SOL     OW33967   7.823   2.240   3.686  0.4060  0.1256  0.0431
10274SOL    HW133968   7.916   2.260   3.684  0.0249  2.1609 -0.1033
10274SOL    HW233969   7.788   2.279   3.606 -0.5805 -0.5636  0.1214
10275SOL     OW33970   2.340   7.369   0.823  0.0236 -0.7679 -0.3373
10275SOL    HW133971   2.421   7.420   0.821  0.6518 -1.7296 -0.3172
10275SOL    HW233972   2.271   7.433   0.835  0.5800  0.3384 -2.4844
10276SOL     OW33973   3.634   0.807   4.468  0.1300 -0.3208 -0.4473
10276SOL    HW133974   3.651   0.881   4.409  1.7349  0.0421  0.4104
10276SOL    HW233975   3.709   0.748   4.455 -0.5158 -1.2161 -0.2255
10277SOL     OW33976   7.335   3.139   2.744 -0.3603  0.2359  0.3935
10277SOL    HW133977   7.310   3.185   2.664 -0.5117 -0.6942 -0.1046
10277SOL    HW233978   7.430   3.126   2.735 -0.0306  1.8194  1.2664
10278SOL     OW33979   5.752   5.420   1.230  0.0313  0.3031  0.5901
10278SOL    HW133980   5.692   5.478   1.277  1.1986  1.1396  1.1038
10278SOL    HW233981   5.781   5.472   1.155 -1.9298 -1.0685 -1.2376
10279SOL     OW33982   6.500   5.691   5.094 -0.4966  0.0214  0.4213
10279SOL    HW133983   6.499   5.694   5.189 -2.1703 -0.7297  0.4712
10279SOL    HW233984   6.588   5.718   5.069 -0.1436  0.5526  2.1618
10280SOL     OW33985   3.054   6.829   5.665 -0.0907  0.3577  0.1063
10280SOL    HW133986   3.044   6.917   5.700  0.4473 -0.3273  2.0990
10280SOL    HW233987   3.148   6.818   5.652 -0.0549 -0.2640  0.8331
10281SOL     OW33988   0.885   2.919   2.410 -0.2355  0.0253  0.2757
10281SOL    HW133989   0.842   2.841   2.444 -2.6579  2.2640  2.9079
10281SOL    HW233990   0.909   2.969   2.488  1.9450  1.6102 -1.2813
10282SOL     OW33991   6.852   6.550   4.916  0.0132 -0.1506  0.0742
10282SOL    HW133992   6.787   6.609   4.953  0.0875 -1.3183  2.1952
10282SOL    HW233993   6.801   6.475   4.883 -0.1360  1.1718 -3.0713
10283SOL     OW33994   1.590   6.948   5.668 -0.4702 -0.4058  0.3383
10283SOL    HW133995   1.630   6.865   5.642 -0.1940  0.2968 -1.6745
10283SOL    HW233996   1.586   6.944   5.763  1.9881 -1.6279  0.4820
10284SOL     OW33997   7.981   5.356   5.475  0.3733 -0.3333  0.4879
10284SOL    HW133998   8.076   5.367   5.473  0.3233  0.6527  1.8085
10284SOL    HW233999   7.960   5.348   5.568 -0.5175 -4.1091  0.0930
10285SOL     OW34000   2.635   0.306   7.037  0.0884  0.0713  0.5091
10285SOL    HW134001   2.547   0.343   7.032  0.1136  0.0553 -0.2202
10285SOL    HW234002   2.639   0.243   6.964  0.7197  0.1240  0.4903
10286SOL     OW34003   1.189   6.987   5.950  0.6363  0.6088 -0.1933
10286SOL    HW134004   1.099   6.956   5.962  1.1929 -0.4317  1.7141
10286SOL    HW234005   1.187   7.077   5.982  0.2558  0.6062 -0.2011
10287SOL     OW34006   2.760   2.138   5.463  0.1838  0.1475 -0.0302
10287SOL    HW134007   2.739   2.084   5.539  1.2688 -2.3472 -1.3805
10287SOL    HW234008   2.832   2.194   5.493  0.4107 -0.5993  0.8761
10288SOL     OW34009   4.932   1.268   5.371 -0.6961 -0.2959  0.0082
10288SOL    HW134010   4.838   1.286   5.365 -0.4733  1.3162  0.8294
10288SOL    HW234011   4.971   1.352   5.396  1.2103 -0.4283 -2.2311
10289SOL     OW34012   6.259   2.697   2.982 -0.7292 -0.7030  0.5489
10289SOL    HW134013   6.337   2.666   3.029  0.0271 -1.2036 -0.9715
10289SOL    HW234014   6.214   2.616   2.957 -0.8782 -0.4628  0.0380
10290SOL     OW34015   7.799   1.814   1.979  0.0609  0.0369 -0.5120
10290SOL    HW134016   7.801   1.788   1.887  0.0070 -0.6993 -0.3134
10290SOL    HW234017   7.887   1.849   1.995 -0.6838  2.5310 -1.4747
10291SOL     OW34018   7.965   2.985   4.731 -0.1727  0.4555 -0.2266
10291SOL    HW134019   7.976   3.002   4.638  0.4661  0.6479 -0.1195
10291SOL    HW234020   7.872   3.001   4.748  0.0645  2.3358 -0.4487
10292SOL     OW34021   3.155   1.209   4.628  0.1474 -0.8731 -0.3654
10292SOL    HW134022   3.229   1.160   4.591  1.0012 -0.6367  0.9691
10292SOL    HW234023   3.103   1.143   4.674 -0.0962 -0.9252 -0.7116
10293SOL     OW34024   7.997   5.341   6.892  0.2608  0.4245 -0.0601
10293SOL    HW134025   8.060   5.291   6.840 -0.2338 -0.7667  0.4475
10293SOL    HW234026   8.046   5.370   6.969  0.7889  1.5228 -0.7983
10294SOL     OW34027   3.352   2.048   2.443 -0.1966 -0.1120 -0.8350
10294SOL    HW134028   3.416   1.981   2.419  0.5130  0.5250 -0.7506
10294SOL    HW234029   3.378   2.077   2.530 -1.7350 -1.1691  0.0388
10295SOL     OW34030   3.447   7.358   4.743  0.8350  0.7029 -0.0886
10295SOL    HW134031   3.391   7.281   4.753  1.4870  0.3007  0.5921
10295SOL    HW234032   3.402   7.413   4.679  1.5244 -1.3671 -2.5222
10296SOL     OW34033   2.903   5.435   4.489  0.0279 -0.7176  0.1248
10296SOL    HW134034   2.862   5.373   4.550 -0.0022 -0.5540  0.2715
10296SOL    HW234035   2.832   5.461   4.430  0.0655 -0.9037 -0.0035
10297SOL     OW34036   4.326   1.852   6.755 -0.0445 -0.7097 -0.2672
10297SOL    HW134037   4.299   1.914   6.822  0.7120 -1.5081  0.8165
10297SOL    HW234038   4.419   1.869   6.742 -0.0978 -0.8203 -0.8361
10298SOL     OW34039   5.509   1.754   6.359 -0.0955  0.1678 -0.0621
10298SOL    HW134040   5.469   1.695   6.295 -1.2702  1.2083 -0.3373
10298SOL    HW234041   5.494   1.841   6.323  0.2712  0.7125  1.0697
10299SOL     OW34042   5.549   4.334   5.885 -0.2717  0.2747 -0.3848
10299SOL    HW134043   5.482   4.309   5.949 -1.5042 -1.9092 -2.3675
10299SOL    HW234044   5.521   4.292   5.803  3.2297 -0.2887 -1.4676
10300SOL     OW34045   5.600   3.635   4.027  0.1600  0.3867  0.0551
10300SOL    HW134046   5.542   3.708   4.050 -2.8212 -1.9062  0.3376
10300SOL    HW234047   5.621   3.594   4.111  1.8666  0.8557 -0.1024
10301SOL     OW34048   1.084   1.433   1.450 -0.3969  0.3239  0.0410
10301SOL    HW134049   1.114   1.345   1.427 -0.2971  0.5686 -0.8106
10301SOL    HW234050   0.995   1.421   1.483 -0.4851 -0.0726 -0.3344
10302SOL     OW34051   3.977   0.311   3.694 -0.3011  0.3717  0.4899
10302SOL    HW134052   3.929   0.379   3.741  1.3523  2.0138 -0.0928
10302SOL    HW234053   3.933   0.305   3.609 -0.2034  1.0021  0.3955
10303SOL     OW34054   7.332   8.079   6.769 -0.0344  0.0901 -0.0633
10303SOL    HW134055   7.387   8.030   6.707 -0.9257  0.3252 -1.0692
10303SOL    HW234056   7.344   8.171   6.743  1.2931  0.4124  1.5407
10304SOL     OW34057   7.549   6.466   6.497  0.1785 -0.2030 -0.5724
10304SOL    HW134058   7.609   6.539   6.517  0.7397 -0.9843  0.7608
10304SOL    HW234059   7.553   6.457   6.402  0.5974  1.0922 -0.6983
10305SOL     OW34060   2.798   1.399   0.308 -0.8252  0.4477  0.8312
10305SOL    HW134061   2.761   1.369   0.391 -0.5261  0.3146  0.9171
10305SOL    HW234062   2.893   1.402   0.323 -0.7686  0.4179  0.4939
10306SOL     OW34063   7.067   5.229   2.982 -0.3467 -0.2101 -0.3282
10306SOL    HW134064   7.123   5.180   3.042  1.9115  0.9468 -1.3409
10306SOL    HW234065   7.053   5.169   2.908  1.3998  0.1702 -1.0189
10307SOL     OW34066   4.432   4.649   7.821 -0.3504  0.0157  0.6457
10307SOL    HW134067   4.355   4.595   7.804 -1.4436  1.9593 -0.8702
10307SOL    HW234068   4.483   4.644   7.741 -0.4240  1.1287  0.5124
10308SOL     OW34069   6.445   0.128   1.638 -0.1033  0.5321  0.0966
10308SOL    HW134070   6.392   0.207   1.645 -1.9299 -0.6542  0.4531
10308SOL    HW234071   6.387   0.063   1.598  1.0889 -0.8213  0.4539
10309SOL     OW34072   2.218   3.149   7.942 -0.2466 -0.4727  0.6582
10309SOL    HW134073   2.137   3.106   7.969 -0.3200  0.0214  1.2530
10309SOL    HW234074   2.274   3.078   7.909 -0.2643 -1.0649  1.8520
10310SOL     OW34075   2.228   7.239   5.021  0.4841  0.4134  0.0542
10310SOL    HW134076   2.173   7.315   5.005  2.1729  1.8312  0.7317
10310SOL    HW234077   2.317   7.273   5.025  1.3129 -1.6074  0.3502
10311SOL     OW34078   1.164   1.042   5.370  0.3172 -0.4999 -0.3861
10311SOL    HW134079   1.252   1.053   5.408  0.4079 -0.0054 -0.7350
10311SOL    HW234080   1.176   1.060   5.277 -0.2262 -0.0968 -0.3786
10312SOL     OW34081   7.100   6.504   2.146 -0.0682  0.0566 -0.0281
10312SOL    HW134082   7.177   6.552   2.175 -0.9873  0.7897  1.3286
10312SOL    HW234083   7.110   6.417   2.185 -0.2081  0.3420  0.6618
10313SOL     OW34084   0.986   5.183   1.607 -0.0691  0.0164 -0.4398
10313SOL    HW134085   1.073   5.174   1.567  0.6384  0.1072  0.9962
10313SOL    HW234086   0.966   5.276   1.601  2.0220  0.9119  3.1504
10314SOL     OW34087   1.931   1.730   4.562 -0.0370  0.1876  0.1966
10314SOL    HW134088   1.843   1.756   4.588  0.1195  0.1117  0.7981
10314SOL    HW234089   1.938   1.759   4.471 -0.0509  1.7645  0.6784
10315SOL     OW34090   7.200   5.656   6.370 -0.0495 -0.1040 -0.3606
10315SOL    HW134091   7.209   5.569   6.408  0.1613  0.5884  1.2633
10315SOL    HW234092   7.280   5.668   6.320 -0.4204 -1.1245 -1.2315
10316SOL     OW34093   5.256   5.702   1.908  0.1374 -0.0106  0.1327
10316SOL    HW134094   5.194   5.688   1.836  0.8378  0.4975 -0.5838
10316SOL    HW234095   5.308   5.621   1.911  0.4929  0.1926 -0.3323
10317SOL     OW34096   7.576   5.704   2.421 -0.0243 -0.2122 -0.7391
10317SOL    HW134097   7.499   5.750   2.456  0.6278  2.1074 -2.1278
10317SOL    HW234098   7.577   5.726   2.328  2.2550 -0.2303 -0.7725
10318SOL     OW34099   2.866   2.483   6.556  0.2479 -0.4980  0.2782
10318SOL    HW134100   2.819   2.546   6.502  1.4251  0.4883  0.3648
10318SOL    HW234101   2.797   2.432   6.599 -0.7114  0.0384 -0.5950
10319SOL     OW34102   3.826   3.925   1.748  0.2571 -0.3183 -0.6746
10319SOL    HW134103   3.803   3.932   1.841 -2.1503  1.9046 -1.3253
10319SOL    HW234104   3.742   3.916   1.703  1.3134 -0.6410 -2.7049
10320SOL     OW34105   8.029   3.999   3.312 -0.2631 -0.2393 -0.8003
10320SOL    HW134106   8.118   4.001   3.346 -1.0239  2.1025  1.3693
10320SOL    HW234107   8.022   3.915   3.266  2.0977 -1.9237  1.6414
10321SOL     OW34108   6.094   5.080   4.117 -0.3630  0.6335  0.2605
10321SOL    HW134109   6.042   5.058   4.039 -0.8903  0.1720  0.7404
10321SOL    HW234110   6.184   5.064   4.090 -0.2450  3.1475 -1.1787
10322SOL     OW34111   4.604   5.780   1.400  0.4085 -0.5741  0.2950
10322SOL    HW134112   4.692   5.779   1.365  0.5092 -0.9533  0.5555
10322SOL    HW234113   4.614   5.756   1.492  0.2723  1.3726  0.8688
10323SOL     OW34114   5.973   7.222   6.479 -0.3050  0.0781  0.1548
10323SOL    HW134115   5.902   7.285   6.463 -1.6056 -1.0725  1.0914
10323SOL    HW234116   5.972   7.209   6.574  1.6041  0.4736  0.2643
10324SOL     OW34117   0.990   7.297   5.768  0.6649  0.0041  0.0471
10324SOL    HW134118   0.920   7.276   5.706  0.0715 -0.4506  0.8423
10324SOL    HW234119   1.050   7.353   5.719  0.4572 -0.7217 -1.0759
10325SOL     OW34120   0.704   3.558   7.681  0.3297 -0.1520  0.1524
10325SOL    HW134121   0.738   3.605   7.606  0.7155 -0.3920  0.1769
10325SOL    HW234122   0.768   3.489   7.698 -0.4521 -0.9770 -0.1628
10326SOL     OW34123   3.551   6.610   4.506  0.2575 -0.1304 -0.3120
10326SOL    HW134124   3.518   6.612   4.596 -0.8091  0.6099 -0.6904
10326SOL    HW234125   3.538   6.520   4.478 -0.7024 -0.0485 -0.1655
10327SOL     OW34126   0.760   4.713   1.251  0.3424  0.8167 -0.2788
10327SOL    HW134127   0.695   4.690   1.317  1.3826  0.1363  0.5245
10327SOL    HW234128   0.741   4.656   1.177  0.3017  0.3104  0.1208
10328SOL     OW34129   5.774   5.193   2.969  0.0611  0.3795  0.4877
10328SOL    HW134130   5.867   5.201   2.991  0.0219  0.2721  0.6907
10328SOL    HW234131   5.771   5.206   2.874  0.4810 -1.1512  0.2257
10329SOL     OW34132   2.928   7.293   7.357 -0.4210  0.1615  0.0219
10329SOL    HW134133   2.880   7.210   7.354  0.3214 -0.2510 -1.6584
10329SOL    HW234134   2.966   7.296   7.445 -1.9614 -0.3828  0.7387
10330SOL     OW34135   6.075   6.641   2.818  0.1722 -0.5146 -0.5597
10330SOL    HW134136   5.980   6.646   2.826  0.1953  1.4322 -0.9962
10330SOL    HW234137   6.102   6.589   2.894 -1.1342  0.1652  0.4326
10331SOL     OW34138   1.786   4.358   7.066 -0.9506 -0.5328 -0.8008
10331SOL    HW134139   1.725   4.431   7.061 -0.0431  0.4427  1.3748
10331SOL    HW234140   1.735   4.286   7.102 -0.9274  0.2297  0.8492
10332SOL     OW34141   1.389   2.352   6.103 -0.3396  0.5465  0.6663
10332SOL    HW134142   1.329   2.360   6.177 -0.4195 -0.2922  0.7053
10332SOL    HW234143   1.335   2.319   6.031  0.3992 -2.0634  1.2238
10333SOL     OW34144   2.587   3.514   2.162 -0.0838 -0.3801 -0.2850
10333SOL    HW134145   2.614   3.583   2.223 -1.9040 -0.7989  1.0899
10333SOL    HW234146   2.623   3.433   2.200  0.9529 -0.3790 -1.2002
10334SOL     OW34147   2.051   6.904   6.757 -0.2732  0.2672  0.0995
10334SOL    HW134148   1.979   6.881   6.816 -1.2632 -1.4206 -1.6300
10334SOL    HW234149   2.111   6.830   6.763 -0.1097  0.3369 -0.5777
10335SOL     OW34150   7.872   2.938   0.736  0.1109  0.4182  0.3301
10335SOL    HW134151   7.914   2.988   0.666 -0.5771 -0.2150 -0.5649
10335SOL    HW234152   7.813   3.000   0.778  1.4309  1.1412  1.1858
10336SOL     OW34153   7.375   4.473   3.234 -0.6610  0.3076  0.4872
10336SOL    HW134154   7.340   4.437   3.316  0.0107 -1.5418  0.0029
10336SOL    HW234155   7.297   4.492   3.181 -1.0423 -1.6996  0.2600
10337SOL     OW34156   2.069   5.044   7.293  0.3610 -0.1749 -0.1047
10337SOL    HW134157   2.030   5.131   7.299  0.6929 -0.0291 -0.0511
10337SOL    HW234158   1.997   4.987   7.266  0.1000  0.0848  0.0417
10338SOL     OW34159   0.361   7.092   1.887 -0.6844  0.4271  0.1308
10338SOL    HW134160   0.372   7.180   1.921 -2.0071  0.8184 -0.4193
10338SOL    HW234161   0.395   7.096   1.798  0.0962  0.1343  0.4041
10339SOL     OW34162   2.073   1.401   4.760 -0.2290 -0.2953 -0.6805
10339SOL    HW134163   2.155   1.448   4.770  0.9291 -2.4829  0.9618
10339SOL    HW234164   2.065   1.386   4.665  0.5026  1.1538 -0.9924
10340SOL     OW34165   5.853   7.197   0.699  0.1383 -0.6123  0.5299
10340SOL    HW134166   5.796   7.265   0.663  0.4033  0.7694  2.5535
10340SOL    HW234167   5.903   7.165   0.624 -0.1414  1.2982 -0.5211
10341SOL     OW34168   1.100   7.595   1.141  0.3282  0.1312 -0.5935
10341SOL    HW134169   1.095   7.519   1.198  0.3637 -0.5147 -1.4356
10341SOL    HW234170   1.052   7.570   1.062 -0.1346  1.1853 -0.6588
10342SOL     OW34171   6.815   1.471   6.335  0.2416  0.3132 -0.3449
10342SOL    HW134172   6.762   1.403   6.377 -2.0977  0.9674 -2.0406
10342SOL    HW234173   6.885   1.423   6.290  0.4776 -0.6755  1.0293
10343SOL     OW34174   0.280   7.440   2.348 -0.2487 -0.5745  0.2648
10343SOL    HW134175   0.188   7.421   2.369 -0.3381 -0.4934 -0.0581
10343SOL    HW234176   0.319   7.354   2.332 -0.5803 -0.5283 -0.8919
10344SOL     OW34177   5.824   0.685   5.072 -0.0796  0.0765 -0.1828
10344SOL    HW134178   5.835   0.652   5.161 -0.4107  0.0380 -0.1556
10344SOL    HW234179   5.903   0.736   5.055  1.4898 -2.4479 -0.9778
10345SOL     OW34180   3.650   8.071   7.007 -0.2941  0.4474 -0.8765
10345SOL    HW134181   3.703   8.085   6.929 -0.8996 -0.3451 -1.4514
10345SOL    HW234182   3.713   8.069   7.079  0.3159  0.7800 -1.3942
10346SOL     OW34183   2.710   0.024   7.646  0.1473  0.7104  0.2798
10346SOL    HW134184   2.698   0.105   7.695  0.6048  0.5538  0.6493
10346SOL    HW234185   2.635   0.022   7.585  0.1860  1.4527  0.1993
10347SOL     OW34186   2.517   5.493   7.309  0.0743  0.2308 -0.6280
10347SOL    HW134187   2.461   5.415   7.303 -0.7375  0.5012  2.1142
10347SOL    HW234188   2.568   5.479   7.389  0.4003  2.2193 -0.4547
10348SOL     OW34189   4.557   1.087   5.690  0.0105  0.0330  0.3076
10348SOL    HW134190   4.541   0.992   5.690  2.2471 -0.4153 -1.2621
10348SOL    HW234191   4.523   1.116   5.774 -1.6584 -1.9763  0.4199
10349SOL     OW34192   2.372   3.921   1.401 -0.0894 -0.0201  0.1152
10349SOL    HW134193   2.455   3.968   1.398  1.1571 -1.7937  2.5802
10349SOL    HW234194   2.337   3.941   1.488 -2.4286  0.8775 -0.9664
10350SOL     OW34195   2.093   6.141   0.824  0.5103 -0.1821  0.2888
10350SOL    HW134196   2.039   6.126   0.902 -0.3537 -1.3710 -0.5168
10350SOL    HW234197   2.032   6.170   0.757  1.0855 -0.2092 -0.2527
10351SOL     OW34198   7.539   6.622   5.205 -0.0876  0.0270 -0.0141
10351SOL    HW134199   7.577   6.544   5.163  1.3626  0.8096 -0.2338
10351SOL    HW234200   7.533   6.598   5.297 -0.4847 -0.6564 -0.2077
10352SOL     OW34201   6.972   6.551   2.424  0.5175 -0.2548 -0.0335
10352SOL    HW134202   6.990   6.492   2.497  0.3033 -2.6174 -1.7682
10352SOL    HW234203   6.939   6.494   2.354  1.7776  1.6925 -2.3837
10353SOL     OW34204   6.722   7.128   2.044 -0.1756  1.0705 -0.3276
10353SOL    HW134205   6.734   7.085   2.129 -0.6076  0.5608 -0.5149
10353SOL    HW234206   6.627   7.122   2.028  0.1663 -1.0202 -1.9532
10354SOL     OW34207   5.277   7.750   1.268  0.3553  0.6843 -0.3093
10354SOL    HW134208   5.213   7.723   1.202  1.3718 -1.1891 -0.6063
10354SOL    HW234209   5.224   7.779   1.343 -0.8418  3.5032 -2.0777
10355SOL     OW34210   1.575   0.753   4.621 -0.3571 -0.2802 -0.1426
10355SOL    HW134211   1.639   0.733   4.553  0.2810  0.8624  0.0914
10355SOL    HW234212   1.605   0.703   4.698  2.0890  2.5005  0.8958
10356SOL     OW34213   0.650   0.909   2.252 -0.4757 -0.7783  0.3340
10356SOL    HW134214   0.619   0.842   2.313 -2.5056 -0.3847 -0.2094
10356SOL    HW234215   0.715   0.864   2.198 -0.8790 -1.9616  0.8025
10357SOL     OW34216   5.869   1.769   4.782 -0.1588  0.2449  0.1780
10357SOL    HW134217   5.890   1.713   4.708 -0.3791 -0.7893  0.8702
10357SOL    HW234218   5.778   1.746   4.804  0.1431 -0.0217  1.2283
10358SOL     OW34219   4.867   6.771   6.345  0.8082 -0.3841 -0.1205
10358SOL    HW134220   4.782   6.729   6.358  1.2989 -0.8089  2.2690
10358SOL    HW234221   4.905   6.726   6.269 -0.1304 -1.8607  0.2412
10359SOL     OW34222   6.709   4.243   7.274 -0.2981 -0.4148 -0.3340
10359SOL    HW134223   6.689   4.311   7.209  0.3101 -0.6864 -0.8134
10359SOL    HW234224   6.781   4.280   7.325 -0.3123 -0.4930 -0.2581
10360SOL     OW34225   1.551   7.981   3.233  0.2748 -0.3727  0.2013
10360SOL    HW134226   1.629   7.960   3.284  1.3669  0.5068 -1.0351
10360SOL    HW234227   1.510   8.053   3.281  0.5169 -0.4861  0.5865
10361SOL     OW34228   5.144   5.808   7.821  0.4579 -0.8956  0.4014
10361SOL    HW134229   5.053   5.838   7.816  0.7204 -0.3195 -1.8009
10361SOL    HW234230   5.195   5.877   7.779  1.7743 -1.8161  0.4158
10362SOL     OW34231   1.293   3.317   4.293  0.2967  0.1506 -0.5189
10362SOL    HW134232   1.283   3.342   4.385  1.7857 -0.9527 -0.0090
10362SOL    HW234233   1.220   3.257   4.276  0.8047 -0.7656  0.3973
10363SOL     OW34234   2.337   0.144   7.225 -0.3429 -0.5013  0.3040
10363SOL    HW134235   2.372   0.069   7.176  0.3116  0.4536 -0.7402
10363SOL    HW234236   2.357   0.219   7.170 -1.3401  0.4081  1.1505
10364SOL     OW34237   3.250   3.922   3.533 -0.3127  0.9442 -0.2996
10364SOL    HW134238   3.220   3.838   3.499  0.6595  1.0522 -1.5265
10364SOL    HW234239   3.201   3.987   3.483 -0.4579  1.1099  0.0568
10365SOL     OW34240   0.265   2.730   7.532  0.3143 -0.0351 -0.2142
10365SOL    HW134241   0.230   2.819   7.526 -1.0626 -0.5744 -0.6225
10365SOL    HW234242   0.355   2.737   7.501  0.0805  1.1344 -0.6837
10366SOL     OW34243   4.609   0.788   7.791  0.1300 -0.4171  0.4293
10366SOL    HW134244   4.554   0.776   7.869  1.4390 -2.0194  1.1628
10366SOL    HW234245   4.596   0.707   7.740  0.1529  0.1336 -0.4736
10367SOL     OW34246   0.053   7.539   7.868 -0.0703  0.6318  0.0374
10367SOL    HW134247   0.023   7.494   7.789 -0.3733 -1.6839  1.3635
10367SOL    HW234248   0.148   7.538   7.862 -0.0548  2.8518 -1.4603
10368SOL     OW34249   4.967   2.454   3.444  0.1720  0.2880  0.0160
10368SOL    HW134250   5.011   2.534   3.474  2.2091 -0.5186 -0.6926
10368SOL    HW234251   4.875   2.467   3.469  1.0742  1.2331  3.3085
10369SOL     OW34252   6.859   6.019   3.413 -0.4038 -0.2213 -0.1170
10369SOL    HW134253   6.903   5.953   3.359  0.5361  1.0395 -0.9532
10369SOL    HW234254   6.803   6.067   3.351 -1.7779 -0.7861  0.6465
10370SOL     OW34255   1.238   3.930   4.689 -0.2679  0.3849  0.4066
10370SOL    HW134256   1.147   3.923   4.720 -0.4877 -1.0713 -0.4535
10370SOL    HW234257   1.289   3.883   4.754 -0.1812  0.8258  0.6606
10371SOL     OW34258   4.276   3.816   5.553 -0.0347  0.0732 -0.1976
10371SOL    HW134259   4.326   3.885   5.509  0.6343 -1.1927 -1.5023
10371SOL    HW234260   4.201   3.800   5.496 -0.5773  0.1980  0.4652
10372SOL     OW34261   7.183   2.341   0.073 -0.2722  0.0665  0.4347
10372SOL    HW134262   7.210   2.327  -0.018 -1.6223 -0.9827  0.1514
10372SOL    HW234263   7.188   2.254   0.112  2.0144  0.7746  1.9222
10373SOL     OW34264   1.009   4.079   6.888 -0.3881  0.3863 -0.7364
10373SOL    HW134265   1.084   4.133   6.914 -0.7772  1.2238 -1.2971
10373SOL    HW234266   0.993   4.103   6.796 -1.3931  0.2916 -0.5974
10374SOL     OW34267   2.970   3.271   2.289 -0.1699  0.2464 -0.6174
10374SOL    HW134268   3.038   3.262   2.223  0.8526 -1.1225  0.5415
10374SOL    HW234269   3.013   3.316   2.362  0.2414 -2.3902  0.9371
10375SOL     OW34270   7.289   8.049   3.760  0.0451  0.0955 -0.0567
10375SOL    HW134271   7.355   8.098   3.811  0.4927  0.5109 -1.0050
10375SOL    HW234272   7.331   8.034   3.675 -0.8284 -0.2515 -0.4377
10376SOL     OW34273   1.587   1.309   6.232  0.6140  0.4159 -0.0223
10376SOL    HW134274   1.667   1.326   6.281 -0.1584  1.9146  0.7843
10376SOL    HW234275   1.596   1.359   6.151  0.0812  1.4267  0.5261
10377SOL     OW34276   0.675   0.668   4.300 -0.5730 -0.1374  0.1938
10377SOL    HW134277   0.737   0.739   4.285  1.0478 -1.7272 -1.0387
10377SOL    HW234278   0.594   0.697   4.257 -0.4565  1.5899  1.0679
10378SOL     OW34279   5.569   3.154   5.101 -0.0346  0.6372 -0.2751
10378SOL    HW134280   5.570   3.199   5.185  1.2297 -1.0457  0.6831
10378SOL    HW234281   5.658   3.121   5.090 -0.5479 -0.4295 -1.5519
10379SOL     OW34282   0.363   5.424   1.021  0.3674 -0.0368  0.6877
10379SOL    HW134283   0.371   5.511   0.983 -1.7116 -0.0527  0.0827
10379SOL    HW234284   0.421   5.369   0.968 -0.1084  0.5489 -0.4746
10380SOL     OW34285   1.598   4.908   5.435  0.1001  0.5073 -0.6634
10380SOL    HW134286   1.551   4.921   5.352 -1.5743 -1.5254 -0.1157
10380SOL    HW234287   1.662   4.840   5.416  0.2376  0.5825 -0.4681
10381SOL     OW34288   0.949   6.941   2.806  0.0169 -0.3904  0.4421
10381SOL    HW134289   0.909   7.025   2.784 -0.3637 -0.2147  1.7071
10381SOL    HW234290   1.021   6.964   2.864 -0.5348 -0.9739  1.3762
10382SOL     OW34291   2.871   6.392   7.739  0.2708  0.6020 -0.7531
10382SOL    HW134292   2.856   6.320   7.677 -0.5178  0.8328 -0.8424
10382SOL    HW234293   2.810   6.460   7.711  1.3104  1.4928 -0.9428
10383SOL     OW34294   2.474   0.879   7.053  0.7812 -0.0737  0.0647
10383SOL    HW134295   2.429   0.856   7.135 -1.8337 -0.1113 -1.2735
10383SOL    HW234296   2.543   0.939   7.080 -0.3388  0.3501  2.2591
10384SOL     OW34297   8.013   4.324   0.312 -0.1272  0.0151 -0.0035
10384SOL    HW134298   8.092   4.283   0.347 -0.6182 -1.0796 -0.1359
10384SOL    HW234299   8.026   4.417   0.327  2.0301  0.0641 -1.6951
10385SOL     OW34300   6.060   0.985   5.466  0.0454  0.0149  0.0394
10385SOL    HW134301   6.091   0.934   5.541  0.9207  0.3227 -0.1110
10385SOL    HW234302   5.965   0.971   5.466  0.0945 -0.3817  0.9108
10386SOL     OW34303   7.147   1.902   3.950  0.5391  0.4009  0.1104
10386SOL    HW134304   7.109   1.983   3.918 -0.5055 -0.9007 -2.2218
10386SOL    HW234305   7.125   1.900   4.043 -1.6724  1.5993 -0.3149
10387SOL     OW34306   0.510   3.582   1.637 -0.3027 -0.1979 -0.4696
10387SOL    HW134307   0.415   3.566   1.631 -0.2215 -0.1971 -2.3449
10387SOL    HW234308   0.541   3.517   1.700 -1.4960 -0.4414 -0.1011
10388SOL     OW34309   2.436   2.388   2.849 -0.6396  0.0555  0.3577
10388SOL    HW134310   2.369   2.381   2.782  0.3187  1.4729 -0.7950
10388SOL    HW234311   2.462   2.480   2.848  0.5350 -0.2340  1.5617
10389SOL     OW34312   7.340   5.044   2.002  0.3514  0.3496  0.1691
10389SOL    HW134313   7.265   5.099   2.023  0.1046 -0.0240  0.2709
10389SOL    HW234314   7.314   4.956   2.028  0.9587  0.2732  0.5490
10390SOL     OW34315   3.850   5.958   6.003 -0.1843  0.7475  0.4413
10390SOL    HW134316   3.917   6.013   6.044  0.6733  0.0649 -0.0128
10390SOL    HW234317   3.826   5.895   6.071  0.9611 -0.1422  0.0663
10391SOL     OW34318   5.530   3.358   6.824 -0.0770 -0.0958  0.0081
10391SOL    HW134319   5.498   3.338   6.737  0.0028  2.4515 -0.6753
10391SOL    HW234320   5.469   3.423   6.859  1.1880  0.6838  0.8939
10392SOL     OW34321   0.839   7.111   8.040  0.0139  0.3590  0.1400
10392SOL    HW134322   0.886   7.194   8.055  0.2245  0.2094  0.3178
10392SOL    HW234323   0.747   7.136   8.038  0.0346  0.5073  0.8382
10393SOL     OW34324   2.977   0.205   5.274  0.1282  0.3725  0.2676
10393SOL    HW134325   2.919   0.214   5.199 -0.1932 -1.5628  0.2176
10393SOL    HW234326   2.926   0.237   5.349 -0.6813 -0.4102  0.0747
10394SOL     OW34327   4.312   1.772   7.160  0.2612  0.1976 -0.5892
10394SOL    HW134328   4.314   1.827   7.238  1.0904 -1.0718  0.3123
10394SOL    HW234329   4.393   1.794   7.113  0.3121  0.1642 -0.5177
10395SOL     OW34330   4.714   2.756   4.516 -0.0779  0.3770  0.2390
10395SOL    HW134331   4.743   2.718   4.433 -0.5092 -2.7477  1.3741
10395SOL    HW234332   4.704   2.849   4.498  0.5910 -0.0654 -2.9836
10396SOL     OW34333   4.921   2.519   1.384  0.1323  0.0145 -0.2375
10396SOL    HW134334   4.943   2.450   1.321  1.6492  0.6031 -0.3942
10396SOL    HW234335   4.916   2.598   1.332  2.5584  0.7170  0.4632
10397SOL     OW34336   2.852   4.378   6.178 -0.0492 -0.1050  0.1757
10397SOL    HW134337   2.921   4.326   6.219 -0.2787 -0.2701  0.3523
10397SOL    HW234338   2.805   4.316   6.122 -1.3970 -0.4967  1.6795
10398SOL     OW34339   3.420   7.356   0.204  0.5996 -0.3657  0.3215
10398SOL    HW134340   3.336   7.311   0.198  0.7956 -0.6797 -0.0593
10398SOL    HW234341   3.397   7.443   0.238  0.1351 -0.4794  0.3141
10399SOL     OW34342   5.590   2.016   5.161  0.1980 -0.2519  0.0174
10399SOL    HW134343   5.498   1.999   5.180  0.2164 -0.1018  0.2481
10399SOL    HW234344   5.604   2.107   5.188  0.7475 -0.6841  1.2827
10400SOL     OW34345   4.335   3.130   0.818  0.2416 -0.0702  0.0488
10400SOL    HW134346   4.414   3.099   0.773  0.3732 -1.0651  0.9311
10400SOL    HW234347   4.279   3.162   0.747  1.9444  1.9125 -0.4914
10401SOL     OW34348   2.052   4.532   5.956  0.2807 -0.2144  0.1473
10401SOL    HW134349   1.973   4.577   5.925 -0.2751 -0.5878  0.9715
10401SOL    HW234350   2.032   4.439   5.945  0.9577 -0.2919 -0.4483
10402SOL     OW34351   1.355   1.402   5.314 -0.2551 -0.1308 -0.5113
10402SOL    HW134352   1.441   1.383   5.350 -0.1180  0.6035 -0.4449
10402SOL    HW234353   1.299   1.414   5.391 -0.2583  0.0945 -0.5476
10403SOL     OW34354   5.377   0.135   4.233 -0.3364 -0.6277 -0.5697
10403SOL    HW134355   5.371   0.165   4.323 -2.2330 -1.6632 -0.2932
10403SOL    HW234356   5.317   0.192   4.184  2.2419  1.3394 -1.6696
10404SOL     OW34357   5.301   4.042   5.543  0.4071  0.0127 -0.1015
10404SOL    HW134358   5.223   4.013   5.590 -0.4757  0.7089 -1.0930
10404SOL    HW234359   5.319   3.973   5.479  0.6158 -0.1478  0.1266
10405SOL     OW34360   6.667   2.892   1.794 -0.4295 -0.3982  0.0783
10405SOL    HW134361   6.658   2.987   1.794 -2.6545 -0.5132  2.0553
10405SOL    HW234362   6.731   2.873   1.863  1.0941 -0.3673 -1.2429
10406SOL     OW34363   6.928   8.011   2.493  0.0621 -0.1432 -0.0587
10406SOL    HW134364   6.841   8.019   2.456  0.1488  0.9962 -0.0270
10406SOL    HW234365   6.921   8.047   2.581  0.7053  0.5456 -0.2795
10407SOL     OW34366   6.009   1.617   7.286 -0.9292 -0.0375  0.9761
10407SOL    HW134367   5.981   1.621   7.195  0.8523  1.1266  0.4152
10407SOL    HW234368   6.005   1.708   7.316  0.8898 -0.0028  1.2348
10408SOL     OW34369   3.178   6.504   7.485  0.2962 -0.0834 -0.4042
10408SOL    HW134370   3.189   6.543   7.398  1.4279  1.2682  0.2914
10408SOL    HW234371   3.187   6.578   7.546  2.5088 -1.3926  1.0088
10409SOL     OW34372   1.480   3.105   3.987 -0.2318 -0.1372 -0.2005
10409SOL    HW134373   1.482   3.198   3.965 -0.6283 -0.3479 -1.1505
10409SOL    HW234374   1.519   3.101   4.075  0.0694  0.8816 -0.2713
10410SOL     OW34375   0.970   4.001   4.675 -0.4077 -0.0566  0.2272
10410SOL    HW134376   1.034   4.060   4.636 -0.6757 -0.3072 -0.6060
10410SOL    HW234377   0.897   4.057   4.701 -0.9148 -0.0804 -1.0941
10411SOL     OW34378   7.497   2.796   0.854  0.2694 -0.9117  0.1936
10411SOL    HW134379   7.573   2.743   0.829  0.9349  0.4816 -0.9466
10411SOL    HW234380   7.465   2.832   0.771 -0.4484  0.0511  0.8710
10412SOL     OW34381   6.636   5.194   3.204  0.5645 -0.2485  0.2159
10412SOL    HW134382   6.662   5.222   3.116  0.6289 -0.8675  0.0321
10412SOL    HW234383   6.540   5.188   3.200  0.5068  0.3972  0.4007
10413SOL     OW34384   1.730   6.725   6.186 -0.0841  0.1804 -0.1340
10413SOL    HW134385   1.766   6.799   6.137 -2.2402  0.5351 -1.2946
10413SOL    HW234386   1.697   6.765   6.267  0.3815  0.1690  0.0649
10414SOL     OW34387   3.758   7.777   6.349 -0.0734  0.0613  0.2218
10414SOL    HW134388   3.671   7.760   6.385  0.0547 -0.8230  0.1416
10414SOL    HW234389   3.791   7.852   6.400 -0.4704 -0.2452  0.9506
10415SOL     OW34390   1.447   0.760   0.415 -0.5123 -0.3807 -0.1355
10415SOL    HW134391   1.431   0.735   0.324  0.5457  1.2549 -0.8163
10415SOL    HW234392   1.532   0.720   0.436  0.6482  1.5710 -0.8654
10416SOL     OW34393   5.040   1.574   4.081  0.3382 -0.4767 -0.6879
10416SOL    HW134394   4.999   1.587   3.995 -0.2894 -1.5165 -0.5679
10416SOL    HW234395   4.998   1.495   4.115 -0.3974  0.6641  1.1705
10417SOL     OW34396   0.952   0.102   3.739  0.5174  0.5512 -0.0796
10417SOL    HW134397   0.893   0.030   3.760  0.8958  0.4234  0.5660
10417SOL    HW234398   0.954   0.105   3.643 -1.3747  1.2582 -0.1399
10418SOL     OW34399   2.832   4.371   7.733 -0.4082  0.0252  0.0627
10418SOL    HW134400   2.899   4.372   7.802 -0.0057  0.3410 -0.3259
10418SOL    HW234401   2.862   4.436   7.670  1.0775 -2.6186 -2.1652
10419SOL     OW34402   0.686   2.005   6.825 -0.0844 -0.5468 -0.3441
10419SOL    HW134403   0.655   1.934   6.881  1.3076 -1.2729 -0.4271
10419SOL    HW234404   0.645   1.988   6.740  0.3107 -1.3315 -0.3900
10420SOL     OW34405   6.363   1.264   2.572  0.3045 -0.0426 -0.2759
10420SOL    HW134406   6.324   1.310   2.497  0.4016  0.6316  0.0778
10420SOL    HW234407   6.368   1.173   2.544  0.2505  0.1826 -1.0573
10421SOL     OW34408   7.535   5.672   1.231 -0.0999  0.4973  0.7654
10421SOL    HW134409   7.472   5.608   1.199 -0.5581  1.5229 -0.4723
10421SOL    HW234410   7.607   5.668   1.167 -0.4165  1.6224  0.3018
10422SOL     OW34411   1.399   6.360   4.888  0.4540  0.0123 -0.3092
10422SOL    HW134412   1.488   6.371   4.922  0.4623  0.3976 -0.4510
10422SOL    HW234413   1.344   6.411   4.947  0.4461  0.5314 -0.7596
10423SOL     OW34414   2.134   0.055   6.920  0.5791 -0.5422 -0.2835
10423SOL    HW134415   2.069   0.037   6.853  0.6001  0.6410 -0.6434
10423SOL    HW234416   2.139  -0.026   6.971  0.4652 -1.4075 -1.6096
10424SOL     OW34417   5.924   2.442   2.694 -0.1411 -0.2893  0.0608
10424SOL    HW134418   5.973   2.470   2.771 -0.4952  1.6123 -0.3685
10424SOL    HW234419   5.863   2.376   2.727 -1.3506  1.5560  1.7521
10425SOL     OW34420   3.764   3.128   2.194 -0.2192 -0.5387  0.3665
10425SOL    HW134421   3.741   3.201   2.251 -1.2856 -0.3019 -0.3357
10425SOL    HW234422   3.849   3.099   2.225  0.4467  1.2961  0.3604
10426SOL     OW34423   1.493   1.826   3.892  0.7124  0.1249 -0.0936
10426SOL    HW134424   1.490   1.872   3.977 -3.5123  0.1279 -0.0146
10426SOL    HW234425   1.505   1.734   3.915 -0.8841  0.0622  0.6443
10427SOL     OW34426   5.026   5.923   6.852  0.4102  0.4493  0.0285
10427SOL    HW134427   4.985   5.845   6.815  1.6456 -0.3811  0.3665
10427SOL    HW234428   5.113   5.926   6.811  0.5406  1.3945  0.3548
10428SOL     OW34429   2.052   6.272   1.726  0.3196 -0.1236 -0.9933
10428SOL    HW134430   1.973   6.292   1.775  0.2783 -1.6705 -0.3515
10428SOL    HW234431   2.049   6.329   1.649 -0.8038  0.6676 -0.3840
10429SOL     OW34432   1.186   0.148   4.679 -0.0686  0.0602  0.1969
10429SOL    HW134433   1.178   0.127   4.772 -2.8435 -2.9702 -0.5179
10429SOL    HW234434   1.101   0.185   4.655  0.4547  0.4189 -1.2225
10430SOL     OW34435   4.706   1.388   0.479  0.0794 -0.2204  0.3350
10430SOL    HW134436   4.659   1.312   0.445  1.3460 -1.1123  0.4758
10430SOL    HW234437   4.673   1.400   0.567 -2.6676  1.6192 -0.8230
10431SOL     OW34438   7.635   3.573   1.398 -0.2230 -0.3284 -0.7305
10431SOL    HW134439   7.587   3.492   1.377 -2.4666  0.4536  0.9132
10431SOL    HW234440   7.621   3.629   1.322 -0.4954 -0.7320 -0.9864
10432SOL     OW34441   1.799   1.976   4.703  0.1910 -0.4917  0.5609
10432SOL    HW134442   1.883   1.939   4.730 -0.2360 -1.2191  0.9496
10432SOL    HW234443   1.744   1.899   4.688 -0.5443 -0.0145  0.7778
10433SOL     OW34444   5.605   1.318   1.893  0.0730 -0.8535 -0.0510
10433SOL    HW134445   5.699   1.305   1.885  0.7808  2.2887  1.4802
10433SOL    HW234446   5.587   1.395   1.838 -1.7554 -1.7426 -0.8035
10434SOL     OW34447   6.550   1.700   6.878  0.0712 -0.6106 -0.7769
10434SOL    HW134448   6.549   1.795   6.886 -1.4359 -0.7474  1.7690
10434SOL    HW234449   6.574   1.668   6.965  0.4521 -2.5709 -1.5401
10435SOL     OW34450   3.718   6.887   6.372  0.4873 -0.0904 -0.0423
10435SOL    HW134451   3.652   6.951   6.347  0.1238 -0.5125 -0.1750
10435SOL    HW234452   3.765   6.927   6.446 -0.8127 -0.3623  0.9580
10436SOL     OW34453   2.924   5.902   4.629  0.6799 -0.6112  0.0487
10436SOL    HW134454   2.956   5.817   4.598  0.3469 -1.8112  2.7075
10436SOL    HW234455   2.855   5.926   4.567  1.9309 -1.3989 -1.7452
10437SOL     OW34456   7.023   4.595   5.445  0.4969 -0.3086  0.4990
10437SOL    HW134457   7.079   4.611   5.520  0.2658  2.8971  0.1434
10437SOL    HW234458   7.083   4.595   5.370  0.3941 -0.2886  0.4162
10438SOL     OW34459   2.403   2.134   0.667  0.1003 -0.2445 -0.3708
10438SOL    HW134460   2.426   2.044   0.689 -0.4645  0.0996  1.8608
10438SOL    HW234461   2.472   2.162   0.607  0.7602 -1.8687 -0.4260
10439SOL     OW34462   3.489   1.641   3.001 -0.4106 -0.7441 -0.1860
10439SOL    HW134463   3.458   1.722   2.959 -0.4093  0.9893  2.8917
10439SOL    HW234464   3.580   1.659   3.023 -0.9049 -0.8187  2.1231
10440SOL     OW34465   2.042   6.626   1.840  0.2654  0.1560  0.0060
10440SOL    HW134466   2.094   6.602   1.763  1.1950  0.7739  0.4143
10440SOL    HW234467   2.012   6.715   1.822 -0.7289 -0.2221 -0.2534
10441SOL     OW34468   5.474   7.790   6.694  0.1947 -0.0496  0.0210
10441SOL    HW134469   5.467   7.881   6.668 -0.4010 -0.1389 -0.1561
10441SOL    HW234470   5.513   7.792   6.782  0.7254  0.3357 -0.2188
10442SOL     OW34471   7.438   3.691   3.855  0.2895 -0.4266 -0.7230
10442SOL    HW134472   7.429   3.763   3.917 -2.5793 -1.2178 -0.0828
10442SOL    HW234473   7.415   3.728   3.770  0.1278 -0.2833 -0.6162
10443SOL     OW34474   0.905   0.560   0.215  0.3717 -0.3321  0.2530
10443SOL    HW134475   0.844   0.545   0.287  2.0877 -0.2872  1.8170
10443SOL    HW234476   0.887   0.649   0.186 -1.2645 -0.8274 -0.3411
10444SOL     OW34477   7.580   0.365   3.710 -0.2998  0.5537  0.1670
10444SOL    HW134478   7.624   0.434   3.760  0.9733 -1.1482  1.5521
10444SOL    HW234479   7.643   0.293   3.711 -1.3615 -0.4525 -1.6837
10445SOL     OW34480   2.629   5.528   4.540  0.2517 -0.0594  0.1278
10445SOL    HW134481   2.577   5.467   4.592 -0.7431 -0.7322 -1.5643
10445SOL    HW234482   2.593   5.520   4.452  2.2430  0.6259 -0.7900
10446SOL     OW34483   6.793   3.234   6.678  0.2501  0.0546  0.6358
10446SOL    HW134484   6.789   3.144   6.711 -0.0153  0.2593  1.1702
10446SOL    HW234485   6.887   3.251   6.668  0.2912 -0.4350  0.0902
10447SOL     OW34486   2.425   6.689   2.323  0.4404 -0.0785  0.1480
10447SOL    HW134487   2.472   6.689   2.239 -0.1247  0.0209 -0.1739
10447SOL    HW234488   2.345   6.739   2.305 -0.0745 -0.7580  0.5239
10448SOL     OW34489   6.593   5.507   7.580 -0.4590  0.4371 -0.0078
10448SOL    HW134490   6.568   5.534   7.669  2.6314  0.8998  0.8631
10448SOL    HW234491   6.559   5.419   7.571  1.0188 -0.5168  2.6100
10449SOL     OW34492   4.031   3.102   2.649  0.0207  0.3052 -0.1098
10449SOL    HW134493   4.042   3.072   2.739  1.5378  0.9595 -0.0474
10449SOL    HW234494   4.116   3.087   2.609  0.5922  3.5854 -0.3398
10450SOL     OW34495   2.545   3.032   8.045 -0.2438  0.1717  0.1637
10450SOL    HW134496   2.569   3.013   7.954  0.3752  0.5529  0.2421
10450SOL    HW234497   2.590   2.966   8.097  1.9021  1.7398  0.4344
10451SOL     OW34498   0.136   6.230   3.485  0.3168  0.1029 -0.0657
10451SOL    HW134499   0.110   6.313   3.525 -1.0315  0.1225 -0.9398
10451SOL    HW234500   0.230   6.223   3.505 -0.3276 -0.2399  3.6610
10452SOL     OW34501   7.930   4.233   6.532  0.0945  0.3067  0.0155
10452SOL    HW134502   8.001   4.216   6.471 -0.9376  1.6511 -1.6270
10452SOL    HW234503   7.877   4.153   6.531  0.6995 -0.1002  0.0456
10453SOL     OW34504   6.775   0.003   3.131  0.4777 -1.0802 -0.6637
10453SOL    HW134505   6.856   0.046   3.105  0.8526 -1.2995  0.1315
10453SOL    HW234506   6.707   0.068   3.112  1.2472  1.0015  2.9038
10454SOL     OW34507   1.185   2.589   3.695  0.2125 -0.0540 -0.3931
10454SOL    HW134508   1.226   2.526   3.754  0.7011  0.7885  0.1888
10454SOL    HW234509   1.113   2.626   3.746 -1.1503 -1.3186 -1.3128
10455SOL     OW34510   6.363   8.006   5.449 -0.1234 -0.3807  0.3191
10455SOL    HW134511   6.324   8.086   5.416 -0.6793 -0.4856  0.7047
10455SOL    HW234512   6.393   8.029   5.537  3.0271  0.4418 -0.8270
10456SOL     OW34513   7.120   2.498   0.723  0.6526  0.1900 -0.2512
10456SOL    HW134514   7.193   2.530   0.775 -0.2926 -1.3806  2.2302
10456SOL    HW234515   7.153   2.418   0.682  0.4156 -0.4099  0.7068
10457SOL     OW34516   0.813   1.481   2.532  0.1152 -0.0036  0.2287
10457SOL    HW134517   0.769   1.563   2.509  0.9448 -0.2820 -2.6558
10457SOL    HW234518   0.755   1.441   2.597 -0.0623  3.0385  2.1697
10458SOL     OW34519   3.448   2.053   0.641  0.8340  0.1716  0.0633
10458SOL    HW134520   3.527   2.088   0.684 -0.3708  1.9124  1.0008
10458SOL    HW234521   3.380   2.059   0.708 -0.3913 -0.0728 -1.1161
10459SOL     OW34522   0.063   0.617   3.563  0.7120  0.0116 -0.0024
10459SOL    HW134523   0.117   0.655   3.633 -0.3551 -0.5169  1.1479
10459SOL    HW234524   0.035   0.532   3.597 -0.7782  0.2336 -0.5733
10460SOL     OW34525   6.018   7.316   0.172  0.2146  0.1365  0.0951
10460SOL    HW134526   6.012   7.378   0.099 -2.6816 -0.0126  0.0918
10460SOL    HW234527   6.105   7.330   0.209  1.4104  0.8764 -2.7835
10461SOL     OW34528   1.950   0.960   7.071 -0.5423 -0.2584 -0.4735
10461SOL    HW134529   2.033   1.005   7.054 -0.3077 -0.5971 -0.2664
10461SOL    HW234530   1.945   0.893   7.002 -1.3319  0.6618 -1.3249
10462SOL     OW34531   5.161   1.114   1.442  0.2092 -0.0796  0.3728
10462SOL    HW134532   5.226   1.048   1.419 -0.6635 -0.7608 -0.1798
10462SOL    HW234533   5.178   1.186   1.382 -0.7336 -1.0192 -1.0716
10463SOL     OW34534   4.738   1.404   3.952  0.4264  0.2772  0.1817
10463SOL    HW134535   4.776   1.464   4.016 -2.5404 -1.4369  3.9768
10463SOL    HW234536   4.695   1.461   3.888 -1.3483  2.3622  3.0050
10464SOL     OW34537   0.193   0.910   6.704 -0.3261  0.2975  0.3580
10464SOL    HW134538   0.176   0.990   6.654 -0.6447 -0.1392 -0.2411
10464SOL    HW234539   0.277   0.925   6.746 -0.5455  1.0848  0.5252
10465SOL     OW34540   4.038   3.477   7.301  0.5030  0.0592 -0.3661
10465SOL    HW134541   4.082   3.424   7.367  0.3869 -0.1688 -0.4709
10465SOL    HW234542   4.109   3.514   7.248  0.6274  0.7046  0.2321
10466SOL     OW34543   1.266   1.146   7.530 -0.5161 -0.0335 -0.3507
10466SOL    HW134544   1.236   1.169   7.442  1.1497 -1.2770 -1.2979
10466SOL    HW234545   1.317   1.066   7.518  0.4419  0.2154  1.6237
10467SOL     OW34546   4.157   4.829   1.571  0.1046  0.3055 -0.1949
10467SOL    HW134547   4.111   4.759   1.524  0.8714 -0.6830  0.4813
10467SOL    HW234548   4.249   4.802   1.567  0.3000  0.8148  0.8608
10468SOL     OW34549   3.040   2.911   4.590 -0.6143 -0.5439 -0.0893
10468SOL    HW134550   3.042   2.838   4.652 -1.7434 -1.4707 -1.0802
10468SOL    HW234551   2.954   2.951   4.603 -0.9709 -0.9060 -1.2019
10469SOL     OW34552   4.991   5.829   2.674  0.0420 -0.3060 -0.1574
10469SOL    HW134553   5.052   5.824   2.748 -0.3041  0.5974  0.2043
10469SOL    HW234554   5.038   5.786   2.602 -0.4279 -3.0506  1.0697
10470SOL     OW34555   1.809   3.872   4.473 -0.0740 -0.3476 -0.4331
10470SOL    HW134556   1.874   3.905   4.535  0.1243 -0.2159 -0.7061
10470SOL    HW234557   1.747   3.823   4.527 -0.4856  0.6382  0.0205
10471SOL     OW34558   3.058   6.927   4.867  0.1390 -0.0353 -0.2713
10471SOL    HW134559   2.976   6.878   4.875  0.3607 -0.3809 -0.0969
10471SOL    HW234560   3.119   6.882   4.925  0.5111  0.1021 -0.5498
10472SOL     OW34561   1.943   2.690   7.714  0.0708 -0.4032 -0.1146
10472SOL    HW134562   1.937   2.620   7.779 -1.8762  0.0733  0.2886
10472SOL    HW234563   1.874   2.670   7.651  0.8744  0.0307 -1.1625
10473SOL     OW34564   6.872   1.064   5.800  0.2934 -0.0761  0.9662
10473SOL    HW134565   6.954   1.072   5.751 -0.1395 -0.3113  0.1994
10473SOL    HW234566   6.900   1.059   5.892  1.1191  0.1596  0.7363
10474SOL     OW34567   5.015   2.392   5.915  0.0545 -0.1672  0.1251
10474SOL    HW134568   4.970   2.372   5.834  2.0264  0.5189 -1.2156
10474SOL    HW234569   4.983   2.326   5.977 -2.8202  0.3748 -0.6399
10475SOL     OW34570   5.205   0.690   5.248  0.5587 -0.4131  0.3848
10475SOL    HW134571   5.174   0.779   5.230 -0.5398 -0.9567 -0.5667
10475SOL    HW234572   5.300   0.695   5.236  0.3713  0.3321 -1.0758
10476SOL     OW34573   5.892   0.295   3.431  0.1640  0.1666  0.5625
10476SOL    HW134574   5.886   0.228   3.498 -0.2738 -2.7024 -2.1206
10476SOL    HW234575   5.802   0.319   3.411  0.1232 -0.8659 -0.6418
10477SOL     OW34576   5.493   1.498   1.718 -0.0620 -0.0933  0.6869
10477SOL    HW134577   5.538   1.532   1.641 -0.6361  1.4926  1.0087
10477SOL    HW234578   5.407   1.470   1.685  0.2350 -0.8336  0.5095
10478SOL     OW34579   2.295   5.524   3.529  0.4201  0.5788  0.1218
10478SOL    HW134580   2.296   5.563   3.441 -0.0833  1.4314  0.4872
10478SOL    HW234581   2.203   5.525   3.555  0.5862  0.4789  0.7328
10479SOL     OW34582   4.687   5.604   0.112  0.5446  0.5115 -0.1855
10479SOL    HW134583   4.620   5.655   0.067  2.1046  0.7763 -2.3216
10479SOL    HW234584   4.758   5.595   0.049  1.6701 -1.5865  1.2463
10480SOL     OW34585   5.235   0.842   7.741 -0.0965 -0.1024  0.1053
10480SOL    HW134586   5.229   0.936   7.762  0.0656  0.0813 -0.6410
10480SOL    HW234587   5.170   0.830   7.671  0.8258 -0.2685 -0.7355
10481SOL     OW34588   0.387   1.137   8.036  0.5351 -0.7764  0.0297
10481SOL    HW134589   0.387   1.053   8.082  0.1661  0.2992  2.1079
10481SOL    HW234590   0.480   1.155   8.020  0.7475 -0.7828  1.1521
10482SOL     OW34591   5.561   7.638   2.767 -0.2461  0.4833  0.1671
10482SOL    HW134592   5.646   7.611   2.731 -0.3396  0.4723 -0.0476
10482SOL    HW234593   5.499   7.575   2.730 -0.1424 -0.4844  1.5505
10483SOL     OW34594   3.177   7.388   5.313  0.3212  0.1933  1.3020
10483SOL    HW134595   3.139   7.315   5.264  2.1043 -0.7430  1.2368
10483SOL    HW234596   3.128   7.391   5.394 -0.1735 -0.6999  1.0476
10484SOL     OW34597   2.820   5.580   0.619  0.4662 -0.0956  0.0942
10484SOL    HW134598   2.782   5.563   0.533  1.8143 -0.5751 -0.4276
10484SOL    HW234599   2.853   5.669   0.613  0.0182  0.0921  0.3369
10485SOL     OW34600   1.771   4.144   3.271  0.0090 -0.0933 -0.8998
10485SOL    HW134601   1.815   4.224   3.240 -0.3572  0.7011  0.5549
10485SOL    HW234602   1.826   4.113   3.343 -0.2537 -0.7433 -0.9766
10486SOL     OW34603   0.640   7.810   6.472  0.3116  0.2638 -0.5878
10486SOL    HW134604   0.636   7.894   6.426 -0.6681 -0.1961 -1.3810
10486SOL    HW234605   0.610   7.746   6.408 -1.6873 -0.3250  0.8539
10487SOL     OW34606   6.571   6.920   0.514  0.3480 -0.2141  0.2262
10487SOL    HW134607   6.597   6.968   0.593  1.1365  3.0564 -1.8169
10487SOL    HW234608   6.643   6.859   0.499  0.0751 -1.0695  2.0849
10488SOL     OW34609   0.106   1.666   2.092 -0.1015  0.0714 -0.5480
10488SOL    HW134610   0.077   1.727   2.024 -1.1729 -1.0349 -1.1352
10488SOL    HW234611   0.182   1.621   2.055  0.1426  0.4220 -0.4707
10489SOL     OW34612   1.389   1.763   0.174  0.1270  0.4521  0.1890
10489SOL    HW134613   1.435   1.751   0.091  2.0724 -0.8499  1.3643
10489SOL    HW234614   1.438   1.834   0.217  0.6154 -0.4446  1.1494
10490SOL     OW34615   4.692   1.043   6.056 -0.7188  1.0587 -0.3050
10490SOL    HW134616   4.656   1.027   6.144 -2.2796 -2.3536 -1.3661
10490SOL    HW234617   4.786   1.046   6.069 -0.8446 -0.3939  1.4301
10491SOL     OW34618   1.126   3.530   3.660 -0.0856  0.2425  0.1616
10491SOL    HW134619   1.089   3.616   3.676  0.1344  0.3053  0.3344
10491SOL    HW234620   1.164   3.504   3.743  0.6796  0.3820 -0.1344
10492SOL     OW34621   7.055   3.013   4.861  0.9701 -0.3605  0.1721
10492SOL    HW134622   6.967   3.052   4.861  1.6700  1.3203  1.0773
10492SOL    HW234623   7.087   3.026   4.772  1.2783  1.4156  0.5172
10493SOL     OW34624   1.750   7.012   3.333  0.2086  0.1983  0.3994
10493SOL    HW134625   1.760   7.107   3.334  0.3148  0.1844  0.9539
10493SOL    HW234626   1.740   6.988   3.425 -3.0982  0.0156  0.0961
10494SOL     OW34627   6.593   8.047   4.776 -0.8063 -0.6215  0.0389
10494SOL    HW134628   6.547   8.001   4.845 -1.7839  1.4598  0.8344
10494SOL    HW234629   6.684   8.049   4.805 -0.7698 -1.8681  0.0586
10495SOL     OW34630   2.229   4.511   4.316 -0.2574 -0.4295  0.2070
10495SOL    HW134631   2.154   4.564   4.291 -0.4951 -0.1376  1.4711
10495SOL    HW234632   2.191   4.432   4.354  0.0948 -1.0644 -0.7161
10496SOL     OW34633   5.075   0.019   2.522  0.1561 -0.0478 -0.0812
10496SOL    HW134634   5.139   0.080   2.559 -0.0344  0.3778 -0.4590
10496SOL    HW234635   5.075  -0.055   2.584  0.6478  0.1679  0.1834
10497SOL     OW34636   2.621   4.594   3.333  0.2193  0.0331  0.6053
10497SOL    HW134637   2.546   4.546   3.298 -0.3089  0.9182  0.4851
10497SOL    HW234638   2.625   4.568   3.425 -2.0935  2.1431  1.4194
10498SOL     OW34639   3.751   2.172   5.325 -0.2401  0.1054  0.2917
10498SOL    HW134640   3.715   2.220   5.250  0.3504  0.4734  0.2389
10498SOL    HW234641   3.674   2.132   5.366 -0.4272 -1.2813 -1.3152
10499SOL     OW34642   0.673   0.040   0.308 -0.2583  0.3709  0.1619
10499SOL    HW134643   0.616  -0.000   0.374 -0.8999 -0.8716 -1.0964
10499SOL    HW234644   0.737   0.090   0.359 -1.3693  0.3319  1.6783
10500SOL     OW34645   1.277   3.845   1.904  0.4249  0.2325 -0.2702
10500SOL    HW134646   1.202   3.853   1.963 -1.4759  0.2575 -2.5196
10500SOL    HW234647   1.308   3.935   1.892  0.4999  0.2832  0.2873
10501SOL     OW34648   2.575   4.451   6.214  0.0120 -0.0865 -0.0293
10501SOL    HW134649   2.583   4.406   6.298 -1.0870  1.1832  0.8222
10501SOL    HW234650   2.665   4.465   6.185  0.4082 -0.7605  0.8208
10502SOL     OW34651   5.513   4.817   2.433  0.2461 -0.6078  0.3095
10502SOL    HW134652   5.445   4.848   2.373  1.4173 -0.4524 -1.0026
10502SOL    HW234653   5.480   4.733   2.465 -0.9198 -0.1576  0.3556
10503SOL     OW34654   0.871   6.973   4.910 -0.0662  0.5434  0.4626
10503SOL    HW134655   0.965   6.962   4.896 -0.5505 -1.5665 -1.7374
10503SOL    HW234656   0.844   6.892   4.954 -0.8261  1.2678  1.3677
10504SOL     OW34657   1.850   3.982   6.172 -0.3532  0.0576 -0.0668
10504SOL    HW134658   1.797   4.007   6.096  3.0102  0.7462 -2.3768
10504SOL    HW234659   1.918   4.048   6.177  0.2646 -0.6647  2.8884
10505SOL     OW34660   4.349   5.040   3.933  0.1429 -0.1506  0.2064
10505SOL    HW134661   4.297   5.119   3.944 -0.1276 -0.0429 -1.5588
10505SOL    HW234662   4.298   4.985   3.873  1.2639 -0.7658 -0.2303
10506SOL     OW34663   7.329   7.184   4.275 -0.5091 -0.0411  0.3333
10506SOL    HW134664   7.420   7.156   4.277 -0.7556 -0.9386 -0.2444
10506SOL    HW234665   7.324   7.255   4.338  0.6764  0.2923  0.0714
10507SOL     OW34666   3.614   5.344   4.782 -0.0948  0.3567  0.2386
10507SOL    HW134667   3.674   5.419   4.774 -0.2215  0.5049  0.6455
10507SOL    HW234668   3.529   5.384   4.801 -0.2381  0.1261  0.0764
10508SOL     OW34669   6.750   5.261   4.999  0.2601 -0.1567 -0.0086
10508SOL    HW134670   6.821   5.204   5.028  1.1251  1.2101  0.6794
10508SOL    HW234671   6.787   5.349   5.002 -1.4341  0.5906  0.2772
10509SOL     OW34672   4.306   6.660   4.582 -0.0450  0.0037  0.3537
10509SOL    HW134673   4.279   6.570   4.568  0.2219  0.1257 -1.0746
10509SOL    HW234674   4.321   6.695   4.494  2.6415  0.5659  0.9318
10510SOL     OW34675   1.259   4.931   2.220 -0.2723  0.0273  0.4116
10510SOL    HW134676   1.221   4.879   2.291 -0.7637 -0.3434 -0.1089
10510SOL    HW234677   1.296   5.008   2.263 -0.7194 -0.1068  1.0522
10511SOL     OW34678   6.039   3.051   6.532 -0.1589 -0.2035 -0.2506
10511SOL    HW134679   6.003   2.971   6.494 -1.0783 -0.2546  0.7035
10511SOL    HW234680   6.134   3.038   6.529 -0.2979 -1.5017  0.2507
10512SOL     OW34681   5.531   4.529   7.141  0.1583  0.2907 -0.1987
10512SOL    HW134682   5.458   4.518   7.202  0.0952  2.7109  0.2671
10512SOL    HW234683   5.571   4.442   7.135 -2.4200 -1.0050 -0.0889
10513SOL     OW34684   3.964   6.593   7.544  0.0931 -0.2965  0.6843
10513SOL    HW134685   3.874   6.620   7.522  0.0368 -0.2000  1.0282
10513SOL    HW234686   3.972   6.505   7.509  0.0913 -0.0488  0.0412
10514SOL     OW34687   6.710   7.946   7.198 -0.4456 -0.4708  0.0522
10514SOL    HW134688   6.772   8.014   7.224 -0.5273 -0.7627  1.0632
10514SOL    HW234689   6.671   7.978   7.117  0.5396  0.0233 -0.2326
10515SOL     OW34690   2.440   4.817   7.416  0.1886  0.3419  0.0461
10515SOL    HW134691   2.462   4.818   7.323  0.2962  1.3994  0.0773
10515SOL    HW234692   2.433   4.723   7.438  0.8570  0.0693 -0.8544
10516SOL     OW34693   7.445   2.274   2.529  0.0631 -0.0234  0.0963
10516SOL    HW134694   7.368   2.291   2.474 -1.0414  2.5831  2.1993
10516SOL    HW234695   7.487   2.360   2.536 -0.2912 -0.0201  3.7836
10517SOL     OW34696   6.196   3.308   1.459  0.1688 -0.5286 -0.2825
10517SOL    HW134697   6.115   3.259   1.449  0.2465 -0.4362 -1.4081
10517SOL    HW234698   6.236   3.271   1.538 -1.0931 -0.3721  0.4571
10518SOL     OW34699   3.185   0.077   1.072  0.2776  0.3080 -0.5766
10518SOL    HW134700   3.205   0.091   1.164 -0.1261  0.8132 -0.5611
10518SOL    HW234701   3.191   0.164   1.032  1.7901 -0.1010 -1.3108
10519SOL     OW34702   3.235   0.748   6.821 -0.4349  0.3836 -0.4976
10519SOL    HW134703   3.161   0.761   6.762 -0.8071  1.0977  0.1150
10519SOL    HW234704   3.299   0.814   6.794 -0.3786  0.3409 -0.4683
10520SOL     OW34705   2.969   0.708   5.647  0.1289 -0.1554  0.6860
10520SOL    HW134706   2.890   0.654   5.639 -0.2501  0.2192  1.7658
10520SOL    HW234707   2.937   0.794   5.673  0.7519  0.5790 -0.8233
10521SOL     OW34708   2.478   2.623   0.779  0.0793 -0.1797  0.3478
10521SOL    HW134709   2.457   2.588   0.865  0.9771  1.5277  1.3250
10521SOL    HW234710   2.397   2.613   0.729 -0.5140 -1.0562  1.4339
10522SOL     OW34711   0.139   2.575   4.068  0.2593 -0.2264 -0.0631
10522SOL    HW134712   0.089   2.619   4.136  1.8885  0.5319  0.7084
10522SOL    HW234713   0.192   2.644   4.028  0.6015 -0.9683 -0.9436
10523SOL     OW34714   7.449   1.333   7.815  0.1638  0.1040  0.4805
10523SOL    HW134715   7.380   1.393   7.843  0.1550  0.2426  0.1770
10523SOL    HW234716   7.408   1.246   7.817  0.6306 -0.1025  2.4102
10524SOL     OW34717   3.891   1.797   7.594  0.3143  0.3107 -0.3496
10524SOL    HW134718   3.918   1.867   7.653  0.2884 -1.0875  1.3915
10524SOL    HW234719   3.971   1.774   7.547  0.3444  1.4131 -0.8760
10525SOL     OW34720   6.809   1.550   0.471  0.7429 -0.0301  0.3780
10525SOL    HW134721   6.749   1.484   0.507  0.6018 -0.5393 -0.7652
10525SOL    HW234722   6.777   1.633   0.508 -0.7580 -0.2664 -0.2992
10526SOL     OW34723   5.220   1.966   7.179  0.7935 -0.2515 -0.1583
10526SOL    HW134724   5.290   2.000   7.234  2.3169 -2.0672 -0.8631
10526SOL    HW234725   5.230   2.013   7.096 -0.2030  1.0011  0.3987
10527SOL     OW34726   6.755   6.165   7.295  0.5500  0.0117  0.6371
10527SOL    HW134727   6.781   6.246   7.340 -0.7523  1.6199 -1.2907
10527SOL    HW234728   6.665   6.150   7.325 -0.4854  1.3294 -1.5046
10528SOL     OW34729   5.484   1.419   5.078  0.6640 -0.4917  0.1718
10528SOL    HW134730   5.461   1.386   4.991 -1.2513  0.4614  0.2492
10528SOL    HW234731   5.502   1.341   5.130  0.2166 -1.1752 -0.6685
10529SOL     OW34732   2.000   5.558   0.658 -0.1517 -0.2177  0.4804
10529SOL    HW134733   2.055   5.613   0.713 -1.7195  0.7910  1.1093
10529SOL    HW234734   2.023   5.583   0.568  0.0070  0.5891  0.7403
10530SOL     OW34735   3.394   4.408   2.097 -0.3572  0.1619  0.5486
10530SOL    HW134736   3.360   4.396   2.009 -0.8009  1.5901  0.4875
10530SOL    HW234737   3.439   4.326   2.117 -0.7586 -0.4128 -0.7632
10531SOL     OW34738   2.857   4.614   5.600  0.2878 -0.3451  0.4274
10531SOL    HW134739   2.773   4.603   5.645  1.0313 -1.9967  1.5341
10531SOL    HW234740   2.916   4.555   5.646  1.5245 -0.9104 -1.7495
10532SOL     OW34741   7.108   3.711   4.879  0.1964  0.5231 -0.7619
10532SOL    HW134742   7.082   3.646   4.945  1.4321  0.1001 -0.6753
10532SOL    HW234743   7.036   3.709   4.816 -1.4961  1.6323  1.0127
10533SOL     OW34744   1.811   7.959   7.297  0.4075  0.1757  0.3928
10533SOL    HW134745   1.814   8.033   7.358  0.6494  0.2591  0.2823
10533SOL    HW234746   1.877   7.898   7.330 -1.2575 -0.9843  1.7361
10534SOL     OW34747   3.921   7.682   5.756  0.2552  0.0521 -0.1659
10534SOL    HW134748   3.827   7.677   5.773 -0.0750 -1.1000 -2.0061
10534SOL    HW234749   3.959   7.709   5.840 -1.6540  0.1609  0.7337
10535SOL     OW34750   3.989   4.707   5.345  0.3784 -0.3222  0.0468
10535SOL    HW134751   3.903   4.749   5.353  1.4754  2.5284 -1.3633
10535SOL    HW234752   4.047   4.764   5.395  1.9586 -0.1715 -1.8413
10536SOL     OW34753   4.481   7.490   7.330 -1.1375  0.1845 -0.3476
10536SOL    HW134754   4.465   7.584   7.329 -4.3120 -0.2537 -0.2087
10536SOL    HW234755   4.472   7.466   7.422  0.1884 -0.2266 -0.3055
10537SOL     OW34756   2.096   7.384   7.200 -0.0065  0.7700 -0.3329
10537SOL    HW134757   2.176   7.436   7.201 -0.2574  1.1633  0.1134
10537SOL    HW234758   2.083   7.358   7.291  0.7465 -1.0971 -0.7227
10538SOL     OW34759   5.159   5.567   5.495  0.5329  0.1193  0.3204
10538SOL    HW134760   5.095   5.558   5.566  1.6336 -1.2121  1.2178
10538SOL    HW234761   5.233   5.513   5.524  1.9177  1.3317 -0.8330
10539SOL     OW34762   0.100   1.153   2.777  0.3626  0.1544 -0.4488
10539SOL    HW134763   0.186   1.164   2.736  0.1350  0.2720 -0.8942
10539SOL    HW234764   0.044   1.121   2.707 -0.2629  1.2793 -0.4863
10540SOL     OW34765   2.177   1.220   0.952 -0.0358 -0.5121 -0.0149
10540SOL    HW134766   2.124   1.194   1.027 -0.0529  1.0945  0.5787
10540SOL    HW234767   2.233   1.290   0.985 -0.1290  0.3323 -1.5243
10541SOL     OW34768   2.282   4.803   0.260  0.5422 -0.2837 -0.0905
10541SOL    HW134769   2.225   4.758   0.322 -0.2429  1.7265  0.7263
10541SOL    HW234770   2.370   4.769   0.279 -0.1797 -2.6368 -0.6522
10542SOL     OW34771   7.706   6.686   6.591  0.1974 -0.4179 -0.0551
10542SOL    HW134772   7.641   6.748   6.556  1.2846  0.0078 -1.3757
10542SOL    HW234773   7.788   6.735   6.590  0.8799 -1.5518 -0.0992
10543SOL     OW34774   3.248   6.553   0.197  0.0321  0.1556  0.0364
10543SOL    HW134775   3.168   6.502   0.203 -0.1558  0.2102 -1.5870
10543SOL    HW234776   3.235   6.610   0.121  2.1174 -0.8047 -1.1465
10544SOL     OW34777   7.656   1.937   4.030  0.4101  0.2871  0.3817
10544SOL    HW134778   7.615   1.855   4.001  1.6278  0.3517 -1.7305
10544SOL    HW234779   7.691   1.917   4.117 -1.7471 -0.5335  1.1439
10545SOL     OW34780   2.861   0.792   0.237  0.2343 -0.9431 -0.0971
10545SOL    HW134781   2.950   0.817   0.257  0.4177 -0.8633 -0.9590
10545SOL    HW234782   2.836   0.732   0.308 -0.2933  1.7023  2.1234
10546SOL     OW34783   6.626   7.105   5.898  0.0560  1.0471 -0.4275
10546SOL    HW134784   6.688   7.034   5.880 -0.6591  0.7405 -1.8688
10546SOL    HW234785   6.623   7.111   5.993 -2.6919 -3.4744  0.0786
10547SOL     OW34786   2.397   3.170   3.844 -0.7338 -0.5823 -0.2097
10547SOL    HW134787   2.413   3.103   3.911 -2.1480 -0.0898  0.6577
10547SOL    HW234788   2.412   3.253   3.890 -0.6139 -0.2566 -0.8305
10548SOL     OW34789   4.354   7.379   6.838 -0.2687 -0.3780  0.1126
10548SOL    HW134790   4.378   7.291   6.868 -0.8440  0.1548  2.3284
10548SOL    HW234791   4.416   7.438   6.881 -0.3551  0.3724 -0.7574
10549SOL     OW34792   1.435   4.222   5.957  0.2891 -0.3749 -0.6858
10549SOL    HW134793   1.371   4.293   5.961 -0.3355 -0.9146 -0.8742
10549SOL    HW234794   1.388   4.145   5.992  1.5179 -0.3142  1.2310
10550SOL     OW34795   1.266   1.778   7.121 -0.3756 -0.1983 -0.3935
10550SOL    HW134796   1.335   1.831   7.081 -0.3894 -0.7151 -1.1210
10550SOL    HW234797   1.275   1.692   7.081 -0.8538 -0.5319  0.1995
10551SOL     OW34798   7.449   1.220   2.388 -0.5646 -0.4647 -0.2433
10551SOL    HW134799   7.417   1.227   2.297  1.8755 -0.4211 -1.1628
10551SOL    HW234800   7.369   1.225   2.441 -1.8456  4.1319 -2.0896
10552SOL     OW34801   2.550   7.801   1.493  0.4074  0.1758 -0.0091
10552SOL    HW134802   2.497   7.877   1.517 -0.6271 -1.0094  1.7817
10552SOL    HW234803   2.491   7.745   1.442  0.7854  0.0436 -0.3084
10553SOL     OW34804   3.916   1.500   4.753  0.1865 -0.0477  0.4288
10553SOL    HW134805   3.893   1.464   4.838  0.8557  0.0836  0.6693
10553SOL    HW234806   3.999   1.458   4.730 -0.2910 -0.5615 -0.4548
10554SOL     OW34807   0.034   4.918   4.779  0.0123  0.7559 -0.4580
10554SOL    HW134808   0.045   4.992   4.839 -0.5497 -0.6360  1.4641
10554SOL    HW234809  -0.044   4.941   4.728  0.8016  2.2048 -1.0586
10555SOL     OW34810   6.311   6.216   1.620 -0.0685 -0.5183 -0.3425
10555SOL    HW134811   6.248   6.265   1.673  1.1512  1.5660 -0.7238
10555SOL    HW234812   6.395   6.258   1.637  0.6261 -0.8217 -2.6666
10556SOL     OW34813   7.434   5.599   0.913  0.1989  0.7238 -0.1798
10556SOL    HW134814   7.416   5.546   0.991 -0.7143  1.4884  0.1408
10556SOL    HW234815   7.443   5.535   0.843 -0.7726  0.1242  0.2233
10557SOL     OW34816   3.385   5.276   3.864 -0.1923  0.2141 -0.0758
10557SOL    HW134817   3.385   5.182   3.847  0.2235  0.2855 -0.4971
10557SOL    HW234818   3.336   5.286   3.946  0.1912 -0.4156  0.2377
10558SOL     OW34819   3.943   7.177   7.956 -0.1880 -0.3924 -0.3190
10558SOL    HW134820   3.883   7.126   8.011  0.3243 -1.6904 -0.9161
10558SOL    HW234821   3.969   7.251   8.011 -0.1321 -1.3490  0.9901
10559SOL     OW34822   3.892   4.581   3.358 -0.1703  0.2183  0.3560
10559SOL    HW134823   3.854   4.642   3.295 -1.0593  0.3407  0.9992
10559SOL    HW234824   3.978   4.619   3.379 -0.7001  1.2447  0.7314
10560SOL     OW34825   2.212   3.899   6.734  0.1194  0.1962 -0.3647
10560SOL    HW134826   2.178   3.966   6.793  1.8796 -1.6477  3.0478
10560SOL    HW234827   2.152   3.825   6.745  1.0873 -0.5554  0.0662
10561SOL     OW34828   5.074   2.225   4.277  0.8405 -0.3848  0.0895
10561SOL    HW134829   5.104   2.207   4.366 -0.0439  2.0807  0.9706
10561SOL    HW234830   5.142   2.187   4.221  1.1080 -2.5651  1.7366
10562SOL     OW34831   4.085   1.293   2.689  0.4802  0.1867 -0.2326
10562SOL    HW134832   3.989   1.288   2.694  0.5787 -0.5787  1.8235
10562SOL    HW234833   4.113   1.201   2.685  1.1450  0.4017 -0.6196
10563SOL     OW34834   1.451   6.424   2.644 -0.9149 -0.2986 -0.1495
10563SOL    HW134835   1.488   6.399   2.559 -0.9718  0.0863 -0.2892
10563SOL    HW234836   1.357   6.416   2.632 -0.9148 -0.4427 -0.0578
10564SOL     OW34837   6.925   6.786   2.563 -0.0256 -0.2312  0.0919
10564SOL    HW134838   6.929   6.722   2.492 -0.6491  0.4476 -0.5759
10564SOL    HW234839   6.833   6.790   2.586  0.1546 -0.3284  0.8357
10565SOL     OW34840   3.516   4.132   4.493  0.4429 -0.0962 -0.2678
10565SOL    HW134841   3.446   4.178   4.539  0.2728 -1.0821  0.4907
10565SOL    HW234842   3.591   4.192   4.496 -0.2125  0.7793 -0.6924
10566SOL     OW34843   5.490   3.042   0.619 -0.3179  0.5007  0.3332
10566SOL    HW134844   5.404   3.081   0.637 -0.6176  0.0967 -0.1429
10566SOL    HW234845   5.476   2.995   0.536  0.5710  1.0540 -0.1348
10567SOL     OW34846   5.895   4.349   0.910  0.1609 -0.3236 -0.4277
10567SOL    HW134847   5.831   4.337   0.981 -1.3973 -1.6178 -1.9844
10567SOL    HW234848   5.842   4.369   0.833  1.5758 -1.7664 -1.8476
10568SOL     OW34849   1.295   5.526   5.719  0.1155  0.5612  0.3018
10568SOL    HW134850   1.236   5.477   5.776  0.8471  0.4405  0.9732
10568SOL    HW234851   1.353   5.459   5.682 -0.9184  0.5016 -1.3370
10569SOL     OW34852   3.202   1.513   1.341  0.3234  0.4360 -0.1457
10569SOL    HW134853   3.156   1.595   1.320 -2.5294 -0.7351  0.9740
10569SOL    HW234854   3.204   1.511   1.437 -0.1073 -1.0054 -0.1423
10570SOL     OW34855   8.032   4.185   3.010  0.5538  0.5506  0.2985
10570SOL    HW134856   8.089   4.233   3.070 -0.3911  1.0849  0.7940
10570SOL    HW234857   7.949   4.178   3.057  0.0219  0.3167 -0.6524
10571SOL     OW34858   1.041   0.620   3.683 -0.3242  0.1807  0.1864
10571SOL    HW134859   1.060   0.535   3.642  0.7272  0.9689 -1.0528
10571SOL    HW234860   1.095   0.621   3.762  1.7913  0.7333 -1.1843
10572SOL     OW34861   7.896   0.072   4.562 -0.3246 -0.0553  0.7663
10572SOL    HW134862   7.819   0.015   4.559 -2.3452  2.4868 -2.1837
10572SOL    HW234863   7.930   0.071   4.472  1.4524  1.0146  1.3626
10573SOL     OW34864   7.397   6.882   5.012 -0.3214  0.2208 -0.2796
10573SOL    HW134865   7.367   6.797   5.044  0.7195  0.3002  1.0171
10573SOL    HW234866   7.395   6.938   5.090  1.0232  0.8113 -0.6518
10574SOL     OW34867   1.021   6.677   2.041  0.1627 -0.3998  0.1208
10574SOL    HW134868   0.927   6.663   2.028 -0.0226  0.4033  0.5062
10574SOL    HW234869   1.026   6.731   2.120  0.9040  0.2609 -0.3699
10575SOL     OW34870   1.198   5.769   7.216  0.4312  0.5370  0.2089
10575SOL    HW134871   1.123   5.713   7.198  1.2087 -0.5411  0.2349
10575SOL    HW234872   1.181   5.805   7.303  0.1715 -0.0802  0.4211
10576SOL     OW34873   7.584   7.163   3.896 -0.0027 -0.0683  0.2905
10576SOL    HW134874   7.635   7.242   3.882  2.5453 -0.9779  3.3441
10576SOL    HW234875   7.633   7.114   3.963 -1.7429 -3.9416 -0.9709
10577SOL     OW34876   4.852   4.001   5.287 -0.1961  0.3110  0.3795
10577SOL    HW134877   4.886   4.046   5.364  0.2434  0.9644 -0.1849
10577SOL    HW234878   4.922   3.939   5.262 -0.5292 -0.2304  0.7702
10578SOL     OW34879   5.852   2.437   0.283  0.4663 -0.3717 -0.2325
10578SOL    HW134880   5.791   2.369   0.254 -2.2567  0.3437  3.1034
10578SOL    HW234881   5.918   2.390   0.334 -1.1743 -0.7037  1.7183
10579SOL     OW34882   3.676   7.504   4.178 -0.6362  0.2116  0.0980
10579SOL    HW134883   3.673   7.552   4.261 -0.1177 -1.8609  1.4000
10579SOL    HW234884   3.601   7.444   4.183  0.4256 -1.1771 -0.0805
10580SOL     OW34885   2.120   3.944   4.848 -0.0590  0.2351 -0.2687
10580SOL    HW134886   2.113   3.948   4.752  0.1811 -0.1031 -0.3000
10580SOL    HW234887   2.184   4.012   4.870 -0.1973  0.3904 -0.3362
10581SOL     OW34888   0.501   2.424   1.358 -0.1548 -0.6543 -0.6523
10581SOL    HW134889   0.546   2.421   1.274  0.3704  0.8208 -0.4468
10581SOL    HW234890   0.430   2.487   1.346 -0.6054 -1.0726 -0.2385
10582SOL     OW34891   2.199   4.359   7.775 -0.1318  0.7889 -0.3430
10582SOL    HW134892   2.150   4.386   7.697  1.4039 -0.7644 -1.9443
10582SOL    HW234893   2.133   4.322   7.833 -1.2404  1.3907 -1.1789
10583SOL     OW34894   1.601   6.484   4.502 -0.2444  0.1524  0.0655
10583SOL    HW134895   1.575   6.402   4.460 -1.7009  1.2290 -1.2589
10583SOL    HW234896   1.519   6.533   4.512  0.4997  1.2166  1.3826
10584SOL     OW34897   7.706   6.216   6.258 -0.3300 -0.1714 -0.2136
10584SOL    HW134898   7.658   6.298   6.253 -0.3728 -0.2302 -0.7919
10584SOL    HW234899   7.781   6.228   6.200  0.9810  0.3242  1.4980
10585SOL     OW34900   6.329   2.120   7.940 -0.2845 -0.7268 -0.2617
10585SOL    HW134901   6.372   2.034   7.941 -0.1631 -0.6658  0.2015
10585SOL    HW234902   6.236   2.099   7.938 -0.2427 -0.8585 -1.3915
10586SOL     OW34903   5.566   7.931   8.049 -0.1306  0.8104 -0.1349
10586SOL    HW134904   5.483   7.931   8.002 -0.7926 -0.1194  0.9997
10586SOL    HW234905   5.603   8.017   8.030 -0.8669  0.8689 -1.4648
10587SOL     OW34906   6.889   3.766   6.410  0.1053  0.2486  0.8555
10587SOL    HW134907   6.914   3.705   6.480 -0.2408 -0.1678  0.6189
10587SOL    HW234908   6.947   3.841   6.422  0.0884  0.1565  1.5559
10588SOL     OW34909   3.499   7.991   5.864 -0.2618 -0.2935 -0.3184
10588SOL    HW134910   3.412   7.966   5.896  0.1005 -0.8567  0.2595
10588SOL    HW234911   3.485   8.074   5.818 -1.2802 -0.9296 -1.1826
10589SOL     OW34912   2.866   0.246   1.184 -0.2334 -0.2264  0.5557
10589SOL    HW134913   2.795   0.190   1.154 -0.8585  1.0896 -0.5402
10589SOL    HW234914   2.874   0.227   1.278 -0.8344 -1.6572  0.3417
10590SOL     OW34915   3.400   1.675   2.119  0.3484 -0.4533  0.0442
10590SOL    HW134916   3.325   1.631   2.158  2.5810 -1.7522  3.3144
10590SOL    HW234917   3.469   1.608   2.119  2.0755  1.2254 -0.9995
10591SOL     OW34918   7.204   3.047   1.910  0.1447  0.9432  0.2314
10591SOL    HW134919   7.140   3.005   1.852 -0.9890  1.7888  0.8307
10591SOL    HW234920   7.256   2.974   1.945  0.7223  0.3894 -1.6409
10592SOL     OW34921   7.303   1.797   7.695 -0.1583 -0.0547 -0.3028
10592SOL    HW134922   7.221   1.749   7.705  0.1596 -0.4139  0.8170
10592SOL    HW234923   7.286   1.882   7.735  1.0841 -1.4556  3.7905
10593SOL     OW34924   2.198   6.057   6.670  0.2036  0.2377 -0.0362
10593SOL    HW134925   2.236   6.018   6.591  0.1643 -1.0027  0.5290
10593SOL    HW234926   2.135   6.121   6.638  1.2607  0.8409 -1.0008
10594SOL     OW34927   4.921   0.088   6.692  0.0117 -0.2005  0.0734
10594SOL    HW134928   4.921   0.175   6.652 -1.0467  0.1028  0.7095
10594SOL    HW234929   5.009   0.054   6.673 -0.4081 -0.1026 -2.5195
10595SOL     OW34930   1.696   1.030   7.881 -0.1233 -0.2096 -0.1486
10595SOL    HW134931   1.714   0.939   7.905 -0.1769 -0.3279 -0.5433
10595SOL    HW234932   1.632   1.024   7.810 -0.3568  0.1494  0.0298
10596SOL     OW34933   2.953   7.383   2.473 -0.6770 -0.0890 -0.5190
10596SOL    HW134934   2.932   7.290   2.482  2.1758 -0.6841  1.2957
10596SOL    HW234935   3.049   7.385   2.466 -0.5179  2.7466  1.0916
10597SOL     OW34936   6.603   0.674   0.948  0.3746  1.3617 -0.0222
10597SOL    HW134937   6.655   0.594   0.959  0.5798  1.4105 -0.5791
10597SOL    HW234938   6.663   0.735   0.905 -0.2999  1.2502 -1.1571
10598SOL     OW34939   2.400   2.126   0.093 -0.2597  0.0997  0.0302
10598SOL    HW134940   2.398   2.051   0.153 -0.8595  0.5825  0.6265
10598SOL    HW234941   2.311   2.162   0.097 -0.0103  0.7721 -0.3480
10599SOL     OW34942   6.199   2.735   1.071  0.4219 -0.6507  0.1247
10599SOL    HW134943   6.229   2.819   1.105  0.1768 -0.2113 -0.7035
10599SOL    HW234944   6.272   2.702   1.018 -0.0328 -0.2077 -0.8129
10600SOL     OW34945   6.582   7.202   6.163  0.2124 -0.2211 -0.1902
10600SOL    HW134946   6.675   7.196   6.182  0.3302 -0.5729 -0.8218
10600SOL    HW234947   6.547   7.263   6.227  0.5749 -1.3370  1.1148
10601SOL     OW34948   4.390   4.819   0.172  0.0579  0.1192  0.4059
10601SOL    HW134949   4.405   4.820   0.077 -0.8860  0.6244  0.2467
10601SOL    HW234950   4.428   4.901   0.204  1.9388 -0.8330  0.7528
10602SOL     OW34951   5.716   1.122   5.711  0.3163  0.0586 -0.5298
10602SOL    HW134952   5.797   1.151   5.752  0.3297 -1.1727  0.3801
10602SOL    HW234953   5.647   1.153   5.770  0.0973  1.2081 -1.3627
10603SOL     OW34954   2.737   0.043   0.900 -0.4950  0.1025  0.5285
10603SOL    HW134955   2.830   0.060   0.885 -0.9320  1.4667 -0.9002
10603SOL    HW234956   2.713  -0.020   0.832 -0.8170  0.5151  0.2543
10604SOL     OW34957   6.958   5.484   3.218  0.3400 -0.0648 -0.0133
10604SOL    HW134958   6.907   5.425   3.274 -1.4487  0.4100 -1.0453
10604SOL    HW234959   6.895   5.513   3.152  2.1283  0.1087 -1.7147
10605SOL     OW34960   4.517   2.156   6.429  0.2300 -0.0903 -0.0251
10605SOL    HW134961   4.512   2.209   6.349 -0.8572  2.0715  1.3860
10605SOL    HW234962   4.488   2.069   6.401  3.2395 -0.4210 -2.7033
10606SOL     OW34963   7.926   1.217   5.251 -0.2933  0.5089  0.2189
10606SOL    HW134964   7.884   1.172   5.324  1.5781 -0.4005  0.7986
10606SOL    HW234965   8.015   1.234   5.281  0.7346 -0.4622 -2.0400
10607SOL     OW34966   0.374   3.577   6.261 -0.1129  0.6346 -0.5385
10607SOL    HW134967   0.377   3.654   6.317 -1.0499 -0.5459  1.2530
10607SOL    HW234968   0.286   3.577   6.224 -0.8889 -0.6022  1.1427
10608SOL     OW34969   1.258   3.457   3.241  0.2163 -0.0747  0.5196
10608SOL    HW134970   1.234   3.447   3.149  0.1555  2.9764  0.0862
10608SOL    HW234971   1.192   3.407   3.289 -1.2944  0.3601 -1.0165
10609SOL     OW34972   3.728   1.536   6.499  0.3181  0.2167  0.0533
10609SOL    HW134973   3.803   1.490   6.537 -1.1354 -2.6115 -0.3013
10609SOL    HW234974   3.713   1.610   6.558  1.1922 -1.1917  2.1702
10610SOL     OW34975   5.361   3.290   2.629  0.0480  0.4828 -0.8507
10610SOL    HW134976   5.298   3.218   2.629  0.2621  0.2685  0.3938
10610SOL    HW234977   5.397   3.290   2.541 -1.0059  0.0038 -1.2985
10611SOL     OW34978   1.752   1.647   3.176 -0.3980  0.2808  0.1313
10611SOL    HW134979   1.661   1.622   3.162 -1.2147  1.3523  2.8402
10611SOL    HW234980   1.763   1.727   3.124 -1.3494  0.7440  0.6261
10612SOL     OW34981   0.152   5.546   6.262 -0.1117  0.6087 -0.3817
10612SOL    HW134982   0.214   5.568   6.193  0.7912  2.6345  0.9739
10612SOL    HW234983   0.136   5.452   6.251  1.9236  0.3590 -1.7944
10613SOL     OW34984   2.982   0.160   0.525 -0.0679  0.4482  0.3066
10613SOL    HW134985   2.949   0.152   0.615  0.9189  2.4501  0.9017
10613SOL    HW234986   3.040   0.085   0.514  0.1718  0.4363  1.5185
10614SOL     OW34987   7.521   0.068   4.024  0.9242  0.1415  0.0738
10614SOL    HW134988   7.486   0.036   4.108  0.8390 -0.2960 -0.1249
10614SOL    HW234989   7.596   0.011   4.007  1.7335  1.0511  0.4832
10615SOL     OW34990   2.934   0.343   7.874 -0.2983 -0.1027 -0.3143
10615SOL    HW134991   2.948   0.272   7.938 -0.9327  0.6888  0.7345
10615SOL    HW234992   3.022   0.363   7.841  0.1614 -0.0002  0.9006
10616SOL     OW34993   5.485   1.497   0.381  0.2457  0.5347  0.4835
10616SOL    HW134994   5.541   1.482   0.458  0.6995 -2.3266 -0.2957
10616SOL    HW234995   5.546   1.499   0.307 -0.3636  1.2731 -0.0100
10617SOL     OW34996   4.535   0.554   4.413 -0.1554 -0.0546 -0.7947
10617SOL    HW134997   4.483   0.509   4.479 -0.8154 -0.0537 -1.2986
10617SOL    HW234998   4.611   0.588   4.460 -1.0747  0.7585  0.1592
10618SOL     OW34999   4.472   3.427   7.656  0.1735  0.0102  0.4003
10618SOL    HW135000   4.522   3.505   7.681 -0.1732  0.3471  0.0399
10618SOL    HW235001   4.397   3.461   7.608 -0.3021 -0.5119  0.7733
10619SOL     OW35002   2.096   2.487   2.128 -0.5869 -0.1846  0.0006
10619SOL    HW135003   2.025   2.490   2.192 -1.9219 -2.9595 -1.1935
10619SOL    HW235004   2.154   2.418   2.159  0.3304  0.4148 -0.3222
10620SOL     OW35005   1.343   7.757   4.992  0.4551 -0.1100 -0.2105
10620SOL    HW135006   1.371   7.741   5.082  2.0385 -0.5424 -0.7564
10620SOL    HW235007   1.275   7.692   4.975  0.2533 -0.1194  0.6196
10621SOL     OW35008   3.432   7.472   7.201 -0.8505 -0.1907  0.2232
10621SOL    HW135009   3.413   7.383   7.229  0.8285 -1.1829 -1.5541
10621SOL    HW235010   3.497   7.504   7.263 -1.4723 -0.1902  0.8787
10622SOL     OW35011   3.791   0.091   6.812 -0.0765 -0.8755  0.0675
10622SOL    HW135012   3.786   0.186   6.811 -1.1611 -0.9116 -0.7203
10622SOL    HW235013   3.859   0.070   6.748  0.7358 -0.6170  0.8399
10623SOL     OW35014   4.905   3.332   4.566 -0.5453  0.2724 -0.0310
10623SOL    HW135015   4.897   3.241   4.537 -1.1697  0.1798  0.4022
10623SOL    HW235016   4.988   3.335   4.613  0.0475  0.2145 -1.0400
10624SOL     OW35017   0.266   4.004   6.331  0.0366  0.7280  0.7443
10624SOL    HW135018   0.344   4.054   6.308 -0.3787  0.6386 -1.0021
10624SOL    HW235019   0.299   3.925   6.374  0.9696  0.2912 -0.7252
10625SOL     OW35020   6.187   0.327   6.934  0.1761  0.1969 -0.1862
10625SOL    HW135021   6.197   0.374   7.017 -1.3818  1.8416 -0.8506
10625SOL    HW235022   6.099   0.291   6.937  0.8638 -1.6271 -0.2774
10626SOL     OW35023   2.591   0.932   5.839  0.4765  0.3885 -0.3035
10626SOL    HW135024   2.538   0.980   5.903 -0.0484 -0.0773 -0.3825
10626SOL    HW235025   2.558   0.843   5.843  0.5389  0.3217 -1.1208
10627SOL     OW35026   4.892   5.279   2.022 -0.6013 -0.4043 -0.4931
10627SOL    HW135027   4.985   5.300   2.028  0.0515 -3.2576  0.9656
10627SOL    HW235028   4.860   5.334   1.950  2.1185  0.8467 -0.8734
10628SOL     OW35029   1.316   6.731   7.697  0.2177  0.4646 -0.2524
10628SOL    HW135030   1.360   6.722   7.613  1.5818 -0.3841  0.5015
10628SOL    HW235031   1.331   6.822   7.722 -0.3957  0.7856 -1.0068
10629SOL     OW35032   7.874   7.373   7.186 -0.0893 -0.2409  0.5009
10629SOL    HW135033   7.801   7.435   7.177  0.6821  0.4625 -1.7923
10629SOL    HW235034   7.952   7.427   7.174  0.7509 -1.2101  1.4613
10630SOL     OW35035   5.166   6.771   7.038 -0.3806  0.1542 -0.3484
10630SOL    HW135036   5.138   6.856   7.004 -1.5683  0.6649  1.7210
10630SOL    HW235037   5.258   6.783   7.061 -0.8695  1.3327  1.1325
10631SOL     OW35038   7.882   2.498   4.371  0.0641  0.4541  0.2495
10631SOL    HW135039   7.862   2.456   4.455  1.8630  1.0899  1.0462
10631SOL    HW235040   7.859   2.590   4.383  0.7046  0.6270  0.1959
10632SOL     OW35041   4.235   0.513   2.939 -0.0330  0.6741  0.0959
10632SOL    HW135042   4.160   0.522   2.880 -0.0377  0.9976  0.1497
10632SOL    HW235043   4.210   0.444   3.000  0.7413 -1.0949 -1.4732
10633SOL     OW35044   2.137   0.989   3.603 -0.1032 -0.3498 -0.4898
10633SOL    HW135045   2.197   0.917   3.587 -0.1165 -0.9104  1.6346
10633SOL    HW235046   2.085   0.960   3.678 -0.9534  1.3609 -0.3786
10634SOL     OW35047   0.617   1.018   0.665 -0.3217  0.1060 -0.3166
10634SOL    HW135048   0.541   1.051   0.618  0.8002  0.4787 -1.9407
10634SOL    HW235049   0.588   0.935   0.703 -1.5997  0.3759 -0.6687
10635SOL     OW35050   6.007   0.985   0.461 -0.0120 -0.6313  0.4280
10635SOL    HW135051   6.060   0.911   0.489  2.5220  0.4595 -1.1053
10635SOL    HW235052   5.987   0.967   0.369  1.8819  1.1150 -0.4206
10636SOL     OW35053   5.911   2.369   6.297 -0.2359 -0.1949  0.3678
10636SOL    HW135054   5.964   2.367   6.376  1.4334 -1.0243 -0.7108
10636SOL    HW235055   5.821   2.369   6.328  0.3756 -0.6932  2.2479
10637SOL     OW35056   4.641   3.141   7.309  0.1929  0.3137 -0.1871
10637SOL    HW135057   4.638   3.102   7.221 -0.2379  0.1425 -0.1032
10637SOL    HW235058   4.731   3.127   7.339  0.2495  0.0672 -0.4659
10638SOL     OW35059   1.544   5.049   1.309  0.2142 -0.1540  0.0217
10638SOL    HW135060   1.490   5.123   1.279 -0.0272  1.1811  3.3836
10638SOL    HW235061   1.503   4.972   1.269 -0.1781  1.3271 -2.7434
10639SOL     OW35062   6.037   6.138   2.271 -0.0707 -0.2886  0.3723
10639SOL    HW135063   6.109   6.138   2.207  1.4095 -3.7035  1.7573
10639SOL    HW235064   5.959   6.155   2.218  1.3180 -0.6855 -1.9941
10640SOL     OW35065   4.036   1.487   2.934  0.1240  0.2815 -0.2238
10640SOL    HW135066   4.121   1.462   2.897 -0.5693 -0.7694 -1.1542
10640SOL    HW235067   3.973   1.428   2.893 -0.8766  0.0479  1.5713
10641SOL     OW35068   5.275   4.759   0.253  0.6909  0.0011  0.0933
10641SOL    HW135069   5.240   4.701   0.184  2.0114 -0.7827  0.0493
10641SOL    HW235070   5.198   4.783   0.305 -0.0745 -0.8147 -0.6256
10642SOL     OW35071   0.024   2.707   4.260  0.2730  0.1036  0.1834
10642SOL    HW135072  -0.060   2.753   4.257  0.2506  0.0202 -1.7215
10642SOL    HW235073   0.046   2.702   4.353 -1.2871  1.1077  0.6344
10643SOL     OW35074   1.499   7.074   6.618  0.7913 -0.3934  0.2874
10643SOL    HW135075   1.461   7.112   6.698  0.0743 -0.8530  0.1695
10643SOL    HW235076   1.440   7.103   6.548  2.6999  2.0230 -0.4651
10644SOL     OW35077   2.446   6.825   5.939  0.3781 -0.3931 -0.2000
10644SOL    HW135078   2.439   6.828   6.034 -2.0586 -1.5379 -0.2756
10644SOL    HW235079   2.468   6.915   5.914  2.0613 -0.2876  1.4525
10645SOL     OW35080   0.528   1.337   7.719  0.0883 -0.1259 -0.1516
10645SOL    HW135081   0.481   1.420   7.717  1.2914  0.5633 -2.0826
10645SOL    HW235082   0.502   1.293   7.638  1.3720 -0.5072 -0.3772
10646SOL     OW35083   4.772   3.825   2.481  0.2712 -0.2038  0.2825
10646SOL    HW135084   4.862   3.834   2.512  0.9989 -0.6479 -1.5204
10646SOL    HW235085   4.762   3.731   2.466  0.3094  0.0425 -1.5965
10647SOL     OW35086   3.029   0.100   8.019  0.2094 -0.8966  0.1092
10647SOL    HW135087   3.004   0.101   8.111  0.1223  0.0680  0.0860
10647SOL    HW235088   3.116   0.061   8.018  0.2465 -0.8288  0.6140
10648SOL     OW35089   7.943   5.935   0.525 -0.1826  0.4750 -0.6321
10648SOL    HW135090   7.999   5.878   0.578  0.1942 -0.3031 -1.8279
10648SOL    HW235091   8.004   5.993   0.480 -0.5191  1.3331 -0.0170
10649SOL     OW35092   5.379   1.742   2.392  0.2271  0.3432  0.6106
10649SOL    HW135093   5.471   1.714   2.396  0.2892  0.3218 -0.5715
10649SOL    HW235094   5.352   1.749   2.484  1.2676 -0.1145  0.9699
10650SOL     OW35095   6.929   4.712   1.496  0.5765  0.0056 -0.1204
10650SOL    HW135096   7.005   4.665   1.531 -0.8734 -1.2719  1.5094
10650SOL    HW235097   6.928   4.690   1.403  1.9988 -0.2093 -0.1069
10651SOL     OW35098   1.622   0.222   2.025 -0.0526  0.4089 -0.5619
10651SOL    HW135099   1.658   0.304   2.060 -0.5027  0.2107  0.4268
10651SOL    HW235100   1.619   0.235   1.931  3.4436  0.0985 -0.8499
10652SOL     OW35101   0.720   0.442   2.390 -0.2947  0.2974  0.1017
10652SOL    HW135102   0.687   0.377   2.328 -1.0457 -1.2771  2.0793
10652SOL    HW235103   0.816   0.436   2.382 -0.3238 -1.7628  0.9266
10653SOL     OW35104   5.986   1.231   7.298  0.1798  0.0112  0.2796
10653SOL    HW135105   5.963   1.305   7.354  0.8563 -0.6865  1.5293
10653SOL    HW235106   6.048   1.267   7.234  1.5124  0.2897  1.6735
10654SOL     OW35107   5.850   3.972   7.257  0.4300  0.1963 -0.2598
10654SOL    HW135108   5.844   4.064   7.283  1.4333  0.7663 -1.9114
10654SOL    HW235109   5.942   3.950   7.267  0.3445 -0.3705 -0.6796
10655SOL     OW35110   5.343   1.650   7.700  0.6803 -0.0118  0.3701
10655SOL    HW135111   5.267   1.708   7.697  1.4396  0.9726 -1.1956
10655SOL    HW235112   5.410   1.695   7.648  1.5387 -1.9646 -0.3362
10656SOL     OW35113   8.014   6.097   6.413 -0.1490  0.1755  0.2937
10656SOL    HW135114   7.935   6.053   6.445  0.4137 -2.1575 -1.2425
10656SOL    HW235115   8.085   6.055   6.463  0.2968  0.4683 -0.0914
10657SOL     OW35116   7.933   5.989   2.199  0.2912 -0.7011 -0.8619
10657SOL    HW135117   8.027   5.971   2.207  0.3095 -0.1768  0.2407
10657SOL    HW235118   7.894   5.951   2.278 -0.3333 -0.3285 -0.9786
10658SOL     OW35119   2.903   0.346   0.322 -0.3724  0.1534 -0.2726
10658SOL    HW135120   2.894   0.289   0.397  0.5190 -0.0665 -0.3215
10658SOL    HW235121   2.869   0.431   0.351  0.3508  0.1864  0.5283
10659SOL     OW35122   2.159   7.154   5.732 -0.2120  0.0054 -0.9878
10659SOL    HW135123   2.137   7.220   5.666  0.5121  0.7546 -0.5011
10659SOL    HW235124   2.239   7.112   5.697  0.2879  0.5401 -0.5076
10660SOL     OW35125   2.893   5.080   6.745  0.4093 -0.1041  0.8286
10660SOL    HW135126   2.815   5.106   6.695  0.3004  1.5797  1.8124
10660SOL    HW235127   2.859   5.020   6.812 -0.4962  2.2447  2.6164
10661SOL     OW35128   7.770   1.145   5.451  0.0679  0.4716 -0.1744
10661SOL    HW135129   7.703   1.111   5.510 -0.5906 -1.3274 -1.8441
10661SOL    HW235130   7.726   1.215   5.403 -0.5774 -0.5486 -1.1021
10662SOL     OW35131   2.762   6.306   0.236  0.2983  0.1198  0.0802
10662SOL    HW135132   2.700   6.311   0.163  1.8836  2.0836 -1.2563
10662SOL    HW235133   2.716   6.348   0.309 -0.2987  0.7492 -0.6265
10663SOL     OW35134   4.151   4.530   3.655 -0.3214  0.0875  0.4511
10663SOL    HW135135   4.180   4.621   3.644  1.5439 -0.4418  0.7042
10663SOL    HW235136   4.185   4.484   3.579  0.0421 -0.6909  1.0760
10664SOL     OW35137   7.355   4.667   2.761 -0.2671 -0.6578 -0.0356
10664SOL    HW135138   7.441   4.626   2.747  0.3057  0.2175  0.8027
10664SOL    HW235139   7.353   4.687   2.854 -1.2190 -0.2722 -0.1280
10665SOL     OW35140   5.959   6.222   1.699  0.2185  0.4245 -0.0144
10665SOL    HW135141   5.945   6.214   1.604  1.9199  1.6053 -0.4126
10665SOL    HW235142   5.945   6.314   1.717 -2.3923 -0.1695  1.3612
10666SOL     OW35143   1.023   5.787   0.173  0.4609 -0.1912 -0.1254
10666SOL    HW135144   1.066   5.711   0.211 -0.1593 -1.6537 -2.1839
10666SOL    HW235145   0.949   5.751   0.124 -0.6599  1.8766 -0.0778
10667SOL     OW35146   2.497   6.675   2.578 -0.1229 -0.0841  0.5053
10667SOL    HW135147   2.416   6.686   2.628 -0.6926  3.8767 -0.8801
10667SOL    HW235148   2.468   6.668   2.487  0.9751  1.8260 -0.0666
10668SOL     OW35149   3.520   4.235   7.114 -0.1729 -0.2623  0.2404
10668SOL    HW135150   3.572   4.170   7.162  0.2259 -0.4414 -0.4287
10668SOL    HW235151   3.553   4.231   7.025 -1.0141 -0.0312 -0.0904
10669SOL     OW35152   3.679   6.738   7.013  0.0930  0.8877  0.5549
10669SOL    HW135153   3.635   6.671   7.067  2.1540 -0.2180  0.9755
10669SOL    HW235154   3.682   6.699   6.926  0.0238  1.0526  0.4803
10670SOL     OW35155   6.444   1.813   4.924 -0.0729  0.6916  0.1405
10670SOL    HW135156   6.386   1.785   4.996 -0.7958  2.2972  0.2257
10670SOL    HW235157   6.512   1.865   4.966  0.8025 -0.2307 -0.1018
10671SOL     OW35158   7.719   3.863   5.748 -0.1706 -0.0149  0.7881
10671SOL    HW135159   7.804   3.845   5.787  0.9633 -1.7949 -2.1762
10671SOL    HW235160   7.664   3.789   5.777  1.2851 -2.5889 -2.3534
10672SOL     OW35161   6.150   7.814   1.328 -0.4190  0.1690  0.1063
10672SOL    HW135162   6.090   7.882   1.295 -2.3789 -1.1325  0.7745
10672SOL    HW235163   6.160   7.836   1.421 -0.2015  0.1271  0.0927
10673SOL     OW35164   3.045   2.684   8.030 -0.1167 -0.2796  0.2468
10673SOL    HW135165   3.119   2.744   8.022  0.2147 -0.7246 -0.0253
10673SOL    HW235166   3.073   2.618   8.093 -0.2049 -0.5613 -0.0077
10674SOL     OW35167   2.387   1.312   0.767  0.1377 -0.2663  0.3681
10674SOL    HW135168   2.425   1.259   0.697  1.2703 -0.3401  1.0055
10674SOL    HW235169   2.321   1.256   0.807 -0.8429 -0.0640 -0.9057
10675SOL     OW35170   4.960   6.845   5.441 -0.2141 -0.3757 -0.1752
10675SOL    HW135171   4.930   6.794   5.517 -2.4837  1.1383  0.0213
10675SOL    HW235172   4.926   6.933   5.456 -1.6116 -0.2407 -3.4109
10676SOL     OW35173   3.920   1.213   2.447 -0.2581 -0.6025 -0.0498
10676SOL    HW135174   4.004   1.209   2.402  0.5386  0.8247  1.2305
10676SOL    HW235175   3.868   1.145   2.406  0.2894  0.7885 -3.3423
10677SOL     OW35176   7.215   5.461   3.352 -0.1629  0.3351 -0.4248
10677SOL    HW135177   7.228   5.551   3.321 -0.5709  0.1480 -1.1368
10677SOL    HW235178   7.135   5.432   3.309  0.3320 -0.6071 -0.7184
10678SOL     OW35179   2.584   5.098   4.915  0.1616 -0.3784 -0.1616
10678SOL    HW135180   2.544   5.152   4.984 -1.8279 -2.3537  0.3476
10678SOL    HW235181   2.571   5.149   4.835 -1.4269  0.0630  0.3397
10679SOL     OW35182   7.389   6.798   1.311  0.1517 -0.3477  0.1005
10679SOL    HW135183   7.464   6.749   1.345  0.3671 -1.1264 -1.4534
10679SOL    HW235184   7.412   6.820   1.221 -1.6058 -0.8745 -0.5296
10680SOL     OW35185   3.418   4.539   3.501 -0.4155 -0.1757  0.0619
10680SOL    HW135186   3.489   4.577   3.449  0.8747 -1.8325  0.5283
10680SOL    HW235187   3.462   4.478   3.560 -2.2664 -1.4732  0.1737
10681SOL     OW35188   7.681   3.100   6.808  0.4220 -0.1804 -0.1213
10681SOL    HW135189   7.717   3.158   6.874  1.0577 -0.2025 -0.4312
10681SOL    HW235190   7.725   3.126   6.727 -1.2398  0.6605 -0.7909
10682SOL     OW35191   5.296   1.271   0.425  0.1121 -0.6577 -0.0955
10682SOL    HW135192   5.260   1.214   0.493 -2.9493  0.9529 -0.1720
10682SOL    HW235193   5.348   1.335   0.472 -0.0896 -0.9135  0.4855
10683SOL     OW35194   4.745   2.368   7.738  0.2640 -0.4233  0.2145
10683SOL    HW135195   4.705   2.443   7.692  0.7935 -0.4605 -0.3207
10683SOL    HW235196   4.690   2.294   7.714  0.7798 -0.5186 -0.7235
10684SOL     OW35197   6.591   6.902   6.416 -0.6039 -0.0038 -0.0581
10684SOL    HW135198   6.590   6.823   6.469  0.1988 -0.0717 -0.1330
10684SOL    HW235199   6.649   6.880   6.342  2.2628  1.6496  1.5135
10685SOL     OW35200   1.388   5.698   4.880  0.0211  0.2778 -0.6409
10685SOL    HW135201   1.389   5.776   4.824 -1.0156  0.2667 -0.6900
10685SOL    HW235202   1.481   5.675   4.891  0.2774  0.8194 -1.5921
10686SOL     OW35203   2.090   4.022   1.134 -0.0427 -0.5532 -1.1832
10686SOL    HW135204   2.126   4.102   1.095  0.1886 -0.4093 -0.6771
10686SOL    HW235205   2.087   4.040   1.228 -2.6392 -0.0496 -1.2721
10687SOL     OW35206   7.318   6.755   6.180  0.0434  0.1929 -0.0326
10687SOL    HW135207   7.245   6.743   6.242 -1.0680  0.4619 -1.2455
10687SOL    HW235208   7.290   6.710   6.101  1.4735 -0.1935 -0.3347
10688SOL     OW35209   1.903   3.321   3.086  0.2191  0.1034  0.5793
10688SOL    HW135210   1.809   3.315   3.067  0.1880  0.0177  0.7606
10688SOL    HW235211   1.928   3.406   3.050 -0.5120  1.4176  2.8976
10689SOL     OW35212   4.429   5.440   5.135 -0.3009 -0.5412  0.2808
10689SOL    HW135213   4.380   5.380   5.192 -0.1445 -1.9974 -1.0345
10689SOL    HW235214   4.372   5.454   5.060  0.4771 -0.6569 -0.3470
10690SOL     OW35215   5.438   7.076   6.873 -0.1194 -0.5374 -0.1122
10690SOL    HW135216   5.453   6.982   6.863 -0.7903 -0.5427 -1.2211
10690SOL    HW235217   5.408   7.086   6.964  0.0261 -1.3810  0.0345
10691SOL     OW35218   1.758   7.667   4.664  0.6108  0.4284  0.2730
10691SOL    HW135219   1.746   7.572   4.667  1.6316  0.2801 -0.1516
10691SOL    HW235220   1.706   7.695   4.588  0.0793  0.2562  0.5658
10692SOL     OW35221   5.487   1.705   2.120  0.3407 -0.2532  0.1004
10692SOL    HW135222   5.425   1.720   2.191  1.0615  1.1630  0.4577
10692SOL    HW235223   5.435   1.714   2.041  0.0783  0.9546  0.3953
10693SOL     OW35224   4.484   6.146   0.957  0.1339 -0.7608 -0.1256
10693SOL    HW135225   4.511   6.230   0.919 -0.7292 -1.3202 -2.1309
10693SOL    HW235226   4.513   6.150   1.048 -0.1332  1.8344 -0.0797
10694SOL     OW35227   6.209   7.112   3.618  1.0314  0.1557  0.0196
10694SOL    HW135228   6.179   7.200   3.596  0.4523 -0.2948 -1.0860
10694SOL    HW235229   6.255   7.082   3.540 -2.0971 -1.9491 -1.1999
10695SOL     OW35230   0.775   0.487   0.461  0.6007 -0.0515 -0.1076
10695SOL    HW135231   0.770   0.583   0.454  2.0851 -0.0507 -1.8927
10695SOL    HW235232   0.684   0.459   0.463  0.1221  1.4070  1.0548
10696SOL     OW35233   4.867   3.221   3.724  0.2301  0.3431 -0.4609
10696SOL    HW135234   4.938   3.157   3.715 -0.2602 -0.1463 -0.9262
10696SOL    HW235235   4.843   3.217   3.817  0.1551 -0.2027 -0.5031
10697SOL     OW35236   2.380   0.757   2.090  0.0127  0.0110  0.2601
10697SOL    HW135237   2.426   0.792   2.167  0.0242  1.2268 -0.2847
10697SOL    HW235238   2.342   0.675   2.121 -1.2351  1.1705  2.0149
10698SOL     OW35239   1.485   1.993   0.019  0.1781 -0.7948  0.2644
10698SOL    HW135240   1.445   1.937  -0.047  0.2250 -1.5781  0.8837
10698SOL    HW235241   1.415   2.053   0.046  0.3837  0.0903 -1.0633
10699SOL     OW35242   4.860   7.874   0.895  0.4390  0.4523  0.5697
10699SOL    HW135243   4.799   7.915   0.834  0.0428  2.8330  2.4241
10699SOL    HW235244   4.813   7.797   0.928 -0.4087  0.6614 -0.1357
10700SOL     OW35245   3.054   4.258   7.533  0.1715 -0.2208 -0.8532
10700SOL    HW135246   3.020   4.320   7.597  1.0832  0.0731 -0.6326
10700SOL    HW235247   2.978   4.207   7.506 -0.5495  0.7989 -0.8239
10701SOL     OW35248   4.251   5.284   0.375  0.1784  0.0463  0.0454
10701SOL    HW135249   4.182   5.316   0.316 -0.3034  2.2996  1.6774
10701SOL    HW235250   4.228   5.193   0.392 -1.5246  0.3033 -0.6694
10702SOL     OW35251   5.889   0.563   3.691 -0.0236  0.0532  0.4286
10702SOL    HW135252   5.976   0.523   3.691  0.7633  1.6654  1.0705
10702SOL    HW235253   5.905   0.657   3.699 -1.8234  0.4323  0.1994
10703SOL     OW35254   0.323   1.639   0.070 -0.0280 -0.2094 -0.1314
10703SOL    HW135255   0.324   1.556   0.022  1.2422 -0.0911 -0.3449
10703SOL    HW235256   0.325   1.706   0.001 -0.5279  0.0052  0.0543
10704SOL     OW35257   7.014   4.994   3.715 -0.0461  0.0192  0.3287
10704SOL    HW135258   6.985   5.018   3.803  0.2462  0.6630  0.2475
10704SOL    HW235259   7.108   5.012   3.714 -0.0694  0.1273 -0.1588
10705SOL     OW35260   0.280   7.410   5.838  0.0128 -0.2126  0.0858
10705SOL    HW135261   0.242   7.402   5.926  0.5660  0.1907  0.3660
10705SOL    HW235262   0.314   7.323   5.819 -1.4111 -0.7137 -0.3536
10706SOL     OW35263   6.302   0.075   6.105  0.4814 -0.3951 -0.5247
10706SOL    HW135264   6.392   0.050   6.082  0.1356 -0.2626 -2.1199
10706SOL    HW235265   6.247   0.029   6.042 -0.5080  0.3695 -0.2442
10707SOL     OW35266   0.334   1.044   2.601  0.0656 -0.1010  0.3326
10707SOL    HW135267   0.298   0.988   2.532 -0.8445 -0.8034  1.3585
10707SOL    HW235268   0.403   0.991   2.641  2.4428  1.2655 -1.6799
10708SOL     OW35269   4.634   4.192   7.526  0.2123 -0.3542  0.3862
10708SOL    HW135270   4.568   4.137   7.483  1.0542 -1.6302  0.6524
10708SOL    HW235271   4.592   4.278   7.535 -1.4991 -1.1833  0.7875
10709SOL     OW35272   0.622   1.531   4.893  0.4770 -0.1280  0.4912
10709SOL    HW135273   0.639   1.621   4.866  0.1081 -0.2408 -0.1642
10709SOL    HW235274   0.705   1.500   4.928  1.5228 -0.4626 -2.0055
10710SOL     OW35275   3.515   7.649   4.021 -0.0658 -0.1369  0.1709
10710SOL    HW135276   3.433   7.607   3.995  0.6355 -0.0365 -2.5045
10710SOL    HW235277   3.560   7.582   4.073 -0.3549 -1.5653 -1.3202
10711SOL     OW35278   4.565   0.344   1.546 -0.5152 -0.2573 -0.4684
10711SOL    HW135279   4.535   0.376   1.460  0.1284  2.1974  0.1286
10711SOL    HW235280   4.632   0.280   1.525 -0.3246  0.3338 -1.8182
10712SOL     OW35281   0.234   7.903   6.775  0.2482  0.6572 -0.1290
10712SOL    HW135282   0.306   7.869   6.721 -1.1234 -0.3607 -1.4231
10712SOL    HW235283   0.252   7.868   6.863  0.3988 -1.1145 -0.8196
10713SOL     OW35284   6.397   3.624   4.834 -0.1611  0.2930 -0.2421
10713SOL    HW135285   6.340   3.551   4.808  0.4369 -0.1388 -0.3633
10713SOL    HW235286   6.474   3.582   4.873 -0.6622  0.9118  1.4956
10714SOL     OW35287   5.569   2.828   0.801  0.0916  0.7049 -0.9529
10714SOL    HW135288   5.490   2.785   0.833 -0.8604  0.8660 -2.9247
10714SOL    HW235289   5.539   2.880   0.726  1.8639  1.7848 -0.9676
10715SOL     OW35290   1.574   4.183   0.666 -0.6919  0.1906  0.2106
10715SOL    HW135291   1.573   4.267   0.620 -3.1008  0.0227 -0.1598
10715SOL    HW235292   1.661   4.146   0.647 -0.2840  1.7403 -1.1689
10716SOL     OW35293   7.235   3.532   2.998  0.3479  0.0444 -0.1789
10716SOL    HW135294   7.275   3.587   2.930  2.5492 -1.2925 -0.0585
10716SOL    HW235295   7.248   3.581   3.079 -0.6506  0.8146 -0.4704
10717SOL     OW35296   7.619   1.968   6.234 -0.0860  0.1595  0.2357
10717SOL    HW135297   7.574   2.051   6.250 -1.5831 -0.8899  1.7497
10717SOL    HW235298   7.556   1.915   6.186  1.2843  0.2397 -1.7663
10718SOL     OW35299   0.735   1.140   4.039 -0.0655  0.2970  0.0049
10718SOL    HW135300   0.782   1.175   3.964  0.9841  0.7815  0.8671
10718SOL    HW235301   0.652   1.187   4.040  0.9081  2.0931  0.5525
10719SOL     OW35302   3.391   2.904   0.213  0.0535  0.4805  0.3679
10719SOL    HW135303   3.337   2.882   0.137 -0.7992  2.3119  0.4047
10719SOL    HW235304   3.476   2.864   0.193 -0.6321 -0.4846 -0.7658
10720SOL     OW35305   2.342   7.002   4.346 -0.2912  0.3453  0.3892
10720SOL    HW135306   2.388   7.051   4.414 -1.5236 -0.5979  1.9783
10720SOL    HW235307   2.290   7.068   4.300  1.7196  1.2514 -0.7414
10721SOL     OW35308   6.367   6.977   1.425 -0.1222  0.0524  0.4746
10721SOL    HW135309   6.414   6.917   1.484 -0.8760 -0.9467  0.0807
10721SOL    HW235310   6.437   7.026   1.381  0.5111 -0.4730  0.8712
10722SOL     OW35311   2.439   7.817   4.173  0.1889  0.5194  0.4911
10722SOL    HW135312   2.468   7.882   4.237  1.6411  0.8402 -0.4524
10722SOL    HW235313   2.389   7.868   4.109  0.7521  0.6064  0.1146
10723SOL     OW35314   7.062   5.695   7.920  0.1699 -0.2294  0.2501
10723SOL    HW135315   6.996   5.758   7.892 -0.3477 -1.2585 -0.9364
10723SOL    HW235316   7.012   5.623   7.960  0.5849 -0.8398 -0.3009
10724SOL     OW35317   4.209   0.426   0.557 -0.2692 -0.0150 -0.7858
10724SOL    HW135318   4.300   0.426   0.528 -0.4449 -2.7113 -1.5792
10724SOL    HW235319   4.209   0.375   0.638 -0.8345  1.5807  0.2716
10725SOL     OW35320   6.712   0.480   6.952  0.0503  0.4373 -0.4122
10725SOL    HW135321   6.751   0.562   6.984 -0.8909  0.5616  0.4556
10725SOL    HW235322   6.620   0.501   6.936 -0.5790 -0.7986  1.2765
10726SOL     OW35323   7.595   7.626   4.647 -0.4558 -0.3896 -0.9604
10726SOL    HW135324   7.673   7.681   4.640 -1.2990  1.6586  2.6171
10726SOL    HW235325   7.625   7.547   4.692 -0.1472 -0.3996 -1.1850
10727SOL     OW35326   4.828   4.541   0.503  0.6015  0.0283  0.0096
10727SOL    HW135327   4.786   4.621   0.474 -0.7781 -0.0970  1.4930
10727SOL    HW235328   4.919   4.565   0.520  0.2488  1.2381  0.2362
10728SOL     OW35329   3.910   1.144   6.554 -0.4032  0.4032  0.0411
10728SOL    HW135330   3.897   1.056   6.590  0.8634  0.0076 -0.3851
10728SOL    HW235331   3.886   1.136   6.462  0.7570  0.1916 -0.2624
10729SOL     OW35332   3.098   1.750   6.187 -0.1708 -0.4409  0.4440
10729SOL    HW135333   3.043   1.686   6.232 -0.7066  0.7809  1.5814
10729SOL    HW235334   3.058   1.761   6.101 -1.1118 -0.3351  0.8854
10730SOL     OW35335   7.210   3.903   4.541  0.1308  0.8186 -0.1351
10730SOL    HW135336   7.238   3.818   4.576  0.4092  1.6038  1.6297
10730SOL    HW235337   7.148   3.880   4.472  1.7091 -0.8598 -1.0994
10731SOL     OW35338   7.121   5.720   5.093 -0.6047 -0.1727  0.0297
10731SOL    HW135339   7.175   5.746   5.168 -1.7434  1.4244  0.3639
10731SOL    HW235340   7.139   5.787   5.027 -0.5013 -0.9020 -0.6924
10732SOL     OW35341   7.645   4.170   5.885  0.0169 -0.3720  0.0910
10732SOL    HW135342   7.557   4.139   5.905  0.3185 -0.4363  1.3898
10732SOL    HW235343   7.650   4.257   5.926  0.1646  0.1521 -1.0036
10733SOL     OW35344   4.577   7.298   7.874 -0.2880  0.1997 -0.2299
10733SOL    HW135345   4.656   7.262   7.833 -0.1336  0.8306 -0.4996
10733SOL    HW235346   4.506   7.245   7.839 -0.1045  0.4007 -0.9257
10734SOL     OW35347   2.604   3.229   3.324  0.2769 -0.1232 -0.0925
10734SOL    HW135348   2.589   3.247   3.417 -0.3826 -0.4752 -0.1195
10734SOL    HW235349   2.585   3.135   3.315  1.1740 -0.2787 -0.4227
10735SOL     OW35350   0.649   1.828   2.021  0.1501 -0.2050  0.5775
10735SOL    HW135351   0.698   1.803   1.943  0.1746  0.6427  0.3088
10735SOL    HW235352   0.690   1.780   2.093  3.2668  2.5038  0.8601
10736SOL     OW35353   3.934   0.643   6.011 -0.3663  0.4483 -0.6674
10736SOL    HW135354   3.859   0.703   6.013 -0.9600 -0.2705 -0.7859
10736SOL    HW235355   3.980   0.665   5.931 -0.4617  0.8816 -0.6088
10737SOL     OW35356   6.319   0.747   6.564  0.3604 -0.1755  0.0179
10737SOL    HW135357   6.282   0.678   6.620  0.2079  0.5477  0.8278
10737SOL    HW235358   6.410   0.719   6.550 -0.0712 -1.2270 -0.7986
10738SOL     OW35359   2.025   2.096   2.307  0.2654  0.4262 -0.1865
10738SOL    HW135360   2.065   2.065   2.388  0.6560  1.0927 -0.1194
10738SOL    HW235361   1.944   2.047   2.300  1.4096 -1.5226 -0.7049
10739SOL     OW35362   5.506   5.969   3.971 -0.0042  0.2786 -0.6025
10739SOL    HW135363   5.514   5.951   4.064 -2.8652 -0.8166 -0.4682
10739SOL    HW235364   5.462   6.054   3.966  1.3163  0.9664 -1.0194
10740SOL     OW35365   2.115   3.178   4.288 -0.5011 -0.0153 -0.2866
10740SOL    HW135366   2.024   3.149   4.294 -0.4710 -0.3956 -1.5271
10740SOL    HW235367   2.114   3.250   4.225  0.1392 -0.4099 -0.7620
10741SOL     OW35368   1.912   7.514   2.431 -0.6588  0.4471 -0.6866
10741SOL    HW135369   1.876   7.510   2.343  3.2603  0.9299 -2.5301
10741SOL    HW235370   1.889   7.601   2.463 -2.3199  0.1818 -1.0584
10742SOL     OW35371   0.534   7.567   5.505 -0.4021  0.1910 -0.1202
10742SOL    HW135372   0.585   7.619   5.567 -0.1220 -2.9723  2.5953
10742SOL    HW235373   0.447   7.561   5.544 -0.0030 -2.5243  0.5825
10743SOL     OW35374   1.935   0.634   2.695 -0.9907  0.4692 -0.3251
10743SOL    HW135375   1.969   0.694   2.628 -1.4041  1.4235  0.2989
10743SOL    HW235376   2.000   0.636   2.765 -1.3515  0.7583  0.0089
10744SOL     OW35377   7.376   1.754   4.518 -0.4781  0.2519  0.2422
10744SOL    HW135378   7.335   1.673   4.549  0.2057 -0.4004 -0.4993
10744SOL    HW235379   7.441   1.775   4.585  0.1743 -0.4924 -0.1399
10745SOL     OW35380   4.140   1.439   7.444 -0.6359 -0.8410 -0.2502
10745SOL    HW135381   4.077   1.370   7.469  1.0003 -1.3511  3.1035
10745SOL    HW235382   4.221   1.391   7.427 -0.5203 -0.0071 -2.2142
10746SOL     OW35383   3.949   3.131   1.136  0.2166 -0.0207 -0.1342
10746SOL    HW135384   3.947   3.105   1.228  0.7488  2.1972  0.5769
10746SOL    HW235385   3.866   3.102   1.100 -1.0507  1.1388  1.6995
10747SOL     OW35386   7.763   2.842   7.109  0.5990 -0.1164 -0.3613
10747SOL    HW135387   7.855   2.815   7.102  0.7997  0.0024  1.5205
10747SOL    HW235388   7.767   2.934   7.136 -0.0897 -0.1531 -0.1251
10748SOL     OW35389   3.832   1.712   2.062 -0.1200  0.6827  0.4989
10748SOL    HW135390   3.827   1.752   1.975  1.9719 -0.3293 -0.1435
10748SOL    HW235391   3.763   1.644   2.060 -1.2709  1.8137  0.3119
10749SOL     OW35392   2.072   5.997   5.427 -0.1946 -0.1841  0.1589
10749SOL    HW135393   1.990   6.038   5.455 -0.8618 -0.8949 -0.6808
10749SOL    HW235394   2.081   6.023   5.335  0.3865 -0.3287  0.1711
10750SOL     OW35395   6.118   7.455   4.656  0.3652 -0.0666  0.2292
10750SOL    HW135396   6.190   7.517   4.670 -0.7971  1.1392  1.0771
10750SOL    HW235397   6.074   7.488   4.578 -0.5469  0.4775  0.9630
10751SOL     OW35398   7.219   1.562   7.071  0.2788  0.2031  0.0944
10751SOL    HW135399   7.193   1.477   7.107  2.9996 -0.4357  0.8307
10751SOL    HW235400   7.161   1.625   7.114 -1.1973 -1.1791  0.2358
10752SOL     OW35401   2.164   7.420   2.312 -0.3997 -0.4239 -0.5037
10752SOL    HW135402   2.106   7.442   2.239  1.0156  0.9172 -1.2921
10752SOL    HW235403   2.115   7.446   2.390 -1.7457 -1.4407 -0.9635
10753SOL     OW35404   1.533   6.540   1.540 -0.8771  0.1973 -0.3244
10753SOL    HW135405   1.598   6.562   1.607 -0.5312  0.9452 -0.8889
10753SOL    HW235406   1.567   6.460   1.499  0.3307  1.2215 -1.4106
10754SOL     OW35407   0.727   7.535   5.969 -0.3078 -0.2944 -0.5005
10754SOL    HW135408   0.666   7.609   5.979 -1.3673 -1.0954 -0.8677
10754SOL    HW235409   0.813   7.576   5.962 -1.0486  1.0572 -2.5315
10755SOL     OW35410   5.103   1.120   8.009 -0.4438 -0.1806  0.1698
10755SOL    HW135411   5.019   1.074   8.012 -0.3995 -0.4030 -1.3102
10755SOL    HW235412   5.162   1.065   8.060 -0.6692 -1.2021 -0.6329
10756SOL     OW35413   7.887   4.780   1.449  0.5185 -0.4777  0.1847
10756SOL    HW135414   7.911   4.770   1.357 -0.9410 -0.1345 -0.2638
10756SOL    HW235415   7.827   4.707   1.466  1.0612 -0.7481  0.9705
10757SOL     OW35416   7.585   2.644   7.164 -0.4806 -0.0278  0.2084
10757SOL    HW135417   7.635   2.723   7.148 -1.1298  0.6276  1.3122
10757SOL    HW235418   7.641   2.591   7.221 -1.0038  0.6907  1.4176
10758SOL     OW35419   6.222   1.367   7.172  0.0850  0.5565  0.0547
10758SOL    HW135420   6.311   1.379   7.137  0.1107  1.6179  0.4313
10758SOL    HW235421   6.227   1.401   7.261 -0.9517  1.6635 -0.2905
10759SOL     OW35422   0.057   6.118   5.656 -0.3922 -0.4608  0.1160
10759SOL    HW135423   0.003   6.194   5.637 -0.9700 -1.0314 -0.5802
10759SOL    HW235424   0.084   6.086   5.570  1.2920 -0.0397  0.4467
10760SOL     OW35425   2.416   5.363   5.991 -0.0787  0.5867 -0.0717
10760SOL    HW135426   2.330   5.321   6.000 -0.5521  1.6093  0.4077
10760SOL    HW235427   2.451   5.329   5.909 -0.0248 -1.4330  0.7160
10761SOL     OW35428   5.460   7.726   2.023 -0.3235 -0.0414 -0.2209
10761SOL    HW135429   5.534   7.666   2.021 -1.7509 -1.9592  0.5952
10761SOL    HW235430   5.431   7.725   2.114 -0.8311  1.3324 -0.3503
10762SOL     OW35431   7.107   2.106   0.204 -0.0747 -0.2720  0.2904
10762SOL    HW135432   7.041   2.046   0.170 -1.5743  1.9581 -1.0064
10762SOL    HW235433   7.184   2.051   0.220 -1.5111 -2.5806 -0.2699
10763SOL     OW35434   5.500   7.118   3.407  0.2465 -0.6024  0.6133
10763SOL    HW135435   5.560   7.148   3.474  0.7568  0.8504 -0.4499
10763SOL    HW235436   5.550   7.054   3.356  0.9931  0.7384 -0.3833
10764SOL     OW35437   4.599   0.003   0.124 -0.4178  0.5007  0.0128
10764SOL    HW135438   4.641  -0.076   0.091  1.0234  0.0977  2.5814
10764SOL    HW235439   4.643   0.074   0.076  1.1047 -0.0902  0.4561
10765SOL     OW35440   7.232   4.684   0.358  0.3263  0.3236 -0.0899
10765SOL    HW135441   7.306   4.624   0.343  0.7683  0.8200  0.0712
10765SOL    HW235442   7.154   4.631   0.340  0.7432 -0.0254 -0.8976
10766SOL     OW35443   2.045   4.853   7.478  0.2015 -0.1477  0.2457
10766SOL    HW135444   2.103   4.865   7.552 -0.3683  0.8184  0.5511
10766SOL    HW235445   2.092   4.893   7.404  1.1902 -1.9416 -0.1575
10767SOL     OW35446   3.149   5.282   4.511 -0.7465  0.0042  0.3911
10767SOL    HW135447   3.167   5.329   4.593  1.5134  1.7882 -1.0147
10767SOL    HW235448   3.074   5.328   4.474  0.0963  1.1435  0.0630
10768SOL     OW35449   5.835   5.944   1.653  0.0319 -0.0996  0.4807
10768SOL    HW135450   5.863   5.901   1.734 -0.0372 -1.0320  0.0218
10768SOL    HW235451   5.876   6.030   1.656  0.6476 -0.4075  1.1512
10769SOL     OW35452   1.624   7.939   5.712  0.3788 -0.1705 -0.8234
10769SOL    HW135453   1.647   7.984   5.630  0.4424 -0.6222 -1.0593
10769SOL    HW235454   1.564   7.869   5.685  1.0662 -0.8584 -0.6025
10770SOL     OW35455   5.851   3.135   4.763  0.0511  0.1236  0.3065
10770SOL    HW135456   5.786   3.070   4.735 -0.1703 -0.6112  2.4000
10770SOL    HW235457   5.929   3.083   4.784  0.1529  0.6190  1.1734
10771SOL     OW35458   7.910   2.444   5.717 -0.1949  0.2965  0.0468
10771SOL    HW135459   7.959   2.465   5.796  1.3071 -1.1197 -0.4489
10771SOL    HW235460   7.913   2.348   5.711 -0.4741  0.3519 -1.5723
10772SOL     OW35461   4.059   3.533   7.680 -0.0390  0.0011  0.2005
10772SOL    HW135462   4.083   3.490   7.599  0.5265  0.7325 -0.0341
10772SOL    HW235463   4.002   3.471   7.725  0.2045 -0.6891 -0.4361
10773SOL     OW35464   8.064   4.728   3.295 -0.3137  0.7055 -0.0253
10773SOL    HW135465   8.101   4.684   3.219 -0.5034 -1.7030  1.1881
10773SOL    HW235466   7.974   4.749   3.270 -0.8029 -1.2726 -0.0903
10774SOL     OW35467   7.491   3.279   6.385 -0.2623  0.7090  0.4551
10774SOL    HW135468   7.451   3.214   6.443  0.2891 -0.2788 -0.2549
10774SOL    HW235469   7.579   3.246   6.369  0.1135  1.7591  0.2687
10775SOL     OW35470   4.620   1.863   7.839  0.2633 -0.6182 -0.4919
10775SOL    HW135471   4.637   1.819   7.922  1.7899  1.2092  0.2404
10775SOL    HW235472   4.525   1.860   7.829  0.0925 -1.3219  1.0591
10776SOL     OW35473   6.670   7.335   0.377 -0.1203  0.2976  0.2685
10776SOL    HW135474   6.759   7.365   0.395  1.1262 -2.1547 -1.3029
10776SOL    HW235475   6.631   7.406   0.326  2.1571  0.0315 -2.0140
10777SOL     OW35476   1.170   0.040   0.087  0.4168  0.4306 -0.4111
10777SOL    HW135477   1.134  -0.002   0.009  0.8351  0.0694 -0.4150
10777SOL    HW235478   1.110   0.113   0.105 -0.8924 -0.7363  0.1693
10778SOL     OW35479   0.037   6.047   7.356 -0.1481  0.1613  0.6319
10778SOL    HW135480   0.132   6.043   7.365 -0.2045  0.7734  1.6682
10778SOL    HW235481   0.015   5.969   7.305  0.9150  0.0955  0.2436
10779SOL     OW35482   1.002   1.691   7.579 -0.2063  0.2302 -0.2702
10779SOL    HW135483   0.979   1.702   7.486  0.7855 -0.3233 -0.5914
10779SOL    HW235484   1.058   1.614   7.581  1.6291  1.5122  0.4829
10780SOL     OW35485   6.051   0.112   4.171 -0.1474 -0.1406 -0.7294
10780SOL    HW135486   6.050   0.140   4.262  0.5863  0.7086 -0.9626
10780SOL    HW235487   5.961   0.123   4.141  0.1548  2.4621 -0.9160
10781SOL     OW35488   1.351   5.736   5.550  0.1262  0.9188 -0.0341
10781SOL    HW135489   1.328   5.665   5.610 -2.3765  1.3065 -0.4252
10781SOL    HW235490   1.393   5.802   5.605 -2.0805  1.2520  1.3977
10782SOL     OW35491   7.356   5.046   5.128  0.2432 -0.4904  0.4765
10782SOL    HW135492   7.380   5.131   5.092 -0.3371  0.1432  1.5403
10782SOL    HW235493   7.429   5.021   5.184  0.3900 -0.6815  0.2052
10783SOL     OW35494   7.553   1.588   3.997  0.1978 -0.5009 -0.1685
10783SOL    HW135495   7.604   1.573   4.077  0.0896 -0.6640 -0.1315
10783SOL    HW235496   7.474   1.634   4.027 -1.0131 -2.6784  0.1580
10784SOL     OW35497   7.833   5.162   4.021 -0.2370  0.3868  0.0233
10784SOL    HW135498   7.811   5.253   4.041 -1.0062  0.2170 -0.0394
10784SOL    HW235499   7.919   5.167   3.980 -1.3944  1.3910 -2.4718
10785SOL     OW35500   4.520   2.337   5.330 -0.2459  0.0720  0.6132
10785SOL    HW135501   4.494   2.407   5.271  0.6525 -0.2895 -0.2512
10785SOL    HW235502   4.606   2.363   5.363  0.3140 -0.8055 -0.0811
10786SOL     OW35503   3.480   5.032   1.741 -0.5038 -0.5588 -0.7581
10786SOL    HW135504   3.542   5.063   1.807 -0.6387 -0.5479 -0.6366
10786SOL    HW235505   3.536   4.998   1.670 -0.3472  0.2700 -1.0470
10787SOL     OW35506   0.412   3.251   5.941  0.1885  0.4353  0.3058
10787SOL    HW135507   0.407   3.320   5.876 -0.6390  0.4119  0.3307
10787SOL    HW235508   0.348   3.276   6.008  1.0838  0.5081  1.1663
10788SOL     OW35509   7.170   7.714   3.418  0.1645 -0.2813 -0.3699
10788SOL    HW135510   7.143   7.805   3.408 -2.3041 -0.4226  3.0454
10788SOL    HW235511   7.174   7.680   3.329  0.4678  2.9284 -1.7184
10789SOL     OW35512   5.206   1.409   5.837 -0.3492  0.0325 -0.0777
10789SOL    HW135513   5.201   1.344   5.767 -0.9139  0.7825 -0.7538
10789SOL    HW235514   5.276   1.468   5.811 -1.0330  0.7223 -0.3757
10790SOL     OW35515   4.358   5.714   0.121 -0.1399  0.1771  0.0712
10790SOL    HW135516   4.267   5.739   0.136 -0.7367 -2.6449  1.9519
10790SOL    HW235517   4.388   5.677   0.204  2.4704  0.2379 -0.7387
10791SOL     OW35518   2.345   1.913   0.302  0.5115 -0.3130  0.5220
10791SOL    HW135519   2.280   1.961   0.353  0.2575 -1.3918  1.2636
10791SOL    HW235520   2.322   1.821   0.315 -0.6364 -0.6684 -2.9211
10792SOL     OW35521   2.201   7.861   3.787 -0.8892 -0.1887 -0.1133
10792SOL    HW135522   2.117   7.906   3.799 -0.8161 -0.4351  1.5708
10792SOL    HW235523   2.177   7.770   3.771 -0.9802  0.0974 -1.7746
10793SOL     OW35524   5.424   3.398   4.556  0.0236 -0.3822  0.3297
10793SOL    HW135525   5.485   3.459   4.596  1.5693 -1.2662 -0.5684
10793SOL    HW235526   5.479   3.342   4.501 -1.7745 -0.2391 -1.7618
10794SOL     OW35527   1.571   3.837   2.179 -0.6038  0.1347 -0.1022
10794SOL    HW135528   1.566   3.783   2.258 -0.4326 -0.1092 -0.2577
10794SOL    HW235529   1.493   3.892   2.183 -0.1538  0.7174  0.6654
10795SOL     OW35530   0.835   0.413   1.069 -0.0843  0.7582 -0.1113
10795SOL    HW135531   0.752   0.370   1.048 -0.8125  2.0143  0.0590
10795SOL    HW235532   0.809   0.495   1.111  1.2815  0.0847  2.2064
10796SOL     OW35533   1.916   7.149   3.583 -0.0755 -0.1308 -0.2610
10796SOL    HW135534   1.888   7.182   3.497 -0.4034  1.5568  0.4460
10796SOL    HW235535   1.845   7.091   3.610 -0.8245  0.6997 -0.3868
10797SOL     OW35536   6.696   6.210   6.947  0.3866 -0.2729 -0.4765
10797SOL    HW135537   6.778   6.222   6.898 -0.2633 -0.0903 -1.5544
10797SOL    HW235538   6.684   6.292   6.994  0.6523 -0.1722 -0.5789
10798SOL     OW35539   2.077   7.983   7.951 -0.1747 -0.6420  0.5015
10798SOL    HW135540   2.042   7.930   7.879  0.1499 -2.1128  1.3824
10798SOL    HW235541   1.999   8.013   7.998 -0.4582  1.5437 -1.2365
10799SOL     OW35542   0.363   5.569   3.126  0.4499 -0.0917 -0.4338
10799SOL    HW135543   0.421   5.639   3.155  1.2104 -0.0430 -1.9818
10799SOL    HW235544   0.363   5.576   3.030 -1.6441 -0.4633 -0.5162
10800SOL     OW35545   3.499   1.902   5.071 -0.4755  0.2689 -0.8744
10800SOL    HW135546   3.589   1.932   5.064  0.1337 -1.0054  0.9814
10800SOL    HW235547   3.481   1.861   4.986 -0.0933  2.3887 -2.0642
10801SOL     OW35548   7.944   3.160   4.953 -0.4826 -0.0504 -0.0013
10801SOL    HW135549   7.973   3.098   4.886  0.2609 -1.3780  1.4630
10801SOL    HW235550   7.869   3.117   4.994 -0.9410  0.7540  0.0310
10802SOL     OW35551   4.511   3.312   6.852  0.3971  0.3139  0.1900
10802SOL    HW135552   4.599   3.340   6.880  0.9719 -1.9365  0.8731
10802SOL    HW235553   4.483   3.378   6.789  3.5870 -0.1234 -1.8833
10803SOL     OW35554   0.205   2.350   4.810 -0.0793 -0.2141 -0.5940
10803SOL    HW135555   0.297   2.328   4.793 -0.2729 -0.7330 -0.9797
10803SOL    HW235556   0.155   2.291   4.753 -0.6383  0.3972 -0.7494
10804SOL     OW35557   7.936   6.393   4.055 -0.5642  0.3274 -0.5068
10804SOL    HW135558   7.945   6.341   4.135  0.7758  1.6228  0.2486
10804SOL    HW235559   7.843   6.411   4.048 -0.9701 -1.4995 -0.3877
10805SOL     OW35560   2.343   5.622   2.201 -0.4598 -0.5876  0.0608
10805SOL    HW135561   2.364   5.556   2.267 -0.3317 -1.2881 -0.6668
10805SOL    HW235562   2.257   5.655   2.227 -0.5507 -1.0817  0.4066
10806SOL     OW35563   7.920   4.919   7.850 -0.5007  0.2138  0.1273
10806SOL    HW135564   7.958   4.993   7.897 -0.3729  0.6211 -0.6097
10806SOL    HW235565   7.850   4.957   7.796 -1.2556 -0.3737  0.6589
10807SOL     OW35566   2.436   4.173   1.017  0.0545  0.5182 -0.1364
10807SOL    HW135567   2.342   4.160   1.032  0.0336  0.2740 -0.4705
10807SOL    HW235568   2.453   4.133   0.932 -0.1348  3.2301 -1.5591
10808SOL     OW35569   3.444   7.319   4.013  0.1123 -0.3046  0.3196
10808SOL    HW135570   3.435   7.256   3.942 -1.4735 -1.0672  1.1631
10808SOL    HW235571   3.380   7.388   3.992  1.3501  0.7335 -0.2331
10809SOL     OW35572   5.677   3.188   0.505  0.1933 -0.1005  0.3966
10809SOL    HW135573   5.755   3.141   0.476 -1.1886 -1.2266 -1.8377
10809SOL    HW235574   5.622   3.120   0.544 -0.4552  0.2908  0.1755
10810SOL     OW35575   6.355   1.825   1.967 -0.2847  0.0172  0.2270
10810SOL    HW135576   6.276   1.843   1.916 -1.3683 -0.0777  1.7825
10810SOL    HW235577   6.400   1.909   1.972 -0.5821  0.2054 -0.2107
10811SOL     OW35578   0.191   4.630   0.555 -0.2960 -0.1200 -0.0953
10811SOL    HW135579   0.220   4.550   0.511  1.2595 -0.0943  0.8321
10811SOL    HW235580   0.160   4.686   0.484 -0.3305 -1.0960 -0.8720
10812SOL     OW35581   2.815   3.403   7.146 -0.1888  0.9179  0.4968
10812SOL    HW135582   2.853   3.325   7.106 -0.6248  0.6566  0.5842
10812SOL    HW235583   2.789   3.375   7.234  0.2203  1.3289  0.7563
10813SOL     OW35584   7.088   0.124   3.641  0.0098  0.3949  0.1791
10813SOL    HW135585   7.164   0.089   3.688  0.8221 -1.3573 -2.2214
10813SOL    HW235586   7.124   0.157   3.559 -1.7975 -0.7880 -1.1751
10814SOL     OW35587   3.158   1.636   7.644  0.2710  1.0622 -0.4043
10814SOL    HW135588   3.128   1.614   7.555 -0.7768  1.7905 -0.2408
10814SOL    HW235589   3.222   1.706   7.630  1.0952  0.2702 -0.6736
10815SOL     OW35590   7.519   0.974   1.160 -0.3126 -0.5236 -0.5690
10815SOL    HW135591   7.612   0.998   1.159 -0.6892  0.9581 -1.4961
10815SOL    HW235592   7.484   1.016   1.238 -0.4265 -0.2042 -0.7917
10816SOL     OW35593   7.767   3.498   4.214  0.2610  0.0774 -0.7082
10816SOL    HW135594   7.762   3.490   4.119  2.5758  1.2547 -1.0122
10816SOL    HW235595   7.696   3.558   4.237  0.8550  1.3483 -1.9901
10817SOL     OW35596   6.322   7.933   1.060  0.0645 -0.3129  0.0085
10817SOL    HW135597   6.286   7.934   0.971 -0.4449 -0.9015  0.1966
10817SOL    HW235598   6.302   7.845   1.092 -0.2931  0.0946  0.9294
10818SOL     OW35599   4.499   5.356   6.425  0.1384 -0.1573  0.1891
10818SOL    HW135600   4.504   5.423   6.494  1.0967 -1.3468  1.3360
10818SOL    HW235601   4.465   5.402   6.349  0.5432  1.5780  1.0112
10819SOL     OW35602   0.198   0.154   3.455 -0.0699 -0.4402 -0.1806
10819SOL    HW135603   0.111   0.128   3.423  0.6749 -0.5403 -2.3072
10819SOL    HW235604   0.220   0.088   3.521 -1.9316  0.0838  1.0395
10820SOL     OW35605   4.109   3.276   3.610  0.5941 -0.1959  0.0805
10820SOL    HW135606   4.183   3.282   3.549  1.3514 -0.7035  0.9223
10820SOL    HW235607   4.079   3.367   3.621  0.9093 -0.0197 -0.4830
10821SOL     OW35608   3.733   2.601   5.132 -0.3777  0.0107  0.1244
10821SOL    HW135609   3.725   2.696   5.136 -1.2555 -0.0944  1.7882
10821SOL    HW235610   3.814   2.586   5.085 -0.4764  1.5761 -0.6062
10822SOL     OW35611   6.814   4.186   0.722 -0.4111 -0.1140  0.2175
10822SOL    HW135612   6.834   4.139   0.641 -0.7359 -0.6899  0.4727
10822SOL    HW235613   6.776   4.269   0.692  1.1143  0.4669 -0.2569
10823SOL     OW35614   5.520   1.202   1.178  0.1668 -0.3869 -0.0316
10823SOL    HW135615   5.615   1.200   1.195  0.0005  0.8317  1.1944
10823SOL    HW235616   5.493   1.289   1.205 -1.2738 -0.6202 -0.6652
10824SOL     OW35617   7.709   7.357   4.729 -0.2321  0.2110 -0.2711
10824SOL    HW135618   7.719   7.262   4.733 -0.0823  0.2008 -0.7637
10824SOL    HW235619   7.785   7.392   4.775 -0.1934  0.0942 -0.2463
10825SOL     OW35620   0.674   2.831   4.304  0.0257 -0.1112  0.2438
10825SOL    HW135621   0.765   2.860   4.310  0.3824 -1.0150 -0.4272
10825SOL    HW235622   0.641   2.873   4.224  0.5089 -1.3808 -0.6663
10826SOL     OW35623   5.426   6.093   6.845 -0.4899 -0.2618 -0.2241
10826SOL    HW135624   5.417   6.118   6.752 -0.0569  0.1137 -0.1695
10826SOL    HW235625   5.516   6.063   6.853 -0.1423  0.8921  0.3417
10827SOL     OW35626   4.279   6.346   1.479 -0.4426  0.1365 -0.2911
10827SOL    HW135627   4.305   6.318   1.567 -0.2126 -1.6930 -0.8934
10827SOL    HW235628   4.184   6.339   1.479 -0.4429  0.1384 -0.1757
10828SOL     OW35629   6.960   4.155   1.620 -0.0602 -0.2562  0.4081
10828SOL    HW135630   6.971   4.082   1.680 -0.4523 -1.3427 -0.7978
10828SOL    HW235631   6.897   4.124   1.555 -0.6110  1.3305  0.1303
10829SOL     OW35632   5.883   6.632   5.834  0.2816  0.6944 -0.2391
10829SOL    HW135633   5.958   6.572   5.827  1.5837  2.2402 -0.1742
10829SOL    HW235634   5.817   6.583   5.883  1.4078 -0.5822  0.0494
10830SOL     OW35635   1.670   2.515   2.490 -0.0865 -0.4016  0.1416
10830SOL    HW135636   1.616   2.483   2.563 -0.2375  0.4695  0.4307
10830SOL    HW235637   1.617   2.583   2.449  1.1492  1.2025  1.0584
10831SOL     OW35638   2.231   3.116   6.841 -0.4611 -0.5801 -0.3920
10831SOL    HW135639   2.212   3.128   6.934  0.5780  0.3557 -0.2830
10831SOL    HW235640   2.309   3.169   6.826 -0.6479 -0.6900 -1.8147
10832SOL     OW35641   8.069   5.771   5.535  0.0576  0.1261  0.1411
10832SOL    HW135642   8.123   5.749   5.459  0.5740 -0.4720  0.6741
10832SOL    HW235643   8.124   5.752   5.610 -1.2063 -1.4058  0.7458
10833SOL     OW35644   4.786   7.972   6.163 -0.1652 -0.5607 -0.2017
10833SOL    HW135645   4.856   7.917   6.196 -0.4748 -0.4775  0.6152
10833SOL    HW235646   4.799   7.973   6.068  1.8289  0.6788  0.0399
10834SOL     OW35647   3.551   4.896   3.654 -0.4753  0.3030  0.6112
10834SOL    HW135648   3.584   4.984   3.636 -0.3379  0.6634  2.3732
10834SOL    HW235649   3.492   4.908   3.729 -0.7926 -1.0418  0.5999
10835SOL     OW35650   2.551   1.054   7.435 -0.2809  0.3617  0.1416
10835SOL    HW135651   2.623   1.084   7.378 -1.2451  3.8703  0.5066
10835SOL    HW235652   2.581   1.074   7.524 -1.1585  0.6381  0.3869
10836SOL     OW35653   3.508   7.860   5.553  0.4090 -0.1988 -0.1473
10836SOL    HW135654   3.474   7.788   5.607 -1.8259  0.4956 -0.5027
10836SOL    HW235655   3.449   7.863   5.478  1.1256  1.2925 -0.6856
10837SOL     OW35656   0.058   3.719   2.449 -0.1667 -0.1574  0.2573
10837SOL    HW135657   0.023   3.651   2.393 -1.7311  0.4356  0.4587
10837SOL    HW235658   0.144   3.739   2.412 -0.3868 -1.0627 -0.7965
10838SOL     OW35659   0.957   4.378   1.351 -0.2963 -0.5548  0.2658
10838SOL    HW135660   0.953   4.283   1.347  1.0085 -0.6505  0.8454
10838SOL    HW235661   1.044   4.400   1.318  0.1673  0.2982  1.9852
10839SOL     OW35662   3.036   5.663   4.551  0.2023  0.1979 -0.3117
10839SOL    HW135663   3.117   5.628   4.588  0.8523  1.1379 -0.7837
10839SOL    HW235664   2.974   5.590   4.555  0.7741 -0.2508  0.9491
10840SOL     OW35665   0.475   3.998   0.381 -0.1647 -0.1100 -0.7395
10840SOL    HW135666   0.420   4.040   0.447 -1.7460 -1.5043 -1.1064
10840SOL    HW235667   0.437   3.911   0.370  2.8821 -1.6793 -0.0954
10841SOL     OW35668   0.944   5.330   6.991  0.0004  0.0207 -0.5929
10841SOL    HW135669   1.018   5.288   7.035  0.3298  1.9547  0.8203
10841SOL    HW235670   0.984   5.381   6.920 -0.3120 -1.1822 -1.6892
10842SOL     OW35671   4.884   5.530   7.990 -0.0803 -0.2070 -0.0472
10842SOL    HW135672   4.962   5.497   7.945  0.0463 -1.8525  1.3028
10842SOL    HW235673   4.891   5.625   7.983  1.3386 -0.3591 -1.0997
10843SOL     OW35674   3.165   8.028   3.540 -0.3422  0.2837 -0.0054
10843SOL    HW135675   3.115   8.104   3.511 -1.4843 -1.2894 -2.4682
10843SOL    HW235676   3.228   8.012   3.469  0.1282 -0.8531  0.6480
10844SOL     OW35677   1.784   0.671   6.326  0.9261  0.0487  0.8782
10844SOL    HW135678   1.691   0.672   6.304  1.0065 -2.2649  0.2143
10844SOL    HW235679   1.786   0.652   6.420  0.7497  0.5933  0.9998
10845SOL     OW35680   0.880   0.427   5.352 -0.3502 -0.4784  0.1595
10845SOL    HW135681   0.798   0.379   5.338 -1.6597  1.2678  1.4352
10845SOL    HW235682   0.915   0.391   5.434 -0.7162 -0.0830  0.4922
10846SOL     OW35683   7.829   6.109   7.141  0.3129 -0.1351  0.2583
10846SOL    HW135684   7.888   6.035   7.156  0.3508 -0.4953 -1.4703
10846SOL    HW235685   7.848   6.137   7.051 -0.2494  1.4935  0.6064
10847SOL     OW35686   0.238   2.008   4.129  0.2235  0.3417  0.1636
10847SOL    HW135687   0.307   2.071   4.149  0.1386  0.0664  1.3787
10847SOL    HW235688   0.243   1.997   4.034  1.1627  1.1027  0.1051
10848SOL     OW35689   3.456   5.697   0.377 -0.3160  0.6953  0.0911
10848SOL    HW135690   3.442   5.610   0.414  2.0630 -0.0155 -0.4730
10848SOL    HW235691   3.383   5.749   0.410 -0.6267 -0.9582  2.2631
10849SOL     OW35692   5.543   0.877   0.055  0.1395 -0.2503 -0.0725
10849SOL    HW135693   5.566   0.789   0.084 -0.0889 -0.7338 -1.3143
10849SOL    HW235694   5.585   0.886  -0.030 -1.8176 -0.0844 -1.0745
10850SOL     OW35695   7.083   5.849   2.043  0.1063 -0.0884 -0.6025
10850SOL    HW135696   7.163   5.797   2.040 -0.8526 -1.6263 -0.6821
10850SOL    HW235697   7.012   5.785   2.037 -1.1829  1.0169  1.4637
10851SOL     OW35698   0.509   1.136   6.549  0.4765  0.0308  0.0583
10851SOL    HW135699   0.496   1.121   6.643  0.4554 -0.1396  0.0286
10851SOL    HW235700   0.445   1.079   6.507 -1.2399  1.8806 -0.0179
10852SOL     OW35701   2.021   0.980   4.940  0.1764  0.2298  0.1565
10852SOL    HW135702   1.930   0.959   4.920  0.1950 -0.4072  0.7095
10852SOL    HW235703   2.041   0.929   5.018  0.9939  0.4029  0.0708
10853SOL     OW35704   7.540   1.323   6.301  0.7394  0.0339 -0.0869
10853SOL    HW135705   7.454   1.362   6.319 -0.1069 -1.6012 -0.3767
10853SOL    HW235706   7.596   1.398   6.282  0.1168  1.4007  2.8135
10854SOL     OW35707   2.506   3.803   3.796  0.3248  0.0365  0.4794
10854SOL    HW135708   2.549   3.881   3.832 -0.7784  0.2337  1.4044
10854SOL    HW235709   2.413   3.824   3.799  0.0623 -1.0301  0.0239
10855SOL     OW35710   0.116   5.518   5.122  0.5287 -0.2329  0.1091
10855SOL    HW135711   0.212   5.521   5.115  0.5102  1.1148  0.2055
10855SOL    HW235712   0.086   5.578   5.054 -0.2332 -0.1510  0.5179
10856SOL     OW35713   2.596   1.504   0.803  0.3552 -0.3025  0.3481
10856SOL    HW135714   2.628   1.516   0.714  1.3306 -0.8611  0.6135
10856SOL    HW235715   2.521   1.445   0.794 -1.6694  2.2046 -0.4520
10857SOL     OW35716   0.567   7.326   5.887 -0.5039 -0.2739 -0.1265
10857SOL    HW135717   0.633   7.394   5.900  3.2439 -3.0668 -2.3811
10857SOL    HW235718   0.533   7.343   5.799 -1.2044 -0.1236  0.1639
10858SOL     OW35719   1.491   2.901   5.951  0.1251  0.0059 -0.0688
10858SOL    HW135720   1.512   2.940   6.035  0.6344 -0.2641 -0.0676
10858SOL    HW235721   1.412   2.849   5.967 -0.4788  0.9031 -0.0393
10859SOL     OW35722   7.064   4.010   7.387 -0.0728  0.1327  0.2872
10859SOL    HW135723   7.033   3.924   7.358 -1.8173  0.9186 -0.3028
10859SOL    HW235724   7.113   3.992   7.467  0.0712 -1.4542 -0.1134
10860SOL     OW35725   3.458   4.222   8.094 -0.2070  0.3805 -0.2354
10860SOL    HW135726   3.472   4.267   8.011  1.1078  2.3109  0.9434
10860SOL    HW235727   3.368   4.191   8.091 -0.4099  1.0617 -2.0688
10861SOL     OW35728   5.992   2.321   7.761 -0.7908  0.0713 -0.0955
10861SOL    HW135729   5.969   2.285   7.676 -3.9576  0.7307  0.3854
10861SOL    HW235730   5.962   2.256   7.824  1.9291 -0.6257  0.6139
10862SOL     OW35731   4.182   5.519   6.870  0.5870  0.5260  0.0734
10862SOL    HW135732   4.206   5.429   6.892  0.3909  0.5613  0.4341
10862SOL    HW235733   4.240   5.542   6.798  1.1532  0.3595  0.4663
10863SOL     OW35734   6.363   5.137   3.240  0.6095 -0.2101  0.3071
10863SOL    HW135735   6.326   5.221   3.213 -0.6675 -1.1167 -0.9048
10863SOL    HW235736   6.308   5.109   3.313 -0.1427 -0.8248 -0.4769
10864SOL     OW35737   6.627   3.975   4.951  0.4488 -0.3797  0.3036
10864SOL    HW135738   6.619   4.070   4.944 -0.9426 -0.4037  1.1243
10864SOL    HW235739   6.649   3.960   5.043  1.4363 -0.8310  0.0090
10865SOL     OW35740   0.927   6.174   3.506 -0.2363  0.0550  0.3833
10865SOL    HW135741   1.022   6.181   3.509 -0.1216 -0.9930 -0.1229
10865SOL    HW235742   0.902   6.216   3.423 -0.3074  1.0847  0.9164
10866SOL     OW35743   0.500   7.806   0.150  0.5599 -0.2317  0.7040
10866SOL    HW135744   0.467   7.777   0.065  0.9076  0.6803  0.2426
10866SOL    HW235745   0.506   7.726   0.202 -2.0383 -0.5248  0.7169
10867SOL     OW35746   2.978   2.549   2.360 -0.4434 -0.1915 -0.0954
10867SOL    HW135747   2.955   2.468   2.316  0.5912 -0.3003 -0.4784
10867SOL    HW235748   2.903   2.606   2.346 -0.2611 -0.3084 -1.8259
10868SOL     OW35749   5.405   8.046   0.490  0.0787 -0.1351  0.1589
10868SOL    HW135750   5.370   8.041   0.400 -1.7524  0.0624  0.8183
10868SOL    HW235751   5.485   7.994   0.487 -0.4836 -0.9881 -1.3630
10869SOL     OW35752   0.057   3.781   6.604  0.3313  0.0826  0.2737
10869SOL    HW135753   0.089   3.870   6.590 -0.0239  0.5520  2.1114
10869SOL    HW235754   0.087   3.759   6.693 -0.6717 -1.1434  0.3303
10870SOL     OW35755   6.860   3.793   7.709  0.0892 -0.1669 -0.1502
10870SOL    HW135756   6.839   3.848   7.633 -0.3541 -2.5047 -1.8091
10870SOL    HW235757   6.956   3.789   7.710  0.0868 -0.4406 -0.8213
10871SOL     OW35758   3.522   4.592   1.838  0.4353 -0.9369  0.1857
10871SOL    HW135759   3.564   4.581   1.753  0.5081 -0.8178  0.2062
10871SOL    HW235760   3.588   4.564   1.901  0.8905  0.2731  0.2829
10872SOL     OW35761   4.921   5.918   1.672  0.4143 -0.1767 -0.6619
10872SOL    HW135762   4.844   5.934   1.727  0.9715  0.5505 -0.0811
10872SOL    HW235763   4.975   5.995   1.683  1.6295 -1.0345 -0.4110
10873SOL     OW35764   1.631   0.556   4.070 -0.2505  0.3778  0.3121
10873SOL    HW135765   1.711   0.574   4.119 -0.2458 -2.5944  1.6521
10873SOL    HW235766   1.567   0.532   4.137 -1.1270 -0.9566 -0.9285
10874SOL     OW35767   6.502   7.931   5.041  0.6034 -0.6350  0.2434
10874SOL    HW135768   6.570   7.907   5.103  1.2615 -0.2889 -0.3315
10874SOL    HW235769   6.469   8.015   5.072  0.8605 -0.5131  0.1912
10875SOL     OW35770   2.045   2.848   4.452 -0.1770 -0.2398  0.1060
10875SOL    HW135771   2.008   2.769   4.411 -2.2569  1.0475 -0.6647
10875SOL    HW235772   1.971   2.908   4.459  1.2694  1.5309  0.9915
10876SOL     OW35773   7.694   1.595   7.473  0.4826 -0.6117 -0.0916
10876SOL    HW135774   7.702   1.543   7.393 -2.5178 -0.7028 -0.4465
10876SOL    HW235775   7.665   1.681   7.443  0.3706 -0.3134  0.8488
10877SOL     OW35776   1.080   7.944   3.799 -0.6457  0.1312  0.1013
10877SOL    HW135777   1.128   8.026   3.807 -1.4053  0.6679 -0.7413
10877SOL    HW235778   1.146   7.876   3.817  0.3793  0.8583 -0.8246
10878SOL     OW35779   3.610   6.449   2.322 -0.0146 -0.0233  0.3022
10878SOL    HW135780   3.642   6.412   2.240 -1.5711 -1.7301  0.3818
10878SOL    HW235781   3.649   6.536   2.327  3.2923 -1.3241 -0.2843
10879SOL     OW35782   6.909   2.560   7.770 -0.0909  0.3240  0.0837
10879SOL    HW135783   6.818   2.581   7.750 -0.2364  0.1568  0.5414
10879SOL    HW235784   6.939   2.634   7.823 -0.0079  0.3082  0.0582
10880SOL     OW35785   4.381   7.819   6.133 -0.0580 -0.3374 -0.1604
10880SOL    HW135786   4.302   7.850   6.178 -0.8281 -2.0095 -0.2692
10880SOL    HW235787   4.448   7.885   6.153 -0.6434 -0.4496  2.5563
10881SOL     OW35788   0.428   4.015   7.567  0.2077 -0.9503 -0.2345
10881SOL    HW135789   0.391   4.009   7.655 -0.4058 -1.5107 -0.5264
10881SOL    HW235790   0.521   3.995   7.579  0.8566  2.0936  0.7605
10882SOL     OW35791   7.774   0.384   4.972  0.3178 -0.3100 -0.6426
10882SOL    HW135792   7.734   0.307   5.012 -0.6410  0.0436 -0.8913
10882SOL    HW235793   7.779   0.362   4.879 -3.2987  1.2038 -1.3815
10883SOL     OW35794   1.815   5.179   7.295 -0.0098 -0.2755  0.4014
10883SOL    HW135795   1.854   5.267   7.291 -1.3214  0.2812 -1.4846
10883SOL    HW235796   1.789   5.169   7.387  0.1058  1.3298  0.6390
10884SOL     OW35797   2.523   1.384   2.374 -0.1584  0.2091 -0.5813
10884SOL    HW135798   2.609   1.372   2.334 -0.1075 -2.1825  0.0818
10884SOL    HW235799   2.460   1.360   2.305 -0.0797 -3.3484  0.3403
10885SOL     OW35800   2.914   1.800   1.682  0.2188 -0.5054  0.3283
10885SOL    HW135801   2.865   1.847   1.749  0.8858 -0.2367  0.6416
10885SOL    HW235802   2.889   1.841   1.600  0.6613  0.3035  0.5824
10886SOL     OW35803   7.716   0.222   2.426  0.3416 -0.3178  0.0587
10886SOL    HW135804   7.715   0.262   2.339  0.2567  0.2239  0.3035
10886SOL    HW235805   7.670   0.285   2.482  0.4287 -0.6420  0.5027
10887SOL     OW35806   7.523   3.079   5.212  0.1856 -0.1982 -0.2043
10887SOL    HW135807   7.428   3.077   5.200 -0.0142  0.6289  0.9985
10887SOL    HW235808   7.537   3.045   5.301  0.9240  0.4773 -0.0431
10888SOL     OW35809   3.598   3.633   4.654  0.5407 -0.0961 -0.0032
10888SOL    HW135810   3.605   3.559   4.715  1.6464  0.4191  0.5262
10888SOL    HW235811   3.685   3.672   4.655 -0.3867  2.1128  0.8831
10889SOL     OW35812   7.925   8.049   5.353 -0.0780 -0.6532  0.1934
10889SOL    HW135813   7.870   8.120   5.318  0.2909 -1.2197 -1.6426
10889SOL    HW235814   7.898   7.972   5.304  1.2338 -1.2816  0.4280
10890SOL     OW35815   0.179   5.988   1.410  0.4828 -0.2283  0.0470
10890SOL    HW135816   0.090   6.002   1.441  1.0988 -0.3634  2.0339
10890SOL    HW235817   0.187   5.893   1.401  0.3709 -0.2032 -0.3354
10891SOL     OW35818   3.154   0.062   3.825  0.3206  0.6840 -0.1466
10891SOL    HW135819   3.182   0.009   3.900 -0.9832  1.6586  1.0791
10891SOL    HW235820   3.079   0.112   3.857 -1.3998 -0.1121 -2.6010
10892SOL     OW35821   4.741   2.299   4.912 -0.8016 -0.3380 -0.3513
10892SOL    HW135822   4.754   2.377   4.858  1.3663 -1.2510 -1.2673
10892SOL    HW235823   4.660   2.316   4.960 -1.4014  1.6444 -1.9283
10893SOL     OW35824   6.395   1.049   2.417  0.2616 -0.3389  0.2770
10893SOL    HW135825   6.490   1.036   2.418  0.0737 -2.4746 -1.7491
10893SOL    HW235826   6.358   0.961   2.413 -1.9212  0.3727  2.1090
10894SOL     OW35827   3.718   2.286   1.083  0.1463  0.8823 -0.1159
10894SOL    HW135828   3.715   2.205   1.134 -0.1771  1.7135  1.2278
10894SOL    HW235829   3.667   2.349   1.134 -1.0569  1.4994 -1.9713
10895SOL     OW35830   6.349   2.998   7.531 -0.2138  0.5684  0.0405
10895SOL    HW135831   6.388   3.085   7.520  0.7546  0.1927  0.3024
10895SOL    HW235832   6.272   3.013   7.586  1.0529  1.0506  1.8091
10896SOL     OW35833   0.654   3.853   6.478 -0.0284 -0.0618 -0.4239
10896SOL    HW135834   0.732   3.799   6.464  0.4866  0.3182  0.8791
10896SOL    HW235835   0.601   3.805   6.541  0.0454  0.5408  0.1141
10897SOL     OW35836   6.168   7.009   6.906 -0.2412  0.2701 -0.0463
10897SOL    HW135837   6.227   7.042   6.838  1.0420 -0.9123  0.4468
10897SOL    HW235838   6.165   6.915   6.892 -1.1477  0.1814  0.6385
10898SOL     OW35839   6.941   6.260   6.872 -0.3674  0.8007 -0.3930
10898SOL    HW135840   6.986   6.187   6.915 -2.1091 -0.7285 -1.0737
10898SOL    HW235841   6.966   6.336   6.925  0.6300 -0.4272  1.0133
10899SOL     OW35842   6.037   6.791   5.375  0.0743 -0.3097  0.0086
10899SOL    HW135843   6.065   6.753   5.291 -0.1853  1.3436 -0.8803
10899SOL    HW235844   5.944   6.768   5.381 -0.2359  0.6176 -0.8235
10900SOL     OW35845   7.065   5.091   3.354 -0.5940 -0.3302 -0.0792
10900SOL    HW135846   7.126   5.076   3.427 -0.4980 -2.0303 -0.4560
10900SOL    HW235847   7.121   5.089   3.276 -0.8230  0.5606 -0.2788
10901SOL     OW35848   1.619   2.496   5.999  0.3202 -0.2294  0.0346
10901SOL    HW135849   1.579   2.541   5.924  0.3825  0.4444  0.3939
10901SOL    HW235850   1.550   2.439   6.033 -1.3464  2.8329  2.2760
10902SOL     OW35851   5.998   2.457   0.748  0.7570 -0.0948 -0.6548
10902SOL    HW135852   5.936   2.476   0.678  0.4066  0.8915 -0.0954
10902SOL    HW235853   5.957   2.491   0.827  1.8740  0.3293 -0.2280
10903SOL     OW35854   1.764   7.073   6.111 -0.0307  0.0578 -0.1208
10903SOL    HW135855   1.843   7.127   6.110 -0.8988  1.3575 -0.9419
10903SOL    HW235856   1.697   7.128   6.072 -1.2148 -1.2456  0.0100
10904SOL     OW35857   2.349   7.412   0.390 -0.0895 -0.0222  0.3739
10904SOL    HW135858   2.256   7.405   0.410 -0.4800  1.3888 -0.7340
10904SOL    HW235859   2.379   7.488   0.440  0.4124 -0.3203  0.5350
10905SOL     OW35860   5.274   2.366   5.751 -0.5029  0.0648 -0.2742
10905SOL    HW135861   5.233   2.354   5.666 -2.5133  1.3294  0.4507
10905SOL    HW235862   5.205   2.347   5.814 -0.3725  3.1877  0.9943
10906SOL     OW35863   1.497   4.884   4.988  0.3621 -0.0217  0.1788
10906SOL    HW135864   1.450   4.927   5.059 -0.2876 -2.5588  1.3972
10906SOL    HW235865   1.582   4.928   4.985 -0.1364  1.1077  1.5019
10907SOL     OW35866   1.490   6.586   5.712 -0.5432  0.4770 -0.1934
10907SOL    HW135867   1.536   6.613   5.632  0.0322  0.8627  0.2564
10907SOL    HW235868   1.436   6.661   5.735 -0.9831  0.2314 -0.4141
10908SOL     OW35869   7.724   3.379   3.977 -0.0966  0.0390 -0.1226
10908SOL    HW135870   7.787   3.318   4.016 -1.4977 -0.8450  0.7962
10908SOL    HW235871   7.714   3.348   3.887  0.3054 -0.1936 -0.0899
10909SOL     OW35872   5.095   7.327   3.142  0.0490  0.2276  0.1834
10909SOL    HW135873   5.011   7.330   3.189 -0.0823 -0.7667  0.0483
10909SOL    HW235874   5.071   7.308   3.052  0.4855 -2.4249  0.5443
10910SOL     OW35875   0.233   5.840   6.333 -0.3988  0.2070 -0.0447
10910SOL    HW135876   0.195   5.844   6.245 -0.8125 -0.4204  0.1084
10910SOL    HW235877   0.162   5.812   6.390 -0.0645  0.3617  0.4590
10911SOL     OW35878   5.096   6.722   5.781 -0.0053 -0.2059 -0.3315
10911SOL    HW135879   5.038   6.722   5.857 -0.5660 -0.5845 -0.7556
10911SOL    HW235880   5.131   6.633   5.779  1.4473  0.3036  0.5555
10912SOL     OW35881   0.762   7.143   2.756  0.0353  0.3316 -0.3726
10912SOL    HW135882   0.707   7.091   2.815 -0.9149  1.8733  0.1723
10912SOL    HW235883   0.699   7.185   2.697  0.8578  0.1337 -1.4170
10913SOL     OW35884   5.034   8.023   2.772  0.0899 -0.4068 -0.6056
10913SOL    HW135885   5.062   8.111   2.799  1.2803 -0.8996 -0.1918
10913SOL    HW235886   4.999   7.984   2.852 -0.2240 -0.4051 -0.7388
10914SOL     OW35887   1.731   3.597   0.160 -0.0618  0.2616 -0.2837
10914SOL    HW135888   1.746   3.632   0.072 -0.4420  0.7583 -0.1559
10914SOL    HW235889   1.649   3.549   0.153  0.6199 -0.8991 -0.5363
10915SOL     OW35890   7.020   5.976   3.896 -0.5280 -0.4106 -0.7460
10915SOL    HW135891   7.052   5.993   3.808  0.7358  1.2840 -0.0194
10915SOL    HW235892   7.093   5.934   3.941 -0.5297  0.3176 -0.0396
10916SOL     OW35893   6.057   0.973   7.331  0.1665 -0.0419  0.0355
10916SOL    HW135894   6.035   1.064   7.314  2.9626  0.7018 -0.0951
10916SOL    HW235895   6.065   0.934   7.244  2.5738  0.6222 -0.1153
10917SOL     OW35896   5.662   4.406   6.850  0.2778 -0.1210  0.6161
10917SOL    HW135897   5.646   4.500   6.858  0.6110  0.0021 -0.0422
10917SOL    HW235898   5.581   4.364   6.878 -0.2904  0.4057 -0.2018
10918SOL     OW35899   5.409   5.016   4.999  0.2395  0.2700  0.5748
10918SOL    HW135900   5.464   4.937   4.997  0.0785  0.1634 -0.9082
10918SOL    HW235901   5.472   5.087   5.011  0.8684  0.2153 -1.8194
10919SOL     OW35902   2.078   4.269   2.397  0.1447  0.3596 -0.1218
10919SOL    HW135903   2.004   4.208   2.408 -0.8493  1.7684  1.7072
10919SOL    HW235904   2.155   4.218   2.423 -0.5571 -0.3637  0.6092
10920SOL     OW35905   3.066   2.446   7.830  0.4256 -0.0344  0.2654
10920SOL    HW135906   3.104   2.531   7.809  1.3931 -0.4985  0.0839
10920SOL    HW235907   3.102   2.387   7.764 -0.5760 -0.5088  0.1209
10921SOL     OW35908   4.412   2.246   2.757  0.8859  0.0997 -0.5538
10921SOL    HW135909   4.394   2.167   2.807 -2.7086  0.1832 -1.4536
10921SOL    HW235910   4.420   2.315   2.823  3.7074 -0.8068  0.2130
10922SOL     OW35911   4.037   2.064   5.803  0.0032  0.7312 -0.4793
10922SOL    HW135912   4.028   2.121   5.727 -1.2346  0.7063 -0.3734
10922SOL    HW235913   3.948   2.053   5.836  0.3784 -0.1889  0.2984
10923SOL     OW35914   4.167   6.608   1.762  0.1702  0.3383 -0.0157
10923SOL    HW135915   4.239   6.545   1.753  0.8150  1.2303 -1.4082
10923SOL    HW235916   4.087   6.555   1.752  0.6340 -0.5582  0.9086
10924SOL     OW35917   7.897   4.093   7.749  0.7602 -0.1859 -0.6132
10924SOL    HW135918   7.974   4.036   7.745  1.3194  0.5274 -0.2886
10924SOL    HW235919   7.914   4.150   7.824  0.7811  1.2046 -1.6397
10925SOL     OW35920   1.748   5.862   3.378  0.3091  0.2089 -0.2588
10925SOL    HW135921   1.818   5.826   3.434  0.0467  0.2721  0.1190
10925SOL    HW235922   1.782   5.855   3.289 -0.0059 -1.6693 -0.2755
10926SOL     OW35923   2.389   6.371   2.943  0.0673 -0.5125  0.0137
10926SOL    HW135924   2.371   6.279   2.961  0.9106 -0.5291  0.8383
10926SOL    HW235925   2.308   6.416   2.967 -1.3100 -1.2603 -2.8071
10927SOL     OW35926   5.767   1.587   7.908 -0.3935  0.5929  0.3531
10927SOL    HW135927   5.833   1.564   7.973 -0.2648  0.6427  0.2403
10927SOL    HW235928   5.694   1.528   7.926 -0.9235  1.5560  1.4529
10928SOL     OW35929   1.919   6.541   2.920  0.4884 -0.5245 -0.2008
10928SOL    HW135930   1.885   6.630   2.916 -1.5805 -1.2598 -0.1443
10928SOL    HW235931   1.893   6.510   3.007 -0.0465 -1.6457 -0.7499
10929SOL     OW35932   5.316   4.611   2.419 -0.1624 -0.0161  0.3137
10929SOL    HW135933   5.376   4.551   2.374 -0.8856 -0.7829  0.3446
10929SOL    HW235934   5.238   4.559   2.435 -0.8746  0.9915  0.2056
10930SOL     OW35935   2.384   3.705   6.577 -0.1901 -0.2312  0.4712
10930SOL    HW135936   2.352   3.794   6.592 -0.3984 -0.3274  0.5966
10930SOL    HW235937   2.393   3.698   6.482  0.8128  0.2697  0.5108
10931SOL     OW35938   5.039   4.605   7.658 -0.0894 -0.2442 -0.8676
10931SOL    HW135939   5.022   4.635   7.569 -2.6315  0.1368 -0.3436
10931SOL    HW235940   5.022   4.682   7.712  0.5929 -0.7011  0.0244
10932SOL     OW35941   6.046   0.775   4.654 -0.5442 -0.2184  0.9398
10932SOL    HW135942   6.120   0.797   4.597 -0.9349 -0.0123  0.5055
10932SOL    HW235943   6.086   0.746   4.736  0.0277 -0.6235  0.5213
10933SOL     OW35944   2.120   3.702   4.045 -0.0324  0.3820  0.1076
10933SOL    HW135945   2.046   3.667   3.995  0.3105  1.2773 -1.0433
10933SOL    HW235946   2.089   3.701   4.136 -0.8612 -0.7576 -0.1631
10934SOL     OW35947   3.820   2.551   4.474 -0.7132 -0.0279  0.2710
10934SOL    HW135948   3.876   2.612   4.522 -0.1143  1.5350 -2.2568
10934SOL    HW235949   3.753   2.606   4.433 -1.0044 -1.2199 -0.9304
10935SOL     OW35950   7.897   2.378   3.923  0.0813 -0.4828 -0.1749
10935SOL    HW135951   7.955   2.316   3.968 -2.2142 -1.6294  1.3871
10935SOL    HW235952   7.857   2.326   3.853  0.0525 -0.0442 -0.4818
10936SOL     OW35953   6.122   4.752   0.949  0.5028 -0.1853 -0.0693
10936SOL    HW135954   6.169   4.677   0.912 -0.8955 -0.5208 -1.2465
10936SOL    HW235955   6.124   4.737   1.044  0.5061 -1.5524 -0.2667
10937SOL     OW35956   5.911   5.860   0.708 -0.0301 -0.0775  0.6838
10937SOL    HW135957   5.875   5.913   0.779 -1.0087  0.9849 -0.5549
10937SOL    HW235958   5.879   5.902   0.628  0.8452 -1.3706 -0.3900
10938SOL     OW35959   3.477   6.835   7.789  0.3594  0.3439 -0.5224
10938SOL    HW135960   3.392   6.817   7.748  1.0813 -0.3897 -1.7546
10938SOL    HW235961   3.492   6.928   7.773 -0.0624  0.4112 -0.5536
10939SOL     OW35962   7.385   4.905   6.026 -0.2766 -0.0402  0.6000
10939SOL    HW135963   7.425   4.856   6.098  1.6118  0.2867 -0.1549
10939SOL    HW235964   7.386   4.996   6.055  0.3545  0.0738  0.2588
10940SOL     OW35965   2.130   0.198   1.864 -0.1542 -0.0390 -0.0068
10940SOL    HW135966   2.094   0.273   1.912  1.4476  0.8838 -0.1725
10940SOL    HW235967   2.070   0.126   1.885 -0.9314  0.9342  1.3318
10941SOL     OW35968   2.879   3.035   6.503  0.0397 -0.8416  0.2183
10941SOL    HW135969   2.958   3.017   6.453 -1.0911  0.0464 -2.0849
10941SOL    HW235970   2.875   2.966   6.569  1.8615 -1.8697 -0.6700
10942SOL     OW35971   4.479   6.714   4.082 -0.1519  0.3487  0.4222
10942SOL    HW135972   4.570   6.708   4.051 -0.1246 -0.5865  0.6344
10942SOL    HW235973   4.445   6.794   4.042  0.7685  0.7171  0.3463
10943SOL     OW35974   0.215   2.986   5.415 -0.7134 -0.0974 -0.2128
10943SOL    HW135975   0.176   3.011   5.498 -0.6716  2.0529 -0.8024
10943SOL    HW235976   0.167   3.036   5.349 -0.5684 -1.5514 -1.4954
10944SOL     OW35977   3.601   5.261   1.368 -0.0612 -0.1231  0.0604
10944SOL    HW135978   3.544   5.335   1.390  1.6523  1.5693 -0.7961
10944SOL    HW235979   3.644   5.238   1.450 -1.0137 -0.5563  0.4469
10945SOL     OW35980   3.903   3.547   5.465 -0.1484 -0.2867  0.2692
10945SOL    HW135981   3.924   3.580   5.552  0.3150  0.8405 -0.2435
10945SOL    HW235982   3.927   3.454   5.468  2.2230  0.2698  0.6145
10946SOL     OW35983   6.743   3.611   7.079 -0.4820 -0.7994  0.2032
10946SOL    HW135984   6.681   3.643   7.144  0.7765 -0.8908  1.4962
10946SOL    HW235985   6.738   3.674   7.007 -0.9216  0.0491  0.9670
10947SOL     OW35986   4.213   1.494   0.793 -0.2868  0.2297  0.5559
10947SOL    HW135987   4.187   1.432   0.725  2.5384  1.0729 -1.4815
10947SOL    HW235988   4.232   1.439   0.869 -3.3484 -0.7549  0.7239
10948SOL     OW35989   1.824   3.292   3.475  0.1027  0.0860  0.0388
10948SOL    HW135990   1.740   3.303   3.519 -0.8605 -2.2111 -1.0443
10948SOL    HW235991   1.868   3.221   3.523 -0.9941 -2.5141 -2.5023
10949SOL     OW35992   5.025   3.493   1.262 -0.2791  0.2731 -0.0143
10949SOL    HW135993   5.107   3.466   1.221  0.4913  1.3366  0.7561
10949SOL    HW235994   4.979   3.542   1.194 -0.1441 -0.0701 -0.3570
10950SOL     OW35995   3.924   2.537   0.103 -0.6478 -0.2305  0.4520
10950SOL    HW135996   3.935   2.553   0.197 -0.6714 -0.8181  0.5615
10950SOL    HW235997   3.886   2.449   0.099 -2.8057  0.6633 -0.0081
10951SOL     OW35998   4.447   2.920   5.622  0.5996  0.2061 -0.0196
10951SOL    HW135999   4.412   2.923   5.533 -0.3205  0.7847  0.3365
10951SOL    HW236000   4.373   2.891   5.676  1.1778 -0.2571  0.5425
10952SOL     OW36001   1.838   7.561   0.614  0.3057  0.1135  0.1914
10952SOL    HW136002   1.845   7.643   0.565  0.8042 -1.0705 -1.8630
10952SOL    HW236003   1.892   7.574   0.692 -0.6201  2.1313  0.5536
10953SOL     OW36004   7.808   3.254   6.611  0.3694  0.0822 -0.3283
10953SOL    HW136005   7.879   3.222   6.555  1.5708  2.9752 -0.6119
10953SOL    HW236006   7.785   3.339   6.575 -0.3515  1.0911  2.2767
10954SOL     OW36007   0.531   7.509   5.226  0.3587  0.7307  0.0034
10954SOL    HW136008   0.531   7.535   5.319  0.1496  0.4827  0.0759
10954SOL    HW236009   0.605   7.555   5.188 -1.1104  3.0145 -0.3077
10955SOL     OW36010   0.073   7.757   0.098 -0.5489 -0.1022 -0.1598
10955SOL    HW136011   0.027   7.772   0.016  1.2715  0.4316 -1.1480
10955SOL    HW236012   0.135   7.686   0.078 -0.2331 -0.1189  0.8197
10956SOL     OW36013   1.554   4.438   4.407  0.2276  0.0462 -0.1838
10956SOL    HW136014   1.621   4.502   4.384  0.9703 -0.7758 -0.3647
10956SOL    HW236015   1.529   4.398   4.324  1.8205 -1.8586  0.1664
10957SOL     OW36016   2.920   6.407   0.546  0.1314  0.2705  0.1634
10957SOL    HW136017   2.958   6.330   0.501  0.0976  1.0258 -1.2260
10957SOL    HW236018   2.989   6.436   0.605  0.8454  0.2233 -0.6194
10958SOL     OW36019   5.435   1.533   3.398  0.5476 -0.1722 -0.0552
10958SOL    HW136020   5.520   1.492   3.382  1.2221  1.1755 -0.0519
10958SOL    HW236021   5.405   1.559   3.311  0.7235  0.4678  0.0746
10959SOL     OW36022   0.913   6.479   0.629 -0.4671 -0.4033 -0.1675
10959SOL    HW136023   0.948   6.412   0.571 -2.2802 -2.3251  0.8254
10959SOL    HW236024   0.972   6.553   0.619  2.5496 -2.6507 -0.2039
10960SOL     OW36025   4.118   5.837   2.603 -0.0063 -0.6751 -0.3741
10960SOL    HW136026   4.031   5.865   2.631  0.3022 -0.2102  0.1455
10960SOL    HW236027   4.102   5.778   2.529 -0.7001  1.1312 -1.7540
10961SOL     OW36028   4.001   2.470   6.100  0.0390 -0.2294  0.3265
10961SOL    HW136029   3.970   2.452   6.012  0.3784 -1.0791  0.3726
10961SOL    HW236030   3.985   2.389   6.148 -1.5095  0.6863  1.4522
10962SOL     OW36031   7.377   5.057   4.323 -0.1453  0.7253 -0.0021
10962SOL    HW136032   7.345   5.101   4.402 -1.2064  2.3183 -1.2621
10962SOL    HW236033   7.445   5.115   4.289 -0.2061  0.4321 -0.6486
10963SOL     OW36034   0.672   7.494   1.807 -0.3486 -0.4287 -0.4382
10963SOL    HW136035   0.651   7.476   1.899 -1.2305 -1.6527 -0.8511
10963SOL    HW236036   0.592   7.530   1.770 -0.2895 -0.7864 -0.9331
10964SOL     OW36037   4.781   3.189   6.733 -0.1830 -0.8284  0.6261
10964SOL    HW136038   4.849   3.146   6.785  0.8319  0.2616  0.2631
10964SOL    HW236039   4.776   3.277   6.768  0.9097  0.1152 -1.3813
10965SOL     OW36040   4.895   1.299   7.197  0.4379 -0.0831 -0.0355
10965SOL    HW136041   4.850   1.245   7.262  1.7818 -1.4738 -0.1880
10965SOL    HW236042   4.855   1.385   7.205 -0.9804 -0.8001  1.0528
10966SOL     OW36043   1.073   2.917   4.042 -0.0275 -0.0100 -0.1042
10966SOL    HW136044   1.123   2.986   3.997  1.4344 -1.3170 -0.5946
10966SOL    HW236045   1.036   2.864   3.971 -0.0150 -0.4982  0.2477
10967SOL     OW36046   3.473   4.158   0.469  0.2877 -0.2804  0.1164
10967SOL    HW136047   3.457   4.241   0.425  1.3993 -0.5085 -0.7568
10967SOL    HW236048   3.507   4.101   0.401  1.1525 -0.9397  1.0697
10968SOL     OW36049   1.385   1.566   4.830 -0.5013  0.5248 -0.0922
10968SOL    HW136050   1.402   1.660   4.823  0.9395  0.1727 -2.1503
10968SOL    HW236051   1.459   1.532   4.880 -0.5062  0.3607 -0.1956
10969SOL     OW36052   4.377   5.657   0.874 -0.2076  0.0552 -0.0452
10969SOL    HW136053   4.388   5.588   0.938  1.5162 -0.4069 -0.7726
10969SOL    HW236054   4.403   5.617   0.791  1.4122  1.6713 -0.3970
10970SOL     OW36055   5.687   0.890   4.943  0.2271  0.4337 -0.4556
10970SOL    HW136056   5.602   0.861   4.909 -2.3816  3.2300  2.9149
10970SOL    HW236057   5.720   0.815   4.992 -1.3319 -0.1005 -0.1624
10971SOL     OW36058   3.235   5.151   1.397  0.2109  0.5401 -0.1191
10971SOL    HW136059   3.226   5.244   1.373  2.0619  0.9708  0.6870
10971SOL    HW236060   3.217   5.104   1.315 -0.4722  1.6002 -0.6149
10972SOL     OW36061   0.129   0.350   3.646 -0.3266  0.2356 -0.2858
10972SOL    HW136062   0.168   0.316   3.566  0.0341  1.4280 -0.6313
10972SOL    HW236063   0.072   0.279   3.677 -0.7522 -0.1056 -1.7744
10973SOL     OW36064   3.580   3.592   2.304 -0.1901  0.2055  0.2063
10973SOL    HW136065   3.487   3.602   2.284 -0.2311 -0.0071  0.2856
10973SOL    HW236066   3.601   3.667   2.360 -0.5401 -0.2526  0.9679
10974SOL     OW36067   0.721   4.093   6.698 -1.0134  0.3633 -0.8132
10974SOL    HW136068   0.764   4.024   6.648  0.2077  1.4319 -1.3088
10974SOL    HW236069   0.739   4.073   6.789 -1.5084 -0.4909 -0.8940
10975SOL     OW36070   0.393   2.175   2.198 -0.1100 -0.1101 -0.0268
10975SOL    HW136071   0.384   2.099   2.140 -0.6706 -0.4361  0.4738
10975SOL    HW236072   0.447   2.143   2.271 -1.4806 -0.4653  0.8825
10976SOL     OW36073   6.953   3.600   6.213 -0.4570  0.3044  0.0312
10976SOL    HW136074   6.907   3.664   6.267 -1.7842 -0.3683 -0.2572
10976SOL    HW236075   7.038   3.640   6.194 -0.6171  1.2478  1.2321
10977SOL     OW36076   0.894   1.540   6.060 -0.0867  0.4636  1.0433
10977SOL    HW136077   0.847   1.616   6.027 -0.8413 -0.6774 -0.6043
10977SOL    HW236078   0.945   1.509   5.986  1.7270  0.4580  2.2354
10978SOL     OW36079   1.451   7.195   3.569 -0.1780  0.5012  0.8591
10978SOL    HW136080   1.430   7.135   3.497 -3.4984  2.3340  0.1110
10978SOL    HW236081   1.458   7.138   3.646 -0.8089 -1.0753 -0.1870
10979SOL     OW36082   7.188   6.716   2.320 -0.1915  0.3595 -0.0082
10979SOL    HW136083   7.144   6.777   2.261  0.1827 -0.9319 -1.6655
10979SOL    HW236084   7.123   6.650   2.341  0.7698 -1.4177 -2.2655
10980SOL     OW36085   3.120   3.289   3.925  0.0506 -0.5313  0.6798
10980SOL    HW136086   3.081   3.360   3.977  0.7874 -1.2755  2.3046
10980SOL    HW236087   3.188   3.252   3.981  0.9744 -1.3018 -0.8869
10981SOL     OW36088   0.796   2.625   0.162  0.7220  0.1693 -0.2349
10981SOL    HW136089   0.723   2.594   0.108  1.1485  1.5411 -1.7022
10981SOL    HW236090   0.866   2.561   0.147  0.4291 -0.1311 -0.3275
10982SOL     OW36091   0.490   5.182   2.057 -0.5095 -0.6996  0.0380
10982SOL    HW136092   0.480   5.227   1.973 -0.2596  0.4470  0.5996
10982SOL    HW236093   0.575   5.137   2.049  0.1106  0.4116  0.1041
10983SOL     OW36094   3.913   3.728   7.039  0.1151  0.8370  0.5998
10983SOL    HW136095   3.826   3.692   7.058  0.0284  1.0720  0.6521
10983SOL    HW236096   3.910   3.749   6.946 -0.0580  1.3210  0.7149
10984SOL     OW36097   1.391   1.350   0.925 -0.2251  0.4637 -0.5207
10984SOL    HW136098   1.376   1.281   0.990 -0.2241 -0.0962 -1.1061
10984SOL    HW236099   1.351   1.317   0.845  0.3229  0.8640 -0.9696
10985SOL     OW36100   5.030   6.539   0.717 -0.2168 -0.1058  0.2289
10985SOL    HW136101   5.039   6.446   0.699  1.3690 -0.8384  3.9240
10985SOL    HW236102   5.109   6.562   0.767 -0.5491  3.2420 -0.5439
10986SOL     OW36103   0.116   2.438   0.546 -0.2762  0.3122  0.1981
10986SOL    HW136104   0.122   2.464   0.453 -0.3611  0.0715  0.1259
10986SOL    HW236105   0.049   2.370   0.548  0.5252 -0.4982  0.2591
10987SOL     OW36106   6.671   0.179   2.372 -0.3717  0.3484 -0.6733
10987SOL    HW136107   6.681   0.259   2.424 -0.4218  0.1183 -0.3047
10987SOL    HW236108   6.752   0.171   2.323  1.6678 -1.7558  2.6410
10988SOL     OW36109   1.624   7.815   2.354  0.2170  0.1728  0.0092
10988SOL    HW136110   1.659   7.891   2.401  0.0748  0.1224  0.1999
10988SOL    HW236111   1.589   7.759   2.423 -1.4340  0.8334 -0.2362
10989SOL     OW36112   3.945   1.876   0.675  0.1520 -0.5408 -0.8338
10989SOL    HW136113   3.957   1.792   0.719 -0.1780  0.2287  0.8064
10989SOL    HW236114   3.916   1.936   0.745 -3.2450  0.0907 -2.5666
10990SOL     OW36115   7.130   1.968   5.019  0.4589 -0.4832  0.0283
10990SOL    HW136116   7.129   1.971   4.924  0.7859 -1.8766 -0.0446
10990SOL    HW236117   7.220   1.942   5.041  0.0221 -1.5246  0.6410
10991SOL     OW36118   2.334   7.266   6.310  0.4883  0.2325 -0.8208
10991SOL    HW136119   2.300   7.323   6.379 -0.6389 -2.5295  1.0699
10991SOL    HW236120   2.274   7.278   6.237 -1.9539 -1.1023  0.8280
10992SOL     OW36121   3.213   6.034   3.742  0.4716 -0.0639  0.6792
10992SOL    HW136122   3.274   6.066   3.809  0.9271  2.1695 -0.6952
10992SOL    HW236123   3.175   5.955   3.780  2.2798 -0.0728  2.6693
10993SOL     OW36124   6.635   1.729   6.423  0.2226 -0.5616 -0.1999
10993SOL    HW136125   6.653   1.721   6.329  2.9570  0.1133  0.1862
10993SOL    HW236126   6.686   1.659   6.463 -1.4685 -1.2865  0.7827
10994SOL     OW36127   6.213   4.406   6.963 -0.1753 -0.2271 -0.8003
10994SOL    HW136128   6.204   4.404   6.868 -1.2027  0.8549 -0.7558
10994SOL    HW236129   6.130   4.368   6.995 -0.3235  0.4681 -0.3470
10995SOL     OW36130   7.691   2.548   3.610 -0.1247  0.1161  0.3916
10995SOL    HW136131   7.649   2.511   3.532  0.0749  2.5965 -0.9793
10995SOL    HW236132   7.783   2.559   3.585 -0.3069  2.1094  0.4630
10996SOL     OW36133   3.925   4.785   0.615  0.7300 -0.0935  0.7192
10996SOL    HW136134   3.927   4.758   0.707 -2.3870  0.7168  1.1538
10996SOL    HW236135   3.898   4.706   0.568 -0.2179  0.1109  0.8913
10997SOL     OW36136   1.783   3.781   5.176 -0.1690  0.5200 -0.5351
10997SOL    HW136137   1.857   3.794   5.234  0.4370 -1.9337 -0.6801
10997SOL    HW236138   1.798   3.842   5.104  1.5465  0.2886 -0.4052
10998SOL     OW36139   7.870   2.655   1.906  0.0146 -1.3314 -0.3059
10998SOL    HW136140   7.878   2.685   1.996  0.9314 -3.2969  0.3227
10998SOL    HW236141   7.957   2.667   1.868  0.1169 -2.1867 -0.3592
10999SOL     OW36142   4.400   3.695   5.080 -0.1792  0.3094 -0.0606
10999SOL    HW136143   4.455   3.697   5.002 -2.6340  0.3775 -1.9044
10999SOL    HW236144   4.461   3.681   5.152  2.1164 -0.5342 -2.0415
11000SOL     OW36145   6.244   7.822   7.728 -0.2030 -0.0411 -0.8324
11000SOL    HW136146   6.217   7.738   7.692 -0.7849 -1.1708  1.9855
11000SOL    HW236147   6.327   7.804   7.771  0.5445  1.2813 -1.6388
11001SOL     OW36148   6.878   1.419   2.741 -0.1746  0.6789  0.4818
11001SOL    HW136149   6.888   1.445   2.833  1.0249  1.9286  0.0438
11001SOL    HW236150   6.806   1.473   2.708 -3.4746 -2.6334  1.6146
11002SOL     OW36151   7.938   3.619   2.807  0.0750  0.2623  0.3654
11002SOL    HW136152   7.906   3.592   2.893  0.3657  1.3494  0.8357
11002SOL    HW236153   7.907   3.709   2.797  0.0211  0.1347 -0.6826
11003SOL     OW36154   3.559   2.514   5.891  0.0542 -0.0024 -0.1048
11003SOL    HW136155   3.496   2.580   5.862 -2.3837 -1.4390  1.5307
11003SOL    HW236156   3.599   2.551   5.970 -0.7641 -0.1597  0.3915
11004SOL     OW36157   5.301   4.746   7.048 -1.0366 -0.2326  0.7184
11004SOL    HW136158   5.252   4.783   7.121 -2.5034  1.5907 -1.0539
11004SOL    HW236159   5.245   4.676   7.014 -0.9418 -0.2489  0.5958
11005SOL     OW36160   6.572   4.453   1.920  0.1295  0.6274 -0.3484
11005SOL    HW136161   6.489   4.411   1.896 -0.4491  0.6783  1.4659
11005SOL    HW236162   6.632   4.427   1.849 -0.8350 -1.2723 -0.5524
11006SOL     OW36163   3.289   2.894   3.154 -0.8145 -0.1231  0.2437
11006SOL    HW136164   3.341   2.929   3.227  0.0725 -1.9354  0.5347
11006SOL    HW236165   3.273   2.970   3.099  0.8954  0.7995  0.9172
11007SOL     OW36166   5.161   0.199   7.856 -0.7432 -0.3833  0.1038
11007SOL    HW136167   5.211   0.276   7.883  0.4822 -1.4793  1.0857
11007SOL    HW236168   5.117   0.226   7.775  0.5545  0.9820 -0.1901
11008SOL     OW36169   4.662   8.095   1.269  0.2368 -0.2746 -0.2486
11008SOL    HW136170   4.596   8.037   1.232  0.4618  0.1357 -1.3138
11008SOL    HW236171   4.737   8.088   1.210  0.5440  0.5209  0.0307
11009SOL     OW36172   0.468   5.930   6.439  0.2856  0.3184  0.0049
11009SOL    HW136173   0.533   5.860   6.448  0.0411 -0.1189 -1.4309
11009SOL    HW236174   0.399   5.892   6.386 -1.0124  0.8974  1.2055
11010SOL     OW36175   5.323   4.738   6.687  0.3605  0.1460 -0.3958
11010SOL    HW136176   5.252   4.773   6.633 -1.0627 -1.6655  0.1860
11010SOL    HW236177   5.279   4.686   6.754  2.1880  0.5067  1.1684
11011SOL     OW36178   3.608   7.164   0.834  0.3705 -0.3565  0.3991
11011SOL    HW136179   3.526   7.120   0.854 -0.4919  1.1592  0.3816
11011SOL    HW236180   3.654   7.168   0.917  1.3938 -3.0056  0.0393
11012SOL     OW36181   7.218   6.694   7.032 -0.5764 -0.4085  0.1064
11012SOL    HW136182   7.289   6.747   6.996 -0.9087 -1.2162 -1.8766
11012SOL    HW236183   7.159   6.758   7.073  0.7149  0.3679  0.8339
11013SOL     OW36184   0.518   5.063   0.701  0.5560 -0.4821 -0.1091
11013SOL    HW136185   0.501   4.969   0.704 -0.7377 -0.2853 -0.3954
11013SOL    HW236186   0.454   5.096   0.637  1.6279  0.4670 -0.7250
11014SOL     OW36187   0.179   0.171   1.005 -0.0209 -0.1020  0.0747
11014SOL    HW136188   0.246   0.217   1.056 -1.3914  0.8199  1.1252
11014SOL    HW236189   0.214   0.082   0.993  1.4140  0.3865  0.4984
11015SOL     OW36190   3.720   0.722   3.538  0.1371 -0.2186 -0.0514
11015SOL    HW136191   3.759   0.706   3.624 -0.4000  2.5555  0.8198
11015SOL    HW236192   3.629   0.697   3.549 -0.0341  0.5511  0.3568
11016SOL     OW36193   6.312   0.212   7.749  0.2697 -0.8306  0.7664
11016SOL    HW136194   6.317   0.308   7.757 -1.8554 -0.6753  0.8084
11016SOL    HW236195   6.394   0.188   7.705 -0.1539  1.2865 -1.4640
11017SOL     OW36196   0.226   1.214   5.904  0.2089 -0.2313 -0.0820
11017SOL    HW136197   0.159   1.254   5.959  1.5282  0.4551  1.0921
11017SOL    HW236198   0.303   1.206   5.961  1.0650 -1.2307 -1.2967
11018SOL     OW36199   3.472   3.732   7.756  0.1464  0.1774 -0.2603
11018SOL    HW136200   3.405   3.723   7.688 -0.0353 -1.0125  0.0614
11018SOL    HW236201   3.517   3.813   7.734  0.0625 -0.1593 -1.7886
11019SOL     OW36202   7.521   0.646   4.786  0.2968  0.4828  0.5571
11019SOL    HW136203   7.504   0.614   4.875  1.9078 -1.0333  0.3859
11019SOL    HW236204   7.606   0.689   4.793 -0.8425  2.9164  0.3001
11020SOL     OW36205   6.808   2.162   7.532  0.2735 -0.2533 -0.0930
11020SOL    HW136206   6.895   2.121   7.533  0.3819 -0.0209  0.5615
11020SOL    HW236207   6.764   2.127   7.609 -0.3678 -0.6727 -0.6410
11021SOL     OW36208   7.845   2.577   6.926  0.6707 -0.0277 -0.8614
11021SOL    HW136209   7.818   2.543   6.841 -1.4342  0.4167 -0.4190
11021SOL    HW236210   7.859   2.670   6.911 -2.2884  0.6113 -0.2588
11022SOL     OW36211   4.794   7.752   5.532  0.7441 -0.1982  0.7358
11022SOL    HW136212   4.810   7.835   5.488  0.0397 -0.8802 -0.9261
11022SOL    HW236213   4.748   7.776   5.612 -0.2034  0.9831 -0.1194
11023SOL     OW36214   7.274   5.432   3.614  0.1399  0.5140 -0.1556
11023SOL    HW136215   7.207   5.484   3.658 -0.4780 -1.0131  0.7972
11023SOL    HW236216   7.237   5.413   3.528 -1.0983 -1.0326  0.6625
11024SOL     OW36217   7.489   6.540   5.788  0.2506 -0.0066  0.0587
11024SOL    HW136218   7.559   6.592   5.748 -0.0075 -0.5697 -1.1570
11024SOL    HW236219   7.501   6.553   5.882  2.1111 -0.2141 -0.1059
11025SOL     OW36220   0.523   4.295   7.287  0.0406 -0.7648 -0.2170
11025SOL    HW136221   0.527   4.199   7.284  3.0749 -0.7141 -1.0226
11025SOL    HW236222   0.536   4.316   7.379  0.9804 -1.1511 -0.2448
11026SOL     OW36223   7.736   4.422   1.103  0.0149 -0.0010  0.0513
11026SOL    HW136224   7.792   4.456   1.173  0.9452 -1.3395  0.0124
11026SOL    HW236225   7.774   4.456   1.023 -0.2794  0.4962  0.1204
11027SOL     OW36226   0.398   1.034   4.854 -0.0637  0.0290  0.2686
11027SOL    HW136227   0.362   0.958   4.899  0.3116 -0.4583 -0.2377
11027SOL    HW236228   0.333   1.055   4.787 -0.6377  0.7743  1.0452
11028SOL     OW36229   2.474   1.092   1.730  0.0871 -0.5611  0.7324
11028SOL    HW136230   2.454   0.999   1.724  0.1854 -0.5836  0.7520
11028SOL    HW236231   2.557   1.102   1.684  0.2022 -0.5228  0.9464
11029SOL     OW36232   7.521   7.399   0.681 -0.2977  0.0056  0.1535
11029SOL    HW136233   7.510   7.474   0.740 -1.4401 -0.1716  0.1927
11029SOL    HW236234   7.462   7.332   0.716  0.1605 -0.6591 -0.3091
11030SOL     OW36235   6.907   2.465   6.090 -0.3895  0.0041 -0.4404
11030SOL    HW136236   6.960   2.417   6.026 -1.3397  0.0765 -1.3099
11030SOL    HW236237   6.963   2.538   6.117 -0.0356  0.0769 -1.3330
11031SOL     OW36238   4.104   6.951   5.207 -0.1433  0.0123 -0.4842
11031SOL    HW136239   4.184   6.899   5.209  0.1070  0.3151  2.4873
11031SOL    HW236240   4.133   7.040   5.228 -1.1604  0.2324  0.0724
11032SOL     OW36241   5.361   0.186   2.375 -0.0423 -0.0521  0.4751
11032SOL    HW136242   5.290   0.243   2.405 -0.0651 -1.2838  2.9701
11032SOL    HW236243   5.365   0.202   2.281 -0.2182  3.8504  0.9544
11033SOL     OW36244   1.308   7.028   0.324  0.2146 -0.0202  0.2698
11033SOL    HW136245   1.244   7.056   0.259  0.7454  0.5575 -0.0202
11033SOL    HW236246   1.351   6.952   0.285 -0.2737 -0.3998  0.4590
11034SOL     OW36247   0.114   2.966   6.687 -0.1139 -0.2471  0.3317
11034SOL    HW136248   0.086   3.037   6.744 -2.3122 -1.3829  0.7987
11034SOL    HW236249   0.130   3.008   6.602 -1.4767  0.8045  0.5584
11035SOL     OW36250   4.774   1.121   6.687  0.5373 -0.3541 -0.0835
11035SOL    HW136251   4.818   1.131   6.771 -0.1923  1.9933  0.0784
11035SOL    HW236252   4.829   1.169   6.625 -0.8856  1.2254 -0.1779
11036SOL     OW36253   6.479   6.444   7.398 -0.6054 -0.0564 -0.3901
11036SOL    HW136254   6.538   6.369   7.405 -0.9470 -0.4607 -1.6526
11036SOL    HW236255   6.418   6.421   7.328 -1.3840  0.9561 -0.0804
11037SOL     OW36256   5.583   0.706   2.440  0.1191  0.1309 -0.1007
11037SOL    HW136257   5.558   0.629   2.490  0.0390  0.4297  0.3315
11037SOL    HW236258   5.586   0.677   2.349  0.0413 -0.3648  0.0554
11038SOL     OW36259   7.732   0.964   4.468  0.0818 -0.6876  0.1316
11038SOL    HW136260   7.804   1.020   4.496  0.3471 -0.8450 -0.2206
11038SOL    HW236261   7.653   1.010   4.496  0.3199 -0.5220  0.5360
11039SOL     OW36262   0.673   4.839   0.248 -0.1886  0.3240  0.1041
11039SOL    HW136263   0.628   4.801   0.323  1.3231  0.3293  1.0653
11039SOL    HW236264   0.660   4.775   0.177 -0.5475 -0.3133  0.7364
11040SOL     OW36265   1.403   3.494   8.036 -0.1605 -0.5325 -0.1156
11040SOL    HW136266   1.383   3.583   8.008  0.9232 -0.8389 -2.0798
11040SOL    HW236267   1.431   3.503   8.127 -2.6630  0.7198  0.6309
11041SOL     OW36268   6.392   6.771   7.006  0.2543  0.3443 -0.4456
11041SOL    HW136269   6.368   6.837   7.071 -1.0101  0.0771 -0.6047
11041SOL    HW236270   6.326   6.781   6.937  1.6291  0.7025 -1.7687
11042SOL     OW36271   6.606   7.341   4.551  0.2047 -0.0112  0.0996
11042SOL    HW136272   6.535   7.307   4.604 -0.1434 -1.4975 -1.2404
11042SOL    HW236273   6.683   7.290   4.576  0.5977  0.9150  0.8405
11043SOL     OW36274   2.939   5.879   6.044 -0.3263  0.4670  0.0644
11043SOL    HW136275   2.951   5.789   6.013 -0.2639  1.1926 -2.1786
11043SOL    HW236276   2.952   5.933   5.966 -1.9550  2.3380  1.0130
11044SOL     OW36277   1.984   0.105   0.404  0.0025  0.4382  0.5299
11044SOL    HW136278   2.071   0.097   0.365 -0.2115 -0.3362  0.2031
11044SOL    HW236279   2.001   0.141   0.491  0.7982 -1.1178  1.0548
11045SOL     OW36280   3.753   3.459   6.254 -0.1230  0.0361 -0.0639
11045SOL    HW136281   3.750   3.501   6.168  0.4169 -0.2886 -0.2451
11045SOL    HW236282   3.815   3.386   6.244 -0.6664 -0.5018  0.3799
11046SOL     OW36283   6.681   4.747   6.947  0.1766 -0.5364  0.2156
11046SOL    HW136284   6.634   4.681   6.999 -0.3083 -0.1629  0.2631
11046SOL    HW236285   6.612   4.791   6.897  0.5324 -0.2561 -0.0279
11047SOL     OW36286   5.624   1.334   4.646 -0.6231 -0.1741 -0.7685
11047SOL    HW136287   5.546   1.386   4.665 -0.0567  0.1980  0.6517
11047SOL    HW236288   5.665   1.320   4.731  1.6601  0.9125 -1.5917
11048SOL     OW36289   1.154   2.024   6.540  0.4156  0.4171  0.8694
11048SOL    HW136290   1.076   2.048   6.590  0.2600  0.5608  0.5582
11048SOL    HW236291   1.162   1.929   6.553 -1.1573 -0.0168 -0.9754
11049SOL     OW36292   5.620   1.612   5.226  0.0648 -0.1969  0.0568
11049SOL    HW136293   5.578   1.644   5.306  0.6091 -0.5354  0.4937
11049SOL    HW236294   5.556   1.554   5.186  0.6355 -1.9721  1.5362
11050SOL     OW36295   1.020   0.941   4.793 -0.2309  0.2768 -0.7482
11050SOL    HW136296   1.043   0.862   4.842  0.1615  0.9128  0.1331
11050SOL    HW236297   1.070   0.935   4.712  2.3277  1.1040  0.6527
11051SOL     OW36298   4.801   7.881   0.043 -0.2931 -0.3134 -0.2123
11051SOL    HW136299   4.791   7.810  -0.021 -0.3682 -0.5266  0.0358
11051SOL    HW236300   4.794   7.838   0.128  1.2292 -0.2445 -0.0300
11052SOL     OW36301   2.358   4.035   2.866 -0.4198 -0.6268 -0.0431
11052SOL    HW136302   2.362   4.083   2.783  0.2642 -1.0598 -0.2685
11052SOL    HW236303   2.440   4.056   2.910 -1.2085  0.3831  0.9819
11053SOL     OW36304   1.875   0.225   0.136 -0.4118 -0.5904  0.0073
11053SOL    HW136305   1.795   0.234   0.189 -0.5329 -1.3816 -0.0373
11053SOL    HW236306   1.946   0.225   0.199 -0.5579 -1.5522  0.1857
11054SOL     OW36307   6.653   7.766   6.956 -0.0424 -0.0411  0.1944
11054SOL    HW136308   6.612   7.778   6.871  0.8040 -1.8997 -0.5362
11054SOL    HW236309   6.583   7.738   7.014 -0.7687  1.9298  0.3537
11055SOL     OW36310   0.557   4.230   7.905  0.2774  0.0372  0.2580
11055SOL    HW136311   0.509   4.311   7.921  0.6479  0.2086  0.5173
11055SOL    HW236312   0.589   4.203   7.991 -1.2547 -1.2993  0.4639
11056SOL     OW36313   7.117   7.610   3.852 -0.5630 -0.2237 -0.3879
11056SOL    HW136314   7.186   7.667   3.819  0.8588 -0.6866  1.5991
11056SOL    HW236315   7.064   7.667   3.909 -0.7132 -0.2829 -0.4693
11057SOL     OW36316   0.816   4.690   6.090  0.3278 -0.6717  0.1271
11057SOL    HW136317   0.723   4.670   6.102 -0.4558  2.8542  1.0820
11057SOL    HW236318   0.861   4.636   6.156 -1.1122 -1.7994  0.2335
11058SOL     OW36319   6.092   6.603   2.469 -0.0882  0.0637  0.4451
11058SOL    HW136320   6.047   6.661   2.531 -0.7541 -0.4335  0.4337
11058SOL    HW236321   6.177   6.645   2.455 -0.5121  0.9829  0.5263
11059SOL     OW36322   2.623   7.238   0.540 -0.4955  0.6636  0.0701
11059SOL    HW136323   2.560   7.182   0.494 -0.4771  0.3403  0.4371
11059SOL    HW236324   2.590   7.327   0.525 -0.2163  0.6093 -0.9898
11060SOL     OW36325   5.890   6.257   5.986 -0.4386  0.0408  0.2064
11060SOL    HW136326   5.831   6.305   5.928 -0.5659  0.4981  0.6992
11060SOL    HW236327   5.847   6.261   6.072 -0.3555 -0.7961  0.2940
11061SOL     OW36328   7.168   1.767   8.082  0.0150 -0.2904 -0.0930
11061SOL    HW136329   7.176   1.829   8.009  1.1163  1.2869  1.2719
11061SOL    HW236330   7.076   1.770   8.106 -0.4141 -1.0187 -1.5318
11062SOL     OW36331   6.973   0.459   5.498  0.0289 -0.2401 -0.0449
11062SOL    HW136332   6.997   0.383   5.446 -1.7416 -0.5151 -0.5278
11062SOL    HW236333   6.883   0.479   5.471  0.4376  2.0288  0.0620
11063SOL     OW36334   4.856   0.694   3.958 -0.1036 -0.3381  0.0687
11063SOL    HW136335   4.811   0.643   3.891  1.7820  0.7799 -2.2036
11063SOL    HW236336   4.919   0.634   3.998 -0.2443 -0.6513 -0.1871
11064SOL     OW36337   3.736   0.907   4.020 -0.4820 -0.0528 -0.0408
11064SOL    HW136338   3.700   0.840   4.078  0.3789 -1.2976 -0.8811
11064SOL    HW236339   3.679   0.906   3.943  0.3953 -0.9388 -0.7093
11065SOL     OW36340   3.389   6.456   6.909  0.2507 -0.4398 -0.4274
11065SOL    HW136341   3.454   6.508   6.957  0.6424 -2.0870  0.9352
11065SOL    HW236342   3.310   6.460   6.963  0.5486 -1.9105  0.1692
11066SOL     OW36343   7.487   3.486   5.433 -0.3210 -0.3576 -0.4785
11066SOL    HW136344   7.537   3.543   5.375  0.7330 -0.3451  0.4055
11066SOL    HW236345   7.530   3.401   5.426 -0.6972 -0.5580 -0.3452
11067SOL     OW36346   2.622   2.754   5.100  0.5502 -0.1363 -0.4005
11067SOL    HW136347   2.692   2.714   5.049 -0.0798 -0.8839 -0.7040
11067SOL    HW236348   2.637   2.848   5.092 -0.3518 -0.1272 -3.2537
11068SOL     OW36349   5.243   4.174   5.271 -0.1746  0.0488  0.1086
11068SOL    HW136350   5.314   4.238   5.262  1.8327 -1.9635  0.7556
11068SOL    HW236351   5.224   4.172   5.365 -1.7206  1.1275 -0.1332
11069SOL     OW36352   6.287   7.594   6.422  0.5668  0.6099 -0.7247
11069SOL    HW136353   6.287   7.586   6.517 -1.8549  0.4565 -0.6934
11069SOL    HW236354   6.297   7.504   6.391  0.2896  0.5417 -0.6142
11070SOL     OW36355   5.815   5.006   4.966  0.0010  0.5124 -0.0729
11070SOL    HW136356   5.794   5.069   4.896 -1.2014  0.6248  0.3794
11070SOL    HW236357   5.768   4.927   4.941 -1.2010  0.8414  1.0761
11071SOL     OW36358   7.558   6.159   3.214 -0.6971  0.0562  0.0554
11071SOL    HW136359   7.533   6.105   3.139 -0.1153  2.3817 -1.9556
11071SOL    HW236360   7.585   6.097   3.281  1.6725 -2.2038 -2.6948
11072SOL     OW36361   5.774   5.247   3.254 -0.3537  0.1265  0.3528
11072SOL    HW136362   5.754   5.332   3.214  1.5999  0.4126 -0.0947
11072SOL    HW236363   5.789   5.188   3.180  1.7732  0.2930  0.5838
11073SOL     OW36364   1.011   6.694   6.411  0.3365  0.3119  0.0882
11073SOL    HW136365   0.961   6.620   6.445  0.9659 -0.2781 -0.2507
11073SOL    HW236366   0.952   6.769   6.420 -0.5669 -0.3533 -0.2128
11074SOL     OW36367   3.915   2.126   7.475  0.2697  0.5620 -0.3877
11074SOL    HW136368   3.958   2.077   7.545 -0.6926 -1.6625 -1.2648
11074SOL    HW236369   3.904   2.063   7.405  1.7331  2.8328 -2.8867
11075SOL     OW36370   0.056   2.116   7.660  0.1722  0.0500  0.0250
11075SOL    HW136371   0.075   2.206   7.686  0.7342 -0.2162  0.5464
11075SOL    HW236372  -0.040   2.110   7.664  0.2136  0.1339  1.6700
11076SOL     OW36373   2.904   1.819   6.572  0.2429 -0.8930  0.6690
11076SOL    HW136374   2.900   1.909   6.541  2.3796 -0.7439  0.6490
11076SOL    HW236375   2.870   1.766   6.499 -0.1909 -0.1805  0.3480
11077SOL     OW36376   4.782   3.748   4.780 -0.4657  0.2950  0.2155
11077SOL    HW136377   4.833   3.731   4.701 -2.2156  1.0080 -1.1457
11077SOL    HW236378   4.820   3.827   4.818 -0.1518  0.4557 -0.4210
11078SOL     OW36379   1.147   1.137   5.993  0.1427 -0.1931  0.3500
11078SOL    HW136380   1.134   1.232   5.989  0.5547 -0.0326  1.9728
11078SOL    HW236381   1.059   1.100   5.981  0.0165  0.3707 -0.5348
11079SOL     OW36382   1.039   1.762   5.733 -0.0336 -0.8364  0.1274
11079SOL    HW136383   1.084   1.726   5.657  0.2699  2.0271 -1.1735
11079SOL    HW236384   0.947   1.739   5.720 -0.0386 -0.1195 -1.3346
11080SOL     OW36385   7.358   0.439   5.103 -0.1548 -0.0335 -0.1082
11080SOL    HW136386   7.314   0.524   5.096  0.5287  0.3940  0.5760
11080SOL    HW236387   7.335   0.393   5.022 -2.8251 -0.3175  0.7215
11081SOL     OW36388   5.432   7.729   2.294 -0.1195 -0.8853 -0.5033
11081SOL    HW136389   5.444   7.648   2.344 -2.9713 -2.0698 -1.5123
11081SOL    HW236390   5.379   7.785   2.350  0.5207 -0.3171 -0.4435
11082SOL     OW36391   3.460   2.087   2.713  0.2873  0.4997  0.1572
11082SOL    HW136392   3.428   2.136   2.789  2.5372 -0.0886  1.5618
11082SOL    HW236393   3.521   2.147   2.670  1.2317 -0.1832  0.5132
11083SOL     OW36394   2.466   0.895   6.545  0.6355 -0.0258 -0.8869
11083SOL    HW136395   2.446   0.989   6.543 -0.0243 -0.1659 -0.9358
11083SOL    HW236396   2.507   0.882   6.630 -1.4521 -0.1125  0.1696
11084SOL     OW36397   7.349   6.517   4.562 -0.4951 -0.3242 -0.1648
11084SOL    HW136398   7.382   6.597   4.521  0.1250 -0.2624  0.4250
11084SOL    HW236399   7.285   6.547   4.626 -0.4625 -0.3134 -0.1371
11085SOL     OW36400   6.143   7.591   1.187  0.2879 -0.1800  0.3017
11085SOL    HW136401   6.132   7.681   1.218 -0.0142 -1.0652  3.0329
11085SOL    HW236402   6.235   7.585   1.161 -0.3378  1.6436 -2.8129
11086SOL     OW36403   1.604   3.366   0.486  0.0629 -0.7662 -0.1018
11086SOL    HW136404   1.657   3.360   0.407 -1.7058 -0.3267 -1.3640
11086SOL    HW236405   1.546   3.289   0.483  1.1546 -1.7590  1.7320
11087SOL     OW36406   7.027   4.855   4.151  0.0630 -0.6238  0.4047
11087SOL    HW136407   6.982   4.864   4.236 -0.5714  2.4289 -0.1523
11087SOL    HW236408   6.971   4.902   4.089  0.8044 -2.2950 -1.6469
11088SOL     OW36409   1.209   6.737   4.801 -0.1095 -0.7667 -0.8860
11088SOL    HW136410   1.187   6.824   4.834 -0.7029 -1.8586  1.8223
11088SOL    HW236411   1.125   6.691   4.797  0.4414 -1.8922 -0.0919
11089SOL     OW36412   7.742   2.456   0.475  0.0691  0.1696  0.0012
11089SOL    HW136413   7.814   2.464   0.539  0.1364 -1.5049  0.1858
11089SOL    HW236414   7.745   2.365   0.448 -0.8177  0.5395 -1.4183
11090SOL     OW36415   2.315   3.099   0.663 -0.1150  0.1054 -0.3409
11090SOL    HW136416   2.292   3.188   0.637 -1.6459 -0.9273 -2.8993
11090SOL    HW236417   2.321   3.050   0.581  0.2346 -2.2655  0.9802
11091SOL     OW36418   0.804   3.208   1.915  0.3741 -0.5091 -0.6726
11091SOL    HW136419   0.839   3.244   1.996  0.1613  0.2738 -0.9219
11091SOL    HW236420   0.845   3.122   1.908  1.6810  0.0845 -0.5857
11092SOL     OW36421   5.651   1.020   1.892  0.2403 -0.4035  0.2608
11092SOL    HW136422   5.696   1.064   1.819  0.8023 -0.3114  0.6575
11092SOL    HW236423   5.593   1.087   1.928  0.2300 -0.3394  0.1256
11093SOL     OW36424   7.453   0.549   5.936  0.1079 -0.1241 -0.2512
11093SOL    HW136425   7.365   0.543   5.973  0.0576  2.2534  0.1989
11093SOL    HW236426   7.507   0.495   5.994 -0.7466 -0.1251  0.5733
11094SOL     OW36427   5.299   5.978   7.669 -0.1150  0.7872 -0.7916
11094SOL    HW136428   5.377   6.017   7.706  0.3511 -2.4807  2.1594
11094SOL    HW236429   5.331   5.920   7.600  0.1638 -0.4984  0.3711
11095SOL     OW36430   4.721   4.612   7.107  0.1820  0.0806  0.2243
11095SOL    HW136431   4.662   4.555   7.155  0.6312 -0.1361  0.5312
11095SOL    HW236432   4.679   4.625   7.022 -0.9650  1.0389  0.9004
11096SOL     OW36433   6.804   7.576   3.921  0.5676  0.2460 -0.3533
11096SOL    HW136434   6.795   7.628   3.841 -1.4512  1.2652  0.4412
11096SOL    HW236435   6.853   7.633   3.981 -2.2844  1.7276  0.7730
11097SOL     OW36436   2.148   5.395   2.547 -0.6588 -0.0867  0.4606
11097SOL    HW136437   2.241   5.387   2.567 -0.6828  0.1876  0.6930
11097SOL    HW236438   2.122   5.308   2.516 -0.1138  0.0738 -0.5032
11098SOL     OW36439   0.448   2.448   2.681 -0.3109 -0.3457  0.1972
11098SOL    HW136440   0.520   2.387   2.668  1.2609  0.9960  2.1159
11098SOL    HW236441   0.447   2.501   2.602 -0.5498 -1.6688 -0.7192
11099SOL     OW36442   2.559   4.363   4.277  0.4734 -0.2195 -0.0132
11099SOL    HW136443   2.481   4.311   4.296  0.5374 -0.6378 -0.8701
11099SOL    HW236444   2.631   4.311   4.313  0.3118  0.5334  1.4833
11100SOL     OW36445   3.769   0.295   5.354 -0.5530 -0.3963  0.4241
11100SOL    HW136446   3.751   0.252   5.438 -0.1513  0.4085  0.9265
11100SOL    HW236447   3.847   0.251   5.320 -0.5081 -0.4824  0.6408
11101SOL     OW36448   3.738   0.431   1.486  0.3300  0.5202  0.0062
11101SOL    HW136449   3.746   0.393   1.573 -0.1503  1.4721  0.4814
11101SOL    HW236450   3.746   0.356   1.426  0.0588 -0.2268  0.8788
11102SOL     OW36451   3.838   7.596   7.967  0.2277 -0.2381  0.2159
11102SOL    HW136452   3.763   7.543   7.939 -0.3033  0.0616  1.0264
11102SOL    HW236453   3.799   7.674   8.005  1.0079  0.6709 -0.8111
11103SOL     OW36454   0.066   4.520   6.271  0.8605 -0.3255 -0.5949
11103SOL    HW136455   0.075   4.542   6.178  0.8928  0.7006 -0.3661
11103SOL    HW236456   0.135   4.456   6.288  0.6366 -0.7804 -1.3509
11104SOL     OW36457   4.072   2.944   2.863 -1.1544 -0.1012 -0.2456
11104SOL    HW136458   4.044   2.853   2.851  0.0247 -0.4693 -0.4172
11104SOL    HW236459   4.108   2.946   2.952 -1.2940  0.2336 -0.1943
11105SOL     OW36460   6.976   2.135   5.169 -0.0779 -0.4184  0.1993
11105SOL    HW136461   7.048   2.175   5.217 -0.2208 -1.4596  1.3192
11105SOL    HW236462   7.018   2.077   5.106  0.0833  0.1119 -0.1893
11106SOL     OW36463   3.683   2.340   3.906 -0.0588 -0.1467  0.2319
11106SOL    HW136464   3.771   2.374   3.888 -0.6179  0.1616 -2.2528
11106SOL    HW236465   3.686   2.249   3.876 -0.6042 -0.0897 -0.0023
11107SOL     OW36466   5.751   2.563   7.751 -0.6365 -0.0845 -0.3068
11107SOL    HW136467   5.660   2.591   7.754 -0.6505 -0.2124  0.8174
11107SOL    HW236468   5.753   2.480   7.798  0.2953  0.6592  1.0807
11108SOL     OW36469   1.435   0.372   0.343  0.4251 -0.0436 -0.4908
11108SOL    HW136470   1.439   0.320   0.423  1.5481 -0.0096 -0.5106
11108SOL    HW236471   1.354   0.423   0.352 -0.0100 -0.8167  0.1253
11109SOL     OW36472   3.797   6.923   2.039 -0.1728 -0.3036  0.2340
11109SOL    HW136473   3.839   6.946   2.122  1.2611 -0.6173 -0.3643
11109SOL    HW236474   3.841   6.842   2.012  1.4622  1.2565 -2.1891
11110SOL     OW36475   8.010   1.117   0.306  0.2672 -0.3990 -0.0510
11110SOL    HW136476   8.032   1.195   0.357  0.0788  0.0772 -0.6993
11110SOL    HW236477   7.933   1.141   0.255  0.7294 -0.7175 -0.9162
11111SOL     OW36478   7.211   3.551   5.269 -0.0690  0.5302 -0.6584
11111SOL    HW136479   7.276   3.558   5.199  0.5477  1.1451 -0.0369
11111SOL    HW236480   7.259   3.516   5.344 -0.8051 -0.4571 -0.6333
11112SOL     OW36481   2.333   6.217   8.014 -0.5294  0.5820  0.4691
11112SOL    HW136482   2.388   6.152   7.968 -2.2591 -1.7405  1.4880
11112SOL    HW236483   2.299   6.273   7.944  0.1887 -0.2625 -0.5891
11113SOL     OW36484   4.861   5.852   7.884 -0.0955 -0.0557  0.3112
11113SOL    HW136485   4.807   5.922   7.922 -1.2470 -1.4509  1.3438
11113SOL    HW236486   4.837   5.852   7.792  0.2671  1.1995  0.1901
11114SOL     OW36487   1.083   7.512   3.606  0.3717 -0.0913 -1.1241
11114SOL    HW136488   1.100   7.422   3.579 -1.1879 -0.7035 -0.2014
11114SOL    HW236489   1.022   7.504   3.680  1.5395  1.6470  0.1200
11115SOL     OW36490   6.024   3.296   6.385  0.2226  0.2340 -0.4096
11115SOL    HW136491   6.068   3.283   6.301  0.0361 -1.5708 -0.2621
11115SOL    HW236492   6.039   3.215   6.433 -0.6113  0.8063  0.8800
11116SOL     OW36493   3.617   4.044   3.870 -0.2165  0.3471 -0.2077
11116SOL    HW136494   3.538   4.026   3.819 -1.4430 -0.8388  1.9809
11116SOL    HW236495   3.648   3.957   3.897  0.6913  0.9060  0.6024
11117SOL     OW36496   4.943   0.556   7.287 -0.1020  0.0715 -1.2559
11117SOL    HW136497   4.871   0.504   7.323 -0.7119  0.8781 -1.2821
11117SOL    HW236498   5.023   0.511   7.316 -0.6020 -0.0661 -0.0579
11118SOL     OW36499   6.201   5.328   4.514  0.4625 -0.4059 -0.2891
11118SOL    HW136500   6.235   5.387   4.581  0.7003 -0.6450 -0.1937
11118SOL    HW236501   6.279   5.280   4.484  0.0126 -2.0702  1.0184
11119SOL     OW36502   2.403   4.398   0.518  0.1752  0.4388  0.4292
11119SOL    HW136503   2.425   4.487   0.492  1.2271 -0.3732 -1.7760
11119SOL    HW236504   2.484   4.364   0.557  0.5167 -0.2100 -0.7905
11120SOL     OW36505   8.036   5.498   6.577 -0.8519 -0.2012 -0.3133
11120SOL    HW136506   8.059   5.523   6.666  1.4212  0.7979 -1.1039
11120SOL    HW236507   8.065   5.407   6.569 -1.0597 -0.2914 -0.0321
11121SOL     OW36508   5.447   6.159   5.278  0.1868  0.2191 -0.7509
11121SOL    HW136509   5.354   6.138   5.283 -0.2186  1.8299 -1.1226
11121SOL    HW236510   5.481   6.138   5.365 -0.5264 -0.2936 -0.5870
11122SOL     OW36511   0.609   3.987   3.809 -0.3510  0.2106  0.1399
11122SOL    HW136512   0.561   3.940   3.740 -0.2197  1.9693 -1.2097
11122SOL    HW236513   0.576   4.077   3.804 -1.1996  0.1743  3.2051
11123SOL     OW36514   6.376   6.487   2.906  0.4801 -0.1212  0.2379
11123SOL    HW136515   6.389   6.506   2.813 -0.4072  1.8804  0.4716
11123SOL    HW236516   6.288   6.521   2.925  1.9684  2.8691  2.5798
11124SOL     OW36517   5.988   0.352   1.662 -0.3375  0.1464 -0.0693
11124SOL    HW136518   6.029   0.290   1.722  1.6679  0.7491 -0.7377
11124SOL    HW236519   5.948   0.419   1.718 -0.1333 -0.2971  0.6045
11125SOL     OW36520   4.274   3.429   1.940 -0.4367  0.2795  0.3612
11125SOL    HW136521   4.298   3.373   1.866 -0.1925 -0.4020  0.9491
11125SOL    HW236522   4.355   3.438   1.990 -0.8483 -0.1052  1.0984
11126SOL     OW36523   0.512   8.014   5.768 -0.1343 -0.8018  0.4096
11126SOL    HW136524   0.429   8.060   5.758  0.1890 -0.1528  0.6527
11126SOL    HW236525   0.530   8.017   5.863  1.1957  0.9299  0.1572
11127SOL     OW36526   2.315   4.047   3.388 -0.3844  0.2872  0.1507
11127SOL    HW136527   2.222   4.063   3.374 -0.7508 -1.3660  0.5475
11127SOL    HW236528   2.320   3.960   3.426  1.3051  0.5239  0.5865
11128SOL     OW36529   4.816   7.294   6.460 -0.6378 -0.0519  0.1191
11128SOL    HW136530   4.755   7.343   6.405  0.9440  0.6352 -1.1032
11128SOL    HW236531   4.889   7.354   6.474  1.0343 -1.7731 -0.8054
11129SOL     OW36532   4.868   7.153   3.027 -0.2168  0.2331 -0.3069
11129SOL    HW136533   4.929   7.161   2.954 -0.7243 -1.4126 -0.9486
11129SOL    HW236534   4.903   7.082   3.080 -0.5876  0.5245  0.3439
11130SOL     OW36535   7.833   5.997   5.114  0.4177  0.3357 -0.1538
11130SOL    HW136536   7.747   5.959   5.096  1.0173 -1.0670 -0.1866
11130SOL    HW236537   7.846   5.983   5.207  2.2703 -3.2602 -0.7631
11131SOL     OW36538   7.481   7.204   0.002 -0.2178 -0.2567  0.4579
11131SOL    HW136539   7.502   7.209   0.095 -0.3867  0.6188  0.4541
11131SOL    HW236540   7.545   7.262  -0.041 -1.3181  0.8386  0.2379
11132SOL     OW36541   1.782   6.601   2.247 -0.0459 -1.0835 -0.0067
11132SOL    HW136542   1.844   6.673   2.230 -0.6662 -0.6954 -0.6790
11132SOL    HW236543   1.837   6.529   2.277  0.7884 -0.8681 -0.9563
11133SOL     OW36544   7.688   0.350   7.690  0.4374 -0.3388  0.2426
11133SOL    HW136545   7.703   0.428   7.744 -0.3340 -0.2442  0.3394
11133SOL    HW236546   7.767   0.341   7.638  0.9640 -0.1013  0.9819
11134SOL     OW36547   6.600   1.789   2.870  0.5955 -0.4411 -0.3654
11134SOL    HW136548   6.564   1.728   2.805  0.2097 -1.5498  0.8410
11134SOL    HW236549   6.524   1.817   2.921  1.0366 -0.4252  0.2901
11135SOL     OW36550   5.438   6.093   3.630  0.4690  0.0758 -0.1847
11135SOL    HW136551   5.456   6.039   3.707 -0.1892  2.0567  1.4435
11135SOL    HW236552   5.344   6.108   3.633  0.6994  1.7424 -0.2392
11136SOL     OW36553   1.771   1.183   1.387  0.3132 -0.4169 -0.2377
11136SOL    HW136554   1.685   1.201   1.348  0.6508  0.6622 -0.5029
11136SOL    HW236555   1.810   1.269   1.401  1.0906 -0.8731  0.4966
11137SOL     OW36556   7.059   2.210   3.281 -0.6835 -0.3259 -0.4534
11137SOL    HW136557   7.024   2.200   3.370  0.6612 -1.3423 -0.0106
11137SOL    HW236558   7.039   2.127   3.238 -0.7247 -0.0968 -0.8758
11138SOL     OW36559   3.689   3.634   5.656  0.0401  0.2317  0.2672
11138SOL    HW136560   3.653   3.679   5.733 -0.7510 -0.6080  0.4109
11138SOL    HW236561   3.734   3.558   5.692 -0.8772 -0.5105 -0.1243
11139SOL     OW36562   1.934   5.060   2.652  0.2756  0.4930 -0.2859
11139SOL    HW136563   1.890   5.005   2.717  1.7660 -0.7072 -0.2365
11139SOL    HW236564   1.990   5.119   2.703 -0.3844  1.2271 -0.3945
11140SOL     OW36565   4.822   2.679   1.836  0.5339 -0.6067  0.8963
11140SOL    HW136566   4.739   2.644   1.867 -0.7756  0.1712 -1.4926
11140SOL    HW236567   4.859   2.610   1.781  0.6705 -0.3430  0.6518
11141SOL     OW36568   2.140   1.561   4.126 -0.4961  0.6963  0.6355
11141SOL    HW136569   2.175   1.575   4.038  0.9499 -0.4165  0.9964
11141SOL    HW236570   2.174   1.475   4.152 -1.3011  0.7867  2.0871
11142SOL     OW36571   5.832   0.475   5.877  0.2967 -0.3866  0.3256
11142SOL    HW136572   5.777   0.530   5.931 -0.1729 -0.7901  0.2623
11142SOL    HW236573   5.815   0.386   5.907  2.2566 -0.4046  1.5357
11143SOL     OW36574   3.897   3.625   3.163 -0.1478 -0.0913  0.3284
11143SOL    HW136575   3.909   3.719   3.177 -0.4514  0.0462 -0.3204
11143SOL    HW236576   3.811   3.617   3.122 -0.5829 -0.7476  1.3165
11144SOL     OW36577   6.105   0.072   7.611 -0.1084 -0.4532  0.6974
11144SOL    HW136578   6.170   0.111   7.670 -0.2710 -0.6122  0.9817
11144SOL    HW236579   6.155   0.013   7.555  0.4072  1.2771 -0.7736
11145SOL     OW36580   7.986   5.934   1.437 -0.0592 -0.0199  0.1033
11145SOL    HW136581   7.902   5.945   1.482  0.4489  0.6847  0.9134
11145SOL    HW236582   7.987   6.003   1.371 -0.6149 -0.7755 -0.7112
11146SOL     OW36583   7.095   2.361   4.670  0.0239 -0.4462 -0.2372
11146SOL    HW136584   7.035   2.322   4.733  0.4227 -1.0859 -0.2439
11146SOL    HW236585   7.050   2.439   4.638  0.1067  0.2928  1.3541
11147SOL     OW36586   1.005   2.857   7.648 -0.2556 -0.1919  0.5433
11147SOL    HW136587   1.085   2.810   7.626 -1.7401 -2.1406 -1.2251
11147SOL    HW236588   0.979   2.822   7.734  0.3690 -0.1717  0.7389
11148SOL     OW36589   0.027   0.863   0.256  0.4828  0.0655  0.4428
11148SOL    HW136590   0.115   0.875   0.292  0.4548  0.0916  0.5018
11148SOL    HW236591  -0.022   0.940   0.285  0.4800  0.1229  0.2888
11149SOL     OW36592   6.675   2.508   5.958 -0.2655  0.4275 -0.2593
11149SOL    HW136593   6.754   2.455   5.966 -0.4668  0.0521 -0.6973
11149SOL    HW236594   6.651   2.530   6.048 -0.9357 -1.3521  0.0397
11150SOL     OW36595   5.871   1.351   6.402 -0.4261  0.0880  0.6437
11150SOL    HW136596   5.818   1.424   6.433  1.4339  2.0065 -0.4866
11150SOL    HW236597   5.945   1.347   6.463  0.3180  0.2311 -0.2291
11151SOL     OW36598   1.678   2.165   5.942  0.4780 -0.3906  0.1096
11151SOL    HW136599   1.627   2.214   6.007 -0.6815  0.4717 -1.3935
11151SOL    HW236600   1.636   2.185   5.858  2.2969 -0.9834 -1.0009
11152SOL     OW36601   5.710   0.345   0.778 -0.2410  0.7527  0.7729
11152SOL    HW136602   5.671   0.270   0.734  0.5769  1.4707 -1.2681
11152SOL    HW236603   5.786   0.309   0.824 -0.8333  0.0712  1.2422
11153SOL     OW36604   5.445   5.710   0.683  0.0969  0.2427 -0.2453
11153SOL    HW136605   5.443   5.618   0.709  3.1812 -0.0067 -0.4779
11153SOL    HW236606   5.458   5.758   0.765 -0.9567  0.4470 -0.1866
11154SOL     OW36607   4.816   2.659   2.903  1.6914 -0.0810 -0.1797
11154SOL    HW136608   4.872   2.691   2.974  0.1012  1.9385  0.2648
11154SOL    HW236609   4.839   2.713   2.828  2.4012 -1.2858 -0.8590
11155SOL     OW36610   0.038   0.897   4.259 -0.2470  0.0950 -0.1986
11155SOL    HW136611   0.003   0.987   4.254  0.7324  0.5473  0.7353
11155SOL    HW236612   0.107   0.895   4.193 -0.6437 -0.1577 -0.6114
11156SOL     OW36613   2.807   0.421   3.836  0.0394  0.3990 -0.2607
11156SOL    HW136614   2.740   0.489   3.835 -0.3722  0.0131 -1.5059
11156SOL    HW236615   2.839   0.418   3.746 -1.4010 -2.3908 -0.8006
11157SOL     OW36616   0.338   2.486   6.508  0.1061 -0.2662 -0.5530
11157SOL    HW136617   0.378   2.407   6.544  1.2631 -0.0989 -1.4205
11157SOL    HW236618   0.262   2.501   6.564  1.8016 -0.0205  1.8497
11158SOL     OW36619   1.579   2.357   2.719 -0.2761 -0.6133 -0.0360
11158SOL    HW136620   1.646   2.310   2.770 -1.3274 -1.7567  0.3253
11158SOL    HW236621   1.564   2.437   2.768 -0.2320 -1.0378  0.6874
11159SOL     OW36622   6.440   7.731   2.254  0.3652  0.1385 -0.0725
11159SOL    HW136623   6.345   7.731   2.237  0.4145 -1.1127 -0.4404
11159SOL    HW236624   6.449   7.775   2.338 -0.7092 -1.0396  0.7017
11160SOL     OW36625   2.874   0.683   1.302  0.0067  0.2456 -0.1586
11160SOL    HW136626   2.807   0.645   1.358 -2.0405  0.5214 -2.2597
11160SOL    HW236627   2.928   0.737   1.360 -0.8261 -0.9601  1.8016
11161SOL     OW36628   3.307   1.101   3.516  0.1220 -0.3699  0.3403
11161SOL    HW136629   3.388   1.057   3.493  0.6797  0.6954  0.1857
11161SOL    HW236630   3.243   1.031   3.527  1.1466 -1.2485  0.8339
11162SOL     OW36631   2.863   7.934   0.248 -0.0445  0.0508 -0.2755
11162SOL    HW136632   2.931   7.968   0.306  1.7163 -1.4498 -1.3396
11162SOL    HW236633   2.820   8.012   0.213  0.1825  1.0110  1.4470
11163SOL     OW36634   3.940   0.600   1.638  0.0428 -0.1618 -0.0451
11163SOL    HW136635   3.873   0.653   1.595  1.5396  0.9549 -1.0694
11163SOL    HW236636   4.020   0.651   1.631  0.6390 -0.4325  3.0921
11164SOL     OW36637   5.399   6.020   1.035  0.1272 -0.4071 -0.0690
11164SOL    HW136638   5.309   6.050   1.044  0.3240  0.1758 -0.0474
11164SOL    HW236639   5.453   6.098   1.049  0.7047 -1.0484  1.5560
11165SOL     OW36640   1.537   0.837   0.677  0.2834  0.3267 -0.0147
11165SOL    HW136641   1.608   0.901   0.671  0.2701  0.3149 -0.3090
11165SOL    HW236642   1.557   0.773   0.609 -0.5513  0.8605 -0.7929
11166SOL     OW36643   4.015   4.616   1.983 -0.1767  0.0740 -0.5710
11166SOL    HW136644   4.037   4.639   2.073 -0.7238  1.5939 -0.8055
11166SOL    HW236645   4.011   4.700   1.937 -0.2425 -0.6563 -1.9389
11167SOL     OW36646   6.019   2.618   6.725  0.1588  0.4053  0.0179
11167SOL    HW136647   5.942   2.574   6.761  0.3974 -0.3769 -0.3998
11167SOL    HW236648   5.994   2.640   6.635 -0.4960  2.4975  0.6601
11168SOL     OW36649   7.996   7.276   5.601  0.3319  0.5219 -0.2224
11168SOL    HW136650   8.001   7.229   5.684 -2.2506  0.5619  0.0075
11168SOL    HW236651   8.032   7.215   5.537  1.0696 -0.0334  0.6934
11169SOL     OW36652   2.350   6.479   3.263  0.0554 -0.3142  0.1568
11169SOL    HW136653   2.298   6.535   3.320 -2.0744 -0.6423 -1.3295
11169SOL    HW236654   2.399   6.539   3.207  2.9221  0.0406  2.7407
11170SOL     OW36655   3.917   5.057   7.438 -0.3958 -0.0053  0.1672
11170SOL    HW136656   3.961   5.045   7.354 -1.7696  0.2151 -0.6213
11170SOL    HW236657   3.910   5.152   7.449 -0.3098 -0.0341  0.4885
11171SOL     OW36658   4.300   4.582   7.264 -0.6575  0.1140  0.1581
11171SOL    HW136659   4.379   4.623   7.300 -0.8266  2.2873 -1.7430
11171SOL    HW236660   4.234   4.651   7.266 -1.8912 -1.0123 -0.3069
11172SOL     OW36661   0.917   6.979   3.187  0.5914  0.0086 -0.3333
11172SOL    HW136662   0.925   7.023   3.103  0.2387  1.5622  0.4023
11172SOL    HW236663   0.988   7.016   3.240 -0.4724  0.6457  0.6923
11173SOL     OW36664   4.659   5.159   4.419 -0.1113 -0.3472 -0.2702
11173SOL    HW136665   4.719   5.150   4.344  2.0704  1.8459  1.0551
11173SOL    HW236666   4.596   5.225   4.391  0.3761  0.0866 -0.3518
11174SOL     OW36667   1.399   1.039   4.208 -0.6140 -0.5018 -0.0305
11174SOL    HW136668   1.306   1.030   4.185 -0.7715 -0.7900  0.6887
11174SOL    HW236669   1.410   0.981   4.283  0.5212 -1.6843 -1.0726
11175SOL     OW36670   7.922   4.793   0.092 -0.4358 -0.2086 -0.2415
11175SOL    HW136671   7.911   4.860   0.159 -0.3723 -0.0476 -0.3906
11175SOL    HW236672   7.841   4.742   0.096 -1.1317  0.7594 -1.0986
11176SOL     OW36673   1.293   5.359   2.844  0.0584  0.2758  0.2429
11176SOL    HW136674   1.317   5.266   2.834  0.9407  0.2632  2.1793
11176SOL    HW236675   1.376   5.403   2.862 -0.1514  1.6947 -1.9156
11177SOL     OW36676   0.079   4.907   5.826 -0.0198 -0.6323  0.2372
11177SOL    HW136677   0.015   4.864   5.769 -0.8470  0.5543  0.2445
11177SOL    HW236678   0.071   5.000   5.806  1.1303 -0.3846  0.8347
11178SOL     OW36679   1.694   2.179   1.267  0.1937  0.0517  0.3709
11178SOL    HW136680   1.781   2.152   1.295 -0.5926 -0.9227  2.1103
11178SOL    HW236681   1.635   2.124   1.320 -1.4761 -0.7223 -2.1378
11179SOL     OW36682   0.239   3.132   2.905  0.2812 -0.2006  0.1888
11179SOL    HW136683   0.313   3.072   2.912  1.7395  1.6390  1.5756
11179SOL    HW236684   0.261   3.190   2.833 -1.0737 -1.1893 -1.0799
11180SOL     OW36685   6.158   2.818   1.887 -0.3778  0.3283 -0.1971
11180SOL    HW136686   6.154   2.727   1.858  3.3906 -0.1420  0.2351
11180SOL    HW236687   6.093   2.823   1.958 -0.5036 -2.0898 -0.0548
11181SOL     OW36688   6.868   2.903   5.552 -0.1134 -0.1060 -0.0895
11181SOL    HW136689   6.813   2.826   5.537 -0.2586  0.1062 -0.6389
11181SOL    HW236690   6.929   2.875   5.621 -1.0170 -0.2895  0.6655
11182SOL     OW36691   0.640   7.530   3.043  0.0834 -0.6273  0.1562
11182SOL    HW136692   0.599   7.538   3.129 -0.3027  0.8701 -0.1272
11182SOL    HW236693   0.569   7.550   2.982  1.2534  2.6386 -0.3330
11183SOL     OW36694   4.054   2.673   7.273 -0.3691  0.0499 -0.0346
11183SOL    HW136695   4.143   2.682   7.240 -1.2416 -1.3208 -3.0962
11183SOL    HW236696   4.003   2.735   7.221 -1.5187 -0.7200  0.1523
11184SOL     OW36697   6.597   7.944   8.016 -0.0500 -0.0623 -0.3171
11184SOL    HW136698   6.505   7.926   7.998 -0.0794 -0.7183  0.4163
11184SOL    HW236699   6.617   8.023   7.965 -0.1842 -1.6034 -2.8704
11185SOL     OW36700   1.852   4.553   2.428 -0.1670  0.4583  0.2145
11185SOL    HW136701   1.845   4.464   2.393 -0.1369  0.0116  1.3249
11185SOL    HW236702   1.914   4.546   2.500 -1.6255  0.9872  1.5673
11186SOL     OW36703   3.343   2.755   5.295  0.6001 -0.4341 -0.2753
11186SOL    HW136704   3.373   2.709   5.217  1.4033 -1.8543  0.8219
11186SOL    HW236705   3.273   2.813   5.264  2.5925  0.9804 -2.4800
11187SOL     OW36706   2.102   7.568   5.786 -0.0312 -0.5607 -0.0338
11187SOL    HW136707   2.159   7.563   5.863 -0.7903 -0.0351  0.5835
11187SOL    HW236708   2.017   7.540   5.818 -0.6426  0.8239 -0.3707
11188SOL     OW36709   6.924   4.862   5.426  0.1032 -0.0459  0.5960
11188SOL    HW136710   6.938   4.769   5.410 -0.3088  0.3045 -2.3137
11188SOL    HW236711   7.006   4.904   5.400  0.1899  0.4407  1.6202
11189SOL     OW36712   7.653   3.627   5.199 -0.7584  0.0931  0.0702
11189SOL    HW136713   7.724   3.626   5.262 -0.4612  2.3320 -0.1320
11189SOL    HW236714   7.650   3.538   5.163  0.7053 -0.5224  1.3955
11190SOL     OW36715   2.387   1.544   6.012 -0.0619  0.9295 -0.2297
11190SOL    HW136716   2.437   1.583   6.084  2.4779 -3.6048  0.8368
11190SOL    HW236717   2.442   1.556   5.935 -0.0393  0.8517 -0.2259
11191SOL     OW36718   6.620   4.136   5.294  0.1898  0.5178 -0.2252
11191SOL    HW136719   6.709   4.100   5.293  0.8576  2.0414  0.8095
11191SOL    HW236720   6.563   4.059   5.302  1.4545 -0.4120  0.2049
11192SOL     OW36721   6.771   5.092   2.165 -0.0055 -0.1544 -0.0054
11192SOL    HW136722   6.734   5.013   2.203 -0.7196  0.1337 -0.0750
11192SOL    HW236723   6.857   5.066   2.132 -0.1659 -0.8518  0.1185
11193SOL     OW36724   0.153   3.624   1.199  0.5946 -0.4041 -0.4365
11193SOL    HW136725   0.160   3.556   1.266  1.7660 -1.5566 -1.6592
11193SOL    HW236726   0.083   3.595   1.141 -1.1846  1.1466  0.8241
11194SOL     OW36727   0.859   3.350   5.476  0.3922  0.1101 -0.8057
11194SOL    HW136728   0.838   3.289   5.404  0.2574  0.1915 -0.8364
11194SOL    HW236729   0.776   3.360   5.523  0.9298 -1.5437  0.5864
11195SOL     OW36730   4.171   4.071   0.054  0.5537 -0.6833  0.0041
11195SOL    HW136731   4.223   3.997   0.024  0.8594 -0.4746  0.0159
11195SOL    HW236732   4.085   4.033   0.073  1.3213 -1.5132  2.1885
11196SOL     OW36733   6.811   5.299   5.461 -0.1778  0.4547 -0.1462
11196SOL    HW136734   6.880   5.239   5.489  0.0350  0.2300 -1.1145
11196SOL    HW236735   6.743   5.242   5.424 -0.7231  0.7020  0.4501
11197SOL     OW36736   3.040   0.117   7.139 -0.0740 -0.3314  0.3652
11197SOL    HW136737   3.120   0.085   7.098 -0.7705 -0.5899 -0.8550
11197SOL    HW236738   3.068   0.190   7.194  1.0774 -0.8422  0.4699
11198SOL     OW36739   5.244   1.731   7.338 -0.7135 -0.3713  0.2744
11198SOL    HW136740   5.285   1.759   7.420  0.8511 -0.4522 -0.4477
11198SOL    HW236741   5.245   1.809   7.283  4.1913 -1.5940 -1.9624
11199SOL     OW36742   3.903   2.016   6.332  0.3664 -0.1270  0.1669
11199SOL    HW136743   3.926   1.924   6.323  0.1868 -0.0474 -1.4580
11199SOL    HW236744   3.824   2.017   6.387  1.3710 -0.7736  1.6757
11200SOL     OW36745   1.914   1.041   6.751 -0.2284  0.2812 -0.8273
11200SOL    HW136746   1.863   1.075   6.678 -1.3058 -3.1274 -1.8014
11200SOL    HW236747   1.851   1.030   6.822  0.4136  1.5724  0.0043
11201SOL     OW36748   0.561   3.261   4.016  0.3546  0.6041 -0.2417
11201SOL    HW136749   0.560   3.342   3.964 -0.2575  1.4519  1.0293
11201SOL    HW236750   0.619   3.281   4.089  0.7002 -0.3456 -0.2500
11202SOL     OW36751   1.318   2.262   4.629  0.1328  0.3239 -0.4580
11202SOL    HW136752   1.324   2.279   4.723  1.4750 -0.9508 -0.2860
11202SOL    HW236753   1.340   2.346   4.589 -0.0723  0.7836  0.3537
11203SOL     OW36754   5.035   6.722   4.802  0.3670  0.1072  1.0174
11203SOL    HW136755   4.965   6.758   4.747  0.3698 -0.9097  0.3243
11203SOL    HW236756   5.001   6.726   4.891  0.5801  2.3026  1.0460
11204SOL     OW36757   7.358   3.461   1.251 -0.4522 -0.0238  0.2134
11204SOL    HW136758   7.297   3.420   1.190  2.3284 -0.0216 -2.8088
11204SOL    HW236759   7.329   3.553   1.255 -0.4546  0.0984 -1.5633
11205SOL     OW36760   3.261   3.616   6.023 -0.1972 -1.1261 -0.1213
11205SOL    HW136761   3.202   3.605   6.098  0.0180 -2.2192 -0.0972
11205SOL    HW236762   3.203   3.631   5.949 -0.3797  1.8903  0.5202
11206SOL     OW36763   5.026   6.362   7.942  0.1102  1.1537 -0.0098
11206SOL    HW136764   5.107   6.392   7.900 -0.0254 -0.2474 -1.3692
11206SOL    HW236765   5.056   6.309   8.016  0.5210 -0.3725 -1.2155
11207SOL     OW36766   1.557   0.874   5.359 -0.1043 -0.0896  0.2188
11207SOL    HW136767   1.543   0.780   5.355  1.9532 -0.4392  0.4332
11207SOL    HW236768   1.569   0.901   5.268  0.6394 -0.2678  0.2611
11208SOL     OW36769   1.294   8.085   4.117  0.1426  0.3715 -0.1706
11208SOL    HW136770   1.286   7.991   4.107  2.2902  0.2605 -1.3322
11208SOL    HW236771   1.295   8.119   4.027  1.6699  1.2356  0.1307
11209SOL     OW36772   5.952   7.149   2.059  0.4670  0.0977  0.2089
11209SOL    HW136773   5.899   7.224   2.085  0.0030 -0.3389  0.5359
11209SOL    HW236774   5.937   7.084   2.127  0.4857 -0.4693 -0.3201
11210SOL     OW36775   1.609   2.680   7.951 -0.3620  0.0979  0.1468
11210SOL    HW136776   1.531   2.731   7.928  0.3384  1.0709 -0.1591
11210SOL    HW236777   1.648   2.729   8.023 -0.3757 -0.7501  0.7449
11211SOL     OW36778   1.480   5.693   4.452  0.3586  0.2987 -0.4162
11211SOL    HW136779   1.511   5.603   4.461  0.4999  0.4479  0.8794
11211SOL    HW236780   1.388   5.684   4.428 -0.4521 -0.3088  2.4465
11212SOL     OW36781   0.932   3.949   6.612  0.3433 -0.1585 -0.3490
11212SOL    HW136782   0.882   3.883   6.660  0.0228  0.5664  0.3568
11212SOL    HW236783   1.007   3.902   6.577 -0.6694 -1.2158 -1.1796
11213SOL     OW36784   7.808   3.895   6.844 -0.9948  0.7207  0.6005
11213SOL    HW136785   7.775   3.878   6.932  0.4827 -1.9756  0.7330
11213SOL    HW236786   7.877   3.831   6.832  0.7279  2.8187 -1.5413
11214SOL     OW36787   7.633   0.233   4.476  0.0462 -0.6237  0.4823
11214SOL    HW136788   7.683   0.251   4.555 -2.1046 -1.5581  2.1605
11214SOL    HW236789   7.624   0.138   4.474 -1.3089 -0.5054  0.0163
11215SOL     OW36790   0.967   1.114   6.757 -0.2778 -0.3023 -0.3756
11215SOL    HW136791   0.943   1.052   6.826  1.0120  1.2446  1.5810
11215SOL    HW236792   0.898   1.105   6.691 -0.6674 -3.0287  0.3054
11216SOL     OW36793   6.152   6.873   6.545  0.4185  0.0499 -0.5422
11216SOL    HW136794   6.173   6.886   6.452  0.4916 -1.4298 -0.7594
11216SOL    HW236795   6.212   6.931   6.591  0.9945  0.1490 -1.3835
11217SOL     OW36796   1.392   3.672   3.851 -0.5801  0.2840 -0.1515
11217SOL    HW136797   1.411   3.765   3.854  2.7688 -0.2983  3.5782
11217SOL    HW236798   1.301   3.665   3.881 -0.2978  2.2428  1.3177
11218SOL     OW36799   5.248   0.110   1.953 -0.5024 -0.1443  0.1737
11218SOL    HW136800   5.309   0.038   1.966 -0.2794 -0.2908 -1.5126
11218SOL    HW236801   5.277   0.178   2.014 -0.5220 -1.3324  1.5529
11219SOL     OW36802   0.387   5.591   3.875 -0.5524  0.2031  0.1076
11219SOL    HW136803   0.441   5.668   3.861 -1.2205  0.8486  1.0195
11219SOL    HW236804   0.327   5.615   3.945 -1.5260 -0.7567 -0.3616
11220SOL     OW36805   2.652   6.239   5.976  0.7486  0.7912  0.2520
11220SOL    HW136806   2.660   6.147   6.003 -1.7474  0.4011 -0.0414
11220SOL    HW236807   2.640   6.234   5.881 -1.1263  1.2320  0.4311
11221SOL     OW36808   3.544   0.610   1.688 -0.2315 -0.1876 -0.4291
11221SOL    HW136809   3.481   0.572   1.627  0.9121 -0.6889 -1.3297
11221SOL    HW236810   3.591   0.676   1.636 -0.8425  1.1055  0.5745
11222SOL     OW36811   2.826   2.295   3.367  0.0077 -0.2794 -0.1120
11222SOL    HW136812   2.747   2.311   3.316 -0.1112 -0.9118 -0.1444
11222SOL    HW236813   2.815   2.205   3.399  1.3926 -0.9320 -1.3532
11223SOL     OW36814   0.712   3.561   0.723  0.5021  0.3193 -0.2439
11223SOL    HW136815   0.790   3.549   0.668 -0.5845  0.1483 -1.8341
11223SOL    HW236816   0.645   3.508   0.680 -0.7988  1.3731  0.4268
11224SOL     OW36817   7.037   0.672   0.727  0.0648  0.7327 -0.1724
11224SOL    HW136818   7.053   0.637   0.639  1.1566  1.1619 -0.1612
11224SOL    HW236819   6.954   0.718   0.719 -1.1401 -1.3255 -0.3287
11225SOL     OW36820   3.026   7.174   5.220  0.0176 -0.0016  0.1001
11225SOL    HW136821   2.963   7.117   5.265  0.4118  0.0173  0.6747
11225SOL    HW236822   2.981   7.199   5.139 -0.0777 -1.3376 -0.2942
11226SOL     OW36823   2.160   6.825   5.425 -0.7448 -0.1550 -0.0978
11226SOL    HW136824   2.246   6.794   5.452 -1.4340  0.2128  2.8721
11226SOL    HW236825   2.164   6.829   5.330  1.7468 -2.3047 -0.1752
11227SOL     OW36826   4.775   1.049   7.261  0.3520  0.5604  0.2653
11227SOL    HW136827   4.709   1.109   7.227 -2.1702  0.0264  3.6961
11227SOL    HW236828   4.752   0.964   7.224 -1.7062  0.1781  2.2154
11228SOL     OW36829   3.345   1.257   2.466 -0.1797 -0.1491 -0.2758
11228SOL    HW136830   3.280   1.218   2.525  0.0003  0.3481  0.2618
11228SOL    HW236831   3.335   1.351   2.479  2.8734 -0.0117  2.3420
11229SOL     OW36832   5.346   5.381   5.564 -0.0528  0.2217  0.3751
11229SOL    HW136833   5.357   5.348   5.475  1.9269  2.3175 -0.2669
11229SOL    HW236834   5.425   5.433   5.580 -1.1318  1.2860  2.7383
11230SOL     OW36835   6.662   2.702   1.556 -0.2523 -1.0425  0.3370
11230SOL    HW136836   6.599   2.649   1.507 -1.6027 -0.3488  1.2364
11230SOL    HW236837   6.635   2.692   1.647 -0.3540  0.8833  0.5626
11231SOL     OW36838   5.334   6.526   0.111 -0.1820  0.1448 -0.2615
11231SOL    HW136839   5.341   6.618   0.083 -0.6725  0.8326  1.7249
11231SOL    HW236840   5.399   6.480   0.058  0.1976  1.6608 -1.1785
11232SOL     OW36841   4.021   7.101   6.214  0.1805 -0.0167  0.0780
11232SOL    HW136842   3.991   7.010   6.203  1.2562 -0.2478 -1.1604
11232SOL    HW236843   3.951   7.154   6.175  0.2069 -0.4048 -0.5093
11233SOL     OW36844   1.671   5.678   4.898  0.1532  0.0969 -0.7989
11233SOL    HW136845   1.717   5.666   4.815 -0.5521 -1.7727 -0.9689
11233SOL    HW236846   1.739   5.669   4.965  0.4231 -0.3656 -1.1252
11234SOL     OW36847   0.303   5.950   4.380  1.0597  0.2022 -0.1508
11234SOL    HW136848   0.257   5.909   4.306  1.1146 -2.5328  1.1761
11234SOL    HW236849   0.389   5.971   4.345  2.0446 -3.4477 -0.4126
11235SOL     OW36850   7.138   4.561   1.590 -0.0086  0.3352 -0.7356
11235SOL    HW136851   7.110   4.492   1.651 -1.4079 -0.0522 -1.7799
11235SOL    HW236852   7.232   4.568   1.605 -0.0752 -0.7910  0.4252
11236SOL     OW36853   7.838   4.144   2.556  0.2432  0.2836 -0.3568
11236SOL    HW136854   7.833   4.063   2.505  0.2377  0.7654 -1.1371
11236SOL    HW236855   7.929   4.171   2.549  0.2899  0.2503  0.0695
11237SOL     OW36856   3.253   0.493   0.311 -0.1057  0.1356 -0.0847
11237SOL    HW136857   3.211   0.450   0.386 -0.8807  0.0746 -0.5548
11237SOL    HW236858   3.222   0.583   0.314 -0.4137  0.0456 -0.5380
11238SOL     OW36859   5.208   7.651   3.749 -0.0561 -0.3344  0.6565
11238SOL    HW136860   5.181   7.668   3.659  1.5513 -0.3657  0.1329
11238SOL    HW236861   5.285   7.707   3.762  0.7547 -1.5755  1.4328
11239SOL     OW36862   3.489   1.132   2.832 -0.3408  0.3293  0.1472
11239SOL    HW136863   3.475   1.213   2.881 -0.6244  0.0391  0.5539
11239SOL    HW236864   3.403   1.111   2.795  0.0607  1.0369 -1.2664
11240SOL     OW36865   3.478   0.632   1.951  0.5788 -0.2237  0.4391
11240SOL    HW136866   3.495   0.636   1.857 -1.0198 -0.2287  0.1226
11240SOL    HW236867   3.514   0.714   1.985 -0.6375  0.7570 -0.5239
11241SOL     OW36868   5.899   6.215   1.446 -0.0461 -0.2506 -0.1179
11241SOL    HW136869   5.971   6.216   1.383  0.5739 -1.7126  0.5236
11241SOL    HW236870   5.820   6.211   1.392  0.2403  2.3078 -0.8592
11242SOL     OW36871   0.445   5.509   4.696 -0.0944  0.5288  0.4200
11242SOL    HW136872   0.463   5.446   4.626 -2.3619 -0.9339  1.0416
11242SOL    HW236873   0.368   5.557   4.667  0.0641  1.2246  1.1116
11243SOL     OW36874   0.823   5.965   6.282  0.1420  0.2819 -0.1315
11243SOL    HW136875   0.755   5.977   6.216  0.0946 -0.8337 -0.2938
11243SOL    HW236876   0.808   5.877   6.316  1.6861 -0.0935 -0.3750
11244SOL     OW36877   1.523   5.078   4.036  0.5733  0.5671 -0.4828
11244SOL    HW136878   1.524   5.168   4.005 -0.1845 -0.0152 -2.2979
11244SOL    HW236879   1.615   5.051   4.035  0.8755  1.4582  0.6254
11245SOL     OW36880   5.248   2.546   4.257 -0.4282  0.0531 -0.1053
11245SOL    HW136881   5.188   2.578   4.324  0.8669  0.9374  0.6881
11245SOL    HW236882   5.222   2.592   4.177 -0.1680  1.2265  0.4637
11246SOL     OW36883   5.372   0.974   1.308 -0.2532  0.5018  0.7335
11246SOL    HW136884   5.420   1.055   1.292 -0.4346  0.5572  0.4430
11246SOL    HW236885   5.347   0.945   1.220 -0.7311  0.4669  0.8808
11247SOL     OW36886   4.141   6.994   0.857 -0.1495  0.1085 -0.0694
11247SOL    HW136887   4.158   7.009   0.764  0.0972  0.6884  0.0658
11247SOL    HW236888   4.217   7.032   0.901  0.0297 -0.6933  0.3442
11248SOL     OW36889   5.542   3.663   1.700 -0.1707 -0.3306 -0.5029
11248SOL    HW136890   5.525   3.569   1.694  0.6581 -0.5919  0.7928
11248SOL    HW236891   5.463   3.699   1.740 -0.5449 -0.4447 -1.1254
11249SOL     OW36892   7.337   3.163   4.317 -0.2825 -0.2035 -0.4707
11249SOL    HW136893   7.429   3.171   4.292 -0.4156  0.5936 -0.7425
11249SOL    HW236894   7.321   3.069   4.322  0.4023 -0.3499 -0.9723
11250SOL     OW36895   7.520   6.123   1.613 -0.4196  0.5089 -0.3140
11250SOL    HW136896   7.541   6.134   1.706  0.2348  1.8195 -0.5862
11250SOL    HW236897   7.443   6.066   1.612 -0.6825  0.7962  1.0594
11251SOL     OW36898   7.746   0.346   3.425  0.1444 -0.0641  0.4273
11251SOL    HW136899   7.682   0.276   3.419 -1.2589  1.1757  0.4767
11251SOL    HW236900   7.761   0.356   3.519 -1.4908  1.2647  0.5895
11252SOL     OW36901   2.781   2.328   7.000 -0.3664 -0.2958  0.2591
11252SOL    HW136902   2.782   2.234   6.981  0.0342 -0.1491 -0.4629
11252SOL    HW236903   2.870   2.357   6.981 -0.6751  0.3608 -0.1875
11253SOL     OW36904   0.223   1.210   4.693 -0.0957  0.8508 -0.5671
11253SOL    HW136905   0.263   1.176   4.613  1.2815  0.9691  0.0407
11253SOL    HW236906   0.253   1.301   4.698  0.4133  0.6462  0.4206
11254SOL     OW36907   2.018   3.407   2.070 -0.3863 -0.8593 -0.0894
11254SOL    HW136908   1.995   3.477   2.009 -0.6477 -1.3893 -0.6044
11254SOL    HW236909   1.943   3.348   2.068 -1.0474 -0.1562  1.8586
11255SOL     OW36910   5.663   7.225   4.715  0.1579 -0.1202  0.0520
11255SOL    HW136911   5.690   7.230   4.623  0.6615 -1.0328  0.1395
11255SOL    HW236912   5.715   7.294   4.758 -0.5367  0.7310 -0.4332
11256SOL     OW36913   4.751   0.717   0.942  0.1707  0.5979 -0.3027
11256SOL    HW136914   4.735   0.751   0.854  0.2578  0.4404 -0.3809
11256SOL    HW236915   4.719   0.785   1.001 -0.7830  0.2878 -0.4538
11257SOL     OW36916   0.581   1.669   5.951 -0.1387  0.5032 -0.6027
11257SOL    HW136917   0.664   1.716   5.944  1.1906 -1.3614  1.2131
11257SOL    HW236918   0.559   1.672   6.044 -0.0691 -2.2233 -0.4183
11258SOL     OW36919   7.326   2.502   5.377 -0.2614 -0.0430  0.0187
11258SOL    HW136920   7.309   2.543   5.462 -1.0627 -0.3641  0.0226
11258SOL    HW236921   7.321   2.573   5.314  0.4971  0.2253  0.2524
11259SOL     OW36922   0.385   2.770   6.106  0.0459 -0.1244  0.4820
11259SOL    HW136923   0.414   2.859   6.086 -1.8691  0.7558  1.3856
11259SOL    HW236924   0.419   2.753   6.193 -0.3515  0.0803  0.6778
11260SOL     OW36925   2.665   3.104   6.315 -0.4112 -0.0364 -0.2045
11260SOL    HW136926   2.711   3.087   6.397 -0.6146 -1.2280 -0.3143
11260SOL    HW236927   2.674   3.023   6.266 -0.7686  0.4737 -1.1375
11261SOL     OW36928   1.260   0.974   0.109 -0.3073 -0.3528 -0.6014
11261SOL    HW136929   1.209   0.990   0.188 -0.4315 -1.4887 -0.4283
11261SOL    HW236930   1.351   0.979   0.138 -0.2553  2.1160 -0.9989
11262SOL     OW36931   0.990   1.541   7.069  0.4539  0.5015  0.5884
11262SOL    HW136932   0.943   1.474   7.019  1.8114 -0.6141  0.7589
11262SOL    HW236933   1.079   1.507   7.077  0.6466  1.3356  2.4927
11263SOL     OW36934   2.505   1.504   0.451  0.3079  1.0161  0.0033
11263SOL    HW136935   2.508   1.412   0.478  1.0517  1.5460  1.8663
11263SOL    HW236936   2.412   1.527   0.453  0.0833  0.2394 -0.7967
11264SOL     OW36937   3.577   8.068   1.165 -0.2494 -0.2138 -0.6314
11264SOL    HW136938   3.527   8.130   1.217  0.9166 -0.8258  1.3372
11264SOL    HW236939   3.539   7.982   1.187  0.3733 -0.4989 -0.6473
11265SOL     OW36940   7.752   2.710   5.069 -0.2404 -0.0728 -0.0133
11265SOL    HW136941   7.671   2.740   5.028 -0.1122  0.1965 -0.0773
11265SOL    HW236942   7.756   2.756   5.153 -1.4888 -2.1128  1.2310
11266SOL     OW36943   0.578   7.299   7.837  0.7884 -0.0008 -0.1630
11266SOL    HW136944   0.548   7.307   7.928  0.4508 -0.1661 -0.2612
11266SOL    HW236945   0.583   7.205   7.821 -1.3626 -0.0214 -1.0326
11267SOL     OW36946   7.990   5.436   2.730  0.2732  0.4012 -0.3551
11267SOL    HW136947   7.928   5.459   2.799 -1.3700  0.8591 -1.9082
11267SOL    HW236948   7.999   5.341   2.736 -1.3591  0.1957 -0.6805
11268SOL     OW36949   5.743   0.503   4.817  0.2690  0.0418 -0.1456
11268SOL    HW136950   5.796   0.521   4.739 -0.6840  0.2353 -0.7643
11268SOL    HW236951   5.771   0.568   4.881  1.2027 -0.2429 -0.2530
11269SOL     OW36952   4.753   1.806   2.530  0.2790  0.6502  0.1504
11269SOL    HW136953   4.664   1.841   2.526 -0.8322 -1.9780  0.3267
11269SOL    HW236954   4.783   1.807   2.439 -0.5388  0.1354 -0.1337
11270SOL     OW36955   2.055   4.142   3.793 -0.8600 -0.2214  0.1688
11270SOL    HW136956   2.012   4.204   3.734  0.0211 -2.4972 -3.1286
11270SOL    HW236957   2.144   4.135   3.760 -0.8566 -3.0547  0.4987
11271SOL     OW36958   4.709   7.075   7.474  0.2455 -0.1214 -0.3380
11271SOL    HW136959   4.782   7.032   7.429  0.1120 -0.2621 -0.4233
11271SOL    HW236960   4.689   7.151   7.420 -0.2436 -0.5642 -0.8035
11272SOL     OW36961   0.128   3.235   7.864  0.3176  0.5204 -0.2442
11272SOL    HW136962   0.083   3.307   7.821  1.5987  2.9952  2.2508
11272SOL    HW236963   0.221   3.253   7.850  0.6685 -0.7252  0.3238
11273SOL     OW36964   1.268   2.507   6.565  0.1387  0.2621  0.7369
11273SOL    HW136965   1.288   2.422   6.605  0.0686 -0.3740 -0.5544
11273SOL    HW236966   1.352   2.540   6.535  0.2661  0.9809  1.8324
11274SOL     OW36967   3.663   2.564   2.622 -0.1798 -0.4786 -0.0589
11274SOL    HW136968   3.650   2.605   2.536  1.8507 -0.0640 -0.2247
11274SOL    HW236969   3.592   2.500   2.630 -1.7044  0.9984 -1.0787
11275SOL     OW36970   4.555   6.734   0.477 -0.3172 -0.6177  0.4504
11275SOL    HW136971   4.555   6.827   0.499 -0.7665 -0.3865 -0.4867
11275SOL    HW236972   4.608   6.693   0.546  1.1112  0.5254  0.0826
11276SOL     OW36973   1.241   3.586   0.784  0.1237  0.2161  0.1628
11276SOL    HW136974   1.287   3.545   0.857 -2.1641 -0.3340  1.3979
11276SOL    HW236975   1.305   3.587   0.713  2.0431 -0.3651  1.7797
11277SOL     OW36976   4.296   1.001   1.378  0.2391  0.0451  0.4148
11277SOL    HW136977   4.257   0.933   1.323  0.9739 -0.3243  0.3255
11277SOL    HW236978   4.237   1.075   1.372 -0.2764 -0.3904  0.0419
11278SOL     OW36979   3.714   5.135   1.962  0.0938 -0.9946 -0.0850
11278SOL    HW136980   3.766   5.100   2.035  1.7947  1.4171 -0.0074
11278SOL    HW236981   3.777   5.187   1.912 -1.2139 -1.9618 -2.8766
11279SOL     OW36982   6.938   0.098   4.846  0.0677  0.1333 -0.3062
11279SOL    HW136983   6.904   0.051   4.922  0.4913 -0.4991 -0.5074
11279SOL    HW236984   6.883   0.069   4.773 -1.0574  1.5576 -0.0776
11280SOL     OW36985   0.679   0.735   6.608  0.2230 -0.1906 -0.1778
11280SOL    HW136986   0.636   0.669   6.554  1.2493 -1.0467  0.0005
11280SOL    HW236987   0.620   0.748   6.682 -1.5837  1.5850 -1.8334
11281SOL     OW36988   1.619   2.706   1.115  0.3997 -0.1142 -0.4777
11281SOL    HW136989   1.525   2.721   1.107  0.2793 -0.5655  0.0736
11281SOL    HW236990   1.632   2.615   1.086  0.8274  0.2943 -1.6543
11282SOL     OW36991   4.515   2.152   0.929  0.1446  0.3420  0.4250
11282SOL    HW136992   4.442   2.117   0.980  0.0004 -0.7610 -0.4745
11282SOL    HW236993   4.538   2.081   0.869  0.8462  1.2850 -0.4662
11283SOL     OW36994   3.464   2.614   7.432  0.0099  0.5403 -0.6125
11283SOL    HW136995   3.541   2.612   7.489 -0.9690 -0.2990  0.7427
11283SOL    HW236996   3.466   2.701   7.392  0.1166  1.6492  1.6366
11284SOL     OW36997   5.293   0.834   2.796 -0.2201  0.0530  0.0987
11284SOL    HW136998   5.359   0.902   2.782  0.0272 -0.3755 -0.9664
11284SOL    HW236999   5.223   0.856   2.734 -0.9296  0.3080  0.9740
11285SOL     OW37000   6.082   8.059   6.729 -0.0335 -0.2599  0.0962
11285SOL    HW137001   6.096   7.964   6.726  0.6927 -0.1216 -2.4174
11285SOL    HW237002   6.150   8.091   6.788  1.0223 -1.1169 -0.6262
11286SOL     OW37003   7.066   5.902   0.427  0.7942  0.0024 -0.0791
11286SOL    HW137004   6.979   5.874   0.399  1.5342  0.0172 -2.6943
11286SOL    HW237005   7.051   5.950   0.508 -1.3172 -2.0689  0.9005
11287SOL     OW37006   2.274   7.940   4.638 -0.3424  0.3477 -0.3223
11287SOL    HW137007   2.268   7.898   4.552 -1.5991  1.1080 -0.6374
11287SOL    HW237008   2.194   7.913   4.683  0.0398  0.4092  0.4019
11288SOL     OW37009   3.506   3.435   6.400 -0.5300  0.0361 -0.1228
11288SOL    HW137010   3.588   3.424   6.352 -0.6865  0.8710 -0.6103
11288SOL    HW237011   3.532   3.432   6.492  0.3325  1.9591 -0.2542
11289SOL     OW37012   1.350   5.058   3.755  0.1024 -0.3774  0.1517
11289SOL    HW137013   1.411   4.984   3.751  0.1039 -0.6266  2.7889
11289SOL    HW237014   1.294   5.047   3.678  2.8929 -0.4918 -2.0382
11290SOL     OW37015   4.179   2.121   1.842  0.2109 -0.1650  0.1722
11290SOL    HW137016   4.131   2.063   1.901  1.6691  0.7800  2.4308
11290SOL    HW237017   4.266   2.083   1.835  0.2103  0.0055 -1.0347
11291SOL     OW37018   0.559   3.536   5.798 -0.4271 -0.3569  0.3154
11291SOL    HW137019   0.562   3.564   5.890 -0.2287 -1.2294  0.5862
11291SOL    HW237020   0.465   3.530   5.777 -0.4936 -1.0302  0.7532
11292SOL     OW37021   0.327   4.578   2.741 -0.0043  0.1086 -0.2308
11292SOL    HW137022   0.373   4.542   2.817  1.0499  0.5720 -0.6365
11292SOL    HW237023   0.279   4.503   2.705 -0.8556 -0.0321  1.1052
11293SOL     OW37024   2.454   5.825   4.764  0.6777 -0.2800  0.1322
11293SOL    HW137025   2.415   5.849   4.848  1.1344  1.7492 -0.1747
11293SOL    HW237026   2.493   5.739   4.779 -2.1309 -1.5186  1.0131
11294SOL     OW37027   2.306   4.568   5.829 -0.1576 -0.5930  0.2679
11294SOL    HW137028   2.306   4.616   5.746  0.5184 -0.7921  0.1449
11294SOL    HW237029   2.215   4.567   5.857 -0.3093 -0.0403 -0.1952
11295SOL     OW37030   3.511   1.925   5.709  0.2220  0.5140 -0.1666
11295SOL    HW137031   3.517   1.830   5.705 -0.9240  0.4792 -1.6077
11295SOL    HW237032   3.590   1.952   5.757  1.3286 -1.0571 -1.0155
11296SOL     OW37033   5.170   1.099   0.621  0.1541  0.2565  0.6967
11296SOL    HW137034   5.198   1.013   0.653  0.3005  0.5019  1.2362
11296SOL    HW237035   5.201   1.160   0.688  1.4859  0.9073 -0.4654
11297SOL     OW37036   1.291   3.334   7.735  0.0977 -0.0117  0.1237
11297SOL    HW137037   1.250   3.308   7.817 -0.4165  1.0785  0.2214
11297SOL    HW237038   1.236   3.294   7.667  1.0684 -1.7160  0.2976
11298SOL     OW37039   2.841   0.550   1.842 -0.0467 -0.6568  0.2085
11298SOL    HW137040   2.796   0.521   1.922 -0.0691 -0.6888  0.1842
11298SOL    HW237041   2.811   0.490   1.774  1.6729 -2.0335  0.6120
11299SOL     OW37042   5.341   3.735   4.622 -0.5685 -0.2297 -0.4508
11299SOL    HW137043   5.308   3.773   4.703  0.4226  1.1429 -0.6634
11299SOL    HW237044   5.417   3.684   4.649 -0.9897 -0.8242 -0.3670
11300SOL     OW37045   4.365   2.878   3.385  0.3615 -0.3140  0.3209
11300SOL    HW137046   4.347   2.858   3.477 -0.8235 -2.4607 -0.3253
11300SOL    HW237047   4.459   2.864   3.376  0.0681 -3.0704  0.6136
11301SOL     OW37048   5.037   6.404   1.024 -0.3211  0.3823  0.4047
11301SOL    HW137049   5.101   6.450   0.970  2.2199 -0.4846  2.4690
11301SOL    HW237050   5.009   6.469   1.089 -1.0077  0.5361 -0.0300
11302SOL     OW37051   0.426   4.421   1.084 -0.6673 -0.2000  0.5526
11302SOL    HW137052   0.399   4.506   1.119  0.9529  0.3440  0.5640
11302SOL    HW237053   0.437   4.365   1.161  0.0949  0.1566  0.7161
11303SOL     OW37054   0.448   2.970   2.913 -0.5345  0.2760  0.8494
11303SOL    HW137055   0.543   2.971   2.907 -0.5570  2.2623  0.1160
11303SOL    HW237056   0.424   2.879   2.892  1.2448 -0.7723  2.9821
11304SOL     OW37057   7.227   5.729   3.275 -0.4271  0.2397  0.4443
11304SOL    HW137058   7.227   5.743   3.370 -1.0197  1.0303  0.3367
11304SOL    HW237059   7.144   5.766   3.246 -0.0285  0.4530 -0.4482
11305SOL     OW37060   5.036   3.907   5.629 -0.5171 -0.4486 -0.6507
11305SOL    HW137061   4.989   3.973   5.578 -2.0820 -1.0730 -0.0654
11305SOL    HW237062   4.969   3.867   5.684  0.4349 -2.3731 -0.8296
11306SOL     OW37063   2.068   1.920   3.603  0.2767 -0.2375  0.5390
11306SOL    HW137064   2.008   1.849   3.625  0.0259 -0.9343 -2.0540
11306SOL    HW237065   2.040   1.993   3.658 -0.6618 -1.5852  1.9270
11307SOL     OW37066   0.163   6.084   1.000  0.3580 -0.2358  0.6825
11307SOL    HW137067   0.173   6.144   0.926 -0.3769  0.6459  1.2841
11307SOL    HW237068   0.081   6.037   0.982  0.6375 -0.6668  0.5019
11308SOL     OW37069   0.147   0.354   1.807  0.0927 -0.1615  0.7410
11308SOL    HW137070   0.197   0.417   1.755 -0.0368 -0.1746  0.6003
11308SOL    HW237071   0.111   0.407   1.879  1.3883 -0.3957  1.6011
11309SOL     OW37072   3.687   6.151   6.487 -0.3098  0.2844 -0.1603
11309SOL    HW137073   3.657   6.241   6.502 -0.2424 -0.0613  2.5310
11309SOL    HW237074   3.777   6.151   6.520 -0.3978 -0.8339  0.0917
11310SOL     OW37075   0.364   0.461   6.108  0.0807 -0.4539 -0.0628
11310SOL    HW137076   0.342   0.375   6.145 -1.1869 -0.3053 -0.4258
11310SOL    HW237077   0.448   0.484   6.149 -0.9507 -0.5726  2.2899
11311SOL     OW37078   3.199   1.951   5.023 -0.3956 -0.0560 -0.1971
11311SOL    HW137079   3.246   1.994   4.952  0.4649 -0.8146 -0.0965
11311SOL    HW237080   3.162   1.872   4.983 -0.3092 -0.2382  0.0775
11312SOL     OW37081   6.744   0.313   4.583  0.0039 -0.3509 -0.3371
11312SOL    HW137082   6.671   0.325   4.523  1.0548  0.9107 -1.4364
11312SOL    HW237083   6.775   0.224   4.564  0.8355  0.3061 -2.3426
11313SOL     OW37084   3.940   6.303   0.225  0.0928 -0.2151  0.3473
11313SOL    HW137085   3.908   6.392   0.232  0.1380 -0.1428 -0.3293
11313SOL    HW237086   3.921   6.277   0.134 -0.0373 -0.9333  0.5704
11314SOL     OW37087   2.637   2.324   4.015  0.3549 -0.3588 -0.6585
11314SOL    HW137088   2.676   2.237   4.026 -1.2269 -0.8012  2.1722
11314SOL    HW237089   2.702   2.384   4.051  0.9234 -0.4598 -1.4864
11315SOL     OW37090   5.701   6.054   6.871 -0.0415  0.1440 -0.6454
11315SOL    HW137091   5.754   6.084   6.944 -1.5120  2.1047 -0.2920
11315SOL    HW237092   5.736   5.967   6.849  2.6032  0.9176  0.1705
11316SOL     OW37093   5.621   0.854   3.064 -0.0909 -0.1766  0.3718
11316SOL    HW137094   5.609   0.762   3.090  0.4727 -0.2615  0.3396
11316SOL    HW237095   5.695   0.852   3.003 -1.7935 -0.0796 -1.8062
11317SOL     OW37096   3.683   2.323   1.697 -0.4908  0.1258  0.0212
11317SOL    HW137097   3.590   2.328   1.718 -0.6682 -0.4462 -0.5850
11317SOL    HW237098   3.688   2.338   1.603 -0.1611 -1.5008 -0.2609
11318SOL     OW37099   7.215   2.406   6.711 -0.0115  0.7715 -0.1330
11318SOL    HW137100   7.174   2.446   6.788 -1.5670 -0.5912 -0.1795
11318SOL    HW237101   7.220   2.477   6.647 -0.3630  1.4937  0.6223
11319SOL     OW37102   3.863   0.085   4.725  0.2902  0.9994 -0.2965
11319SOL    HW137103   3.957   0.097   4.723  0.3010  0.8269 -1.7443
11319SOL    HW237104   3.828   0.171   4.748  0.7925  0.9893  0.5527
11320SOL     OW37105   3.745   1.130   4.632 -0.5180 -0.2034 -0.2287
11320SOL    HW137106   3.739   1.220   4.601 -0.9180 -0.1290  0.0591
11320SOL    HW237107   3.693   1.080   4.568  0.4945 -0.3789 -0.9411
11321SOL     OW37108   1.055   6.142   6.548 -0.2465  0.0540 -0.2908
11321SOL    HW137109   1.047   6.139   6.453  1.4492  0.1687 -0.4653
11321SOL    HW237110   1.116   6.214   6.565  1.6004 -1.6654  0.7089
11322SOL     OW37111   3.641   6.161   4.141  0.5106 -0.8384  0.3942
11322SOL    HW137112   3.675   6.152   4.052  0.9664 -0.2818  0.5065
11322SOL    HW237113   3.636   6.071   4.173  0.0460 -1.0692 -0.3017
11323SOL     OW37114   0.289   7.054   5.302  0.3862 -0.1077 -0.5666
11323SOL    HW137115   0.365   7.099   5.338  0.4821 -0.7758  0.1083
11323SOL    HW237116   0.310   6.961   5.311 -0.4578 -0.2970 -0.4851
11324SOL     OW37117   4.060   2.116   5.189  0.5688  0.6650  0.3887
11324SOL    HW137118   4.109   2.107   5.107  0.2058 -0.9879  0.3076
11324SOL    HW237119   4.037   2.209   5.194 -2.4488  0.3278 -3.1797
11325SOL     OW37120   6.163   5.797   5.467 -0.6348  0.1131 -0.1021
11325SOL    HW137121   6.202   5.766   5.548  0.7757  2.0884  0.0474
11325SOL    HW237122   6.187   5.732   5.401 -0.7460 -0.8673  0.8149
11326SOL     OW37123   0.282   4.541   0.249 -0.2452  0.0326 -0.5787
11326SOL    HW137124   0.234   4.516   0.328  1.5981 -0.2253  0.5293
11326SOL    HW237125   0.219   4.533   0.178 -1.8170 -0.2268  0.7998
11327SOL     OW37126   2.464   0.649   3.390  0.0709 -0.0959 -0.0671
11327SOL    HW137127   2.541   0.652   3.333  1.0140  1.5270  1.2149
11327SOL    HW237128   2.401   0.708   3.348  0.2375  0.0241 -0.1523
11328SOL     OW37129   2.134   7.210   3.729 -0.1891  0.4680 -0.1542
11328SOL    HW137130   2.064   7.224   3.665 -0.4862 -2.2678 -0.5535
11328SOL    HW237131   2.213   7.243   3.685 -0.3620 -1.4356 -2.0616
11329SOL     OW37132   4.071   3.118   4.393  0.1215  0.2355  0.3184
11329SOL    HW137133   4.112   3.096   4.477  2.4105 -1.3923 -1.1046
11329SOL    HW237134   4.016   3.042   4.373  1.2970 -0.4219 -0.5982
11330SOL     OW37135   4.133   2.490   1.688 -0.1188 -1.2539  0.6675
11330SOL    HW137136   4.164   2.445   1.610 -0.8123 -0.4100 -0.1143
11330SOL    HW237137   4.056   2.439   1.716 -1.3653 -0.1989 -0.6548
11331SOL     OW37138   5.530   5.680   0.430  0.1485  0.0436 -0.3137
11331SOL    HW137139   5.511   5.587   0.436 -0.6766  0.2389  0.3629
11331SOL    HW237140   5.494   5.717   0.511  0.5974  0.9254 -0.5013
11332SOL     OW37141   3.169   5.290   7.103 -0.0681  0.1320 -0.7325
11332SOL    HW137142   3.098   5.302   7.165 -0.5711  0.8907 -1.4301
11332SOL    HW237143   3.126   5.278   7.018  0.6310  1.5269 -1.3186
11333SOL     OW37144   4.549   5.458   4.035  0.3674 -0.2003  0.0390
11333SOL    HW137145   4.471   5.511   4.050  0.8430  0.7150 -0.6901
11333SOL    HW237146   4.591   5.497   3.959  1.1729 -1.1172 -0.0038
11334SOL     OW37147   7.415   4.077   4.962 -0.5602 -0.2014 -0.3456
11334SOL    HW137148   7.456   4.005   5.011  0.0052  0.2312 -0.1745
11334SOL    HW237149   7.328   4.084   5.000 -0.2989 -0.1947  0.2705
11335SOL     OW37150   4.530   0.871   1.495  0.4171  0.1495 -0.8339
11335SOL    HW137151   4.514   0.798   1.436 -0.4314  0.6956 -1.3018
11335SOL    HW237152   4.454   0.928   1.484  0.8406  0.8760 -0.1348
11336SOL     OW37153   1.019   7.525   4.449 -0.0143 -0.2324 -0.4523
11336SOL    HW137154   1.109   7.529   4.483  0.1987  0.0310 -1.0426
11336SOL    HW237155   0.985   7.441   4.480 -0.0768  0.3068  1.0393
11337SOL     OW37156   0.168   5.082   5.270  0.7241 -0.4141  0.1718
11337SOL    HW137157   0.217   5.036   5.202 -0.0654 -1.3669  0.2259
11337SOL    HW237158   0.157   5.171   5.235  2.1354 -0.2843  0.0050
11338SOL     OW37159   0.159   6.573   0.031  0.0507  0.3766  0.5390
11338SOL    HW137160   0.125   6.644  -0.024  1.5940  1.0074  0.3422
11338SOL    HW237161   0.121   6.590   0.117 -2.1365 -0.4382 -0.2037
11339SOL     OW37162   3.286   2.765   6.728  0.1379 -0.7647 -0.3389
11339SOL    HW137163   3.229   2.744   6.802 -0.6549  0.5485 -0.5575
11339SOL    HW237164   3.281   2.860   6.719 -0.2479 -0.9439 -2.4531
11340SOL     OW37165   4.749   2.046   2.987  0.0478  0.2289  0.0920
11340SOL    HW137166   4.727   1.980   2.922  1.0559  1.2692 -1.3979
11340SOL    HW237167   4.682   2.039   3.054 -1.2544 -0.6502 -1.2615
11341SOL     OW37168   1.751   0.412   1.145 -0.0814  0.0959  0.4033
11341SOL    HW137169   1.728   0.476   1.078  0.4083  1.1705  1.2343
11341SOL    HW237170   1.732   0.327   1.105  1.5442  0.6275 -1.6382
11342SOL     OW37171   8.092   3.837   1.260 -0.6492 -0.3325 -0.2002
11342SOL    HW137172   8.169   3.884   1.228 -0.2981  0.4801  1.6874
11342SOL    HW237173   8.118   3.745   1.260 -0.7348 -0.4038 -2.3019
11343SOL     OW37174   3.911   4.290   2.291 -1.0718 -0.1053 -0.1840
11343SOL    HW137175   3.974   4.247   2.233  0.5975  1.1382  0.6204
11343SOL    HW237176   3.837   4.312   2.234 -0.3266 -0.6528 -1.4025
11344SOL     OW37177   3.484   3.568   0.087 -0.4300  0.0785 -0.1063
11344SOL    HW137178   3.423   3.581   0.015  0.7518  1.4720 -0.9257
11344SOL    HW237179   3.515   3.478   0.077 -2.0211 -0.5148  0.1014
11345SOL     OW37180   7.102   7.494   5.397  0.1951  0.0097  0.1842
11345SOL    HW137181   7.082   7.544   5.318  0.6045  0.3292  0.2773
11345SOL    HW237182   7.059   7.410   5.384 -1.5035  0.7829  0.5309
11346SOL     OW37183   0.994   1.357   6.654  0.2203 -0.3527 -0.1549
11346SOL    HW137184   1.006   1.270   6.693  1.1168  0.2427  0.9641
11346SOL    HW237185   1.027   1.348   6.565  1.6767 -0.8105  0.4055
11347SOL     OW37186   0.226   6.913   6.939 -0.1063  0.3206 -0.2447
11347SOL    HW137187   0.255   6.972   6.869  0.3267 -0.9640 -1.1826
11347SOL    HW237188   0.135   6.938   6.956  0.6823  2.6962  0.9250
11348SOL     OW37189   5.733   4.186   4.252  0.0605  0.1797 -0.5701
11348SOL    HW137190   5.649   4.186   4.298  0.0697  0.4968 -0.5534
11348SOL    HW237191   5.782   4.259   4.290 -0.6254  1.6618 -2.3304
11349SOL     OW37192   1.668   3.260   5.935 -0.0584  0.2554  0.3075
11349SOL    HW137193   1.694   3.267   6.027  0.5885 -1.4249  0.2731
11349SOL    HW237194   1.737   3.209   5.894 -0.1923  1.2301 -1.1966
11350SOL     OW37195   1.275   5.144   4.543 -0.0204 -0.6380 -0.0987
11350SOL    HW137196   1.294   5.223   4.594 -0.5337 -0.1457 -0.6597
11350SOL    HW237197   1.196   5.107   4.583  0.1513 -0.8102  0.0877
11351SOL     OW37198   0.536   7.560   3.281  0.0256 -0.0363 -0.1915
11351SOL    HW137199   0.548   7.481   3.333  1.0649 -0.4496 -1.0101
11351SOL    HW237200   0.574   7.630   3.334  1.5030 -0.5295 -0.5510
11352SOL     OW37201   3.143   5.739   5.619  0.3208 -0.0069 -0.0357
11352SOL    HW137202   3.106   5.700   5.698  1.1048 -0.1858  0.2523
11352SOL    HW237203   3.095   5.697   5.548  1.4122 -1.8474  0.2503
11353SOL     OW37204   3.324   0.926   5.540  0.1765  0.0242  0.1334
11353SOL    HW137205   3.384   0.955   5.609 -0.4805  0.2959  0.6050
11353SOL    HW237206   3.306   1.006   5.490  0.0603 -0.0150  0.1123
11354SOL     OW37207   0.697   3.315   5.746  0.3835  0.2578 -0.5183
11354SOL    HW137208   0.647   3.391   5.777 -1.4919 -1.5592  1.2976
11354SOL    HW237209   0.704   3.259   5.823  4.1103 -0.2921 -1.0633
11355SOL     OW37210   5.247   4.070   3.087  0.8735 -0.4630  0.4378
11355SOL    HW137211   5.251   4.021   3.005 -0.3774 -0.6174  0.4529
11355SOL    HW237212   5.177   4.134   3.073  0.5411 -0.5905  1.4264
11356SOL     OW37213   0.041   6.424   6.221  0.1885  0.4395 -0.0569
11356SOL    HW137214   0.013   6.513   6.242  0.9943  1.2875 -2.2178
11356SOL    HW237215   0.105   6.402   6.289  0.0547  1.5646  0.4551
11357SOL     OW37216   7.837   6.552   5.440 -0.3086 -0.3604  0.3506
11357SOL    HW137217   7.789   6.507   5.370  0.9155 -2.6037  0.8520
11357SOL    HW237218   7.906   6.600   5.394 -0.8532 -0.0262 -0.1237
11358SOL     OW37219   4.882   5.376   1.409 -0.3462 -0.2310 -0.0585
11358SOL    HW137220   4.797   5.353   1.370 -1.0015 -0.4333  1.4432
11358SOL    HW237221   4.881   5.335   1.495  2.3084 -2.3128 -0.8783
11359SOL     OW37222   5.664   4.856   0.443  0.5981 -0.4964  0.4455
11359SOL    HW137223   5.753   4.835   0.412  1.0038  0.7713  0.6911
11359SOL    HW237224   5.606   4.808   0.383  1.4256 -0.3473 -0.5018
11360SOL     OW37225   1.799   8.073   8.058 -0.6418  0.3768 -0.3475
11360SOL    HW137226   1.713   8.110   8.039 -0.9834  0.3648  1.0867
11360SOL    HW237227   1.837   8.131   8.123  0.4439  0.3648 -0.9455
11361SOL     OW37228   1.214   3.666   5.564  0.3400  0.0503 -0.6640
11361SOL    HW137229   1.157   3.741   5.581  1.0015  0.4601 -0.2105
11361SOL    HW237230   1.161   3.590   5.588  0.1857  0.4604  0.3324
11362SOL     OW37231   7.617   4.157   0.116 -0.4217 -0.1957 -0.3754
11362SOL    HW137232   7.598   4.230   0.057  0.8140  0.6111  0.1961
11362SOL    HW237233   7.539   4.151   0.172 -1.3913 -0.6480 -1.7128
11363SOL     OW37234   4.524   3.577   0.689 -0.7987  1.0676  0.4295
11363SOL    HW137235   4.578   3.509   0.649 -0.5394  1.3545  0.2851
11363SOL    HW237236   4.532   3.652   0.630 -0.5308  1.4459  0.9386
11364SOL     OW37237   4.611   0.381   5.708 -0.0545  0.5776 -0.2660
11364SOL    HW137238   4.634   0.296   5.673  0.7756 -0.3663  2.3047
11364SOL    HW237239   4.524   0.369   5.746 -0.0667  0.9475 -0.1683
11365SOL     OW37240   5.226   5.344   2.336  0.4313 -0.3121  0.1851
11365SOL    HW137241   5.163   5.293   2.386  0.4470 -0.1908  0.3276
11365SOL    HW237242   5.191   5.344   2.247 -0.2681  0.5568  0.4502
11366SOL     OW37243   6.919   5.753   3.626 -0.4680  0.4071 -0.4037
11366SOL    HW137244   6.901   5.661   3.606 -0.1486 -0.0011  1.0604
11366SOL    HW237245   7.010   5.766   3.601  0.9035 -0.9392  3.3122
11367SOL     OW37246   4.342   5.719   2.072 -0.2926 -0.4989 -0.1511
11367SOL    HW137247   4.389   5.776   2.134  1.8853 -2.0608 -0.2313
11367SOL    HW237248   4.251   5.745   2.080  0.1318  0.5356  2.4545
11368SOL     OW37249   6.525   1.765   2.227 -0.3818  0.3826 -0.0701
11368SOL    HW137250   6.505   1.672   2.240  0.1208  0.0123 -1.7030
11368SOL    HW237251   6.496   1.783   2.138  1.1154  1.3470 -0.3925
11369SOL     OW37252   4.527   4.676   5.005  0.4249  0.3389  0.2653
11369SOL    HW137253   4.468   4.722   4.945  0.3886  0.4070  0.3543
11369SOL    HW237254   4.511   4.583   4.988 -0.5693  0.3419  1.1308
11370SOL     OW37255   7.232   1.286   1.581 -0.5783  0.3619 -0.2306
11370SOL    HW137256   7.281   1.348   1.634  1.5263  0.1632 -1.8225
11370SOL    HW237257   7.159   1.336   1.545 -0.9246  0.9693  1.2501
11371SOL     OW37258   7.191   2.599   1.918 -0.2637 -0.7513 -0.0328
11371SOL    HW137259   7.137   2.631   1.846 -0.0093  0.1968  0.1886
11371SOL    HW237260   7.255   2.541   1.877 -0.7231 -0.9758 -0.4417
11372SOL     OW37261   5.608   4.286   7.187 -0.4673  0.2923 -0.2137
11372SOL    HW137262   5.681   4.273   7.248 -0.9649 -0.7879  0.1858
11372SOL    HW237263   5.639   4.248   7.105  0.6997  2.8955 -1.0733
11373SOL     OW37264   1.021   0.351   0.858 -0.2476 -0.2715  0.0518
11373SOL    HW137265   0.949   0.342   0.921 -0.2490 -1.3263 -0.0809
11373SOL    HW237266   1.017   0.271   0.806  2.2720 -1.3598  1.3421
11374SOL     OW37267   6.377   3.797   5.090  0.4292 -0.1848 -0.1721
11374SOL    HW137268   6.336   3.878   5.063 -1.7294 -0.6873  1.3551
11374SOL    HW237269   6.372   3.740   5.013  0.8901  0.7111 -0.8797
11375SOL     OW37270   2.197   0.291   6.798  0.2787 -0.5055  0.3999
11375SOL    HW137271   2.183   0.205   6.835 -0.5501 -0.8568 -0.6865
11375SOL    HW237272   2.240   0.275   6.714  1.9837  0.2621  1.0634
11376SOL     OW37273   1.929   7.873   1.986  0.2201 -0.1383  0.7924
11376SOL    HW137274   1.857   7.812   2.000 -0.1821  0.2420  0.3863
11376SOL    HW237275   1.983   7.831   1.918 -0.8294  0.6136 -0.5371
11377SOL     OW37276   6.551   2.511   2.678 -0.4691  0.6337 -0.4080
11377SOL    HW137277   6.596   2.429   2.659 -0.9517  0.0002  1.0508
11377SOL    HW237278   6.543   2.554   2.593 -1.7468 -1.6077 -1.5165
11378SOL     OW37279   3.116   0.805   0.596  0.1430 -1.1364  0.8118
11378SOL    HW137280   3.177   0.844   0.534 -0.7681  0.0167  0.6089
11378SOL    HW237281   3.165   0.734   0.637  0.9950 -1.4624 -0.7055
11379SOL     OW37282   5.262   6.499   5.541  0.4478 -0.4853  0.2079
11379SOL    HW137283   5.227   6.475   5.627  0.1333  3.5882  1.4413
11379SOL    HW237284   5.357   6.493   5.552  0.5018  1.5570  1.5485
11380SOL     OW37285   2.090   0.816   5.140 -0.2693 -0.3875 -0.2560
11380SOL    HW137286   2.182   0.790   5.133 -0.2051  0.0282 -1.0939
11380SOL    HW237287   2.079   0.842   5.231  0.4184 -0.5217 -0.1282
11381SOL     OW37288   0.331   3.296   2.240 -0.4023 -0.6395 -0.3728
11381SOL    HW137289   0.295   3.372   2.195 -0.4550 -0.2677  0.2844
11381SOL    HW237290   0.376   3.332   2.317  0.9864 -1.1409 -0.9257
11382SOL     OW37291   7.887   6.857   1.847  0.3862 -0.1150 -0.2368
11382SOL    HW137292   7.928   6.896   1.770 -0.9613  2.4660  0.2187
11382SOL    HW237293   7.802   6.901   1.853 -1.4064 -3.3240  0.3213
11383SOL     OW37294   0.025   2.419   7.644  0.4002 -0.2100  0.2002
11383SOL    HW137295   0.028   2.394   7.552  0.7907 -1.4352  0.5234
11383SOL    HW237296  -0.063   2.452   7.658  0.6950  1.1030 -0.8744
11384SOL     OW37297   3.910   4.604   7.455  0.2670 -0.3239  0.1191
11384SOL    HW137298   3.952   4.545   7.393  2.2969  0.8161  0.3356
11384SOL    HW237299   3.855   4.661   7.401  1.6525  0.3498 -0.6413
11385SOL     OW37300   6.235   6.046   0.743 -0.3147 -0.3494  0.1385
11385SOL    HW137301   6.271   6.038   0.831 -2.0041  0.3376  0.9217
11385SOL    HW237302   6.276   6.125   0.707 -0.8833  0.3415  0.9643
11386SOL     OW37303   0.119   1.973   3.300  0.0044  1.0920  0.2003
11386SOL    HW137304   0.076   1.992   3.384 -0.5339  2.0818 -0.2805
11386SOL    HW237305   0.052   1.994   3.234 -0.9673 -3.2373 -0.4604
11387SOL     OW37306   6.486   1.776   1.210 -0.4109 -0.1938 -0.5401
11387SOL    HW137307   6.501   1.868   1.230 -1.2370 -0.1773  0.1160
11387SOL    HW237308   6.456   1.739   1.294 -0.2554 -1.0121 -0.8410
11388SOL     OW37309   0.059   6.484   3.579  0.5371 -0.5062 -0.2348
11388SOL    HW137310   0.060   6.454   3.670  0.8958 -0.0975 -0.1025
11388SOL    HW237311   0.018   6.570   3.582 -1.7018 -1.4798 -0.7888
11389SOL     OW37312   0.492   1.856   2.760  0.4518  0.5207 -0.0262
11389SOL    HW137313   0.587   1.854   2.749  0.4483 -0.5611 -0.0079
11389SOL    HW237314   0.469   1.767   2.787 -0.3230  1.3081  2.1673
11390SOL     OW37315   6.259   7.105   5.514 -0.0762  0.0519 -0.1548
11390SOL    HW137316   6.286   7.113   5.606  2.6144  2.6852 -1.0089
11390SOL    HW237317   6.341   7.099   5.465 -1.3959 -0.2566 -2.4762
11391SOL     OW37318   1.296   0.582   4.490 -0.2474 -0.4971  0.0447
11391SOL    HW137319   1.202   0.596   4.496 -0.1021  0.1735  1.1204
11391SOL    HW237320   1.333   0.670   4.481  0.3584 -0.6101  1.1861
11392SOL     OW37321   0.498   0.635   4.543  0.1121 -0.0295 -0.0473
11392SOL    HW137322   0.504   0.554   4.493 -0.8040 -0.0870 -0.0814
11392SOL    HW237323   0.577   0.683   4.520  0.5424 -0.8051 -0.2136
11393SOL     OW37324   1.389   6.364   4.143  0.1964 -0.4186  0.3127
11393SOL    HW137325   1.390   6.439   4.202 -1.3152 -0.5266  0.5078
11393SOL    HW237326   1.316   6.382   4.084  2.5397  0.4439 -2.5785
11394SOL     OW37327   7.544   1.007   1.584  0.4551  0.0772 -0.0598
11394SOL    HW137328   7.491   0.928   1.576  0.7932 -0.1510 -0.0929
11394SOL    HW237329   7.501   1.058   1.652  1.6924 -1.3399  1.9029
11395SOL     OW37330   6.508   3.997   6.338 -0.1103 -0.0988  0.4770
11395SOL    HW137331   6.553   3.914   6.348  0.9174  0.1209 -1.7267
11395SOL    HW237332   6.415   3.975   6.341  0.1458 -1.4461 -0.7892
11396SOL     OW37333   6.339   7.336   7.900 -0.0921 -0.0130  0.7963
11396SOL    HW137334   6.406   7.283   7.944  1.4388 -0.1536 -1.5377
11396SOL    HW237335   6.347   7.423   7.939 -0.0371 -0.5587  2.0367
11397SOL     OW37336   5.494   2.556   1.067  0.4034  0.2013 -0.3266
11397SOL    HW137337   5.503   2.460   1.069  1.1106  0.2714  0.2844
11397SOL    HW237338   5.500   2.578   0.974  0.4235 -0.3373 -0.4577
11398SOL     OW37339   3.789   1.084   3.052 -0.1830  0.1549 -0.1813
11398SOL    HW137340   3.861   1.097   3.114 -0.0963  1.5987 -0.5459
11398SOL    HW237341   3.745   1.004   3.083  1.3614 -0.5671  0.2332
11399SOL     OW37342   7.391   0.421   3.159 -0.0769  0.5134  0.7942
11399SOL    HW137343   7.385   0.330   3.131  1.2308  0.2228  1.3793
11399SOL    HW237344   7.336   0.427   3.237  1.4026 -0.2993  1.9401
11400SOL     OW37345   6.101   0.663   2.892 -0.5961 -0.0955  0.4584
11400SOL    HW137346   6.097   0.573   2.926 -1.6163  0.3542  1.5863
11400SOL    HW237347   6.188   0.694   2.916 -0.4012 -0.6213  0.4502
11401SOL     OW37348   2.250   0.113   4.335 -0.6193 -0.5461 -0.4460
11401SOL    HW137349   2.265   0.185   4.396 -0.2469 -0.4708 -0.6226
11401SOL    HW237350   2.158   0.121   4.310 -1.1398 -1.3413  1.0725
11402SOL     OW37351   8.064   4.874   0.816  0.1877  0.0085  0.1171
11402SOL    HW137352   8.073   4.906   0.727  1.3395 -0.5135  0.0398
11402SOL    HW237353   8.107   4.789   0.817 -1.8988 -1.1247  0.5847
11403SOL     OW37354   5.035   0.270   2.373  0.5925  0.0413 -0.1070
11403SOL    HW137355   5.058   0.193   2.426 -0.1100 -0.6545 -0.8009
11403SOL    HW237356   4.988   0.327   2.433 -0.4047 -0.8455 -0.0260
11404SOL     OW37357   2.251   1.053   5.631  0.3374 -0.4382  0.2255
11404SOL    HW137358   2.164   1.038   5.594  0.5691  0.0996 -0.5820
11404SOL    HW237359   2.256   0.995   5.706 -1.1484  0.3475  0.9860
11405SOL     OW37360   7.704   5.049   5.956 -0.1093  0.4622  0.0351
11405SOL    HW137361   7.633   5.059   6.020  0.3147 -0.3343  0.6477
11405SOL    HW237362   7.760   5.126   5.970  0.4336 -0.1225  1.2268
11406SOL     OW37363   1.731   4.458   0.748 -0.5373  0.3660 -0.3858
11406SOL    HW137364   1.770   4.490   0.667 -0.8986  1.3590 -0.1820
11406SOL    HW237365   1.646   4.424   0.723 -0.6537  0.6844 -0.4300
11407SOL     OW37366   3.612   2.349   3.369 -0.1216  0.8674  0.4404
11407SOL    HW137367   3.552   2.283   3.335 -0.4172  1.1912  0.3240
11407SOL    HW237368   3.698   2.319   3.342 -0.0538 -0.4372  1.9418
11408SOL     OW37369   1.424   3.127   0.456 -0.5878  0.1304 -0.3370
11408SOL    HW137370   1.370   3.111   0.378  0.0138 -2.3151 -0.3358
11408SOL    HW237371   1.368   3.101   0.529 -0.3402  0.1855 -0.1285
11409SOL     OW37372   2.614   3.439   3.555 -0.0532 -0.0923 -0.0126
11409SOL    HW137373   2.521   3.442   3.573 -0.4344 -1.1966 -1.5644
11409SOL    HW237374   2.655   3.414   3.638 -1.1254  0.4133  0.6771
11410SOL     OW37375   0.513   1.963   4.344 -0.0728  0.4331  0.2651
11410SOL    HW137376   0.473   2.039   4.303  0.8228  0.9306  0.2986
11410SOL    HW237377   0.486   1.889   4.290 -0.6948  0.8048  0.0582
11411SOL     OW37378   3.731   3.245   7.814  0.4973  0.5226  0.1742
11411SOL    HW137379   3.662   3.178   7.818  1.7827 -0.8907 -0.1615
11411SOL    HW237380   3.690   3.319   7.770 -0.3707 -0.8799 -1.5259
11412SOL     OW37381   3.151   7.313   7.181 -0.3460  0.6627  0.0192
11412SOL    HW137382   3.078   7.317   7.242 -1.5431 -1.5749 -1.1539
11412SOL    HW237383   3.192   7.229   7.197 -2.8929 -1.8235 -4.4053
11413SOL     OW37384   7.938   2.547   6.536 -0.0999 -0.0201 -0.1911
11413SOL    HW137385   8.025   2.544   6.576  0.1714 -0.7608 -0.7979
11413SOL    HW237386   7.926   2.639   6.511  1.5273 -0.2861 -2.2239
11414SOL     OW37387   2.148   6.716   1.033  0.0057  0.0168 -0.2970
11414SOL    HW137388   2.214   6.722   0.964  0.9046  0.1457  0.5514
11414SOL    HW237389   2.098   6.638   1.011 -0.8428  1.0137 -2.0311
11415SOL     OW37390   0.873   4.955   0.382  0.4492 -0.3063 -0.3688
11415SOL    HW137391   0.781   4.934   0.369  0.5251 -0.2369 -1.0727
11415SOL    HW237392   0.920   4.877   0.352  0.5715 -1.2354  2.0581
11416SOL     OW37393   5.472   8.075   7.584  0.1420  0.3552  0.1518
11416SOL    HW137394   5.534   8.005   7.602  0.8981  0.8097 -0.5638
11416SOL    HW237395   5.410   8.072   7.656  0.4058 -0.7725  0.3510
11417SOL     OW37396   0.822   0.871   4.175 -0.5826 -0.0873  0.4456
11417SOL    HW137397   0.905   0.918   4.181  0.4387 -1.2622 -2.4467
11417SOL    HW237398   0.757   0.938   4.160  0.5623  0.6205 -1.7330
11418SOL     OW37399   6.397   7.750   0.697  0.2095  0.3832  0.4756
11418SOL    HW137400   6.381   7.661   0.730  1.9167 -0.4438 -0.7962
11418SOL    HW237401   6.397   7.740   0.602  0.6577  1.6996  0.3255
11419SOL     OW37402   4.652   3.555   1.113  0.0424 -0.0969  0.0537
11419SOL    HW137403   4.733   3.592   1.078  0.7795  1.4937  3.1249
11419SOL    HW237404   4.676   3.524   1.200 -2.9066  1.8200  1.7054
11420SOL     OW37405   0.259   7.517   1.150  0.0099  0.1280  0.0985
11420SOL    HW137406   0.324   7.587   1.155  0.4521 -0.2728  0.0002
11420SOL    HW237407   0.299   7.451   1.093 -0.4204 -0.1893  0.1600
11421SOL     OW37408   7.149   4.169   0.206  0.5626 -0.4486 -0.4009
11421SOL    HW137409   7.053   4.167   0.206  0.3504  3.2877  0.6872
11421SOL    HW237410   7.173   4.184   0.115 -0.1335  1.8978 -0.2454
11422SOL     OW37411   4.473   0.938   4.098  0.5591  0.1509 -0.9807
11422SOL    HW137412   4.398   0.991   4.125  0.1744 -0.8586  0.0190
11422SOL    HW237413   4.446   0.900   4.014 -0.5877 -1.1801 -0.0527
11423SOL     OW37414   0.317   0.791   5.962 -0.0581 -0.0935  0.5084
11423SOL    HW137415   0.316   0.827   5.873 -2.4368 -2.3457 -0.5007
11423SOL    HW237416   0.366   0.709   5.955 -2.7612 -1.8511  0.4288
11424SOL     OW37417   7.161   0.586   4.739 -0.1871  0.0521  0.1236
11424SOL    HW137418   7.115   0.644   4.799  0.8948  0.1627  0.8742
11424SOL    HW237419   7.092   0.539   4.693 -1.0544  1.2222  0.2130
11425SOL     OW37420   1.979   0.182   4.266 -0.5935 -0.0550 -0.7909
11425SOL    HW137421   1.937   0.198   4.350 -0.1026 -0.7562 -0.4006
11425SOL    HW237422   1.996   0.269   4.230 -0.4210  0.2554  0.0310
11426SOL     OW37423   7.569   0.916   2.560  0.6301  0.2111 -0.4247
11426SOL    HW137424   7.655   0.883   2.587  0.0123  0.6224  2.3675
11426SOL    HW237425   7.547   0.982   2.625 -2.5195 -1.0428 -0.0455
11427SOL     OW37426   6.803   1.394   6.858  0.3395  0.2629  0.1085
11427SOL    HW137427   6.868   1.357   6.798  1.2864 -0.1358  1.3390
11427SOL    HW237428   6.841   1.383   6.945 -1.5763 -0.3698  0.9195
11428SOL     OW37429   6.334   7.887   4.771 -0.4343  0.8014 -0.1244
11428SOL    HW137430   6.295   7.949   4.832  2.4379  1.6159  1.0304
11428SOL    HW237431   6.398   7.938   4.722 -0.1526 -0.6297 -1.3258
11429SOL     OW37432   4.877   0.483   1.913 -0.6485  0.4773  0.1337
11429SOL    HW137433   4.784   0.495   1.896 -0.3932  0.5433 -1.3285
11429SOL    HW237434   4.920   0.507   1.831  0.6146 -0.1883  0.5716
11430SOL     OW37435   4.377   4.787   6.336 -0.2673  0.0460 -0.1876
11430SOL    HW137436   4.439   4.858   6.317 -0.3927  0.0125 -0.7362
11430SOL    HW237437   4.327   4.818   6.411  1.9585 -0.8728  1.8104
11431SOL     OW37438   4.885   3.978   7.283  0.2931  0.3250 -0.1619
11431SOL    HW137439   4.938   4.057   7.273  1.2321 -0.0677  1.4557
11431SOL    HW237440   4.914   3.921   7.211  1.5929  0.3891  0.2814
11432SOL     OW37441   5.091   5.070   0.088 -0.0208  0.7146  0.7190
11432SOL    HW137442   5.093   5.163   0.066 -0.2461  0.2321 -1.5915
11432SOL    HW237443   5.183   5.047   0.100 -0.0424  1.5167  2.9233
11433SOL     OW37444   6.541   7.080   6.910 -0.8563  0.4912 -0.1735
11433SOL    HW137445   6.576   7.165   6.938 -0.7205  0.2599  0.3586
11433SOL    HW237446   6.524   7.033   6.991 -1.4258  0.2019 -0.4563
11434SOL     OW37447   0.003   6.711   2.425  0.1813  0.2465 -0.0557
11434SOL    HW137448   0.030   6.799   2.453 -0.4333  0.2428  0.5689
11434SOL    HW237449  -0.047   6.726   2.345 -1.6910  0.6994  1.1392
11435SOL     OW37450   0.154   1.031   1.766 -0.4231  0.1660  0.7779
11435SOL    HW137451   0.248   1.033   1.749 -0.5557 -1.1171 -0.2995
11435SOL    HW237452   0.145   1.057   1.857  1.1851 -1.9454  1.6235
11436SOL     OW37453   4.726   0.825   0.702  0.1893 -0.3780 -0.5039
11436SOL    HW137454   4.802   0.777   0.668  1.4163  1.3476 -0.3158
11436SOL    HW237455   4.712   0.896   0.640 -0.0807  0.4329  0.4653
11437SOL     OW37456   5.179   0.255   6.712 -0.1460 -0.2542 -0.4263
11437SOL    HW137457   5.100   0.268   6.658 -1.8984 -1.8697  1.5794
11437SOL    HW237458   5.201   0.163   6.699  0.1173 -0.3516  0.6869
11438SOL     OW37459   4.160   4.983   7.586 -0.4540  0.3433  0.4856
11438SOL    HW137460   4.088   5.022   7.537 -1.1007 -1.0363  0.3124
11438SOL    HW237461   4.237   5.033   7.559 -0.7179 -0.5559 -2.2088
11439SOL     OW37462   1.538   5.351   1.020  0.0673 -0.4889  0.5515
11439SOL    HW137463   1.567   5.282   1.080  1.9531 -0.8401 -0.6935
11439SOL    HW237464   1.476   5.307   0.962 -0.7804 -0.4542  1.3947
11440SOL     OW37465   6.524   7.502   0.026 -0.1799 -0.3989 -0.0344
11440SOL    HW137466   6.546   7.411   0.006 -0.6168 -0.5444  0.1418
11440SOL    HW237467   6.528   7.547  -0.058  0.0936 -0.5670 -0.1133
11441SOL     OW37468   6.791   2.806   7.249  0.1045  0.6174 -0.4041
11441SOL    HW137469   6.755   2.887   7.285  0.9275  1.3372 -1.1465
11441SOL    HW237470   6.715   2.748   7.240 -1.0932  2.3388 -2.6093
11442SOL     OW37471   7.163   7.324   0.131 -0.1655  0.6990  0.2192
11442SOL    HW137472   7.253   7.354   0.144 -0.7126  2.4954  0.0790
11442SOL    HW237473   7.167   7.275   0.049  0.8963 -0.2827  0.8202
11443SOL     OW37474   4.757   2.288   2.367 -0.1774  0.1766 -0.6870
11443SOL    HW137475   4.760   2.210   2.422  0.1688  0.4937 -0.2460
11443SOL    HW237476   4.729   2.358   2.426 -0.1999  0.4426 -1.0105
11444SOL     OW37477   3.108   0.391   1.758  0.3403  0.1201 -0.1237
11444SOL    HW137478   3.073   0.345   1.834 -1.0088 -0.4309 -1.0476
11444SOL    HW237479   3.098   0.484   1.780 -0.4942 -0.0298  0.1825
11445SOL     OW37480   4.993   0.045   5.007 -0.1806  0.2962 -0.5935
11445SOL    HW137481   5.057   0.003   4.949  1.8410 -1.7733  2.8367
11445SOL    HW237482   5.044   0.105   5.060 -1.4883  0.2629  0.7490
11446SOL     OW37483   0.628   2.809   4.582  0.0213  0.0552  0.1794
11446SOL    HW137484   0.718   2.828   4.606 -0.4363  2.3831  0.2944
11446SOL    HW237485   0.624   2.831   4.488 -0.4430  0.1295  0.2147
11447SOL     OW37486   0.201   8.029   1.993 -0.0957 -0.3230 -0.2374
11447SOL    HW137487   0.255   8.010   1.916 -0.1535 -1.4563 -0.0200
11447SOL    HW237488   0.227   8.118   2.019  0.1870 -0.0678 -1.3329
11448SOL     OW37489   0.208   2.948   1.228 -0.1816  0.1976  0.0195
11448SOL    HW137490   0.283   2.974   1.282 -0.6928  0.3875  0.6485
11448SOL    HW237491   0.134   2.944   1.289 -0.3520 -1.7333 -0.2268
11449SOL     OW37492   4.776   0.356   3.434  0.2518  0.5179  0.0738
11449SOL    HW137493   4.820   0.272   3.424  0.4138  0.6182 -0.0683
11449SOL    HW237494   4.839   0.420   3.402 -0.6814  0.5081 -1.9079
11450SOL     OW37495   3.996   1.607   2.270 -0.2622 -0.0536 -0.2815
11450SOL    HW137496   4.054   1.543   2.227  0.3443  0.2168  0.1306
11450SOL    HW237497   3.940   1.639   2.199  0.7006  0.3552 -0.8817
11451SOL     OW37498   3.746   1.715   4.735 -0.0492 -0.3356  0.0089
11451SOL    HW137499   3.777   1.628   4.757 -1.3647 -0.1728  3.0094
11451SOL    HW237500   3.824   1.761   4.704  1.7269 -1.3545  2.5549
11452SOL     OW37501   7.782   1.010   1.099 -0.0440 -0.4714 -0.9283
11452SOL    HW137502   7.830   0.988   1.019  0.3854 -2.5823 -0.1417
11452SOL    HW237503   7.838   0.979   1.170 -0.1427  1.8656  0.2868
11453SOL     OW37504   5.933   1.234   1.436 -0.4053 -0.7530 -0.4441
11453SOL    HW137505   5.898   1.319   1.463  2.5056  0.2439  0.5343
11453SOL    HW237506   5.904   1.174   1.505 -2.6002 -0.6774 -1.2103
11454SOL     OW37507   2.566   5.717   1.812 -0.3031  0.1981 -0.0016
11454SOL    HW137508   2.523   5.743   1.893 -0.6827 -0.9909  0.1930
11454SOL    HW237509   2.532   5.779   1.747 -0.8412  0.4682  0.5249
11455SOL     OW37510   3.267   5.525   7.608 -0.1412 -0.6279  0.1960
11455SOL    HW137511   3.329   5.458   7.576 -0.0267 -1.0239  1.2071
11455SOL    HW237512   3.245   5.496   7.696 -0.0401  0.7137  0.6797
11456SOL     OW37513   2.401   2.636   1.299 -0.0637  0.2370 -0.3519
11456SOL    HW137514   2.330   2.697   1.277  0.0737  0.6326  0.2639
11456SOL    HW237515   2.369   2.589   1.376 -0.7954 -1.5740 -1.6921
11457SOL     OW37516   5.286   7.902   2.669  0.0816 -0.4531 -0.0027
11457SOL    HW137517   5.309   7.825   2.722 -0.3095  0.3216  1.3641
11457SOL    HW237518   5.240   7.959   2.731  1.2624  1.3285 -0.7022
11458SOL     OW37519   3.398   3.063   5.158  0.3623 -0.2095  0.4548
11458SOL    HW137520   3.362   3.121   5.091  1.1036 -1.4404 -1.0765
11458SOL    HW237521   3.443   3.122   5.219 -1.4205  1.0455  0.6109
11459SOL     OW37522   0.569   5.941   0.992 -0.3582 -0.3943 -0.0807
11459SOL    HW137523   0.546   5.862   0.943  2.1336 -0.8383 -0.6759
11459SOL    HW237524   0.510   5.941   1.068 -2.8155 -0.8612 -1.8753
11460SOL     OW37525   7.802   7.974   4.869  0.6037 -0.6125 -0.4298
11460SOL    HW137526   7.786   8.066   4.891  0.4757 -0.1201 -2.3837
11460SOL    HW237527   7.714   7.937   4.858  0.6354 -0.2838 -2.0943
11461SOL     OW37528   7.325   2.578   4.004 -0.3945  0.1025 -0.1206
11461SOL    HW137529   7.396   2.642   4.012  0.0803 -0.4781  0.4511
11461SOL    HW237530   7.359   2.512   3.944  0.4347 -1.2813  1.7516
11462SOL     OW37531   3.115   3.825   2.053 -0.1201 -0.0146 -0.3618
11462SOL    HW137532   3.052   3.855   1.988 -0.4726 -0.9354 -0.4584
11462SOL    HW237533   3.063   3.784   2.122  0.2903  0.4075  0.2161
11463SOL     OW37534   6.557   2.412   0.647 -0.4807  0.0963  0.0579
11463SOL    HW137535   6.650   2.425   0.667 -0.6380  0.0240  0.8915
11463SOL    HW237536   6.544   2.457   0.564  0.3183  0.0388 -0.1121
11464SOL     OW37537   2.127   2.806   1.460  0.3915 -0.6247  0.2326
11464SOL    HW137538   2.156   2.715   1.464 -0.0056 -0.7939 -0.6115
11464SOL    HW237539   2.036   2.802   1.433  1.0998  0.0740 -2.6550
11465SOL     OW37540   8.083   4.919   1.712 -0.5792  0.8562 -0.0012
11465SOL    HW137541   8.169   4.881   1.696 -0.9455 -0.3458  0.7331
11465SOL    HW237542   8.037   4.911   1.628 -0.6373 -0.3509  0.1270
11466SOL     OW37543   1.632   6.477   1.218  0.0351 -0.4128 -0.5132
11466SOL    HW137544   1.652   6.413   1.286 -0.1830 -1.5363 -1.4828
11466SOL    HW237545   1.608   6.556   1.267 -3.1566 -2.0222  0.8791
11467SOL     OW37546   3.692   2.375   6.288  0.4186  0.0726  0.2292
11467SOL    HW137547   3.631   2.354   6.359  1.3098 -0.0258  0.9784
11467SOL    HW237548   3.773   2.329   6.310  0.1806 -1.5116 -1.8057
11468SOL     OW37549   3.131   5.816   3.879 -0.0728 -0.6886  0.1074
11468SOL    HW137550   3.144   5.734   3.831 -2.6704 -2.2051  1.7468
11468SOL    HW237551   3.040   5.812   3.907 -0.0139  2.4072  0.9993
11469SOL     OW37552   1.242   5.641   4.369 -0.4528  0.2541  0.3218
11469SOL    HW137553   1.198   5.557   4.352  0.8573 -0.2635 -0.6959
11469SOL    HW237554   1.242   5.686   4.284  0.5316  0.4416  0.4050
11470SOL     OW37555   2.712   6.878   3.489  0.6548  0.3464  0.4343
11470SOL    HW137556   2.705   6.948   3.554  0.8830  0.4140  0.3867
11470SOL    HW237557   2.636   6.890   3.433  1.3322  1.3207 -0.3228
11471SOL     OW37558   6.804   7.165   5.535  0.6053 -0.0557  0.5477
11471SOL    HW137559   6.720   7.210   5.541 -0.2775 -1.3051 -1.4463
11471SOL    HW237560   6.848   7.207   5.461  0.8444 -0.7811  0.2724
11472SOL     OW37561   7.005   8.081   7.742  0.2354 -0.0991  0.6083
11472SOL    HW137562   7.026   8.174   7.750  1.1296 -0.0792 -1.3497
11472SOL    HW237563   6.988   8.069   7.648  0.0069 -1.8896  0.8510
11473SOL     OW37564   5.869   4.821   4.325 -0.3320  0.1520 -0.0991
11473SOL    HW137565   5.844   4.764   4.397 -0.0354  0.8047  0.5350
11473SOL    HW237566   5.942   4.873   4.359 -0.6014  0.9181 -0.6561
11474SOL     OW37567   4.783   6.192   5.861  0.1303 -0.0065 -0.3711
11474SOL    HW137568   4.841   6.256   5.900  0.2889 -0.9473  0.9937
11474SOL    HW237569   4.787   6.210   5.767  0.1684  1.9514 -0.0322
11475SOL     OW37570   3.788   4.919   7.065  0.0385  0.2120 -0.2582
11475SOL    HW137571   3.706   4.969   7.070  0.2839  0.5292  1.2766
11475SOL    HW237572   3.814   4.925   6.973 -0.7619  1.5954 -0.4283
11476SOL     OW37573   0.594   5.356   7.471 -0.0381  0.0693  0.5248
11476SOL    HW137574   0.663   5.318   7.417 -0.5059 -0.7848  0.5205
11476SOL    HW237575   0.522   5.293   7.468 -0.1526  0.0854  1.9853
11477SOL     OW37576   7.356   5.522   4.973  0.2332  0.0833 -0.3313
11477SOL    HW137577   7.313   5.530   5.058  0.5941 -0.4720 -0.0939
11477SOL    HW237578   7.292   5.555   4.910  1.0108  3.3472  0.4125
11478SOL     OW37579   7.757   2.535   4.128 -0.3081 -0.1140 -0.4360
11478SOL    HW137580   7.821   2.530   4.057 -0.0135  1.4881 -0.3111
11478SOL    HW237581   7.798   2.487   4.200  0.8101  0.9469 -0.3294
11479SOL     OW37582   0.107   1.421   7.104 -0.0402  0.1105  0.4903
11479SOL    HW137583   0.091   1.510   7.072  1.0197  0.5172  1.0014
11479SOL    HW237584   0.121   1.369   7.025  2.7881  1.1443  0.1879
11480SOL     OW37585   7.105   7.171   4.722  0.0975  0.6515 -0.5613
11480SOL    HW137586   7.168   7.177   4.650 -1.3209 -0.2138 -1.9365
11480SOL    HW237587   7.060   7.255   4.721 -1.6899 -0.2241 -2.4777
11481SOL     OW37588   0.426   0.994   6.131  0.0155  0.0865 -0.2396
11481SOL    HW137589   0.386   0.923   6.081  0.0286  0.8941 -1.4408
11481SOL    HW237590   0.353   1.048   6.159  0.0917  0.3255 -0.4916
11482SOL     OW37591   3.146   6.759   5.315  0.2855  0.3296  0.2165
11482SOL    HW137592   3.181   6.829   5.370  0.7431 -0.8809  1.5228
11482SOL    HW237593   3.054   6.752   5.341  0.2753  0.3464  0.1854
11483SOL     OW37594   6.833   1.780   5.520 -0.7246 -0.2545  0.3985
11483SOL    HW137595   6.895   1.733   5.464  0.5062  0.4762  1.1082
11483SOL    HW237596   6.775   1.712   5.554 -0.7523 -0.8627 -0.7879
11484SOL     OW37597   3.927   7.422   0.606  0.1678  0.0165  0.2889
11484SOL    HW137598   3.926   7.496   0.546  0.2353 -0.5539 -0.4419
11484SOL    HW237599   3.834   7.397   0.615  0.2042 -0.2677 -0.0686
11485SOL     OW37600   4.702   2.016   1.671  0.3047  0.6298 -0.0867
11485SOL    HW137601   4.752   2.077   1.726  1.3321 -0.0820 -0.1911
11485SOL    HW237602   4.734   2.032   1.582  0.9819 -0.4062 -0.0491
11486SOL     OW37603   6.646   6.965   7.455 -0.3162 -0.4843 -0.0961
11486SOL    HW137604   6.580   7.001   7.514 -0.5997  1.5542 -1.5635
11486SOL    HW237605   6.626   6.871   7.451 -1.7210 -0.2765  1.1940
11487SOL     OW37606   0.025   6.397   5.564  0.3062  0.0086 -0.0857
11487SOL    HW137607  -0.026   6.470   5.529  1.1765  0.5757 -0.2148
11487SOL    HW237608   0.113   6.412   5.530  0.6161 -0.8006  0.3483
11488SOL     OW37609   1.395   0.731   3.422  0.0393  0.4815 -0.4273
11488SOL    HW137610   1.350   0.650   3.446  0.1654  0.5171 -0.0771
11488SOL    HW237611   1.411   0.722   3.328  0.7783 -0.2565 -0.2395
11489SOL     OW37612   0.799   6.194   2.292 -0.1039  0.6478 -0.3472
11489SOL    HW137613   0.888   6.163   2.306 -0.3557 -0.4884 -1.1395
11489SOL    HW237614   0.785   6.184   2.198 -1.8320 -1.4027  0.0544
11490SOL     OW37615   1.221   0.536   0.164 -0.1624  0.3186  0.6289
11490SOL    HW137616   1.148   0.514   0.106 -0.2921 -0.0785  0.9459
11490SOL    HW237617   1.195   0.505   0.250  1.1692 -1.5760  0.4176
11491SOL     OW37618   3.774   0.442   2.981  0.1261  0.0655  0.1346
11491SOL    HW137619   3.736   0.363   2.944  0.5042 -0.2629  0.4375
11491SOL    HW237620   3.715   0.512   2.955 -0.3625 -0.3566  0.1049
11492SOL     OW37621   0.358   5.440   1.299  0.6825 -0.9171 -0.2146
11492SOL    HW137622   0.377   5.420   1.207 -0.3153 -0.4696 -0.5268
11492SOL    HW237623   0.291   5.377   1.324 -0.4059  0.1583 -0.3563
11493SOL     OW37624   4.669   3.601   7.218  0.3191  0.2688 -0.2122
11493SOL    HW137625   4.587   3.562   7.186 -0.5646  0.1832  1.9850
11493SOL    HW237626   4.660   3.694   7.198  0.1328  0.1262 -0.8398
11494SOL     OW37627   5.334   0.912   7.267 -0.4350  0.3128 -0.3510
11494SOL    HW137628   5.244   0.879   7.271  0.1666 -1.2827  1.7038
11494SOL    HW237629   5.334   0.988   7.325 -0.0381 -0.9075  1.2997
11495SOL     OW37630   2.689   5.437   4.271 -0.1109  0.2324 -0.1758
11495SOL    HW137631   2.696   5.344   4.247 -0.1424  0.2909 -0.4226
11495SOL    HW237632   2.644   5.477   4.196 -2.7222 -0.0451  1.1432
11496SOL     OW37633   6.964   0.096   1.178  0.0127  0.1195  0.6080
11496SOL    HW137634   6.888   0.042   1.200  0.5944 -0.5275  1.0707
11496SOL    HW237635   6.927   0.182   1.158 -0.8858 -0.3182  0.3195
11497SOL     OW37636   6.836   4.934   1.640 -0.2172 -0.3919 -0.2722
11497SOL    HW137637   6.847   5.006   1.578  1.5624  0.4529  0.9422
11497SOL    HW237638   6.874   4.858   1.597  0.1405 -0.0317 -0.6024
11498SOL     OW37639   6.693   5.931   5.815 -0.1026 -0.0811 -0.6381
11498SOL    HW137640   6.777   5.975   5.802 -0.1823  0.1975 -0.2307
11498SOL    HW237641   6.655   5.973   5.893 -0.3761 -0.5737 -0.4997
11499SOL     OW37642   2.809   3.130   2.594  0.3134 -0.3057  0.4615
11499SOL    HW137643   2.900   3.102   2.603  0.5691  0.2253 -0.3658
11499SOL    HW237644   2.802   3.205   2.653  0.1152 -0.9729  1.3122
11500SOL     OW37645   5.037   4.222   0.933  0.2274 -0.5806 -0.4785
11500SOL    HW137646   5.014   4.240   0.842  0.5362  1.4569 -0.1935
11500SOL    HW237647   5.131   4.239   0.938 -0.4071  3.8625  1.0845
11501SOL     OW37648   7.844   3.865   2.729  0.0696 -0.3624 -0.3659
11501SOL    HW137649   7.784   3.934   2.757  0.0658 -1.4494  2.6568
11501SOL    HW237650   7.893   3.904   2.656 -0.1507  2.7328  0.9685
11502SOL     OW37651   1.681   3.255   7.279  0.5136  0.1821 -0.6368
11502SOL    HW137652   1.675   3.160   7.266 -0.4614  0.0371  0.6652
11502SOL    HW237653   1.683   3.291   7.190 -0.4334 -0.9888 -1.1584
11503SOL     OW37654   3.046   2.104   1.748  0.2881  0.2474  0.4149
11503SOL    HW137655   3.038   2.160   1.825  0.4416  0.1982  0.4657
11503SOL    HW237656   2.972   2.043   1.755 -0.1436  0.7259  0.1277
11504SOL     OW37657   6.409   4.476   0.335  0.0697 -0.2696  0.2369
11504SOL    HW137658   6.502   4.481   0.359  0.3056  1.5989 -0.8621
11504SOL    HW237659   6.405   4.509   0.245 -1.3970 -2.4835 -0.6033
11505SOL     OW37660   3.609   2.696   6.366  0.2111  0.5037 -0.0166
11505SOL    HW137661   3.697   2.716   6.334 -0.1364  0.3122 -1.1649
11505SOL    HW237662   3.622   2.663   6.455  1.1937  1.4567  0.2100
11506SOL     OW37663   1.045   1.808   0.523 -0.1936  0.5555  0.1026
11506SOL    HW137664   1.091   1.724   0.525 -0.8468  0.1541 -0.8172
11506SOL    HW237665   0.998   1.807   0.440 -0.0889  1.9084  0.0044
11507SOL     OW37666   4.924   4.717   3.632  0.3563  0.2533 -0.1150
11507SOL    HW137667   5.001   4.665   3.610  0.1980  0.0845 -0.2683
11507SOL    HW237668   4.957   4.783   3.693  0.5217 -0.1438  0.2320
11508SOL     OW37669   2.949   5.833   0.645  0.4101 -0.6746 -0.0029
11508SOL    HW137670   3.011   5.906   0.652 -0.1505  0.2300 -3.1149
11508SOL    HW237671   2.863   5.873   0.657  0.2022 -1.4315  1.3241
11509SOL     OW37672   0.086   7.666   7.522  0.1449 -0.1045 -0.4068
11509SOL    HW137673   0.182   7.662   7.519  0.1657 -0.3958  0.4017
11509SOL    HW237674   0.060   7.579   7.551 -0.2771  0.4655  1.0152
11510SOL     OW37675   2.304   7.507   5.964 -0.3031 -0.2448  0.0817
11510SOL    HW137676   2.308   7.485   6.057  1.2531  0.0535  0.1256
11510SOL    HW237677   2.391   7.484   5.931 -0.0897  1.6167 -0.8264
11511SOL     OW37678   6.748   7.747   2.736 -0.0878 -0.3599  0.5009
11511SOL    HW137679   6.714   7.835   2.720 -0.1244 -0.4043  0.3377
11511SOL    HW237680   6.772   7.748   2.829  1.1042  0.2274  0.1988
11512SOL     OW37681   2.022   6.697   2.098  0.3939  0.5701 -0.2094
11512SOL    HW137682   1.978   6.781   2.089 -0.8305 -0.2112 -2.3785
11512SOL    HW237683   2.023   6.661   2.009 -1.1718 -2.6531  0.9088
11513SOL     OW37684   2.218   0.897   8.093 -0.2223 -0.7172 -0.2901
11513SOL    HW137685   2.231   0.976   8.040  1.5657 -0.5045  0.3766
11513SOL    HW237686   2.232   0.824   8.033 -1.0791 -0.5325 -0.7268
11514SOL     OW37687   6.137   6.686   5.148 -0.0596 -0.3360  0.3320
11514SOL    HW137688   6.203   6.752   5.127 -0.2135 -0.5788 -1.0040
11514SOL    HW237689   6.186   6.616   5.192  0.2876  0.1853  0.7823
11515SOL     OW37690   7.932   5.550   4.980 -0.1157  0.1070  0.0479
11515SOL    HW137691   7.956   5.458   4.987  2.3120  0.6755  0.1537
11515SOL    HW237692   7.955   5.587   5.066  2.3410  1.4360 -1.0806
11516SOL     OW37693   1.925   5.625   5.721 -0.2895  0.1320  0.2686
11516SOL    HW137694   1.940   5.655   5.810 -0.1882  0.7871  0.0377
11516SOL    HW237695   1.834   5.647   5.703 -0.1152  0.6414 -0.0246
11517SOL     OW37696   2.331   6.358   0.160  0.1900  0.5691  0.6778
11517SOL    HW137697   2.380   6.297   0.216 -1.0023 -0.6557  0.4408
11517SOL    HW237698   2.311   6.307   0.082 -0.5725  1.3841  0.3306
11518SOL     OW37699   1.423   7.308   3.956 -0.5578 -0.7262 -0.0689
11518SOL    HW137700   1.414   7.360   4.036 -0.7233 -1.7083  0.5736
11518SOL    HW237701   1.335   7.275   3.938 -0.9751  1.1496 -1.8656
11519SOL     OW37702   4.120   4.939   3.262  0.3707 -0.1300 -0.2754
11519SOL    HW137703   4.114   4.971   3.172 -0.3305  1.2055  0.2110
11519SOL    HW237704   4.182   4.998   3.304 -0.9828  0.7110  0.6601
11520SOL     OW37705   7.465   7.448   1.553 -0.0768 -0.3309  0.1707
11520SOL    HW137706   7.518   7.396   1.613 -1.5281 -2.9861 -0.6619
11520SOL    HW237707   7.415   7.507   1.609 -0.1052 -1.5156  1.4601
11521SOL     OW37708   1.545   0.991   7.655  0.2471 -0.3063  0.3338
11521SOL    HW137709   1.619   1.004   7.595 -0.0373 -0.6072 -0.0856
11521SOL    HW237710   1.490   0.926   7.612 -1.0851  1.0546 -0.1055
11522SOL     OW37711   7.854   4.357   4.666  0.7590 -0.1864 -0.5515
11522SOL    HW137712   7.800   4.282   4.639  1.9575 -0.8316 -1.2354
11522SOL    HW237713   7.795   4.432   4.659 -0.3516 -1.0069 -0.2540
11523SOL     OW37714   7.769   5.039   7.114 -0.1865 -0.3365 -0.4136
11523SOL    HW137715   7.845   5.025   7.170  0.2130 -1.2507 -1.1464
11523SOL    HW237716   7.802   5.020   7.025 -1.0143  0.2385 -0.8509
11524SOL     OW37717   1.186   4.469   1.148 -0.1634  0.2730 -0.1887
11524SOL    HW137718   1.267   4.441   1.104 -2.1308 -2.9878 -2.1597
11524SOL    HW237719   1.133   4.507   1.078 -1.0054  0.7571  0.6860
11525SOL     OW37720   1.899   3.697   7.748  0.0574  0.1100 -0.2508
11525SOL    HW137721   1.946   3.720   7.667 -0.5240  0.2368 -0.5578
11525SOL    HW237722   1.828   3.762   7.753 -0.6608 -0.6595 -0.2978
11526SOL     OW37723   5.215   3.065   2.612  0.2785 -0.7572 -0.4433
11526SOL    HW137724   5.172   3.002   2.671 -1.0414  1.2086  0.7946
11526SOL    HW237725   5.255   3.010   2.545  0.3934 -3.0078  1.3288
11527SOL     OW37726   1.372   0.491   5.090 -0.4247  0.2227  0.0243
11527SOL    HW137727   1.286   0.520   5.120 -0.5698  0.1861 -0.3496
11527SOL    HW237728   1.362   0.397   5.077 -0.3300  0.2196 -0.0237
11528SOL     OW37729   7.753   5.344   0.626  0.3788  0.0903  0.2110
11528SOL    HW137730   7.739   5.343   0.531  0.9977 -0.7012  0.1133
11528SOL    HW237731   7.738   5.254   0.654 -3.0381  0.8817  1.4224
11529SOL     OW37732   2.108   4.329   4.493 -0.0511  0.1242  0.5888
11529SOL    HW137733   2.102   4.387   4.569 -0.8069 -0.8731  1.3179
11529SOL    HW237734   2.024   4.284   4.490  0.2641 -0.4410 -0.3683
11530SOL     OW37735   7.102   1.224   3.080  0.1932  0.1331 -0.0978
11530SOL    HW137736   7.179   1.214   3.137  0.1022  1.1466  0.2229
11530SOL    HW237737   7.064   1.136   3.076  2.3100 -0.8141 -1.6572
11531SOL     OW37738   2.304   3.520   1.961  0.1272  0.3461  0.1720
11531SOL    HW137739   2.230   3.509   2.022  0.4019  1.3675  0.7172
11531SOL    HW237740   2.268   3.574   1.890 -0.0018 -0.2602 -0.2283
11532SOL     OW37741   7.545   2.239   0.217 -0.8330  0.3228  0.4587
11532SOL    HW137742   7.614   2.212   0.278 -1.0290 -3.5375 -0.7834
11532SOL    HW237743   7.591   2.259   0.136 -1.0309 -0.8721  0.0404
11533SOL     OW37744   2.025   5.953   1.018  0.1126 -0.2314  0.0728
11533SOL    HW137745   1.986   5.869   0.993  0.1079 -1.2348  3.1150
11533SOL    HW237746   1.987   5.973   1.103  3.8595  0.2683  1.8336
11534SOL     OW37747   3.092   2.684   7.658  0.0262 -0.1767  0.2051
11534SOL    HW137748   3.176   2.729   7.660 -0.4537  0.7232  1.0201
11534SOL    HW237749   3.074   2.671   7.565  0.2484  1.2199 -0.0642
11535SOL     OW37750   7.839   2.306   7.999 -0.0991 -0.1036 -0.0184
11535SOL    HW137751   7.864   2.398   7.985 -1.8928  0.2194 -1.4566
11535SOL    HW237752   7.867   2.287   8.089  0.5810  1.7472  0.2058
11536SOL     OW37753   1.141   0.859   3.926  0.1332  0.5245 -0.4196
11536SOL    HW137754   1.200   0.900   3.864  0.7457  0.1358 -0.1038
11536SOL    HW237755   1.174   0.770   3.936  0.7910  0.9245  1.3732
11537SOL     OW37756   3.492   6.160   7.031  0.1287  0.3618  0.4250
11537SOL    HW137757   3.494   6.157   7.127  0.5036  1.1310  0.4490
11537SOL    HW237758   3.445   6.080   7.006  0.0956  0.1092  1.2428
11538SOL     OW37759   2.532   1.624   4.280  0.4167  0.1119 -0.5984
11538SOL    HW137760   2.468   1.596   4.346  0.5511  0.3853 -0.3537
11538SOL    HW237761   2.548   1.545   4.228 -0.8445  0.2710 -1.2701
11539SOL     OW37762   1.318   7.897   0.116  0.2289 -0.1368  0.3561
11539SOL    HW137763   1.280   7.978   0.083 -0.7547 -0.1566  1.4062
11539SOL    HW237764   1.322   7.908   0.211  0.9465 -0.9608  0.4390
11540SOL     OW37765   5.565   0.633   0.163 -0.0278  0.3448 -0.4706
11540SOL    HW137766   5.568   0.543   0.131 -0.3664  0.5921 -1.2311
11540SOL    HW237767   5.502   0.630   0.235 -0.6132  0.1075 -0.9758
11541SOL     OW37768   7.977   7.906   1.165 -0.0017  0.0513 -0.4204
11541SOL    HW137769   8.053   7.948   1.204 -0.7057  0.8250  0.1420
11541SOL    HW237770   8.008   7.875   1.079  0.8484  0.6390 -0.3319
11542SOL     OW37771   1.050   2.858   3.489 -0.1370 -0.3051  0.1455
11542SOL    HW137772   1.016   2.910   3.562 -1.8332 -1.8377  0.5009
11542SOL    HW237773   1.038   2.915   3.412 -1.8391 -0.0592  0.5409
11543SOL     OW37774   0.444   6.177   1.965 -0.4903  0.2685 -0.8593
11543SOL    HW137775   0.348   6.177   1.970 -0.5274 -0.1952 -1.4147
11543SOL    HW237776   0.463   6.153   1.874  0.1534 -1.0691 -0.4032
11544SOL     OW37777   6.392   3.996   2.675 -0.1113 -0.7271  0.0093
11544SOL    HW137778   6.392   4.046   2.593 -0.4356  1.8739  1.4801
11544SOL    HW237779   6.314   4.026   2.722  0.5770 -1.4064  1.6883
11545SOL     OW37780   1.469   6.995   7.353  0.8991 -0.0613 -0.1639
11545SOL    HW137781   1.518   7.039   7.422  1.5094 -0.0857 -0.5661
11545SOL    HW237782   1.513   6.910   7.342  0.7392 -0.1054 -0.5003
11546SOL     OW37783   1.317   5.734   6.335  0.2546  0.0375  0.4372
11546SOL    HW137784   1.289   5.651   6.297  2.0371 -0.6260  0.4840
11546SOL    HW237785   1.284   5.732   6.425 -1.1938  0.1763 -0.0721
11547SOL     OW37786   4.771   2.084   6.488  0.2331  0.0215 -0.4961
11547SOL    HW137787   4.836   2.148   6.458 -0.5578  1.5468  0.8804
11547SOL    HW237788   4.687   2.127   6.473 -0.2724 -0.1152  1.6191
11548SOL     OW37789   4.312   6.870   0.232 -0.4573 -0.2490 -0.4576
11548SOL    HW137790   4.331   6.949   0.284  0.2601 -0.0700 -0.9759
11548SOL    HW237791   4.335   6.797   0.291  1.4590 -0.0410 -0.8813
11549SOL     OW37792   8.036   1.068   3.885 -0.2065 -0.3563  0.5148
11549SOL    HW137793   8.008   1.086   3.974 -0.5600 -1.2998  0.6050
11549SOL    HW237794   8.123   1.027   3.895  0.7479  1.5104  0.2973
11550SOL     OW37795   3.212   0.374   7.094  0.1564 -0.7749  0.0968
11550SOL    HW137796   3.277   0.332   7.151 -0.4641  0.7492  2.0293
11550SOL    HW237797   3.244   0.463   7.081 -0.1518 -0.8413 -1.2776
11551SOL     OW37798   4.663   2.934   1.961  0.5936  0.6114 -0.8862
11551SOL    HW137799   4.677   2.884   2.041 -0.4811  0.5984 -0.6884
11551SOL    HW237800   4.613   2.875   1.905 -1.7759  1.8392 -0.1810
11552SOL     OW37801   3.190   6.098   7.665 -0.1604  0.2373  0.0317
11552SOL    HW137802   3.170   6.136   7.580  0.9457  1.5288  0.3085
11552SOL    HW237803   3.286   6.103   7.671 -0.2478  0.6380  1.5282
11553SOL     OW37804   2.322   2.586   4.164 -0.2912  0.5920 -0.0820
11553SOL    HW137805   2.356   2.666   4.204 -0.8640  0.3111  1.0128
11553SOL    HW237806   2.230   2.605   4.146  0.3401  1.3911 -3.1444
11554SOL     OW37807   0.565   7.090   4.214 -0.0200  0.3757  0.0223
11554SOL    HW137808   0.612   7.075   4.132  0.4346 -1.8532  0.6424
11554SOL    HW237809   0.529   7.179   4.204  1.9523  1.0845 -1.6132
11555SOL     OW37810   5.339   2.287   0.357 -0.2608 -0.4453  0.0237
11555SOL    HW137811   5.300   2.208   0.394  0.6645 -0.9393 -0.0239
11555SOL    HW237812   5.293   2.359   0.400 -1.2209 -1.0037 -0.0494
11556SOL     OW37813   0.270   7.036   1.315 -0.0993  0.2044 -0.5288
11556SOL    HW137814   0.208   7.007   1.382  0.5107  0.5656  0.2149
11556SOL    HW237815   0.244   6.989   1.236 -0.5823 -0.5590  0.0649
11557SOL     OW37816   6.432   4.389   4.893  0.5475 -0.4959  0.4461
11557SOL    HW137817   6.381   4.401   4.813  1.3441  0.2712  0.0377
11557SOL    HW237818   6.501   4.328   4.869  1.0888  0.1276  0.4040
11558SOL     OW37819   1.597   0.202   3.116 -0.4509 -0.3483  0.7156
11558SOL    HW137820   1.519   0.153   3.091 -0.9037  0.2415  0.9286
11558SOL    HW237821   1.603   0.273   3.052  0.0714 -0.5527  0.5351
11559SOL     OW37822   5.802   7.721   4.096  0.3314  0.0797 -0.0879
11559SOL    HW137823   5.832   7.634   4.070 -1.1017 -0.8661  1.2202
11559SOL    HW237824   5.769   7.760   4.015 -0.2307 -1.1449 -0.4767
11560SOL     OW37825   7.558   3.687   7.288  0.0309 -0.2060  0.2081
11560SOL    HW137826   7.591   3.759   7.340  1.2320 -0.9763  0.5489
11560SOL    HW237827   7.568   3.610   7.343 -1.0140 -0.6887 -0.2343
11561SOL     OW37828   1.378   5.405   0.494  0.1736  0.2604  0.1509
11561SOL    HW137829   1.443   5.337   0.512 -1.5208 -0.9865  1.9920
11561SOL    HW237830   1.403   5.441   0.409 -0.7201 -5.0271 -2.7647
11562SOL     OW37831   5.282   0.773   5.848 -0.1542 -0.8913  0.5109
11562SOL    HW137832   5.237   0.761   5.764 -1.6980  0.4811  1.0894
11562SOL    HW237833   5.261   0.863   5.874  0.8036 -1.0881  2.0827
11563SOL     OW37834   1.806   5.755   2.453  0.7802 -0.2389 -0.2825
11563SOL    HW137835   1.732   5.724   2.504  0.4783  3.2668  1.7018
11563SOL    HW237836   1.872   5.686   2.463 -1.3615 -2.4630 -0.3497
11564SOL     OW37837   3.868   1.701   2.682  0.0696  0.1043  0.2663
11564SOL    HW137838   3.894   1.705   2.774  0.9225  0.1591  0.0342
11564SOL    HW237839   3.773   1.688   2.684  0.2670 -1.4362  1.1559
11565SOL     OW37840   7.032   1.144   5.549 -0.2485  0.1736 -0.0249
11565SOL    HW137841   7.018   1.224   5.498 -2.7789 -0.8142 -0.9977
11565SOL    HW237842   7.044   1.075   5.485 -2.0521 -0.8561  0.6752
11566SOL     OW37843   6.449   1.728   3.933 -0.7024 -0.5682  0.5457
11566SOL    HW137844   6.374   1.761   3.885  0.1624  0.8241  0.0991
11566SOL    HW237845   6.439   1.763   4.021 -0.4947 -0.2405  0.4403
11567SOL     OW37846   6.867   7.585   5.199  0.0214  0.0650 -0.3398
11567SOL    HW137847   6.954   7.593   5.159  0.3225 -0.3240  0.2407
11567SOL    HW237848   6.863   7.656   5.263  0.9128 -1.4324  1.4749
11568SOL     OW37849   7.254   2.882   1.239  0.3200  0.0825 -0.1004
11568SOL    HW137850   7.234   2.800   1.194  0.2580 -0.3330  0.6750
11568SOL    HW237851   7.348   2.876   1.257  0.3131  0.1791 -0.0345
11569SOL     OW37852   5.319   1.864   4.032  0.2772 -0.6736  0.4036
11569SOL    HW137853   5.302   1.839   4.123 -0.5025  0.4399  0.5826
11569SOL    HW237854   5.366   1.947   4.038  2.2019 -1.6548 -0.1949
11570SOL     OW37855   7.781   3.505   5.971  0.2463  0.1597  0.4199
11570SOL    HW137856   7.704   3.552   5.938  0.7413  2.1868  1.9591
11570SOL    HW237857   7.856   3.556   5.941  0.8636 -0.2167  1.2678
11571SOL     OW37858   1.795   2.303   5.194 -0.0489  0.3108 -0.0392
11571SOL    HW137859   1.763   2.304   5.284 -0.0948  1.5056 -0.0593
11571SOL    HW237860   1.769   2.387   5.157  0.7256  0.1972 -0.9021
11572SOL     OW37861   0.722   3.848   0.453  0.7370 -0.0569 -0.0709
11572SOL    HW137862   0.653   3.890   0.403 -0.9850 -2.3894  0.1660
11572SOL    HW237863   0.801   3.861   0.401 -0.4728  0.0106 -1.9858
11573SOL     OW37864   0.870   7.324   4.544 -0.5160  0.4668  0.1496
11573SOL    HW137865   0.879   7.253   4.607 -1.7557 -0.9124 -1.1387
11573SOL    HW237866   0.777   7.323   4.520 -0.1789  1.2747 -1.3020
11574SOL     OW37867   3.305   1.024   0.902 -0.4284 -0.2133 -0.7246
11574SOL    HW137868   3.385   1.074   0.885 -1.4386  1.4272 -0.8792
11574SOL    HW237869   3.332   0.933   0.896  1.7128  0.2603  0.4864
11575SOL     OW37870   2.927   5.145   1.481 -0.4662 -0.8539  0.0272
11575SOL    HW137871   2.934   5.076   1.547  0.7920 -0.9046 -0.1343
11575SOL    HW237872   2.913   5.225   1.532  1.2083 -0.7850  0.4401
11576SOL     OW37873   2.647   5.237   6.825  0.1868 -0.3230 -0.5240
11576SOL    HW137874   2.613   5.184   6.897  1.5874 -2.1307 -1.0928
11576SOL    HW237875   2.686   5.313   6.867 -1.4041  0.0231  0.3757
11577SOL     OW37876   3.978   2.393   2.609 -0.1408 -0.5287 -0.4053
11577SOL    HW137877   3.920   2.429   2.675  0.8434  1.2022 -0.4267
11577SOL    HW237878   4.053   2.452   2.608  1.5281 -2.5205 -0.5568
11578SOL     OW37879   0.976   5.739   3.321  0.3245 -0.2875  0.5656
11578SOL    HW137880   0.990   5.722   3.228 -2.0827 -0.5394  0.1872
11578SOL    HW237881   0.996   5.656   3.364  1.9704 -0.0253  0.3972
11579SOL     OW37882   0.049   7.840   0.854  0.1446 -0.0411  0.2808
11579SOL    HW137883   0.029   7.810   0.765 -3.9698 -0.6268  1.1905
11579SOL    HW237884   0.086   7.764   0.898  1.6283  0.0782 -0.6702
11580SOL     OW37885   7.708   1.332   7.268 -0.2000 -0.0841 -0.1684
11580SOL    HW137886   7.613   1.336   7.278 -0.1526 -1.8567  1.5541
11580SOL    HW237887   7.737   1.269   7.334  2.1341 -0.0019 -1.0086
11581SOL     OW37888   0.591   7.782   5.991  0.2546  0.4053 -0.3766
11581SOL    HW137889   0.585   7.873   6.017  2.6130  0.6261 -0.4017
11581SOL    HW237890   0.565   7.732   6.068 -0.9401  1.0672 -0.3328
11582SOL     OW37891   5.446   3.142   4.864  0.5469 -0.1452 -0.1033
11582SOL    HW137892   5.460   3.050   4.844 -0.4384 -0.6210  1.2437
11582SOL    HW237893   5.454   3.148   4.959 -1.0254  0.8245  0.0129
11583SOL     OW37894   3.577   4.175   1.667 -0.2662  0.1536 -0.3845
11583SOL    HW137895   3.548   4.091   1.702  3.8067 -0.5866  1.8845
11583SOL    HW237896   3.536   4.240   1.725 -0.1023 -0.6033  0.6203
11584SOL     OW37897   1.101   5.909   3.481  0.6500  0.2542 -0.1439
11584SOL    HW137898   1.039   5.954   3.538  0.1544 -0.4355 -0.1274
11584SOL    HW237899   1.047   5.861   3.419  1.1218 -1.1251  0.4653
11585SOL     OW37900   1.355   0.478   8.024  0.0748 -0.2310 -0.3449
11585SOL    HW137901   1.313   0.487   8.109 -0.6597  1.1159 -0.8113
11585SOL    HW237902   1.449   0.482   8.042 -0.0548  2.6415  0.2376
11586SOL     OW37903   2.134   6.281   5.582  0.0770  0.5039 -0.3097
11586SOL    HW137904   2.226   6.256   5.572  0.2214  0.4182  1.0171
11586SOL    HW237905   2.088   6.231   5.515  0.6536 -1.6281  0.7971
11587SOL     OW37906   7.710   0.372   4.045 -0.7247  0.4058 -0.5004
11587SOL    HW137907   7.720   0.427   4.123 -2.4855  0.4357 -0.2542
11587SOL    HW237908   7.681   0.287   4.080 -1.5576  0.4263 -1.1106
11588SOL     OW37909   3.420   4.313   6.488 -0.4787  0.1085 -0.0677
11588SOL    HW137910   3.337   4.353   6.514 -0.3885 -0.8903  1.9680
11588SOL    HW237911   3.397   4.226   6.458 -0.1741 -0.3198  0.8786
11589SOL     OW37912   4.651   4.009   5.901  0.0428  0.0137 -0.3194
11589SOL    HW137913   4.586   3.960   5.951 -0.0457 -2.6403 -2.8008
11589SOL    HW237914   4.732   3.998   5.951 -0.3716 -1.1125  0.1400
11590SOL     OW37915   7.699   4.039   2.885  0.2140  0.2823  0.7130
11590SOL    HW137916   7.724   4.042   2.977  2.2570 -1.7352  0.2997
11590SOL    HW237917   7.607   4.012   2.885  1.0617 -3.1022  2.1773
11591SOL     OW37918   0.472   5.327   4.517 -0.0327  0.0793  0.1807
11591SOL    HW137919   0.431   5.264   4.458 -1.8107 -0.0141  1.4112
11591SOL    HW237920   0.526   5.274   4.576 -1.7404 -0.4093  1.3898
11592SOL     OW37921   8.074   6.245   3.258 -0.2982  0.3637 -0.0336
11592SOL    HW137922   8.145   6.233   3.322  0.2236  0.3077 -0.6177
11592SOL    HW237923   8.054   6.338   3.262 -0.7027  0.2624  0.6547
11593SOL     OW37924   1.450   4.675   1.278 -0.0223  0.7905 -0.0181
11593SOL    HW137925   1.399   4.618   1.220  1.8843  2.3689 -3.5486
11593SOL    HW237926   1.393   4.749   1.296 -0.7174  0.1755  0.3780
11594SOL     OW37927   7.773   2.772   5.358 -0.1173 -0.2833  0.0128
11594SOL    HW137928   7.853   2.782   5.409  2.3651 -3.0573 -2.8923
11594SOL    HW237929   7.731   2.694   5.395 -2.1186  1.6807  2.1182
11595SOL     OW37930   7.865   4.003   1.311 -0.5815 -0.3610 -0.3746
11595SOL    HW137931   7.840   4.029   1.222 -1.4115 -1.3936 -0.4687
11595SOL    HW237932   7.940   3.945   1.299 -1.5493 -1.6467 -0.5617
11596SOL     OW37933   5.232   7.328   7.427 -0.0562 -0.1770  0.0900
11596SOL    HW137934   5.168   7.399   7.436 -0.2899 -0.3076 -0.5091
11596SOL    HW237935   5.269   7.340   7.340  1.4714  0.4882  0.7870
11597SOL     OW37936   4.716   8.030   0.723  0.0077 -0.2470 -0.0057
11597SOL    HW137937   4.744   8.117   0.695 -0.9584  0.1965  0.3735
11597SOL    HW237938   4.631   8.017   0.682  0.4231 -1.2903 -0.5867
11598SOL     OW37939   5.518   4.605   0.837 -0.6395 -0.2887  0.2511
11598SOL    HW137940   5.500   4.567   0.751 -1.7366  0.2261  0.2458
11598SOL    HW237941   5.548   4.531   0.890  0.7591 -0.4953 -0.7517
11599SOL     OW37942   7.176   4.796   1.404 -0.4700  0.2830  0.2420
11599SOL    HW137943   7.230   4.790   1.325 -0.4125 -1.3425  0.3682
11599SOL    HW237944   7.173   4.706   1.438 -2.3334  0.5345  0.8614
11600SOL     OW37945   4.514   5.678   7.181 -0.5240 -0.0231  0.0053
11600SOL    HW137946   4.520   5.773   7.195  0.5566 -0.3171  1.9819
11600SOL    HW237947   4.426   5.664   7.148 -1.3029  1.5253  1.2705
11601SOL     OW37948   7.590   2.425   3.884 -1.0267 -0.6693 -0.5512
11601SOL    HW137949   7.566   2.348   3.934  2.2671 -0.9197  0.9188
11601SOL    HW237950   7.686   2.424   3.882 -0.8621  2.6947 -1.5736
11602SOL     OW37951   7.834   6.851   3.373 -0.4633 -0.2140  0.0110
11602SOL    HW137952   7.846   6.913   3.301  1.6177  0.2319  0.6654
11602SOL    HW237953   7.837   6.905   3.452 -0.7185 -0.9220  0.5162
11603SOL     OW37954   5.650   6.965   3.201 -0.2144  0.9430 -0.3096
11603SOL    HW137955   5.691   6.989   3.117  1.0999 -1.7138 -0.5697
11603SOL    HW237956   5.718   6.983   3.266 -0.0227  0.0684 -0.2541
11604SOL     OW37957   3.797   2.220   3.202 -0.4426  0.8139 -0.1714
11604SOL    HW137958   3.818   2.142   3.150  2.0995  1.1941  0.1476
11604SOL    HW237959   3.741   2.272   3.145  0.4048  0.1711 -1.6653
11605SOL     OW37960   2.618   3.824   5.696 -0.0683 -0.1044  0.1684
11605SOL    HW137961   2.567   3.859   5.623  0.6852 -0.3120 -0.4760
11605SOL    HW237962   2.579   3.739   5.714 -0.6623  0.2216  0.4367
11606SOL     OW37963   0.142   4.122   3.667 -0.7720 -0.5149  0.1017
11606SOL    HW137964   0.130   4.027   3.663  0.2782 -0.6376 -1.6650
11606SOL    HW237965   0.204   4.141   3.596 -0.7663  1.4694  0.5669
11607SOL     OW37966   5.095   2.444   2.456 -0.0414  0.5408  0.3484
11607SOL    HW137967   5.111   2.533   2.486  1.9918 -0.0041  1.0261
11607SOL    HW237968   5.126   2.388   2.528  0.0237 -0.7215 -0.6205
11608SOL     OW37969   5.414   7.298   2.064 -0.0709 -0.2854  0.0888
11608SOL    HW137970   5.416   7.249   2.146  0.4751 -0.5156 -0.0587
11608SOL    HW237971   5.504   7.323   2.048 -0.2328  0.1040 -0.2399
11609SOL     OW37972   2.253   3.972   1.659  0.4313  0.7447 -0.1439
11609SOL    HW137973   2.180   4.016   1.702 -0.0694  0.5171 -0.7493
11609SOL    HW237974   2.248   3.881   1.689  0.7623  0.8302  0.1868
11610SOL     OW37975   6.588   4.030   4.394  0.9472 -0.1670 -0.0422
11610SOL    HW137976   6.607   3.946   4.354  1.8919  0.7352 -1.5719
11610SOL    HW237977   6.494   4.026   4.416  1.0040 -1.6205 -0.0193
11611SOL     OW37978   1.974   0.990   4.600 -0.0508 -1.0397  0.1433
11611SOL    HW137979   1.902   1.021   4.656 -0.0325 -1.3828  0.3548
11611SOL    HW237980   2.051   1.037   4.633 -0.6916  1.9717 -2.2222
11612SOL     OW37981   2.165   5.073   5.754  0.1870 -0.1576  0.6703
11612SOL    HW137982   2.245   5.022   5.749 -0.1629 -0.7276  0.7168
11612SOL    HW237983   2.125   5.045   5.837 -0.5389 -0.6248  0.1784
11613SOL     OW37984   3.326   0.712   2.385  0.0385 -0.3744  0.0601
11613SOL    HW137985   3.314   0.807   2.377  0.0157 -0.3234  0.6543
11613SOL    HW237986   3.365   0.686   2.301 -0.6458  0.0425 -0.3964
11614SOL     OW37987   5.310   7.410   6.488 -0.0913 -0.0975  0.5106
11614SOL    HW137988   5.370   7.335   6.494  0.5320  0.4494  1.2072
11614SOL    HW237989   5.363   7.485   6.516 -0.1602  0.9147 -1.8585
11615SOL     OW37990   3.822   2.535   1.787  0.1560  0.0007 -0.5914
11615SOL    HW137991   3.770   2.461   1.757 -0.2713  0.5590 -1.2557
11615SOL    HW237992   3.871   2.563   1.710 -0.6783  1.2263 -0.7021
11616SOL     OW37993   3.809   3.310   0.447 -0.1083 -0.4124 -0.4063
11616SOL    HW137994   3.773   3.223   0.463 -0.5301 -0.2248 -0.3145
11616SOL    HW237995   3.868   3.326   0.521 -1.6466  0.2358  0.7395
11617SOL     OW37996   1.305   4.628   5.315  0.5565 -0.2275 -0.1322
11617SOL    HW137997   1.329   4.567   5.385 -1.4064 -1.3544 -0.3824
11617SOL    HW237998   1.260   4.700   5.360 -2.3484 -1.8091 -0.2701
11618SOL     OW37999   0.904   5.577   7.518  0.2708 -0.2669  0.3872
11618SOL    HW138000   0.874   5.667   7.503 -0.7538 -0.1317  2.7903
11618SOL    HW238001   0.949   5.553   7.437 -0.8949  1.7913 -0.9645
11619SOL     OW38002   7.562   5.886   0.880 -0.0333  0.5930 -0.4769
11619SOL    HW138003   7.603   5.893   0.966 -2.1693  0.6184  0.6148
11619SOL    HW238004   7.541   5.793   0.871 -2.5701  0.9857  0.4889
11620SOL     OW38005   7.851   4.481   3.936  0.3492 -0.0092  0.0273
11620SOL    HW138006   7.818   4.408   3.884  1.2489 -1.5125  1.4983
11620SOL    HW238007   7.946   4.469   3.936  0.4873  1.0221  0.5129
11621SOL     OW38008   1.471   7.518   0.999 -0.3378 -0.2198 -0.3089
11621SOL    HW138009   1.379   7.533   0.978 -0.5039  0.0199  0.5631
11621SOL    HW238010   1.493   7.436   0.955 -1.8229 -1.9526  1.9810
11622SOL     OW38011   4.297   0.173   6.087  0.8596  0.2680 -0.1506
11622SOL    HW138012   4.297   0.253   6.034 -0.4117  1.1689  1.1239
11622SOL    HW238013   4.386   0.166   6.119  0.5696  2.3497  1.3247
11623SOL     OW38014   5.943   4.706   3.204  0.2426  0.0729  0.1284
11623SOL    HW138015   5.862   4.748   3.234  0.5164 -0.1505  1.2199
11623SOL    HW238016   5.919   4.661   3.124 -1.3312 -1.9728  1.6526
11624SOL     OW38017   1.684   6.238   4.986  0.9582 -0.7054  0.4063
11624SOL    HW138018   1.630   6.172   4.943  0.3157  1.1254 -1.7953
11624SOL    HW238019   1.773   6.204   4.979  0.6277 -1.4031 -0.6298
11625SOL     OW38020   5.394   3.476   7.390 -0.2442  0.6127 -0.5172
11625SOL    HW138021   5.414   3.566   7.418  1.2571 -0.1539  1.0916
11625SOL    HW238022   5.386   3.428   7.472 -1.8755 -0.5892 -1.3368
11626SOL     OW38023   0.346   1.918   7.005  0.6120  0.7729 -0.2599
11626SOL    HW138024   0.303   1.999   6.978  2.1528  1.3973 -0.9693
11626SOL    HW238025   0.355   1.867   6.924  0.2563  0.1870  0.0653
11627SOL     OW38026   1.063   0.857   3.504  0.6218  0.2622  0.8821
11627SOL    HW138027   1.052   0.792   3.574 -4.7552  0.1292  0.3469
11627SOL    HW238028   1.035   0.940   3.543  1.5136  1.0364 -0.0694
11628SOL     OW38029   1.050   4.246   7.208  0.5907  0.1303 -0.5086
11628SOL    HW138030   1.002   4.328   7.194  0.9159  0.4468  0.1995
11628SOL    HW238031   1.135   4.274   7.243  0.1857 -0.5807  1.1063
11629SOL     OW38032   4.008   6.697   7.161  0.4202 -0.4667 -0.0111
11629SOL    HW138033   4.096   6.687   7.198  0.6976 -0.0919 -0.5658
11629SOL    HW238034   4.010   6.645   7.081  0.6153  0.7508 -0.8162
11630SOL     OW38035   7.535   0.276   2.846  0.9471  0.3346  0.9535
11630SOL    HW138036   7.478   0.351   2.825  0.2569 -0.2440  0.7024
11630SOL    HW238037   7.475   0.210   2.881  0.4903 -2.2056 -3.8466
11631SOL     OW38038   7.959   5.676   5.254  0.0129 -0.0553  0.4476
11631SOL    HW138039   7.936   5.759   5.212 -0.1913  0.0062  0.6775
11631SOL    HW238040   8.041   5.694   5.300 -0.2295  0.1235  0.8090
11632SOL     OW38041   7.463   7.806   6.171 -0.4359 -0.0621  0.0791
11632SOL    HW138042   7.520   7.738   6.207 -1.3237 -1.4609 -1.0741
11632SOL    HW238043   7.391   7.812   6.234 -1.5928 -1.9653 -0.9641
11633SOL     OW38044   5.169   1.487   1.090  0.3679 -0.1175  0.0965
11633SOL    HW138045   5.100   1.533   1.043  0.3663 -1.0199 -0.8242
11633SOL    HW238046   5.249   1.508   1.043  0.4357 -0.6500 -0.0361
11634SOL     OW38047   0.222   7.157   0.932 -0.5866 -0.9938 -0.2002
11634SOL    HW138048   0.184   7.165   1.019 -1.4505 -1.2002 -0.5453
11634SOL    HW238049   0.316   7.148   0.947 -0.5267  0.7219  0.6161
11635SOL     OW38050   4.074   6.393   7.311  0.9765  0.6019  0.0045
11635SOL    HW138051   4.126   6.314   7.311 -1.3453 -1.2979 -4.5431
11635SOL    HW238052   4.119   6.452   7.251  0.4115  0.9398 -0.0976
11636SOL     OW38053   6.508   6.266   7.972  0.5232  0.0934  0.0073
11636SOL    HW138054   6.496   6.266   7.878  0.6883 -0.5130 -0.0190
11636SOL    HW238055   6.578   6.330   7.988  1.3367 -0.6683 -0.4044
11637SOL     OW38056   7.520   0.590   7.915 -0.0287  0.5314 -0.2070
11637SOL    HW138057   7.473   0.507   7.905  1.3045 -0.1966 -0.6407
11637SOL    HW238058   7.509   0.633   7.830  0.4901  0.1362 -0.4809
11638SOL     OW38059   4.755   6.116   6.576 -0.3373 -0.0709 -0.6920
11638SOL    HW138060   4.718   6.197   6.611 -2.1507 -1.3044  0.4052
11638SOL    HW238061   4.679   6.065   6.546  0.6847 -1.6051 -0.8175
11639SOL     OW38062   7.480   4.511   6.082 -0.4517  0.0209 -0.0597
11639SOL    HW138063   7.473   4.604   6.103 -0.2215 -0.0354  0.2843
11639SOL    HW238064   7.561   4.504   6.032 -0.3654 -0.0214  0.0847
11640SOL     OW38065   0.013   4.593   2.666  0.2622  0.3325 -0.4922
11640SOL    HW138066  -0.072   4.568   2.629  0.4926  0.9881 -1.5011
11640SOL    HW238067   0.060   4.632   2.592  1.4657 -0.0733  0.0437
11641SOL     OW38068   6.381   3.709   0.453  0.5327 -0.3084 -0.8757
11641SOL    HW138069   6.330   3.628   0.449  0.7604 -0.4867 -0.2375
11641SOL    HW238070   6.438   3.698   0.529  0.7149  0.3644 -0.9101
11642SOL     OW38071   7.792   8.010   7.723  0.0563 -0.0099 -0.9154
11642SOL    HW138072   7.859   8.000   7.790 -1.8555 -0.5328  1.0543
11642SOL    HW238073   7.818   8.088   7.674  1.3888  0.5747  0.6280
11643SOL     OW38074   3.756   1.389   4.542 -0.0326 -0.7477 -0.1693
11643SOL    HW138075   3.823   1.415   4.606 -1.7325  0.9312  1.0205
11643SOL    HW238076   3.770   1.449   4.468 -1.6150  1.2619  1.0545
11644SOL     OW38077   7.054   0.415   5.755 -0.2041 -0.0580  0.4040
11644SOL    HW138078   7.050   0.422   5.660  1.5227 -1.3292  0.1982
11644SOL    HW238079   6.965   0.436   5.784 -0.7945  0.2418 -1.4771
11645SOL     OW38080   6.527   2.962   6.940 -0.3822  0.1634  0.5010
11645SOL    HW138081   6.612   2.921   6.922 -0.0490  0.0991  2.1195
11645SOL    HW238082   6.468   2.889   6.953 -0.9865  0.1846 -1.6862
11646SOL     OW38083   3.625   2.677   4.349 -0.5166  0.2097 -0.0760
11646SOL    HW138084   3.597   2.684   4.258  0.2228 -0.1261 -0.3392
11646SOL    HW238085   3.549   2.703   4.400 -1.1301 -0.1776 -0.7763
11647SOL     OW38086   6.670   0.960   6.328  0.4840 -0.7440 -0.0320
11647SOL    HW138087   6.729   0.922   6.393  1.4614  0.0873 -0.4147
11647SOL    HW238088   6.607   1.011   6.379  1.2830 -0.0411  0.2658
11648SOL     OW38089   3.396   0.113   3.653 -0.1099 -0.1421 -0.1590
11648SOL    HW138090   3.424   0.177   3.588 -1.2691 -0.3560 -0.9162
11648SOL    HW238091   3.304   0.134   3.669 -0.0089 -0.4825  0.9591
11649SOL     OW38092   2.526   7.246   3.156  0.2191 -0.1486 -0.4257
11649SOL    HW138093   2.545   7.220   3.066  0.6270  1.0072 -0.6958
11649SOL    HW238094   2.502   7.165   3.200 -2.6923 -0.3898 -2.2220
11650SOL     OW38095   6.833   1.407   4.768 -0.5033 -0.1523  0.3422
11650SOL    HW138096   6.853   1.445   4.682 -0.9290  0.8110  0.6601
11650SOL    HW238097   6.746   1.440   4.790 -1.9830 -3.1616 -0.3959
11651SOL     OW38098   7.938   5.162   2.480 -0.1016 -0.2221  0.0481
11651SOL    HW138099   7.924   5.207   2.564  0.1861  0.5331 -0.2929
11651SOL    HW238100   7.928   5.069   2.500 -0.6301 -0.0122  0.7982
11652SOL     OW38101   5.198   3.583   4.422 -0.6039 -0.4806  0.1486
11652SOL    HW138102   5.254   3.509   4.397  0.0005  0.0225 -0.0200
11652SOL    HW238103   5.222   3.602   4.512 -0.4212 -0.1929  0.0411
11653SOL     OW38104   0.291   1.530   7.743  0.3977  0.2203  0.4117
11653SOL    HW138105   0.285   1.610   7.796 -2.6253 -0.5546  1.4623
11653SOL    HW238106   0.318   1.561   7.656 -0.2834  2.3614  0.8873
11654SOL     OW38107   3.649   4.977   5.758  0.6457 -0.1031  0.6354
11654SOL    HW138108   3.561   4.940   5.750  0.9230 -0.6691  0.0652
11654SOL    HW238109   3.635   5.064   5.796 -0.0871 -0.4865  1.2833
11655SOL     OW38110   2.058   0.033   6.434 -0.6349  0.1479 -0.6497
11655SOL    HW138111   2.036  -0.043   6.380 -0.1655 -2.0163  1.9715
11655SOL    HW238112   2.152   0.045   6.421 -0.6632  0.1219 -0.8813
11656SOL     OW38113   6.450   2.122   2.513 -0.6655 -0.0102 -0.6617
11656SOL    HW138114   6.494   2.037   2.507 -0.3169  0.0483  0.6521
11656SOL    HW238115   6.521   2.186   2.509 -0.7714  0.1476 -0.1242
11657SOL     OW38116   5.153   6.228   0.508  0.5781  0.1489 -0.0354
11657SOL    HW138117   5.169   6.141   0.473  1.6116  0.0699  0.5811
11657SOL    HW238118   5.216   6.284   0.462  0.5533  0.4023  0.2363
11658SOL     OW38119   6.299   1.886   2.878 -0.7733 -0.1415 -0.4846
11658SOL    HW138120   6.310   1.811   2.820  0.7216 -1.7079  1.6859
11658SOL    HW238121   6.235   1.858   2.943 -0.0862  0.4219  0.4503
11659SOL     OW38122   5.217   8.032   3.564 -0.0707 -0.0656  0.3082
11659SOL    HW138123   5.309   8.017   3.543  0.1044  1.4461 -0.0809
11659SOL    HW238124   5.170   7.983   3.497  0.4536 -0.2260  0.0501
11660SOL     OW38125   4.363   0.996   0.446 -0.4186  0.3724 -0.6093
11660SOL    HW138126   4.368   0.902   0.429 -1.8345  0.2127 -0.3050
11660SOL    HW238127   4.283   1.007   0.497 -1.1149  1.9212 -1.9255
11661SOL     OW38128   4.448   6.612   5.053  0.1197 -0.0263  0.3142
11661SOL    HW138129   4.366   6.602   5.005  0.5893  0.0294 -0.5078
11661SOL    HW238130   4.515   6.623   4.986  0.9705 -1.2082  0.9272
11662SOL     OW38131   0.455   1.248   4.016 -0.1897 -0.1470 -0.7937
11662SOL    HW138132   0.382   1.222   4.073  1.4060  0.0012  1.4190
11662SOL    HW238133   0.446   1.342   4.007 -0.2205 -0.1137 -0.4337
11663SOL     OW38134   6.023   0.571   3.285 -0.6198 -0.1364 -0.2258
11663SOL    HW138135   5.943   0.539   3.328 -1.2395  0.0131 -1.2427
11663SOL    HW238136   6.011   0.666   3.280 -0.3782 -0.1134 -0.3859
11664SOL     OW38137   1.237   3.562   6.439 -0.3070  0.2056  0.3058
11664SOL    HW138138   1.171   3.568   6.370  0.2772  1.1953 -0.1843
11664SOL    HW238139   1.304   3.503   6.404 -1.3163 -1.5187  1.1572
11665SOL     OW38140   3.612   5.979   7.340  0.2513 -0.7233 -0.7608
11665SOL    HW138141   3.672   6.054   7.345  0.5841 -1.0633  1.0165
11665SOL    HW238142   3.527   6.015   7.365  0.5838 -1.0647  1.0125
11666SOL     OW38143   0.194   3.906   4.102  0.2672 -0.0197  0.3839
11666SOL    HW138144   0.273   3.958   4.120  1.5736 -1.7479 -0.0638
11666SOL    HW238145   0.211   3.865   4.017 -1.5789  0.3647 -0.2018
11667SOL     OW38146   4.395   2.219   4.139 -0.2897  0.5724 -0.2954
11667SOL    HW138147   4.403   2.155   4.068 -0.8239  0.4289 -0.2268
11667SOL    HW238148   4.484   2.252   4.151 -0.4003  1.5906 -1.9548
11668SOL     OW38149   1.322   0.890   3.696 -0.4110  0.5469  0.1460
11668SOL    HW138150   1.386   0.830   3.660  0.0203  1.3630 -0.4728
11668SOL    HW238151   1.243   0.874   3.644 -0.4739  0.1094  0.3718
11669SOL     OW38152   2.767   1.920   1.492  0.3827 -0.7737 -0.3936
11669SOL    HW138153   2.710   1.860   1.445 -1.5217 -1.5441  2.6329
11669SOL    HW238154   2.718   2.002   1.496  0.4476 -0.7654  0.3615
11670SOL     OW38155   1.186   7.769   5.730 -0.0243  0.0411 -0.7338
11670SOL    HW138156   1.275   7.761   5.697  0.9412 -0.6458  1.8193
11670SOL    HW238157   1.134   7.713   5.672  1.2466  0.1273 -2.0181
11671SOL     OW38158   0.453   6.222   1.133 -0.3137  0.0229 -0.0679
11671SOL    HW138159   0.462   6.299   1.078  0.9578  0.1530  0.2959
11671SOL    HW238160   0.444   6.149   1.072  1.6386  0.0981 -0.4817
11672SOL     OW38161   4.799   5.064   0.691  0.0390 -0.3554 -0.4248
11672SOL    HW138162   4.710   5.030   0.685  0.2972 -0.8528 -1.7870
11672SOL    HW238163   4.838   5.045   0.606  2.1158 -2.0268  0.7871
11673SOL     OW38164   2.221   5.345   0.749  0.2612 -0.7266  0.7408
11673SOL    HW138165   2.153   5.334   0.815 -0.8289  0.5677 -0.1028
11673SOL    HW238166   2.215   5.265   0.696 -0.2233 -0.8849  1.0221
11674SOL     OW38167   1.710   3.918   6.944 -0.1412 -0.0654  0.0848
11674SOL    HW138168   1.637   3.947   6.999 -1.1025 -0.7914 -0.7746
11674SOL    HW238169   1.750   3.999   6.913 -0.2473  0.3440  0.9919
11675SOL     OW38170   6.345   7.134   5.763  0.1440 -0.2843 -0.0072
11675SOL    HW138171   6.310   7.063   5.816  0.9070 -0.0077  0.9110
11675SOL    HW238172   6.429   7.102   5.731 -0.4903 -0.5968 -1.4120
11676SOL     OW38173   2.056   3.295   5.610  0.2705 -0.0225 -0.0091
11676SOL    HW138174   1.971   3.252   5.609  0.1363  0.2468 -0.0962
11676SOL    HW238175   2.044   3.373   5.664  0.2461  0.4421 -0.6648
11677SOL     OW38176   5.979   2.363   5.922 -0.1924  0.3397  0.1167
11677SOL    HW138177   6.003   2.405   5.840  0.3201  1.9115  1.0280
11677SOL    HW238178   6.036   2.286   5.927 -0.6959 -0.1705 -1.2752
11678SOL     OW38179   7.563   2.697   3.806  0.1290 -0.0115 -0.6332
11678SOL    HW138180   7.634   2.707   3.742  0.2771 -0.8613 -0.6162
11678SOL    HW238181   7.536   2.605   3.798 -0.1421 -0.0174  0.2290
11679SOL     OW38182   7.133   7.088   2.055  1.1514 -0.2803 -0.1876
11679SOL    HW138183   7.220   7.123   2.035  1.2534 -1.8974 -3.0508
11679SOL    HW238184   7.072   7.154   2.022  1.0489  2.0069  3.9040
11680SOL     OW38185   6.134   2.057   2.122  0.1925  0.0384  0.4095
11680SOL    HW138186   6.203   2.122   2.137 -1.3809  2.1097 -0.8018
11680SOL    HW238187   6.083   2.057   2.203 -0.8839  1.7985 -0.1982
11681SOL     OW38188   1.999   5.772   0.173 -0.2586 -0.4047 -0.0888
11681SOL    HW138189   2.048   5.851   0.149  0.5839 -0.6698  0.6969
11681SOL    HW238190   1.909   5.802   0.185 -0.1573  0.2322 -0.8349
11682SOL     OW38191   7.582   1.646   2.442 -0.5479  0.0386  0.1335
11682SOL    HW138192   7.491   1.637   2.413 -0.2590 -2.9779 -0.1791
11682SOL    HW238193   7.629   1.678   2.365 -0.9699 -0.8856 -0.5299
11683SOL     OW38194   5.623   3.340   4.772 -0.0598 -0.0124  0.3578
11683SOL    HW138195   5.652   3.288   4.698 -0.3153  0.9459 -0.4334
11683SOL    HW238196   5.563   3.283   4.820 -1.8181  0.1414 -1.5444
11684SOL     OW38197   5.013   2.886   3.062  0.3667  0.3384  0.3883
11684SOL    HW138198   5.092   2.868   3.113 -0.1228  1.4436  1.6090
11684SOL    HW238199   4.967   2.954   3.112 -1.5207 -0.4883 -0.1225
11685SOL     OW38200   2.878   7.736   5.392 -0.4239 -0.4732  0.3367
11685SOL    HW138201   2.806   7.799   5.397  0.7986  0.9813  0.4041
11685SOL    HW238202   2.850   7.663   5.448 -1.8854 -0.0182  0.2516
11686SOL     OW38203   4.575   1.372   3.126  0.1333 -0.0886  0.0821
11686SOL    HW138204   4.655   1.336   3.163 -0.9164 -0.5448  2.0550
11686SOL    HW238205   4.510   1.363   3.196 -1.3577  1.3111 -1.0432
11687SOL     OW38206   3.158   2.384   0.958  0.2045  0.2569 -0.2244
11687SOL    HW138207   3.195   2.378   1.046  1.7645 -0.8947 -0.9187
11687SOL    HW238208   3.063   2.376   0.972  0.3961  0.3610  1.3581
11688SOL     OW38209   1.937   6.896   0.549 -0.5855 -0.3661  0.2413
11688SOL    HW138210   1.849   6.931   0.535 -0.4202  0.3050  0.8189
11688SOL    HW238211   1.938   6.814   0.500 -0.9557  0.4607 -1.2174
11689SOL     OW38212   0.873   5.651   2.456 -0.1211 -0.2867  0.2083
11689SOL    HW138213   0.872   5.644   2.552  1.4865 -1.8072  0.1781
11689SOL    HW238214   0.829   5.571   2.426 -2.1617  0.9927 -0.3769
11690SOL     OW38215   4.885   3.835   7.031 -0.3292 -0.9376  0.1651
11690SOL    HW138216   4.798   3.807   7.001 -0.2257 -1.6375  0.5109
11690SOL    HW238217   4.940   3.758   7.021  0.1416 -0.6366  0.4080
11691SOL     OW38218   3.705   4.128   6.886  0.2626 -0.3474  0.0839
11691SOL    HW138219   3.633   4.070   6.863  1.0102 -1.0066 -0.6890
11691SOL    HW238220   3.703   4.196   6.819  0.6042 -0.6037 -0.1938
11692SOL     OW38221   4.257   3.261   4.242 -0.3791  0.2487 -0.2469
11692SOL    HW138222   4.210   3.210   4.308 -1.1137 -0.5731 -1.3789
11692SOL    HW238223   4.243   3.214   4.160  0.8378  1.0362 -0.9433
11693SOL     OW38224   5.684   7.250   7.919 -0.4098 -0.1476 -0.3871
11693SOL    HW138225   5.680   7.341   7.947  1.1046 -0.0731 -0.3336
11693SOL    HW238226   5.744   7.209   7.982 -1.4807 -1.3154 -0.0840
11694SOL     OW38227   7.693   7.833   0.379  0.0440  0.8594  0.4734
11694SOL    HW138228   7.734   7.908   0.422  1.3471  0.5352 -0.1249
11694SOL    HW238229   7.616   7.868   0.335  2.4597  2.6650 -2.7513
11695SOL     OW38230   0.915   4.596   6.337  0.8615  0.1527  0.0584
11695SOL    HW138231   0.922   4.503   6.356 -0.1126 -0.2075 -1.1835
11695SOL    HW238232   1.000   4.621   6.301  0.7009 -0.5770 -0.8512
11696SOL     OW38233   4.122   0.391   3.150  0.0024  0.1596  0.3928
11696SOL    HW138234   4.206   0.376   3.194  0.2616  0.7861  0.1294
11696SOL    HW238235   4.067   0.431   3.217  0.2357  0.6521  0.2967
11697SOL     OW38236   3.911   0.969   4.789 -0.3732  0.0839 -0.0363
11697SOL    HW138237   3.859   1.024   4.730 -1.3947 -1.6095 -0.7816
11697SOL    HW238238   3.934   0.892   4.736  0.2036 -0.6631  1.2543
11698SOL     OW38239   0.758   1.108   4.313  0.2326 -0.2778  0.1621
11698SOL    HW138240   0.763   1.125   4.219  2.0771 -1.5809 -0.0260
11698SOL    HW238241   0.825   1.165   4.351  1.3460 -1.6546  0.3451
11699SOL     OW38242   3.407   4.260   6.164  0.1339 -0.2911 -0.0809
11699SOL    HW138243   3.342   4.320   6.199 -0.6072 -1.0847 -0.0820
11699SOL    HW238244   3.364   4.175   6.162  0.6658 -0.5560 -1.4943
11700SOL     OW38245   0.203   5.713   0.451  0.0292 -0.5733  0.1231
11700SOL    HW138246   0.149   5.648   0.407  0.9989 -0.3839 -1.4223
11700SOL    HW238247   0.238   5.767   0.380  1.7342 -0.3094  1.1144
11701SOL     OW38248   5.203   3.211   1.878 -0.0330 -0.3942  0.3776
11701SOL    HW138249   5.212   3.246   1.966 -2.6988 -1.0905  1.0330
11701SOL    HW238250   5.253   3.130   1.879  0.9324  0.1921  0.8519
11702SOL     OW38251   5.122   5.067   7.277  0.3576  0.1900  0.4953
11702SOL    HW138252   5.165   4.990   7.313  1.4648  0.7095  0.3272
11702SOL    HW238253   5.099   5.042   7.188 -2.4211 -1.1136  1.4655
11703SOL     OW38254   6.442   6.578   1.898  0.5708 -0.3236  0.1669
11703SOL    HW138255   6.375   6.546   1.837  0.1014  1.3363 -0.2427
11703SOL    HW238256   6.393   6.628   1.964  1.2912 -0.1399  0.5753
11704SOL     OW38257   7.849   4.288   2.060 -0.7553  0.8594  0.0560
11704SOL    HW138258   7.888   4.364   2.104 -0.7331  1.0078 -0.2203
11704SOL    HW238259   7.755   4.300   2.070 -0.7594  1.0694 -0.2336
11705SOL     OW38260   7.172   7.544   5.644 -0.2680 -0.0434 -0.0169
11705SOL    HW138261   7.112   7.485   5.689 -0.6540 -0.1276 -0.6192
11705SOL    HW238262   7.152   7.531   5.551 -0.2858  0.9527 -0.1669
11706SOL     OW38263   2.702   5.737   2.547 -0.0073 -0.2498  0.0187
11706SOL    HW138264   2.702   5.731   2.642 -0.0060  1.3849  0.1474
11706SOL    HW238265   2.627   5.792   2.526 -1.4196 -2.4392 -1.1095
11707SOL     OW38266   1.733   4.952   1.898 -0.1696 -0.3933  0.2025
11707SOL    HW138267   1.798   4.890   1.864  1.6683  1.0283  0.9413
11707SOL    HW238268   1.734   4.938   1.993 -0.6115 -0.0378  0.2611
11708SOL     OW38269   6.212   7.410   0.813  0.1964  0.1641  0.4059
11708SOL    HW138270   6.298   7.448   0.832 -0.0086  0.6521  0.3655
11708SOL    HW238271   6.175   7.465   0.745 -0.6027  0.6248  1.1826
11709SOL     OW38272   5.726   2.216   2.784  0.2379 -0.0699 -0.4971
11709SOL    HW138273   5.634   2.189   2.786  0.7057 -1.7696  1.3368
11709SOL    HW238274   5.767   2.157   2.721  0.3596 -0.3855 -0.1251
11710SOL     OW38275   4.637   7.941   7.612 -0.0655  0.8978  0.1511
11710SOL    HW138276   4.606   8.029   7.588  1.7729  1.4107 -0.4919
11710SOL    HW238277   4.558   7.887   7.607 -0.8757  2.1206 -1.4186
11711SOL     OW38278   7.263   2.629   1.092 -0.1212  0.2222  0.2796
11711SOL    HW138279   7.315   2.581   1.027 -0.2677 -1.1567  1.1361
11711SOL    HW238280   7.183   2.653   1.046 -0.9252 -2.1128  0.3094
11712SOL     OW38281   0.341   1.310   2.384 -0.3500  0.0322 -0.6391
11712SOL    HW138282   0.342   1.243   2.316  1.1763 -1.2424  0.5280
11712SOL    HW238283   0.261   1.292   2.434 -0.4144 -0.3637 -0.8757
11713SOL     OW38284   6.234   2.578   0.347 -0.3012 -0.2234 -0.2843
11713SOL    HW138285   6.228   2.502   0.404 -0.7330 -0.6315 -0.8569
11713SOL    HW238286   6.290   2.640   0.394 -2.1563  0.2388  1.4360
11714SOL     OW38287   3.138   5.145   3.213  0.1630  0.3667  0.4201
11714SOL    HW138288   3.174   5.062   3.183  0.5393  0.8412 -0.4691
11714SOL    HW238289   3.057   5.155   3.163 -0.8929 -0.3697  1.9162
11715SOL     OW38290   5.824   6.153   5.590 -0.2747  0.1793  0.2257
11715SOL    HW138291   5.866   6.148   5.676  2.0407  3.8583 -0.4687
11715SOL    HW238292   5.883   6.107   5.531 -0.7499 -0.4757  0.2526
11716SOL     OW38293   5.807   6.294   2.832 -0.2826  0.6126 -0.1859
11716SOL    HW138294   5.742   6.294   2.902  0.4872 -0.9730  0.5832
11716SOL    HW238295   5.822   6.387   2.813 -1.0302  1.0553  1.2688
11717SOL     OW38296   0.024   7.084   6.175 -0.5216  0.4136  0.0513
11717SOL    HW138297  -0.070   7.091   6.159 -0.6869 -0.2967  0.6733
11717SOL    HW238298   0.054   7.015   6.116 -0.7330 -0.6482  1.1493
11718SOL     OW38299   7.536   3.956   8.031 -0.1069 -0.0303 -0.2091
11718SOL    HW138300   7.555   4.022   8.097  0.5584 -2.2135  1.9451
11718SOL    HW238301   7.576   3.989   7.951  1.1088  1.6781  1.0417
11719SOL     OW38302   5.638   3.729   5.431  0.0164  0.2317  0.4257
11719SOL    HW138303   5.699   3.737   5.504 -2.6795 -0.0960  2.8820
11719SOL    HW238304   5.612   3.637   5.430  2.0828 -0.4852 -2.9141
11720SOL     OW38305   7.159   5.453   7.019  0.4103  0.4974  0.3364
11720SOL    HW138306   7.066   5.463   7.041  0.3608  0.2161  0.2642
11720SOL    HW238307   7.180   5.364   7.049  1.3188  1.4587  2.7767
11721SOL     OW38308   6.896   5.163   1.843 -0.6286  0.0971 -0.5163
11721SOL    HW138309   6.835   5.098   1.809 -0.3971 -2.0082  2.6919
11721SOL    HW238310   6.976   5.149   1.793 -1.4735  0.0646 -1.9295
11722SOL     OW38311   1.487   6.736   0.356 -0.1080  0.0879  0.5006
11722SOL    HW138312   1.535   6.743   0.273  0.5512 -0.6389  0.8020
11722SOL    HW238313   1.474   6.642   0.368  0.3127  0.1453  1.4989
11723SOL     OW38314   7.925   1.723   5.615  0.1842  0.0573  0.1631
11723SOL    HW138315   7.890   1.651   5.562 -0.0411  0.1416  0.1960
11723SOL    HW238316   8.002   1.686   5.658 -1.2762 -0.9268  2.0790
11724SOL     OW38317   6.093   7.208   7.079  0.3120 -0.2121  0.0608
11724SOL    HW138318   6.027   7.181   7.143  1.0999  1.8321  1.8630
11724SOL    HW238319   6.129   7.126   7.045 -2.4586 -1.3924 -0.3101
11725SOL     OW38320   4.493   7.312   1.363 -0.6547  0.0456  0.2581
11725SOL    HW138321   4.580   7.291   1.399 -0.2391  0.6999 -0.3537
11725SOL    HW238322   4.436   7.316   1.440 -0.2256 -0.7622  0.6298
11726SOL     OW38323   3.657   7.227   0.271 -0.3111 -0.9575 -0.4978
11726SOL    HW138324   3.578   7.266   0.234 -0.1059 -0.3950 -0.3598
11726SOL    HW238325   3.628   7.185   0.352  0.3227  4.1074  2.7731
11727SOL     OW38326   2.786   5.422   7.415  0.2381 -0.3886 -0.1376
11727SOL    HW138327   2.872   5.450   7.445  0.1946  0.3331 -0.6690
11727SOL    HW238328   2.782   5.448   7.323 -0.9637  0.6200  0.1655
11728SOL     OW38329   4.780   2.589   5.214  0.1187 -0.0242 -0.9298
11728SOL    HW138330   4.753   2.650   5.283  1.5802 -0.6998  0.3273
11728SOL    HW238331   4.698   2.552   5.181 -0.6361  0.0274  0.7576
11729SOL     OW38332   1.737   4.684   4.091 -0.1166  0.0793  0.3905
11729SOL    HW138333   1.685   4.731   4.026  0.1818 -0.2064 -0.0559
11729SOL    HW238334   1.783   4.617   4.042 -0.1855 -0.3903  0.9561
11730SOL     OW38335   1.976   6.420   1.483  0.4944  0.4872 -0.9503
11730SOL    HW138336   1.955   6.513   1.483  0.0992  0.4104  0.2133
11730SOL    HW238337   1.891   6.376   1.485  0.6759  0.0970 -1.6483
11731SOL     OW38338   7.023   0.956   3.822 -0.4610  0.3212  0.1958
11731SOL    HW138339   6.950   1.006   3.786 -0.6770 -0.6246 -0.7405
11731SOL    HW238340   6.999   0.865   3.807  0.4630 -0.0316  0.7764
11732SOL     OW38341   5.067   6.383   3.256  0.0577  0.3957  0.1677
11732SOL    HW138342   5.088   6.328   3.180  0.0180 -0.6201  0.8821
11732SOL    HW238343   4.977   6.360   3.278 -0.0319  0.9064  0.3558
11733SOL     OW38344   0.109   2.407   3.021  0.7312 -0.7407  0.1370
11733SOL    HW138345   0.057   2.424   3.099 -2.2822 -2.9922 -1.1553
11733SOL    HW238346   0.102   2.487   2.969 -2.2243 -1.1586 -0.2768
11734SOL     OW38347   4.430   0.407   0.771 -0.0528 -0.1281  0.3033
11734SOL    HW138348   4.512   0.382   0.812 -0.2439 -0.8454  0.2488
11734SOL    HW238349   4.363   0.358   0.819 -0.3062 -0.7690 -0.6863
11735SOL     OW38350   5.424   1.235   4.188  0.2414  0.0106 -0.0544
11735SOL    HW138351   5.473   1.173   4.134  2.0908 -1.6933  3.3052
11735SOL    HW238352   5.488   1.303   4.210  0.4414 -0.8812  2.3072
11736SOL     OW38353   3.505   0.585   2.614  0.1015 -0.3034  0.3294
11736SOL    HW138354   3.457   0.615   2.537  0.9662 -1.3844 -0.6840
11736SOL    HW238355   3.494   0.490   2.613  1.2037 -0.4543  0.7744
11737SOL     OW38356   4.383   4.871   1.839 -0.2184  0.9540  0.3564
11737SOL    HW138357   4.326   4.804   1.801 -1.1570  1.0012  1.5937
11737SOL    HW238358   4.357   4.874   1.931  1.5252  1.2910  0.8660
11738SOL     OW38359   3.012   3.714   3.158 -0.1405  0.8424  0.3819
11738SOL    HW138360   3.028   3.620   3.165 -0.1815  0.7305 -0.7961
11738SOL    HW238361   2.920   3.725   3.181 -0.0193  0.6561  0.9639
11739SOL     OW38362   1.131   0.720   6.211 -0.3296  0.3092 -0.2746
11739SOL    HW138363   1.205   0.758   6.163  1.4840  1.3458  3.0059
11739SOL    HW238364   1.094   0.794   6.260 -1.3599 -0.8270  0.7502
11740SOL     OW38365   1.169   5.812   6.619  0.2479 -0.1704 -0.1510
11740SOL    HW138366   1.107   5.859   6.675  0.8738  1.3995 -0.6961
11740SOL    HW238367   1.116   5.748   6.572 -0.2448 -1.7707  2.4275
11741SOL     OW38368   7.607   0.139   7.852 -0.4426  0.0617  0.3968
11741SOL    HW138369   7.646   0.210   7.801 -0.1684 -0.3290  0.0542
11741SOL    HW238370   7.648   0.060   7.818 -0.3063 -0.2137  1.1897
11742SOL     OW38371   7.792   6.749   5.195  0.2022 -0.7072  0.1455
11742SOL    HW138372   7.698   6.736   5.185  0.2885 -0.8156 -0.5646
11742SOL    HW238373   7.812   6.825   5.141  0.8925 -2.0789 -1.6314
11743SOL     OW38374   1.977   1.873   0.207 -0.0164 -0.2688 -0.0001
11743SOL    HW138375   1.997   1.922   0.127  1.6253  0.5043  0.8354
11743SOL    HW238376   1.886   1.892   0.225 -0.1217  0.3675 -1.1351
11744SOL     OW38377   0.866   6.085   1.230 -0.3465  0.0984  0.4693
11744SOL    HW138378   0.840   6.069   1.321  0.6064 -1.5092  0.4846
11744SOL    HW238379   0.933   6.153   1.237  0.8239 -1.0758  1.1569
11745SOL     OW38380   5.670   4.544   2.566  0.5955 -0.5581  0.3267
11745SOL    HW138381   5.707   4.612   2.622  1.4247 -0.8899  0.2063
11745SOL    HW238382   5.581   4.532   2.598 -0.3056  1.9907 -0.9296
11746SOL     OW38383   0.965   2.125   1.458 -0.2024 -0.2364 -0.1515
11746SOL    HW138384   0.967   2.191   1.389 -1.4417 -0.8986 -0.8385
11746SOL    HW238385   0.896   2.154   1.518 -1.2134 -1.2379 -0.8103
11747SOL     OW38386   0.284   6.040   0.594  0.5544  0.1625  0.1957
11747SOL    HW138387   0.334   6.098   0.537  0.8585  1.6903  1.9232
11747SOL    HW238388   0.251   6.097   0.663 -0.4621 -1.4751  1.1282
11748SOL     OW38389   0.773   4.388   4.586 -0.2473  0.3262 -0.2344
11748SOL    HW138390   0.799   4.474   4.620  1.6118 -0.4568  0.4922
11748SOL    HW238391   0.682   4.400   4.558 -0.3684  2.2512  0.7615
11749SOL     OW38392   6.214   6.157   0.402 -0.1269  0.5334 -0.2372
11749SOL    HW138393   6.263   6.097   0.347 -2.5835 -0.2076 -1.7710
11749SOL    HW238394   6.210   6.114   0.487 -0.5485 -0.7867 -0.8956
11750SOL     OW38395   2.583   3.979   1.722 -0.3950 -0.2465  0.2465
11750SOL    HW138396   2.640   3.927   1.666  0.0083  1.0066 -0.5518
11750SOL    HW238397   2.504   3.926   1.731 -0.5313 -0.4569 -1.6475
11751SOL     OW38398   6.476   7.699   1.552 -0.4708 -0.1064 -0.0413
11751SOL    HW138399   6.381   7.687   1.558 -0.4015 -0.6782 -0.1210
11751SOL    HW238400   6.487   7.762   1.480 -0.7491 -0.6646 -0.5854
11752SOL     OW38401   3.282   7.485   1.729 -0.0529  0.7120  0.2402
11752SOL    HW138402   3.369   7.480   1.689  0.3283 -1.9145  1.2661
11752SOL    HW238403   3.298   7.518   1.818 -0.2354  1.0162  0.1644
11753SOL     OW38404   1.226   7.916   5.293 -0.7325  0.4031 -0.1168
11753SOL    HW138405   1.161   7.895   5.226 -1.1049 -2.3370  0.9719
11753SOL    HW238406   1.175   7.937   5.370 -0.3350  0.0482  0.2485
11754SOL     OW38407   5.621   4.949   6.181 -0.0845  0.2384 -0.1199
11754SOL    HW138408   5.570   4.994   6.114  0.6751  0.5404 -0.5035
11754SOL    HW238409   5.586   4.982   6.264 -1.0807 -0.1957 -0.3444
11755SOL     OW38410   4.407   5.763   2.952  0.1629  0.0437 -0.2340
11755SOL    HW138411   4.357   5.731   3.028  0.0179 -0.5158 -0.5605
11755SOL    HW238412   4.359   5.729   2.876 -1.0643  2.5576 -0.6704
11756SOL     OW38413   7.712   3.332   6.974  0.2043  0.2050 -0.5489
11756SOL    HW138414   7.648   3.393   6.937  0.2223  1.5729  1.5147
11756SOL    HW238415   7.664   3.284   7.041  1.2073  1.0596  0.8421
11757SOL     OW38416   4.295   4.471   3.431 -0.3154  0.2197 -0.4507
11757SOL    HW138417   4.249   4.494   3.350 -0.1802  0.1101 -0.5594
11757SOL    HW238418   4.363   4.537   3.440  0.8163 -0.7764 -1.3749
11758SOL     OW38419   0.207   2.350   2.721 -0.3016  0.9356 -0.3517
11758SOL    HW138420   0.297   2.362   2.694 -0.6615  0.9854 -1.5636
11758SOL    HW238421   0.213   2.304   2.805  0.7932 -2.4942 -2.1571
11759SOL     OW38422   3.916   5.998   7.088  0.4495 -0.2437 -0.1896
11759SOL    HW138423   3.865   6.075   7.114 -0.8151 -1.1056 -0.0563
11759SOL    HW238424   3.943   5.958   7.171 -0.3898 -0.9130 -0.2360
11760SOL     OW38425   1.625   6.568   4.925  0.0582  0.5425 -0.2582
11760SOL    HW138426   1.665   6.500   4.870  0.3982  0.7660 -0.2885
11760SOL    HW238427   1.670   6.649   4.901 -2.5594  1.4415 -2.5878
11761SOL     OW38428   2.615   5.947   5.971  0.4556 -0.0575  0.8728
11761SOL    HW138429   2.607   5.938   5.876  1.5170 -1.2868  0.8794
11761SOL    HW238430   2.698   5.905   5.993 -1.1412 -2.5885  2.6998
11762SOL     OW38431   7.255   3.791   2.019  0.1633 -0.2655  0.0009
11762SOL    HW138432   7.302   3.718   2.061  0.3292  0.3531  0.9189
11762SOL    HW238433   7.185   3.749   1.970 -0.3578 -1.0122  1.3189
11763SOL     OW38434   7.199   5.836   0.187 -0.5605 -0.0977  0.2688
11763SOL    HW138435   7.251   5.763   0.220  1.2603  1.4583  1.0582
11763SOL    HW238436   7.139   5.858   0.259 -2.0165 -1.5277 -0.4318
11764SOL     OW38437   7.868   3.588   0.015 -0.1375  0.1357 -0.3439
11764SOL    HW138438   7.804   3.651   0.049  0.1720  0.3030 -0.0736
11764SOL    HW238439   7.814   3.519  -0.025 -0.4772  0.5619 -0.6297
11765SOL     OW38440   8.062   5.611   6.074 -0.1258 -0.4166 -0.3805
11765SOL    HW138441   8.016   5.533   6.043 -1.0575 -0.3900  0.8457
11765SOL    HW238442   8.117   5.579   6.146  1.3703 -0.3363 -1.4353
11766SOL     OW38443   3.741   2.967   1.045 -0.8402  0.6127 -0.7467
11766SOL    HW138444   3.670   3.028   1.025 -1.3680 -0.4716 -2.2717
11766SOL    HW238445   3.697   2.891   1.084 -0.5301 -0.0353 -1.6373
11767SOL     OW38446   2.180   5.981   0.107  0.0617  0.1495  0.1938
11767SOL    HW138447   2.273   5.973   0.129 -0.6435 -0.8771  3.1567
11767SOL    HW238448   2.179   6.039   0.030  3.2013 -1.0742 -0.9261
11768SOL     OW38449   7.109   3.486   4.195  0.3124  0.1700  0.3744
11768SOL    HW138450   7.200   3.495   4.166 -0.3308  1.4267 -1.4447
11768SOL    HW238451   7.058   3.484   4.114 -1.3028 -0.4993  1.3490
11769SOL     OW38452   4.243   2.393   0.095 -0.1723  0.3883  0.1193
11769SOL    HW138453   4.200   2.329   0.152  0.4309 -0.5862 -0.4831
11769SOL    HW238454   4.286   2.339   0.028  0.0202  1.4564 -0.6313
11770SOL     OW38455   3.735   5.948   6.856 -0.1868 -0.3163 -0.4080
11770SOL    HW138456   3.785   5.961   6.936  1.5547 -1.1659 -1.2905
11770SOL    HW238457   3.792   5.981   6.786 -0.2541 -2.4800 -1.5853
11771SOL     OW38458   4.560   0.974   6.804  0.6527  0.0288  0.2660
11771SOL    HW138459   4.633   1.003   6.749 -0.6841 -0.0820 -1.6499
11771SOL    HW238460   4.567   0.879   6.804  1.5386  0.0667  1.6100
11772SOL     OW38461   1.162   2.565   0.069 -0.3348  0.1000 -0.2108
11772SOL    HW138462   1.124   2.534   0.151 -1.1904  1.4289 -0.0704
11772SOL    HW238463   1.099   2.539   0.002 -0.6342  0.7439 -0.1907
11773SOL     OW38464   0.702   3.786   5.031  0.0221  0.3710 -0.3400
11773SOL    HW138465   0.740   3.812   4.947  1.0152  0.8915  0.2448
11773SOL    HW238466   0.743   3.845   5.095 -0.1493 -0.5046  0.6022
11774SOL     OW38467   2.102   0.481   1.363 -0.4377  0.5180  0.2244
11774SOL    HW138468   2.180   0.503   1.415  0.0540  1.9933 -1.0670
11774SOL    HW238469   2.033   0.470   1.428  0.4552  0.9497  1.2821
11775SOL     OW38470   1.871   0.580   4.168 -0.7736 -0.4333 -0.5470
11775SOL    HW138471   1.923   0.504   4.144 -1.2617 -1.7056  2.0105
11775SOL    HW238472   1.933   0.652   4.171  0.2096 -1.2585 -0.5705
11776SOL     OW38473   5.172   2.993   0.061  0.6717 -0.3519 -0.2924
11776SOL    HW138474   5.149   2.992   0.154 -0.7828 -0.6072 -0.6199
11776SOL    HW238475   5.265   3.016   0.059  0.3326  1.3313  1.1441
11777SOL     OW38476   0.532   4.682   6.142  0.8761 -0.3445  0.6464
11777SOL    HW138477   0.442   4.677   6.175  1.5433  0.4982  2.8268
11777SOL    HW238478   0.544   4.601   6.093 -1.0632 -0.4790  0.2972
11778SOL     OW38479   5.353   1.088   6.569 -0.5454 -0.0729 -0.1503
11778SOL    HW138480   5.308   1.012   6.607  1.8426 -0.9773  1.0253
11778SOL    HW238481   5.429   1.102   6.625 -0.8088  3.1544 -0.4116
11779SOL     OW38482   2.783   7.089   0.271 -0.3578 -0.0234 -0.0950
11779SOL    HW138483   2.699   7.080   0.316 -0.1130  0.6583  0.5187
11779SOL    HW238484   2.807   7.000   0.247  0.0693 -0.5836  2.1783
11780SOL     OW38485   3.437   2.141   7.896  0.1220  0.3705 -0.0919
11780SOL    HW138486   3.401   2.052   7.900  0.0627  0.3876 -0.2526
11780SOL    HW238487   3.530   2.129   7.917  0.5087  0.0264 -1.8624
11781SOL     OW38488   4.326   2.328   0.748 -0.2015 -0.5903  0.2054
11781SOL    HW138489   4.405   2.315   0.696 -0.4650 -1.9802  0.1170
11781SOL    HW238490   4.316   2.248   0.798 -1.1626 -0.1424  0.7631
11782SOL     OW38491   4.016   4.887   1.858  0.0414 -0.5172 -0.3292
11782SOL    HW138492   3.999   4.981   1.857  1.3591 -0.2494  0.1629
11782SOL    HW238493   4.051   4.867   1.771 -1.3108 -0.7849 -0.8279
11783SOL     OW38494   1.701   3.187   6.622  0.4348 -0.1774  0.1573
11783SOL    HW138495   1.773   3.124   6.618  0.1392 -0.6382  1.5705
11783SOL    HW238496   1.744   3.272   6.613  1.3557 -0.3696  2.0921
11784SOL     OW38497   2.773   3.826   6.112  0.0993 -1.0188  0.4301
11784SOL    HW138498   2.732   3.745   6.083 -1.9391  0.3647 -0.7726
11784SOL    HW238499   2.809   3.864   6.032  1.4013 -0.8880  1.0469
11785SOL     OW38500   3.602   7.660   0.245  0.1818  0.7856 -0.2138
11785SOL    HW138501   3.667   7.633   0.310  1.6314  1.1641 -1.4510
11785SOL    HW238502   3.552   7.729   0.287  0.1128  0.0097  1.0087
11786SOL     OW38503   1.296   6.598   6.329  0.5956  0.0169 -0.2442
11786SOL    HW138504   1.312   6.660   6.258  0.1048 -1.2588 -1.5102
11786SOL    HW238505   1.208   6.619   6.359  0.4592 -0.0214 -0.6138
11787SOL     OW38506   2.265   2.278   2.121 -0.3533 -0.6347  0.4348
11787SOL    HW138507   2.348   2.306   2.084 -1.0147 -0.5727 -1.0939
11787SOL    HW238508   2.288   2.218   2.192  0.9962  0.3609  0.8720
11788SOL     OW38509   2.294   7.018   0.005  0.0493 -0.0116 -0.8958
11788SOL    HW138510   2.211   7.029  -0.041  0.5706  0.2939 -1.7721
11788SOL    HW238511   2.347   7.093  -0.021  0.2621  0.3298  0.4256
11789SOL     OW38512   4.798   6.807   4.314  0.6053  0.2160  0.2231
11789SOL    HW138513   4.793   6.778   4.405 -1.2938 -2.3465 -0.5942
11789SOL    HW238514   4.747   6.888   4.311 -1.0542 -0.7655  1.0881
11790SOL     OW38515   4.687   5.950   3.480  0.6309 -0.3532 -0.0508
11790SOL    HW138516   4.644   6.034   3.494  0.5118  0.1528 -2.8965
11790SOL    HW238517   4.616   5.886   3.485  0.4618 -0.1272  0.5486
11791SOL     OW38518   4.174   5.579   6.409  0.4443 -0.1989  0.2844
11791SOL    HW138519   4.126   5.651   6.449  0.2427  1.0144 -1.9662
11791SOL    HW238520   4.250   5.566   6.466 -0.3846  0.6517  1.6340
11792SOL     OW38521   3.689   0.177   5.622 -0.2339 -0.0072  0.8574
11792SOL    HW138522   3.598   0.150   5.634 -0.8795  1.5239 -0.2782
11792SOL    HW238523   3.712   0.218   5.705 -1.0059  0.6995  0.7379
11793SOL     OW38524   3.252   6.143   4.677  0.3092 -0.4308  0.2291
11793SOL    HW138525   3.340   6.178   4.686  0.2436 -0.4067  0.8193
11793SOL    HW238526   3.246   6.074   4.744 -0.1783 -0.3077  0.3176
11794SOL     OW38527   3.021   4.277   1.164  0.4751 -0.5244 -0.4433
11794SOL    HW138528   2.976   4.356   1.194  2.6800  0.9409 -0.7053
11794SOL    HW238529   3.112   4.304   1.154  1.1290 -2.8545 -1.5802
11795SOL     OW38530   4.843   4.871   6.477  0.1685 -0.1213  0.1626
11795SOL    HW138531   4.866   4.941   6.415  0.1549  1.0529  1.4470
11795SOL    HW238532   4.747   4.871   6.478  0.1017  1.8153  2.2223
11796SOL     OW38533   3.575   2.873   5.940 -0.1639  0.4336 -1.3231
11796SOL    HW138534   3.608   2.805   5.999 -0.1679  0.7183 -0.9889
11796SOL    HW238535   3.652   2.923   5.914  0.3949 -1.6828 -4.2255
11797SOL     OW38536   1.107   7.121   3.332 -0.4466 -0.0721 -0.0689
11797SOL    HW138537   1.201   7.104   3.327 -0.2208  1.0061  0.2156
11797SOL    HW238538   1.096   7.166   3.415 -1.2409 -0.3386 -0.0303
11798SOL     OW38539   5.160   0.862   1.115 -0.2347 -0.4177 -0.2456
11798SOL    HW138540   5.165   0.786   1.057  2.1469  0.7056 -1.6748
11798SOL    HW238541   5.067   0.881   1.122 -0.7703 -2.3655 -1.3054
11799SOL     OW38542   4.722   6.428   7.246 -0.6494  0.4463 -0.7180
11799SOL    HW138543   4.707   6.418   7.340  1.2210 -1.0759 -0.4998
11799SOL    HW238544   4.783   6.501   7.239 -0.7707  0.5446 -0.7461
11800SOL     OW38545   4.075   0.125   6.970 -0.5141 -0.5428  0.2203
11800SOL    HW138546   4.056   0.166   7.054 -2.0525 -0.4002 -0.1701
11800SOL    HW238547   4.008   0.057   6.961 -0.1035 -0.8414 -0.6974
11801SOL     OW38548   3.978   2.809   5.490 -0.1910 -0.2442  0.2853
11801SOL    HW138549   4.039   2.856   5.545  0.4995  1.5665 -1.8747
11801SOL    HW238550   4.027   2.732   5.460  0.7155  0.6440 -0.5942
11802SOL     OW38551   2.728   3.075   3.803 -0.3167  0.4517  0.0285
11802SOL    HW138552   2.649   3.129   3.801 -0.1414  0.6941 -1.3046
11802SOL    HW238553   2.799   3.138   3.816 -0.0583  0.6710 -2.0672
11803SOL     OW38554   3.885   7.426   4.024 -0.1170 -0.0132 -0.1632
11803SOL    HW138555   3.960   7.475   4.059  1.1295 -1.8760 -0.0247
11803SOL    HW238556   3.813   7.446   4.084  0.9642 -0.1248  1.2501
11804SOL     OW38557   0.518   4.020   7.223  0.3322  0.2382  0.2760
11804SOL    HW138558   0.544   4.047   7.135  1.5213 -0.4395  0.3879
11804SOL    HW238559   0.431   3.983   7.213  1.2971 -1.8303 -1.0306
11805SOL     OW38560   0.416   1.181   1.720  0.3524  0.3618  0.3054
11805SOL    HW138561   0.387   1.178   1.629 -3.0894 -1.7577  1.2844
11805SOL    HW238562   0.359   1.246   1.761  1.4145  0.7992  1.1376
11806SOL     OW38563   0.711   1.756   1.667  0.0949  0.4085 -0.1245
11806SOL    HW138564   0.785   1.706   1.702 -0.6847  0.8029  2.2581
11806SOL    HW238565   0.634   1.703   1.686 -0.4238  0.8718 -0.8620
11807SOL     OW38566   7.898   2.646   1.523  0.3536 -0.3414  0.5562
11807SOL    HW138567   7.896   2.579   1.454 -0.0184  1.3612 -1.1713
11807SOL    HW238568   7.992   2.664   1.536  0.3874  0.7936 -1.0491
11808SOL     OW38569   7.324   2.107   7.030 -0.2554 -0.2450  0.0563
11808SOL    HW138570   7.309   2.118   6.936  0.1888 -2.3101 -0.3069
11808SOL    HW238571   7.392   2.039   7.035 -0.6787 -0.5715  1.8770
11809SOL     OW38572   2.175   0.552   5.322 -0.0595  0.0111  0.1970
11809SOL    HW138573   2.114   0.624   5.338 -0.5156 -0.0309 -1.1946
11809SOL    HW238574   2.246   0.593   5.271 -0.2044 -0.4714 -0.3962
11810SOL     OW38575   2.480   7.689   3.463 -0.2045  0.2611  0.0703
11810SOL    HW138576   2.564   7.669   3.422  0.6181 -0.8611  2.1294
11810SOL    HW238577   2.421   7.620   3.432 -0.6456  1.4587 -1.9517
11811SOL     OW38578   2.195   5.867   4.304  0.1171 -0.2252  0.6438
11811SOL    HW138579   2.147   5.947   4.281  2.1578  1.1404  0.9249
11811SOL    HW238580   2.175   5.854   4.397 -1.2839 -0.8695  0.2920
11812SOL     OW38581   6.864   1.997   6.300  0.4413  0.3043 -0.1334
11812SOL    HW138582   6.858   2.092   6.294  0.2972  0.4533  1.9356
11812SOL    HW238583   6.785   1.970   6.346  0.0901 -0.9353 -1.3664
11813SOL     OW38584   0.230   0.392   4.683 -0.7390 -1.0473 -0.1132
11813SOL    HW138585   0.170   0.381   4.757 -0.8970 -0.0776 -0.0938
11813SOL    HW238586   0.173   0.399   4.607 -0.6775  0.1448 -0.0641
11814SOL     OW38587   5.844   7.149   0.054  0.4141  0.3669  0.0145
11814SOL    HW138588   5.914   7.090   0.026  1.2602  1.3538  0.0299
11814SOL    HW238589   5.888   7.217   0.104 -0.5610  1.0002  0.0376
11815SOL     OW38590   2.142   1.649   7.750 -0.0860 -0.1803  0.2650
11815SOL    HW138591   2.113   1.709   7.818  2.0455  0.4538  0.7013
11815SOL    HW238592   2.159   1.705   7.674 -0.2330 -0.5543 -0.0486
11816SOL     OW38593   1.728   1.677   6.198 -0.1957  0.2036 -0.2099
11816SOL    HW138594   1.811   1.705   6.159  0.1227 -1.0784 -0.4831
11816SOL    HW238595   1.703   1.599   6.149 -2.0858  1.1074 -0.8051
11817SOL     OW38596   6.924   6.138   5.172  0.5039  1.0826  0.0305
11817SOL    HW138597   6.922   6.232   5.154 -0.2828  1.0473 -0.1170
11817SOL    HW238598   6.832   6.111   5.169  0.6874  0.3792  0.4542
11818SOL     OW38599   2.011   4.735   2.004  0.0039 -0.7428  0.5059
11818SOL    HW138600   1.935   4.686   2.036 -1.3509 -0.3146 -1.8400
11818SOL    HW238601   2.045   4.781   2.081 -3.0588  0.2575  1.3658
11819SOL     OW38602   2.632   7.637   5.769  0.8018 -0.5579  0.6057
11819SOL    HW138603   2.558   7.599   5.722  1.4878  0.2579 -1.2435
11819SOL    HW238604   2.645   7.580   5.844 -2.1232 -0.3231  1.4109
11820SOL     OW38605   1.158   6.608   6.649 -0.0842  0.2181 -0.5586
11820SOL    HW138606   1.203   6.692   6.637 -1.1566  0.7673 -0.9249
11820SOL    HW238607   1.065   6.630   6.642 -0.4283 -0.8394  0.3885
11821SOL     OW38608   0.701   3.037   5.640  0.1121 -0.3237 -0.2063
11821SOL    HW138609   0.703   3.130   5.662 -1.1848 -0.1545 -0.7117
11821SOL    HW238610   0.630   3.001   5.693  0.1089 -0.8683 -0.5715
11822SOL     OW38611   6.608   7.212   7.322  0.0833  0.0675 -0.1853
11822SOL    HW138612   6.690   7.258   7.333  0.2322 -0.1730 -0.2753
11822SOL    HW238613   6.623   7.126   7.362  0.3940 -0.5542 -1.5792
11823SOL     OW38614   1.672   4.141   3.620  0.4963 -0.7708 -0.2599
11823SOL    HW138615   1.682   4.168   3.712  0.4149 -0.0630 -0.4529
11823SOL    HW238616   1.701   4.050   3.619  1.4919 -0.4784  0.2673
11824SOL     OW38617   3.751   8.043   0.933 -0.3596  0.0858  0.2204
11824SOL    HW138618   3.743   7.949   0.921  0.1936  0.1096 -0.4382
11824SOL    HW238619   3.692   8.064   1.006  0.1164 -0.8782  0.8971
11825SOL     OW38620   0.107   7.130   7.872 -0.2123 -0.1214  0.6163
11825SOL    HW138621   0.094   7.204   7.932 -1.6180  0.6417 -0.5600
11825SOL    HW238622   0.025   7.081   7.876  0.8582 -1.9236  1.7122
11826SOL     OW38623   3.047   1.531   3.718  0.2468  0.0688  0.8644
11826SOL    HW138624   3.128   1.558   3.674  0.3752 -0.5118  0.7443
11826SOL    HW238625   2.990   1.608   3.712  0.0476 -0.1701 -0.8463
11827SOL     OW38626   4.258   7.978   6.625  0.6908 -0.1397 -0.3117
11827SOL    HW138627   4.244   7.884   6.631 -0.3188  0.0792  1.4522
11827SOL    HW238628   4.349   7.990   6.652  0.8805 -0.6103 -0.7202
11828SOL     OW38629   6.741   5.586   5.652 -0.3063  0.0875 -0.4055
11828SOL    HW138630   6.701   5.500   5.656  1.3358 -0.6750  0.9911
11828SOL    HW238631   6.668   5.646   5.636 -1.3867 -1.5977 -2.2055
11829SOL     OW38632   1.691   4.473   6.354 -0.6083  0.1329 -0.5296
11829SOL    HW138633   1.650   4.557   6.332 -0.9503 -0.0041 -0.4171
11829SOL    HW238634   1.641   4.409   6.303 -2.1574 -0.3349  1.4482
11830SOL     OW38635   5.381   0.354   6.865 -0.8731  0.0055 -0.1769
11830SOL    HW138636   5.354   0.361   6.956 -2.1478 -0.1746 -0.5287
11830SOL    HW238637   5.303   0.324   6.818  0.3150 -1.9669 -1.0256
11831SOL     OW38638   3.602   6.435   4.222  0.1211  0.0303  0.2174
11831SOL    HW138639   3.524   6.426   4.278 -2.1962 -0.2957 -2.7978
11831SOL    HW238640   3.631   6.345   4.207 -2.7371 -0.5110 -3.3714
11832SOL     OW38641   4.495   2.657   7.753  0.3942  0.4007 -0.1737
11832SOL    HW138642   4.442   2.578   7.766 -1.0529  1.0821 -1.6041
11832SOL    HW238643   4.464   2.718   7.820  0.1456  0.4099 -0.2952
11833SOL     OW38644   1.015   7.323   0.054 -0.2141 -0.3128  0.1026
11833SOL    HW138645   1.096   7.347   0.008  0.7789 -0.9020  1.4522
11833SOL    HW238646   1.037   7.241   0.099 -0.9410  0.4615  1.9888
11834SOL     OW38647   7.056   5.990   2.520  0.3580 -0.1791  0.4708
11834SOL    HW138648   7.132   6.034   2.557  0.3038  2.0428 -1.7731
11834SOL    HW238649   7.076   5.980   2.427 -0.6815 -2.8278  0.4393
11835SOL     OW38650   5.307   3.823   2.818 -0.3930  0.1098 -0.4305
11835SOL    HW138651   5.223   3.811   2.773 -0.3949 -1.6344 -0.0196
11835SOL    HW238652   5.298   3.773   2.899  1.0150 -0.0273 -0.3373
11836SOL     OW38653   0.274   1.074   4.450 -0.0669 -0.4682 -0.1021
11836SOL    HW138654   0.360   1.067   4.408 -0.1813 -1.0215 -0.2548
11836SOL    HW238655   0.261   0.990   4.494 -0.1086 -0.0283  0.7527
11837SOL     OW38656   5.948   7.860   7.773 -0.0163  0.4174  0.0169
11837SOL    HW138657   6.008   7.906   7.833  1.3824  0.3265 -1.2645
11837SOL    HW238658   5.993   7.860   7.689 -1.8672  0.3965 -1.0299
11838SOL     OW38659   6.493   4.642   5.362  0.0491 -0.6168 -0.1159
11838SOL    HW138660   6.518   4.589   5.286  3.3404  0.9927 -0.3431
11838SOL    HW238661   6.526   4.594   5.437  1.8598  0.3471 -0.2281
11839SOL     OW38662   2.351   6.716   7.094 -0.3038  0.3761  0.2473
11839SOL    HW138663   2.266   6.747   7.125 -0.0746  1.8536 -0.5324
11839SOL    HW238664   2.414   6.755   7.154 -0.0362  1.1478 -0.5191
11840SOL     OW38665   7.098   0.965   1.451 -0.3073  0.4476 -0.0739
11840SOL    HW138666   7.114   1.027   1.380  0.4864  0.0675 -0.2372
11840SOL    HW238667   7.026   1.004   1.501 -0.8333  0.7415 -1.0429
11841SOL     OW38668   7.636   1.590   5.890  0.1274 -0.0762  0.1840
11841SOL    HW138669   7.598   1.551   5.811 -0.9707  0.5162  0.4098
11841SOL    HW238670   7.673   1.673   5.861  0.5186 -0.2646  0.1311
11842SOL     OW38671   4.491   0.837   2.480 -0.3749  0.5897  0.1586
11842SOL    HW138672   4.460   0.928   2.473  0.4205  0.8196 -0.5319
11842SOL    HW238673   4.580   0.840   2.447 -0.4951 -0.5466 -0.2926
11843SOL     OW38674   4.928   5.745   4.073  0.2042 -0.3652  0.3453
11843SOL    HW138675   4.851   5.778   4.120  0.9592  0.6027  0.9534
11843SOL    HW238676   4.925   5.789   3.988 -0.0414 -0.5042  0.2830
11844SOL     OW38677   3.930   2.168   7.000  0.4225 -0.1315 -0.3869
11844SOL    HW138678   3.897   2.250   7.036  1.6098 -0.5955  1.8982
11844SOL    HW238679   3.903   2.171   6.908 -2.6027  1.2180  0.3891
11845SOL     OW38680   2.565   3.653   7.630  0.2303  0.7731  0.1798
11845SOL    HW138681   2.611   3.614   7.704  1.6645 -0.2306 -1.1778
11845SOL    HW238682   2.483   3.605   7.624 -0.6231  1.9148  2.0305
11846SOL     OW38683   0.696   6.598   1.604  0.3134 -0.9664 -0.8494
11846SOL    HW138684   0.613   6.562   1.574 -1.1512  1.0635  0.5153
11846SOL    HW238685   0.703   6.572   1.695  0.6410 -0.2361 -0.6590
11847SOL     OW38686   7.056   7.602   2.369  0.7272 -0.0893  0.2594
11847SOL    HW138687   6.985   7.626   2.310  0.8189  1.5440  0.7587
11847SOL    HW238688   7.021   7.528   2.420 -0.2687  0.1046 -0.1270
11848SOL     OW38689   7.622   5.420   1.996 -0.7407 -0.2456  0.3028
11848SOL    HW138690   7.662   5.342   2.034 -1.2457  0.1685  1.7577
11848SOL    HW238691   7.667   5.493   2.038 -1.1978  0.2420 -0.0424
11849SOL     OW38692   4.879   2.920   3.453  0.5128  0.3653 -0.6229
11849SOL    HW138693   4.956   2.910   3.509 -0.4446  0.4959  0.7832
11849SOL    HW238694   4.876   2.840   3.402 -0.6559 -1.6181  2.2623
11850SOL     OW38695   6.498   7.030   2.423 -0.3060  0.0669 -0.0250
11850SOL    HW138696   6.470   7.121   2.435  0.7904  0.3531  0.5220
11850SOL    HW238697   6.423   6.978   2.449 -0.0060  0.7882  2.5073
11851SOL     OW38698   7.745   7.312   0.840 -0.0545  0.9497  0.9169
11851SOL    HW138699   7.754   7.359   0.923 -2.6781  1.4777  0.9882
11851SOL    HW238700   7.701   7.375   0.782  1.2094  0.3901 -0.7300
11852SOL     OW38701   6.093   1.278   0.032 -0.4617  0.9543  0.4626
11852SOL    HW138702   6.019   1.223   0.059 -1.4243  2.4105  0.9366
11852SOL    HW238703   6.096   1.268  -0.063 -0.8560  0.3773  0.5032
11853SOL     OW38704   7.730   0.767   1.965 -0.1880 -0.2842  0.1750
11853SOL    HW138705   7.673   0.842   1.983 -0.2828 -0.4958  0.7437
11853SOL    HW238706   7.724   0.755   1.870 -0.5826  0.0983  0.1507
11854SOL     OW38707   0.883   5.114   6.710 -0.0708 -0.9376  0.2540
11854SOL    HW138708   0.952   5.048   6.720 -0.2840 -1.0741  0.8542
11854SOL    HW238709   0.894   5.171   6.786  0.1298 -0.2550 -0.2729
11855SOL     OW38710   0.196   2.094   1.974  0.2469 -0.0945 -0.0837
11855SOL    HW138711   0.254   2.018   1.964 -0.5030 -0.7243  0.1820
11855SOL    HW238712   0.216   2.150   1.899  2.0905  0.3352  0.6770
11856SOL     OW38713   1.413   4.315   6.998  0.3700 -0.0640  0.4726
11856SOL    HW138714   1.475   4.362   7.054  0.0327  0.2192  0.6137
11856SOL    HW238715   1.347   4.381   6.974 -0.6252 -0.6791  1.4403
11857SOL     OW38716   3.113   2.815   6.957 -0.5211  0.5782  0.1576
11857SOL    HW138717   3.054   2.744   6.933  2.3619 -1.9856  0.0689
11857SOL    HW238718   3.093   2.833   7.049 -0.8130 -0.9025  0.4058
11858SOL     OW38719   7.250   0.843   3.244  0.2516 -0.2261 -0.6230
11858SOL    HW138720   7.279   0.874   3.159  0.3592  0.1789 -0.4447
11858SOL    HW238721   7.330   0.841   3.298  0.2184 -0.6668 -0.5849
11859SOL     OW38722   1.569   4.747   2.899 -0.6695 -0.9185 -0.9111
11859SOL    HW138723   1.641   4.695   2.936 -1.1300 -1.1045 -0.2567
11859SOL    HW238724   1.495   4.686   2.898 -2.0081  0.4179  2.4693
11860SOL     OW38725   6.753   5.923   7.954  0.6596  0.1395 -0.0070
11860SOL    HW138726   6.678   5.888   8.003 -0.4471  1.7330 -0.4695
11860SOL    HW238727   6.781   5.850   7.898 -0.3631 -0.5763  0.3757
11861SOL     OW38728   2.766   5.078   2.831 -1.1425  0.4625  0.1857
11861SOL    HW138729   2.709   5.151   2.853  0.0434  1.8168 -0.9504
11861SOL    HW238730   2.776   5.084   2.736  0.2646 -0.1675  0.2660
11862SOL     OW38731   5.989   3.531   5.605  0.6171  0.0650 -0.0503
11862SOL    HW138732   5.912   3.488   5.568 -0.3671  0.5618  1.3230
11862SOL    HW238733   5.968   3.541   5.698  2.1024  0.7473  0.2325
11863SOL     OW38734   2.515   6.062   7.802 -0.5029  0.3364 -0.0892
11863SOL    HW138735   2.478   5.985   7.757  0.2040  0.5179 -1.0265
11863SOL    HW238736   2.565   6.025   7.875 -0.0167 -0.1243 -0.6424
11864SOL     OW38737   0.172   6.670   7.217 -0.1439  0.3446 -0.6234
11864SOL    HW138738   0.196   6.751   7.262  1.0059 -0.9746  1.3005
11864SOL    HW238739   0.081   6.682   7.191 -0.6299  1.5067  1.4238
11865SOL     OW38740   2.710   6.738   1.048 -0.0539 -0.0628 -0.2498
11865SOL    HW138741   2.752   6.653   1.037  0.9766  0.2711  0.9759
11865SOL    HW238742   2.641   6.723   1.112 -0.5148 -0.1608 -0.7527
11866SOL     OW38743   5.435   5.410   0.388 -0.3362  0.0807 -0.4758
11866SOL    HW138744   5.461   5.318   0.393 -1.2395 -0.2383 -1.2324
11866SOL    HW238745   5.433   5.429   0.294  3.7703  2.1055 -0.3635
11867SOL     OW38746   7.928   1.311   5.781  0.5292  0.4694 -0.4223
11867SOL    HW138747   7.947   1.233   5.833 -0.4158  0.2604 -0.3677
11867SOL    HW238748   7.835   1.329   5.797  0.0919  0.1582 -2.3165
11868SOL     OW38749   4.310   0.798   6.466  0.0272  0.0595 -0.7990
11868SOL    HW138750   4.334   0.883   6.429  2.7260 -0.7122 -0.9994
11868SOL    HW238751   4.381   0.739   6.441 -1.4248 -2.1224 -0.0877
11869SOL     OW38752   7.710   5.247   2.942 -0.0118 -0.5810  0.6560
11869SOL    HW138753   7.666   5.192   2.877  0.7340 -1.7456  1.1107
11869SOL    HW238754   7.795   5.205   2.956 -0.6175 -1.0993  3.2895
11870SOL     OW38755   2.562   5.905   3.999  0.1507 -0.0576 -0.7292
11870SOL    HW138756   2.652   5.934   3.988  1.1404 -2.5276  0.1836
11870SOL    HW238757   2.513   5.986   4.015  2.7604  1.1503  2.1802
11871SOL     OW38758   7.841   7.285   1.709 -0.0313 -0.2446 -0.4371
11871SOL    HW138759   7.905   7.228   1.750  1.5567  1.1677 -0.8315
11871SOL    HW238760   7.879   7.373   1.717 -1.7256  0.5829 -1.0671
11872SOL     OW38761   5.732   7.765   2.024 -0.0055  0.0717 -0.2310
11872SOL    HW138762   5.821   7.776   1.991 -0.4763 -1.0686 -2.0215
11872SOL    HW238763   5.708   7.852   2.058  1.2698  0.7822 -1.0751
11873SOL     OW38764   1.164   1.637   3.324 -0.0950  0.0267  0.1164
11873SOL    HW138765   1.104   1.711   3.331  0.6636  0.5347  1.4918
11873SOL    HW238766   1.137   1.577   3.393  0.4521 -0.1129  0.2166
11874SOL     OW38767   0.894   1.044   2.622  0.1910  0.7659 -0.1607
11874SOL    HW138768   0.815   1.091   2.595 -0.2827  1.4493  2.2015
11874SOL    HW238769   0.864   0.954   2.637 -0.4224  1.2399  1.6891
11875SOL     OW38770   4.944   2.344   7.294  0.4349  0.5017 -0.5975
11875SOL    HW138771   4.984   2.377   7.375  0.0882 -0.7231  0.1024
11875SOL    HW238772   4.931   2.251   7.311  0.4505  0.2058 -2.1255
11876SOL     OW38773   7.563   3.678   5.866 -0.1885  0.3993 -0.6425
11876SOL    HW138774   7.497   3.745   5.882 -1.2104 -0.9074  0.9395
11876SOL    HW238775   7.518   3.614   5.810 -0.6535 -0.9371  1.1478
11877SOL     OW38776   3.568   1.627   5.702  0.0179 -0.2117 -0.2641
11877SOL    HW138777   3.649   1.650   5.746  2.1044 -4.3055 -1.4624
11877SOL    HW238778   3.595   1.599   5.615 -2.3111 -3.4572 -0.1249
11878SOL     OW38779   4.656   2.398   1.161 -0.0876 -0.1036 -0.6796
11878SOL    HW138780   4.684   2.367   1.076  0.3397 -0.0615 -0.5548
11878SOL    HW238781   4.561   2.410   1.153 -0.0349 -0.0260 -1.1676
11879SOL     OW38782   1.606   2.962   1.294 -0.2463  0.1893  0.1718
11879SOL    HW138783   1.700   2.948   1.280 -0.2066  2.1569 -2.0762
11879SOL    HW238784   1.566   2.940   1.210 -1.8440 -0.6430  1.1082
11880SOL     OW38785   0.225   0.819   4.843 -0.1595  0.0084 -0.3679
11880SOL    HW138786   0.149   0.795   4.896 -1.4023 -0.2160 -2.1411
11880SOL    HW238787   0.270   0.736   4.826 -1.2127 -0.3120 -1.7405
11881SOL     OW38788   3.598   4.510   6.470 -0.2795  0.2484 -0.2996
11881SOL    HW138789   3.534   4.446   6.501 -0.3964  0.4493 -0.1229
11881SOL    HW238790   3.604   4.494   6.376 -0.1984 -0.1183 -0.2341
11882SOL     OW38791   3.032   7.819   6.838 -0.0994  0.1027 -0.5426
11882SOL    HW138792   3.041   7.729   6.869 -0.3236  0.2574 -0.0164
11882SOL    HW238793   3.113   7.862   6.866 -1.4783  1.0153  2.5528
11883SOL     OW38794   0.920   5.733   5.322  0.2673 -0.0718 -0.5173
11883SOL    HW138795   0.961   5.660   5.368  1.2813  1.1157  0.5436
11883SOL    HW238796   0.937   5.809   5.378  0.2454  1.1723 -2.1318
11884SOL     OW38797   7.376   7.228   2.022  0.1869  0.5282  0.5284
11884SOL    HW138798   7.471   7.237   2.024  0.1382  0.9960  1.0924
11884SOL    HW238799   7.343   7.318   2.024 -0.2765  0.3501  1.4983
11885SOL     OW38800   5.127   3.814   6.702 -0.1642 -0.2489 -0.7001
11885SOL    HW138801   5.191   3.743   6.710 -0.9396 -0.8282  0.8298
11885SOL    HW238802   5.045   3.770   6.683 -0.3041  0.4193 -1.7267
11886SOL     OW38803   6.127   3.149   3.080 -0.3497 -0.6773 -0.2179
11886SOL    HW138804   6.073   3.226   3.062  0.3129 -0.6808 -2.4810
11886SOL    HW238805   6.122   3.097   3.001 -0.0687 -2.5707  0.9505
11887SOL     OW38806   6.863   4.484   5.995  0.1714  0.4449  0.0538
11887SOL    HW138807   6.943   4.536   5.989  0.7244 -0.3614  0.2049
11887SOL    HW238808   6.890   4.403   6.039 -0.3965 -0.4973 -1.2620
11888SOL     OW38809   4.188   4.110   7.392  0.2408  0.4769  0.3373
11888SOL    HW138810   4.177   4.197   7.430  1.8374  0.6135  0.5560
11888SOL    HW238811   4.171   4.049   7.464 -0.2142  0.6270  0.3575
11889SOL     OW38812   1.622   0.215   7.931  0.0848 -0.2390  0.5262
11889SOL    HW138813   1.709   0.252   7.920  1.3786 -3.0338  0.5343
11889SOL    HW238814   1.604   0.223   8.025  0.1509  0.6943  0.4610
11890SOL     OW38815   0.309   7.156   2.652 -0.0103 -0.2303  0.5020
11890SOL    HW138816   0.327   7.102   2.729  0.9328 -1.3603 -0.4834
11890SOL    HW238817   0.239   7.110   2.606  0.7760 -0.6388 -0.3244
11891SOL     OW38818   8.068   3.589   5.547 -0.2666  0.3572 -0.4572
11891SOL    HW138819   8.115   3.509   5.571 -1.5519 -0.6368 -1.1231
11891SOL    HW238820   8.136   3.649   5.516  0.7558 -0.3410  0.3761
11892SOL     OW38821   5.558   1.977   5.774 -0.0552 -0.1482 -0.3361
11892SOL    HW138822   5.610   1.897   5.779  0.1842  0.0492  0.6580
11892SOL    HW238823   5.516   1.983   5.860  0.8841  1.4069  0.0589
11893SOL     OW38824   5.866   1.168   2.279  0.3478  0.3083 -0.5496
11893SOL    HW138825   5.838   1.152   2.370  0.6640 -0.1517 -0.5309
11893SOL    HW238826   5.932   1.237   2.287  0.8078 -0.1440 -0.3617
11894SOL     OW38827   0.635   1.405   0.058 -0.0069  0.1782  0.4181
11894SOL    HW138828   0.574   1.349   0.011  0.7408 -1.0614  0.8685
11894SOL    HW238829   0.704   1.425  -0.005 -0.9926  1.8373 -0.1856
11895SOL     OW38830   7.762   7.480   6.641  0.1870  0.2705 -0.3203
11895SOL    HW138831   7.788   7.526   6.561  0.4752  0.8387  0.0927
11895SOL    HW238832   7.845   7.458   6.684  0.0572 -0.9325 -0.6754
11896SOL     OW38833   5.863   2.755   8.077  0.0072  0.4095 -0.6045
11896SOL    HW138834   5.935   2.783   8.021 -0.3523 -2.6753 -2.9060
11896SOL    HW238835   5.905   2.736   8.162  1.5560  0.4735 -1.3134
11897SOL     OW38836   7.607   6.104   6.479  0.4055  0.2004  0.7082
11897SOL    HW138837   7.512   6.118   6.480  0.3449 -0.1876  1.7696
11897SOL    HW238838   7.635   6.137   6.394 -0.8097 -0.4858  0.0021
11898SOL     OW38839   3.197   0.447   3.276  0.3307  0.4586  0.0555
11898SOL    HW138840   3.139   0.445   3.200 -3.0119 -1.5542  2.3950
11898SOL    HW238841   3.189   0.536   3.310  0.0506  0.7165 -0.6660
11899SOL     OW38842   2.798   0.912   3.291  0.5151 -0.2147  0.7355
11899SOL    HW138843   2.814   1.003   3.317 -1.3481  0.0887  0.9618
11899SOL    HW238844   2.704   0.909   3.273  1.0975 -1.1917 -2.8866
11900SOL     OW38845   2.027   1.760   0.917 -0.3274 -0.0266 -0.0147
11900SOL    HW138846   1.950   1.732   0.966 -1.0580 -0.7650 -1.5119
11900SOL    HW238847   2.099   1.710   0.956 -0.6446  0.3690  1.1323
11901SOL     OW38848   2.450   6.028   4.312  0.1504 -0.3980 -0.1681
11901SOL    HW138849   2.436   6.030   4.407 -1.8424 -1.9455 -0.3783
11901SOL    HW238850   2.397   5.955   4.281  0.7455  0.0807 -2.4997
11902SOL     OW38851   6.933   0.695   3.817 -0.1601  0.1323  0.6785
11902SOL    HW138852   6.843   0.702   3.787 -1.5311  0.5505  4.3297
11902SOL    HW238853   6.936   0.612   3.865  1.5152 -0.0523  0.3048
11903SOL     OW38854   7.876   7.934   3.316 -0.3597 -0.1408  0.0380
11903SOL    HW138855   7.881   8.026   3.290  0.3943 -0.4516 -0.9658
11903SOL    HW238856   7.830   7.935   3.400  0.3042  1.2090  0.4017
11904SOL     OW38857   0.844   0.341   6.055 -0.3478 -0.3599  0.6671
11904SOL    HW138858   0.933   0.306   6.047 -0.0403  0.7054 -1.1162
11904SOL    HW238859   0.857   0.434   6.073 -1.0350  0.2467 -1.6736
11905SOL     OW38860   7.266   3.187   7.888  0.3507 -0.3304 -0.3598
11905SOL    HW138861   7.299   3.202   7.977  0.8380  1.4689 -0.7927
11905SOL    HW238862   7.337   3.142   7.843  1.2288  1.1906 -0.5612
11906SOL     OW38863   1.706   6.686   5.856  0.0012 -0.3361  0.6732
11906SOL    HW138864   1.675   6.678   5.946 -0.9263  2.6045  0.7255
11906SOL    HW238865   1.630   6.665   5.803  0.1558 -0.7420  0.6139
11907SOL     OW38866   7.390   5.501   7.373 -0.4486 -0.8100  0.1212
11907SOL    HW138867   7.423   5.417   7.404  0.4954 -0.7194 -0.5856
11907SOL    HW238868   7.452   5.566   7.408 -0.6371 -0.5011 -0.1109
11908SOL     OW38869   4.330   0.806   4.973 -0.3427  0.0935  0.0887
11908SOL    HW138870   4.276   0.763   5.039  0.9448 -0.7286  0.6534
11908SOL    HW238871   4.268   0.854   4.918 -1.6202 -0.7912  0.7139
11909SOL     OW38872   7.253   1.725   5.775  0.8434  0.0809  0.1442
11909SOL    HW138873   7.263   1.635   5.744  1.8976  0.1494  0.2583
11909SOL    HW238874   7.260   1.779   5.696 -1.0526  0.0157 -0.1077
11910SOL     OW38875   1.049   2.209   2.718  0.4169  0.2284 -0.1075
11910SOL    HW138876   0.966   2.175   2.684  0.7428 -0.8903  0.1860
11910SOL    HW238877   1.055   2.297   2.682 -0.5672  0.0685 -0.7013
11911SOL     OW38878   3.813   2.111   3.735  0.3572  0.1416 -0.2536
11911SOL    HW138879   3.876   2.168   3.691 -0.6866 -0.5396 -2.7778
11911SOL    HW238880   3.834   2.023   3.705 -0.9042 -0.2598 -0.0305
11912SOL     OW38881   6.758   6.401   3.566 -0.3108  0.0720  0.0036
11912SOL    HW138882   6.853   6.398   3.577  0.1349 -0.2347 -2.9062
11912SOL    HW238883   6.743   6.483   3.518 -1.1353 -1.0649 -1.7998
11913SOL     OW38884   7.319   0.040   1.942  0.4291 -0.6054  0.2636
11913SOL    HW138885   7.225   0.059   1.946  0.4665 -0.4426  0.3308
11913SOL    HW238886   7.352   0.058   2.030  0.8922  1.2369 -0.2567
11914SOL     OW38887   0.729   7.342   3.632  0.1238  0.1056  0.3759
11914SOL    HW138888   0.799   7.350   3.696 -0.3940 -1.2655  1.1466
11914SOL    HW238889   0.768   7.296   3.558  0.2990  0.2336  0.3891
11915SOL     OW38890   6.440   6.499   6.941  0.0170  0.4337 -0.9706
11915SOL    HW138891   6.443   6.504   6.845 -1.3906  0.0596 -1.0628
11915SOL    HW238892   6.420   6.588   6.969  0.1872  0.4947 -1.0463
11916SOL     OW38893   7.394   6.148   7.773 -0.6642 -0.5196 -0.0051
11916SOL    HW138894   7.425   6.163   7.862 -1.5878  0.0816  0.2323
11916SOL    HW238895   7.440   6.213   7.720 -0.8013 -0.2654  0.1864
11917SOL     OW38896   2.674   4.009   5.212  0.2369  0.4225  0.1112
11917SOL    HW138897   2.615   4.061   5.159  1.3372  1.2174 -0.3627
11917SOL    HW238898   2.726   4.073   5.261 -0.1310 -0.2739  1.4682
11918SOL     OW38899   4.242   5.877   6.731  0.0112  0.3164  0.2248
11918SOL    HW138900   4.312   5.814   6.750 -0.2911  0.0791  0.5594
11918SOL    HW238901   4.175   5.858   6.796 -0.5127  0.3135 -0.3113
11919SOL     OW38902   0.638   5.128   3.376 -0.1946 -0.5256  0.5645
11919SOL    HW138903   0.645   5.194   3.306 -0.0938  0.3410  1.3764
11919SOL    HW238904   0.559   5.079   3.354 -0.5555  0.1920  0.2065
11920SOL     OW38905   3.508   2.106   1.579 -0.4248 -0.1712  0.0501
11920SOL    HW138906   3.528   2.023   1.537  1.5406  0.5995 -0.6273
11920SOL    HW238907   3.476   2.162   1.509  1.4024  0.6384 -0.1855
11921SOL     OW38908   0.934   0.027   1.744  0.0444 -0.5168  0.4529
11921SOL    HW138909   0.917   0.071   1.827  0.4169  1.2729 -0.3751
11921SOL    HW238910   0.871  -0.045   1.742 -1.8602  1.0398  1.0706
11922SOL     OW38911   7.363   5.243   5.958 -0.0901  0.1154  0.3005
11922SOL    HW138912   7.398   5.294   6.032  0.7209  0.1562 -0.0988
11922SOL    HW238913   7.399   5.286   5.881 -1.7677  0.7138 -0.1893
11923SOL     OW38914   7.240   7.194   7.967  0.5907 -0.1759  0.2819
11923SOL    HW138915   7.328   7.194   8.005  0.3275 -1.9356  0.9581
11923SOL    HW238916   7.220   7.102   7.951 -0.7796  0.2593 -0.7337
11924SOL     OW38917   4.100   0.683   3.658 -0.3124 -0.5591 -0.3207
11924SOL    HW138918   4.156   0.723   3.725  0.5657 -1.5449 -0.4287
11924SOL    HW238919   4.016   0.671   3.701 -0.3509  0.6398 -0.0399
11925SOL     OW38920   2.347   5.481   5.394 -0.2603  0.4253 -0.3943
11925SOL    HW138921   2.297   5.487   5.475 -1.2061 -1.7094 -0.7463
11925SOL    HW238922   2.430   5.441   5.421  1.1325  3.3721  0.0833
11926SOL     OW38923   6.784   3.722   1.960  0.4283  0.4211 -0.1314
11926SOL    HW138924   6.823   3.696   2.043 -0.4094 -2.2178 -0.4722
11926SOL    HW238925   6.703   3.767   1.985 -0.4538 -1.4349  0.5586
11927SOL     OW38926   4.736   3.445   5.091  0.1612  0.3790  0.0621
11927SOL    HW138927   4.648   3.417   5.117  0.1596 -0.2664 -0.6063
11927SOL    HW238928   4.788   3.365   5.091  0.6682  0.7008  0.1052
11928SOL     OW38929   4.075   6.997   7.496 -0.2508 -0.0985  0.4035
11928SOL    HW138930   4.118   7.061   7.440  2.3533 -1.2203  0.9567
11928SOL    HW238931   4.094   7.027   7.585 -1.6860 -0.0031  0.6998
11929SOL     OW38932   3.128   4.191   4.326 -0.0575  0.0654 -0.0223
11929SOL    HW138933   3.163   4.202   4.237  0.9159  1.2911  0.4937
11929SOL    HW238934   3.121   4.280   4.360 -1.2672 -0.3437  0.8207
11930SOL     OW38935   3.207   7.044   7.272  0.0724  0.5076  0.5434
11930SOL    HW138936   3.129   6.996   7.301 -1.1697  2.0867 -0.0400
11930SOL    HW238937   3.277   7.014   7.330 -1.8351  2.0004  3.8838
11931SOL     OW38938   0.023   4.407   4.609  0.3262  0.3479  0.3067
11931SOL    HW138939  -0.072   4.397   4.611  0.1604  1.4111 -0.9046
11931SOL    HW238940   0.051   4.385   4.698 -1.2353  1.6576  1.1946
11932SOL     OW38941   7.301   1.069   3.641  0.2500 -0.3843  0.1811
11932SOL    HW138942   7.284   0.976   3.623  1.6304 -0.5387 -0.4648
11932SOL    HW238943   7.380   1.069   3.695  1.3958  0.4585 -1.4100
11933SOL     OW38944   3.974   7.382   0.012 -0.2376  0.0021  0.1988
11933SOL    HW138945   3.941   7.363   0.100  0.0590 -0.2549  0.2567
11933SOL    HW238946   3.940   7.469  -0.008  0.8279  0.6558  1.1194
11934SOL     OW38947   1.916   5.568   1.331 -0.0197 -0.2035 -0.0057
11934SOL    HW138948   1.875   5.654   1.323  0.4350  0.0276  0.0449
11934SOL    HW238949   1.890   5.537   1.418 -0.3574 -0.2078 -0.1104
11935SOL     OW38950   3.234   2.087   6.051  0.0839 -0.4855  0.2524
11935SOL    HW138951   3.215   2.172   6.090 -0.6370 -0.2942 -0.4885
11935SOL    HW238952   3.262   2.108   5.962 -0.3292 -1.0406 -0.0089
11936SOL     OW38953   1.891   0.979   4.339  0.6720 -0.9055  0.1480
11936SOL    HW138954   1.926   0.975   4.428  1.7580 -0.4032 -0.2398
11936SOL    HW238955   1.957   0.935   4.286 -0.5643 -2.3504 -0.2580
11937SOL     OW38956   5.016   2.268   0.387 -0.0234  0.4412  0.0140
11937SOL    HW138957   5.019   2.350   0.338  0.0288  0.3668 -0.1089
11937SOL    HW238958   4.929   2.267   0.427  0.0372  0.6328  0.1498
11938SOL     OW38959   2.144   2.775   2.795 -0.4234  0.4650 -0.1454
11938SOL    HW138960   2.061   2.765   2.747 -2.0753 -0.4448  2.6450
11938SOL    HW238961   2.147   2.868   2.818 -1.1482  0.3483  0.4637
11939SOL     OW38962   1.724   0.875   6.005 -0.2064 -0.5532  0.1022
11939SOL    HW138963   1.718   0.782   5.986  0.5871 -0.2437 -1.9088
11939SOL    HW238964   1.699   0.918   5.923 -1.9229  1.0614  1.3731
11940SOL     OW38965   0.619   6.250   2.954  0.1018  0.4992  0.3863
11940SOL    HW138966   0.685   6.252   2.886  1.0086 -0.2979  1.2105
11940SOL    HW238967   0.663   6.281   3.033 -0.1945 -0.9361  1.1680
11941SOL     OW38968   1.902   4.603   6.889  0.1052 -0.6594  0.1771
11941SOL    HW138969   1.940   4.576   6.972  2.4032  1.2388 -0.1689
11941SOL    HW238970   1.940   4.543   6.825  0.3305 -0.5232  0.1827
11942SOL     OW38971   1.691   4.220   5.841 -0.5305  0.1321  0.2585
11942SOL    HW138972   1.604   4.224   5.879 -0.5763  0.9247  0.0757
11942SOL    HW238973   1.750   4.241   5.913 -0.4673 -0.6429  0.4416
11943SOL     OW38974   7.507   6.142   1.092 -0.4889 -0.0138 -0.0685
11943SOL    HW138975   7.443   6.212   1.106  1.3651  1.5249  1.0329
11943SOL    HW238976   7.523   6.143   0.998  0.6246  2.1210  0.0968
11944SOL     OW38977   6.444   7.839   2.512 -0.1819  0.1663 -0.4076
11944SOL    HW138978   6.398   7.901   2.568 -0.9341  0.7252 -1.6057
11944SOL    HW238979   6.427   7.754   2.552 -0.9451  0.5227  0.0551
11945SOL     OW38980   0.516   1.885   3.130  0.1038  0.3631  0.1135
11945SOL    HW138981   0.464   1.827   3.075  2.0496 -0.2898 -1.1374
11945SOL    HW238982   0.541   1.831   3.205 -0.1926  0.3788  0.2254
11946SOL     OW38983   0.740   4.940   4.707  0.1814  0.0182 -0.1312
11946SOL    HW138984   0.769   4.908   4.792 -0.8020  0.0789  0.2436
11946SOL    HW238985   0.726   5.034   4.720 -1.1496 -0.1828 -0.0064
11947SOL     OW38986   0.217   1.343   0.988 -0.0006  0.4581 -0.1912
11947SOL    HW138987   0.121   1.350   0.987 -0.1705 -1.2464  0.5930
11947SOL    HW238988   0.246   1.420   1.038 -1.0665  0.2564  0.7929
11948SOL     OW38989   0.939   5.333   2.898 -0.4781  0.5700 -0.2258
11948SOL    HW138990   0.873   5.297   2.838  0.0649 -0.7463 -0.0666
11948SOL    HW238991   0.984   5.400   2.846 -0.4429 -0.1028 -1.0846
11949SOL     OW38992   1.955   1.187   0.122 -0.0260  0.0602  0.1066
11949SOL    HW138993   1.943   1.208   0.029 -0.5645  0.2167  0.2041
11949SOL    HW238994   1.967   1.272   0.164 -1.2611  0.1176  0.3750
11950SOL     OW38995   0.620   5.460   2.951 -0.2506  0.3668  0.0256
11950SOL    HW138996   0.591   5.541   2.908 -2.7734 -0.5054 -0.1216
11950SOL    HW238997   0.656   5.407   2.880  0.0081  0.7644 -0.1476
11951SOL     OW38998   1.153   2.390   4.861  0.6689 -0.2034 -0.1852
11951SOL    HW138999   1.167   2.305   4.903  0.0182  0.3881  1.2854
11951SOL    HW239000   1.171   2.454   4.929  0.5693  0.8433 -1.1072
11952SOL     OW39001   5.729   3.469   7.501 -0.1083 -0.3627 -0.4085
11952SOL    HW139002   5.813   3.514   7.492  0.8444 -1.8521  0.6098
11952SOL    HW239003   5.706   3.478   7.594 -0.5522 -0.8549 -0.4621
11953SOL     OW39004   4.515   0.980   2.145  0.6907  0.5703  0.1068
11953SOL    HW139005   4.499   1.023   2.230  0.7286 -1.0221  0.9527
11953SOL    HW239006   4.599   1.016   2.116  0.8316  0.9151  0.8994
11954SOL     OW39007   4.994   7.275   0.675  0.4743  0.0013 -0.1379
11954SOL    HW139008   4.901   7.272   0.655  0.5029 -0.6781 -0.1960
11954SOL    HW239009   5.037   7.250   0.593  0.8018  2.1885 -0.6907
11955SOL     OW39010   3.528   0.879   2.062 -0.0083 -0.0252 -0.0097
11955SOL    HW139011   3.587   0.870   2.136 -2.0228 -0.1098  1.6810
11955SOL    HW239012   3.582   0.917   1.993  2.5606 -2.1986  0.6385
11956SOL     OW39013   5.072   1.734   7.729  0.4656 -0.3446  0.9004
11956SOL    HW139014   5.053   1.743   7.636  1.2616  1.4636  0.8864
11956SOL    HW239015   5.051   1.642   7.748 -0.8072 -0.4615 -0.7795
11957SOL     OW39016   6.066   5.749   2.181  0.6288  0.4464  0.1562
11957SOL    HW139017   6.131   5.689   2.145 -0.1685  0.5759 -1.5962
11957SOL    HW239018   6.021   5.784   2.104 -0.8934  1.0546  1.2882
11958SOL     OW39019   6.822   7.732   1.325 -0.0181  0.7540 -0.5773
11958SOL    HW139020   6.804   7.827   1.324  1.1675  1.0103  0.4596
11958SOL    HW239021   6.884   7.719   1.253  1.7476  1.2053  0.8149
11959SOL     OW39022   7.186   4.887   6.983  0.1107 -0.3999  0.0128
11959SOL    HW139023   7.196   4.927   6.897 -0.3387 -1.9463 -0.7911
11959SOL    HW239024   7.096   4.853   6.983  0.0052 -0.1518  1.2185
11960SOL     OW39025   3.327   0.505   0.706  0.2442 -0.2023 -0.3463
11960SOL    HW139026   3.268   0.461   0.645  0.8172 -0.2830 -0.8452
11960SOL    HW239027   3.355   0.584   0.661 -0.6228  0.6009  0.4720
11961SOL     OW39028   5.473   2.442   1.809  0.0597  0.6268 -0.5660
11961SOL    HW139029   5.535   2.501   1.852  1.0408 -0.0377 -1.0372
11961SOL    HW239030   5.515   2.419   1.726 -1.3260  1.0531 -1.4194
11962SOL     OW39031   2.908   3.063   3.474 -0.0240  0.2014  0.4460
11962SOL    HW139032   2.828   3.022   3.505 -1.1452  2.3625  0.5858
11962SOL    HW239033   2.963   3.071   3.553 -0.6380  0.7767  0.8288
11963SOL     OW39034   4.084   1.976   4.072 -0.0679 -0.3949  0.3254
11963SOL    HW139035   4.116   2.036   4.139 -1.4308  0.5980  0.1424
11963SOL    HW239036   4.152   1.977   4.004  0.6037 -0.2034  0.9909
11964SOL     OW39037   6.882   0.094   2.229 -0.4410  0.2495  0.1028
11964SOL    HW139038   6.846   0.007   2.214  1.2469 -0.4784  0.0015
11964SOL    HW239039   6.948   0.105   2.160  0.9218  0.6686  1.4068
11965SOL     OW39040   0.441   2.148   1.278 -0.1657 -0.2922  0.6588
11965SOL    HW139041   0.467   2.227   1.326  0.5232  1.0288 -1.6837
11965SOL    HW239042   0.385   2.181   1.208  0.0591 -1.9072 -0.3144
11966SOL     OW39043   7.152   3.641   7.101  0.0855  0.4846 -0.0652
11966SOL    HW139044   7.224   3.579   7.111  0.4408  1.1450  1.7000
11966SOL    HW239045   7.126   3.632   7.009  1.1045 -1.1832 -0.2353
11967SOL     OW39046   1.424   0.397   6.299 -0.1858 -0.2444 -0.0501
11967SOL    HW139047   1.376   0.332   6.249 -2.9862  1.5814  0.0033
11967SOL    HW239048   1.502   0.416   6.246 -0.7224 -1.6320 -1.4036
11968SOL     OW39049   4.944   0.931   4.307 -0.2444  0.0010  0.8525
11968SOL    HW139050   4.893   0.938   4.225  2.7141  2.1306 -0.9972
11968SOL    HW239051   4.984   0.844   4.302  0.1285  0.2132 -0.1438
11969SOL     OW39052   5.306   7.309   4.160 -0.0061 -0.2622  0.1212
11969SOL    HW139053   5.341   7.398   4.157 -2.1827  0.6402 -0.6534
11969SOL    HW239054   5.284   7.288   4.070 -0.8847 -0.9824  0.4818
11970SOL     OW39055   7.347   5.796   4.456  0.9398  0.3023  0.2009
11970SOL    HW139056   7.387   5.714   4.485 -0.1251  0.1981  1.4832
11970SOL    HW239057   7.281   5.769   4.392 -1.0440 -0.1631  2.2970
11971SOL     OW39058   3.375   5.797   4.474  0.6069 -0.1277  0.2734
11971SOL    HW139059   3.320   5.827   4.402  0.3227  0.6670  0.8106
11971SOL    HW239060   3.365   5.702   4.475  3.4068 -0.6402 -3.0241
11972SOL     OW39061   6.950   1.880   3.631  0.1428  0.2185  0.1435
11972SOL    HW139062   7.015   1.950   3.632 -0.2400  0.5743  0.0271
11972SOL    HW239063   6.921   1.875   3.540 -1.3485  1.3173  0.5300
11973SOL     OW39064   1.932   3.649   3.033  0.1426  0.5379 -0.5723
11973SOL    HW139065   1.956   3.663   2.941 -0.3436  0.6526 -0.6841
11973SOL    HW239066   2.016   3.647   3.080  0.4066  0.2788 -1.0432
11974SOL     OW39067   6.112   4.083   0.474  0.1939  0.0219  0.4824
11974SOL    HW139068   6.129   4.009   0.415 -2.4776 -1.6425  1.6492
11974SOL    HW239069   6.175   4.071   0.546  0.1193 -0.8223  0.4156
11975SOL     OW39070   4.529   2.535   0.488  0.3339  0.0995  0.0065
11975SOL    HW139071   4.528   2.442   0.512 -0.5480  0.2453  0.5901
11975SOL    HW239072   4.510   2.535   0.394  1.7523 -0.3724 -0.2925
11976SOL     OW39073   7.130   0.916   7.804  0.0226  0.6789 -0.0913
11976SOL    HW139074   7.218   0.953   7.815  0.4618 -0.2848 -0.2158
11976SOL    HW239075   7.081   0.949   7.879  0.5436  1.0923  0.0752
11977SOL     OW39076   6.165   5.484   7.856  0.5228  0.2696 -0.2937
11977SOL    HW139077   6.086   5.460   7.809  0.8039  0.9493 -1.1302
11977SOL    HW239078   6.191   5.404   7.902  0.2616 -0.4204 -1.3124
11978SOL     OW39079   6.188   0.543   7.151  0.4945 -0.0510  0.3852
11978SOL    HW139080   6.132   0.621   7.152 -0.1763 -0.5269  0.7693
11978SOL    HW239081   6.254   0.561   7.218 -0.2849 -0.2519  1.2290
11979SOL     OW39082   5.581   1.465   7.477 -0.2987 -0.3136  0.6429
11979SOL    HW139083   5.490   1.455   7.505  0.3617 -0.4429  2.9160
11979SOL    HW239084   5.585   1.553   7.439 -1.5222 -0.6160 -0.2706
11980SOL     OW39085   7.191   2.285   0.576 -0.1060 -0.6246 -0.2776
11980SOL    HW139086   7.122   2.267   0.512  0.8487 -3.9870 -0.5643
11980SOL    HW239087   7.265   2.315   0.523  0.1043 -1.6431 -0.5880
11981SOL     OW39088   2.183   5.727   0.781  0.1883  0.4115  0.2484
11981SOL    HW139089   2.269   5.713   0.741 -0.1574 -0.5375 -0.1918
11981SOL    HW239090   2.197   5.799   0.842  1.1421  0.7047 -0.2927
11982SOL     OW39091   0.800   7.735   0.781 -0.0489 -0.1750 -0.3984
11982SOL    HW139092   0.888   7.772   0.767  0.6498 -1.4779  0.3039
11982SOL    HW239093   0.750   7.762   0.705  1.2681 -0.2386 -1.3154
11983SOL     OW39094   1.055   0.197   2.112 -0.3213 -0.0430  0.1515
11983SOL    HW139095   1.127   0.193   2.049  0.8386 -1.1597  1.4657
11983SOL    HW239096   1.088   0.151   2.189 -1.5161  1.6591  1.7711
11984SOL     OW39097   0.749   1.296   5.854  0.1630  0.3736 -0.2093
11984SOL    HW139098   0.692   1.283   5.930  0.3442  0.6411 -0.0266
11984SOL    HW239099   0.701   1.358   5.799 -1.3290 -1.9767 -1.7275
11985SOL     OW39100   1.277   7.455   4.518  0.3444  0.3587  0.4369
11985SOL    HW139101   1.323   7.522   4.569  0.9348  1.6443 -1.6184
11985SOL    HW239102   1.337   7.436   4.445 -0.5850 -1.1354  0.0126
11986SOL     OW39103   4.576   3.713   7.627  0.5088  0.2378 -0.5275
11986SOL    HW139104   4.580   3.759   7.711  0.1400  2.7117 -1.7682
11986SOL    HW239105   4.637   3.760   7.571 -1.2757  0.4582 -2.4273
11987SOL     OW39106   6.195   0.240   4.472 -0.4005  0.3613 -0.5798
11987SOL    HW139107   6.179   0.335   4.470 -0.4656  0.3830  0.3873
11987SOL    HW239108   6.276   0.231   4.524 -0.5982 -0.1311 -0.3498
11988SOL     OW39109   6.032   6.148   0.000 -0.1301 -0.2063  0.0050
11988SOL    HW139110   6.017   6.057  -0.025  1.3986 -0.1328 -1.3638
11988SOL    HW239111   5.971   6.198  -0.054  1.5949 -0.2076 -2.0333
11989SOL     OW39112   8.049   5.995   7.891 -0.2534 -1.2021  0.7933
11989SOL    HW139113   8.033   6.067   7.951 -1.9848 -0.6576 -0.2367
11989SOL    HW239114   8.131   6.018   7.847 -0.5171 -0.1158  0.8445
11990SOL     OW39115   7.545   2.178   4.037  0.3152 -0.3662  0.0173
11990SOL    HW139116   7.588   2.093   4.020 -0.5871 -0.9076  0.3660
11990SOL    HW239117   7.591   2.213   4.113  0.6181 -0.5964 -0.0563
11991SOL     OW39118   2.298   5.092   5.484 -0.4842 -0.1707 -0.8133
11991SOL    HW139119   2.371   5.119   5.428 -0.7681  1.3655 -0.4696
11991SOL    HW239120   2.340   5.046   5.557  0.3527  2.1849  0.2792
11992SOL     OW39121   6.558   0.227   5.358  0.1597 -0.2243  0.0067
11992SOL    HW139122   6.464   0.213   5.355  0.3289 -1.2084 -1.4769
11992SOL    HW239123   6.589   0.203   5.271  1.8992 -0.7231  0.7229
11993SOL     OW39124   3.489   1.839   3.747  0.1906 -0.0998 -0.0107
11993SOL    HW139125   3.409   1.834   3.798 -0.0290 -1.2338 -0.4368
11993SOL    HW239126   3.556   1.801   3.803  0.3219  0.3575  0.1419
11994SOL     OW39127   3.791   4.697   4.229 -0.4072 -0.4050  0.6196
11994SOL    HW139128   3.853   4.654   4.287 -0.9876 -2.0820  0.0499
11994SOL    HW239129   3.798   4.650   4.146 -0.7396  0.9108 -0.1878
11995SOL     OW39130   4.195   6.083   0.930  0.2391  0.2929 -0.1233
11995SOL    HW139131   4.288   6.064   0.946 -0.0685 -0.3565  1.0333
11995SOL    HW239132   4.193   6.118   0.841  1.0967 -3.5976 -1.9080
11996SOL     OW39133   1.989   7.282   7.605  0.2781 -0.2087  0.0307
11996SOL    HW139134   2.040   7.363   7.606  1.8211 -1.1466 -0.1258
11996SOL    HW239135   2.021   7.233   7.681 -1.7404 -0.0555  1.0537
11997SOL     OW39136   5.841   2.029   0.330 -0.0282  0.0665  0.3551
11997SOL    HW139137   5.788   2.107   0.313  0.9582  0.3805 -1.6113
11997SOL    HW239138   5.782   1.956   0.307 -0.1381  0.3565 -0.3320
11998SOL     OW39139   3.386   4.093   7.709 -0.0230 -0.3884  0.0312
11998SOL    HW139140   3.402   4.171   7.654  1.0078 -1.4565 -1.2473
11998SOL    HW239141   3.472   4.053   7.720  0.0752  0.4834  3.6598
11999SOL     OW39142   5.515   7.866   1.164  0.3329 -0.4802 -0.0931
11999SOL    HW139143   5.477   7.951   1.143 -0.1767 -0.7585 -0.3022
11999SOL    HW239144   5.466   7.835   1.240  1.0045 -0.2636  0.4359
12000SOL     OW39145   4.526   3.209   5.338 -0.0374  0.2689  0.0138
12000SOL    HW139146   4.602   3.263   5.358  0.3678 -0.3971  0.3367
12000SOL    HW239147   4.471   3.217   5.416  0.2776 -0.2028  0.2904
12001SOL     OW39148   3.664   7.140   5.444  0.0919 -0.0599  0.1693
12001SOL    HW139149   3.669   7.235   5.456 -1.6893 -0.0135  0.8824
12001SOL    HW239150   3.583   7.126   5.396  1.6611 -1.0949 -2.3894
12002SOL     OW39151   3.527   0.381   4.653 -0.2408  0.3171  0.1811
12002SOL    HW139152   3.609   0.426   4.675 -0.2650  0.2389  0.4364
12002SOL    HW239153   3.538   0.293   4.688  1.0617 -0.9131 -2.9512
12003SOL     OW39154   5.068   5.013   7.706  0.0570 -0.1734  0.1579
12003SOL    HW139155   5.019   4.964   7.772  1.1813 -0.9445  0.4496
12003SOL    HW239156   5.157   4.979   7.712 -0.1059 -1.4251 -2.8353
12004SOL     OW39157   0.577   2.363   4.349  0.2627 -0.7290  0.4436
12004SOL    HW139158   0.521   2.368   4.427  1.0551  1.8208  0.9252
12004SOL    HW239159   0.582   2.453   4.317  1.5380 -1.4137 -1.4431
12005SOL     OW39160   1.757   7.266   3.302  0.2385 -0.7816  0.2241
12005SOL    HW139161   1.680   7.296   3.351  1.1083  1.0574  0.5156
12005SOL    HW239162   1.743   7.297   3.213  0.3571 -1.0034  0.1258
12006SOL     OW39163   1.352   4.348   5.556  0.0865 -0.5205  0.3727
12006SOL    HW139164   1.402   4.382   5.481  1.2552 -0.3090  1.2305
12006SOL    HW239165   1.361   4.253   5.549 -1.1806 -0.6027 -0.6564
12007SOL     OW39166   4.576   0.033   4.772 -0.0037  0.2160  0.0664
12007SOL    HW139167   4.599  -0.053   4.738 -1.2210 -0.1922  0.1977
12007SOL    HW239168   4.656   0.084   4.766  0.2971 -0.3838 -1.7010
12008SOL     OW39169   2.025   1.508   5.561 -0.0226  0.1147  0.1884
12008SOL    HW139170   2.101   1.566   5.560 -0.4086  0.6633  1.4687
12008SOL    HW239171   1.949   1.566   5.559 -0.4337 -0.4103 -0.3183
12009SOL     OW39172   7.781   4.685   5.299 -0.2373 -0.9863  0.5814
12009SOL    HW139173   7.875   4.673   5.284  0.0241 -0.3735  1.6704
12009SOL    HW239174   7.769   4.671   5.393 -1.1370 -0.4282  0.5652
12010SOL     OW39175   1.084   6.162   2.752  0.2962  0.0725 -0.2323
12010SOL    HW139176   1.157   6.129   2.805 -1.0887 -0.6698  1.2870
12010SOL    HW239177   1.069   6.093   2.687 -0.1962 -0.6305  0.6016
12011SOL     OW39178   5.350   4.644   2.090 -0.5947  0.1670 -0.4562
12011SOL    HW139179   5.334   4.549   2.093  0.9470 -0.0913  1.0909
12011SOL    HW239180   5.263   4.682   2.077 -1.5612 -1.3789  0.9470
12012SOL     OW39181   2.437   7.682   3.069  0.5880  0.1330 -0.0577
12012SOL    HW139182   2.461   7.769   3.039  1.5439  0.1909  0.8383
12012SOL    HW239183   2.359   7.696   3.124  0.3541  0.3322 -0.4356
12013SOL     OW39184   0.351   5.325   4.149  0.1610  0.2265 -0.1374
12013SOL    HW139185   0.362   5.420   4.160  1.5355  0.1908 -1.0197
12013SOL    HW239186   0.285   5.301   4.214  1.1215  1.4921  1.3784
12014SOL     OW39187   2.612   4.288   7.262 -0.4759  0.1803  0.0558
12014SOL    HW139188   2.523   4.261   7.282 -0.3018 -0.0044  0.5823
12014SOL    HW239189   2.628   4.364   7.319  0.3208 -0.8714  1.2977
12015SOL     OW39190   2.129   7.202   3.327  0.0522 -0.2735  0.3289
12015SOL    HW139191   2.102   7.292   3.341 -2.2074 -0.7729 -0.4617
12015SOL    HW239192   2.138   7.165   3.415  0.5935  0.5705  0.6459
12016SOL     OW39193   4.505   5.984   5.641  0.3642  0.2737 -0.1722
12016SOL    HW139194   4.555   5.946   5.714  0.6333  0.9900  0.0290
12016SOL    HW239195   4.551   5.956   5.563 -0.0601 -0.6948 -0.0787
12017SOL     OW39196   0.744   7.075   1.543 -0.1006 -0.0606  0.2383
12017SOL    HW139197   0.758   7.164   1.575  1.9994  0.6487 -2.3236
12017SOL    HW239198   0.680   7.084   1.473 -2.2977 -1.1347  1.9727
12018SOL     OW39199   2.477   5.893   2.483  0.3280  0.3438  0.1056
12018SOL    HW139200   2.473   5.923   2.392 -0.8732  1.7743  0.5796
12018SOL    HW239201   2.416   5.951   2.529 -1.7885 -2.5384  1.2359
12019SOL     OW39202   7.654   2.752   1.500 -0.0354 -0.0586  0.3657
12019SOL    HW139203   7.623   2.776   1.587 -0.5595  0.6465 -0.0084
12019SOL    HW239204   7.741   2.714   1.516 -0.4766 -0.7319  1.2739
12020SOL     OW39205   3.051   3.918   7.792 -0.2221  0.3426 -0.3398
12020SOL    HW139206   2.960   3.948   7.795  0.0239  1.0546  0.7977
12020SOL    HW239207   3.066   3.895   7.701 -1.5176  0.2934 -0.5611
12021SOL     OW39208   3.119   6.748   0.452  0.2282  0.9945 -0.7466
12021SOL    HW139209   3.082   6.721   0.368 -0.2896  1.5088 -0.6933
12021SOL    HW239210   3.213   6.732   0.443 -0.0363 -0.7757 -0.7182
12022SOL     OW39211   3.134   4.859   5.547 -0.1613 -0.2671 -0.3372
12022SOL    HW139212   3.071   4.916   5.591  0.9890  0.4829  0.4151
12022SOL    HW239213   3.194   4.920   5.502 -0.6195 -0.9805 -2.0032
12023SOL     OW39214   5.390   5.756   0.160  0.8874  0.0314  0.2196
12023SOL    HW139215   5.468   5.811   0.157 -0.5592  2.2008  0.2538
12023SOL    HW239216   5.356   5.757   0.070 -0.8555  1.8990  0.8212
12024SOL     OW39217   6.549   1.658   0.340  0.1716 -0.3929 -0.3286
12024SOL    HW139218   6.470   1.640   0.392  0.1661 -0.6174 -0.4147
12024SOL    HW239219   6.606   1.707   0.400  1.0476 -2.4213  0.6011
12025SOL     OW39220   1.147   1.581   8.085 -0.7891 -0.0662  0.0207
12025SOL    HW139221   1.057   1.614   8.079 -0.2968  1.4064  0.3032
12025SOL    HW239222   1.201   1.660   8.083  0.3595 -0.6609  3.0718
12026SOL     OW39223   4.943   4.448   7.291  1.2004  0.1687  0.4704
12026SOL    HW139224   4.981   4.377   7.240  2.1904  1.3630 -0.5318
12026SOL    HW239225   4.951   4.420   7.382 -0.2658 -1.8474  0.0333
12027SOL     OW39226   2.531   2.618   6.602 -0.1691  0.5164  0.0757
12027SOL    HW139227   2.587   2.666   6.541  0.0087 -1.0755 -1.0780
12027SOL    HW239228   2.467   2.574   6.547 -1.4096  0.7945  1.2313
12028SOL     OW39229   4.176   0.094   6.323 -0.4440 -0.1165  0.0455
12028SOL    HW139230   4.208   0.121   6.237 -0.2021 -1.7172 -0.3874
12028SOL    HW239231   4.172   0.176   6.373  1.9002  0.5096 -0.6681
12029SOL     OW39232   0.457   0.061   2.595 -0.1248  0.1632 -0.2458
12029SOL    HW139233   0.446  -0.034   2.596 -4.4213  0.4559  0.7757
12029SOL    HW239234   0.420   0.089   2.511  1.1229  0.9778 -0.5560
12030SOL     OW39235   0.844   3.658   6.420 -0.1213  0.6096 -0.3859
12030SOL    HW139236   0.864   3.609   6.500 -0.4196  1.8407  0.4604
12030SOL    HW239237   0.891   3.611   6.351 -0.1516 -0.6865  0.4376
12031SOL     OW39238   0.637   6.915   6.720  0.8095 -0.4313  0.0156
12031SOL    HW139239   0.549   6.896   6.752  0.7029 -0.2332 -0.1545
12031SOL    HW239240   0.628   6.999   6.674  1.3196  0.1635  0.9643
12032SOL     OW39241   6.220   3.359   0.076  0.5404  0.0268 -0.4081
12032SOL    HW139242   6.153   3.338   0.011 -0.0767 -2.9106  1.0387
12032SOL    HW239243   6.172   3.402   0.147  0.3161 -1.2516  0.2301
12033SOL     OW39244   2.526   5.890   5.478  0.6356  0.0628 -0.1246
12033SOL    HW139245   2.521   5.970   5.530 -0.3733  0.6612 -1.0984
12033SOL    HW239246   2.518   5.819   5.542 -0.2776  0.7730  0.5694
12034SOL     OW39247   7.762   4.289   3.762  0.1982 -0.4592  0.0870
12034SOL    HW139248   7.717   4.255   3.685 -1.0946 -1.3772  1.1954
12034SOL    HW239249   7.852   4.259   3.751  0.2374  0.1128 -1.4339
12035SOL     OW39250   0.078   5.531   2.955  0.0401  0.0534  0.0876
12035SOL    HW139251   0.031   5.523   2.872  0.5740 -1.8288 -0.0655
12035SOL    HW239252   0.170   5.532   2.931  0.1807  0.8118  0.5966
12036SOL     OW39253   3.059   3.718   5.590 -0.1661 -0.8181 -0.1527
12036SOL    HW139254   2.994   3.786   5.607 -0.6614 -1.3315  0.0438
12036SOL    HW239255   3.050   3.657   5.664 -1.7694 -2.6364 -1.7467
12037SOL     OW39256   0.949   3.536   0.572  0.6470 -0.7963 -0.4975
12037SOL    HW139257   0.976   3.451   0.607  0.7791 -0.4525  0.2614
12037SOL    HW239258   1.031   3.586   0.568  0.8768 -1.2767 -2.6445
12038SOL     OW39259   1.871   5.945   5.752 -0.1171  0.2169 -0.1091
12038SOL    HW139260   1.793   5.987   5.789 -0.3627  1.5560 -2.0127
12038SOL    HW239261   1.939   5.959   5.818 -1.1850  0.0182  1.0813
12039SOL     OW39262   7.377   4.757   3.155  0.5805 -0.1235  0.4819
12039SOL    HW139263   7.295   4.715   3.130  0.5889 -0.0838  0.3877
12039SOL    HW239264   7.445   4.702   3.118  0.6152 -0.5546  1.1707
12040SOL     OW39265   1.287   1.288   0.656  0.6704 -0.1903  0.7151
12040SOL    HW139266   1.356   1.354   0.645  0.4910  0.1147  1.3311
12040SOL    HW239267   1.269   1.257   0.568 -0.2794  1.6379  0.2018
12041SOL     OW39268   4.032   4.451   4.141 -0.4071 -0.2268 -0.2982
12041SOL    HW139269   3.960   4.407   4.097 -0.9064  1.2958 -1.0772
12041SOL    HW239270   4.075   4.502   4.072  0.4530  0.1002  0.4525
12042SOL     OW39271   2.600   1.233   1.950  0.8437  0.0257  0.2225
12042SOL    HW139272   2.528   1.187   1.906  0.1758  0.7138  0.5737
12042SOL    HW239273   2.669   1.237   1.884 -1.6515  5.0874 -2.7257
12043SOL     OW39274   0.470   2.457   0.504  0.1205 -0.3599  0.1103
12043SOL    HW139275   0.380   2.488   0.514 -0.0101 -0.3931 -0.8024
12043SOL    HW239276   0.481   2.391   0.573 -1.2979 -1.9396 -1.0732
12044SOL     OW39277   2.752   2.379   5.166 -0.2847  0.9137  0.3797
12044SOL    HW139278   2.767   2.289   5.196  1.4649  0.2305 -2.1664
12044SOL    HW239279   2.800   2.433   5.228 -1.6742  0.1898  2.1762
12045SOL     OW39280   3.325   6.901   6.440 -0.1081  0.5655  0.2486
12045SOL    HW139281   3.333   6.995   6.451 -0.0751  0.4198  1.6448
12045SOL    HW239282   3.328   6.887   6.345 -2.6337  2.1749 -0.1508
12046SOL     OW39283   2.572   0.821   6.786  0.4834  0.0022 -0.1116
12046SOL    HW139284   2.578   0.726   6.785 -0.5273 -0.0620 -0.2980
12046SOL    HW239285   2.539   0.842   6.874 -1.5538  0.0273 -0.8473
12047SOL     OW39286   0.064   7.909   6.131 -0.3160 -0.6349 -0.6494
12047SOL    HW139287   0.081   7.856   6.053 -0.6760 -0.8483 -0.5855
12047SOL    HW239288  -0.031   7.912   6.137 -0.2902 -1.0178  0.0528
12048SOL     OW39289   5.377   5.800   4.944  0.1378  0.0678  0.9888
12048SOL    HW139290   5.373   5.829   5.036 -1.4409 -0.3412  1.0722
12048SOL    HW239291   5.400   5.707   4.950 -0.6755 -0.1403  1.0252
12049SOL     OW39292   3.004   5.179   3.439  0.3340 -0.0383  0.1718
12049SOL    HW139293   2.983   5.090   3.411  1.2680 -0.8794  1.9482
12049SOL    HW239294   3.077   5.205   3.382  0.3200 -0.5828 -0.1018
12050SOL     OW39295   1.011   0.922   6.368 -1.1068  0.3252 -0.3337
12050SOL    HW139296   1.083   0.966   6.415 -0.8824  1.1634 -1.4225
12050SOL    HW239297   0.952   0.894   6.437 -0.1355  0.3524  0.5394
12051SOL     OW39298   0.159   3.426   0.022  0.0496 -0.2140 -0.1932
12051SOL    HW139299   0.251   3.405   0.035 -0.3499 -3.9407 -1.9134
12051SOL    HW239300   0.151   3.440  -0.072 -1.0982  0.3462 -0.0246
12052SOL     OW39301   6.033   3.440   5.904  0.5238  0.0581  0.1253
12052SOL    HW139302   5.986   3.523   5.897 -2.3554 -1.4983 -0.5209
12052SOL    HW239303   6.020   3.413   5.995  3.9461  1.5072  1.2425
12053SOL     OW39304   3.146   4.988   0.932 -0.1381  0.3833 -0.3712
12053SOL    HW139305   3.220   4.945   0.889 -1.1315  0.0953 -1.8697
12053SOL    HW239306   3.070   4.966   0.877 -1.0971  1.8998  0.2865
12054SOL     OW39307   6.620   4.262   1.291  0.0423 -0.2062 -0.1893
12054SOL    HW139308   6.527   4.285   1.299  0.1638  0.4308 -0.6083
12054SOL    HW239309   6.631   4.238   1.199  0.0568 -1.3773  0.0975
12055SOL     OW39310   0.748   5.084   2.160 -0.5008 -0.2975  0.0660
12055SOL    HW139311   0.832   5.038   2.164  0.3298  0.9121 -1.9631
12055SOL    HW239312   0.762   5.164   2.211 -1.0609 -0.9657  1.3017
12056SOL     OW39313   6.901   5.151   6.451 -0.3278 -0.6208  0.4980
12056SOL    HW139314   6.950   5.208   6.510  0.2550 -0.4286 -0.1538
12056SOL    HW239315   6.810   5.170   6.470 -0.1491 -0.8159  1.5751
12057SOL     OW39316   1.877   4.767   3.614  0.0689 -0.7800  0.4164
12057SOL    HW139317   1.929   4.801   3.541  1.0876 -0.7371  1.1441
12057SOL    HW239318   1.852   4.679   3.586  1.9307 -1.4557  0.6778
12058SOL     OW39319   1.467   1.842   0.741 -0.0877  0.1122  0.3581
12058SOL    HW139320   1.411   1.877   0.672  0.6600  0.3337 -0.1530
12058SOL    HW239321   1.476   1.750   0.720  0.9594  0.3797 -0.4370
12059SOL     OW39322   0.435   7.572   1.721  0.3974  0.6164 -0.2427
12059SOL    HW139323   0.392   7.490   1.746  3.1014 -1.3617 -1.5116
12059SOL    HW239324   0.447   7.565   1.626 -0.2359  3.0386 -0.5752
12060SOL     OW39325   7.095   0.737   6.889  0.0045 -0.4436 -0.1191
12060SOL    HW139326   7.107   0.655   6.938  1.3194  0.3159  0.9126
12060SOL    HW239327   7.166   0.737   6.825 -1.5017 -1.2666 -1.8729
12061SOL     OW39328   4.537   0.597   2.594  0.4053  0.2757 -0.0102
12061SOL    HW139329   4.512   0.689   2.597  1.7445  0.6446  0.1378
12061SOL    HW239330   4.572   0.585   2.506 -0.1151 -0.2019 -0.1617
12062SOL     OW39331   0.258   2.259   1.532 -0.3064  0.1202  0.2989
12062SOL    HW139332   0.236   2.300   1.616 -0.3638  1.9405 -0.5784
12062SOL    HW239333   0.353   2.269   1.525 -0.1837 -0.7864  0.5038
12063SOL     OW39334   8.077   7.039   0.876 -0.1732 -0.0518 -0.2592
12063SOL    HW139335   8.078   6.990   0.794  1.6964 -0.2752 -0.1544
12063SOL    HW239336   8.158   7.090   0.874 -0.1169 -0.0297  1.4318
12064SOL     OW39337   0.121   6.047   5.409 -0.0957 -0.2128  0.3197
12064SOL    HW139338   0.066   6.120   5.379  0.7037  0.4887  0.5125
12064SOL    HW239339   0.124   5.987   5.335  0.0005  0.4012 -0.1812
12065SOL     OW39340   7.153   5.112   1.739  0.8907  0.0621 -0.2253
12065SOL    HW139341   7.226   5.124   1.799  0.6308 -2.8313  0.8457
12065SOL    HW239342   7.194   5.090   1.655  1.3850 -2.0991  0.5024
12066SOL     OW39343   5.454   2.589   5.600  0.4246  0.0797 -0.0186
12066SOL    HW139344   5.550   2.591   5.603  0.4566 -1.1398  0.0378
12066SOL    HW239345   5.430   2.501   5.628 -0.6299 -0.2571 -1.7803
12067SOL     OW39346   7.260   4.067   2.020 -0.0411  0.4847  0.5486
12067SOL    HW139347   7.257   3.974   2.040 -0.8728  0.2429 -0.6253
12067SOL    HW239348   7.324   4.075   1.949  0.2540  0.8522  0.8523
12068SOL     OW39349   6.754   1.312   3.928 -0.0330 -0.3565 -0.1801
12068SOL    HW139350   6.768   1.296   4.021 -1.6996 -1.8002 -0.1402
12068SOL    HW239351   6.685   1.378   3.926  0.5888  0.3012 -0.4126
12069SOL     OW39352   6.719   6.767   1.535  0.4503 -0.1696  0.1427
12069SOL    HW139353   6.626   6.788   1.533  0.0493 -1.5382  2.0952
12069SOL    HW239354   6.761   6.846   1.571 -0.0990  0.0010  0.4106
12070SOL     OW39355   6.373   4.269   6.601  0.1308  0.1495 -0.3155
12070SOL    HW139356   6.310   4.277   6.529  0.6240 -2.4066 -1.1403
12070SOL    HW239357   6.373   4.355   6.642 -2.5152  0.7825 -1.4108
12071SOL     OW39358   6.819   3.077   7.718 -1.0325  0.6878  0.3241
12071SOL    HW139359   6.879   3.100   7.789 -0.5237  0.3066  0.0293
12071SOL    HW239360   6.734   3.112   7.745 -0.9825  0.0143  1.4127
12072SOL     OW39361   3.208   3.238   0.934 -0.0463 -0.4501 -0.0222
12072SOL    HW139362   3.146   3.166   0.926 -1.5376  0.8490 -0.9376
12072SOL    HW239363   3.153   3.317   0.938  1.4446  0.5773  2.5661
12073SOL     OW39364   4.832   1.923   5.448  0.1274  0.3514  0.4790
12073SOL    HW139365   4.783   1.964   5.519  0.3021  0.3797  0.5837
12073SOL    HW239366   4.907   1.883   5.491  0.0610  0.0884  0.3512
12074SOL     OW39367   4.060   3.255   3.888  0.4769  0.6114  0.1954
12074SOL    HW139368   4.125   3.198   3.930 -0.8242 -0.1982  1.2151
12074SOL    HW239369   4.078   3.248   3.795  1.1552 -0.4862  0.3916
12075SOL     OW39370   1.592   1.494   5.017 -0.5707  0.2905 -0.3709
12075SOL    HW139371   1.539   1.418   5.042 -0.1368  0.4564  1.2016
12075SOL    HW239372   1.681   1.461   5.011 -0.3668  0.6618  0.4067
12076SOL     OW39373   3.195   4.469   2.592 -0.3074  0.3176  0.1000
12076SOL    HW139374   3.179   4.406   2.522 -0.0873  1.2145 -0.7702
12076SOL    HW239375   3.258   4.424   2.650 -0.0676 -0.2209 -0.5597
12077SOL     OW39376   4.762   2.000   4.244  0.3528 -0.1176 -0.0242
12077SOL    HW139377   4.724   1.925   4.289  1.2354 -0.5440  0.0377
12077SOL    HW239378   4.809   1.962   4.169 -0.1519  0.4824 -0.6534
12078SOL     OW39379   7.837   0.486   8.064 -0.3160 -0.4252 -0.2430
12078SOL    HW139380   7.907   0.541   8.027  0.3335 -0.0951  1.4003
12078SOL    HW239381   7.882   0.408   8.095 -0.8876 -0.8135 -0.3921
12079SOL     OW39382   3.495   2.647   3.843  0.5866 -0.1938 -0.3102
12079SOL    HW139383   3.402   2.655   3.819  0.6664 -0.2667 -0.6552
12079SOL    HW239384   3.517   2.556   3.824  0.1640 -0.7878  1.8736
12080SOL     OW39385   3.735   7.188   1.489  0.0594  0.0131 -0.3514
12080SOL    HW139386   3.814   7.153   1.448 -1.5891 -2.2876 -1.8170
12080SOL    HW239387   3.711   7.263   1.434  0.8288  0.3178 -0.2858
12081SOL     OW39388   1.067   7.267   0.562 -0.2482 -0.2929  0.2022
12081SOL    HW139389   1.090   7.326   0.491  1.7721 -1.2500  0.0011
12081SOL    HW239390   1.027   7.191   0.518 -0.6486 -0.1163  0.2560
12082SOL     OW39391   1.569   2.073   4.330  0.2732 -0.3244 -0.4342
12082SOL    HW139392   1.646   2.081   4.385 -0.7137 -1.4965  1.2147
12082SOL    HW239393   1.522   1.997   4.365 -3.1248  2.0014  0.6482
12083SOL     OW39394   1.490   3.991   2.721  0.3882  0.6500 -0.5937
12083SOL    HW139395   1.412   4.030   2.761 -0.5040 -1.6381  0.0365
12083SOL    HW239396   1.543   3.960   2.795 -1.0535 -3.2030 -0.9416
12084SOL     OW39397   4.992   7.208   2.544  0.2050  0.1743 -0.4641
12084SOL    HW139398   5.015   7.117   2.524  2.1241  0.7933 -1.3864
12084SOL    HW239399   5.036   7.226   2.627 -1.6011 -0.2121  0.6103
12085SOL     OW39400   4.735   5.296   3.955  0.0147  0.4249 -0.6784
12085SOL    HW139401   4.673   5.347   4.008 -0.1168 -0.5956  0.1734
12085SOL    HW239402   4.684   5.269   3.879 -0.4650  0.0087 -0.2228
12086SOL     OW39403   5.625   6.122   1.908  0.3507  0.0889 -0.3457
12086SOL    HW139404   5.544   6.076   1.928  0.7972 -0.2368  0.7495
12086SOL    HW239405   5.673   6.063   1.851  0.9522 -0.8765  1.1087
12087SOL     OW39406   7.698   3.156   7.444  0.4910 -0.4956 -0.8892
12087SOL    HW139407   7.735   3.192   7.525 -0.5495 -0.5140 -0.3905
12087SOL    HW239408   7.773   3.150   7.384  0.9986  0.9152 -0.4363
12088SOL     OW39409   7.427   2.890   2.010 -1.0832  0.1077 -0.2215
12088SOL    HW139410   7.438   2.862   2.101  0.4100 -0.9528 -0.6923
12088SOL    HW239411   7.490   2.960   1.998 -2.2058  1.1793 -0.1085
12089SOL     OW39412   1.967   6.169   7.522 -0.1086  0.2003 -0.3017
12089SOL    HW139413   1.964   6.262   7.499  0.2405  0.2584 -0.1247
12089SOL    HW239414   2.059   6.153   7.544 -0.3632  0.0738  0.7178
12090SOL     OW39415   5.496   6.616   4.654  0.1775 -0.1643  0.1804
12090SOL    HW139416   5.460   6.662   4.730  0.5779 -1.6273  1.3092
12090SOL    HW239417   5.484   6.523   4.674  0.4140 -0.6076 -1.5017
12091SOL     OW39418   5.440   5.243   5.367 -0.6191  0.0768  0.0755
12091SOL    HW139419   5.449   5.147   5.362 -1.8037 -0.1504  1.4554
12091SOL    HW239420   5.530   5.274   5.380  0.0534 -0.6334 -2.3162
12092SOL     OW39421   5.996   2.131   6.630  0.4251 -0.1074 -0.3512
12092SOL    HW139422   5.911   2.156   6.666 -0.3430 -0.5907 -1.7316
12092SOL    HW239423   6.060   2.173   6.687 -0.7403  0.5430  0.5205
12093SOL     OW39424   1.240   6.395   1.301 -0.2109 -0.0705 -0.4045
12093SOL    HW139425   1.150   6.372   1.276 -1.2338  1.8496  1.2194
12093SOL    HW239426   1.279   6.429   1.220 -0.9970 -0.7659 -1.0992
12094SOL     OW39427   4.161   8.019   4.874  0.0741 -0.1963 -0.9278
12094SOL    HW139428   4.159   8.105   4.917  2.5288 -0.6194  0.2323
12094SOL    HW239429   4.078   7.978   4.897 -0.1133  0.9507  0.5819
12095SOL     OW39430   4.641   4.117   5.134 -0.3752 -0.0214 -0.1699
12095SOL    HW139431   4.673   4.206   5.153 -0.7725  0.0692  0.1036
12095SOL    HW239432   4.708   4.059   5.171  0.0012  0.1661 -0.5592
12096SOL     OW39433   0.143   4.971   2.335 -0.4871  0.1129 -0.8977
12096SOL    HW139434   0.212   4.959   2.269 -1.7405 -1.6446 -1.9699
12096SOL    HW239435   0.189   4.957   2.418  0.8331  0.9044 -1.4548
12097SOL     OW39436   0.737   2.165   7.107 -0.6769 -0.5345 -0.5054
12097SOL    HW139437   0.811   2.113   7.140 -1.5164 -2.1623 -1.0903
12097SOL    HW239438   0.735   2.147   7.013  0.8945  3.0415 -1.3999
12098SOL     OW39439   0.721   0.416   7.786  0.0766  0.1672  0.5777
12098SOL    HW139440   0.734   0.352   7.856 -0.4382  0.9341  1.4049
12098SOL    HW239441   0.724   0.501   7.831 -1.2417  0.6318 -0.1730
12099SOL     OW39442   3.988   6.612   6.865 -0.4994 -0.3742  0.4581
12099SOL    HW139443   4.064   6.620   6.806 -0.0569  1.4632  1.2048
12099SOL    HW239444   3.920   6.574   6.810 -0.0591  1.1241 -1.2544
12100SOL     OW39445   0.570   7.822   2.318 -0.1502  0.0788  0.1787
12100SOL    HW139446   0.499   7.790   2.262  0.2840  0.3777 -0.5588
12100SOL    HW239447   0.650   7.797   2.272  0.2092  1.0963  0.2252
12101SOL     OW39448   1.405   4.696   7.126  0.7195  0.4662 -0.1227
12101SOL    HW139449   1.341   4.738   7.183  1.3411  1.3291 -0.0391
12101SOL    HW239450   1.353   4.664   7.052  0.0172  0.0124  0.5499
12102SOL     OW39451   7.595   1.347   3.838  0.1163 -0.2733  0.0246
12102SOL    HW139452   7.690   1.356   3.825  0.4905 -1.5927  1.4770
12102SOL    HW239453   7.566   1.434   3.866  1.1466 -0.1667  0.8157
12103SOL     OW39454   1.458   2.258   3.395  0.5527  0.0582  0.0259
12103SOL    HW139455   1.506   2.196   3.449  0.5893 -0.0120 -0.0883
12103SOL    HW239456   1.475   2.343   3.435  0.0756 -0.0607  0.5036
12104SOL     OW39457   2.337   6.975   5.655  0.4686 -0.6553  0.2568
12104SOL    HW139458   2.365   6.886   5.632  1.0026 -1.2860  2.9284
12104SOL    HW239459   2.411   7.010   5.706 -0.3878  0.7036  0.6173
12105SOL     OW39460   2.316   4.793   4.063  0.3520 -0.2560  0.6671
12105SOL    HW139461   2.333   4.706   4.099  0.1063 -0.6571 -0.1516
12105SOL    HW239462   2.226   4.788   4.031  0.0379  0.5785  1.3891
12106SOL     OW39463   3.750   6.109   7.835  0.5451  0.0218  0.1807
12106SOL    HW139464   3.665   6.065   7.835  0.0066  1.0474  0.1515
12106SOL    HW239465   3.797   6.070   7.761 -1.0949  1.6900 -1.8564
12107SOL     OW39466   7.159   0.953   5.755  0.4232  0.6643 -0.3286
12107SOL    HW139467   7.190   0.867   5.727  1.1473  0.3819  1.1980
12107SOL    HW239468   7.118   0.991   5.677 -0.1051 -1.1331 -0.9754
12108SOL     OW39469   6.234   1.019   4.585  1.0629  0.4379  0.5081
12108SOL    HW139470   6.277   0.937   4.563  2.4126  0.9503  1.0786
12108SOL    HW239471   6.293   1.086   4.550  0.9525  1.1768  1.6776
12109SOL     OW39472   4.765   2.315   3.209 -0.5679 -0.0759  0.2991
12109SOL    HW139473   4.745   2.221   3.207 -2.1105  0.2246  0.2958
12109SOL    HW239474   4.684   2.356   3.239 -0.0724  1.3053 -0.1776
12110SOL     OW39475   6.058   5.406   2.066  0.3067 -0.2662  0.5287
12110SOL    HW139476   5.990   5.451   2.116 -1.0611 -2.3167  0.6517
12110SOL    HW239477   6.085   5.334   2.123  1.7589 -0.1621 -0.0085
12111SOL     OW39478   3.563   1.038   2.496  0.2250 -0.2291 -0.3975
12111SOL    HW139479   3.507   1.073   2.426 -0.3769 -1.8369 -0.7667
12111SOL    HW239480   3.512   1.051   2.576  0.2150  0.1537 -0.4638
12112SOL     OW39481   5.620   2.017   0.788 -0.1282  0.0631 -0.6350
12112SOL    HW139482   5.569   2.025   0.707 -1.1446  1.3649  0.1123
12112SOL    HW239483   5.574   1.950   0.839 -1.4753  1.6205  0.2727
12113SOL     OW39484   6.919   5.048   5.072  0.3143  0.1442  0.4328
12113SOL    HW139485   6.986   4.997   5.026 -0.4799 -1.9006  1.3913
12113SOL    HW239486   6.924   5.018   5.163 -1.9055 -0.1363  0.5250
12114SOL     OW39487   2.330   4.891   1.830 -0.3749 -0.1018  0.1265
12114SOL    HW139488   2.385   4.962   1.797 -1.8470  0.8669 -0.3321
12114SOL    HW239489   2.242   4.927   1.829 -1.1884 -2.0175 -0.2945
12115SOL     OW39490   0.644   7.075   5.939 -0.3459  0.4018  0.0246
12115SOL    HW139491   0.617   7.162   5.908  0.4530  0.4476 -0.5872
12115SOL    HW239492   0.563   7.032   5.965 -0.7166  1.4905  0.7611
12116SOL     OW39493   3.024   5.131   5.947 -0.0718 -0.1711  0.1115
12116SOL    HW139494   2.957   5.147   5.880  0.1171  2.5025  0.4611
12116SOL    HW239495   2.977   5.092   6.020 -0.9681  0.2128 -0.2508
12117SOL     OW39496   0.198   7.937   0.517  0.3431 -0.2043  0.6658
12117SOL    HW139497   0.198   7.940   0.421 -2.2233 -0.8602  0.5755
12117SOL    HW239498   0.290   7.946   0.541  1.3536 -2.3005 -1.9195
12118SOL     OW39499   7.719   2.072   2.264 -0.5480 -0.1895 -0.6324
12118SOL    HW139500   7.681   1.985   2.262  0.6383 -0.7687  0.5300
12118SOL    HW239501   7.810   2.058   2.292 -0.0862  1.3319 -1.2505
12119SOL     OW39502   1.795   0.004   5.842 -0.2702  0.0344  0.1382
12119SOL    HW139503   1.755   0.089   5.858 -0.3007 -0.0888  0.7091
12119SOL    HW239504   1.725  -0.049   5.806 -0.3310  0.1561  0.0760
12120SOL     OW39505   6.010   0.546   1.202 -0.0984  0.0601  0.2978
12120SOL    HW139506   5.921   0.557   1.234  0.3024  0.3777  1.3346
12120SOL    HW239507   6.064   0.599   1.261  1.1408 -2.3582  1.4996
12121SOL     OW39508   5.388   0.569   1.098  0.0091 -0.3467 -0.2292
12121SOL    HW139509   5.476   0.607   1.104  0.1587 -0.0345 -3.0359
12121SOL    HW239510   5.394   0.507   1.025 -2.5040  1.0838 -1.7960
12122SOL     OW39511   0.973   3.071   4.501 -0.0917  0.6030 -0.5905
12122SOL    HW139512   0.999   3.131   4.432 -1.4871  2.1019  0.1239
12122SOL    HW239513   1.046   3.072   4.563 -0.0464  1.4658 -0.6516
12123SOL     OW39514   1.527   4.490   6.593 -0.0303 -0.5608  0.1932
12123SOL    HW139515   1.572   4.519   6.673 -1.5893  1.5904  0.3724
12123SOL    HW239516   1.597   4.474   6.530  1.0798  1.5944  0.7967
12124SOL     OW39517   2.615   6.320   0.668 -0.2471  0.0961  0.0462
12124SOL    HW139518   2.658   6.251   0.617  0.0017 -0.0845  0.4946
12124SOL    HW239519   2.591   6.386   0.604 -1.7039 -1.0005 -0.6158
12125SOL     OW39520   5.733   4.821   5.742  0.0399  0.5843 -0.0801
12125SOL    HW139521   5.661   4.765   5.712 -0.6714  1.9760 -1.0463
12125SOL    HW239522   5.731   4.814   5.838 -2.1016  1.4373 -0.0144
12126SOL     OW39523   3.401   3.017   6.755 -0.2780 -0.0648  0.7686
12126SOL    HW139524   3.435   3.006   6.844 -0.3971  0.6368  0.9034
12126SOL    HW239525   3.412   3.110   6.736 -0.8076 -0.0965  0.2751
12127SOL     OW39526   4.356   5.136   5.602 -0.0669 -0.3466 -0.3128
12127SOL    HW139527   4.316   5.058   5.563  0.7780  0.5448 -3.2096
12127SOL    HW239528   4.325   5.135   5.693 -2.3786 -2.4903 -0.9870
12128SOL     OW39529   1.453   5.292   3.824 -0.3351 -0.1864  0.3388
12128SOL    HW139530   1.405   5.216   3.793  0.6705 -0.3278 -0.9489
12128SOL    HW239531   1.392   5.365   3.815 -1.4322 -0.8419  1.9187
12129SOL     OW39532   5.093   5.946   0.502 -0.8173 -0.3506  0.2627
12129SOL    HW139533   5.004   5.976   0.482 -0.7326 -0.4807 -0.3325
12129SOL    HW239534   5.135   5.935   0.417 -0.4856 -1.0770  0.5066
12130SOL     OW39535   4.650   0.288   5.162 -0.3444 -0.7497 -0.0241
12130SOL    HW139536   4.578   0.348   5.179  0.0815 -0.1271 -0.3912
12130SOL    HW239537   4.694   0.324   5.085  1.4649 -0.0774  1.2418
12131SOL     OW39538   6.966   1.653   6.795  0.0939 -0.0144  0.0686
12131SOL    HW139539   7.056   1.664   6.828  0.2914 -0.9769 -0.1113
12131SOL    HW239540   6.914   1.635   6.873 -0.3566  2.5820  0.4604
12132SOL     OW39541   7.758   7.848   2.149  0.1328  0.4622  0.3582
12132SOL    HW139542   7.754   7.930   2.198 -0.8537  0.1970  0.7493
12132SOL    HW239543   7.782   7.782   2.214  0.4575  0.3600  0.1388
12133SOL     OW39544   8.026   3.646   1.703 -0.2617 -0.5016  0.4237
12133SOL    HW139545   8.014   3.739   1.722  0.3394 -0.7484  2.0945
12133SOL    HW239546   7.955   3.625   1.641 -1.1954  0.7625  1.0244
12134SOL     OW39547   8.032   7.632   6.560  0.3063  0.1338 -0.3175
12134SOL    HW139548   8.059   7.627   6.652  0.0212  0.0748 -0.2374
12134SOL    HW239549   8.044   7.724   6.537  2.7098 -0.2463 -0.9337
12135SOL     OW39550   0.901   1.295   0.855 -0.0356  0.1054  0.0539
12135SOL    HW139551   0.952   1.357   0.802  0.7069  0.8656  1.5835
12135SOL    HW239552   0.967   1.240   0.897 -0.3322  1.5544  2.6301
12136SOL     OW39553   1.151   3.570   4.922 -0.0479  0.4414 -0.0245
12136SOL    HW139554   1.094   3.533   4.854 -0.0032 -2.4297  1.3427
12136SOL    HW239555   1.235   3.526   4.907  0.2356  0.5185  1.2850
12137SOL     OW39556   5.368   4.390   6.907  0.2061 -0.0608 -0.2036
12137SOL    HW139557   5.324   4.321   6.956  0.5619 -1.3651 -1.6642
12137SOL    HW239558   5.399   4.451   6.975 -0.3173 -1.1812  1.0963
12138SOL     OW39559   4.142   6.618   0.162 -0.4931 -0.5430  0.1365
12138SOL    HW139560   4.074   6.647   0.222 -0.6101 -0.1507 -0.1815
12138SOL    HW239561   4.223   6.625   0.212 -0.3474  1.5486 -0.3107
12139SOL     OW39562   5.880   7.651   3.712 -0.8297 -0.0931 -0.9333
12139SOL    HW139563   5.865   7.577   3.771  2.2678  0.2519  0.4868
12139SOL    HW239564   5.888   7.727   3.770 -0.4786  0.7538 -2.0443
12140SOL     OW39565   5.895   5.371   1.800 -0.4131 -0.6287 -0.0456
12140SOL    HW139566   5.948   5.391   1.877  0.0401 -0.8657 -0.2908
12140SOL    HW239567   5.816   5.330   1.835 -0.4739 -0.1940  0.3308
12141SOL     OW39568   5.052   0.339   7.637 -0.2499 -0.4103  0.8676
12141SOL    HW139569   4.969   0.380   7.662 -0.7682 -0.8993 -0.0245
12141SOL    HW239570   5.093   0.401   7.578  0.6318  0.4080  2.2882
12142SOL     OW39571   0.022   3.162   6.850 -0.3025  0.2188  0.3079
12142SOL    HW139572  -0.038   3.236   6.841  1.9927  1.9866 -1.4624
12142SOL    HW239573   0.081   3.186   6.921 -0.6396 -0.8005  0.9698
12143SOL     OW39574   6.610   2.719   6.578 -0.0382  0.1594 -0.2614
12143SOL    HW139575   6.594   2.813   6.578 -0.9825  0.0329 -1.7637
12143SOL    HW239576   6.529   2.681   6.544 -0.3781 -1.3551  2.0015
12144SOL     OW39577   2.988   1.583   2.393 -0.0076  0.2772 -0.7404
12144SOL    HW139578   3.017   1.670   2.418  1.1099 -0.1448 -0.5237
12144SOL    HW239579   3.019   1.526   2.464  1.0700 -0.5916 -1.8693
12145SOL     OW39580   6.077   1.730   0.496 -0.3947 -0.1591  0.3393
12145SOL    HW139581   6.009   1.671   0.528 -0.8103 -0.2460 -0.6584
12145SOL    HW239582   6.042   1.818   0.512 -0.5330 -0.1987  0.2548
12146SOL     OW39583   5.089   6.694   3.249  0.2772  0.0465  0.6357
12146SOL    HW139584   5.166   6.726   3.297  0.0672 -1.1875  1.8509
12146SOL    HW239585   5.081   6.602   3.275 -1.9723  0.2931  1.0043
12147SOL     OW39586   3.216   0.013   5.114  0.3009 -0.3304 -0.0844
12147SOL    HW139587   3.229   0.068   5.037 -0.5371  0.8399  0.5751
12147SOL    HW239588   3.221  -0.076   5.080  2.0145  0.1104 -1.1300
12148SOL     OW39589   6.723   1.714   1.469 -0.4967  0.0213  1.1101
12148SOL    HW139590   6.655   1.777   1.492 -0.9238 -0.0878  0.1601
12148SOL    HW239591   6.675   1.639   1.433  0.1823  0.5319 -0.9600
12149SOL     OW39592   0.671   3.657   4.574  0.3322 -0.5640 -0.1508
12149SOL    HW139593   0.626   3.741   4.563  0.0479 -0.7711 -0.5745
12149SOL    HW239594   0.632   3.620   4.653  0.8944 -0.0225  0.3928
12150SOL     OW39595   6.606   3.748   6.361 -0.1790  0.0097  0.1079
12150SOL    HW139596   6.701   3.751   6.366  0.0037 -1.8585 -1.1012
12150SOL    HW239597   6.579   3.697   6.438 -0.3078  1.2867  0.9362
12151SOL     OW39598   5.807   5.727   4.115 -0.0752  0.5470  0.3200
12151SOL    HW139599   5.868   5.746   4.186 -2.1807  0.1210  2.3726
12151SOL    HW239600   5.745   5.799   4.116 -0.7910 -0.0394 -0.3277
12152SOL     OW39601   3.218   0.358   7.785 -0.5948  0.1496 -0.6563
12152SOL    HW139602   3.289   0.372   7.848 -1.7485 -0.1304  0.7797
12152SOL    HW239603   3.241   0.413   7.710  1.0506  0.1676 -0.1795
12153SOL     OW39604   7.642   7.540   2.613 -0.0249 -0.5441  0.0500
12153SOL    HW139605   7.603   7.577   2.534 -0.8520 -0.1496  0.6217
12153SOL    HW239606   7.687   7.613   2.655  0.2936 -0.7197  0.0191
12154SOL     OW39607   6.102   0.405   5.685 -0.3252 -0.7344  0.1228
12154SOL    HW139608   6.184   0.455   5.687  0.2866 -1.6304 -1.2456
12154SOL    HW239609   6.044   0.453   5.744  1.2756 -0.2620  1.4150
12155SOL     OW39610   3.258   1.260   3.061 -0.4123 -0.1857 -0.0224
12155SOL    HW139611   3.181   1.210   3.034 -1.2087  1.5435 -1.1518
12155SOL    HW239612   3.222   1.330   3.116  0.5933 -0.3929  0.9418
12156SOL     OW39613   1.590   0.498   4.903 -0.3859  0.2935 -0.0756
12156SOL    HW139614   1.555   0.474   4.989 -0.9352 -3.5422 -1.1466
12156SOL    HW239615   1.516   0.485   4.844  0.5430  0.7580 -1.3700
12157SOL     OW39616   3.568   8.061   3.808 -0.1661  0.2513 -0.2378
12157SOL    HW139617   3.650   8.106   3.827 -0.1815  0.3864 -0.4870
12157SOL    HW239618   3.505   8.131   3.790 -0.3028  0.1443 -0.1786
12158SOL     OW39619   3.416   1.053   6.400  0.2139  0.6219  0.0282
12158SOL    HW139620   3.510   1.049   6.419  0.2013  0.3948  0.0419
12158SOL    HW239621   3.410   1.109   6.322  0.2855  1.3295  0.5230
12159SOL     OW39622   0.050   1.811   1.731  0.4708  0.1495  0.5717
12159SOL    HW139623   0.067   1.886   1.674 -1.1123 -0.0023 -0.1531
12159SOL    HW239624   0.093   1.738   1.687 -1.7738 -0.2224 -1.2151
12160SOL     OW39625   3.769   6.284   6.192 -0.2034  0.7511 -0.0206
12160SOL    HW139626   3.722   6.320   6.267 -2.0280  0.4106 -0.9479
12160SOL    HW239627   3.844   6.342   6.180 -1.0462  2.0402  0.7812
12161SOL     OW39628   3.614   6.099   5.974 -0.0685 -0.2396 -0.0196
12161SOL    HW139629   3.598   6.157   6.049  1.8476  1.8708 -1.1249
12161SOL    HW239630   3.684   6.041   6.002 -0.2032 -0.2958  0.2089
12162SOL     OW39631   0.284   5.980   7.293 -0.4692 -0.4555  0.2604
12162SOL    HW139632   0.312   5.930   7.369 -1.7501 -2.3636 -0.4351
12162SOL    HW239633   0.240   5.916   7.237 -2.6983  1.5326 -0.4623
12163SOL     OW39634   6.396   4.876   2.179  0.0256 -0.1804  0.0744
12163SOL    HW139635   6.318   4.909   2.135 -0.1356  0.5680  0.8766
12163SOL    HW239636   6.422   4.799   2.128 -0.8062 -0.0144 -0.6307
12164SOL     OW39637   3.177   2.519   5.358 -0.0700 -0.5035 -0.4534
12164SOL    HW139638   3.230   2.439   5.362  1.2203  0.3606  1.8276
12164SOL    HW239639   3.202   2.567   5.437 -2.2827  1.2438 -0.7462
12165SOL     OW39640   2.915   6.785   1.320  0.1958 -0.0751 -0.5454
12165SOL    HW139641   2.921   6.693   1.346  0.4970  0.2828  0.6746
12165SOL    HW239642   2.840   6.819   1.368  2.1821  1.2080  1.8944
12166SOL     OW39643   0.803   2.317   2.266  0.3442 -0.2523 -0.1386
12166SOL    HW139644   0.780   2.228   2.242  0.4982 -0.6302  1.0521
12166SOL    HW239645   0.749   2.336   2.343  1.2206  0.2189  0.3831
12167SOL     OW39646   5.987   0.357   4.649  0.3716  0.2806  0.0671
12167SOL    HW139647   5.949   0.296   4.586  0.4888  1.3356 -1.0749
12167SOL    HW239648   5.940   0.440   4.632 -1.2632  0.0767  2.9505
12168SOL     OW39649   5.448   1.934   6.025  0.0339  0.3882  0.2196
12168SOL    HW139650   5.521   1.918   6.084  0.6980  0.5105 -0.5580
12168SOL    HW239651   5.371   1.908   6.075  0.6897 -0.8000  0.6580
12169SOL     OW39652   4.622   7.030   4.308  0.1203  0.3996 -0.2198
12169SOL    HW139653   4.603   7.056   4.399  0.1602  0.9584 -0.3682
12169SOL    HW239654   4.539   6.995   4.277  0.3976 -0.8220  0.3754
12170SOL     OW39655   6.310   0.505   7.822 -0.0054 -0.1904 -0.0005
12170SOL    HW139656   6.233   0.562   7.817 -1.8083 -2.2950  1.4509
12170SOL    HW239657   6.344   0.519   7.911  1.1503  0.4889 -0.5258
12171SOL     OW39658   5.509   0.411   1.896  0.8725  0.0865 -0.3976
12171SOL    HW139659   5.586   0.369   1.858  0.4586 -0.7207 -0.3658
12171SOL    HW239660   5.435   0.375   1.847  0.4949  0.7005 -0.2919
12172SOL     OW39661   0.206   2.781   0.167  0.2697 -0.0589 -0.2071
12172SOL    HW139662   0.287   2.795   0.215  1.0941 -1.7722 -1.0266
12172SOL    HW239663   0.159   2.714   0.218  0.3562 -0.6203 -0.8509
12173SOL     OW39664   1.914   6.539   3.883  0.2255  0.5294  0.4706
12173SOL    HW139665   1.822   6.562   3.898 -0.2472 -0.6585 -0.4715
12173SOL    HW239666   1.942   6.501   3.966 -0.5333 -0.2942  0.3666
12174SOL     OW39667   3.459   1.948   1.967 -0.1806 -0.2295  0.2675
12174SOL    HW139668   3.447   1.886   2.040 -0.3152 -0.9415 -0.3466
12174SOL    HW239669   3.521   1.904   1.909 -2.2857 -0.9978 -1.5060
12175SOL     OW39670   1.860   1.889   2.531  0.7728 -0.1491 -0.0428
12175SOL    HW139671   1.774   1.928   2.518  1.3860  1.1857 -0.2907
12175SOL    HW239672   1.856   1.849   2.618  0.6630  2.0269  1.0034
12176SOL     OW39673   5.690   4.221   4.646  0.5808 -0.1020 -0.3827
12176SOL    HW139674   5.748   4.160   4.690 -0.3849 -0.6498  0.1608
12176SOL    HW239675   5.748   4.285   4.606  1.5016  0.5643  1.8846
12177SOL     OW39676   3.051   4.173   2.243  0.0905  0.0555 -0.0674
12177SOL    HW139677   3.131   4.211   2.280  1.0882 -1.3538 -0.6736
12177SOL    HW239678   3.058   4.190   2.149 -0.2542 -0.2014 -0.1424
12178SOL     OW39679   0.780   1.953   2.324 -0.1802  0.0729 -0.0965
12178SOL    HW139680   0.708   2.015   2.337  0.3915  0.4156  1.6207
12178SOL    HW239681   0.767   1.888   2.392 -1.3878 -2.4008 -2.4714
12179SOL     OW39682   3.356   4.582   4.672 -0.0769 -0.3795 -0.4273
12179SOL    HW139683   3.321   4.628   4.596 -0.9868 -1.1488 -0.4964
12179SOL    HW239684   3.307   4.617   4.746 -0.0440 -0.4909 -0.3522
12180SOL     OW39685   7.078   4.668   6.010 -0.4211 -0.4011 -0.5405
12180SOL    HW139686   7.117   4.721   5.941 -0.7123 -1.3915 -1.4895
12180SOL    HW239687   7.151   4.647   6.069 -0.4072  1.5140  0.1900
12181SOL     OW39688   6.425   7.782   5.952 -0.1703  0.5538 -0.4632
12181SOL    HW139689   6.461   7.825   6.029 -1.3230 -1.2352  1.1642
12181SOL    HW239690   6.483   7.807   5.880 -0.1087  3.7983  0.5622
12182SOL     OW39691   3.007   2.458   7.432  0.1367  0.4237 -0.6411
12182SOL    HW139692   3.047   2.454   7.519  0.3486  0.4471 -0.7381
12182SOL    HW239693   3.049   2.533   7.389 -0.1477  0.5664 -0.6735
12183SOL     OW39694   5.046   2.293   2.246  0.3673 -0.3429 -0.2255
12183SOL    HW139695   5.047   2.361   2.179 -0.0273 -0.5423 -0.4367
12183SOL    HW239696   5.072   2.339   2.326 -0.7066  0.2563 -0.1873
12184SOL     OW39697   6.241   6.105   7.091 -0.0728 -0.4726  0.0313
12184SOL    HW139698   6.285   6.029   7.129 -1.3770 -1.1735  0.1768
12184SOL    HW239699   6.257   6.097   6.997  1.7497  0.3714  0.2128
12185SOL     OW39700   4.204   4.106   6.226 -0.3648 -0.7421  0.5290
12185SOL    HW139701   4.291   4.119   6.188  0.1734 -1.8978  1.3059
12185SOL    HW239702   4.196   4.176   6.291  0.2980 -1.0581  0.9637
12186SOL     OW39703   0.809   5.468   1.507  0.1415  0.1353 -0.3010
12186SOL    HW139704   0.784   5.555   1.475  0.9767 -0.2029 -1.9363
12186SOL    HW239705   0.903   5.474   1.521  0.1999 -0.5237 -0.4164
12187SOL     OW39706   2.831   7.613   4.474  0.2479 -0.5014 -0.0948
12187SOL    HW139707   2.889   7.537   4.464  2.1622  0.7904  0.6909
12187SOL    HW239708   2.845   7.664   4.395  0.2024 -0.1634  0.1142
12188SOL     OW39709   6.071   6.064   5.480 -0.5947  0.5655 -0.1507
12188SOL    HW139710   6.117   5.980   5.485  0.1027  0.9422 -0.0113
12188SOL    HW239711   6.138   6.126   5.449 -1.0923  1.0694 -0.2361
12189SOL     OW39712   3.816   1.185   1.188 -0.6007  0.2806  0.3139
12189SOL    HW139713   3.832   1.191   1.094 -0.1382 -2.3910  0.1319
12189SOL    HW239714   3.721   1.174   1.196 -0.7248  1.2784  0.2245
12190SOL     OW39715   1.783   7.746   6.226 -0.8447  0.0686  0.1084
12190SOL    HW139716   1.746   7.815   6.281 -2.3848 -1.1397  0.6688
12190SOL    HW239717   1.708   7.710   6.178  0.0100 -0.8122 -0.6245
12191SOL     OW39718   3.227   2.620   4.148  0.6044 -0.1206  0.0682
12191SOL    HW139719   3.270   2.543   4.109 -0.4584 -0.8428  0.2951
12191SOL    HW239720   3.159   2.643   4.086 -0.1764 -0.4023  0.8074
12192SOL     OW39721   1.436   7.675   6.792 -0.0079 -0.2490 -1.0213
12192SOL    HW139722   1.355   7.687   6.841  0.4906  1.0335 -0.4542
12192SOL    HW239723   1.484   7.608   6.840 -0.7742 -1.1533 -1.4630
12193SOL     OW39724   3.204   0.425   2.392  0.2220  0.2246  0.2809
12193SOL    HW139725   3.213   0.506   2.343  0.9638 -0.8832 -1.5072
12193SOL    HW239726   3.282   0.423   2.448 -0.0481  0.9514  0.7023
12194SOL     OW39727   4.104   1.573   5.604  0.1755 -0.5776 -0.1348
12194SOL    HW139728   4.163   1.568   5.679 -0.2463 -0.9289  0.1830
12194SOL    HW239729   4.115   1.662   5.570 -0.6158  0.0497  1.1681
12195SOL     OW39730   4.265   3.377   0.368 -0.4929  0.5043  0.1735
12195SOL    HW139731   4.234   3.286   0.366  1.9158 -0.3923 -1.3449
12195SOL    HW239732   4.293   3.391   0.458  0.5043 -0.8371  0.1088
12196SOL     OW39733   6.825   7.171   2.928  0.2118  0.0332  0.1935
12196SOL    HW139734   6.829   7.075   2.933  0.5988 -0.1120 -1.9107
12196SOL    HW239735   6.735   7.192   2.953 -0.1344 -0.9763 -0.1215
12197SOL     OW39736   5.734   4.277   0.081 -0.3353 -0.2091  0.3490
12197SOL    HW139737   5.706   4.185   0.078  2.1569 -1.0537 -3.4672
12197SOL    HW239738   5.819   4.274   0.125  0.0561  0.1529 -0.3727
12198SOL     OW39739   4.294   1.390   3.591 -0.3724 -0.4130 -0.1512
12198SOL    HW139740   4.294   1.449   3.666  0.6331 -1.1369  0.4454
12198SOL    HW239741   4.379   1.346   3.595  0.3493  0.6150 -2.5822
12199SOL     OW39742   2.353   7.179   2.125 -0.3056 -0.1978  0.3943
12199SOL    HW139743   2.408   7.132   2.188 -3.1346 -0.1575  3.1182
12199SOL    HW239744   2.333   7.262   2.167 -2.0643 -0.0412 -0.6457
12200SOL     OW39745   2.203   6.573   2.976  0.0117  0.0355 -0.5850
12200SOL    HW139746   2.118   6.553   2.936 -0.1147 -0.9156  0.1424
12200SOL    HW239747   2.181   6.601   3.065  0.5603 -2.1818  0.3046
12201SOL     OW39748   1.020   5.740   0.700  0.0948 -0.4811 -1.2202
12201SOL    HW139749   0.949   5.803   0.685  0.9009  0.8358  0.1353
12201SOL    HW239750   0.993   5.693   0.779  0.2914 -0.6242 -1.2379
12202SOL     OW39751   5.996   2.308   7.445 -0.2259  0.0623  0.4717
12202SOL    HW139752   6.022   2.281   7.356  0.5271  1.5375  0.2194
12202SOL    HW239753   6.078   2.309   7.495 -0.6516 -0.8023  1.2156
12203SOL     OW39754   3.099   4.958   7.240  0.2035  0.1765 -0.3163
12203SOL    HW139755   3.012   4.996   7.248 -0.3083 -0.5305 -2.1743
12203SOL    HW239756   3.087   4.880   7.187  1.6723 -1.0697  1.0700
12204SOL     OW39757   0.378   4.060   2.894  0.0729 -0.1397 -0.0338
12204SOL    HW139758   0.291   4.044   2.858  0.7331 -1.6046 -1.0561
12204SOL    HW239759   0.432   3.988   2.862  2.5202  2.4356 -2.2243
12205SOL     OW39760   0.591   1.486   5.714 -0.3583 -0.0942 -0.1472
12205SOL    HW139761   0.555   1.543   5.782  0.7109 -0.9731  1.2149
12205SOL    HW239762   0.519   1.429   5.688 -1.1979  1.2620 -0.8876
12206SOL     OW39763   0.469   4.839   4.804 -0.1170 -0.4121 -0.0561
12206SOL    HW139764   0.497   4.777   4.872 -0.9045 -0.5486  0.1543
12206SOL    HW239765   0.545   4.896   4.791  0.3941 -1.0265  0.2031
12207SOL     OW39766   0.580   3.769   6.947 -0.4850 -0.4455  0.1797
12207SOL    HW139767   0.574   3.676   6.926  1.2704 -0.6321  0.3829
12207SOL    HW239768   0.644   3.775   7.017 -1.8753  0.7775  1.4249
12208SOL     OW39769   3.400   3.152   5.696 -0.3139  0.3543 -0.5844
12208SOL    HW139770   3.472   3.100   5.659 -0.8156 -1.5814  1.0232
12208SOL    HW239771   3.432   3.180   5.782 -2.0755 -2.1353  0.9909
12209SOL     OW39772   6.407   2.823   0.391 -0.1484  0.5234  0.4577
12209SOL    HW139773   6.404   2.898   0.333 -1.7578  0.0041 -0.2057
12209SOL    HW239774   6.394   2.859   0.478  1.3771  1.2203  0.4141
12210SOL     OW39775   0.089   7.214   1.163  0.2538  0.3882  0.3880
12210SOL    HW139776   0.138   7.188   1.241  1.6494  1.5885 -0.0390
12210SOL    HW239777  -0.001   7.224   1.193  0.7056  0.5116  1.7630
12211SOL     OW39778   2.694   6.715   8.011 -0.2608 -0.4511  0.2909
12211SOL    HW139779   2.633   6.662   8.061 -0.7121  0.3086  0.5656
12211SOL    HW239780   2.648   6.732   7.928 -0.4907  0.2379  0.5539
12212SOL     OW39781   7.491   5.586   3.909 -0.1247  0.5092  0.2661
12212SOL    HW139782   7.500   5.552   3.998 -2.2872  0.9697  0.7162
12212SOL    HW239783   7.482   5.508   3.854  0.0203  0.2547  0.5963
12213SOL     OW39784   1.111   7.446   4.152 -0.0850  0.6530 -0.0462
12213SOL    HW139785   1.187   7.447   4.210  0.2172 -1.3886 -0.3476
12213SOL    HW239786   1.046   7.395   4.198 -1.2761  2.2752  0.1456
12214SOL     OW39787   7.216   6.767   7.559 -0.6597 -0.1134 -0.3916
12214SOL    HW139788   7.211   6.862   7.567  0.5447  0.1223 -2.0062
12214SOL    HW239789   7.275   6.740   7.630 -0.5419  0.4041 -0.2891
12215SOL     OW39790   7.991   0.396   0.322 -0.9100 -0.3632  0.0424
12215SOL    HW139791   8.037   0.397   0.406  0.2885 -1.4487 -0.5663
12215SOL    HW239792   8.030   0.467   0.271  0.1796 -1.3103 -0.4891
12216SOL     OW39793   1.184   6.193   3.913 -0.1963 -1.0055 -0.7204
12216SOL    HW139794   1.179   6.116   3.970  0.9113 -0.9854 -0.5715
12216SOL    HW239795   1.271   6.188   3.873  0.6308  1.0915  0.6398
12217SOL     OW39796   5.452   5.413   7.282  1.1430  0.3132 -0.5619
12217SOL    HW139797   5.511   5.364   7.224  1.0169 -0.7429  0.1770
12217SOL    HW239798   5.486   5.396   7.370  0.0020  0.0414 -0.1558
12218SOL     OW39799   4.423   6.103   7.827 -0.3619 -0.0533 -0.6375
12218SOL    HW139800   4.396   6.078   7.739  0.1020  0.2180 -0.8562
12218SOL    HW239801   4.466   6.188   7.816 -0.3820  0.0252 -0.1374
12219SOL     OW39802   0.146   4.645   3.089 -0.3801  0.7799  0.4007
12219SOL    HW139803   0.209   4.574   3.074 -0.1378  0.4106  2.8057
12219SOL    HW239804   0.195   4.725   3.069 -0.5655  0.3778 -2.0548
12220SOL     OW39805   5.679   1.067   4.557 -0.1333  0.3574  0.3587
12220SOL    HW139806   5.698   1.046   4.648  0.9015 -1.1224 -0.1523
12220SOL    HW239807   5.676   1.162   4.554  0.8474  0.4607  1.7366
12221SOL     OW39808   0.747   4.058   7.391 -0.6235  0.0647  0.7229
12221SOL    HW139809   0.672   4.035   7.446  0.1355 -1.8397  1.0293
12221SOL    HW239810   0.714   4.053   7.301 -1.0672  0.0492  0.8870
12222SOL     OW39811   5.460   4.101   4.582  0.3014  0.4454 -0.3865
12222SOL    HW139812   5.529   4.167   4.585  0.3964  0.3207  1.8051
12222SOL    HW239813   5.505   4.020   4.557  1.0414  0.3421  1.1285
12223SOL     OW39814   1.977   4.462   4.077  0.5294  0.2396 -0.1406
12223SOL    HW139815   2.050   4.400   4.079 -0.0809 -0.6828  4.3462
12223SOL    HW239816   1.901   4.409   4.103 -1.3699  1.6375 -2.5259
12224SOL     OW39817   1.089   0.263   4.034 -0.4295 -0.2714 -0.2560
12224SOL    HW139818   1.169   0.308   4.006 -0.6862 -0.2496 -0.9752
12224SOL    HW239819   1.100   0.173   4.004 -0.5764 -0.3260 -0.1499
12225SOL     OW39820   6.120   1.388   2.876  0.4332 -0.2706 -0.2873
12225SOL    HW139821   6.052   1.434   2.828 -0.0237 -1.5256 -0.8777
12225SOL    HW239822   6.073   1.332   2.938  0.8473 -2.0549 -1.5251
12226SOL     OW39823   8.087   6.357   1.210 -0.2826 -0.6599  0.0748
12226SOL    HW139824   8.181   6.368   1.220 -0.4693  1.2722  0.2216
12226SOL    HW239825   8.070   6.372   1.117 -0.2885 -2.7151 -0.2898
12227SOL     OW39826   3.697   8.004   0.445 -0.0970  0.0917 -1.0385
12227SOL    HW139827   3.666   8.042   0.527  0.4256 -0.7004 -0.4608
12227SOL    HW239828   3.715   8.080   0.389  3.5429  0.9547  1.0152
12228SOL     OW39829   5.184   4.225   3.348 -0.1965 -0.0900 -0.2284
12228SOL    HW139830   5.178   4.164   3.274  2.5639 -1.4186  0.5177
12228SOL    HW239831   5.092   4.243   3.371 -1.1273 -1.8958 -2.1395
12229SOL     OW39832   5.635   0.928   3.348 -0.2545  0.0369  0.3305
12229SOL    HW139833   5.652   0.904   3.257  0.0178 -1.6373  0.7879
12229SOL    HW239834   5.685   1.009   3.362 -1.0432  0.8283 -1.2430
12230SOL     OW39835   3.039   7.152   6.032 -0.0259 -0.2515  0.3010
12230SOL    HW139836   3.041   7.158   5.937  2.2970 -1.1071  0.2171
12230SOL    HW239837   2.981   7.078   6.050  0.9693 -1.2873 -0.5904
12231SOL     OW39838   7.548   7.327   5.057 -0.5364  0.0878 -0.4003
12231SOL    HW139839   7.600   7.256   5.018 -0.7874 -0.4742  0.2818
12231SOL    HW239840   7.607   7.402   5.055 -0.0750 -0.2715 -0.6285
12232SOL     OW39841   3.850   0.006   1.304  0.1776  0.5860 -0.2680
12232SOL    HW139842   3.863  -0.059   1.373 -1.1139  0.7204  0.1309
12232SOL    HW239843   3.761  -0.009   1.273  0.7721  0.4486 -2.0075
12233SOL     OW39844   6.608   2.759   0.083  0.0138 -0.2965  0.3045
12233SOL    HW139845   6.600   2.665   0.064 -1.4741 -0.0369 -0.5233
12233SOL    HW239846   6.573   2.801   0.005  0.9891  0.9700  0.5283
12234SOL     OW39847   0.977   2.931   6.121 -0.0515 -0.5724  0.2519
12234SOL    HW139848   0.936   2.919   6.207 -0.7518  3.2794  0.5955
12234SOL    HW239849   0.904   2.931   6.059  0.3346 -2.0106 -0.2522
12235SOL     OW39850   0.413   2.798   4.765 -0.2878  0.6613 -0.1859
12235SOL    HW139851   0.490   2.775   4.714  0.4032  0.2660  0.9863
12235SOL    HW239852   0.348   2.731   4.742  0.0526  0.4215 -0.4516
12236SOL     OW39853   2.808   0.927   5.678 -0.3047 -0.1242 -0.0583
12236SOL    HW139854   2.777   0.943   5.588 -1.9677 -1.7451  0.1651
12236SOL    HW239855   2.729   0.933   5.732  0.4526 -0.4259  1.1188
12237SOL     OW39856   8.041   7.210   5.854 -0.7028  0.2657  0.1443
12237SOL    HW139857   7.990   7.272   5.906 -0.9919  0.8840 -0.8554
12237SOL    HW239858   8.041   7.130   5.906 -0.2635  1.1009  1.4952
12238SOL     OW39859   2.950   2.535   4.386  0.8379  0.3857  0.2610
12238SOL    HW139860   2.873   2.557   4.438  0.4463  2.9953 -1.2349
12238SOL    HW239861   2.975   2.448   4.415 -1.1247  0.5123  2.6231
12239SOL     OW39862   6.447   1.872   7.924  0.5900 -0.0145 -0.1405
12239SOL    HW139863   6.511   1.831   7.982  0.1042  1.7530  1.7027
12239SOL    HW239864   6.364   1.833   7.949  0.3700  0.7985  0.4141
12240SOL     OW39865   1.488   6.875   2.486 -0.0540  0.2049  0.0156
12240SOL    HW139866   1.507   6.787   2.455 -0.8003 -0.5690  1.6348
12240SOL    HW239867   1.556   6.894   2.550 -0.8322  0.0955  0.9091
12241SOL     OW39868   4.509   7.113   5.136  0.0294 -0.2977 -0.0873
12241SOL    HW139869   4.517   7.044   5.201 -1.1039  0.5178  0.9562
12241SOL    HW239870   4.418   7.142   5.142  0.4144  1.1268 -0.6573
12242SOL     OW39871   2.711   6.148   0.493  0.3248 -0.0441  0.0636
12242SOL    HW139872   2.736   6.113   0.578 -3.0528  0.2033  1.3388
12242SOL    HW239873   2.789   6.141   0.439  2.0103 -2.1327  2.5699
12243SOL     OW39874   4.084   3.579   3.611 -0.0471  0.4960  0.0021
12243SOL    HW139875   3.991   3.604   3.614 -0.5793 -1.1292 -1.5538
12243SOL    HW239876   4.130   3.660   3.590 -1.1372  1.2590  0.4524
12244SOL     OW39877   2.896   5.201   3.053  0.3084  0.4615 -0.6050
12244SOL    HW139878   2.836   5.205   3.127  1.9043  1.6162  0.6778
12244SOL    HW239879   2.862   5.129   2.999 -0.6249 -0.7298  1.4598
12245SOL     OW39880   3.855   0.774   1.897  0.1469 -0.4736  0.3234
12245SOL    HW139881   3.793   0.845   1.880  1.1756  0.1981 -0.7688
12245SOL    HW239882   3.835   0.708   1.831 -1.7516 -1.9313  2.1939
12246SOL     OW39883   0.895   0.937   6.958 -0.0323 -0.6258  0.4001
12246SOL    HW139884   0.959   0.921   7.027 -0.4666 -1.2196  0.6711
12246SOL    HW239885   0.818   0.972   7.003  0.2906  0.6165  0.0109
12247SOL     OW39886   4.616   7.080   1.180 -0.6370  0.3228 -0.5450
12247SOL    HW139887   4.657   7.165   1.161  0.6914  0.5413  2.5697
12247SOL    HW239888   4.526   7.090   1.151 -0.0204  2.0476 -2.0989
12248SOL     OW39889   7.366   1.659   3.126 -0.4844 -0.3422  0.1833
12248SOL    HW139890   7.421   1.621   3.195  1.5167  0.5688 -0.8022
12248SOL    HW239891   7.378   1.600   3.051  0.0279  0.4149 -0.3507
12249SOL     OW39892   7.915   0.059   2.122  0.1021 -0.6245 -0.1878
12249SOL    HW139893   7.947   0.144   2.151  1.2882 -1.0944 -0.0611
12249SOL    HW239894   7.863   0.026   2.196  0.2320 -0.3215  0.0367
12250SOL     OW39895   3.448   1.253   5.906  0.1014 -0.2166 -0.4460
12250SOL    HW139896   3.437   1.346   5.925  0.7905 -0.1062 -0.5949
12250SOL    HW239897   3.365   1.214   5.935  0.6197  0.1068  1.6889
12251SOL     OW39898   5.471   3.862   6.607  0.2631 -0.0406  0.0436
12251SOL    HW139899   5.421   3.782   6.626 -1.0935  0.1834 -2.2063
12251SOL    HW239900   5.540   3.834   6.548  1.5336  0.0449  1.4152
12252SOL     OW39901   1.228   7.387   5.149  0.2504 -0.4128  0.3962
12252SOL    HW139902   1.240   7.458   5.212 -0.3726  1.0121 -1.0193
12252SOL    HW239903   1.293   7.321   5.174  0.4102  0.3679  2.1426
12253SOL     OW39904   7.992   4.523   3.007  0.1437  0.3508  0.1401
12253SOL    HW139905   8.067   4.467   2.989 -0.6569 -0.6909 -0.0732
12253SOL    HW239906   7.999   4.594   2.943  1.2397  0.5884  0.4991
12254SOL     OW39907   3.960   7.336   2.274 -0.9925  0.1201  0.0001
12254SOL    HW139908   3.998   7.422   2.291  1.5086 -1.1269  1.3496
12254SOL    HW239909   3.876   7.337   2.320  0.6381  0.6873  3.2410
12255SOL     OW39910   7.510   1.803   1.929 -0.3014  0.0392 -0.4495
12255SOL    HW139911   7.562   1.875   1.966 -0.0131 -0.6984  0.5959
12255SOL    HW239912   7.550   1.788   1.843  1.4205 -0.6828  0.4312
12256SOL     OW39913   8.004   8.067   0.596  0.6501 -0.3159  0.0911
12256SOL    HW139914   8.058   7.988   0.585 -0.7563 -1.3659  0.3593
12256SOL    HW239915   8.065   8.134   0.625  1.7821 -1.5033  0.5733
12257SOL     OW39916   1.025   3.061   1.064 -0.7954  0.2685 -0.1873
12257SOL    HW139917   1.076   2.991   1.105  2.0617  1.0484 -2.1471
12257SOL    HW239918   0.992   3.113   1.137  0.4240 -0.8403  1.2036
12258SOL     OW39919   2.437   3.060   3.162 -0.3273  0.1095  0.2146
12258SOL    HW139920   2.426   2.982   3.216  1.4899  0.1403  0.6813
12258SOL    HW239921   2.348   3.083   3.135 -1.0891 -0.9786  1.6694
12259SOL     OW39922   6.818   3.739   3.063  0.1148 -0.1886 -0.6663
12259SOL    HW139923   6.855   3.667   3.113 -1.2067  0.6924  1.7656
12259SOL    HW239924   6.835   3.717   2.972  4.2389 -1.0487  0.1424
12260SOL     OW39925   5.013   4.150   1.847 -0.0483 -0.5362 -0.1304
12260SOL    HW139926   4.926   4.114   1.864  0.0290 -1.2651 -1.2117
12260SOL    HW239927   5.019   4.156   1.752  1.2117 -0.8271 -0.0890
12261SOL     OW39928   2.844   7.428   4.139  0.3266 -0.0924 -0.2120
12261SOL    HW139929   2.864   7.464   4.052  2.8137  0.4352  0.5113
12261SOL    HW239930   2.797   7.499   4.183 -0.5328 -0.1888 -0.9318
12262SOL     OW39931   6.593   5.489   2.702  0.2252 -0.1870  0.3321
12262SOL    HW139932   6.511   5.450   2.673  0.5018  0.5469 -1.5404
12262SOL    HW239933   6.656   5.471   2.632  1.3147  0.4199  1.1073
12263SOL     OW39934   5.528   1.200   3.483  0.1326  0.1231  0.3859
12263SOL    HW139935   5.481   1.213   3.565 -1.1867  0.2958 -0.3687
12263SOL    HW239936   5.620   1.215   3.505 -0.0560 -0.8837  2.0510
12264SOL     OW39937   4.668   6.527   5.690  0.1922 -0.2002  0.3523
12264SOL    HW139938   4.576   6.514   5.712 -0.0266  0.8950  0.1176
12264SOL    HW239939   4.695   6.443   5.652 -0.3374 -0.9669  1.6046
12265SOL     OW39940   0.768   7.958   4.408  0.0860 -0.0982  0.2914
12265SOL    HW139941   0.752   8.049   4.381  0.0791 -0.5768 -1.4148
12265SOL    HW239942   0.859   7.942   4.387  0.1565 -0.4306  0.8173
12266SOL     OW39943   6.870   1.689   0.059  0.0220 -0.5823  0.3910
12266SOL    HW139944   6.785   1.653   0.081 -0.0793  0.9042  2.7598
12266SOL    HW239945   6.879   1.674  -0.035 -3.8383  1.1548 -0.4560
12267SOL     OW39946   5.234   3.218   4.445  0.5784 -0.3070 -0.8253
12267SOL    HW139947   5.226   3.140   4.500 -1.8912  1.7101  2.0204
12267SOL    HW239948   5.309   3.266   4.482 -0.0984  0.2932 -0.1965
12268SOL     OW39949   0.657   4.795   3.418 -0.5007  0.0565 -0.3187
12268SOL    HW139950   0.720   4.728   3.444 -2.1360 -0.6411  2.2788
12268SOL    HW239951   0.704   4.877   3.428  0.2740 -0.4843  0.7359
12269SOL     OW39952   4.446   6.166   2.114  0.0601 -0.2145 -0.3841
12269SOL    HW139953   4.444   6.146   2.021  0.0168  0.4529 -0.5345
12269SOL    HW239954   4.427   6.260   2.118  0.9698 -0.0473  0.2354
12270SOL     OW39955   0.165   4.516   3.385 -0.1500 -0.5192  0.3837
12270SOL    HW139956   0.110   4.543   3.459  0.9804  0.2662  0.9555
12270SOL    HW239957   0.177   4.595   3.334  1.5546 -0.3267  1.0039
12271SOL     OW39958   0.982   2.059   7.132  0.3680  0.0909  0.2699
12271SOL    HW139959   1.053   2.049   7.196 -1.6597 -1.0727  2.5017
12271SOL    HW239960   0.974   1.972   7.093 -0.6159 -0.1424  0.9623
12272SOL     OW39961   4.282   1.323   0.287 -0.6142  0.5242  0.3663
12272SOL    HW139962   4.369   1.284   0.290 -0.6479  0.4924  1.3465
12272SOL    HW239963   4.224   1.249   0.269 -0.7763 -0.1463  3.1015
12273SOL     OW39964   1.232   1.214   5.163  0.4937  0.0586 -0.2339
12273SOL    HW139965   1.267   1.279   5.224  0.2164 -0.1058  0.1050
12273SOL    HW239966   1.170   1.263   5.109  0.1717  0.0449  0.1218
12274SOL     OW39967   6.421   2.961   2.912  0.0287  0.4121  0.3352
12274SOL    HW139968   6.483   2.924   2.849 -0.2978  1.1012 -0.4043
12274SOL    HW239969   6.445   2.921   2.995  1.7502  0.9766  0.1540
12275SOL     OW39970   2.103   2.482   6.335  0.7673 -0.0914 -0.5337
12275SOL    HW139971   2.050   2.457   6.259 -1.9749 -1.6517  1.7252
12275SOL    HW239972   2.090   2.577   6.342 -2.8664 -0.5189  0.5627
12276SOL     OW39973   5.396   5.524   6.078 -0.9331  0.1902  0.0595
12276SOL    HW139974   5.393   5.522   6.174 -2.5389 -1.6979  0.0268
12276SOL    HW239975   5.439   5.442   6.055 -0.2629  0.7831 -0.8620
12277SOL     OW39976   4.184   1.625   6.647 -0.3277  0.3775  0.1822
12277SOL    HW139977   4.260   1.671   6.613  0.8023 -1.6273 -0.1108
12277SOL    HW239978   4.164   1.670   6.730  1.2524  0.8398  0.3370
12278SOL     OW39979   0.520   0.858   2.678 -0.1537 -0.4469 -0.1329
12278SOL    HW139980   0.575   0.921   2.724  0.3492 -1.6233  0.9457
12278SOL    HW239981   0.542   0.774   2.717 -2.1754 -1.0586 -0.1770
12279SOL     OW39982   6.380   6.660   2.386  0.0307 -0.0144 -0.3574
12279SOL    HW139983   6.469   6.671   2.419 -0.3669  1.4713  0.2745
12279SOL    HW239984   6.390   6.597   2.314  1.7472  0.9210 -1.0045
12280SOL     OW39985   0.884   6.009   7.277 -0.2231  0.2670 -0.0355
12280SOL    HW139986   0.899   6.043   7.188 -1.6701 -0.5241 -0.6215
12280SOL    HW239987   0.809   5.950   7.267  0.3419 -0.7511  1.5083
12281SOL     OW39988   7.900   7.414   5.337 -0.3164 -0.1428  0.0379
12281SOL    HW139989   7.980   7.396   5.287 -0.1413  2.6589 -0.9145
12281SOL    HW239990   7.832   7.427   5.270 -0.1133  3.4941  0.3034
12282SOL     OW39991   1.440   4.137   1.828 -0.3181  0.0399  0.1386
12282SOL    HW139992   1.345   4.122   1.834 -0.2285 -0.8053 -0.4264
12282SOL    HW239993   1.478   4.068   1.882 -0.0179  0.3518  0.3260
12283SOL     OW39994   0.193   0.560   0.515 -0.0730 -0.2606 -0.0402
12283SOL    HW139995   0.119   0.621   0.517  0.3576  0.3047 -0.8055
12283SOL    HW239996   0.193   0.519   0.602  0.3450  1.6978  0.9324
12284SOL     OW39997   4.486   6.055   6.545  0.4457 -0.8159 -0.0250
12284SOL    HW139998   4.393   6.034   6.538  0.2635  0.3599 -1.9513
12284SOL    HW239999   4.491   6.120   6.616 -0.1783 -1.0224  0.2127
12285SOL     OW40000   6.357   4.661   7.795  0.1094  0.5742 -0.0736
12285SOL    HW140001   6.358   4.623   7.707  2.4287 -2.0845  0.9581
12285SOL    HW240002   6.271   4.640   7.830 -0.2243  0.1704 -1.1120
12286SOL     OW40003   2.784   4.176   6.025 -0.1827  0.3930 -0.3292
12286SOL    HW140004   2.731   4.164   5.947 -0.6029  0.1170 -0.0007
12286SOL    HW240005   2.871   4.143   6.001 -0.2824  0.4064 -0.7079
12287SOL     OW40006   3.495   4.379   2.502 -0.2614  0.0094  0.2505
12287SOL    HW140007   3.467   4.373   2.594 -0.8962  0.8233  0.1201
12287SOL    HW240008   3.493   4.472   2.483 -5.3525 -0.2482 -2.1223
12288SOL     OW40009   6.087   1.808   3.043 -0.2084 -0.5376  0.1366
12288SOL    HW140010   6.019   1.859   2.998 -0.1353 -1.4741 -1.0782
12288SOL    HW240011   6.045   1.724   3.062  0.1230 -0.5528  0.8544
12289SOL     OW40012   7.639   2.599   6.181  0.2636 -0.0567  0.1646
12289SOL    HW140013   7.677   2.686   6.193  0.6478 -0.2772  0.5940
12289SOL    HW240014   7.713   2.543   6.158  0.1748 -0.4524  0.8246
12290SOL     OW40015   7.025   2.167   3.968  0.0844 -0.3052  0.3689
12290SOL    HW140016   6.977   2.245   3.938 -0.3861  0.6136  3.2066
12290SOL    HW240017   7.111   2.200   3.992  0.8375 -1.2284 -0.9541
12291SOL     OW40018   3.731   4.075   5.027 -0.1626 -0.6612  0.2862
12291SOL    HW140019   3.756   4.054   4.937 -1.8592  0.0589 -0.3872
12291SOL    HW240020   3.807   4.120   5.063  0.0255  0.3105 -1.2458
12292SOL     OW40021   5.617   6.848   5.023 -0.2371 -0.2585 -0.2990
12292SOL    HW140022   5.611   6.889   4.937 -1.0809 -0.7937 -0.5061
12292SOL    HW240023   5.706   6.815   5.028 -0.4802 -1.1138 -1.3809
12293SOL     OW40024   1.374   6.142   0.438  0.1232  0.0755  0.5726
12293SOL    HW140025   1.407   6.229   0.460 -0.6942  1.2497 -2.3166
12293SOL    HW240026   1.428   6.113   0.365 -0.9842 -0.8477  0.0762
12294SOL     OW40027   4.503   1.479   4.211 -0.1523 -0.4936 -0.2612
12294SOL    HW140028   4.519   1.488   4.305 -0.6046  0.4707 -0.2541
12294SOL    HW240029   4.590   1.473   4.172  0.1109  0.6274  0.1068
12295SOL     OW40030   5.965   3.810   0.827  0.3682 -0.0888 -0.7694
12295SOL    HW140031   5.870   3.793   0.822  0.4952 -1.5329  0.7586
12295SOL    HW240032   5.974   3.902   0.804 -1.4700  0.2114 -0.4707
12296SOL     OW40033   5.137   6.997   0.743 -0.3378  0.0339 -0.2975
12296SOL    HW140034   5.112   6.908   0.720  1.3932 -0.6825  0.4309
12296SOL    HW240035   5.106   7.050   0.670  0.9680 -1.5347 -2.1023
12297SOL     OW40036   4.075   7.790   6.427 -0.0827  0.0154  0.5368
12297SOL    HW140037   4.014   7.837   6.483 -0.4775 -0.2505  0.3359
12297SOL    HW240038   4.034   7.704   6.414 -0.0457  0.1152 -0.2507
12298SOL     OW40039   2.162   0.607   4.744  0.1292 -0.0459  0.2184
12298SOL    HW140040   2.117   0.651   4.816  0.1090 -2.2352  1.6323
12298SOL    HW240041   2.121   0.642   4.665 -0.9631  1.2452  1.3083
12299SOL     OW40042   1.952   7.487   2.135 -0.3560  0.6781 -0.4789
12299SOL    HW140043   1.897   7.562   2.115 -0.7780  0.8661  1.2132
12299SOL    HW240044   1.900   7.411   2.111 -0.6535  0.8891 -0.4999
12300SOL     OW40045   5.886   5.442   7.183  0.2020  0.1478  0.1806
12300SOL    HW140046   5.846   5.478   7.104 -0.3343 -0.6771  0.0597
12300SOL    HW240047   5.830   5.472   7.255 -0.4679 -0.7210  0.0446
12301SOL     OW40048   2.202   3.843   3.813  0.3471 -0.2169  0.0050
12301SOL    HW140049   2.200   3.791   3.894  1.3705 -0.2545  0.0209
12301SOL    HW240050   2.123   3.896   3.817 -1.2113 -2.3645 -0.4153
12302SOL     OW40051   0.606   5.618   6.186 -0.5440 -0.0277 -0.3957
12302SOL    HW140052   0.698   5.617   6.159 -0.5256 -0.6704 -0.3260
12302SOL    HW240053   0.609   5.642   6.279 -0.4480  0.0118 -0.4088
12303SOL     OW40054   3.075   4.652   0.022  0.0059 -0.0857 -0.2072
12303SOL    HW140055   3.073   4.698  -0.062 -2.0386 -0.0691 -0.1963
12303SOL    HW240056   3.019   4.705   0.079  1.7507  0.1827  1.3530
12304SOL     OW40057   6.463   6.321   6.067 -0.5344  0.0343 -0.0678
12304SOL    HW140058   6.374   6.297   6.093 -0.4155  0.3061  0.5915
12304SOL    HW240059   6.466   6.416   6.077 -0.0383 -0.0194  0.3167
12305SOL     OW40060   6.284   3.468   7.847  0.2882 -0.3290 -0.2056
12305SOL    HW140061   6.318   3.551   7.814  0.2138  0.1807  0.9443
12305SOL    HW240062   6.217   3.493   7.911  2.6815 -1.0943  2.8664
12306SOL     OW40063   5.929   0.441   8.064  0.3315  0.4386 -0.2309
12306SOL    HW140064   5.987   0.487   8.125  0.2167 -0.3366  0.4927
12306SOL    HW240065   5.984   0.373   8.026 -0.4756 -1.4913  1.8148
12307SOL     OW40066   0.719   1.341   6.690  0.3409 -0.1658  0.4851
12307SOL    HW140067   0.696   1.424   6.648 -0.9764 -1.1226 -0.8290
12307SOL    HW240068   0.791   1.307   6.637 -1.5860 -1.5639 -1.4072
12308SOL     OW40069   5.090   0.426   4.272  0.2657 -0.4381  1.1554
12308SOL    HW140070   5.100   0.334   4.249  0.5785 -0.1061 -0.1717
12308SOL    HW240071   5.170   0.448   4.320  0.2500 -0.8229  1.3578
12309SOL     OW40072   7.816   6.324   2.494 -0.2382  0.2181  0.5511
12309SOL    HW140073   7.840   6.383   2.423  1.7618  0.1052  1.0655
12309SOL    HW240074   7.720   6.321   2.492 -0.3268  2.1351 -0.5620
12310SOL     OW40075   6.515   0.551   7.610  0.5636 -0.3015  0.1160
12310SOL    HW140076   6.443   0.551   7.673 -0.3951  0.0783 -0.9616
12310SOL    HW240077   6.585   0.503   7.655 -0.4264 -0.8898  1.0905
12311SOL     OW40078   5.259   6.445   7.820 -0.1716  0.1452  0.0357
12311SOL    HW140079   5.260   6.366   7.765  0.5892  1.4588 -1.9619
12311SOL    HW240080   5.351   6.467   7.832 -0.3739  0.7089  0.6010
12312SOL     OW40081   6.063   3.523   4.504 -0.0288 -0.0220  0.0628
12312SOL    HW140082   6.053   3.481   4.419 -1.2619 -2.0031  1.1101
12312SOL    HW240083   6.024   3.461   4.566 -0.5883  2.0381  1.8958
12313SOL     OW40084   3.412   7.884   1.302  0.3664 -0.3802  0.4821
12313SOL    HW140085   3.469   7.809   1.283 -0.2112 -0.7868  0.3311
12313SOL    HW240086   3.358   7.855   1.375 -1.1253 -0.8090 -0.7285
12314SOL     OW40087   2.279   5.239   6.249  0.1872  0.4027  0.1820
12314SOL    HW140088   2.232   5.190   6.182 -0.4651  0.5226  0.5475
12314SOL    HW240089   2.236   5.325   6.251  0.3426  0.4755  0.6033
12315SOL     OW40090   3.112   3.019   7.684 -0.3378  0.5478 -0.0265
12315SOL    HW140091   3.102   3.102   7.639  0.2294  0.0003 -1.2048
12315SOL    HW240092   3.185   2.976   7.639 -2.5878 -1.9476 -1.5595
12316SOL     OW40093   3.607   5.990   1.207  0.0260 -0.5235 -0.0896
12316SOL    HW140094   3.689   5.993   1.158  0.5600  1.1062  0.7947
12316SOL    HW240095   3.635   5.989   1.299 -0.8873  1.7642  0.2748
12317SOL     OW40096   2.006   6.518   0.936 -0.2803 -0.1960  0.0542
12317SOL    HW140097   1.945   6.476   0.997  0.0816 -0.7583  0.0427
12317SOL    HW240098   1.951   6.555   0.867 -0.6606  0.0332  0.4795
12318SOL     OW40099   6.816   0.763   0.425  0.3674 -0.0352  0.3589
12318SOL    HW140100   6.840   0.671   0.431  1.1577  0.1454  0.0883
12318SOL    HW240101   6.778   0.772   0.337  1.0952  0.0684  0.0463
12319SOL     OW40102   7.844   5.413   3.488 -0.5421  0.3885  0.2228
12319SOL    HW140103   7.899   5.412   3.567 -0.0798  1.4775 -0.0605
12319SOL    HW240104   7.778   5.480   3.507  0.1561  1.3646 -0.6682
12320SOL     OW40105   6.935   0.876   2.730 -0.2169  0.4212 -0.1333
12320SOL    HW140106   6.849   0.916   2.739 -0.4860 -0.1360 -0.1789
12320SOL    HW240107   6.988   0.916   2.799 -1.3540 -1.4435  1.9447
12321SOL     OW40108   5.204   7.468   4.783  0.1010 -0.1181 -0.1039
12321SOL    HW140109   5.292   7.496   4.758  0.1657 -0.0158  0.2362
12321SOL    HW240110   5.190   7.387   4.734  0.6247 -0.4622  0.3152
12322SOL     OW40111   6.763   0.839   5.492 -0.1158  0.0180 -0.3227
12322SOL    HW140112   6.775   0.784   5.415  0.7651 -0.2885  0.0154
12322SOL    HW240113   6.795   0.925   5.465 -0.4807  0.0924 -0.5195
12323SOL     OW40114   2.597   0.310   4.264 -0.4747  0.3141 -0.2701
12323SOL    HW140115   2.587   0.395   4.221 -0.7912 -0.5815 -2.0439
12323SOL    HW240116   2.542   0.317   4.343 -0.0289  1.9297 -0.0686
12324SOL     OW40117   4.371   6.437   6.914 -0.1060 -0.1153 -0.1184
12324SOL    HW140118   4.311   6.418   6.843  0.2431  1.7357 -0.9758
12324SOL    HW240119   4.390   6.352   6.954 -2.0323 -0.9128 -0.8086
12325SOL     OW40120   2.836   0.600   0.033 -0.4016  0.5129 -0.2036
12325SOL    HW140121   2.745   0.616   0.008 -0.1138  1.8486 -0.4568
12325SOL    HW240122   2.853   0.664   0.103  0.6708  1.0493 -0.9368
12326SOL     OW40123   2.431   3.239   7.765 -0.6268 -0.4131  0.6985
12326SOL    HW140124   2.461   3.291   7.840  1.2640  0.4450 -0.5668
12326SOL    HW240125   2.341   3.215   7.787 -1.2255  2.4826  1.8371
12327SOL     OW40126   6.579   6.823   6.116  0.3934 -0.5410  0.2793
12327SOL    HW140127   6.520   6.899   6.119 -0.2383 -0.9608 -0.9657
12327SOL    HW240128   6.622   6.829   6.031 -1.1221 -2.6174 -0.7059
12328SOL     OW40129   4.987   1.270   2.871  0.4439  0.0039 -0.2606
12328SOL    HW140130   4.894   1.276   2.850 -0.1546 -3.3460  0.8327
12328SOL    HW240131   5.029   1.239   2.790 -0.0930 -2.1656  0.2189
12329SOL     OW40132   1.760   2.993   1.743 -0.3715  0.2814  0.0362
12329SOL    HW140133   1.718   3.077   1.726 -1.2343 -0.3383 -1.0961
12329SOL    HW240134   1.703   2.929   1.699  1.5786 -0.6397 -1.3169
12330SOL     OW40135   0.310   0.258   6.494 -0.1190 -0.8074  0.1506
12330SOL    HW140136   0.365   0.207   6.435  1.6260  0.8744  0.2253
12330SOL    HW240137   0.344   0.347   6.487 -0.5893 -0.3489  2.8480
12331SOL     OW40138   1.945   4.702   4.471  0.3707 -0.0328  0.0432
12331SOL    HW140139   2.019   4.754   4.440  0.9529 -1.4526 -1.0618
12331SOL    HW240140   1.974   4.668   4.556  0.3445  0.6791  0.3445
12332SOL     OW40141   4.807   1.890   7.460 -0.9346 -0.1528  0.4334
12332SOL    HW140142   4.845   1.814   7.416  0.8318  0.1857  1.2867
12332SOL    HW240143   4.754   1.852   7.531  1.6018 -0.6774  2.1947
12333SOL     OW40144   3.542   7.063   6.279 -0.3695 -0.2299  0.0902
12333SOL    HW140145   3.473   7.032   6.222 -0.6992  0.8357 -0.1243
12333SOL    HW240146   3.498   7.123   6.340 -0.0004 -1.1936  1.3595
12334SOL     OW40147   0.895   1.605   3.809  0.4863  0.5958 -0.1402
12334SOL    HW140148   0.910   1.519   3.849  0.9938 -0.0729 -1.6680
12334SOL    HW240149   0.921   1.667   3.877 -0.2145 -0.4353  1.1243
12335SOL     OW40150   2.928   8.008   5.243  0.2697  0.1367  0.1962
12335SOL    HW140151   2.953   7.921   5.271 -0.4818  0.4113  1.8339
12335SOL    HW240152   2.979   8.067   5.298  0.6156  0.7476 -0.7461
12336SOL     OW40153   1.174   5.751   5.019 -0.5590  0.3299  0.0950
12336SOL    HW140154   1.237   5.753   4.947 -0.4038 -1.0756  0.1665
12336SOL    HW240155   1.186   5.835   5.064  0.0835  0.7783 -0.8701
12337SOL     OW40156   5.885   6.298   7.925  0.3967 -0.2981 -0.0059
12337SOL    HW140157   5.944   6.345   7.865 -0.0966  1.7224  1.0140
12337SOL    HW240158   5.799   6.337   7.909  0.1503 -0.1263  1.5885
12338SOL     OW40159   6.628   0.619   2.786 -0.0686 -0.0503 -0.0405
12338SOL    HW140160   6.574   0.656   2.716 -0.2655  0.2930  0.2893
12338SOL    HW240161   6.716   0.651   2.768 -0.0047 -0.4468 -0.4652
12339SOL     OW40162   4.695   6.370   1.700  0.3913  0.4495  0.0793
12339SOL    HW140163   4.604   6.360   1.725  0.4160  2.0196  0.9215
12339SOL    HW240164   4.742   6.304   1.751 -0.2275 -0.1893 -0.1653
12340SOL     OW40165   4.722   7.741   0.580  0.5149  0.6698  0.1023
12340SOL    HW140166   4.759   7.674   0.637  1.2497  0.5118 -0.5340
12340SOL    HW240167   4.780   7.817   0.591 -1.2569  1.8429  2.0979
12341SOL     OW40168   3.093   2.227   7.666 -0.2263  0.1442 -0.1542
12341SOL    HW140169   3.055   2.184   7.590  1.5955  0.2096 -1.1792
12341SOL    HW240170   3.086   2.163   7.737 -1.2336 -0.2302 -0.5799
12342SOL     OW40171   1.066   7.666   1.926  0.3382 -0.0183 -0.3321
12342SOL    HW140172   1.075   7.752   1.967  1.2293  0.3848 -1.3209
12342SOL    HW240173   1.142   7.659   1.869  1.0719 -2.0770  0.7901
12343SOL     OW40174   6.354   2.753   4.092 -0.2069  0.2798  0.2076
12343SOL    HW140175   6.277   2.807   4.079 -0.3734  0.4264  1.6414
12343SOL    HW240176   6.428   2.809   4.067 -0.4504  0.7810  0.6086
12344SOL     OW40177   6.383   0.020   6.489 -0.7364 -0.3028 -0.1458
12344SOL    HW140178   6.299   0.024   6.442 -0.9325 -1.1279  0.1079
12344SOL    HW240179   6.420  -0.065   6.464  1.0339  0.8806 -1.8902
12345SOL     OW40180   1.958   2.249   0.445  0.2238 -0.0201 -0.1590
12345SOL    HW140181   1.898   2.218   0.513 -0.3058 -0.7388 -0.9375
12345SOL    HW240182   1.902   2.292   0.381  0.4489 -1.1880 -1.1763
12346SOL     OW40183   3.140   2.689   7.375  0.6313  1.0843  0.2083
12346SOL    HW140184   3.222   2.735   7.357  1.1340  0.0375 -0.2539
12346SOL    HW240185   3.080   2.720   7.307  0.4185  2.3419  0.9297
12347SOL     OW40186   6.273   1.994   7.629 -0.0413 -0.1457  0.3619
12347SOL    HW140187   6.229   1.983   7.714 -1.3314  1.7567 -0.0004
12347SOL    HW240188   6.250   2.082   7.601 -0.2242 -0.9401 -2.2876
12348SOL     OW40189   4.994   6.345   3.657 -0.5277 -0.3222  0.1662
12348SOL    HW140190   4.956   6.377   3.739 -2.2838 -0.0588 -0.7133
12348SOL    HW240191   4.938   6.380   3.589  0.5701 -1.0093 -1.1453
12349SOL     OW40192   7.458   4.249   4.718  0.1282  0.4889 -0.4350
12349SOL    HW140193   7.481   4.250   4.625  3.7105  0.1933  0.3065
12349SOL    HW240194   7.428   4.160   4.734 -0.7978  0.6186 -1.3211
12350SOL     OW40195   1.286   2.127   4.360 -0.5570  0.0318  0.3396
12350SOL    HW140196   1.355   2.131   4.426  0.1643  0.7807 -0.4411
12350SOL    HW240197   1.205   2.147   4.409 -0.3272 -1.3174  1.3517
12351SOL     OW40198   6.914   3.495   3.188  0.0402 -0.2834  0.3047
12351SOL    HW140199   6.983   3.435   3.159 -0.3209 -1.3883  1.5912
12351SOL    HW240200   6.925   3.499   3.283 -1.2518  0.0368  0.4558
12352SOL     OW40201   4.170   1.328   0.574  0.4195  0.5550 -0.4955
12352SOL    HW140202   4.113   1.279   0.515  1.0410  0.3102 -0.8978
12352SOL    HW240203   4.231   1.373   0.517  1.8285 -0.6664 -0.0170
12353SOL     OW40204   2.590   7.912   3.240 -0.6645 -0.1957  0.0938
12353SOL    HW140205   2.639   7.909   3.323 -1.3839  1.5723  0.6173
12353SOL    HW240206   2.585   7.820   3.213 -1.0838 -0.9260  2.4076
12354SOL     OW40207   7.362   3.117   6.571 -0.3222 -0.5934  0.4154
12354SOL    HW140208   7.398   3.084   6.653 -0.0506 -0.6755  0.2638
12354SOL    HW240209   7.356   3.040   6.515  2.2038 -0.1130 -0.6485
12355SOL     OW40210   1.102   2.620   5.427 -0.2500  0.5216 -0.1160
12355SOL    HW140211   1.026   2.637   5.372 -1.0033 -1.5817  0.1586
12355SOL    HW240212   1.066   2.612   5.516  0.6758  1.9681  0.4308
12356SOL     OW40213   5.361   0.090   1.241 -0.1176  0.5465 -0.5002
12356SOL    HW140214   5.281   0.120   1.284  0.4521  1.1925  0.1467
12356SOL    HW240215   5.427   0.092   1.311  0.3984 -0.2508 -0.9555
12357SOL     OW40216   6.998   2.885   1.771 -0.0239 -0.6179 -0.0680
12357SOL    HW140217   7.071   2.838   1.732  1.0277  0.7028  0.2180
12357SOL    HW240218   6.951   2.922   1.696  0.4237 -0.3273 -0.2151
12358SOL     OW40219   1.343   2.639   0.535 -0.3465 -0.3954  0.7130
12358SOL    HW140220   1.382   2.691   0.606 -0.3665 -0.5825  0.8618
12358SOL    HW240221   1.410   2.639   0.467 -0.9279  1.0987  0.0816
12359SOL     OW40222   6.850   3.799   4.018  0.3306  0.0032  0.1276
12359SOL    HW140223   6.847   3.706   3.994 -0.0254 -0.2989  1.2469
12359SOL    HW240224   6.928   3.832   3.975  0.3567 -0.7776 -0.4500
12360SOL     OW40225   6.735   0.348   2.057 -0.0323 -0.0320  0.6763
12360SOL    HW140226   6.751   0.279   1.993 -0.8110  0.1106  0.3159
12360SOL    HW240227   6.662   0.316   2.110 -0.3863  0.5014  0.5184
12361SOL     OW40228   3.369   5.032   5.419  0.3802  0.2325 -0.1750
12361SOL    HW140229   3.316   5.059   5.345  0.6032  0.5475 -0.2234
12361SOL    HW240230   3.420   4.957   5.387 -0.6673 -0.6468  0.1341
12362SOL     OW40231   3.806   1.053   0.212 -0.6510 -0.1709 -0.9464
12362SOL    HW140232   3.850   0.994   0.151 -0.1648 -0.2167 -0.5536
12362SOL    HW240233   3.759   0.996   0.272  1.1720 -0.2605  0.4792
12363SOL     OW40234   1.163   4.473   3.527  0.2413 -0.7147  0.1335
12363SOL    HW140235   1.090   4.412   3.520  0.1763 -0.6826  0.5432
12363SOL    HW240236   1.169   4.494   3.620  0.2107 -0.0313 -0.0120
12364SOL     OW40237   5.788   7.823   1.294  0.1328 -0.1898  0.2849
12364SOL    HW140238   5.709   7.804   1.244  1.3050 -0.4951 -1.5482
12364SOL    HW240239   5.834   7.889   1.242  0.4641  1.0086  2.0068
12365SOL     OW40240   4.836   6.807   2.945 -0.2167 -0.5035  0.3232
12365SOL    HW140241   4.801   6.895   2.929 -0.7935 -0.9944 -1.3052
12365SOL    HW240242   4.856   6.772   2.858  1.5431 -1.3962  1.0268
12366SOL     OW40243   5.051   7.448   6.469  0.0867  0.2272  0.6450
12366SOL    HW140244   5.146   7.445   6.461  0.1282  0.7249  0.9050
12366SOL    HW240245   5.026   7.527   6.421 -0.3150 -0.5549 -0.4686
12367SOL     OW40246   3.287   5.064   0.201  0.1451 -0.5859  0.2071
12367SOL    HW140247   3.264   5.110   0.282 -0.5370 -0.6241  0.0321
12367SOL    HW240248   3.381   5.047   0.210  0.4028  0.7691  0.3120
12368SOL     OW40249   4.905   3.499   5.742  0.1714  0.5914 -0.3315
12368SOL    HW140250   4.922   3.407   5.721  1.6215  1.0751 -1.5009
12368SOL    HW240251   4.890   3.540   5.658 -0.5557  1.4234  0.1904
12369SOL     OW40252   7.339   4.975   6.749  0.4776 -0.7191 -0.3250
12369SOL    HW140253   7.422   4.996   6.791  0.8772 -1.5033 -0.7067
12369SOL    HW240254   7.310   5.058   6.710 -0.3225  0.2426  2.1503
12370SOL     OW40255   0.478   2.485   6.055  0.0134 -0.5228 -0.3688
12370SOL    HW140256   0.433   2.570   6.063  0.0713 -0.4621 -0.7107
12370SOL    HW240257   0.555   2.503   6.001 -0.8883 -1.1435 -1.9275
12371SOL     OW40258   1.385   1.206   3.912 -0.0708  0.4757  0.5975
12371SOL    HW140259   1.390   1.113   3.891  0.6382  0.8603 -1.2366
12371SOL    HW240260   1.299   1.218   3.950  0.1260 -1.0522  1.6021
12372SOL     OW40261   3.272   7.528   4.534 -0.0010 -0.0220  0.0190
12372SOL    HW140262   3.212   7.603   4.544  1.0516  0.7945  0.3979
12372SOL    HW240263   3.223   7.454   4.568 -1.7296  0.1321 -1.9173
12373SOL     OW40264   1.964   5.533   2.355  0.1060 -0.0704  0.1012
12373SOL    HW140265   2.036   5.480   2.388 -1.2087 -0.9974  1.5878
12373SOL    HW240266   1.892   5.471   2.343 -1.1444  1.1867  0.8455
12374SOL     OW40267   4.752   3.867   4.045 -0.0224 -0.1422  0.6267
12374SOL    HW140268   4.804   3.831   3.973 -0.3661  0.2692  0.1643
12374SOL    HW240269   4.807   3.856   4.122  0.6632  0.0814  0.1800
12375SOL     OW40270   5.272   2.401   4.734  0.7099  0.7039  0.1178
12375SOL    HW140271   5.178   2.402   4.718  0.9412  0.3567 -1.3538
12375SOL    HW240272   5.296   2.309   4.725  1.1792  0.7746  0.6066
12376SOL     OW40273   2.010   3.782   5.320 -0.6227 -0.0646  0.1776
12376SOL    HW140274   2.081   3.772   5.384  0.5298  2.2824 -0.6043
12376SOL    HW240275   2.054   3.782   5.235 -1.6984  0.3090 -0.3991
12377SOL     OW40276   2.972   7.761   1.071 -0.0723 -0.3304 -0.0501
12377SOL    HW140277   2.993   7.698   1.140 -0.2918 -0.5948 -0.2254
12377SOL    HW240278   3.056   7.800   1.048  0.1302 -0.8799 -0.2527
12378SOL     OW40279   2.616   6.160   6.628 -0.1099 -0.2301 -0.3642
12378SOL    HW140280   2.636   6.222   6.698 -0.3587 -0.4289 -0.1155
12378SOL    HW240281   2.637   6.074   6.665 -1.6151 -0.4716 -0.0108
12379SOL     OW40282   2.764   4.757   0.376 -0.3737 -0.5324  0.6097
12379SOL    HW140283   2.733   4.838   0.336  1.4046  0.8738  1.9225
12379SOL    HW240284   2.855   4.776   0.400  0.8926 -3.6716 -1.0816
12380SOL     OW40285   7.003   6.369   2.602 -0.0044 -0.0969  0.6018
12380SOL    HW140286   6.949   6.358   2.680 -0.1971 -0.8830  0.3680
12380SOL    HW240287   7.059   6.292   2.600 -1.0005 -0.8458 -0.7876
12381SOL     OW40288   0.460   4.475   3.653  0.1514  0.3623 -0.8446
12381SOL    HW140289   0.454   4.447   3.561  0.7452  1.4710 -1.2428
12381SOL    HW240290   0.551   4.503   3.663 -0.5183  2.7430 -0.6871
12382SOL     OW40291   5.364   1.997   6.551 -0.5825  0.2261 -0.1666
12382SOL    HW140292   5.367   2.042   6.466 -0.7509  0.0599 -0.2607
12382SOL    HW240293   5.310   2.053   6.606 -2.5868 -0.9050 -0.9029
12383SOL     OW40294   7.220   4.660   2.314 -0.9034 -0.1022  0.5352
12383SOL    HW140295   7.279   4.608   2.369 -1.7573 -0.1822  1.4080
12383SOL    HW240296   7.136   4.614   2.318 -1.0140 -0.0484 -0.7801
12384SOL     OW40297   2.461   1.848   5.354  0.5455 -0.2093 -0.2958
12384SOL    HW140298   2.419   1.849   5.440 -0.1651  0.5015 -0.6384
12384SOL    HW240299   2.554   1.839   5.372  0.4554  0.5274  0.5700
12385SOL     OW40300   0.363   1.353   3.188  0.0473 -0.6093  0.0136
12385SOL    HW140301   0.399   1.384   3.105 -0.4241 -1.7840 -0.6577
12385SOL    HW240302   0.315   1.273   3.165  0.2138 -1.1632  1.4677
12386SOL     OW40303   0.275   3.098   1.577 -0.6013  0.0557  0.3962
12386SOL    HW140304   0.317   3.137   1.653 -0.6532 -0.5844  0.7625
12386SOL    HW240305   0.319   3.137   1.502  1.1147 -1.0566  0.7527
12387SOL     OW40306   3.509   1.942   3.236 -0.2806  1.0880 -0.3987
12387SOL    HW140307   3.460   2.011   3.281 -0.3678  0.3652  0.6493
12387SOL    HW240308   3.468   1.860   3.265 -0.2703  0.5844 -1.7285
12388SOL     OW40309   1.432   6.852   2.993 -0.3462 -0.3744  1.1264
12388SOL    HW140310   1.494   6.924   3.004 -0.3055 -0.6155  2.7933
12388SOL    HW240311   1.438   6.829   2.901 -0.2181  1.6173  0.5941
12389SOL     OW40312   6.947   8.068   7.465  0.0473  0.5549  0.0673
12389SOL    HW140313   6.957   8.115   7.382  1.9953 -0.2581 -0.1946
12389SOL    HW240314   6.977   7.979   7.446 -0.0648  0.1903  1.5032
12390SOL     OW40315   4.690   0.428   0.943 -0.4042  0.0329 -0.1400
12390SOL    HW140316   4.770   0.374   0.944 -0.3570  0.0453 -1.3700
12390SOL    HW240317   4.722   0.518   0.938 -0.4944  0.0279 -0.8224
12391SOL     OW40318   0.461   1.989   7.563  0.0360 -0.2661  0.2845
12391SOL    HW140319   0.409   1.987   7.643 -1.9900 -1.0837 -0.9500
12391SOL    HW240320   0.401   1.955   7.496  1.6923  0.2803 -1.5466
12392SOL     OW40321   2.311   7.020   2.775  0.6173  0.0204  0.2506
12392SOL    HW140322   2.223   7.029   2.810  0.3756  1.2877 -0.6013
12392SOL    HW240323   2.307   7.062   2.689  1.9847 -0.1444  0.0790
12393SOL     OW40324   1.100   7.618   6.597 -0.2048  0.1301 -0.4316
12393SOL    HW140325   1.155   7.668   6.536  2.4707 -2.4331 -0.2787
12393SOL    HW240326   1.032   7.579   6.541  0.8259 -0.3028 -1.4060
12394SOL     OW40327   1.550   5.657   0.876  0.0709  0.0671  0.4085
12394SOL    HW140328   1.554   5.753   0.873 -0.3070  0.0680 -0.2480
12394SOL    HW240329   1.480   5.634   0.815  1.0119 -0.6929 -0.4160
12395SOL     OW40330   3.798   0.203   2.594  0.2975  0.3543 -0.0116
12395SOL    HW140331   3.781   0.110   2.579  0.6130  0.2595  0.2260
12395SOL    HW240332   3.731   0.230   2.657 -1.1350  0.7863 -1.6162
12396SOL     OW40333   5.916   0.313   6.403 -0.2067  0.2209 -0.5077
12396SOL    HW140334   5.978   0.267   6.460  0.3378 -2.0166 -2.7226
12396SOL    HW240335   5.834   0.314   6.453  1.1235  1.9333  1.8823
12397SOL     OW40336   2.992   6.330   6.686 -0.5665 -0.8789  0.1317
12397SOL    HW140337   3.001   6.425   6.697 -0.4109 -0.6886 -1.4434
12397SOL    HW240338   2.945   6.301   6.765 -0.4459  0.4678  0.7208
12398SOL     OW40339   5.841   1.226   1.185  0.0731  0.4554  0.2060
12398SOL    HW140340   5.916   1.206   1.129  0.0958 -0.2671  0.4817
12398SOL    HW240341   5.879   1.235   1.273 -0.3433 -1.6502  0.6642
12399SOL     OW40342   2.141   3.752   2.349  0.3095  0.0396 -0.4052
12399SOL    HW140343   2.148   3.769   2.443  2.5128  1.4853 -0.7548
12399SOL    HW240344   2.181   3.666   2.337 -0.8521 -0.5924  0.0486
12400SOL     OW40345   3.043   3.822   0.681 -0.8082 -0.0565  0.3231
12400SOL    HW140346   3.022   3.907   0.718  2.7911  1.7283 -1.2239
12400SOL    HW240347   3.135   3.807   0.705  0.8976 -0.1251 -4.9225
12401SOL     OW40348   4.254   0.677   7.763  0.0447  0.1356  0.1953
12401SOL    HW140349   4.213   0.762   7.778  0.8033  0.1374  2.5926
12401SOL    HW240350   4.342   0.685   7.801  1.2274 -0.8286 -2.1341
12402SOL     OW40351   6.571   3.670   0.635 -0.5858 -0.4815  0.3745
12402SOL    HW140352   6.550   3.719   0.714  1.3946  0.6938  0.2388
12402SOL    HW240353   6.551   3.579   0.656 -0.9739 -0.0620  1.8931
12403SOL     OW40354   6.991   1.711   2.186  0.2238  0.1981 -0.5478
12403SOL    HW140355   6.969   1.620   2.166  0.1714 -0.1480  0.9524
12403SOL    HW240356   7.084   1.719   2.168 -0.1275  0.3740 -2.4409
12404SOL     OW40357   5.211   2.016   5.914  0.0286  0.4573  0.7964
12404SOL    HW140358   5.215   2.060   5.829 -1.7855  0.1279  0.5159
12404SOL    HW240359   5.295   2.038   5.956  0.6742  1.1692 -0.7915
12405SOL     OW40360   2.220   4.606   1.865 -0.1506  0.5778  0.1385
12405SOL    HW140361   2.262   4.526   1.898 -0.6013  0.9975  1.8307
12405SOL    HW240362   2.136   4.609   1.912 -1.3044  0.7085 -1.8290
12406SOL     OW40363   7.310   4.845   0.841 -0.2650  0.4486 -0.2007
12406SOL    HW140364   7.337   4.755   0.854 -0.1794  0.6588  1.1969
12406SOL    HW240365   7.259   4.844   0.759 -1.2577 -1.0686  0.4047
12407SOL     OW40366   1.859   0.666   3.639  0.0839  0.7499  0.9225
12407SOL    HW140367   1.858   0.648   3.545  1.2566 -1.7273  1.3162
12407SOL    HW240368   1.775   0.709   3.656 -1.6223 -1.6917 -0.7251
12408SOL     OW40369   4.530   4.401   4.981 -0.3946 -0.2903 -0.0743
12408SOL    HW140370   4.476   4.325   4.958  1.2791 -1.9550  1.1717
12408SOL    HW240371   4.617   4.380   4.946  0.2069  0.8477  0.6738
12409SOL     OW40372   0.727   0.677   2.017 -0.8682  0.2833  0.4403
12409SOL    HW140373   0.731   0.584   1.994 -1.6641  0.0739  1.0978
12409SOL    HW240374   0.636   0.702   1.999 -0.1730  1.5224 -1.8191
12410SOL     OW40375   4.730   1.662   0.430  0.0909 -0.0871  0.1191
12410SOL    HW140376   4.790   1.676   0.357 -0.3021 -0.1061 -0.2135
12410SOL    HW240377   4.722   1.567   0.437  0.1916 -0.0875  0.2439
12411SOL     OW40378   0.022   6.497   0.660  0.6299 -0.7179 -0.5897
12411SOL    HW140379  -0.006   6.572   0.608  1.0569  0.6315  1.0420
12411SOL    HW240380  -0.057   6.446   0.675  0.0874  0.0959 -0.6470
12412SOL     OW40381   4.243   8.074   1.754  0.2123  0.5466  0.2168
12412SOL    HW140382   4.318   8.120   1.716 -0.8323  2.9173  0.8436
12412SOL    HW240383   4.279   8.026   1.829  1.0367  2.2181  0.9411
12413SOL     OW40384   3.985   7.788   6.032  0.1653 -0.1815 -0.2537
12413SOL    HW140385   4.033   7.845   6.092  1.3546  1.0586 -2.2535
12413SOL    HW240386   3.900   7.774   6.074  1.5914 -0.9987  2.5831
12414SOL     OW40387   1.743   5.171   3.750  0.4498 -0.3062  0.7895
12414SOL    HW140388   1.754   5.166   3.845 -0.6749  1.6171  1.0920
12414SOL    HW240389   1.651   5.148   3.736 -0.0538  1.6692  0.4867
12415SOL     OW40390   0.139   0.051   2.476 -0.9244 -0.1044 -0.1069
12415SOL    HW140391   0.077   0.121   2.456 -0.1648  1.4661  2.4711
12415SOL    HW240392   0.220   0.078   2.432 -0.9228  0.0971  0.0168
12416SOL     OW40393   6.895   5.633   1.974 -0.4464  0.6581  0.7830
12416SOL    HW140394   6.939   5.549   1.981 -0.1423  0.4949 -2.0352
12416SOL    HW240395   6.899   5.655   1.881 -3.7602  2.0273  0.7979
12417SOL     OW40396   2.123   2.696   5.996  0.4442  0.2437 -0.6020
12417SOL    HW140397   2.087   2.642   5.926  0.2116 -0.7576  0.2517
12417SOL    HW240398   2.213   2.666   6.006  0.9200  1.3631 -1.4013
12418SOL     OW40399   6.542   2.380   3.190 -0.1948 -0.0720  0.2580
12418SOL    HW140400   6.549   2.475   3.184  0.4223 -0.0471  1.2316
12418SOL    HW240401   6.612   2.347   3.135 -0.4748  0.0345 -0.1651
12419SOL     OW40402   4.607   0.471   0.050 -0.0134  0.0706  0.3429
12419SOL    HW140403   4.527   0.422   0.031  0.0479 -0.1357  0.6050
12419SOL    HW240404   4.675   0.404   0.057 -0.2498 -0.0187  2.5034
12420SOL     OW40405   3.732   1.753   5.489  0.4220 -0.7069  0.1783
12420SOL    HW140406   3.779   1.836   5.491  1.1676 -1.0946 -0.6490
12420SOL    HW240407   3.649   1.774   5.446  0.3884 -0.2947  0.4335
12421SOL     OW40408   1.553   1.754   7.213  0.3287  0.1220  0.3959
12421SOL    HW140409   1.504   1.801   7.146 -2.4262 -0.9491  1.4786
12421SOL    HW240410   1.643   1.752   7.182 -0.9047 -1.0672 -3.6963
12422SOL     OW40411   0.436   2.337   4.611  0.3314 -0.2233  0.0384
12422SOL    HW140412   0.413   2.244   4.607 -0.7791 -0.0119  1.0887
12422SOL    HW240413   0.371   2.380   4.556  0.4031  0.0149  0.1399
12423SOL     OW40414   6.864   6.792   5.518 -0.0501 -0.1635  0.1805
12423SOL    HW140415   6.815   6.759   5.594  0.6133 -0.6656  0.3966
12423SOL    HW240416   6.814   6.761   5.442 -0.5514  0.0879  0.3985
12424SOL     OW40417   0.702   4.406   6.708 -0.4580  0.8068  0.1104
12424SOL    HW140418   0.665   4.477   6.654 -0.0905  0.7094 -0.2791
12424SOL    HW240419   0.686   4.327   6.657  1.7037  0.9330 -0.8529
12425SOL     OW40420   1.020   0.649   1.347 -0.0849 -0.0440  0.2554
12425SOL    HW140421   1.086   0.703   1.390 -0.7126 -0.5257  1.8810
12425SOL    HW240422   1.062   0.622   1.265  1.3733  0.4358  0.8055
12426SOL     OW40423   3.308   7.883   1.556 -0.1505  0.1069 -0.1516
12426SOL    HW140424   3.334   7.852   1.643 -0.5821 -3.2710 -1.0760
12426SOL    HW240425   3.213   7.879   1.556 -0.2341  1.4624 -0.3917
12427SOL     OW40426   0.232   3.242   6.178  0.2082 -0.2415  0.4833
12427SOL    HW140427   0.174   3.192   6.120  0.9993  1.2030 -1.6993
12427SOL    HW240428   0.182   3.319   6.202  0.1627 -0.4568  1.0837
12428SOL     OW40429   2.057   1.286   7.186 -0.2251  0.5271  0.0523
12428SOL    HW140430   2.138   1.336   7.199  0.6564 -1.3836  2.8537
12428SOL    HW240431   2.053   1.271   7.092  3.6374 -0.6784 -0.1074
12429SOL     OW40432   7.262   2.252   4.029 -0.8732  0.3001  0.1372
12429SOL    HW140433   7.347   2.212   4.010 -1.1714  0.3246 -1.4361
12429SOL    HW240434   7.278   2.346   4.022 -0.4836  0.4500  2.4397
12430SOL     OW40435   3.940   7.835   0.311  0.4179  0.1719 -0.6182
12430SOL    HW140436   3.865   7.893   0.299 -0.5680 -0.4300  2.0413
12430SOL    HW240437   4.013   7.882   0.271 -0.7093  2.4256 -0.1681
12431SOL     OW40438   2.950   4.049   7.123 -0.2904  0.1158 -0.0330
12431SOL    HW140439   2.966   4.031   7.216 -2.1024  2.9888  0.9615
12431SOL    HW240440   2.855   4.046   7.114 -0.1650  0.4879 -1.6638
12432SOL     OW40441   3.238   7.896   1.094 -0.0914  0.0816  0.2330
12432SOL    HW140442   3.209   7.988   1.092  1.2564  0.5042 -1.6415
12432SOL    HW240443   3.311   7.896   1.156  0.3058  0.4073 -0.2303
12433SOL     OW40444   5.443   4.337   4.929  0.0426  0.4717 -0.2064
12433SOL    HW140445   5.349   4.345   4.949  0.0799  0.5284 -0.0523
12433SOL    HW240446   5.451   4.249   4.890  0.1847 -0.2003  1.2759
12434SOL     OW40447   6.419   7.322   2.510  0.3241 -0.4381  0.0662
12434SOL    HW140448   6.442   7.371   2.430  0.1344  0.0999  0.3366
12434SOL    HW240449   6.327   7.343   2.525  0.8061  0.8838  1.4019
12435SOL     OW40450   5.908   4.605   7.160 -0.3792  0.3669 -0.3667
12435SOL    HW140451   5.912   4.532   7.098 -0.3356 -0.2591  0.3578
12435SOL    HW240452   5.947   4.570   7.240 -0.0126  1.3127 -0.1294
12436SOL     OW40453   6.664   7.761   1.013 -0.2857 -0.2079  0.3933
12436SOL    HW140454   6.599   7.727   1.074  0.5495 -0.7520  0.9976
12436SOL    HW240455   6.613   7.784   0.935 -1.1738 -0.8354  0.7629
12437SOL     OW40456   3.408   6.973   7.491 -0.1920 -0.3758 -0.3012
12437SOL    HW140457   3.423   7.051   7.544  1.6856 -0.8650 -0.0759
12437SOL    HW240458   3.351   6.918   7.545  0.6662 -0.3243  0.6743
12438SOL     OW40459   3.099   2.536   3.509 -0.2537 -0.0664  0.2467
12438SOL    HW140460   3.026   2.496   3.555 -0.1558  0.3600  0.7805
12438SOL    HW240461   3.064   2.619   3.475 -0.1529 -0.0848  0.0962
12439SOL     OW40462   3.774   6.898   7.838  0.0376  0.0024  0.3525
12439SOL    HW140463   3.717   6.840   7.888 -1.0418  0.0725 -0.7465
12439SOL    HW240464   3.779   6.978   7.891  0.2824 -0.5249  1.1338
12440SOL     OW40465   6.610   1.217   4.529  0.0563  0.4330  0.0824
12440SOL    HW140466   6.653   1.303   4.532 -0.7758  0.9429 -1.5348
12440SOL    HW240467   6.575   1.211   4.440  0.6153 -1.8524 -0.0313
12441SOL     OW40468   1.057   2.584   3.021 -1.0267 -0.0199 -0.3819
12441SOL    HW140469   0.990   2.645   3.050 -1.0813 -0.8053  1.2819
12441SOL    HW240470   1.079   2.534   3.099  3.0367  1.6142 -0.2355
12442SOL     OW40471   5.589   1.941   2.548 -0.1976  0.1922  0.1642
12442SOL    HW140472   5.681   1.957   2.568 -0.7019  3.2247  0.6157
12442SOL    HW240473   5.580   1.964   2.456 -0.4330 -0.5568 -0.0062
12443SOL     OW40474   2.444   7.998   0.132 -0.1876  0.4830 -0.0709
12443SOL    HW140475   2.418   8.015   0.222  0.2750  1.2203 -0.0719
12443SOL    HW240476   2.389   8.057   0.080  1.3029  1.9285 -0.0851
12444SOL     OW40477   4.127   3.367   1.014  0.4691  0.1040 -0.2650
12444SOL    HW140478   4.223   3.369   1.007  0.4809  1.4833  0.1229
12444SOL    HW240479   4.108   3.284   1.058  1.3533 -1.0607 -1.9654
12445SOL     OW40480   7.313   1.052   2.825  0.2615  0.0614  0.0104
12445SOL    HW140481   7.295   0.959   2.841  1.4281  0.1708  2.2273
12445SOL    HW240482   7.252   1.098   2.882 -0.2139  0.6962 -0.9823
12446SOL     OW40483   5.397   7.651   3.334  0.2454  0.1194 -0.4309
12446SOL    HW140484   5.377   7.712   3.262  0.6844 -0.2621 -0.8778
12446SOL    HW240485   5.438   7.576   3.292 -0.0935 -0.3985  0.1463
12447SOL     OW40486   0.272   4.950   3.684  0.0883  0.0589  0.1839
12447SOL    HW140487   0.209   5.013   3.719  0.4781  0.2950  0.4769
12447SOL    HW240488   0.254   4.948   3.590 -0.2185  0.2795  0.2354
12448SOL     OW40489   5.291   6.819   4.770 -0.1196  0.0282  0.0231
12448SOL    HW140490   5.201   6.784   4.768  0.5487 -1.7647 -0.4142
12448SOL    HW240491   5.286   6.895   4.829 -1.7491 -0.5292  0.6592
12449SOL     OW40492   0.178   0.741   6.207 -0.2363  0.1151 -0.8294
12449SOL    HW140493   0.168   0.671   6.272 -1.5772  1.3472  0.3585
12449SOL    HW240494   0.238   0.704   6.142  0.3575 -1.5422  0.5697
12450SOL     OW40495   0.428   3.705   4.239  0.1095  0.3741 -0.0914
12450SOL    HW140496   0.472   3.768   4.295  1.3907 -0.5409 -0.0272
12450SOL    HW240497   0.455   3.729   4.150 -0.6758  0.8649 -0.2128
12451SOL     OW40498   2.013   4.456   2.993  0.3239  0.2053 -0.8633
12451SOL    HW140499   2.037   4.380   2.940  0.0232 -0.0396 -0.6510
12451SOL    HW240500   2.094   4.507   2.998  1.2933 -1.3871  1.1402
12452SOL     OW40501   4.829   5.276   0.377 -0.2766  0.7698  0.3459
12452SOL    HW140502   4.759   5.290   0.313  1.1904  0.0131 -1.4911
12452SOL    HW240503   4.838   5.361   0.421 -2.2743  0.9020  0.6380
12453SOL     OW40504   7.257   7.972   7.766  0.1790  0.2565 -0.0516
12453SOL    HW140505   7.193   8.039   7.791 -0.4015 -0.3238  0.0433
12453SOL    HW240506   7.212   7.919   7.701  1.8742  2.1262 -2.9643
12454SOL     OW40507   2.398   1.291   5.678  0.4117  0.2221 -0.3996
12454SOL    HW140508   2.353   1.207   5.682 -2.4256  1.6528  0.7020
12454SOL    HW240509   2.441   1.299   5.764  0.1336  0.1578 -0.2519
12455SOL     OW40510   4.166   3.708   8.052 -0.0776  1.3980  0.1243
12455SOL    HW140511   4.248   3.706   8.004  0.2019  2.6458  0.5096
12455SOL    HW240512   4.184   3.659   8.133 -0.2912  0.0613 -0.6062
12456SOL     OW40513   3.333   3.489   7.365 -0.2469 -0.1970  0.3553
12456SOL    HW140514   3.274   3.492   7.289 -0.2210 -0.5157  0.3208
12456SOL    HW240515   3.296   3.422   7.421 -0.8895  0.7921  1.1520
12457SOL     OW40516   6.645   0.936   5.725  0.6990  0.1830 -0.1398
12457SOL    HW140517   6.726   0.978   5.754  1.1469 -0.9849  0.3783
12457SOL    HW240518   6.657   0.923   5.631  0.9095  0.4452 -0.1508
12458SOL     OW40519   2.303   6.150   5.849 -0.3344 -0.2499 -0.0049
12458SOL    HW140520   2.253   6.096   5.788  1.0061 -0.9343 -0.5602
12458SOL    HW240521   2.382   6.173   5.800  0.4481 -0.2074  1.2318
12459SOL     OW40522   3.711   3.251   5.540  0.0074 -0.3660 -0.4043
12459SOL    HW140523   3.671   3.174   5.580 -0.3159 -0.2910 -0.5806
12459SOL    HW240524   3.776   3.280   5.604 -0.1383 -0.5593 -0.1680
12460SOL     OW40525   3.719   7.783   0.022 -0.1073 -0.0915 -0.1178
12460SOL    HW140526   3.675   7.865   0.040 -1.1524 -0.1892 -1.9965
12460SOL    HW240527   3.697   7.727   0.097 -2.1852  0.2705 -0.3968
12461SOL     OW40528   3.997   6.737   7.778  0.0426 -0.2172 -0.1395
12461SOL    HW140529   3.928   6.797   7.805 -0.4364 -1.5056  1.7607
12461SOL    HW240530   3.969   6.703   7.693  0.9945  3.1281 -1.9589
12462SOL     OW40531   0.986   3.311   1.218 -0.3303  0.1831 -0.4926
12462SOL    HW140532   1.047   3.380   1.243  0.3394 -1.3644  2.7968
12462SOL    HW240533   0.923   3.308   1.290 -0.0003 -2.8936 -0.1772
12463SOL     OW40534   4.875   1.876   2.315 -0.6905 -0.4740 -0.1920
12463SOL    HW140535   4.963   1.837   2.312 -0.2734  0.4731 -1.1080
12463SOL    HW240536   4.886   1.961   2.272 -2.3597 -0.9235 -1.5867
12464SOL     OW40537   3.910   2.849   0.859 -0.0797  0.0613 -0.0285
12464SOL    HW140538   3.886   2.920   0.919  0.4866  0.6098 -0.4326
12464SOL    HW240539   3.892   2.769   0.908  0.0128  0.4975  0.7321
12465SOL     OW40540   4.045   7.146   3.842  0.0208 -1.0221  0.4379
12465SOL    HW140541   4.069   7.226   3.796  0.0081 -0.4453  1.4039
12465SOL    HW240542   3.994   7.096   3.778 -1.4663  0.5262  0.3584
12466SOL     OW40543   7.372   2.560   0.854 -0.1742  0.2633 -1.0340
12466SOL    HW140544   7.403   2.642   0.892  0.7048 -0.7254  0.5178
12466SOL    HW240545   7.431   2.542   0.782  0.0518  0.6478 -0.9478
12467SOL     OW40546   0.171   3.456   0.284  0.7036 -0.7559  0.4321
12467SOL    HW140547   0.159   3.427   0.193  1.8121 -0.7510  0.2715
12467SOL    HW240548   0.083   3.479   0.313  0.3150 -0.8586 -0.6064
12468SOL     OW40549   4.019   5.541   4.443 -0.4296  0.2298  0.2557
12468SOL    HW140550   3.933   5.531   4.404 -0.8411  0.0431  1.1714
12468SOL    HW240551   4.014   5.623   4.493 -0.2402 -0.0217  0.6977
12469SOL     OW40552   5.550   0.004   2.795  0.3601 -0.4633  0.4384
12469SOL    HW140553   5.602  -0.068   2.759  0.8321 -0.0090  0.1948
12469SOL    HW240554   5.557   0.073   2.729  0.2375 -0.0533  0.8530
12470SOL     OW40555   1.945   4.110   2.092 -0.1675 -0.2137 -0.4285
12470SOL    HW140556   1.885   4.084   2.162 -0.3387  0.8289 -0.1694
12470SOL    HW240557   1.912   4.065   2.014  0.0407 -1.4134  0.1449
12471SOL     OW40558   6.289   0.608   3.200 -0.0718  0.0117 -0.5669
12471SOL    HW140559   6.322   0.539   3.143 -0.4468  1.4559 -2.6586
12471SOL    HW240560   6.200   0.581   3.223  0.9744 -1.9000  1.7168
12472SOL     OW40561   6.888   7.768   0.454 -0.0386 -0.2368 -0.0815
12472SOL    HW140562   6.979   7.776   0.425  0.1565 -0.8214  0.3339
12472SOL    HW240563   6.837   7.809   0.384  0.5631  0.4468 -0.1366
12473SOL     OW40564   1.619   0.745   2.828 -0.2010 -0.0245 -0.4222
12473SOL    HW140565   1.698   0.699   2.857 -1.0571 -0.7913  0.7572
12473SOL    HW240566   1.578   0.776   2.909 -3.0547 -2.8750 -0.6298
12474SOL     OW40567   1.030   0.322   2.842 -0.4093 -0.0730 -0.0281
12474SOL    HW140568   0.939   0.314   2.870 -0.0097  1.2367  1.8161
12474SOL    HW240569   1.031   0.282   2.755 -2.8559  0.3895 -0.3578
12475SOL     OW40570   0.039   5.154   6.735  0.0832  0.1690  0.0676
12475SOL    HW140571   0.126   5.169   6.698 -0.1250 -1.2660 -1.0970
12475SOL    HW240572   0.048   5.071   6.783 -1.0728 -1.0634 -1.7190
12476SOL     OW40573   2.855   7.309   1.462 -0.1047  0.1928 -0.2419
12476SOL    HW140574   2.849   7.300   1.367 -1.0197  1.5337 -0.3386
12476SOL    HW240575   2.766   7.290   1.493 -0.2378  1.3975  0.1695
12477SOL     OW40576   3.262   3.243   0.596 -0.0620  0.1021 -0.3755
12477SOL    HW140577   3.285   3.334   0.575  0.1274  0.0657 -0.3322
12477SOL    HW240578   3.172   3.247   0.626 -1.0247 -0.0744 -2.9525
12478SOL     OW40579   0.260   7.622   2.537  0.0400  0.3291 -0.5176
12478SOL    HW140580   0.287   7.553   2.477 -0.6625 -0.7229  0.3470
12478SOL    HW240581   0.271   7.584   2.624  0.8905  1.7674  0.0461
12479SOL     OW40582   5.808   5.699   3.740 -0.4293 -0.1802  0.7700
12479SOL    HW140583   5.864   5.725   3.813 -1.7739 -0.8296  2.0908
12479SOL    HW240584   5.727   5.749   3.752 -0.7617 -0.4753 -0.1349
12480SOL     OW40585   0.840   4.212   2.406  0.0141  0.2691 -0.2984
12480SOL    HW140586   0.797   4.154   2.344 -0.6021 -0.9940  1.2345
12480SOL    HW240587   0.808   4.299   2.384 -0.9992 -0.2876 -1.0808
12481SOL     OW40588   5.597   1.600   3.090  0.4018 -0.7800  0.0302
12481SOL    HW140589   5.534   1.532   3.066 -0.4724 -0.8345  2.2506
12481SOL    HW240590   5.551   1.653   3.155  1.2707  1.6076 -1.2047
12482SOL     OW40591   6.018   3.897   6.000  0.4051  0.1235  0.0676
12482SOL    HW140592   6.017   3.855   6.086 -0.8210 -1.4969 -0.6758
12482SOL    HW240593   5.952   3.966   6.006  1.0125  0.6685  0.6956
12483SOL     OW40594   5.906   1.108   5.077  0.2616  0.4837 -0.0759
12483SOL    HW140595   5.814   1.129   5.062  0.0296 -0.4031  0.0150
12483SOL    HW240596   5.915   1.019   5.042  1.7302  1.5197 -2.6439
12484SOL     OW40597   1.042   3.701   0.963 -0.0748 -0.0507 -0.2466
12484SOL    HW140598   0.968   3.648   0.992  2.0489 -1.8418  2.5614
12484SOL    HW240599   1.067   3.664   0.879 -1.5498 -0.2514 -0.6274
12485SOL     OW40600   7.248   2.898   3.405 -0.3784 -0.3582 -0.8937
12485SOL    HW140601   7.317   2.832   3.409  1.3772  1.4255 -0.1237
12485SOL    HW240602   7.235   2.913   3.312 -0.6129 -1.5424 -1.0757
12486SOL     OW40603   2.179   0.185   2.781  0.0634  0.1805  0.1296
12486SOL    HW140604   2.097   0.150   2.815  1.5950 -2.3529  1.4972
12486SOL    HW240605   2.188   0.146   2.694  0.1931 -0.1816  0.3051
12487SOL     OW40606   2.375   2.845   3.349 -0.0025  0.1745  0.0986
12487SOL    HW140607   2.315   2.845   3.423 -0.4130  1.4055 -0.2031
12487SOL    HW240608   2.445   2.785   3.374 -0.8266 -0.4739  0.8983
12488SOL     OW40609   4.154   3.159   0.506  0.5199  0.6128 -0.3557
12488SOL    HW140610   4.084   3.097   0.526  1.3295 -0.2926 -0.2479
12488SOL    HW240611   4.226   3.104   0.473  1.0938  1.5412 -0.6846
12489SOL     OW40612   3.312   3.778   1.802  0.1036  0.4385 -0.3207
12489SOL    HW140613   3.246   3.726   1.848  0.1044 -0.3940 -1.2182
12489SOL    HW240614   3.350   3.717   1.739  0.7801  1.2835 -0.7487
12490SOL     OW40615   4.959   2.446   0.177  0.2655  0.3086  0.0218
12490SOL    HW140616   4.864   2.459   0.176  0.3571  1.0177 -0.8310
12490SOL    HW240617   4.995   2.531   0.150  1.1040 -0.2510 -0.6725
12491SOL     OW40618   2.364   1.494   0.137  0.1716  0.3285  0.0845
12491SOL    HW140619   2.410   1.574   0.162 -1.1065  1.5165 -1.1817
12491SOL    HW240620   2.272   1.512   0.157 -0.4425  0.0683 -2.1997
12492SOL     OW40621   2.079   5.937   2.475 -0.1023  0.3908  0.4635
12492SOL    HW140622   2.024   6.011   2.452 -1.2201 -0.5209  0.0950
12492SOL    HW240623   2.041   5.904   2.557  0.0788 -0.0667  0.3656
12493SOL     OW40624   0.984   2.046   7.492 -0.5264  0.2173 -0.2319
12493SOL    HW140625   0.890   2.036   7.482 -0.5082  1.5144 -2.0020
12493SOL    HW240626   1.022   1.997   7.419  0.1132  0.6673 -0.2114
12494SOL     OW40627   6.234   6.266   7.937 -0.2650  0.0224  0.2052
12494SOL    HW140628   6.329   6.261   7.945 -0.3403 -0.2896  0.9740
12494SOL    HW240629   6.203   6.182   7.970 -0.6972 -0.9274 -2.3991
12495SOL     OW40630   4.387   3.287   7.257  0.1027  0.4856  0.5300
12495SOL    HW140631   4.395   3.378   7.231 -0.8818  0.4706  0.1285
12495SOL    HW240632   4.474   3.263   7.291  0.5404  1.3751  0.0498
12496SOL     OW40633   2.146   5.069   3.335  0.0799  0.5146 -0.1226
12496SOL    HW140634   2.066   5.108   3.370  0.3108  0.7238  0.1771
12496SOL    HW240635   2.148   4.980   3.371  0.2338  0.6755  0.2668
12497SOL     OW40636   1.153   3.600   1.245 -0.1189 -0.1802  0.0312
12497SOL    HW140637   1.158   3.671   1.181  1.2142  1.4985  1.8448
12497SOL    HW240638   1.071   3.616   1.291 -0.3765 -0.5182 -0.3074
12498SOL     OW40639   2.961   4.084   6.597 -0.0343  0.0897  0.7422
12498SOL    HW140640   2.919   4.152   6.545 -0.9779 -0.3497  0.9025
12498SOL    HW240641   2.987   4.127   6.678 -1.1640  0.1323  1.0924
12499SOL     OW40642   0.679   6.795   8.060 -0.3954  0.0917  0.5757
12499SOL    HW140643   0.708   6.748   7.982  1.4873 -0.4256  1.5195
12499SOL    HW240644   0.701   6.886   8.042 -1.7020  0.2718 -0.2271
12500SOL     OW40645   3.067   2.995   0.894  0.1522  0.1675  0.0734
12500SOL    HW140646   2.975   2.991   0.922 -0.1232 -0.6760 -0.8987
12500SOL    HW240647   3.099   2.905   0.906  0.2527 -0.0284 -1.5362
12501SOL     OW40648   4.181   3.849   0.278  0.1035 -0.2925  0.2327
12501SOL    HW140649   4.263   3.856   0.229  0.9074  0.2061  1.5824
12501SOL    HW240650   4.116   3.890   0.222  0.5153 -1.6994 -1.3766
12502SOL     OW40651   1.274   0.074   0.858  0.0358 -0.3271  0.2956
12502SOL    HW140652   1.213   0.095   0.787 -0.2840 -0.7180  0.4520
12502SOL    HW240653   1.260   0.143   0.923  0.7486  0.3801 -0.2588
12503SOL     OW40654   4.995   6.693   0.504 -0.1100  0.6094  0.1700
12503SOL    HW140655   5.085   6.705   0.473 -0.0438  2.9304  1.0406
12503SOL    HW240656   5.004   6.634   0.579  0.8294  1.3918  0.7035
12504SOL     OW40657   7.616   2.647   7.562 -0.4063  0.3144  0.1424
12504SOL    HW140658   7.689   2.683   7.512 -0.0204 -1.7874 -0.9534
12504SOL    HW240659   7.540   2.698   7.534  0.4795  2.0582  0.7539
12505SOL     OW40660   6.295   6.872   7.301  0.2690  0.1025 -0.2758
12505SOL    HW140661   6.371   6.830   7.342  0.8359  1.1294 -0.2261
12505SOL    HW240662   6.299   6.963   7.332 -1.4572 -0.0231  0.3814
12506SOL     OW40663   6.713   7.591   5.923  0.3500 -0.1080  0.2265
12506SOL    HW140664   6.626   7.627   5.941 -0.3734 -0.5004 -2.1483
12506SOL    HW240665   6.774   7.658   5.956 -0.9140  2.1946 -1.7877
12507SOL     OW40666   5.156   0.588   1.500 -0.5355  1.0226  0.2823
12507SOL    HW140667   5.189   0.528   1.433 -0.6661 -0.1348  1.2360
12507SOL    HW240668   5.228   0.651   1.513 -0.6606  1.5054 -1.2033
12508SOL     OW40669   2.642   7.440   1.119 -0.1915  0.8105  0.4191
12508SOL    HW140670   2.560   7.401   1.149  0.6841 -0.7722  0.8528
12508SOL    HW240671   2.655   7.515   1.177 -0.9625  0.6401  0.8314
12509SOL     OW40672   6.458   6.436   2.186  0.2485  0.3127 -0.0751
12509SOL    HW140673   6.409   6.431   2.104  1.1295 -1.5145 -0.5538
12509SOL    HW240674   6.546   6.462   2.161  0.7426 -1.0493  0.1349
12510SOL     OW40675   7.050   1.050   0.448 -0.5110 -0.4209 -0.5547
12510SOL    HW140676   7.143   1.067   0.458 -0.6384 -0.4658  1.0817
12510SOL    HW240677   7.007   1.132   0.473 -0.9264 -0.7116 -0.2851
12511SOL     OW40678   7.299   1.836   5.531  0.4939 -0.1361  0.2874
12511SOL    HW140679   7.281   1.748   5.498 -1.4449  0.3612 -0.1376
12511SOL    HW240680   7.392   1.850   5.515  1.0713 -2.4645  1.2563
12512SOL     OW40681   5.502   6.572   5.274  0.2514 -0.0879 -0.0926
12512SOL    HW140682   5.513   6.505   5.342 -1.9061 -0.5909 -0.1782
12512SOL    HW240683   5.428   6.543   5.222 -1.3123  2.7293  0.3401
12513SOL     OW40684   5.432   7.022   0.777 -0.5140  0.2337 -0.2409
12513SOL    HW140685   5.447   7.058   0.864 -0.7331 -3.5665  1.5309
12513SOL    HW240686   5.340   6.997   0.777  0.0317 -2.0189 -0.5496
12514SOL     OW40687   3.902   2.355   1.390  0.3693  0.7054  0.2654
12514SOL    HW140688   3.971   2.406   1.348  0.7383  0.5881  0.7243
12514SOL    HW240689   3.945   2.312   1.463  0.2448 -0.8628 -0.5357
12515SOL     OW40690   2.897   2.817   5.383 -0.5010  0.4684 -0.5509
12515SOL    HW140691   2.930   2.754   5.320  0.1476  0.3514 -0.1039
12515SOL    HW240692   2.907   2.902   5.340  0.9557  0.5005 -0.2173
12516SOL     OW40693   3.905   1.738   7.235  0.3777  0.2999 -0.2158
12516SOL    HW140694   3.963   1.733   7.312  0.3566  1.8049 -0.0828
12516SOL    HW240695   3.901   1.831   7.214 -2.1533  0.2612 -0.1245
12517SOL     OW40696   7.581   5.192   0.867 -0.3405  0.3723 -0.5430
12517SOL    HW140697   7.521   5.240   0.810  0.5860  1.2754 -0.7975
12517SOL    HW240698   7.633   5.261   0.909  0.1541 -0.3627  0.0720
12518SOL     OW40699   0.286   7.674   3.140 -0.1163 -0.3222  0.0978
12518SOL    HW140700   0.330   7.629   3.213 -0.1030 -0.7044 -0.1421
12518SOL    HW240701   0.336   7.754   3.128 -0.0836 -0.2848  0.4759
12519SOL     OW40702   4.993   4.973   0.858 -0.2534 -0.0739 -0.0259
12519SOL    HW140703   4.929   5.022   0.806 -1.5888 -0.4553  1.1978
12519SOL    HW240704   5.078   4.998   0.821 -0.8487  3.1301  0.4697
12520SOL     OW40705   2.891   7.401   6.749  0.4544 -0.0018 -0.1381
12520SOL    HW140706   2.822   7.339   6.727  0.7105 -0.3337 -0.0147
12520SOL    HW240707   2.914   7.443   6.666 -0.3700  0.6076 -0.0669
12521SOL     OW40708   1.936   0.684   5.777 -0.0955 -0.2743  0.5095
12521SOL    HW140709   1.956   0.617   5.711 -0.5021 -0.7926  0.9110
12521SOL    HW240710   1.938   0.637   5.860 -2.3853 -0.2218  0.6321
12522SOL     OW40711   4.132   7.516   5.350  0.6225  0.2289 -0.1373
12522SOL    HW140712   4.204   7.523   5.413  1.1312  0.3575 -0.7211
12522SOL    HW240713   4.161   7.448   5.289 -0.5881 -1.0918  0.6915
12523SOL     OW40714   4.782   5.515   2.474 -0.0278 -0.2287  0.0827
12523SOL    HW140715   4.761   5.581   2.540 -0.6064 -0.1558 -0.1706
12523SOL    HW240716   4.873   5.533   2.449  1.0480 -1.6730  2.5325
12524SOL     OW40717   1.843   5.120   4.668 -0.1179 -0.3176  0.0803
12524SOL    HW140718   1.797   5.077   4.596 -0.5019  0.2074  0.0112
12524SOL    HW240719   1.890   5.049   4.712  0.0472 -0.6511 -0.6321
12525SOL     OW40720   1.535   7.369   3.395 -0.3721  0.1429  0.8923
12525SOL    HW140721   1.474   7.439   3.417 -1.2093 -0.4859  0.6096
12525SOL    HW240722   1.510   7.296   3.451 -1.2839 -0.8355 -0.7189
12526SOL     OW40723   2.842   4.335   4.734 -0.4787 -0.2131 -0.7337
12526SOL    HW140724   2.862   4.265   4.672  0.5492  0.5624 -1.3212
12526SOL    HW240725   2.799   4.402   4.682 -1.7912 -0.5197 -0.1009
12527SOL     OW40726   2.467   7.974   6.649  0.5153 -0.3502  0.1932
12527SOL    HW140727   2.409   7.941   6.580  1.8490 -2.6386  0.0749
12527SOL    HW240728   2.459   7.910   6.720  0.9960  0.6855  1.2077
12528SOL     OW40729   3.293   2.726   1.196 -0.1562  0.1324 -0.7314
12528SOL    HW140730   3.262   2.683   1.276 -3.1115  1.0546 -1.2941
12528SOL    HW240731   3.234   2.695   1.127  0.3835  1.7377 -1.9700
12529SOL     OW40732   6.484   7.143   5.323  0.4988  0.3962  0.4921
12529SOL    HW140733   6.542   7.157   5.398  1.7586  1.0819 -0.5648
12529SOL    HW240734   6.510   7.211   5.260 -0.5828 -0.1031 -0.5251
12530SOL     OW40735   7.721   4.605   4.642  0.0685  0.0360 -0.0785
12530SOL    HW140736   7.768   4.665   4.584  1.2544 -1.7456 -1.0803
12530SOL    HW240737   7.691   4.660   4.714  1.2828  1.7816 -0.8136
12531SOL     OW40738   6.409   5.223   3.542 -0.4391 -0.2429 -1.1415
12531SOL    HW140739   6.326   5.188   3.573  0.1770 -2.5706 -1.9258
12531SOL    HW240740   6.466   5.146   3.534  1.5775  1.1969 -1.2776
12532SOL     OW40741   3.453   7.565   5.932 -0.2686 -0.0752 -0.1595
12532SOL    HW140742   3.471   7.573   6.025  1.1444 -1.7086 -0.2599
12532SOL    HW240743   3.435   7.472   5.918 -0.0756  0.0682 -1.5736
12533SOL     OW40744   3.926   5.168   3.839 -0.3001 -0.3665 -0.1812
12533SOL    HW140745   3.907   5.259   3.861 -2.1075 -0.5548 -0.7713
12533SOL    HW240746   3.919   5.164   3.744  2.3433 -0.6286 -0.4483
12534SOL     OW40747   7.575   7.719   4.192  0.4707 -0.3477 -0.1964
12534SOL    HW140748   7.565   7.656   4.263 -0.7828  0.1605  0.0985
12534SOL    HW240749   7.544   7.672   4.114  1.5571 -0.7991 -0.3793
12535SOL     OW40750   2.296   4.280   2.691  0.3922 -0.0248 -0.0569
12535SOL    HW140751   2.313   4.339   2.618 -0.1326 -1.0012 -1.0018
12535SOL    HW240752   2.364   4.300   2.755 -0.6413  2.6507  0.3415
12536SOL     OW40753   2.505   2.079   5.901 -0.0156 -0.6640  0.0618
12536SOL    HW140754   2.522   2.127   5.821 -0.7452  0.3548  0.5022
12536SOL    HW240755   2.589   2.077   5.947 -0.0618  0.5356  0.2117
12537SOL     OW40756   2.696   3.094   0.607  0.2446 -0.1260  0.5920
12537SOL    HW140757   2.680   3.185   0.629  1.5307  0.1618  0.4483
12537SOL    HW240758   2.710   3.050   0.691 -0.5558 -0.2301  0.6713
12538SOL     OW40759   0.888   7.890   2.837  0.0715  0.3292 -0.6692
12538SOL    HW140760   0.826   7.945   2.885 -1.0461 -0.6442 -0.9503
12538SOL    HW240761   0.854   7.886   2.748  0.3779 -0.4373 -0.7639
12539SOL     OW40762   7.077   4.056   0.585 -0.5264  0.4751 -0.0059
12539SOL    HW140763   7.035   4.005   0.655 -0.7203 -0.1405 -0.5594
12539SOL    HW240764   7.040   4.021   0.504  1.0768 -0.1389 -0.5131
12540SOL     OW40765   2.820   6.835   0.153 -0.3239  0.4185  0.5840
12540SOL    HW140766   2.879   6.774   0.197 -1.3688 -0.1940  1.1943
12540SOL    HW240767   2.779   6.783   0.084 -0.6011  0.6612  0.5631
12541SOL     OW40768   5.386   4.982   6.947 -0.3891  0.3312  0.1070
12541SOL    HW140769   5.330   5.010   6.874 -0.8827 -0.3634  0.2053
12541SOL    HW240770   5.355   4.893   6.968  0.2441  0.2378  0.6709
12542SOL     OW40771   7.285   1.912   3.003 -0.2476  0.2410 -1.0480
12542SOL    HW140772   7.364   1.966   3.009 -0.2617  0.1965 -0.4657
12542SOL    HW240773   7.313   1.825   3.031 -0.7041  0.4276  0.0218
12543SOL     OW40774   1.579   1.040   6.226  0.0777  0.3875 -0.1708
12543SOL    HW140775   1.672   1.022   6.212  0.3001  1.0404  0.4118
12543SOL    HW240776   1.568   1.131   6.199 -0.8376 -0.2954 -2.2174
12544SOL     OW40777   5.155   1.043   2.634 -0.1236  0.2665  0.3445
12544SOL    HW140778   5.179   1.122   2.682  0.8056  0.8168 -0.9643
12544SOL    HW240779   5.128   1.074   2.548 -2.7239 -0.6064  0.7530
12545SOL     OW40780   3.617   6.719   1.621 -0.3406  0.3299  0.6961
12545SOL    HW140781   3.555   6.650   1.641  0.2290 -1.1942 -2.2310
12545SOL    HW240782   3.563   6.796   1.605 -1.0769  0.2724  2.5975
12546SOL     OW40783   5.161   4.816   2.531  0.3345  0.0285  0.0870
12546SOL    HW140784   5.199   4.798   2.617  0.1347 -0.6358  0.0399
12546SOL    HW240785   5.216   4.766   2.470 -0.1067 -0.2740 -0.0668
12547SOL     OW40786   0.169   5.930   3.898  0.0293  0.1784 -0.5603
12547SOL    HW140787   0.093   5.875   3.916 -0.5850  1.7313  2.0865
12547SOL    HW240788   0.133   6.018   3.891  1.4630  0.8029 -0.3552
12548SOL     OW40789   6.886   3.965   1.856 -0.3116  0.3325 -0.1789
12548SOL    HW140790   6.952   3.927   1.797 -2.2753 -0.5871 -1.8983
12548SOL    HW240791   6.838   3.890   1.890 -0.6759  1.0023  0.8085
12549SOL     OW40792   4.457   2.797   1.858  0.3620 -0.5727  0.1693
12549SOL    HW140793   4.437   2.835   1.772 -0.5630  0.7803  0.9407
12549SOL    HW240794   4.393   2.726   1.868  1.4122 -1.7149 -0.8319
12550SOL     OW40795   1.730   5.370   2.343 -0.8461  0.0126 -0.5063
12550SOL    HW140796   1.684   5.313   2.404  1.0417 -0.0749  0.9276
12550SOL    HW240797   1.781   5.310   2.289 -0.3070  0.2268 -0.2416
12551SOL     OW40798   5.173   2.888   6.074 -0.5887 -0.1013 -0.7974
12551SOL    HW140799   5.190   2.934   5.992  2.2926  0.6669  0.1040
12551SOL    HW240800   5.232   2.930   6.137  0.1953 -3.2057  0.7458
12552SOL     OW40801   6.492   2.667   7.246 -0.0778 -0.1538 -0.3168
12552SOL    HW140802   6.470   2.604   7.178 -1.0931 -0.6030  0.4138
12552SOL    HW240803   6.433   2.741   7.230  2.1819  1.4273 -2.1835
12553SOL     OW40804   2.883   5.181   3.671  0.0413  0.0911 -0.2620
12553SOL    HW140805   2.969   5.177   3.713  1.1166  0.1591 -2.3331
12553SOL    HW240806   2.902   5.198   3.579 -2.1938 -0.1774 -0.8312
12554SOL     OW40807   5.991   1.052   4.487 -0.1723 -0.1896  0.5350
12554SOL    HW140808   6.064   1.041   4.548 -1.4111 -0.1850  2.0859
12554SOL    HW240809   5.939   1.124   4.523 -1.7960 -1.2238  0.3966
12555SOL     OW40810   3.585   4.270   3.322 -0.0381  0.1130 -0.1802
12555SOL    HW140811   3.574   4.362   3.298  2.3005  0.0084 -2.1278
12555SOL    HW240812   3.519   4.224   3.271 -0.8522  0.6593  0.3681
12556SOL     OW40813   0.449   6.815   1.702 -0.1642 -0.3370 -0.1779
12556SOL    HW140814   0.417   6.756   1.770 -0.5580  1.3645  1.1853
12556SOL    HW240815   0.538   6.838   1.730 -0.0735 -0.1473 -0.6076
12557SOL     OW40816   3.989   1.418   6.623 -0.0935 -0.4020 -0.4029
12557SOL    HW140817   4.015   1.327   6.609  0.8198  0.0172 -1.6463
12557SOL    HW240818   4.070   1.468   6.614 -0.6428  0.5730 -0.1349
12558SOL     OW40819   1.045   7.316   2.242  0.0195 -0.7469 -0.7102
12558SOL    HW140820   1.056   7.397   2.293 -1.4815 -1.1270  0.2917
12558SOL    HW240821   1.013   7.346   2.157 -1.0723 -0.2636 -0.1662
12559SOL     OW40822   1.411   2.306   4.175  0.1418 -0.1367  0.1584
12559SOL    HW140823   1.505   2.306   4.162  0.1559 -0.5310  0.2588
12559SOL    HW240824   1.395   2.238   4.240  0.0696  1.8090  2.2857
12560SOL     OW40825   0.005   6.661   6.017 -0.1991 -0.2411  0.2871
12560SOL    HW140826   0.093   6.645   6.050  0.1287  1.4678  0.3321
12560SOL    HW240827   0.017   6.678   5.923 -0.5084 -0.2090  0.2523
12561SOL     OW40828   5.631   0.727   3.895  0.4059  0.0516  0.6297
12561SOL    HW140829   5.589   0.689   3.817  1.0313  0.1993  0.2172
12561SOL    HW240830   5.663   0.652   3.944 -0.4810 -0.0735  1.0349
12562SOL     OW40831   7.118   1.697   4.786  0.2660  0.5061 -0.5011
12562SOL    HW140832   7.107   1.670   4.878  1.9054  0.2872 -0.3339
12562SOL    HW240833   7.034   1.734   4.762 -0.1313  0.7943  1.1735
12563SOL     OW40834   1.839   5.378   5.831 -0.4550 -0.1691 -0.0235
12563SOL    HW140835   1.905   5.348   5.769 -0.6276 -1.4122  0.3687
12563SOL    HW240836   1.791   5.446   5.784  1.3567  1.0810 -0.1740
12564SOL     OW40837   4.214   1.852   0.610 -0.3090  0.6181 -0.6038
12564SOL    HW140838   4.227   1.786   0.541 -0.9941  0.2430 -0.3904
12564SOL    HW240839   4.121   1.846   0.631  0.2007 -0.6802  1.7314
12565SOL     OW40840   5.201   5.825   5.736 -0.4533  0.1317  0.0372
12565SOL    HW140841   5.174   5.916   5.742 -0.9347 -0.1073  2.3774
12565SOL    HW240842   5.243   5.818   5.650  0.9673  2.8998  0.3846
12566SOL     OW40843   6.789   0.738   0.154  0.1317  0.5139  0.0905
12566SOL    HW140844   6.768   0.756   0.062  1.2605 -0.7083 -0.4454
12566SOL    HW240845   6.806   0.644   0.156  3.1475  0.9681  0.8846
12567SOL     OW40846   1.606   0.752   3.633 -0.1606  0.2981  0.0032
12567SOL    HW140847   1.590   0.695   3.708  1.4288  0.7688  0.7306
12567SOL    HW240848   1.541   0.724   3.568 -1.3096 -0.3772  1.3862
12568SOL     OW40849   2.630   7.759   7.811  0.0192  0.1821  0.3634
12568SOL    HW140850   2.578   7.838   7.800  0.3299  0.2888 -0.3389
12568SOL    HW240851   2.654   7.759   7.904  1.2384  1.6640  0.0724
12569SOL     OW40852   6.395   0.956   2.759  0.2225 -0.4359 -0.3847
12569SOL    HW140853   6.332   1.028   2.750  0.2984 -0.4400 -1.0218
12569SOL    HW240854   6.372   0.913   2.841  0.8850  1.0199  0.6089
12570SOL     OW40855   0.154   1.972   1.538  0.8362  0.1375  0.0996
12570SOL    HW140856   0.146   2.063   1.508 -0.0384 -0.1490 -0.5871
12570SOL    HW240857   0.233   1.940   1.495  0.4407  0.2002 -0.6994
12571SOL     OW40858   4.518   5.784   4.016 -0.2498  0.1576  0.5368
12571SOL    HW140859   4.442   5.810   3.963 -1.1468 -1.4739  0.9420
12571SOL    HW240860   4.593   5.794   3.958 -1.1079 -0.7472 -0.7529
12572SOL     OW40861   6.872   6.982   6.958  0.4224  0.3763 -0.3126
12572SOL    HW140862   6.816   7.038   7.012  0.9450 -0.2540  0.9193
12572SOL    HW240863   6.853   7.009   6.868 -1.5014  0.5297  0.0829
12573SOL     OW40864   0.647   1.152   7.889 -0.1320  0.3071  0.1117
12573SOL    HW140865   0.711   1.196   7.944  0.4236 -0.1942 -0.1300
12573SOL    HW240866   0.610   1.222   7.835  1.6853  0.3164 -1.2059
12574SOL     OW40867   3.183   0.800   2.687 -0.1496  0.2715  0.3267
12574SOL    HW140868   3.207   0.781   2.778  3.1917  1.5945 -0.1348
12574SOL    HW240869   3.212   0.723   2.638  2.0572  1.2331 -0.0300
12575SOL     OW40870   6.189   3.232   6.172  0.5406 -0.1050 -0.1064
12575SOL    HW140871   6.167   3.141   6.155 -1.8526  0.7477 -2.1615
12575SOL    HW240872   6.237   3.260   6.094  0.6746  0.5742  0.2119
12576SOL     OW40873   7.558   1.596   7.708 -0.6182 -0.3233  0.7095
12576SOL    HW140874   7.595   1.594   7.619 -1.3393 -3.0368  0.3666
12576SOL    HW240875   7.557   1.504   7.735 -2.5794  0.1711  2.6027
12577SOL     OW40876   3.931   5.825   3.742 -1.0366 -0.7047 -0.0926
12577SOL    HW140877   3.950   5.890   3.810  1.4042 -1.5366  0.1410
12577SOL    HW240878   4.003   5.762   3.748 -0.4060 -0.5805 -3.7195
12578SOL     OW40879   4.633   1.730   3.332 -0.3312  0.0393 -0.2228
12578SOL    HW140880   4.617   1.822   3.311 -0.6067  0.2706  0.9461
12578SOL    HW240881   4.606   1.721   3.423 -0.0799 -1.1489 -0.2512
12579SOL     OW40882   2.531   3.542   6.346 -0.2260  0.3242 -0.4995
12579SOL    HW140883   2.567   3.572   6.430  0.6132  1.7255 -1.3189
12579SOL    HW240884   2.562   3.606   6.282  3.2874 -3.1547 -2.7748
12580SOL     OW40885   4.283   1.931   2.666 -0.0527  0.8360 -0.0220
12580SOL    HW140886   4.260   1.880   2.743  0.8920  1.4511  0.6936
12580SOL    HW240887   4.254   2.020   2.686 -1.7851  0.6076 -1.3056
12581SOL     OW40888   6.374   5.955   4.722  0.3382 -0.2250  0.3643
12581SOL    HW140889   6.367   6.042   4.684  3.0511  0.2814  0.8060
12581SOL    HW240890   6.285   5.934   4.751 -0.2080  2.9013  1.3183
12582SOL     OW40891   3.613   0.044   7.887  0.0361 -0.7695  0.0343
12582SOL    HW140892   3.601   0.102   7.812  0.0176 -1.4019 -0.4669
12582SOL    HW240893   3.701   0.008   7.876 -0.4530 -1.8920 -0.4451
12583SOL     OW40894   1.630   5.118   7.739 -0.1379 -0.1054  0.1855
12583SOL    HW140895   1.683   5.085   7.666 -0.6042  0.9215 -0.6377
12583SOL    HW240896   1.647   5.212   7.741 -0.5934 -0.0286  1.0233
12584SOL     OW40897   2.210   6.058   7.161 -0.2276 -0.2839 -0.0882
12584SOL    HW140898   2.230   6.006   7.084 -0.6257 -1.8525  0.8182
12584SOL    HW240899   2.273   6.030   7.227  0.0329  0.9417  0.2153
12585SOL     OW40900   5.692   3.821   0.758  0.6091  0.3833 -0.2822
12585SOL    HW140901   5.700   3.786   0.670 -0.7639 -0.5070 -0.0945
12585SOL    HW240902   5.602   3.799   0.784  1.2034  0.0076  1.5891
12586SOL     OW40903   4.295   4.778   3.618  0.2632 -0.3529  0.0006
12586SOL    HW140904   4.344   4.830   3.554  2.9942 -0.2425  2.0085
12586SOL    HW240905   4.356   4.767   3.691 -1.1669 -4.0909  0.8206
12587SOL     OW40906   2.682   3.278   2.269  0.2290 -0.1524  0.6401
12587SOL    HW140907   2.775   3.268   2.289  0.1236  0.6575  1.5860
12587SOL    HW240908   2.637   3.242   2.345 -0.2841 -1.5817 -0.2855
12588SOL     OW40909   2.629   7.163   4.887 -0.5734  0.2624 -0.4569
12588SOL    HW140910   2.586   7.187   4.970 -0.4098 -1.3727  0.1450
12588SOL    HW240911   2.592   7.077   4.865  2.0747 -1.0792 -0.0771
12589SOL     OW40912   3.865   6.930   6.986  0.0283  0.2516  0.8853
12589SOL    HW140913   3.805   6.856   6.980  0.0238  0.2096  1.3974
12589SOL    HW240914   3.868   6.952   7.079  0.1488  0.7968  0.7620
12590SOL     OW40915   7.560   1.816   0.402  0.0588  0.2899 -0.0198
12590SOL    HW140916   7.573   1.896   0.453  2.3352 -0.3354  0.4926
12590SOL    HW240917   7.647   1.777   0.397 -0.7877 -1.5433 -1.2996
12591SOL     OW40918   5.221   5.892   7.101 -0.3392 -0.0555 -0.2512
12591SOL    HW140919   5.216   5.799   7.122 -0.5084  0.0360  0.1344
12591SOL    HW240920   5.151   5.906   7.038 -0.3972 -0.1655 -0.2122
12592SOL     OW40921   6.844   7.720   7.688  0.0730  0.1613 -0.4902
12592SOL    HW140922   6.871   7.631   7.711  0.3878  0.1401 -0.9235
12592SOL    HW240923   6.918   7.775   7.714 -0.1469  0.3030 -0.1668
12593SOL     OW40924   5.365   1.390   4.806 -0.1818  0.2469  0.5403
12593SOL    HW140925   5.294   1.454   4.818 -0.2972  0.0103  1.1187
12593SOL    HW240926   5.321   1.311   4.775 -0.0730  0.3443  0.1229
12594SOL     OW40927   3.505   1.972   6.758 -0.1601 -0.2238 -0.0105
12594SOL    HW140928   3.563   1.904   6.723 -0.2085 -0.3756  0.2020
12594SOL    HW240929   3.426   1.965   6.705 -0.4585 -0.8459  0.5041
12595SOL     OW40930   6.191   7.335   5.263  0.1807 -0.4877  0.0874
12595SOL    HW140931   6.282   7.353   5.240  0.4449 -1.7619  0.0930
12595SOL    HW240932   6.184   7.240   5.261 -1.7905 -0.4122 -2.5183
12596SOL     OW40933   0.857   3.834   0.740  0.5616  0.4116 -0.6403
12596SOL    HW140934   0.909   3.786   0.676  0.5161  1.8785 -1.8272
12596SOL    HW240935   0.774   3.787   0.745  1.1501 -0.6463 -0.4073
12597SOL     OW40936   2.947   3.193   6.230  0.0443  0.0474 -0.1715
12597SOL    HW140937   2.944   3.098   6.220 -1.3288  0.1149 -0.5776
12597SOL    HW240938   2.910   3.210   6.316 -0.6964  0.2533 -0.5151
12598SOL     OW40939   1.704   5.764   3.706  0.1647 -0.3372  0.1401
12598SOL    HW140940   1.774   5.760   3.641 -0.3997  1.3870 -0.6374
12598SOL    HW240941   1.624   5.778   3.655 -0.2353  1.4728  1.1840
12599SOL     OW40942   6.194   1.727   8.023 -0.1362  0.5136  0.1398
12599SOL    HW140943   6.188   1.715   8.117  4.0046 -0.6196  0.4822
12599SOL    HW240944   6.150   1.651   7.985  1.4876 -1.1245  1.3840
12600SOL     OW40945   5.901   1.280   4.621 -0.1282  0.4312 -0.2520
12600SOL    HW140946   5.869   1.211   4.679 -1.4030 -0.4022 -1.8665
12600SOL    HW240947   5.827   1.339   4.610 -0.2918 -0.0234 -1.8516
12601SOL     OW40948   2.658   5.477   3.162  0.1945 -0.1079  0.1573
12601SOL    HW140949   2.612   5.557   3.136  1.8224  0.9550  0.4037
12601SOL    HW240950   2.666   5.483   3.257 -0.8315 -1.2569  0.3514
12602SOL     OW40951   3.316   6.821   1.726  0.2039 -0.2828 -0.3417
12602SOL    HW140952   3.305   6.780   1.640 -0.5575 -0.4699 -0.1653
12602SOL    HW240953   3.323   6.915   1.707 -3.0125  0.0527 -0.4651
12603SOL     OW40954   7.833   0.863   2.257 -0.2148  0.1287  0.1479
12603SOL    HW140955   7.887   0.903   2.189 -1.0044  0.6715 -0.1742
12603SOL    HW240956   7.803   0.937   2.310 -0.2969 -0.2124  0.5802
12604SOL     OW40957   1.448   5.552   6.993  0.1453  0.4230  0.7157
12604SOL    HW140958   1.401   5.616   6.940  1.4146 -0.3137 -1.4290
12604SOL    HW240959   1.384   5.481   7.007  0.2362 -0.1032 -1.2866
12605SOL     OW40960   4.867   6.900   0.874 -1.0423 -0.6487  0.9221
12605SOL    HW140961   4.851   6.885   0.780 -0.5069 -0.6504  0.8301
12605SOL    HW240962   4.837   6.990   0.889 -0.0788 -0.2487  0.5015
12606SOL     OW40963   3.800   1.788   2.376 -0.1680 -0.2466 -0.1361
12606SOL    HW140964   3.757   1.873   2.376 -1.8881 -1.0740 -0.1945
12606SOL    HW240965   3.829   1.776   2.285  0.1338  0.2833 -0.1157
12607SOL     OW40966   5.504   5.437   0.640 -0.5826  0.1365 -0.1328
12607SOL    HW140967   5.471   5.458   0.552  0.5803  0.3126 -0.5572
12607SOL    HW240968   5.498   5.342   0.646  1.7217 -0.1582 -1.4604
12608SOL     OW40969   2.184   0.437   5.732  0.4266 -0.0614  0.2113
12608SOL    HW140970   2.179   0.343   5.712  0.3477 -0.0188  0.0263
12608SOL    HW240971   2.179   0.442   5.827  0.9983 -0.2814  0.2524
12609SOL     OW40972   5.537   7.519   6.651 -0.0878 -0.1996 -0.0504
12609SOL    HW140973   5.543   7.611   6.677 -3.0784  0.1840 -0.3285
12609SOL    HW240974   5.520   7.472   6.733 -0.5972 -0.1929 -0.1456
12610SOL     OW40975   6.000   6.487   7.227  0.2779 -0.3474  0.1635
12610SOL    HW140976   6.044   6.557   7.274  0.5675 -0.1918 -0.3311
12610SOL    HW240977   5.910   6.487   7.261  0.1461  0.5767 -0.1835
12611SOL     OW40978   0.394   1.750   3.568 -0.5323  0.6089 -0.0360
12611SOL    HW140979   0.464   1.813   3.553  0.0871  0.0076  0.2822
12611SOL    HW240980   0.420   1.673   3.517 -0.1903 -0.1630  1.2733
12612SOL     OW40981   3.573   2.802   5.466  0.3669  0.2829 -0.2578
12612SOL    HW140982   3.510   2.775   5.399  1.4918  1.3320 -1.8321
12612SOL    HW240983   3.597   2.721   5.511 -1.0741 -0.3239 -0.5302
12613SOL     OW40984   2.237   6.721   4.369 -0.1128  0.0972 -0.2417
12613SOL    HW140985   2.243   6.807   4.328  1.6432  1.2138  2.0698
12613SOL    HW240986   2.257   6.659   4.299 -0.6660  1.5944 -1.7923
12614SOL     OW40987   3.398   6.731   0.576 -0.7576  0.3937  0.0201
12614SOL    HW140988   3.488   6.764   0.575  0.1068 -1.7892 -1.1018
12614SOL    HW240989   3.346   6.803   0.612  1.4312  1.6907  0.7493
12615SOL     OW40990   0.992   1.101   7.597  0.0710 -0.3988 -0.7356
12615SOL    HW140991   0.970   1.016   7.637 -0.1721  0.1343  0.2919
12615SOL    HW240992   1.088   1.101   7.593  0.1369 -0.1943  0.4854
12616SOL     OW40993   3.937   0.900   4.192 -0.1695  0.1719 -0.4164
12616SOL    HW140994   3.873   0.916   4.122  0.1983  1.3137 -0.5174
12616SOL    HW240995   3.968   0.987   4.215 -0.1065 -0.2132  1.0136
12617SOL     OW40996   7.438   0.855   3.442  0.5886  0.0035  0.3715
12617SOL    HW140997   7.469   0.903   3.518 -1.0957 -0.7409  1.5856
12617SOL    HW240998   7.491   0.775   3.440  2.5500  1.2610 -0.9375
12618SOL     OW40999   3.420   5.046   2.084 -0.0360 -0.8990  0.0321
12618SOL    HW141000   3.411   4.985   2.157  1.3522 -0.4046  0.6445
12618SOL    HW241001   3.514   5.060   2.076 -0.3154  1.2543 -0.0099
12619SOL     OW41002   6.122   2.375   6.468  0.1080  0.5992 -0.0055
12619SOL    HW141003   6.144   2.447   6.526 -2.5486  0.6803  1.0271
12619SOL    HW241004   6.107   2.301   6.527  1.6183 -0.5200 -0.9606
12620SOL     OW41005   0.781   2.307   7.416 -0.4725  0.1432 -0.1886
12620SOL    HW141006   0.845   2.320   7.346  1.1807  0.2178  1.2609
12620SOL    HW241007   0.732   2.229   7.389  2.0676 -1.6119 -0.1404
12621SOL     OW41008   8.080   2.757   4.580 -0.3299 -0.3586 -0.2703
12621SOL    HW141009   8.100   2.834   4.633 -0.9181  0.3199 -0.9962
12621SOL    HW241010   8.120   2.684   4.626  1.8279  0.6149 -0.4889
12622SOL     OW41011   0.730   4.931   6.604  0.0896  0.2826  0.0013
12622SOL    HW141012   0.807   4.974   6.642  0.9236  0.4375 -1.7492
12622SOL    HW241013   0.698   4.993   6.539  0.6701 -1.2441 -1.8183
12623SOL     OW41014   4.815   6.196   1.863 -0.1645 -0.4296  0.0500
12623SOL    HW141015   4.761   6.123   1.893 -1.1511 -0.1200 -0.8900
12623SOL    HW241016   4.882   6.206   1.931 -1.3289 -0.7856  1.3017
12624SOL     OW41017   6.841   5.279   3.384  0.4194 -0.0362 -0.1843
12624SOL    HW141018   6.914   5.218   3.381 -1.9606 -3.0826 -2.3039
12624SOL    HW241019   6.777   5.244   3.323 -2.7631  2.5622  1.3118
12625SOL     OW41020   3.705   0.746   5.406 -0.1613  0.4258  0.0922
12625SOL    HW141021   3.791   0.705   5.398 -0.4159  0.0610 -0.9458
12625SOL    HW241022   3.654   0.711   5.333 -1.2290  0.5667  0.7402
12626SOL     OW41023   5.237   3.012   5.838  0.1063  0.0761  0.3214
12626SOL    HW141024   5.264   2.961   5.761 -0.2015 -0.8793  0.8205
12626SOL    HW241025   5.168   3.070   5.806  2.4461  2.3621 -0.9167
12627SOL     OW41026   6.400   6.700   0.965 -0.0410  0.5178 -0.2874
12627SOL    HW141027   6.318   6.715   0.918 -0.1011  2.3929  0.3282
12627SOL    HW241028   6.465   6.689   0.897 -0.2723  2.3656 -0.8825
12628SOL     OW41029   5.574   0.825   5.891 -0.3225  0.0881 -0.4943
12628SOL    HW141030   5.598   0.904   5.939  0.0872 -0.8638  0.9377
12628SOL    HW241031   5.479   0.824   5.893 -0.3216  0.3628 -0.1760
12629SOL     OW41032   3.151   6.151   2.493 -0.2634  0.2190  0.0640
12629SOL    HW141033   3.225   6.155   2.433 -1.3594 -1.4540 -1.5078
12629SOL    HW241034   3.191   6.140   2.580  1.3767  3.4965 -0.1380
12630SOL     OW41035   2.767   3.699   4.630 -0.2014  0.1840 -0.4889
12630SOL    HW141036   2.688   3.645   4.634  0.3661 -0.6477  0.1103
12630SOL    HW241037   2.839   3.635   4.630  0.5311  0.9367  1.3636
12631SOL     OW41038   6.881   4.926   3.499  0.1454 -0.4028 -0.2654
12631SOL    HW141039   6.937   4.966   3.433 -2.1453  2.9689 -0.4139
12631SOL    HW241040   6.925   4.944   3.582 -0.0459  1.1272 -0.4654
12632SOL     OW41041   6.486   5.258   0.722 -0.6101 -0.4701 -0.2311
12632SOL    HW141042   6.481   5.164   0.706 -2.5874 -0.4091 -0.2411
12632SOL    HW241043   6.579   5.280   0.713  0.1712 -2.7066  1.4936
12633SOL     OW41044   3.607   4.487   3.871 -0.0204 -0.2562 -0.6195
12633SOL    HW141045   3.701   4.494   3.861  0.1126  0.4707  0.8167
12633SOL    HW241046   3.584   4.558   3.931 -1.5374 -0.1796 -1.2325
12634SOL     OW41047   6.289   6.738   0.057 -0.3101  0.5716  0.3459
12634SOL    HW141048   6.211   6.721   0.003 -0.2656 -0.4302  0.5896
12634SOL    HW241049   6.291   6.834   0.066 -0.5405  0.7434 -1.1052
12635SOL     OW41050   4.866   7.956   5.317 -0.0204  0.0183  0.1213
12635SOL    HW141051   4.862   7.962   5.222  0.8731 -1.0587 -0.0020
12635SOL    HW241052   4.956   7.980   5.339 -0.5996  1.7638  0.8579
12636SOL     OW41053   7.928   0.403   3.683 -0.4107  0.7212  0.3695
12636SOL    HW141054   7.873   0.327   3.702 -2.1059  1.7102 -0.3835
12636SOL    HW241055   7.965   0.427   3.768 -0.0604 -0.7653  0.6604
12637SOL     OW41056   2.622   0.681   4.898  0.2310 -0.2448  0.5744
12637SOL    HW141057   2.547   0.632   4.932  0.5326 -0.4950  0.8837
12637SOL    HW241058   2.599   0.700   4.807  0.3850 -1.5125  0.2547
12638SOL     OW41059   5.322   2.778   7.214 -0.6713 -0.2362 -0.0382
12638SOL    HW141060   5.262   2.735   7.154 -1.8355  0.6250  0.4665
12638SOL    HW241061   5.408   2.740   7.194 -1.2836 -1.0886 -1.1522
12639SOL     OW41062   6.801   5.246   7.220  0.0523 -0.6154  0.3681
12639SOL    HW141063   6.828   5.256   7.312 -0.8193 -2.6475  0.8885
12639SOL    HW241064   6.763   5.158   7.215  0.2815 -0.6375 -2.0141
12640SOL     OW41065   5.603   2.450   6.286  0.5310  0.3998 -0.0183
12640SOL    HW141066   5.602   2.389   6.212  0.6798 -2.0490  1.8614
12640SOL    HW241067   5.523   2.429   6.335  0.0790  2.4415  0.2150
12641SOL     OW41068   3.487   5.930   5.096 -0.1788  0.1453  0.4062
12641SOL    HW141069   3.551   5.968   5.036 -0.6537 -1.4948 -1.2101
12641SOL    HW241070   3.474   5.841   5.065 -1.1768 -0.4662  2.3935
12642SOL     OW41071   2.443   6.444   7.032  0.0428 -0.1162  0.3684
12642SOL    HW141072   2.378   6.391   6.986  0.7959  0.8705 -1.9880
12642SOL    HW241073   2.406   6.532   7.032  0.9362  0.2717 -0.1505
12643SOL     OW41074   0.385   1.107   2.168 -0.4359  0.1393 -0.7559
12643SOL    HW141075   0.454   1.140   2.109 -0.3731 -0.9912 -1.3253
12643SOL    HW241076   0.433   1.063   2.238 -0.5441  0.5903 -0.3946
12644SOL     OW41077   4.918   4.040   4.881  0.1908  0.8355  0.0697
12644SOL    HW141078   4.908   3.952   4.919  0.7035  0.6085 -0.3090
12644SOL    HW241079   4.964   4.089   4.950 -1.9920  1.4468  1.1745
12645SOL     OW41080   3.621   5.209   3.647 -0.1175 -0.5089  0.0815
12645SOL    HW141081   3.644   5.267   3.574 -1.9006  1.0243  0.6469
12645SOL    HW241082   3.639   5.261   3.725 -1.5364 -0.7697  0.6106
12646SOL     OW41083   3.998   5.010   1.006 -0.3666  0.4681 -0.7342
12646SOL    HW141084   3.946   4.948   0.955 -1.5759  1.2809 -0.5381
12646SOL    HW241085   3.937   5.080   1.027  1.2247  2.3723 -2.0276
12647SOL     OW41086   2.862   5.732   3.875  0.3398  0.1182 -0.6787
12647SOL    HW141087   2.827   5.734   3.963  2.1938 -0.2891  0.1202
12647SOL    HW241088   2.825   5.653   3.835 -1.0417  0.6717 -0.5336
12648SOL     OW41089   0.388   0.882   5.695 -0.0551 -0.1427 -0.3113
12648SOL    HW141090   0.438   0.963   5.682  0.7356 -0.7466 -1.1162
12648SOL    HW241091   0.449   0.812   5.673 -1.0248 -0.9313 -0.5512
12649SOL     OW41092   6.949   4.304   0.926  0.9057  0.2963  0.0080
12649SOL    HW141093   6.899   4.289   0.846 -0.2733  0.8581  0.6224
12649SOL    HW241094   7.004   4.225   0.935 -0.6116 -0.8110 -0.1267
12650SOL     OW41095   6.909   0.087   7.208  0.0881  0.2126  0.1300
12650SOL    HW141096   6.966   0.020   7.171 -1.2316 -0.8250 -0.0800
12650SOL    HW241097   6.881   0.139   7.133 -2.0044 -1.4446 -0.3148
12651SOL     OW41098   4.226   1.190   3.187 -0.0574  0.1103  0.0774
12651SOL    HW141099   4.140   1.154   3.205 -0.9979  1.4505 -1.4494
12651SOL    HW241100   4.258   1.139   3.113  0.2260 -0.0133  0.2834
12652SOL     OW41101   4.604   7.237   4.649 -0.2842 -0.2759 -0.3786
12652SOL    HW141102   4.679   7.191   4.611 -0.3952 -1.6584  0.9527
12652SOL    HW241103   4.531   7.213   4.592  0.0389 -0.0223 -0.9072
12653SOL     OW41104   5.189   3.917   1.634 -0.1937 -0.0966  0.3188
12653SOL    HW141105   5.159   3.891   1.721  1.7057 -0.5473  0.8833
12653SOL    HW241106   5.242   3.995   1.650  1.0084 -0.7663 -0.2671
12654SOL     OW41107   0.132   5.012   4.477 -0.1291 -0.0830 -0.3620
12654SOL    HW141108   0.081   4.931   4.472  0.8217 -0.6457 -1.5732
12654SOL    HW241109   0.205   4.990   4.535  0.3501 -0.2461 -1.0105
12655SOL     OW41110   4.893   7.776   0.273 -0.0992  0.0072  0.1550
12655SOL    HW141111   4.849   7.691   0.270 -1.4074  0.5243  2.2725
12655SOL    HW241112   4.974   7.760   0.321  0.3274 -0.2663 -0.6324
12656SOL     OW41113   0.254   2.163   6.937 -0.7849  0.0179  0.1209
12656SOL    HW141114   0.187   2.186   6.873 -1.3174 -1.4705  0.1097
12656SOL    HW241115   0.332   2.210   6.908 -0.7215 -1.3787 -2.2249
12657SOL     OW41116   1.034   0.488   8.080  0.1739  0.0542 -0.5853
12657SOL    HW141117   0.958   0.541   8.102  0.7012  2.0665 -3.1227
12657SOL    HW241118   1.021   0.465   7.988  0.8955 -2.7462 -0.0781
12658SOL     OW41119   2.774   6.537   2.304 -0.1097  0.3430  0.3074
12658SOL    HW141120   2.858   6.491   2.316 -0.4974  0.1410  2.8917
12658SOL    HW241121   2.798   6.629   2.295  0.4401  0.2026  0.3068
12659SOL     OW41122   1.918   6.790   1.240 -0.1050  0.0526  0.3660
12659SOL    HW141123   1.907   6.850   1.167 -0.4562 -0.3941  0.0437
12659SOL    HW241124   2.012   6.775   1.245  0.0195  0.8627  0.6487
12660SOL     OW41125   2.342   7.486   1.962  0.9341 -0.0431 -0.0751
12660SOL    HW141126   2.345   7.563   2.019 -2.2550  0.0708  0.1506
12660SOL    HW241127   2.348   7.522   1.874 -0.9867  0.6169  0.0096
12661SOL     OW41128   7.118   7.211   7.284  0.0753  0.2396 -0.1371
12661SOL    HW141129   7.181   7.277   7.313  0.2130 -0.2969  0.8221
12661SOL    HW241130   7.103   7.156   7.361 -1.9712  0.6498 -0.1745
12662SOL     OW41131   5.147   4.602   6.866 -0.7611 -0.0709 -0.1246
12662SOL    HW141132   5.059   4.619   6.832 -1.1462 -1.1050  0.3070
12662SOL    HW241133   5.145   4.510   6.892 -0.0213  0.2841  1.2921
12663SOL     OW41134   1.225   6.372   6.543  0.2841  0.1563  0.4236
12663SOL    HW141135   1.294   6.381   6.477  1.6853 -1.9402  1.4690
12663SOL    HW241136   1.207   6.461   6.572  4.0102  0.7615  1.4371
12664SOL     OW41137   2.919   1.812   5.226  0.3284  0.0827 -0.1336
12664SOL    HW141138   2.852   1.869   5.187 -0.0171 -0.8526 -0.9378
12664SOL    HW241139   2.953   1.762   5.152  0.9698 -0.4119  0.4936
12665SOL     OW41140   1.264   4.212   7.850  0.3439 -0.6773 -0.7020
12665SOL    HW141141   1.171   4.218   7.873  0.4052 -1.1084 -0.3431
12665SOL    HW241142   1.265   4.215   7.754  0.0116  0.0508 -0.6892
12666SOL     OW41143   6.473   2.641   3.182 -0.4978  0.2704 -0.5877
12666SOL    HW141144   6.400   2.662   3.241  0.1592  2.0454 -0.3692
12666SOL    HW241145   6.516   2.725   3.166  1.2137 -0.6648 -1.1084
12667SOL     OW41146   6.199   2.039   2.546  0.3642  0.8022  0.6159
12667SOL    HW141147   6.177   2.059   2.637  2.3385 -0.7381  1.5001
12667SOL    HW241148   6.285   2.078   2.532  0.8603 -0.4510 -0.0149
12668SOL     OW41149   4.898   7.486   3.391  0.4085 -0.3162  0.0177
12668SOL    HW141150   4.903   7.417   3.458  1.7907  0.1475  0.4281
12668SOL    HW241151   4.978   7.536   3.403  0.6330 -0.1524 -1.9306
12669SOL     OW41152   1.181   5.355   6.505  0.0352 -0.1009 -0.1687
12669SOL    HW141153   1.154   5.269   6.474 -1.7714  0.5344 -0.4921
12669SOL    HW241154   1.192   5.344   6.600 -3.8105  0.0387  0.4568
12670SOL     OW41155   4.683   2.732   7.567  0.3583  0.3223 -0.0017
12670SOL    HW141156   4.641   2.805   7.521  1.7260 -0.2833 -2.3585
12670SOL    HW241157   4.613   2.696   7.621 -1.8111  0.3040 -2.5849
12671SOL     OW41158   2.376   3.662   5.766  0.6364 -0.3919  0.0109
12671SOL    HW141159   2.391   3.577   5.808  1.6061 -0.3684 -0.2727
12671SOL    HW241160   2.379   3.644   5.672  1.4103  0.0333 -0.0593
12672SOL     OW41161   3.939   0.402   5.709  0.0823 -0.0091 -0.0573
12672SOL    HW141162   3.848   0.427   5.721  0.2455  0.0016  1.4078
12672SOL    HW241163   3.980   0.422   5.793  1.5395  0.4251 -0.8405
12673SOL     OW41164   5.761   1.182   2.845  0.3235  0.2568  0.3098
12673SOL    HW141165   5.676   1.223   2.854 -0.2861 -1.1383  1.2087
12673SOL    HW241166   5.809   1.209   2.923  0.2158 -0.0702  0.4893
12674SOL     OW41167   5.009   3.652   1.635 -0.8189 -0.2638 -0.1642
12674SOL    HW141168   4.982   3.671   1.725 -2.3085  0.4625 -0.7194
12674SOL    HW241169   5.103   3.633   1.641 -0.8552 -0.0595  1.5076
12675SOL     OW41170   2.707   7.702   2.703 -0.4554 -0.4337  0.3377
12675SOL    HW141171   2.761   7.694   2.782 -0.3733 -0.8429  0.2416
12675SOL    HW241172   2.727   7.624   2.652  0.1968  0.2874 -0.5408
12676SOL     OW41173   1.762   6.233   2.145 -0.2082  0.4427  0.5454
12676SOL    HW141174   1.674   6.200   2.126 -0.1633  1.1894 -1.1652
12676SOL    HW241175   1.818   6.155   2.144 -0.8839 -0.0907  2.0715
12677SOL     OW41176   0.438   6.551   3.068 -0.2597  0.4293 -1.0200
12677SOL    HW141177   0.469   6.597   3.147  0.3025 -0.3028 -0.7978
12677SOL    HW241178   0.424   6.620   3.004  1.1698  0.8681 -0.8928
12678SOL     OW41179   1.653   3.431   6.365 -0.7103 -0.3534  0.3932
12678SOL    HW141180   1.559   3.415   6.359 -0.7110  0.0482 -1.1246
12678SOL    HW241181   1.666   3.467   6.453 -2.5171  2.8387 -0.4991
12679SOL     OW41182   0.444   7.405   0.980 -0.2985 -0.0976 -0.3716
12679SOL    HW141183   0.461   7.443   0.894 -0.8988  0.3065 -0.3163
12679SOL    HW241184   0.509   7.446   1.038  1.8860 -2.3224 -1.1025
12680SOL     OW41185   6.082   4.095   2.549  0.2528 -0.4319  0.3987
12680SOL    HW141186   6.120   4.040   2.480  0.7277 -1.1974  1.2529
12680SOL    HW241187   6.030   4.160   2.502  0.0816 -1.3101 -0.6546
12681SOL     OW41188   3.757   1.536   7.611  0.6772  0.0897 -0.2295
12681SOL    HW141189   3.678   1.567   7.567  0.6758 -0.6943 -0.8105
12681SOL    HW241190   3.808   1.616   7.628 -0.2245  0.5989  0.1491
12682SOL     OW41191   5.946   3.716   2.638 -0.3369  0.1326 -0.8294
12682SOL    HW141192   5.944   3.678   2.550 -2.8691  2.7111 -2.0894
12682SOL    HW241193   6.039   3.734   2.654  0.1993 -0.2838 -3.0549
12683SOL     OW41194   3.104   6.662   3.430 -0.1846 -0.5320 -0.0626
12683SOL    HW141195   3.018   6.630   3.402  0.2565 -0.5963 -1.4331
12683SOL    HW241196   3.085   6.724   3.501 -1.5949  1.3437 -1.9417
12684SOL     OW41197   1.479   7.402   7.874  0.0087 -0.5394 -1.0020
12684SOL    HW141198   1.486   7.380   7.781 -0.4639 -0.3009 -1.1002
12684SOL    HW241199   1.565   7.384   7.910 -0.2884 -2.3398 -1.1120
12685SOL     OW41200   5.925   0.363   7.205 -0.1352 -0.2905 -0.2592
12685SOL    HW141201   5.983   0.288   7.212 -0.6198 -0.5654  1.0723
12685SOL    HW241202   5.984   0.439   7.202  0.3373 -0.4926  1.9974
12686SOL     OW41203   2.624   4.244   5.619  0.6855 -0.2888 -0.0452
12686SOL    HW141204   2.611   4.228   5.712  0.7744  0.6924  0.1481
12686SOL    HW241205   2.546   4.208   5.577  1.8494 -3.2731  0.0720
12687SOL     OW41206   1.367   3.660   5.787  0.0280  0.2686 -0.1709
12687SOL    HW141207   1.323   3.659   5.701 -0.2265  0.8980 -0.0501
12687SOL    HW241208   1.379   3.567   5.808  0.7429  0.1026 -1.2163
12688SOL     OW41209   6.586   3.213   7.715 -0.0554 -0.4320 -0.4537
12688SOL    HW141210   6.639   3.290   7.694 -0.5172 -0.0090 -0.0913
12688SOL    HW241211   6.498   3.235   7.687 -0.6273  0.0216  1.5423
12689SOL     OW41212   2.381   8.018   1.519 -0.2983  0.1259  0.3004
12689SOL    HW141213   2.323   8.021   1.595 -0.9707  2.4882 -0.2246
12689SOL    HW241214   2.431   8.100   1.523 -1.4255  1.0719 -2.5380
12690SOL     OW41215   2.757   0.568   5.987 -0.0218 -0.0216  0.8051
12690SOL    HW141216   2.685   0.562   5.924 -0.0613 -1.1062  0.9266
12690SOL    HW241217   2.749   0.488   6.039  0.2583  0.6592  1.9260
12691SOL     OW41218   1.740   0.267   6.163  0.0488 -0.0396 -0.7718
12691SOL    HW141219   1.799   0.221   6.104  1.4378  3.1608 -2.1200
12691SOL    HW241220   1.781   0.260   6.250  0.5731 -0.7093 -1.0680
12692SOL     OW41221   2.653   0.767   6.381 -0.3245 -0.1572  0.1198
12692SOL    HW141222   2.650   0.671   6.382 -0.4316 -0.1527  0.2311
12692SOL    HW241223   2.600   0.793   6.456  0.0475 -0.0173  0.3370
12693SOL     OW41224   1.078   0.893   5.583 -0.4260 -0.1871 -0.4015
12693SOL    HW141225   1.012   0.834   5.547  1.0277 -0.9958 -1.8729
12693SOL    HW241226   1.098   0.953   5.512 -0.6296  1.0072  0.5181
12694SOL     OW41227   5.462   0.447   6.112 -0.1069 -0.1971 -0.5570
12694SOL    HW141228   5.467   0.356   6.141 -3.0366 -0.4902 -0.6596
12694SOL    HW241229   5.533   0.491   6.158  0.9848 -2.3927 -0.0112
12695SOL     OW41230   7.207   7.442   6.974  0.5153 -0.1441 -0.1119
12695SOL    HW141231   7.287   7.482   7.008  1.5656 -1.5006 -0.8785
12695SOL    HW241232   7.220   7.439   6.879 -1.3381  1.4130 -0.4888
12696SOL     OW41233   1.056   0.641   5.824 -0.5193 -0.3632 -0.2821
12696SOL    HW141234   1.057   0.683   5.910 -0.4490 -0.1378 -0.3932
12696SOL    HW241235   1.101   0.558   5.838 -1.0878 -0.6195  0.0498
12697SOL     OW41236   7.638   2.833   3.479 -0.2249  0.1597  0.5393
12697SOL    HW141237   7.556   2.783   3.475 -1.1869  1.6534  0.7757
12697SOL    HW241238   7.704   2.768   3.504 -1.0320 -1.4019 -1.0838
12698SOL     OW41239   0.686   3.749   1.198  0.1053  0.1911 -0.5679
12698SOL    HW141240   0.712   3.687   1.130  1.6311 -0.5723  0.6578
12698SOL    HW241241   0.599   3.720   1.226  0.1827 -0.4967 -1.0341
12699SOL     OW41242   1.092   2.285   0.972  0.2432  0.0726  0.2473
12699SOL    HW141243   1.094   2.219   1.042 -0.2089 -0.0606  0.1374
12699SOL    HW241244   1.059   2.238   0.896  1.5582 -0.0045 -0.3014
12700SOL     OW41245   0.613   5.856   2.354 -0.1958 -0.0417  0.1331
12700SOL    HW141246   0.638   5.789   2.417  1.7764 -0.3266 -0.8904
12700SOL    HW241247   0.588   5.932   2.407  3.0676  0.3234  1.3374
12701SOL     OW41248   6.763   7.007   1.791  0.8704  0.0686  0.2430
12701SOL    HW141249   6.746   7.061   1.868  0.7121  0.4851 -0.0817
12701SOL    HW241250   6.777   7.070   1.720  0.4710 -0.3115 -0.1834
12702SOL     OW41251   6.466   1.811   0.675  0.0640  0.0555 -0.1334
12702SOL    HW141252   6.396   1.761   0.634  0.7170  0.1447 -1.4011
12702SOL    HW241253   6.545   1.786   0.627  0.7399  0.7099  0.6097
12703SOL     OW41254   1.187   4.274   2.180  0.5357  0.2300 -0.1299
12703SOL    HW141255   1.152   4.328   2.250  1.4257 -0.8301  1.1954
12703SOL    HW241256   1.114   4.261   2.120 -0.6129  0.1334  1.2525
12704SOL     OW41257   0.723   5.869   6.739  0.0568  0.0260  0.5799
12704SOL    HW141258   0.698   5.812   6.666 -0.4531 -0.3268  1.0219
12704SOL    HW241259   0.808   5.905   6.713 -0.1352 -0.0611 -0.2057
12705SOL     OW41260   3.346   7.599   1.984 -0.2359  0.1426 -0.7243
12705SOL    HW141261   3.302   7.656   2.046  1.4967 -0.6639  1.3635
12705SOL    HW241262   3.326   7.510   2.014  0.2210 -0.2868 -1.6305
12706SOL     OW41263   0.891   3.903   3.235 -0.4550 -0.2020  0.5253
12706SOL    HW141264   0.948   3.968   3.276 -0.7398  0.5260 -0.2116
12706SOL    HW241265   0.852   3.949   3.160 -1.7547 -0.7812  0.8252
12707SOL     OW41266   0.789   0.145   6.684  0.2616 -0.2207  0.7787
12707SOL    HW141267   0.769   0.235   6.657  0.2416 -0.8721 -1.6258
12707SOL    HW241268   0.743   0.135   6.768 -1.4537  1.3798  0.1156
12708SOL     OW41269   3.972   7.330   6.573  0.1443  0.0696 -0.4884
12708SOL    HW141270   3.898   7.351   6.631 -0.9932  0.5948 -2.0355
12708SOL    HW241271   4.025   7.268   6.622 -2.2271 -1.6361  0.0704
12709SOL     OW41272   2.486   5.002   4.138  0.1078 -0.1426  0.4655
12709SOL    HW141273   2.420   5.071   4.149  1.1355  1.0958 -0.7544
12709SOL    HW241274   2.437   4.928   4.102 -1.5309 -1.1021  4.1488
12710SOL     OW41275   4.219   6.177   7.251  0.1351 -0.6551 -0.0333
12710SOL    HW141276   4.256   6.153   7.166  0.6268 -1.4492  0.3980
12710SOL    HW241277   4.184   6.096   7.286 -1.0209 -0.1286  0.0713
12711SOL     OW41278   2.053   4.682   3.952 -0.0427 -0.0602  0.2921
12711SOL    HW141279   2.029   4.620   4.021 -2.6040 -0.4931 -0.8740
12711SOL    HW241280   2.061   4.629   3.873  2.2370  0.5201  0.0670
12712SOL     OW41281   2.717   4.514   0.981  0.2563 -0.2039  0.0064
12712SOL    HW141282   2.710   4.593   0.926 -0.5345 -0.2701  0.0084
12712SOL    HW241283   2.770   4.542   1.056 -1.1770  0.7248  0.7082
12713SOL     OW41284   5.604   7.805   3.148 -0.3892 -0.1583 -0.0213
12713SOL    HW141285   5.532   7.868   3.143 -1.1865 -0.9425  1.0948
12713SOL    HW241286   5.567   7.723   3.115 -0.1157 -0.6437  0.8588
12714SOL     OW41287   0.557   3.129   3.668 -0.1981 -0.0088 -0.0849
12714SOL    HW141288   0.483   3.177   3.704 -1.1576 -2.2294  1.0890
12714SOL    HW241289   0.520   3.076   3.597  0.3154 -0.8273  0.2376
12715SOL     OW41290   1.177   1.713   1.751  0.1162  0.2258 -0.4243
12715SOL    HW141291   1.266   1.680   1.767  0.0548  0.4565  0.4720
12715SOL    HW241292   1.185   1.765   1.671  0.8329  0.3944 -0.2533
12716SOL     OW41293   5.034   1.041   4.616 -0.2453  1.1750 -0.1730
12716SOL    HW141294   4.940   1.023   4.616 -0.6975  2.8986 -2.9947
12716SOL    HW241295   5.074   0.954   4.617 -1.9202  0.3477 -0.3369
12717SOL     OW41296   4.340   3.094   6.502 -0.0754  0.1129  0.4884
12717SOL    HW141297   4.384   3.078   6.585 -1.6662 -1.3242  1.1160
12717SOL    HW241298   4.249   3.071   6.518 -0.2339 -1.3100 -1.9262
12718SOL     OW41299   0.284   5.331   6.137 -0.0664 -0.1165  0.4262
12718SOL    HW141300   0.362   5.305   6.187 -1.3034 -2.9718  1.0464
12718SOL    HW241301   0.304   5.305   6.047 -0.4098 -1.1732  0.6457
12719SOL     OW41302   3.661   4.230   6.600  0.7601 -0.2509 -0.5403
12719SOL    HW141303   3.588   4.271   6.554  1.3566  1.1476 -0.3003
12719SOL    HW241304   3.739   4.264   6.557  1.3036  0.1076  0.6732
12720SOL     OW41305   3.343   1.297   0.476  0.1797 -1.1259 -0.1249
12720SOL    HW141306   3.254   1.264   0.483 -0.8900  1.5027 -0.0919
12720SOL    HW241307   3.347   1.368   0.540  1.6105  0.1408 -1.5217
12721SOL     OW41308   0.603   2.627   5.685 -0.9200  0.0036  0.4431
12721SOL    HW141309   0.678   2.597   5.736  0.3663  0.2851 -1.2036
12721SOL    HW241310   0.634   2.627   5.595 -2.8813  0.2371 -0.2761
12722SOL     OW41311   1.510   4.136   6.785 -0.2777 -0.7469  0.2956
12722SOL    HW141312   1.605   4.149   6.787 -0.1875 -1.1117 -0.8716
12722SOL    HW241313   1.475   4.209   6.837  0.5788  0.0230 -0.1713
12723SOL     OW41314   1.416   4.055   2.200  0.2759  0.3035 -0.1049
12723SOL    HW141315   1.416   4.146   2.168 -0.6697  0.5687  0.5961
12723SOL    HW241316   1.450   4.062   2.289  2.8467 -0.4213 -0.9608
12724SOL     OW41317   6.729   4.006   0.522  0.5056 -0.3213  0.1818
12724SOL    HW141318   6.692   4.003   0.434 -0.1175 -0.3747  0.4359
12724SOL    HW241319   6.658   4.041   0.576  0.1269 -2.2410  1.0273
12725SOL     OW41320   3.101   5.366   0.299  0.0568 -0.6072  0.2271
12725SOL    HW141321   3.171   5.371   0.233 -0.5469 -0.0761 -0.3814
12725SOL    HW241322   3.029   5.322   0.254 -0.9046  1.1076  0.0265
12726SOL     OW41323   7.588   2.060   7.240 -0.3598  0.0620 -0.0276
12726SOL    HW141324   7.531   2.132   7.266  1.3626  0.9984  1.3793
12726SOL    HW241325   7.676   2.097   7.241  0.8672 -2.4488  2.7974
12727SOL     OW41326   0.813   3.204   0.335 -0.2287 -0.0475 -0.0698
12727SOL    HW141327   0.905   3.219   0.358 -0.1903 -0.8819  0.3912
12727SOL    HW241328   0.772   3.290   0.339  0.2542  0.1431  1.0585
12728SOL     OW41329   3.105   4.869   1.306 -0.6306  0.1381 -0.1446
12728SOL    HW141330   3.086   4.963   1.308 -0.5427  0.1550 -0.1237
12728SOL    HW241331   3.133   4.849   1.396 -2.5713 -0.2965  0.4200
12729SOL     OW41332   7.835   3.674   2.186 -0.1359 -0.0473  0.4453
12729SOL    HW141333   7.815   3.584   2.163 -2.6269  0.6431 -0.3788
12729SOL    HW241334   7.860   3.716   2.103  0.6859  0.1289  0.7659
12730SOL     OW41335   6.024   5.311   6.021  0.1569 -0.0747 -0.0150
12730SOL    HW141336   5.971   5.388   6.045 -0.2307 -0.3496  0.0111
12730SOL    HW241337   6.014   5.304   5.926 -0.2018 -0.3808  0.0441
12731SOL     OW41338   0.431   6.656   4.777  0.1769  0.2866  0.4670
12731SOL    HW141339   0.440   6.734   4.832  2.3202  0.0652  0.5050
12731SOL    HW241340   0.397   6.589   4.837  2.5275  0.0349  1.6512
12732SOL     OW41341   7.289   1.681   0.242  0.1737 -0.0894  0.6255
12732SOL    HW141342   7.228   1.698   0.170 -0.0454  0.0267  0.8362
12732SOL    HW241343   7.248   1.722   0.318  0.2013 -0.5738  0.9041
12733SOL     OW41344   0.283   7.251   6.979 -0.3253  0.1118 -0.1635
12733SOL    HW141345   0.358   7.223   6.926  1.7418  3.9484  0.4091
12733SOL    HW241346   0.294   7.206   7.063  0.1645 -0.8542 -0.7274
12734SOL     OW41347   0.601   2.500   0.003  0.2683  0.8714 -0.1330
12734SOL    HW141348   0.619   2.411   0.032  0.0807  1.3729  1.6391
12734SOL    HW241349   0.505   2.505   0.002  0.2717  1.3125  0.7062
12735SOL     OW41350   1.213   1.375   7.100  0.0755 -0.4727 -0.5034
12735SOL    HW141351   1.260   1.430   7.164  1.0354 -1.1975 -0.5584
12735SOL    HW241352   1.266   1.382   7.020 -0.2503 -0.8312 -0.7502
12736SOL     OW41353   7.657   7.596   0.801 -0.4530  0.3853 -1.2904
12736SOL    HW141354   7.735   7.605   0.856  0.3251 -4.1342 -1.1928
12736SOL    HW241355   7.687   7.615   0.713  0.0036  1.4317 -0.9180
12737SOL     OW41356   1.728   6.379   4.713  0.1453 -0.1202  0.1886
12737SOL    HW141357   1.693   6.419   4.633 -1.3122 -0.6234  0.5502
12737SOL    HW241358   1.823   6.381   4.701  0.0595  1.9572 -0.5111
12738SOL     OW41359   5.536   0.169   5.550 -0.0355 -0.2082  0.3653
12738SOL    HW141360   5.524   0.211   5.464 -0.7579 -1.3036 -0.0990
12738SOL    HW241361   5.521   0.239   5.613  0.2948  0.5707 -0.3949
12739SOL     OW41362   2.450   7.244   0.213  0.4415  0.1018 -0.0867
12739SOL    HW141363   2.419   7.169   0.263  2.3642 -1.0567 -0.5645
12739SOL    HW241364   2.446   7.317   0.275 -1.7188 -0.2674  0.3015
12740SOL     OW41365   6.301   4.497   4.154  0.2252 -0.2491 -0.3453
12740SOL    HW141366   6.304   4.555   4.078 -0.5773  1.1278  0.6554
12740SOL    HW241367   6.383   4.514   4.200  0.1921 -0.2492 -0.2865
12741SOL     OW41368   5.542   7.113   1.034  0.2125  0.2299  0.1631
12741SOL    HW141369   5.632   7.088   1.014  0.1789 -0.7703  1.1977
12741SOL    HW241370   5.550   7.194   1.084  0.5488 -0.0058  0.4893
12742SOL     OW41371   5.319   8.095   6.977  0.0965  0.6185  0.4512
12742SOL    HW141372   5.414   8.089   6.984  0.4573  3.0247 -1.1975
12742SOL    HW241373   5.295   8.165   7.037 -0.7090 -0.0885  0.9906
12743SOL     OW41374   5.080   3.075   2.342  0.0519  0.0997  0.0691
12743SOL    HW141375   5.136   3.147   2.310 -2.9331  3.1264  1.0081
12743SOL    HW241376   5.087   3.081   2.437 -1.7735  0.6136  0.2148
12744SOL     OW41377   7.504   6.329   1.877  0.2934 -0.1118  0.4089
12744SOL    HW141378   7.424   6.382   1.881  1.2597  1.4033  0.5843
12744SOL    HW241379   7.560   6.377   1.816  1.3162 -0.7869  0.8094
12745SOL     OW41380   4.938   7.828   6.588  0.0666 -0.0959  0.3761
12745SOL    HW141381   4.997   7.798   6.656 -0.8571 -2.7438  0.1200
12745SOL    HW241382   4.851   7.828   6.629 -0.1909  0.5720 -0.1424
12746SOL     OW41383   1.175   6.415   7.343 -0.2102 -0.0581  0.0467
12746SOL    HW141384   1.147   6.493   7.392 -1.4291  0.3652 -1.2561
12746SOL    HW241385   1.142   6.341   7.395 -1.2646  0.3746  0.0347
12747SOL     OW41386   3.511   3.950   5.118  0.3935  0.0289 -0.1764
12747SOL    HW141387   3.504   3.877   5.057 -0.8820  0.4828 -0.6145
12747SOL    HW241388   3.580   4.006   5.082  0.3099 -0.1852 -0.6708
12748SOL     OW41389   7.925   6.707   0.613 -0.1477  0.2847  0.1089
12748SOL    HW141390   7.970   6.791   0.602  0.8614 -0.2607 -0.0846
12748SOL    HW241391   7.906   6.677   0.525 -1.0715  0.5869  0.1927
12749SOL     OW41392   2.221   1.614   1.015 -0.2866 -0.0403  0.4709
12749SOL    HW141393   2.311   1.621   0.984 -0.5912  2.3234 -0.0105
12749SOL    HW241394   2.222   1.535   1.069  1.4973 -1.3763 -1.3257
12750SOL     OW41395   7.010   6.343   0.755  0.0558  0.1260  0.3606
12750SOL    HW141396   6.943   6.362   0.689 -0.4367 -0.5148  0.6648
12750SOL    HW241397   7.084   6.398   0.731 -1.1288  2.0391  0.9300
12751SOL     OW41398   1.570   1.454   4.489  0.3162 -0.1098  0.0399
12751SOL    HW141399   1.606   1.522   4.432  1.1829 -0.2506  0.4115
12751SOL    HW241400   1.621   1.376   4.469  1.4195  0.1036  1.7885
12752SOL     OW41401   3.385   0.710   3.963  0.7201 -0.2661 -0.0697
12752SOL    HW141402   3.403   0.782   4.024 -1.4034  1.2079 -1.0658
12752SOL    HW241403   3.424   0.737   3.880 -1.1702  0.4079 -0.7882
12753SOL     OW41404   2.139   0.804   0.299  0.1006 -0.3629  0.2107
12753SOL    HW141405   2.123   0.754   0.220  0.0606  1.0778 -0.7301
12753SOL    HW241406   2.152   0.894   0.269  0.6225  0.1347  1.7873
12754SOL     OW41407   5.616   2.592   3.534 -0.1667 -0.2510  0.3491
12754SOL    HW141408   5.603   2.508   3.490 -1.3364  0.5582 -0.9111
12754SOL    HW241409   5.705   2.586   3.571  0.7496 -1.1062 -1.8207
12755SOL     OW41410   4.389   7.341   2.087  0.4714  0.4792 -0.0993
12755SOL    HW141411   4.417   7.256   2.053  0.6389  0.7739 -0.7163
12755SOL    HW241412   4.338   7.380   2.015  1.1020  1.2483 -0.1453
12756SOL     OW41413   2.738   3.465   0.390 -0.0851  0.3982 -0.2469
12756SOL    HW141414   2.689   3.403   0.444 -0.2362 -0.0063 -0.8321
12756SOL    HW241415   2.772   3.530   0.452 -0.6385  0.2029  0.2683
12757SOL     OW41416   6.624   2.137   7.744  0.4224  0.0113  0.2173
12757SOL    HW141417   6.647   2.209   7.803  3.5403 -0.0594 -0.7867
12757SOL    HW241418   6.569   2.079   7.798 -1.2497  2.4933  1.3733
12758SOL     OW41419   7.476   0.504   0.907  0.2665 -0.8732  0.1077
12758SOL    HW141420   7.394   0.554   0.919 -0.0985 -1.2863 -0.5969
12758SOL    HW241421   7.452   0.414   0.927 -0.5415 -1.7336 -3.9275
12759SOL     OW41422   1.339   1.203   8.075  0.1506 -0.1077 -0.1020
12759SOL    HW141423   1.326   1.123   8.125 -3.4727 -0.7561 -1.8105
12759SOL    HW241424   1.383   1.175   7.995  0.5529 -0.0676  0.1034
12760SOL     OW41425   0.028   3.721   4.560 -0.1294  0.0557 -0.3683
12760SOL    HW141426   0.060   3.748   4.474  1.5536 -0.7569 -0.0491
12760SOL    HW241427   0.108   3.707   4.612 -1.0184 -1.6328  0.6345
12761SOL     OW41428   6.234   2.596   7.547  0.2668  0.1567 -0.2645
12761SOL    HW141429   6.244   2.675   7.495 -3.5938  0.1453 -1.3018
12761SOL    HW241430   6.147   2.603   7.586 -0.0984 -3.3847 -0.0999
12762SOL     OW41431   2.400   5.410   6.842  0.2153 -0.1136  0.1485
12762SOL    HW141432   2.484   5.404   6.889 -0.3240 -1.2108  1.0233
12762SOL    HW241433   2.368   5.320   6.839 -0.4052  0.1351 -1.1845
12763SOL     OW41434   2.574   2.018   4.479 -0.6233  0.5060 -0.2793
12763SOL    HW141435   2.605   2.055   4.397 -0.0551  1.0215  0.1573
12763SOL    HW241436   2.482   2.046   4.485 -0.6297  0.5703 -0.6743
12764SOL     OW41437   1.136   7.091   3.765  0.1374  0.1967  0.3146
12764SOL    HW141438   1.151   6.997   3.779  1.8219  0.2345 -0.8177
12764SOL    HW241439   1.108   7.124   3.850 -0.0257 -1.2550  0.8587
12765SOL     OW41440   0.234   5.977   2.445  0.3486  0.3275  1.1373
12765SOL    HW141441   0.161   5.914   2.448 -0.3623  1.0651  0.2604
12765SOL    HW241442   0.303   5.931   2.398  0.4162 -0.3451  1.8772
12766SOL     OW41443   2.627   3.615   0.769 -0.3757 -0.3710 -0.3498
12766SOL    HW141444   2.556   3.675   0.794  1.6015  2.3196 -0.7404
12766SOL    HW241445   2.692   3.625   0.838  1.3630  0.4479 -2.0293
12767SOL     OW41446   0.186   4.609   6.614  0.2330 -0.1807  0.1773
12767SOL    HW141447   0.105   4.557   6.609  1.7665 -2.8453  1.2398
12767SOL    HW241448   0.256   4.544   6.612  2.2636  1.7927  2.3256
12768SOL     OW41449   0.622   2.895   5.038 -0.1413 -0.1715  0.2301
12768SOL    HW141450   0.559   2.828   5.011 -0.6011  0.4134 -0.1742
12768SOL    HW241451   0.699   2.845   5.066 -1.0652 -0.9418  1.5426
12769SOL     OW41452   3.616   6.251   0.368 -0.1959 -0.6222 -0.0454
12769SOL    HW141453   3.562   6.330   0.363  0.2505 -0.3315 -0.3473
12769SOL    HW241454   3.659   6.258   0.453  0.4809 -0.1131 -0.4194
12770SOL     OW41455   1.824   3.811   0.618 -0.4267 -0.1927  0.2753
12770SOL    HW141456   1.811   3.840   0.528 -1.7164 -0.2955  0.4202
12770SOL    HW241457   1.868   3.884   0.661 -2.0335  0.8772  0.1799
12771SOL     OW41458   7.643   2.162   0.732  0.1198 -0.4373 -0.2426
12771SOL    HW141459   7.557   2.205   0.730  0.7835  1.1655  1.8868
12771SOL    HW241460   7.678   2.176   0.644 -0.4814  1.8280 -0.2018
12772SOL     OW41461   6.352   3.576   7.286 -0.2102  0.6614  0.3890
12772SOL    HW141462   6.340   3.517   7.212  1.3321 -1.1647  1.5174
12772SOL    HW241463   6.287   3.547   7.350 -0.5682  1.3005  0.3263
12773SOL     OW41464   6.023   3.505   1.066 -0.6581 -0.0801 -0.0060
12773SOL    HW141465   6.084   3.434   1.087 -0.2585  0.0284 -0.7643
12773SOL    HW241466   5.959   3.465   1.008  0.8904  0.6814 -2.3759
12774SOL     OW41467   3.385   4.295   5.299 -0.0960 -0.3889 -0.4550
12774SOL    HW141468   3.461   4.349   5.322 -1.0418  0.0864  1.9271
12774SOL    HW241469   3.316   4.358   5.281 -0.5627 -0.7962 -0.1158
12775SOL     OW41470   1.232   7.917   1.359  0.0159 -0.2926  0.4473
12775SOL    HW141471   1.297   7.980   1.328 -2.0629  1.9652  0.4393
12775SOL    HW241472   1.151   7.940   1.314 -1.1726 -2.1380  1.4611
12776SOL     OW41473   7.290   2.188   3.603 -0.1989 -0.5472  0.3886
12776SOL    HW141474   7.363   2.155   3.656  0.0644 -1.1392 -0.3274
12776SOL    HW241475   7.218   2.197   3.665  0.4996  0.1398  1.1296
12777SOL     OW41476   6.313   4.362   2.560  0.3252  0.4791  0.3661
12777SOL    HW141477   6.405   4.340   2.577  0.4086  0.1590 -0.4479
12777SOL    HW241478   6.268   4.342   2.643  0.6491 -1.3684  0.1450
12778SOL     OW41479   7.945   0.997   2.020  0.0636 -0.1730  0.4842
12778SOL    HW141480   7.980   0.912   1.997  0.6302 -0.1163  1.0998
12778SOL    HW241481   7.886   1.020   1.948  2.1241  0.2296 -1.1834
12779SOL     OW41482   1.441   5.299   7.448  0.2489  0.1996 -0.6745
12779SOL    HW141483   1.368   5.341   7.404 -0.6364 -1.6550 -1.0743
12779SOL    HW241484   1.417   5.301   7.541 -0.5791 -0.8516 -0.8518
12780SOL     OW41485   5.216   0.745   6.932 -0.5550  0.4870 -0.3878
12780SOL    HW141486   5.239   0.714   7.019 -0.7731  1.4995  0.0406
12780SOL    HW241487   5.282   0.706   6.874 -1.1483 -1.2124  0.0401
12781SOL     OW41488   0.657   5.824   7.927 -0.3110  0.2918 -0.2375
12781SOL    HW141489   0.599   5.751   7.906 -0.6611  0.6295 -0.4514
12781SOL    HW241490   0.601   5.888   7.970  0.0703  0.2889  0.2787
12782SOL     OW41491   4.953   0.181   3.318  0.0412 -0.0829 -0.0705
12782SOL    HW141492   4.998   0.101   3.347  0.1971 -0.7982 -2.1279
12782SOL    HW241493   5.023   0.237   3.285 -0.3179 -0.2469 -1.1524
12783SOL     OW41494   1.184   3.768   1.539  0.6105 -0.3119 -0.1389
12783SOL    HW141495   1.148   3.757   1.451  0.2946 -1.5128  0.1206
12783SOL    HW241496   1.243   3.694   1.551 -0.3450 -0.9255  1.1194
12784SOL     OW41497   5.674   7.882   2.264  0.4144 -0.3468 -0.0294
12784SOL    HW141498   5.645   7.963   2.305 -0.7619 -0.6792 -0.1640
12784SOL    HW241499   5.609   7.817   2.289  1.1309 -1.1731 -0.2384
12785SOL     OW41500   1.945   3.019   6.488 -0.3959 -0.1436 -0.1460
12785SOL    HW141501   2.013   3.078   6.520 -0.3181  0.0506 -0.6606
12785SOL    HW241502   1.941   3.036   6.394 -0.5964 -0.7298 -0.2483
12786SOL     OW41503   1.842   1.354   6.348  0.2421 -0.8959 -0.5887
12786SOL    HW141504   1.916   1.411   6.368 -0.1181 -0.8077  0.6375
12786SOL    HW241505   1.868   1.306   6.270  2.2673 -2.0549  0.7109
12787SOL     OW41506   0.427   1.753   4.798 -0.2667  0.8345  0.7352
12787SOL    HW141507   0.494   1.795   4.745  1.4659  0.0022  2.1323
12787SOL    HW241508   0.368   1.824   4.824 -0.2642  1.5028 -0.9418
12788SOL     OW41509   1.047   7.090   7.128  0.1158 -0.0444  0.3239
12788SOL    HW141510   1.112   7.046   7.184 -0.9278 -0.2891  1.3952
12788SOL    HW241511   0.967   7.038   7.139 -0.2476  0.1943 -1.0422
12789SOL     OW41512   0.930   0.140   3.458  0.4003 -0.1100  0.1070
12789SOL    HW141513   0.962   0.073   3.398  2.6802  0.0662  1.0298
12789SOL    HW241514   0.950   0.223   3.415 -0.5327  0.0167 -0.1072
12790SOL     OW41515   3.308   7.151   6.088  0.1674  0.3994 -0.0115
12790SOL    HW141516   3.302   7.178   6.180 -1.1549  0.0696  0.0230
12790SOL    HW241517   3.226   7.181   6.049  0.1538 -0.5710 -0.7751
12791SOL     OW41518   2.278   4.666   7.763  0.5897  0.5649 -0.0395
12791SOL    HW141519   2.284   4.587   7.817  0.9336  0.8863  0.3952
12791SOL    HW241520   2.304   4.638   7.676 -0.2694 -0.0322 -0.1207
12792SOL     OW41521   4.736   6.718   4.057  0.2706 -0.6446  0.0223
12792SOL    HW141522   4.753   6.742   4.148  1.0415 -0.6341 -0.1232
12792SOL    HW241523   4.748   6.799   4.007  1.4304 -0.9857 -0.2836
12793SOL     OW41524   2.927   1.210   2.781  0.5647 -0.3217 -0.3175
12793SOL    HW141525   2.835   1.236   2.791  1.3989  2.8055  0.2418
12793SOL    HW241526   2.955   1.187   2.869  0.4894 -0.6824 -0.3862
12794SOL     OW41527   0.197   5.387   3.894 -0.1311 -0.5690 -0.0261
12794SOL    HW141528   0.266   5.450   3.914  0.9618 -1.2199 -1.6244
12794SOL    HW241529   0.239   5.320   3.840 -1.5875 -1.9641  0.4799
12795SOL     OW41530   3.723   0.914   1.009 -0.0444 -0.0042  0.4520
12795SOL    HW141531   3.774   0.899   1.089  0.7298  1.3243  0.2285
12795SOL    HW241532   3.632   0.904   1.037  0.2656 -1.1335  1.1352
12796SOL     OW41533   4.944   4.143   5.783 -0.1771 -0.3876  0.2614
12796SOL    HW141534   4.908   4.095   5.857 -0.9410 -1.4353 -0.7595
12796SOL    HW241535   5.037   4.152   5.804 -0.5241  0.1003  1.7238
12797SOL     OW41536   1.873   5.487   1.599 -0.4073  0.5111  0.2847
12797SOL    HW141537   1.779   5.476   1.609 -0.3959 -0.2393 -0.2561
12797SOL    HW241538   1.910   5.404   1.629  0.0630  0.7213  0.2967
12798SOL     OW41539   7.698   2.180   4.930  0.0996  0.3679 -0.5215
12798SOL    HW141540   7.738   2.107   4.977  0.6995  0.7991 -0.3444
12798SOL    HW241541   7.640   2.222   4.994 -1.0595 -0.5686 -0.9310
12799SOL     OW41542   2.825   7.928   1.910 -0.3691 -0.1335  0.5248
12799SOL    HW141543   2.811   7.870   1.985 -2.0493 -0.5516 -0.0736
12799SOL    HW241544   2.888   7.880   1.855 -1.7394 -1.4703  0.0327
12800SOL     OW41545   5.685   0.375   6.533  0.3097 -0.0007 -0.7781
12800SOL    HW141546   5.595   0.368   6.501  0.7471 -0.8238 -1.9008
12800SOL    HW241547   5.679   0.430   6.611 -1.2519 -0.5448 -0.4850
12801SOL     OW41548   1.382   5.282   4.731 -0.3042  0.8898 -0.3020
12801SOL    HW141549   1.476   5.301   4.731  0.2041 -1.3382 -0.6992
12801SOL    HW241550   1.376   5.189   4.750 -2.4109  0.7795 -1.1842
12802SOL     OW41551   6.485   5.561   6.005  0.0100  0.3423 -0.0741
12802SOL    HW141552   6.544   5.627   6.040  0.6226  0.2102 -0.8287
12802SOL    HW241553   6.398   5.589   6.033  0.5361 -0.4437  2.6835
12803SOL     OW41554   2.634   0.906   8.071  0.2585 -0.6357 -0.1347
12803SOL    HW141555   2.683   0.951   8.140 -0.4068 -0.5281  0.2716
12803SOL    HW241556   2.630   0.970   7.999  1.6827 -1.0452 -0.6250
12804SOL     OW41557   6.941   0.839   4.385 -0.0521 -0.0244 -0.4447
12804SOL    HW141558   6.981   0.871   4.303 -0.1433  0.7798 -0.1832
12804SOL    HW241559   6.851   0.817   4.361  0.5253 -1.9726 -1.0712
12805SOL     OW41560   2.577   0.570   3.834  0.0631 -0.3407 -0.3863
12805SOL    HW141561   2.553   0.493   3.782  1.1447 -0.5567 -0.5983
12805SOL    HW241562   2.495   0.599   3.873 -0.4375 -1.3626 -0.6276
12806SOL     OW41563   2.075   4.186   5.597  0.5373  0.1290 -0.1531
12806SOL    HW141564   2.017   4.125   5.550 -0.0421 -0.7121  1.5858
12806SOL    HW241565   2.018   4.259   5.620  1.0066  0.9227 -1.3690
12807SOL     OW41566   5.297   0.896   2.301 -0.3027 -0.8851  0.1025
12807SOL    HW141567   5.346   0.814   2.299 -2.8054 -2.5583  0.8923
12807SOL    HW241568   5.222   0.880   2.243 -0.8818  0.8376  0.3189
12808SOL     OW41569   6.115   1.491   1.945 -0.3565 -0.2758 -0.1565
12808SOL    HW141570   6.158   1.514   1.863  1.2159  0.6637  0.8656
12808SOL    HW241571   6.066   1.569   1.969 -0.8730 -0.5742 -0.2313
12809SOL     OW41572   4.146   1.570   2.574  0.2308 -0.0349 -0.1707
12809SOL    HW141573   4.125   1.477   2.569 -0.3204  0.0818 -0.0701
12809SOL    HW241574   4.122   1.596   2.663  0.9272  0.0790 -0.0043
12810SOL     OW41575   1.348   7.076   4.221  0.0565 -0.4997 -0.1720
12810SOL    HW141576   1.324   7.056   4.130 -0.2616 -0.9567  0.0132
12810SOL    HW241577   1.389   6.996   4.253  0.1506 -0.3428  0.1022
12811SOL     OW41578   2.805   0.500   7.628  0.3623 -0.4585  0.0679
12811SOL    HW141579   2.809   0.495   7.532  0.1062  2.2992 -0.1768
12811SOL    HW241580   2.872   0.439   7.658  1.2871 -0.5118 -1.9360
12812SOL     OW41581   7.702   1.808   2.226  0.0448  0.1378  0.1944
12812SOL    HW141582   7.710   1.834   2.134  0.2842  1.0792  0.4772
12812SOL    HW241583   7.789   1.773   2.248 -0.5700 -2.0325 -0.4924
12813SOL     OW41584   3.485   6.411   4.969  0.0185  1.1354 -0.2344
12813SOL    HW141585   3.537   6.463   5.031  1.4020  0.2330 -0.5900
12813SOL    HW241586   3.395   6.422   4.998  0.7262 -1.6028  3.8864
12814SOL     OW41587   7.573   1.290   7.563  0.2166  0.0652  0.5690
12814SOL    HW141588   7.531   1.329   7.486  2.2914 -0.4776 -0.9375
12814SOL    HW241589   7.504   1.289   7.629 -1.8373  0.0748 -1.4149
12815SOL     OW41590   4.553   6.312   6.695 -0.1197  0.4910 -0.1103
12815SOL    HW141591   4.594   6.337   6.778 -0.4708  0.0891  0.1904
12815SOL    HW241592   4.477   6.369   6.688  1.0644  2.0163 -1.2129
12816SOL     OW41593   2.448   4.287   4.627  0.4652 -0.2169  0.0945
12816SOL    HW141594   2.434   4.218   4.562  0.7113  0.1038 -0.3046
12816SOL    HW241595   2.479   4.362   4.576  1.5824 -0.2507  0.7075
12817SOL     OW41596   0.154   5.427   5.491 -0.5696  0.0520  0.2899
12817SOL    HW141597   0.173   5.519   5.510  1.0031 -0.6910  2.8554
12817SOL    HW241598   0.235   5.393   5.453 -2.1416  0.3193 -3.8618
12818SOL     OW41599   3.573   0.296   6.536  0.3187 -0.0770  0.0162
12818SOL    HW141600   3.548   0.376   6.490 -1.3561  0.1282  1.2178
12818SOL    HW241601   3.546   0.310   6.626  1.3064 -1.4459  0.5621
12819SOL     OW41602   3.280   3.406   1.759  0.2120  0.0401 -0.1040
12819SOL    HW141603   3.199   3.437   1.798 -0.3285  0.4416 -1.5135
12819SOL    HW241604   3.262   3.315   1.734  0.5384 -0.1990  0.5166
12820SOL     OW41605   1.054   5.060   4.671 -0.4558  0.0285 -0.5650
12820SOL    HW141606   1.024   5.149   4.650  3.9004  1.7090 -0.7529
12820SOL    HW241607   1.062   5.059   4.766 -0.6354 -0.2161 -0.5525
12821SOL     OW41608   4.398   7.338   3.669 -0.4717 -0.6552  0.4579
12821SOL    HW141609   4.457   7.367   3.600 -0.3863  0.1569  0.8566
12821SOL    HW241610   4.404   7.243   3.668  0.5449 -0.5971  0.2248
12822SOL     OW41611   7.383   0.094   2.215 -0.3702  0.3980 -0.5082
12822SOL    HW141612   7.300   0.080   2.262  1.4096 -2.9144  2.1357
12822SOL    HW241613   7.417   0.176   2.250 -1.5281  0.6718  0.0243
12823SOL     OW41614   5.766   4.874   0.711  0.0344  0.5033  0.2505
12823SOL    HW141615   5.703   4.826   0.657  1.2466 -1.1456  0.2252
12823SOL    HW241616   5.807   4.936   0.650 -0.4510  0.4998 -0.0904
12824SOL     OW41617   1.484   4.886   0.937 -0.2391  0.1586  0.4229
12824SOL    HW141618   1.566   4.924   0.903  0.7840 -0.8213  1.6679
12824SOL    HW241619   1.415   4.943   0.903  0.9942  1.2490 -0.3480
12825SOL     OW41620   3.582   0.140   0.311  0.5820  0.2555  0.4947
12825SOL    HW141621   3.662   0.186   0.286  2.2504 -1.6848  1.9600
12825SOL    HW241622   3.562   0.172   0.399 -0.1482  0.5341  0.2406
12826SOL     OW41623   1.288   5.014   6.877 -0.1301 -0.3893  0.0158
12826SOL    HW141624   1.380   5.028   6.899 -0.3563  1.8078 -0.2488
12826SOL    HW241625   1.285   5.020   6.781 -0.2293 -2.8829 -0.2048
12827SOL     OW41626   7.793   5.245   6.519 -0.0361 -0.5403 -0.1159
12827SOL    HW141627   7.832   5.188   6.453 -1.1400 -1.0425 -0.3599
12827SOL    HW241628   7.829   5.213   6.602  0.7915 -0.3764 -0.4048
12828SOL     OW41629   4.112   3.583   5.791 -0.2388  0.3205 -0.1096
12828SOL    HW141630   4.110   3.515   5.724  1.1743  0.4811 -0.3535
12828SOL    HW241631   4.038   3.564   5.848 -1.3443  0.0389 -1.5761
12829SOL     OW41632   2.775   5.271   5.086 -0.4068 -0.6878 -0.2273
12829SOL    HW141633   2.801   5.296   5.175  0.9560  1.3239 -1.1232
12829SOL    HW241634   2.687   5.306   5.075  0.5472  1.7669 -0.6167
12830SOL     OW41635   7.964   0.520   5.183  0.2313  0.0689  0.1127
12830SOL    HW141636   7.987   0.455   5.249  2.0463  1.3616  0.8326
12830SOL    HW241637   7.924   0.469   5.112  1.5931 -1.8471  0.6424
12831SOL     OW41638   3.571   1.126   1.283 -0.2769  0.6462 -0.1093
12831SOL    HW141639   3.507   1.055   1.277 -0.3088  0.4022  2.2830
12831SOL    HW241640   3.520   1.204   1.303  0.0785  0.5830  1.1111
12832SOL     OW41641   4.517   3.041   4.829  0.0278 -0.1635  0.1116
12832SOL    HW141642   4.603   3.067   4.862 -0.1133 -1.0148  1.1962
12832SOL    HW241643   4.516   3.074   4.739  1.0347  0.8605  0.4400
12833SOL     OW41644   0.185   7.354   7.293  0.9112 -0.1980  0.3878
12833SOL    HW141645   0.118   7.396   7.239  1.3974  0.8626  0.5911
12833SOL    HW241646   0.241   7.425   7.322  1.0393 -0.8350  1.7774
12834SOL     OW41647   3.366   1.812   3.984 -0.0469  0.2196  0.2260
12834SOL    HW141648   3.337   1.831   4.073 -2.3905  1.2919 -0.6757
12834SOL    HW241649   3.327   1.727   3.964 -0.2949  0.3963 -0.0589
12835SOL     OW41650   5.386   4.440   7.758 -0.0398  0.0451 -0.1515
12835SOL    HW141651   5.435   4.382   7.817 -1.5873 -0.1277  1.0046
12835SOL    HW241652   5.417   4.415   7.671  1.0881 -0.8532  0.4684
12836SOL     OW41653   2.327   6.662   2.029 -0.4286  0.1083 -0.7324
12836SOL    HW141654   2.261   6.728   2.051 -0.3963  0.3660 -1.3893
12836SOL    HW241655   2.282   6.604   1.967 -0.4776 -0.5350 -0.1207
12837SOL     OW41656   0.736   7.699   5.194  0.9115 -0.2571  0.0066
12837SOL    HW141657   0.827   7.692   5.221  1.1601 -0.2041 -0.7895
12837SOL    HW241658   0.738   7.754   5.116  0.1515  0.0575  0.2001
12838SOL     OW41659   0.785   6.506   2.293  0.3419 -0.3586 -0.0163
12838SOL    HW141660   0.734   6.579   2.257  1.9211  0.1701 -1.2959
12838SOL    HW241661   0.719   6.443   2.323 -1.0513  1.2336  0.3938
12839SOL     OW41662   6.187   5.657   1.746 -0.2485  0.5305 -0.0517
12839SOL    HW141663   6.122   5.716   1.781  0.2477  0.4415  1.0673
12839SOL    HW241664   6.145   5.615   1.671 -1.2463  0.9277  0.2828
12840SOL     OW41665   5.595   4.165   2.913  0.2910  0.5178  0.2368
12840SOL    HW141666   5.627   4.108   2.983 -1.0515  1.4029  1.6390
12840SOL    HW241667   5.549   4.106   2.853 -1.3303  0.0735  1.8157
12841SOL     OW41668   7.314   3.182   7.494 -0.2638 -0.1782 -0.3938
12841SOL    HW141669   7.228   3.142   7.508 -0.4303  0.0128 -0.8493
12841SOL    HW241670   7.295   3.273   7.471  0.0671 -0.0978 -0.3533
12842SOL     OW41671   2.974   5.164   8.070 -0.8268 -0.6913 -0.8054
12842SOL    HW141672   3.055   5.114   8.066 -0.7017 -0.5247 -0.4100
12842SOL    HW241673   2.961   5.197   7.981  0.3908  0.6027 -0.5441
12843SOL     OW41674   6.411   1.558   2.020 -0.2354  0.1152 -0.4825
12843SOL    HW141675   6.391   1.649   2.000 -1.7384  0.0889  0.7208
12843SOL    HW241676   6.327   1.520   2.046  0.6081 -1.2548  0.3695
12844SOL     OW41677   3.704   3.960   4.355  0.4958  0.5120 -0.0110
12844SOL    HW141678   3.655   3.879   4.368 -1.8288  1.7802 -0.0877
12844SOL    HW241679   3.659   4.023   4.412  1.6476  1.9357 -0.6207
12845SOL     OW41680   6.452   0.204   3.199  0.2407  0.2736 -0.1043
12845SOL    HW141681   6.408   0.179   3.118  1.4325 -2.3363 -0.0532
12845SOL    HW241682   6.441   0.128   3.256 -0.8804  2.1679  2.3947
12846SOL     OW41683   1.011   3.007   7.394  0.3545  0.3000 -0.8818
12846SOL    HW141684   1.004   2.963   7.479  1.4777  1.0766 -0.3681
12846SOL    HW241685   1.050   2.942   7.337  0.6961  0.1522 -0.4879
12847SOL     OW41686   4.048   5.814   6.514  0.5983 -0.2805  0.1400
12847SOL    HW141687   3.965   5.837   6.554 -0.1760 -2.8909  0.2256
12847SOL    HW241688   4.114   5.860   6.568 -0.6508 -0.1027  1.5871
12848SOL     OW41689   5.736   6.506   2.086  0.0248 -0.2557 -0.0024
12848SOL    HW141690   5.683   6.582   2.108 -0.8005 -0.7522 -0.2083
12848SOL    HW241691   5.822   6.523   2.124 -0.1310  0.8036 -0.1121
12849SOL     OW41692   2.553   4.175   3.079 -0.6267 -0.1067 -0.1843
12849SOL    HW141693   2.644   4.155   3.057 -0.4154  1.2156 -0.6349
12849SOL    HW241694   2.541   4.265   3.048 -1.8274  0.0473  0.6758
12850SOL     OW41695   1.445   2.862   0.733 -0.0725  0.2502 -0.3424
12850SOL    HW141696   1.396   2.800   0.787 -0.8832 -1.5392 -2.9639
12850SOL    HW241697   1.380   2.927   0.707 -0.1471  0.0141 -0.7449
12851SOL     OW41698   5.498   6.157   7.443 -0.4950  0.2759  0.2773
12851SOL    HW141699   5.418   6.135   7.397 -0.5704  0.8696  0.1158
12851SOL    HW241700   5.567   6.145   7.378 -0.5775  0.8901  0.0699
12852SOL     OW41701   2.953   7.732   4.854  0.3683 -0.3045 -0.0479
12852SOL    HW141702   2.948   7.642   4.888 -0.5839 -0.2734 -0.0810
12852SOL    HW241703   2.871   7.772   4.881  1.7067  1.3057  2.0284
12853SOL     OW41704   0.633   5.868   2.651  0.2943 -0.2554  0.0478
12853SOL    HW141705   0.672   5.921   2.721 -0.2343  0.3164 -0.0827
12853SOL    HW241706   0.540   5.864   2.673 -0.0539  0.7744 -1.1376
12854SOL     OW41707   6.969   3.633   4.382 -0.5097  0.0180 -0.0636
12854SOL    HW141708   7.030   3.605   4.314 -0.9450  0.2115 -0.5413
12854SOL    HW241709   6.884   3.602   4.353 -0.9518  1.4832 -0.4397
12855SOL     OW41710   0.954   3.361   6.426  0.2945 -0.5049 -0.0590
12855SOL    HW141711   0.996   3.275   6.431  0.5741 -0.2963  2.2289
12855SOL    HW241712   0.942   3.387   6.518 -2.3973  0.6423 -0.6598
12856SOL     OW41713   0.557   6.605   0.090 -0.4903 -0.0842 -0.0976
12856SOL    HW141714   0.597   6.689   0.067 -1.9126  0.5109 -0.5841
12856SOL    HW241715   0.463   6.626   0.098 -0.5859 -1.1113  2.2850
12857SOL     OW41716   1.458   7.190   1.377  0.0767  0.3655 -0.9731
12857SOL    HW141717   1.541   7.190   1.425 -0.3963 -2.0027  0.0126
12857SOL    HW241718   1.483   7.193   1.285  1.1215  2.2396 -0.6550
12858SOL     OW41719   0.004   2.278   6.768 -0.3599 -0.2836 -0.1949
12858SOL    HW141720  -0.061   2.262   6.836 -1.2496 -1.0565 -1.2017
12858SOL    HW241721  -0.014   2.212   6.701  0.5282  0.4265 -1.1621
12859SOL     OW41722   0.381   6.579   4.520  0.2835  0.2506 -0.9665
12859SOL    HW141723   0.383   6.595   4.614 -1.4691 -0.4595 -0.7747
12859SOL    HW241724   0.417   6.491   4.509 -3.1543 -1.3747 -0.4487
12860SOL     OW41725   2.998   4.521   7.010  0.5106  0.3081  0.7898
12860SOL    HW141726   2.934   4.456   6.982 -0.1844  0.8462  1.0981
12860SOL    HW241727   3.047   4.542   6.930 -0.9042  1.2100  0.1122
12861SOL     OW41728   3.816   1.924   0.923  0.4332  0.1568 -0.1629
12861SOL    HW141729   3.791   1.875   1.002  0.9290  1.0728  0.5932
12861SOL    HW241730   3.736   1.970   0.898 -0.0112 -0.9615 -0.8305
12862SOL     OW41731   0.807   5.619   1.157 -0.0567  0.1545  0.2563
12862SOL    HW141732   0.831   5.704   1.195  0.4017 -0.2705  0.9578
12862SOL    HW241733   0.719   5.602   1.192 -1.3433  1.5574 -2.0449
12863SOL     OW41734   1.141   0.144   2.396  0.2746 -1.0198  0.3026
12863SOL    HW141735   1.179   0.069   2.349  1.0750 -0.8565  0.6743
12863SOL    HW241736   1.155   0.125   2.488  0.3233 -0.5015  0.4072
12864SOL     OW41737   7.814   0.184   6.128 -0.0183 -0.3455 -0.6817
12864SOL    HW141738   7.844   0.222   6.046 -0.2928  1.3905 -0.0086
12864SOL    HW241739   7.895   0.152   6.170  0.4327  0.8455 -0.6078
12865SOL     OW41740   3.810   7.926   2.225 -0.0635 -0.5743  0.0746
12865SOL    HW141741   3.865   7.866   2.275  2.9955 -0.1698 -2.5078
12865SOL    HW241742   3.734   7.873   2.201  0.9790 -2.4231  0.6088
12866SOL     OW41743   6.263   6.314   6.472  0.1288  0.3912 -0.6332
12866SOL    HW141744   6.316   6.394   6.477 -0.8145  1.0932 -1.4334
12866SOL    HW241745   6.208   6.317   6.550  1.3284 -0.4172  0.2815
12867SOL     OW41746   2.169   4.556   5.298 -0.1578  0.1876 -0.0490
12867SOL    HW141747   2.259   4.524   5.304  1.0792  3.3090 -0.0890
12867SOL    HW241748   2.129   4.504   5.228  2.3138  0.1923 -1.5638
12868SOL     OW41749   6.421   6.792   4.142  0.4811 -0.7971 -0.0333
12868SOL    HW141750   6.373   6.870   4.117 -0.6435 -0.6104  2.3989
12868SOL    HW241751   6.505   6.825   4.174  0.3519 -0.6404  0.1506
12869SOL     OW41752   6.039   0.654   5.867  0.1341  0.4513  0.3477
12869SOL    HW141753   5.961   0.614   5.906  0.5306 -0.9927 -0.2564
12869SOL    HW241754   6.113   0.609   5.910  0.5916  0.4323 -0.4405
12870SOL     OW41755   2.731   5.321   6.005 -0.4325 -0.3376 -0.3364
12870SOL    HW141756   2.670   5.249   5.989 -0.9929 -0.1938  0.9625
12870SOL    HW241757   2.717   5.381   5.932  1.0748 -2.1726 -2.2143
12871SOL     OW41758   1.881   1.931   1.625  0.2958  0.5316  0.4367
12871SOL    HW141759   1.901   1.837   1.624 -0.0463  0.4335  1.3846
12871SOL    HW241760   1.949   1.970   1.571  1.1561 -0.1392  0.9918
12872SOL     OW41761   5.507   2.878   7.653 -0.0011 -0.4418 -0.1574
12872SOL    HW141762   5.412   2.893   7.658 -0.0894 -1.1686  0.6814
12872SOL    HW241763   5.515   2.790   7.617  0.4724  0.8846 -3.6527
12873SOL     OW41764   1.721   5.070   0.870  0.4531 -0.0582  0.5377
12873SOL    HW141765   1.777   5.137   0.909  0.8614 -0.8472  1.3441
12873SOL    HW241766   1.759   5.054   0.784 -0.3196  1.5392 -0.1509
12874SOL     OW41767   6.641   7.711   2.061  0.6773  0.0788  0.0696
12874SOL    HW141768   6.713   7.650   2.077  0.3382 -0.2949  0.1803
12874SOL    HW241769   6.590   7.709   2.141  0.7238  0.6019  0.1204
12875SOL     OW41770   3.625   3.697   7.143  0.5392  0.0012 -0.2506
12875SOL    HW141771   3.630   3.695   7.239  2.2544  1.6915 -0.2416
12875SOL    HW241772   3.560   3.765   7.125  3.1445  2.6886 -0.1842
12876SOL     OW41773   5.312   4.459   1.267  0.2720 -0.7644  0.2849
12876SOL    HW141774   5.340   4.390   1.327  1.7174  0.2583  0.8287
12876SOL    HW241775   5.371   4.533   1.285  0.1918 -0.1270 -1.7746
12877SOL     OW41776   5.883   4.677   5.061 -0.0424  0.4844 -0.2707
12877SOL    HW141777   5.860   4.601   5.007  0.5922  0.0192  0.1076
12877SOL    HW241778   5.807   4.688   5.119  1.1104 -1.8607  1.8822
12878SOL     OW41779   0.483   1.538   7.031 -0.1003  0.4247 -0.1379
12878SOL    HW141780   0.534   1.618   7.046 -1.3929  0.9715  1.6071
12878SOL    HW241781   0.392   1.569   7.023 -0.5260 -0.8046 -0.2458
12879SOL     OW41782   5.558   7.408   0.866 -0.0021  0.1903 -0.4461
12879SOL    HW141783   5.574   7.502   0.870 -0.4457  0.2455  2.2997
12879SOL    HW241784   5.477   7.399   0.816  0.1363  1.2357 -0.8876
12880SOL     OW41785   5.539   4.999   1.972  0.2740  0.0937 -0.4168
12880SOL    HW141786   5.568   4.954   1.893  1.3686  0.7468 -0.3997
12880SOL    HW241787   5.562   4.940   2.044  0.6592  0.1638 -0.4804
12881SOL     OW41788   7.465   3.004   1.006  0.1223  0.3070 -0.0502
12881SOL    HW141789   7.445   3.004   1.100  0.4988  1.5310  0.0457
12881SOL    HW241790   7.447   2.914   0.978 -0.5996  0.0848  1.0581
12882SOL     OW41791   4.129   0.504   6.677 -0.0278  0.3521  0.6489
12882SOL    HW141792   4.179   0.571   6.724 -1.6271  0.4773  2.3293
12882SOL    HW241793   4.080   0.553   6.611  0.7516  0.4724  0.1587
12883SOL     OW41794   6.348   5.810   4.479  0.1995 -0.3681 -0.7978
12883SOL    HW141795   6.352   5.853   4.564  0.8698 -2.3429  0.2473
12883SOL    HW241796   6.262   5.831   4.445 -0.2372  0.1346  0.5516
12884SOL     OW41797   7.931   0.991   7.335  0.1380 -0.4580  0.4465
12884SOL    HW141798   7.842   0.992   7.299 -0.7464 -2.3122  2.3492
12884SOL    HW241799   7.933   1.065   7.396 -0.2606 -0.6566  0.7045
12885SOL     OW41800   2.736   2.429   7.478  0.4183  0.1996  0.2250
12885SOL    HW141801   2.832   2.430   7.476  0.4190 -0.2958 -1.6534
12885SOL    HW241802   2.711   2.377   7.402 -1.3543  0.0636  0.8577
12886SOL     OW41803   3.966   3.648   2.533  0.1116 -0.0661 -0.1342
12886SOL    HW141804   3.902   3.584   2.563 -0.3534 -0.3817 -1.6680
12886SOL    HW241805   3.914   3.715   2.489  0.7767 -0.0477 -0.9285
12887SOL     OW41806   1.438   2.653   0.102  0.0672  0.2928 -0.6290
12887SOL    HW141807   1.477   2.637   0.016  1.0431  0.6834 -0.2834
12887SOL    HW241808   1.353   2.609   0.099  0.6315 -0.8083 -1.3407
12888SOL     OW41809   0.527   7.673   4.856 -0.1103 -0.2628  0.2843
12888SOL    HW141810   0.546   7.581   4.836 -0.9396 -0.3112 -0.3371
12888SOL    HW241811   0.546   7.719   4.774 -2.4188 -0.2900 -0.3180
12889SOL     OW41812   2.684   1.774   5.940  0.2307  0.1583 -0.1722
12889SOL    HW141813   2.627   1.737   5.873  1.8397 -0.8236 -1.0528
12889SOL    HW241814   2.630   1.777   6.019 -0.8396 -1.3460 -0.8110
12890SOL     OW41815   4.594   2.311   5.713  0.8255  0.3290  0.1159
12890SOL    HW141816   4.573   2.396   5.750  1.4444  0.1053  1.0393
12890SOL    HW241817   4.537   2.302   5.637  0.2026  1.2303  0.4628
12891SOL     OW41818   1.200   6.008   1.912 -0.0930  0.5544 -0.1934
12891SOL    HW141819   1.229   6.067   1.842 -0.4254 -1.3042 -1.9693
12891SOL    HW241820   1.104   6.011   1.906 -0.1141 -1.0492 -1.1365
12892SOL     OW41821   2.547   4.982   2.426 -0.5647 -0.4041 -0.5195
12892SOL    HW141822   2.581   4.914   2.368 -0.5388  0.3868 -1.4654
12892SOL    HW241823   2.622   5.039   2.443 -0.7058 -0.3267 -0.1550
12893SOL     OW41824   4.410   2.635   2.754 -0.3182 -0.0495  0.4288
12893SOL    HW141825   4.372   2.663   2.837 -1.0457 -0.0277  0.0947
12893SOL    HW241826   4.466   2.561   2.778 -0.9580 -0.4017  0.8636
12894SOL     OW41827   4.498   0.632   7.593  0.1673  0.2373  0.1835
12894SOL    HW141828   4.462   0.664   7.511 -0.7988  0.1911  0.5778
12894SOL    HW241829   4.430   0.574   7.629  1.6159 -1.8419 -0.2363
12895SOL     OW41830   2.635   6.383   2.837  0.1902  0.2692 -0.2603
12895SOL    HW141831   2.621   6.398   2.744  0.3459 -1.0800 -0.5197
12895SOL    HW241832   2.547   6.374   2.874  0.1212  1.0465 -0.2262
12896SOL     OW41833   0.674   4.187   0.334  0.1497 -0.0418 -0.0818
12896SOL    HW141834   0.656   4.277   0.361  2.5994  0.5569 -0.1809
12896SOL    HW241835   0.638   4.133   0.405  1.6391  1.2329  1.7342
12897SOL     OW41836   2.927   5.098   4.491 -0.4293  0.3443  0.7135
12897SOL    HW141837   3.004   5.152   4.505 -1.3671  1.9475  0.0243
12897SOL    HW241838   2.874   5.111   4.570 -0.0668 -0.6754  1.1445
12898SOL     OW41839   7.237   7.803   5.478 -0.1833  0.0203 -0.3841
12898SOL    HW141840   7.313   7.745   5.488  1.4977  2.1621  0.1189
12898SOL    HW241841   7.195   7.801   5.564  0.8472  0.7771  0.1654
12899SOL     OW41842   5.868   3.078   2.729 -0.5831 -0.5699  0.1645
12899SOL    HW141843   5.866   3.164   2.685 -0.4527 -0.2594  0.7513
12899SOL    HW241844   5.961   3.054   2.729 -0.8810 -2.0755 -2.5504
12900SOL     OW41845   7.012   1.500   0.860 -0.6935 -0.4600  0.4739
12900SOL    HW141846   7.080   1.515   0.794  0.9288 -1.2582  1.8851
12900SOL    HW241847   7.001   1.405   0.861 -0.1203 -0.5292  1.8775
12901SOL     OW41848   2.252   6.205   3.236  0.5535  0.2922 -0.2313
12901SOL    HW141849   2.281   6.291   3.265  0.8540  0.2417 -0.3714
12901SOL    HW241850   2.292   6.144   3.298  0.4907  0.2414 -0.2408
12902SOL     OW41851   6.313   7.633   1.845 -0.0399 -0.3991 -0.5036
12902SOL    HW141852   6.226   7.634   1.885 -0.5218 -0.8252 -1.5106
12902SOL    HW241853   6.319   7.717   1.799  0.3229 -0.1170  0.0486
12903SOL     OW41854   3.144   0.071   5.814 -0.1205  0.3173  0.5308
12903SOL    HW141855   3.087   0.053   5.740 -0.4649  0.3987  0.7707
12903SOL    HW241856   3.104   0.147   5.857  1.1470  1.5165 -0.3126
12904SOL     OW41857   4.598   5.197   3.365 -0.0309  0.3027  0.6286
12904SOL    HW141858   4.669   5.255   3.395  2.1316 -1.3063 -1.0236
12904SOL    HW241859   4.523   5.254   3.354  1.8340  2.7091 -0.4072
12905SOL     OW41860   0.347   1.097   7.181  0.1014 -0.1098  0.0238
12905SOL    HW141861   0.303   1.145   7.251  1.7003 -1.4824  2.0801
12905SOL    HW241862   0.418   1.155   7.153  0.0792  0.0227  0.2455
12906SOL     OW41863   7.011   7.825   7.369 -0.2621 -0.2058 -0.4850
12906SOL    HW141864   7.072   7.751   7.374 -0.3692 -0.2373  0.4106
12906SOL    HW241865   6.939   7.792   7.315 -0.2670 -0.7364 -0.1615
12907SOL     OW41866   4.951   0.457   0.017 -0.4284  0.4336  0.4668
12907SOL    HW141867   4.890   0.386  -0.001 -0.0284 -0.1169  1.2130
12907SOL    HW241868   5.010   0.421   0.083  2.6913 -0.2172 -2.3977
12908SOL     OW41869   7.364   2.849   6.063 -0.1325 -0.2083 -0.0286
12908SOL    HW141870   7.377   2.854   6.157  0.7024 -1.3707 -0.0594
12908SOL    HW241871   7.374   2.940   6.033  1.3131 -0.0631  0.8029
12909SOL     OW41872   0.606   4.556   4.399 -0.1286  0.3730 -0.0442
12909SOL    HW141873   0.674   4.512   4.349  0.2989  1.4511 -0.4258
12909SOL    HW241874   0.652   4.624   4.450 -0.8267  0.6928  0.1794
12910SOL     OW41875   5.093   4.341   4.573 -0.5989 -0.3037  0.1781
12910SOL    HW141876   5.105   4.395   4.494 -1.6994  0.0198  0.2190
12910SOL    HW241877   5.000   4.319   4.573 -0.3427 -1.4524  0.6618
12911SOL     OW41878   1.123   6.699   5.228  0.0146 -0.0869 -0.4714
12911SOL    HW141879   1.194   6.709   5.291 -0.2071 -1.5337  0.0514
12911SOL    HW241880   1.159   6.643   5.159 -0.8276 -1.5548  0.2219
12912SOL     OW41881   7.443   6.937   7.524  0.2599 -0.3461  0.2482
12912SOL    HW141882   7.362   6.988   7.525  1.8654  2.3841  0.3706
12912SOL    HW241883   7.467   6.933   7.432  0.3833 -0.4639  0.2865
12913SOL     OW41884   4.924   5.510   1.175  0.2076  0.5374  0.1309
12913SOL    HW141885   4.914   5.459   1.256  0.7985 -1.7230 -1.1380
12913SOL    HW241886   4.844   5.495   1.126  0.9729 -0.4029 -0.8828
12914SOL     OW41887   1.651   2.734   3.115  0.1878  0.7703 -0.5137
12914SOL    HW141888   1.609   2.744   3.200  1.3549  1.7089 -0.0250
12914SOL    HW241889   1.589   2.681   3.064  0.7616 -2.3765  1.8035
12915SOL     OW41890   5.815   1.445   6.146 -0.0997 -0.4043 -0.2237
12915SOL    HW141891   5.893   1.500   6.133 -1.4631  1.7884  0.2678
12915SOL    HW241892   5.834   1.393   6.224  1.5866 -1.3441 -1.2088
12916SOL     OW41893   5.763   6.507   2.526  0.0729 -0.3160 -0.4376
12916SOL    HW141894   5.858   6.501   2.510  0.2963 -0.0309  0.7574
12916SOL    HW241895   5.733   6.416   2.521  0.6791 -0.6014  0.7105
12917SOL     OW41896   0.106   4.376   7.704  0.3412  0.0678 -0.1807
12917SOL    HW141897   0.185   4.419   7.739  0.2143 -0.9835  1.4909
12917SOL    HW241898   0.123   4.369   7.610  3.4171 -2.3967  0.3958
12918SOL     OW41899   6.109   3.068   0.030  0.1055 -0.1481  0.8701
12918SOL    HW141900   6.199   3.100   0.035 -0.3505  1.2772  0.5651
12918SOL    HW241901   6.110   3.007  -0.044  0.8503 -0.2728  0.9702
12919SOL     OW41902   3.116   6.743   6.923  0.4310  0.2115 -0.2572
12919SOL    HW141903   3.201   6.787   6.914  0.4810 -0.0290 -1.0683
12919SOL    HW241904   3.072   6.789   6.995  0.4107  1.7147 -1.1817
12920SOL     OW41905   7.032   3.895   0.306 -0.7694  0.1022 -0.2388
12920SOL    HW141906   7.093   3.931   0.242 -0.6591  0.7715  0.2374
12920SOL    HW241907   6.945   3.909   0.266 -0.6369 -0.6980 -0.8364
12921SOL     OW41908   1.440   1.547   2.274 -0.1666  0.3655 -0.2007
12921SOL    HW141909   1.385   1.589   2.207  2.4665  0.1573 -2.7246
12921SOL    HW241910   1.461   1.461   2.237  1.7143  0.3999  0.6491
12922SOL     OW41911   2.622   7.264   3.509  0.2259  0.1106  0.1707
12922SOL    HW141912   2.703   7.305   3.539  0.3454  0.2405 -0.3127
12922SOL    HW241913   2.628   7.174   3.538 -0.6687  0.7249  2.4753
12923SOL     OW41914   2.709   0.202   4.904  0.7811  0.2970  0.5645
12923SOL    HW141915   2.756   0.125   4.934  1.6372  0.6903  0.2605
12923SOL    HW241916   2.694   0.254   4.983  0.4260 -0.0539  0.7316
12924SOL     OW41917   3.787   2.669   8.004 -0.0872  1.0697  0.3780
12924SOL    HW141918   3.826   2.685   7.918  1.0048  2.9740  1.1699
12924SOL    HW241919   3.862   2.660   8.063 -0.8264  0.2078  1.2242
12925SOL     OW41920   0.004   0.347   5.485  0.0861 -0.3306  0.3862
12925SOL    HW141921  -0.033   0.281   5.544  1.2896 -1.0802  0.3364
12925SOL    HW241922   0.041   0.297   5.413  0.5942  0.4310  0.1047
12926SOL     OW41923   2.714   3.539   1.512  0.1762 -0.3212  0.0593
12926SOL    HW141924   2.753   3.584   1.437  1.0132  0.6844  1.0529
12926SOL    HW241925   2.621   3.535   1.492  0.0091  2.1263 -0.0040
12927SOL     OW41926   3.000   1.703   0.104 -0.1926 -0.2982  0.5312
12927SOL    HW141927   2.927   1.727   0.046  1.7026  1.9271 -1.1364
12927SOL    HW241928   3.026   1.616   0.075  0.1835  0.4331 -1.5002
12928SOL     OW41929   7.986   6.020   4.640 -0.2105 -0.3702 -0.1673
12928SOL    HW141930   7.952   5.956   4.702  0.6242 -1.9571 -1.2683
12928SOL    HW241931   7.959   6.104   4.675 -3.4808 -1.3740  0.1415
12929SOL     OW41932   1.467   6.116   6.448 -0.2119  0.0714 -0.4261
12929SOL    HW141933   1.427   6.203   6.447  0.5534  0.4440 -0.0410
12929SOL    HW241934   1.556   6.131   6.481 -0.8682 -1.2064  2.2086
12930SOL     OW41935   2.236   6.301   1.005 -0.5214 -0.4649  0.1632
12930SOL    HW141936   2.183   6.378   0.983  2.7004  1.2351 -2.5046
12930SOL    HW241937   2.200   6.231   0.951 -1.5565 -0.0228  0.2575
12931SOL     OW41938   3.218   7.535   6.355  0.6454  0.2210 -0.2659
12931SOL    HW141939   3.237   7.591   6.431 -0.6867 -0.1821  0.3951
12931SOL    HW241940   3.251   7.449   6.380 -1.2112 -0.3072  0.5867
12932SOL     OW41941   2.376   7.487   6.489 -0.9027 -0.2209  0.1013
12932SOL    HW141942   2.382   7.419   6.557  1.2779  1.6551  1.9289
12932SOL    HW241943   2.308   7.546   6.520 -1.8994 -0.8313 -0.8450
12933SOL     OW41944   0.905   4.844   1.785 -0.5688  0.0081 -0.0469
12933SOL    HW141945   0.903   4.894   1.704  1.7756  0.3157  0.0405
12933SOL    HW241946   0.996   4.844   1.813 -1.1058 -1.0791  1.9956
12934SOL     OW41947   2.222   1.403   1.160  0.0438  0.6804  0.2075
12934SOL    HW141948   2.132   1.410   1.193 -0.3471  0.2666 -0.7332
12934SOL    HW241949   2.255   1.322   1.199 -1.9066 -2.3009 -3.6338
12935SOL     OW41950   5.990   1.907   3.279  0.7926  0.1643 -0.0651
12935SOL    HW141951   5.956   1.819   3.289 -0.3221  0.3835 -1.4766
12935SOL    HW241952   6.052   1.901   3.206 -0.8620  0.8819 -1.6116
12936SOL     OW41953   3.040   7.876   0.673  0.4018 -0.6141  0.0295
12936SOL    HW141954   2.954   7.851   0.706  1.0545 -1.2504  1.3029
12936SOL    HW241955   3.100   7.814   0.712  1.4328 -0.3318 -1.0374
12937SOL     OW41956   6.940   5.676   2.565  0.2108 -0.6068 -0.2676
12937SOL    HW141957   6.956   5.673   2.660 -0.1376  3.5439  0.1101
12937SOL    HW241958   7.027   5.679   2.526  0.4436  1.4241  0.2891
12938SOL     OW41959   0.667   1.166   6.089  0.0932  0.7739  0.2261
12938SOL    HW141960   0.730   1.096   6.104 -1.2235 -0.5090  0.0104
12938SOL    HW241961   0.588   1.121   6.061 -0.4392  2.4382 -1.1136
12939SOL     OW41962   5.641   6.149   0.533 -0.7256 -0.1963  0.7920
12939SOL    HW141963   5.630   6.134   0.626 -0.2673 -1.0913  0.7074
12939SOL    HW241964   5.688   6.073   0.501 -0.0743  0.5213 -0.0108
12940SOL     OW41965   6.292   2.842   6.156  0.2723 -0.2525  0.7018
12940SOL    HW141966   6.233   2.827   6.229 -0.2009 -1.2494  0.1360
12940SOL    HW241967   6.313   2.754   6.124  0.9419  0.1493  0.0170
12941SOL     OW41968   8.026   1.883   5.222 -0.0296  0.2435  0.0222
12941SOL    HW141969   8.093   1.938   5.263  0.0724 -0.5386  0.9500
12941SOL    HW241970   8.042   1.796   5.259  0.9002 -0.8303 -2.6485
12942SOL     OW41971   2.581   1.705   1.703  0.0175 -0.5367  0.0055
12942SOL    HW141972   2.672   1.717   1.731  1.1861 -0.2727 -3.4472
12942SOL    HW241973   2.542   1.792   1.708  0.3663 -0.3948  0.2416
12943SOL     OW41974   6.492   1.830   1.600  0.0922  0.0833 -0.0955
12943SOL    HW141975   6.480   1.899   1.535 -0.0542 -0.0472 -0.2062
12943SOL    HW241976   6.470   1.871   1.684  0.1021  0.1983 -0.1495
12944SOL     OW41977   3.027   0.129   0.188 -0.2952 -0.2831  0.4524
12944SOL    HW141978   3.004   0.195   0.253 -0.2171 -0.9487  1.1609
12944SOL    HW241979   3.116   0.103   0.210  1.5635  2.6372 -2.5598
12945SOL     OW41980   2.205   7.937   4.302 -0.3790  0.5062  0.3857
12945SOL    HW141981   2.237   8.024   4.325  0.1094  0.0176  1.6945
12945SOL    HW241982   2.218   7.930   4.208 -1.4895  2.2559  0.0623
12946SOL     OW41983   0.507   1.226   6.814  0.2984  0.4963 -0.4198
12946SOL    HW141984   0.577   1.255   6.755  0.9596  1.2579  0.7089
12946SOL    HW241985   0.540   1.244   6.902 -0.6117 -0.7523  0.2099
12947SOL     OW41986   6.021   3.408   3.295 -0.4474  0.2282 -0.4034
12947SOL    HW141987   6.047   3.425   3.205  0.5283  0.9134 -0.0060
12947SOL    HW241988   5.964   3.481   3.319  1.2539  1.3811  0.2993
12948SOL     OW41989   6.886   2.698   4.310 -0.1211  0.0950 -0.2871
12948SOL    HW141990   6.981   2.687   4.299  0.0173  0.0440  0.8268
12948SOL    HW241991   6.861   2.756   4.237  0.8622  0.5572 -0.2898
12949SOL     OW41992   2.238   6.081   7.493 -0.1923 -0.0740  0.1870
12949SOL    HW141993   2.308   6.062   7.431 -0.2844 -0.1362  0.1027
12949SOL    HW241994   2.223   5.998   7.539 -0.8533 -0.3072 -0.4405
12950SOL     OW41995   1.289   7.149   5.341 -0.0510  0.0111 -0.1713
12950SOL    HW141996   1.284   7.107   5.255 -0.1816 -1.1475  0.3901
12950SOL    HW241997   1.326   7.083   5.399  1.0776  1.1396  0.4565
12951SOL     OW41998   1.260   5.927   7.961 -0.2411  0.3593  0.0266
12951SOL    HW141999   1.211   5.991   8.012  0.9189  1.3210 -0.0243
12951SOL    HW242000   1.244   5.843   8.005 -0.1508  1.0008  1.3103
12952SOL     OW42001   6.878   4.733   5.131  0.0736 -0.0601  0.0025
12952SOL    HW142002   6.817   4.758   5.061  2.3142 -1.0655 -2.4815
12952SOL    HW242003   6.940   4.806   5.135  0.2675 -0.2535  0.5699
12953SOL     OW42004   0.184   3.254   3.571  0.4608  1.0475 -0.0660
12953SOL    HW142005   0.230   3.213   3.645  1.8250  0.4945 -1.1883
12953SOL    HW242006   0.250   3.307   3.528 -0.6875  2.5178 -0.0795
12954SOL     OW42007   5.187   7.464   7.151 -0.0339  0.2826 -0.7330
12954SOL    HW142008   5.117   7.438   7.211  1.7370 -1.7373  0.6119
12954SOL    HW242009   5.141   7.508   7.079 -2.6862 -0.9755  0.0374
12955SOL     OW42010   3.937   7.088   3.566  0.3243  0.0336 -0.3760
12955SOL    HW142011   3.863   7.149   3.563  0.6992  0.5449  0.3146
12955SOL    HW242012   3.901   7.008   3.604  0.3366  0.6294  0.9613
12956SOL     OW42013   6.181   2.055   5.298 -0.5274 -0.2288 -0.4327
12956SOL    HW142014   6.161   2.121   5.365 -2.4860 -2.2891  1.1918
12956SOL    HW242015   6.139   2.087   5.219  0.4956  1.5069 -0.3171
12957SOL     OW42016   0.270   3.350   0.555  0.1443 -0.3481 -0.2520
12957SOL    HW142017   0.193   3.405   0.543 -1.0699 -2.0793 -0.7283
12957SOL    HW242018   0.276   3.298   0.475  1.4998 -0.6453  0.0043
12958SOL     OW42019   2.333   4.604   6.932 -0.1143 -0.6092  0.2382
12958SOL    HW142020   2.302   4.665   6.866  0.7228  0.4502  0.8026
12958SOL    HW242021   2.310   4.518   6.898 -0.2460 -0.0472 -1.1278
12959SOL     OW42022   1.850   5.736   5.448 -0.1447 -0.7520 -0.0316
12959SOL    HW142023   1.808   5.819   5.469  0.1732 -0.4299 -0.6499
12959SOL    HW242024   1.909   5.719   5.522  0.0527 -0.2536 -0.0736
12960SOL     OW42025   1.044   6.012   5.367  0.0686  0.3411 -0.6217
12960SOL    HW142026   1.133   5.979   5.354 -0.1564  0.1738 -1.9309
12960SOL    HW242027   1.017   6.042   5.280 -1.0530  0.6471 -0.1858
12961SOL     OW42028   1.699   1.320   1.733 -0.0284 -0.4788  0.1192
12961SOL    HW142029   1.707   1.407   1.695 -0.8903  0.1717  1.3851
12961SOL    HW242030   1.767   1.316   1.800 -1.4513  0.1235  1.6683
12962SOL     OW42031   1.898   6.449   2.432  0.6407 -0.0401 -0.0518
12962SOL    HW142032   1.982   6.479   2.397  0.7162  0.7800  0.8015
12962SOL    HW242033   1.856   6.528   2.466 -0.9156 -0.2652 -1.3194
12963SOL     OW42034   5.745   1.898   6.108 -0.6252 -0.4128  0.1633
12963SOL    HW142035   5.716   1.830   6.047  1.2092 -0.3025 -0.8947
12963SOL    HW242036   5.823   1.936   6.067  0.8575 -0.5191  2.7118
12964SOL     OW42037   5.114   0.572   4.016  0.1018  0.3859  0.4072
12964SOL    HW142038   5.147   0.555   3.928 -0.1643  0.5983  0.2672
12964SOL    HW242039   5.115   0.486   4.059  0.6887  0.3612  0.3576
12965SOL     OW42040   2.595   4.240   2.347 -0.5932 -0.1893 -0.1850
12965SOL    HW142041   2.608   4.152   2.313  2.3406  0.8422 -2.1000
12965SOL    HW242042   2.532   4.280   2.287  0.0294 -0.2210 -0.8721
12966SOL     OW42043   1.069   1.922   3.293 -0.5759  0.1056  0.7340
12966SOL    HW142044   1.051   2.012   3.267 -0.0529 -0.3410 -1.3404
12966SOL    HW242045   1.151   1.927   3.341 -0.7832  0.7756  1.0388
12967SOL     OW42046   4.351   0.069   1.391  0.0842  0.0954 -1.0196
12967SOL    HW142047   4.343   0.130   1.317  1.1903 -0.2991 -1.4869
12967SOL    HW242048   4.354  -0.018   1.350 -2.0786 -0.3683 -0.3346
12968SOL     OW42049   3.382   1.618   4.874 -0.6705  0.0999 -0.1110
12968SOL    HW142050   3.313   1.563   4.911 -0.0893 -1.3125 -1.0664
12968SOL    HW242051   3.461   1.592   4.919 -0.6631  1.4559  0.7136
12969SOL     OW42052   4.696   1.804   4.778  0.6285 -0.4867  0.4818
12969SOL    HW142053   4.790   1.794   4.793  0.7348  0.5046  0.5826
12969SOL    HW242054   4.658   1.814   4.866  0.2586 -2.0055  0.5269
12970SOL     OW42055   4.375   1.866   4.986 -0.2223  0.5517 -0.3249
12970SOL    HW142056   4.462   1.861   5.026 -0.4173  0.4486  0.0866
12970SOL    HW242057   4.317   1.823   5.049 -0.4980  0.1968 -0.8095
12971SOL     OW42058   2.311   1.594   3.908  0.1308  0.2165 -0.2968
12971SOL    HW142059   2.352   1.596   3.822  1.7324 -1.2428  0.3720
12971SOL    HW242060   2.271   1.681   3.918  0.2512  0.5437 -2.3204
12972SOL     OW42061   3.582   1.708   6.181 -0.3678 -0.3927  0.3586
12972SOL    HW142062   3.524   1.662   6.241  0.3178 -1.5425  0.1711
12972SOL    HW242063   3.527   1.775   6.141 -1.3744 -0.9964  0.7021
12973SOL     OW42064   6.640   6.371   5.286  0.2423 -0.5541  0.7285
12973SOL    HW142065   6.549   6.397   5.275  0.1042 -0.9663  0.8757
12973SOL    HW242066   6.644   6.281   5.254  0.4952 -0.6934  1.1342
12974SOL     OW42067   1.665   1.344   6.809  0.4410  0.0761 -0.5182
12974SOL    HW142068   1.720   1.286   6.757  0.0062 -0.4514 -0.4032
12974SOL    HW242069   1.645   1.294   6.888 -0.5357  0.0856 -0.7434
12975SOL     OW42070   2.054   1.840   4.758  0.2856 -0.3297 -0.1761
12975SOL    HW142071   2.144   1.859   4.734  0.0859 -0.1652 -0.8123
12975SOL    HW242072   2.015   1.804   4.679 -0.7558  1.4731 -0.5435
12976SOL     OW42073   3.123   3.086   7.308 -0.7403  0.1000 -0.1404
12976SOL    HW142074   3.139   3.157   7.371  1.3607 -0.2147 -0.2522
12976SOL    HW242075   3.140   3.125   7.223 -0.9552 -0.1765 -0.3112
12977SOL     OW42076   1.874   7.840   0.576 -0.5683 -0.5435  1.0281
12977SOL    HW142077   1.890   7.903   0.646 -1.1544 -1.7713  2.3222
12977SOL    HW242078   1.795   7.873   0.533  0.5561  0.9648  0.0046
12978SOL     OW42079   2.756   0.801   2.100  0.2353 -0.2867 -0.4454
12978SOL    HW142080   2.772   0.799   2.194  0.1342  0.1325 -0.4189
12978SOL    HW242081   2.818   0.865   2.066  0.9476 -1.1435 -0.8040
12979SOL     OW42082   3.352   6.672   5.671  0.3934  0.1514  0.3955
12979SOL    HW142083   3.419   6.686   5.738  0.4460  0.2852  0.3172
12979SOL    HW242084   3.388   6.716   5.593  1.7766 -2.5524 -0.6359
12980SOL     OW42085   8.032   4.487   6.629 -0.3118 -0.2267 -0.1848
12980SOL    HW142086   8.007   4.399   6.600 -2.6514 -0.0213  0.9743
12980SOL    HW242087   7.964   4.543   6.593 -1.1664  0.5313  2.4456
12981SOL     OW42088   2.454   6.808   6.233 -0.1813  0.2058  0.1501
12981SOL    HW142089   2.508   6.729   6.235 -1.0235 -0.4364 -1.1780
12981SOL    HW242090   2.392   6.796   6.304 -0.1432 -0.2045  0.1153
12982SOL     OW42091   4.257   6.717   0.647  0.3325  0.1726  0.1762
12982SOL    HW142092   4.210   6.736   0.729 -0.0699 -2.7344  0.7014
12982SOL    HW242093   4.349   6.714   0.673  0.4328  1.3430  0.0422
12983SOL     OW42094   2.448   3.814   0.799  0.2143  0.3279 -0.0720
12983SOL    HW142095   2.388   3.808   0.874  0.8706 -0.0685  0.4294
12983SOL    HW242096   2.466   3.908   0.791 -0.1875  0.4139  0.0061
12984SOL     OW42097   2.904   2.727   3.443 -0.0800  0.4544 -0.0575
12984SOL    HW142098   2.913   2.759   3.354 -1.3960  0.9340 -0.0497
12984SOL    HW242099   2.855   2.797   3.489  1.5662  0.7502  1.3499
12985SOL     OW42100   5.853   0.638   5.319  0.3142 -0.3621 -0.4398
12985SOL    HW142101   5.865   0.708   5.383  0.5704 -0.3833 -0.4621
12985SOL    HW242102   5.891   0.561   5.360 -0.0157 -0.5017 -0.3939
12986SOL     OW42103   5.764   7.636   6.064  0.1306 -0.2375 -0.1083
12986SOL    HW142104   5.826   7.584   6.116  1.2270 -0.2113 -1.3437
12986SOL    HW242105   5.802   7.724   6.064 -0.1987 -0.0973 -0.4376
12987SOL     OW42106   4.242   4.498   7.703  0.3903 -0.5595  0.2518
12987SOL    HW142107   4.320   4.484   7.649 -0.8089  1.5425 -2.2609
12987SOL    HW242108   4.170   4.507   7.640 -1.2302  1.3871  2.2179
12988SOL     OW42109   3.594   7.492   7.888 -0.5824 -0.1391  0.1693
12988SOL    HW142110   3.591   7.397   7.902  0.3416 -0.1574  0.2641
12988SOL    HW242111   3.529   7.527   7.949  0.0108 -0.6118  1.0953
12989SOL     OW42112   6.739   3.132   2.591 -0.1645  0.5136  0.3693
12989SOL    HW142113   6.701   3.044   2.599 -0.1230  0.3907 -0.6111
12989SOL    HW242114   6.833   3.118   2.597 -0.2091  0.7794  2.4656
12990SOL     OW42115   3.314   3.705   4.437 -0.4297 -0.1338  0.4319
12990SOL    HW142116   3.405   3.697   4.410  0.0406  1.2467  1.5083
12990SOL    HW242117   3.308   3.654   4.518 -1.0449 -1.5853 -0.4889
12991SOL     OW42118   0.525   1.413   1.316  0.1167  0.0124  0.3485
12991SOL    HW142119   0.508   1.410   1.222  0.8012  0.3713  0.2056
12991SOL    HW242120   0.593   1.479   1.326 -0.5644  0.6138  1.1964
12992SOL     OW42121   5.763   2.933   7.673 -0.3177  0.2428  0.2347
12992SOL    HW142122   5.788   2.930   7.766  1.2325 -2.5372 -0.1626
12992SOL    HW242123   5.670   2.909   7.673  0.1662 -1.8584  1.0094
12993SOL     OW42124   3.043   7.925   7.863  0.2471  0.0320  0.0396
12993SOL    HW142125   2.993   7.981   7.923  0.1536  1.1110 -1.0126
12993SOL    HW242126   3.134   7.951   7.875 -0.0077  2.4546 -2.3979
12994SOL     OW42127   6.260   3.721   2.917 -0.0252 -0.1068  0.1253
12994SOL    HW142128   6.236   3.628   2.914 -0.9231  0.1268 -0.0875
12994SOL    HW242129   6.269   3.746   2.825  1.6110 -0.3162  0.1937
12995SOL     OW42130   6.827   7.453   1.762 -0.0204 -0.4697 -0.1556
12995SOL    HW142131   6.773   7.378   1.736 -0.9037 -0.2950  1.1050
12995SOL    HW242132   6.764   7.523   1.781  0.5455 -0.5323  2.2339
12996SOL     OW42133   7.970   2.229   4.786  0.4362  0.7755  0.4967
12996SOL    HW142134   8.043   2.189   4.738  0.7480  0.1043  1.4975
12996SOL    HW242135   8.001   2.236   4.876 -0.0772  2.1722  0.5939
12997SOL     OW42136   4.282   6.144   2.352 -0.4110 -0.1260 -0.5588
12997SOL    HW142137   4.367   6.137   2.309 -0.0680  0.0397  0.0826
12997SOL    HW242138   4.234   6.208   2.300 -0.6678 -1.2408 -1.7538
12998SOL     OW42139   7.203   5.847   7.316  0.3359 -0.3040  0.5524
12998SOL    HW142140   7.116   5.835   7.278  0.0967 -1.1219  1.3298
12998SOL    HW242141   7.254   5.772   7.285  0.3575 -0.5669  1.2023
12999SOL     OW42142   0.661   5.808   7.239  0.2646 -0.7034  0.2367
12999SOL    HW142143   0.718   5.787   7.165  1.1487 -0.7379  0.9095
12999SOL    HW242144   0.612   5.727   7.255 -1.2078 -0.1956 -1.3744
13000SOL     OW42145   4.117   6.329   6.246  0.3804  0.2028  0.3559
13000SOL    HW142146   4.048   6.388   6.216 -1.0293 -1.0964  0.8356
13000SOL    HW242147   4.189   6.341   6.184  0.0417  2.1797  0.2976
13001SOL     OW42148   0.747   2.881   5.987 -0.7712 -0.6378 -0.6536
13001SOL    HW142149   0.665   2.932   5.979  0.0179  0.8445  0.1751
13001SOL    HW242150   0.721   2.800   6.031 -1.5641  0.5861  1.2831
13002SOL     OW42151   5.207   5.797   1.123  0.5912  0.3700  0.1345
13002SOL    HW142152   5.166   5.828   1.204  0.0521  0.8473 -0.3090
13002SOL    HW242153   5.300   5.816   1.134  0.4486  0.9253  0.4282
13003SOL     OW42154   4.755   1.053   0.527  0.1429 -0.0065  0.2044
13003SOL    HW142155   4.676   1.104   0.544 -0.3167 -0.5631 -0.2264
13003SOL    HW242156   4.820   1.117   0.501 -0.6264  0.2970 -1.0340
13004SOL     OW42157   7.111   2.704   0.134 -0.7859  0.3201  0.1129
13004SOL    HW142158   7.116   2.623   0.185 -0.1478 -0.5290 -1.2340
13004SOL    HW242159   7.049   2.759   0.182 -1.2802 -0.9783  1.0253
13005SOL     OW42160   7.196   4.705   7.320  0.2840 -0.0750 -0.3012
13005SOL    HW142161   7.290   4.687   7.317  0.2293 -0.3398 -0.4035
13005SOL    HW242162   7.155   4.628   7.281  0.1208  0.7676 -1.8556
13006SOL     OW42163   0.490   2.987   5.983 -0.2837 -0.2568 -0.0176
13006SOL    HW142164   0.475   3.080   5.964  1.3696  0.4246  1.7478
13006SOL    HW242165   0.488   2.945   5.897  0.6977  1.6947 -1.0666
13007SOL     OW42166   4.449   0.536   6.414  0.4002  0.2228 -0.4093
13007SOL    HW142167   4.434   0.461   6.472 -1.3280  1.9754  1.5917
13007SOL    HW242168   4.541   0.557   6.425  0.8166 -1.2882 -0.6821
13008SOL     OW42169   3.372   1.020   0.564 -0.0474  0.5693  0.2516
13008SOL    HW142170   3.404   1.066   0.487 -0.8302 -0.0649 -0.4720
13008SOL    HW242171   3.375   1.085   0.634  1.4282  0.9242 -0.1152
13009SOL     OW42172   6.328   5.870   7.202  0.1481  0.7253 -0.1741
13009SOL    HW142173   6.389   5.832   7.266  0.5567  0.9611 -0.4153
13009SOL    HW242174   6.264   5.917   7.255  1.2335  2.0361  0.0376
13010SOL     OW42175   6.493   7.825   6.713  0.0581  0.1278 -0.0081
13010SOL    HW142176   6.434   7.814   6.788 -0.1838 -1.2172 -0.3668
13010SOL    HW242177   6.434   7.840   6.639  0.1890 -0.6616 -0.2758
13011SOL     OW42178   7.618   6.376   0.676 -0.0049 -0.1807  0.1751
13011SOL    HW142179   7.577   6.299   0.716 -1.1772  0.9447  1.2240
13011SOL    HW242180   7.604   6.447   0.739  0.1881  1.1191 -1.1858
13012SOL     OW42181   0.976   7.388   2.011  0.0253  0.1076  0.0288
13012SOL    HW142182   0.977   7.348   1.924 -0.0991  2.2331 -1.0230
13012SOL    HW242183   1.005   7.478   1.996 -0.5515  0.6894  2.1012
13013SOL     OW42184   4.844   2.018   4.528  0.4505 -0.4974  0.1181
13013SOL    HW142185   4.778   2.058   4.585  1.5265  1.2647  0.2067
13013SOL    HW242186   4.818   2.044   4.440  1.6667  1.3295  0.2391
13014SOL     OW42187   3.799   4.951   1.297 -0.1506 -0.2749 -0.6144
13014SOL    HW142188   3.843   4.981   1.376 -1.6199 -2.0730  0.9861
13014SOL    HW242189   3.808   5.024   1.235  1.3205  1.0578  1.0775
13015SOL     OW42190   5.564   1.195   5.946  0.3143 -0.2946 -0.3083
13015SOL    HW142191   5.629   1.139   5.989 -0.9927 -1.3212  0.3970
13015SOL    HW242192   5.485   1.184   5.998 -1.6404 -2.2504 -3.3988
13016SOL     OW42193   2.699   7.405   3.300 -0.0361  0.6055 -0.1826
13016SOL    HW142194   2.635   7.359   3.246 -1.4695  1.3722  0.8009
13016SOL    HW242195   2.703   7.355   3.381 -0.7544  1.5570  0.4521
13017SOL     OW42196   4.813   1.732   1.032  0.2669 -0.1381 -0.1283
13017SOL    HW142197   4.720   1.719   1.048  0.1246  1.5085  0.5945
13017SOL    HW242198   4.840   1.654   0.983 -1.2421 -1.1335  0.5400
13018SOL     OW42199   2.863   5.685   6.985  0.0024  0.3874  0.1117
13018SOL    HW142200   2.931   5.630   6.944  0.4534  0.5712  0.6072
13018SOL    HW242201   2.782   5.637   6.968  0.2853  0.0089 -0.2280
13019SOL     OW42202   3.852   4.627   3.956  0.4238 -0.5105 -0.0929
13019SOL    HW142203   3.847   4.709   3.906  1.3529  0.1055  0.8026
13019SOL    HW242204   3.939   4.592   3.935 -0.0354 -1.3776 -0.6101
13020SOL     OW42205   4.876   3.206   5.342 -0.1311 -0.3966  0.1599
13020SOL    HW142206   4.816   3.276   5.368 -0.4507  0.0235 -1.5819
13020SOL    HW242207   4.931   3.192   5.419 -1.8865 -0.2050  1.5268
13021SOL     OW42208   1.089   4.889   2.457 -0.2696 -0.0066  0.0298
13021SOL    HW142209   1.058   4.847   2.537 -1.3687  1.7228  0.5697
13021SOL    HW242210   1.029   4.963   2.445  0.5622  0.4077 -1.7880
13022SOL     OW42211   5.179   7.437   6.782 -0.0538 -0.5660  0.0280
13022SOL    HW142212   5.084   7.433   6.792 -0.1562 -1.6885 -1.1321
13022SOL    HW242213   5.192   7.453   6.688  0.8985  1.5248  0.4678
13023SOL     OW42214   4.694   2.439   8.002 -0.9044 -0.2390  0.0560
13023SOL    HW142215   4.684   2.448   7.907 -0.1772  2.8650  0.1611
13023SOL    HW242216   4.727   2.350   8.014 -1.4842 -0.9056 -2.5187
13024SOL     OW42217   5.648   7.950   0.366 -0.4690 -0.4855 -0.3118
13024SOL    HW142218   5.666   7.870   0.316  1.7381 -0.6171  0.5495
13024SOL    HW242219   5.706   8.016   0.327  1.1097 -0.5248  1.7541
13025SOL     OW42220   3.146   6.662   1.975  0.1326 -0.5341  0.1059
13025SOL    HW142221   3.168   6.589   1.917  1.2796 -0.1955  0.0911
13025SOL    HW242222   3.221   6.721   1.969 -0.3374  0.1665  0.8928
13026SOL     OW42223   4.318   5.935   6.225 -0.4570 -0.5142  0.0501
13026SOL    HW142224   4.362   5.967   6.147 -1.7919 -0.0479 -0.5447
13026SOL    HW242225   4.313   6.011   6.283 -2.0964 -0.0427 -0.6560
13027SOL     OW42226   6.239   2.804   1.506  0.0117  0.2041 -0.0603
13027SOL    HW142227   6.330   2.821   1.530 -0.1539  0.3728  0.4679
13027SOL    HW242228   6.213   2.730   1.562 -0.2316  0.2815 -0.0704
13028SOL     OW42229   2.837   4.256   3.685 -0.3581 -1.1186 -0.0307
13028SOL    HW142230   2.759   4.204   3.707 -1.7342  0.2883 -1.3563
13028SOL    HW242231   2.865   4.293   3.768 -1.7002 -0.8736  0.3449
13029SOL     OW42232   5.316   3.320   7.625  0.6717  0.1643  0.6097
13029SOL    HW142233   5.296   3.323   7.718  1.8123 -0.3432  0.8917
13029SOL    HW242234   5.375   3.245   7.615  0.8364  0.4116 -0.4612
13030SOL     OW42235   0.795   5.485   1.956  0.8791  0.2745 -0.3551
13030SOL    HW142236   0.801   5.450   2.045  0.1712 -0.9630 -0.7611
13030SOL    HW242237   0.797   5.407   1.900 -0.0635  0.9254 -1.3404
13031SOL     OW42238   3.159   4.644   6.775 -0.1061 -0.1494 -0.1002
13031SOL    HW142239   3.142   4.691   6.694  0.9717 -2.2244 -1.6422
13031SOL    HW242240   3.204   4.707   6.831 -0.9302  1.3485 -1.0668
13032SOL     OW42241   2.181   0.163   3.084 -0.0282 -0.3841  0.4169
13032SOL    HW142242   2.199   0.130   2.996  2.3819  1.4650  0.1219
13032SOL    HW242243   2.255   0.133   3.137 -1.1654 -1.0098  1.7280
13033SOL     OW42244   4.198   4.110   2.490 -0.0465  0.3024  0.2007
13033SOL    HW142245   4.183   4.056   2.412  0.1268  0.8710 -0.2318
13033SOL    HW242246   4.285   4.147   2.477 -0.3588  1.0705  0.2616
13034SOL     OW42247   1.633   0.210   5.771 -0.0028 -0.3823 -0.0977
13034SOL    HW142248   1.727   0.209   5.754 -0.0928 -1.3410 -0.5830
13034SOL    HW242249   1.595   0.240   5.688 -0.1230  0.0778  0.1217
13035SOL     OW42250   5.031   5.365   0.088 -0.0352 -0.1188  0.2100
13035SOL    HW142251   4.989   5.443   0.050  1.0785  0.2707 -0.2597
13035SOL    HW242252   5.060   5.393   0.175  2.3553  0.7241 -0.7924
13036SOL     OW42253   7.918   4.744   1.085 -0.3168 -0.0793  0.0585
13036SOL    HW142254   7.825   4.746   1.109 -0.7240 -1.0144 -1.3134
13036SOL    HW242255   7.957   4.683   1.146 -0.3132  1.2691  1.4745
13037SOL     OW42256   0.739   7.235   2.140  0.0836 -0.0607  0.5735
13037SOL    HW142257   0.658   7.257   2.187  1.9463  1.7603  3.2728
13037SOL    HW242258   0.772   7.319   2.109  1.2481 -0.6787  0.0815
13038SOL     OW42259   4.449   2.867   3.952  0.8564 -0.2243  0.2457
13038SOL    HW142260   4.428   2.822   4.034  0.8475 -0.3043  0.1997
13038SOL    HW242261   4.541   2.893   3.961  0.9570 -0.5380  0.1406
13039SOL     OW42262   7.673   4.520   2.698 -0.1766  0.4397  0.3178
13039SOL    HW142263   7.671   4.424   2.699 -3.2785  0.3940 -0.3547
13039SOL    HW242264   7.749   4.542   2.644 -1.4968 -1.7626 -2.6934
13040SOL     OW42265   7.570   7.181   5.752  0.7425  0.4238 -0.0084
13040SOL    HW142266   7.590   7.132   5.831 -1.5257 -1.5818 -0.5401
13040SOL    HW242267   7.592   7.121   5.680 -0.3184  0.8895 -0.7591
13041SOL     OW42268   2.577   2.749   1.542 -0.2939  0.2868  0.8270
13041SOL    HW142269   2.560   2.833   1.501  3.0170  0.2907 -0.8885
13041SOL    HW242270   2.566   2.685   1.471 -2.6833 -0.8283  2.0796
13042SOL     OW42271   2.248   2.977   1.276  0.7195 -0.2808  0.4589
13042SOL    HW142272   2.167   3.023   1.253  1.6227  1.4476  0.5597
13042SOL    HW242273   2.220   2.904   1.331 -0.6972  0.9031  1.3877
13043SOL     OW42274   5.388   6.358   4.746  0.3847 -0.0752 -0.2572
13043SOL    HW142275   5.403   6.317   4.831  1.5925 -1.5806 -1.1317
13043SOL    HW242276   5.395   6.286   4.683 -0.5194  0.9863 -1.6350
13044SOL     OW42277   6.673   5.492   5.332 -0.0778  0.6059 -0.2370
13044SOL    HW142278   6.722   5.429   5.386 -0.1992  1.2900  0.6936
13044SOL    HW242279   6.726   5.571   5.334  0.9023  0.1184 -2.7207
13045SOL     OW42280   1.592   1.320   5.454 -0.2006  0.0457 -0.1919
13045SOL    HW142281   1.641   1.243   5.482 -0.3063 -0.1700 -0.5987
13045SOL    HW242282   1.599   1.381   5.528  0.7694  0.0585 -0.2727
13046SOL     OW42283   1.610   2.984   7.216 -0.3331  0.2072 -0.5389
13046SOL    HW142284   1.561   2.993   7.134  0.1080 -2.5355 -1.1769
13046SOL    HW242285   1.673   2.915   7.200  0.2460  0.0627  1.9180
13047SOL     OW42286   2.431   2.959   4.020 -0.5145 -0.0509  0.1985
13047SOL    HW142287   2.371   2.947   4.094  0.4778  0.2645  1.0843
13047SOL    HW242288   2.518   2.959   4.060  0.0296  0.4437 -0.9420
13048SOL     OW42289   6.423   6.024   3.742  0.2141 -0.4383  0.5541
13048SOL    HW142290   6.492   5.957   3.730  1.1537  0.4223  0.9979
13048SOL    HW242291   6.456   6.079   3.812 -1.4155 -0.5783  1.4610
13049SOL     OW42292   5.717   5.055   1.504 -0.1473 -0.4218 -0.6231
13049SOL    HW142293   5.726   5.030   1.412 -0.1589  0.4283 -0.8640
13049SOL    HW242294   5.802   5.092   1.527 -0.2814 -0.2384 -0.4159
13050SOL     OW42295   3.113   7.436   5.574  0.9311  0.0325 -0.0028
13050SOL    HW142296   3.126   7.359   5.629  0.4781  0.4049  0.6406
13050SOL    HW242297   3.183   7.496   5.599  0.2438  0.5341  0.7818
13051SOL     OW42298   4.966   5.265   3.149 -0.2262  0.3905  0.3609
13051SOL    HW142299   4.889   5.218   3.116 -0.6967  0.7157  0.9806
13051SOL    HW242300   5.016   5.287   3.071 -1.3686  1.2333 -0.1604
13052SOL     OW42301   5.277   0.868   1.614  0.6586  0.0728  0.2229
13052SOL    HW142302   5.285   0.952   1.660 -0.1497 -0.4017  1.2748
13052SOL    HW242303   5.212   0.884   1.546  0.3305  0.2385  0.5743
13053SOL     OW42304   6.460   6.672   3.549 -0.0290  0.5230 -0.2314
13053SOL    HW142305   6.554   6.674   3.531  0.1219  0.4115  0.4790
13053SOL    HW242306   6.453   6.708   3.638 -0.4689 -1.0841  0.4245
13054SOL     OW42307   1.767   5.417   3.634  0.8566 -0.3067 -0.2601
13054SOL    HW142308   1.754   5.468   3.714 -1.6156  0.2484 -0.9259
13054SOL    HW242309   1.755   5.326   3.662 -1.1876 -0.0461 -0.1379
13055SOL     OW42310   3.727   5.245   1.620 -0.8460 -0.5765  0.7109
13055SOL    HW142311   3.803   5.221   1.673 -1.6878 -0.0773  2.2293
13055SOL    HW242312   3.675   5.301   1.678 -1.9061 -0.1370 -0.6152
13056SOL     OW42313   2.058   5.499   8.096 -0.1927 -0.1723  0.2929
13056SOL    HW142314   2.046   5.580   8.046  0.3719 -0.0236  0.3802
13056SOL    HW242315   2.084   5.434   8.031 -3.3679 -1.0576 -0.2517
13057SOL     OW42316   1.704   6.967   3.613 -0.2312 -0.3027  0.0710
13057SOL    HW142317   1.642   6.981   3.685  1.1724  0.3218  1.2142
13057SOL    HW242318   1.708   6.872   3.604  1.2703 -0.5687  2.4655
13058SOL     OW42319   7.118   4.085   6.158  0.7041 -0.6738 -0.6863
13058SOL    HW142320   7.035   4.106   6.116  0.3221 -0.5354  0.1168
13058SOL    HW242321   7.185   4.115   6.096  0.1672 -1.1965 -1.5407
13059SOL     OW42322   0.698   3.221   0.794 -0.2393 -0.3553  0.4957
13059SOL    HW142323   0.672   3.235   0.703 -0.6632  1.6920  0.8737
13059SOL    HW242324   0.747   3.139   0.793  1.1207  0.3817 -1.8584
13060SOL     OW42325   1.518   5.539   2.927 -0.3517 -0.3430 -0.6036
13060SOL    HW142326   1.510   5.624   2.882 -0.1944 -0.0502 -0.0937
13060SOL    HW242327   1.587   5.554   2.992 -0.4047 -0.8337 -0.4366
13061SOL     OW42328   7.418   0.088   7.582 -0.0298 -0.0724 -0.5434
13061SOL    HW142329   7.402   0.027   7.653 -1.6808 -0.8987 -1.5645
13061SOL    HW242330   7.451   0.034   7.510  0.1611  0.5039 -0.8953
13062SOL     OW42331   6.760   0.149   0.093  0.2650 -0.6691  0.3952
13062SOL    HW142332   6.804   0.070   0.062  0.5722 -0.9139  1.3999
13062SOL    HW242333   6.676   0.118   0.126 -0.3818 -0.3043 -0.8669
13063SOL     OW42334   3.135   1.055   1.127 -0.0095 -0.5497  0.1149
13063SOL    HW142335   3.134   1.151   1.131  1.3743 -0.4961 -0.4521
13063SOL    HW242336   3.186   1.035   1.049 -0.6972 -1.7658 -0.0513
13064SOL     OW42337   2.672   4.747   7.618  0.1471 -0.2068  0.2615
13064SOL    HW142338   2.749   4.803   7.627  0.2545 -0.1500 -0.9151
13064SOL    HW242339   2.611   4.798   7.566 -0.2320 -0.7077  0.2130
13065SOL     OW42340   2.758   5.442   0.040 -0.1461 -0.2671  0.6193
13065SOL    HW142341   2.671   5.403   0.032  1.4349 -4.0690 -0.0461
13065SOL    HW242342   2.783   5.462  -0.050 -0.8521  2.4600  0.9278
13066SOL     OW42343   5.248   2.434   6.931 -0.5729  0.6488 -0.1923
13066SOL    HW142344   5.171   2.385   6.963 -0.6286  2.0838  2.0372
13066SOL    HW242345   5.231   2.525   6.956  2.5424  0.8050  1.8624
13067SOL     OW42346   1.009   5.640   6.497 -0.3070  0.3145  0.2911
13067SOL    HW142347   0.995   5.551   6.464  1.3895  0.4353 -0.8794
13067SOL    HW242348   0.920   5.677   6.506 -1.0232 -1.4219  0.6607
13068SOL     OW42349   4.919   5.934   7.183 -0.1625 -0.1500  0.1302
13068SOL    HW142350   4.871   5.910   7.104  1.5881  1.8260 -1.6640
13068SOL    HW242351   4.863   5.996   7.228 -0.3787  0.2048 -0.6134
13069SOL     OW42352   3.387   3.303   2.930  0.1144 -0.4047  0.3707
13069SOL    HW142353   3.430   3.276   2.849 -0.0670 -1.3285  0.5717
13069SOL    HW242354   3.334   3.228   2.956 -1.5161  0.6395  0.2166
13070SOL     OW42355   3.723   4.725   2.081  0.1580  0.0280 -0.6724
13070SOL    HW142356   3.738   4.812   2.118  0.4579 -0.0725 -0.5607
13070SOL    HW242357   3.644   4.694   2.126 -0.4536  0.5950 -1.3396
13071SOL     OW42358   2.026   4.487   7.089 -0.2681 -0.3324  0.4695
13071SOL    HW142359   2.035   4.496   7.183 -0.9230 -0.1792  0.5273
13071SOL    HW242360   1.970   4.410   7.078 -1.2586  0.3944  0.2612
13072SOL     OW42361   4.386   7.967   0.267  0.1911 -0.0316 -0.0265
13072SOL    HW142362   4.412   7.914   0.342  1.2631  1.0581  0.4042
13072SOL    HW242363   4.468   8.007   0.236 -0.3298  0.0476 -1.3842
13073SOL     OW42364   4.319   3.751   5.817 -0.3484  0.1308  0.4511
13073SOL    HW142365   4.256   3.680   5.804  0.1035 -0.1281 -0.4109
13073SOL    HW242366   4.335   3.785   5.729 -1.3310  1.9977  0.9645
13074SOL     OW42367   5.307   1.056   1.850 -0.1701  0.6323  0.3465
13074SOL    HW142368   5.225   1.043   1.899  0.1767 -0.8174  0.5810
13074SOL    HW242369   5.369   1.087   1.916 -0.5783  2.0487  0.1067
13075SOL     OW42370   0.442   6.465   6.189 -0.1492 -0.7837  0.4565
13075SOL    HW142371   0.486   6.381   6.172  1.6842  0.0650  0.7235
13075SOL    HW242372   0.489   6.528   6.134 -0.4390  0.3448  1.4522
13076SOL     OW42373   4.418   7.756   7.592  0.7275 -0.0417  0.0746
13076SOL    HW142374   4.338   7.777   7.639  0.9333  1.2354 -0.1001
13076SOL    HW242375   4.394   7.765   7.499  1.7480  3.4207  0.0035
13077SOL     OW42376   5.005   6.984   3.835 -0.5391 -0.3186 -0.9692
13077SOL    HW142377   5.099   7.000   3.827 -0.5333  0.7641  0.7296
13077SOL    HW242378   4.989   6.909   3.778  1.6771 -1.6901  0.0372
13078SOL     OW42379   0.656   0.329   4.171 -0.0511 -0.1379  0.3429
13078SOL    HW142380   0.598   0.271   4.121 -3.0135  2.9211 -0.1385
13078SOL    HW242381   0.701   0.381   4.105  0.5560 -0.0718  0.8004
13079SOL     OW42382   2.162   3.781   6.310  0.1212  0.1779  0.3234
13079SOL    HW142383   2.196   3.692   6.307 -1.6357 -0.5576  1.1240
13079SOL    HW242384   2.126   3.796   6.223 -3.0450 -1.4081  1.2025
13080SOL     OW42385   0.754   6.344   4.535 -0.3915 -0.2295 -0.4343
13080SOL    HW142386   0.790   6.412   4.478 -1.6202 -1.0563 -2.2536
13080SOL    HW242387   0.754   6.265   4.482 -0.6052 -1.2923  1.0811
13081SOL     OW42388   2.712   4.662   1.255 -0.0762  0.0710 -0.3877
13081SOL    HW142389   2.777   4.706   1.200 -0.6074  1.0007 -0.2737
13081SOL    HW242390   2.689   4.726   1.321  0.6583 -1.0739  1.0452
13082SOL     OW42391   6.725   4.865   7.647 -0.0255  0.6157 -0.0486
13082SOL    HW142392   6.767   4.813   7.716 -1.1302  0.2485  0.3630
13082SOL    HW242393   6.721   4.953   7.684 -2.2160  0.0826  1.1403
13083SOL     OW42394   7.624   6.184   4.645  0.3350 -0.5455  0.4227
13083SOL    HW142395   7.609   6.178   4.550  1.2651 -1.4755  0.3064
13083SOL    HW242396   7.537   6.187   4.683 -0.0527  0.1200 -0.4734
13084SOL     OW42397   4.055   6.777   1.567 -0.1371  0.7756  0.1554
13084SOL    HW142398   4.123   6.723   1.606  0.3655  1.9143  0.9073
13084SOL    HW242399   4.091   6.802   1.481 -0.2772  0.1186 -0.0988
13085SOL     OW42400   5.144   2.720   4.059 -0.4770  0.0186 -0.3318
13085SOL    HW142401   5.090   2.718   3.979  0.3318 -2.0413 -0.9019
13085SOL    HW242402   5.097   2.779   4.118 -2.8740 -0.9545 -1.1390
13086SOL     OW42403   5.097   3.440   6.557  0.1152  0.5561  0.6203
13086SOL    HW142404   5.169   3.457   6.496 -0.1740  0.4162  0.2419
13086SOL    HW242405   5.064   3.354   6.532 -1.2046  1.2784 -0.2395
13087SOL     OW42406   0.152   4.720   5.066 -0.1922  0.4322  0.3497
13087SOL    HW142407   0.172   4.814   5.056 -1.1292  0.5488 -0.5928
13087SOL    HW242408   0.188   4.680   4.987 -0.4018  0.1017  0.4232
13088SOL     OW42409   1.456   2.646   1.686  0.7755 -0.1321  0.1315
13088SOL    HW142410   1.423   2.567   1.645  0.1543 -1.0391  2.2585
13088SOL    HW242411   1.544   2.624   1.715  0.8341  0.1583  0.1830
13089SOL     OW42412   6.363   5.832   3.988 -0.5266  0.3853  0.1617
13089SOL    HW142413   6.361   5.846   3.894 -1.2822  0.5238  0.1879
13089SOL    HW242414   6.302   5.760   4.003 -0.3040  0.2709  0.5271
13090SOL     OW42415   1.599   3.691   5.003 -0.2401 -0.0735  0.2927
13090SOL    HW142416   1.675   3.700   5.061  0.2585 -1.1340 -0.1740
13090SOL    HW242417   1.526   3.674   5.063 -0.2763  1.6184  0.7993
13091SOL     OW42418   7.784   2.288   6.287 -0.0528  0.0775 -0.8631
13091SOL    HW142419   7.696   2.253   6.305  0.0914  0.7773  1.4539
13091SOL    HW242420   7.844   2.223   6.322  0.2678  0.8840  0.1588
13092SOL     OW42421   2.274   2.700   4.504 -0.4830  0.2944  0.0579
13092SOL    HW142422   2.335   2.727   4.573 -1.1189  0.1366  0.6898
13092SOL    HW242423   2.213   2.773   4.495 -1.5789 -0.4691  1.0475
13093SOL     OW42424   0.015   3.919   0.928  0.1894 -0.1042 -0.0519
13093SOL    HW142425   0.026   3.826   0.913  1.5982  0.0934 -0.3908
13093SOL    HW242426  -0.005   3.926   1.021 -2.4106 -0.8811 -0.4595
13094SOL     OW42427   4.194   4.156   0.555  0.0161 -0.6731  0.0727
13094SOL    HW142428   4.195   4.143   0.461 -2.5586  1.7252 -0.4228
13094SOL    HW242429   4.285   4.177   0.577  0.2678  1.3397 -2.3900
13095SOL     OW42430   5.604   1.383   2.448  0.3341 -0.0174 -0.3026
13095SOL    HW142431   5.611   1.418   2.359  0.4957 -0.6724 -0.5554
13095SOL    HW242432   5.628   1.456   2.504  4.3910 -0.6432 -0.9143
13096SOL     OW42433   5.086   0.778   7.304  0.0648 -0.8615 -0.5537
13096SOL    HW142434   5.027   0.710   7.273 -0.4021 -0.6516 -0.1273
13096SOL    HW242435   5.077   0.777   7.399  0.5314 -0.6342 -0.5034
13097SOL     OW42436   7.227   6.954   2.923 -0.1193 -0.5517 -0.0491
13097SOL    HW142437   7.289   7.020   2.954  0.2265 -1.3057  0.9154
13097SOL    HW242438   7.182   6.997   2.850  0.7101  0.4284 -0.0222
13098SOL     OW42439   2.044   5.453   2.784  0.4306  0.5093  0.1568
13098SOL    HW142440   2.064   5.443   2.692  0.2974  2.2393 -0.0971
13098SOL    HW242441   2.129   5.463   2.827  0.4667  0.2982  0.1321
13099SOL     OW42442   7.428   6.119   2.256  0.2740  0.2553  0.0509
13099SOL    HW142443   7.484   6.172   2.314 -0.0057  2.7811 -1.7965
13099SOL    HW242444   7.346   6.169   2.250 -2.2284 -3.1641  2.4072
13100SOL     OW42445   3.556   3.856   1.551 -0.3287  0.1347 -0.2623
13100SOL    HW142446   3.482   3.815   1.597  0.6242  0.2931  1.4851
13100SOL    HW242447   3.518   3.888   1.469 -1.7962 -1.3970 -0.2464
13101SOL     OW42448   7.385   4.077   3.202  0.0988  0.4096 -0.1806
13101SOL    HW142449   7.332   4.157   3.199 -0.6773 -0.0540  0.6432
13101SOL    HW242450   7.475   4.107   3.187 -0.4462  1.1311 -2.2442
13102SOL     OW42451   4.367   0.428   5.948 -0.1268  0.0477 -0.1434
13102SOL    HW142452   4.445   0.464   5.989  0.4722  0.2489 -1.4096
13102SOL    HW242453   4.338   0.496   5.887 -0.4883 -0.5634 -0.6695
13103SOL     OW42454   3.861   2.571   0.960  0.2212 -0.6601  0.1319
13103SOL    HW142455   3.910   2.497   0.995  0.6805 -0.0652  0.7673
13103SOL    HW242456   3.792   2.531   0.906  0.5586 -1.5370  0.3414
13104SOL     OW42457   7.552   3.452   7.426 -0.2800 -0.1096  0.0458
13104SOL    HW142458   7.632   3.478   7.472 -0.5136 -1.2183  1.1411
13104SOL    HW242459   7.496   3.417   7.495 -0.5688 -2.0406 -1.1113
13105SOL     OW42460   2.767   0.509   1.113 -0.3147  0.1817 -0.1932
13105SOL    HW142461   2.793   0.420   1.135 -0.7459 -0.3689 -1.7767
13105SOL    HW242462   2.828   0.565   1.162  1.4012 -1.0106 -0.8686
13106SOL     OW42463   5.014   5.729   3.241 -0.2380 -0.0868  0.5423
13106SOL    HW142464   4.925   5.763   3.251 -1.2629 -1.3770 -2.8644
13106SOL    HW242465   5.008   5.637   3.268 -1.0960 -1.3157 -3.2160
13107SOL     OW42466   4.281   0.249   4.266 -0.3941  0.0352 -0.3505
13107SOL    HW142467   4.310   0.340   4.261  2.1607 -0.6827 -0.0046
13107SOL    HW242468   4.244   0.241   4.353  1.2037  0.2986  0.3899
13108SOL     OW42469   5.074   8.020   0.063  0.0400 -0.2125  0.6471
13108SOL    HW142470   5.051   8.100   0.016 -0.6143 -1.6048 -1.6085
13108SOL    HW242471   4.990   7.978   0.082  0.3960 -1.2350  0.0725
13109SOL     OW42472   7.318   2.906   7.210  0.0106  0.1969  0.3823
13109SOL    HW142473   7.235   2.952   7.223 -0.1990 -0.0928  0.0674
13109SOL    HW242474   7.370   2.928   7.288 -0.4741  0.1340  0.7238
13110SOL     OW42475   1.678   7.146   6.433 -0.0601 -0.2772  0.4263
13110SOL    HW142476   1.685   7.059   6.394 -0.5651 -0.1553  0.0620
13110SOL    HW242477   1.633   7.132   6.516 -0.4702 -0.3128  0.1965
13111SOL     OW42478   1.387   6.703   4.600 -0.0040  0.6442 -0.2493
13111SOL    HW142479   1.348   6.734   4.682 -0.8865 -0.7273 -0.1214
13111SOL    HW242480   1.481   6.722   4.610 -0.2719  1.6844  0.5091
13112SOL     OW42481   3.554   2.507   0.443 -0.0137  0.2729  0.3149
13112SOL    HW142482   3.490   2.479   0.508  0.7781 -0.3407  0.8322
13112SOL    HW242483   3.577   2.428   0.395  1.1344  0.2797  0.8229
13113SOL     OW42484   4.314   0.047   2.328 -0.0535  0.0027  0.1020
13113SOL    HW142485   4.371   0.031   2.253 -0.9388  0.2409 -0.6251
13113SOL    HW242486   4.375   0.056   2.402  0.8092 -0.5268 -0.5175
13114SOL     OW42487   0.480   7.836   2.038  0.4743  0.0678 -0.2614
13114SOL    HW142488   0.443   7.762   2.086  1.8146 -0.3249  0.2075
13114SOL    HW242489   0.574   7.833   2.058  0.2552  3.5910  2.1965
13115SOL     OW42490   6.242   5.685   6.039 -0.1492  0.0818 -0.2236
13115SOL    HW142491   6.219   5.762   6.091 -1.2191 -0.2886 -0.1113
13115SOL    HW242492   6.158   5.655   6.004  0.5132  0.1912 -1.9796
13116SOL     OW42493   2.160   6.435   2.008  0.0280  0.9280  0.1114
13116SOL    HW142494   2.086   6.494   1.993  0.1678  1.3658  1.0617
13116SOL    HW242495   2.121   6.348   2.006 -0.1657  1.0202 -1.4188
13117SOL     OW42496   0.861   0.189   4.819 -0.0980  0.1033  0.2599
13117SOL    HW142497   0.896   0.232   4.741 -1.1907  0.5825  0.0130
13117SOL    HW242498   0.771   0.221   4.826 -0.3690 -0.7805  1.0961
13118SOL     OW42499   2.564   5.343   5.462 -0.4616  0.7000 -0.0520
13118SOL    HW142500   2.642   5.368   5.511 -0.4185 -1.1640  0.9141
13118SOL    HW242501   2.597   5.286   5.392 -0.7437  1.7903 -1.1219
13119SOL     OW42502   3.735   4.697   1.542 -0.1078  0.0374  0.1693
13119SOL    HW142503   3.824   4.689   1.509 -0.6237 -0.7518 -1.0949
13119SOL    HW242504   3.745   4.736   1.629  1.2557  3.0455 -1.1927
13120SOL     OW42505   6.623   0.792   6.990  0.4326  0.3815  0.4544
13120SOL    HW142506   6.565   0.721   6.963  1.1714 -0.0549 -0.0161
13120SOL    HW242507   6.690   0.795   6.922  0.0166  2.0174  0.0679
13121SOL     OW42508   2.213   6.539   5.600 -0.2235 -0.0438 -0.0549
13121SOL    HW142509   2.180   6.449   5.603  3.1405 -1.4384 -0.8049
13121SOL    HW242510   2.213   6.567   5.692 -0.0019 -1.3466  0.3688
13122SOL     OW42511   6.617   3.838   3.246 -0.1371  0.4397 -0.2197
13122SOL    HW142512   6.588   3.928   3.239  1.0214  0.8659  0.2529
13122SOL    HW242513   6.690   3.831   3.184  0.0992 -0.0316  0.1032
13123SOL     OW42514   5.908   5.282   4.235  0.0470  0.2869  0.2657
13123SOL    HW142515   5.909   5.307   4.143 -0.2120  1.5748  0.5894
13123SOL    HW242516   5.988   5.232   4.248 -0.4000 -0.7607 -0.8760
13124SOL     OW42517   5.243   0.286   3.291  0.7732  0.4577  0.4970
13124SOL    HW142518   5.225   0.380   3.286  0.3094  0.3128 -3.1856
13124SOL    HW242519   5.331   0.281   3.327  1.8819  2.5415 -1.6336
13125SOL     OW42520   2.137   7.814   6.380 -0.1837  0.2272  0.1778
13125SOL    HW142521   2.132   7.824   6.475  0.1777 -0.0858  0.2322
13125SOL    HW242522   2.137   7.719   6.365  0.6698  0.2617 -0.0798
13126SOL     OW42523   2.601   6.831   1.602 -0.7763  0.2475 -0.1802
13126SOL    HW142524   2.532   6.845   1.666 -1.8710 -1.2012 -0.9900
13126SOL    HW242525   2.611   6.736   1.597 -0.8189  0.2964 -2.2392
13127SOL     OW42526   5.259   6.720   7.751  0.3853 -0.4271 -0.0494
13127SOL    HW142527   5.290   6.659   7.818  0.9641  0.5818  0.6197
13127SOL    HW242528   5.296   6.685   7.669  1.5710 -0.4203  0.4602
13128SOL     OW42529   4.244   1.036   7.762 -0.4189  0.0587 -0.4321
13128SOL    HW142530   4.323   1.047   7.815 -1.2376  2.1478  0.4555
13128SOL    HW242531   4.277   1.010   7.676  1.1243 -0.6574  0.3343
13129SOL     OW42532   3.877   0.122   1.862  0.2081  0.3353  0.5993
13129SOL    HW142533   3.958   0.173   1.854  0.4565  0.0742  1.3313
13129SOL    HW242534   3.858   0.093   1.772  0.6253  0.8554  0.3393
13130SOL     OW42535   6.788   5.855   0.317  0.1451  0.0871  0.0081
13130SOL    HW142536   6.703   5.812   0.315 -0.5709  1.2979  1.7860
13130SOL    HW242537   6.799   5.890   0.228 -1.0972 -0.2776 -0.3133
13131SOL     OW42538   8.086   6.638   7.684 -0.1301 -0.6937 -0.5614
13131SOL    HW142539   8.052   6.549   7.697 -1.7011  0.0477  0.7776
13131SOL    HW242540   8.010   6.689   7.656  0.5849  0.3785 -0.6245
13132SOL     OW42541   6.542   4.712   7.503 -0.3709  0.0880 -0.2534
13132SOL    HW142542   6.549   4.740   7.412 -1.6471 -0.1022 -0.4358
13132SOL    HW242543   6.588   4.780   7.553  1.3087 -0.3669 -1.0975
13133SOL     OW42544   2.641   4.097   4.795 -1.0527  0.7176 -0.0423
13133SOL    HW142545   2.644   4.092   4.699 -1.1425 -1.5355  0.0022
13133SOL    HW242546   2.732   4.105   4.822 -1.1125  2.6086 -0.3203
13134SOL     OW42547   2.030   3.560   3.704 -0.0880  0.4012 -0.1280
13134SOL    HW142548   2.125   3.571   3.700  0.0444 -0.3408  0.5625
13134SOL    HW242549   1.998   3.590   3.619  0.5611  2.4165  0.2985
13135SOL     OW42550   6.163   1.244   0.436  0.4244  0.4860 -0.8335
13135SOL    HW142551   6.112   1.163   0.431 -0.3562  0.7769  1.2543
13135SOL    HW242552   6.189   1.250   0.528  0.7727  2.4225 -1.0148
13136SOL     OW42553   7.593   5.843   5.788 -0.0578 -0.8935  0.9068
13136SOL    HW142554   7.648   5.892   5.849 -0.6551  0.8846  0.1104
13136SOL    HW242555   7.633   5.860   5.702 -1.2373 -0.4102  0.4338
13137SOL     OW42556   0.017   0.785   6.543 -0.1688  0.4962 -0.5056
13137SOL    HW142557   0.070   0.808   6.619  0.0144 -1.5434  0.0532
13137SOL    HW242558   0.067   0.715   6.500 -0.7658  0.9149 -1.9215
13138SOL     OW42559   2.412   5.920   5.196  0.0848  0.3290  0.3536
13138SOL    HW142560   2.470   5.849   5.169  1.3517  1.7309 -0.8422
13138SOL    HW242561   2.412   5.917   5.292  1.2900 -0.3821  0.3466
13139SOL     OW42562   1.158   3.252   6.739 -0.3638  0.2878  0.0470
13139SOL    HW142563   1.251   3.271   6.731 -0.1491 -0.3395  0.8331
13139SOL    HW242564   1.131   3.299   6.818 -0.7857  0.7040 -0.3385
13140SOL     OW42565   1.365   5.020   3.152  0.1208 -0.3449  0.1085
13140SOL    HW142566   1.300   5.008   3.083  0.0731  0.3342  0.0249
13140SOL    HW242567   1.412   5.100   3.128  2.2372 -1.7660 -0.8011
13141SOL     OW42568   2.349   0.943   4.808  0.4092  0.5801 -0.0150
13141SOL    HW142569   2.321   0.960   4.898  1.4448  0.0622  0.4134
13141SOL    HW242570   2.282   0.986   4.754 -2.0149 -1.7520  0.9215
13142SOL     OW42571   5.973   7.201   0.443 -0.8760 -0.1059 -0.2817
13142SOL    HW142572   5.897   7.155   0.409  1.1328 -2.5448 -1.7791
13142SOL    HW242573   6.001   7.258   0.372 -0.5129 -0.2375 -0.2452
13143SOL     OW42574   0.731   6.445   4.174 -0.1297 -0.1906 -0.4648
13143SOL    HW142575   0.660   6.411   4.227  0.3725  1.0099  1.0404
13143SOL    HW242576   0.794   6.480   4.237  0.8315  0.6374 -1.8215
13144SOL     OW42577   6.183   6.135   4.593  0.0193  0.1028  0.7348
13144SOL    HW142578   6.170   6.093   4.508  1.7754  1.6655 -0.4016
13144SOL    HW242579   6.095   6.143   4.630 -0.8607 -0.1397 -1.1855
13145SOL     OW42580   6.496   0.016   1.089 -0.0673 -0.2773  0.5140
13145SOL    HW142581   6.447   0.082   1.139 -0.8439 -0.1586 -0.3630
13145SOL    HW242582   6.429  -0.045   1.060 -0.1181  1.0985 -2.6296
13146SOL     OW42583   6.888   0.114   4.440 -0.5666  0.5942  0.2962
13146SOL    HW142584   6.840   0.134   4.359  1.0636  0.4019 -0.7825
13146SOL    HW242585   6.896   0.019   4.440 -0.8434  0.5709  0.8603
13147SOL     OW42586   4.523   0.115   2.174  0.4917  0.1752 -0.1195
13147SOL    HW142587   4.504   0.208   2.170  1.6488  0.3992 -0.8110
13147SOL    HW242588   4.536   0.089   2.082  1.1376 -0.4552  0.1398
13148SOL     OW42589   0.428   4.997   7.206 -0.1983  0.0001 -0.2237
13148SOL    HW142590   0.463   4.909   7.219  4.5517  1.2859 -2.1126
13148SOL    HW242591   0.378   4.991   7.124  1.6189 -0.7245 -1.3541
13149SOL     OW42592   0.859   7.862   6.670  0.3410 -0.2937 -0.6648
13149SOL    HW142593   0.928   7.796   6.663  0.2648 -0.2683 -1.7931
13149SOL    HW242594   0.793   7.836   6.607 -1.7296 -1.4600  1.7949
13150SOL     OW42595   6.640   1.561   0.119  0.4668 -0.6394 -0.3600
13150SOL    HW142596   6.558   1.531   0.078 -0.6211  2.3623 -0.6622
13150SOL    HW242597   6.617   1.573   0.211  1.0113 -1.1497 -0.1558
13151SOL     OW42598   0.116   7.148   2.899  0.6392 -0.2190 -0.4571
13151SOL    HW142599   0.135   7.088   2.970  0.3214 -1.3609 -1.3111
13151SOL    HW242600   0.164   7.228   2.921 -0.9780  0.1765  2.0100
13152SOL     OW42601   2.363   2.062   4.021  0.2269  0.0360  0.0018
13152SOL    HW142602   2.395   2.082   3.933 -0.4217  0.7006 -0.0968
13152SOL    HW242603   2.358   2.147   4.065  0.2367 -0.2495  0.5745
13153SOL     OW42604   6.115   5.560   1.466  0.2753 -0.2888  0.2699
13153SOL    HW142605   6.031   5.536   1.505  0.1164 -2.0433 -1.0104
13153SOL    HW242606   6.094   5.632   1.407 -1.0713 -2.6087 -2.3574
13154SOL     OW42607   8.080   6.435   7.011  0.0417  0.4139  0.5906
13154SOL    HW142608   8.009   6.388   6.967 -1.9602  1.1482  2.7924
13154SOL    HW242609   8.127   6.368   7.060 -1.0041  0.2554  1.4225
13155SOL     OW42610   6.719   1.437   5.864 -0.6327 -0.2383  0.6860
13155SOL    HW142611   6.744   1.526   5.886 -1.3579  0.1731 -0.1074
13155SOL    HW242612   6.661   1.409   5.935 -2.0943  0.6924 -0.0923
13156SOL     OW42613   1.644   0.176   4.792  0.4587 -0.0871 -0.1520
13156SOL    HW142614   1.678   0.102   4.742 -2.0205 -1.4014 -0.0732
13156SOL    HW242615   1.589   0.224   4.730 -2.1163 -1.3567  0.9904
13157SOL     OW42616   5.999   7.487   6.687  0.0504  0.3222  0.4024
13157SOL    HW142617   5.926   7.470   6.629  0.5998  1.7330 -0.7405
13157SOL    HW242618   5.967   7.460   6.774 -1.5877  0.3530 -0.1598
13158SOL     OW42619   6.339   3.577   1.237  0.2925 -0.0906  0.3779
13158SOL    HW142620   6.279   3.581   1.311 -0.5912  0.1359 -0.3324
13158SOL    HW242621   6.382   3.662   1.235  0.4693 -0.1708  0.7499
13159SOL     OW42622   7.822   2.758   2.931 -0.3664  0.2918 -0.3939
13159SOL    HW142623   7.863   2.816   2.866  2.3685  0.8619  1.6486
13159SOL    HW242624   7.757   2.813   2.974  0.2807  1.0146 -0.3085
13160SOL     OW42625   2.690   2.589   1.334 -0.0580  0.5554 -0.0367
13160SOL    HW142626   2.625   2.522   1.315 -0.2710  0.6413  0.3687
13160SOL    HW242627   2.706   2.632   1.250 -1.8551  1.7037  0.1508
13161SOL     OW42628   6.338   3.898   3.548  0.0444 -0.1615 -0.1018
13161SOL    HW142629   6.345   3.813   3.505 -1.3365 -1.1715  1.5421
13161SOL    HW242630   6.333   3.878   3.641  1.6509  1.8717  0.5102
13162SOL     OW42631   5.796   5.550   6.946 -0.1929 -0.1529 -0.0888
13162SOL    HW142632   5.724   5.563   6.884  0.5332  1.6705 -0.6302
13162SOL    HW242633   5.866   5.606   6.912  1.2387 -1.3532  0.8032
13163SOL     OW42634   3.132   3.962   1.726 -0.6580 -0.3126 -0.6388
13163SOL    HW142635   3.204   3.903   1.750  0.8598  2.6927  3.4346
13163SOL    HW242636   3.062   3.939   1.787 -0.7830  0.6961 -0.3811
13164SOL     OW42637   2.609   2.974   7.373 -0.5106 -0.9290 -0.2895
13164SOL    HW142638   2.637   2.884   7.353 -1.1824 -1.4746  1.0923
13164SOL    HW242639   2.541   2.963   7.439 -1.3121  0.5670 -0.8432
13165SOL     OW42640   0.390   1.856   5.873  0.0627  0.3001 -0.3669
13165SOL    HW142641   0.315   1.807   5.839 -0.7447  1.0757  0.2606
13165SOL    HW242642   0.460   1.790   5.881 -0.4705 -0.3805 -1.1833
13166SOL     OW42643   6.165   0.881   5.871 -0.4058 -0.1951  0.8822
13166SOL    HW142644   6.100   0.816   5.898 -0.6478 -1.4056 -2.2184
13166SOL    HW242645   6.241   0.830   5.846 -0.3264  0.7137 -0.9111
13167SOL     OW42646   3.112   0.940   4.284  0.6605  0.0309 -0.1749
13167SOL    HW142647   3.030   0.946   4.235 -0.0929 -1.4790  0.8204
13167SOL    HW242648   3.132   0.846   4.286  1.7995  0.2687  0.5916
13168SOL     OW42649   0.171   2.373   3.398  0.1393  0.2790  1.4801
13168SOL    HW142650   0.147   2.461   3.428 -1.1344  0.3353  0.3972
13168SOL    HW242651   0.102   2.350   3.336  0.9547 -1.1248  1.0657
13169SOL     OW42652   2.933   2.991   2.320 -0.9466 -0.0300  0.2977
13169SOL    HW142653   2.985   2.982   2.241 -0.4190 -2.2245  0.8254
13169SOL    HW242654   2.943   3.083   2.345 -0.3785  0.4778 -1.6416
13170SOL     OW42655   0.173   4.371   2.420 -0.3476  0.1335  0.6415
13170SOL    HW142656   0.252   4.317   2.409 -0.2148  0.4776 -0.1838
13170SOL    HW242657   0.204   4.450   2.466  0.0036  0.7277 -0.5840
13171SOL     OW42658   1.822   4.769   5.239 -0.0167 -0.3635 -0.5514
13171SOL    HW142659   1.879   4.835   5.197  0.3144 -0.4684 -0.2691
13171SOL    HW242660   1.820   4.696   5.177  2.1129 -1.3759  0.4614
13172SOL     OW42661   3.861   5.280   4.113  1.1263  0.6907  0.0834
13172SOL    HW142662   3.951   5.247   4.123  0.6113 -0.6206  0.6334
13172SOL    HW242663   3.869   5.354   4.053  2.9172  2.1031  1.9150
13173SOL     OW42664   5.666   4.769   6.577 -0.2512 -0.0898  0.1750
13173SOL    HW142665   5.711   4.797   6.656 -0.6670  0.7014  0.1415
13173SOL    HW242666   5.582   4.816   6.578 -0.1503  0.1472 -0.8631
13174SOL     OW42667   4.088   5.904   7.302  0.2506  0.3238 -0.0462
13174SOL    HW142668   4.089   5.809   7.299 -0.0182  0.2409  1.5138
13174SOL    HW242669   4.070   5.925   7.394  0.1135  1.8759 -0.3947
13175SOL     OW42670   6.558   3.655   1.494 -0.3028  0.3370  0.4048
13175SOL    HW142671   6.537   3.569   1.458 -0.2673  0.2732  0.5365
13175SOL    HW242672   6.474   3.698   1.506 -0.3339  0.2396  0.5400
13176SOL     OW42673   0.458   1.736   1.185  0.1878 -0.0005 -0.2608
13176SOL    HW142674   0.552   1.718   1.180  0.2030  0.2100 -0.7881
13176SOL    HW242675   0.418   1.672   1.126  0.0991  0.6306 -0.8881
13177SOL     OW42676   6.770   7.039   1.496  0.0473  0.1730 -0.1950
13177SOL    HW142677   6.711   7.110   1.470 -0.1030  0.7230  1.5471
13177SOL    HW242678   6.835   7.035   1.425  0.0360  2.0159 -0.3547
13178SOL     OW42679   4.017   1.526   1.197 -0.0686  0.3030  0.3764
13178SOL    HW142680   3.957   1.509   1.270 -1.1661  1.8875 -0.1114
13178SOL    HW242681   4.061   1.608   1.220 -0.1497  0.6242 -0.5543
13179SOL     OW42682   1.681   1.478   4.116  0.0105 -0.2549  0.9626
13179SOL    HW142683   1.653   1.547   4.176  0.9215  0.8436  0.1801
13179SOL    HW242684   1.608   1.416   4.115 -0.9824  0.8521  1.4541
13180SOL     OW42685   5.763   5.587   6.338 -0.2786 -0.2435 -0.5010
13180SOL    HW142686   5.737   5.658   6.280 -0.4391  0.6930  0.6872
13180SOL    HW242687   5.680   5.546   6.364 -0.3189  0.2882  0.2330
13181SOL     OW42688   5.322   4.277   2.663  0.2836  0.6463  0.5296
13181SOL    HW142689   5.385   4.215   2.698 -0.0591  0.3897  0.7002
13181SOL    HW242690   5.242   4.226   2.651  0.0679  0.9968  0.4479
13182SOL     OW42691   5.024   1.394   3.502  0.3710 -0.1774 -0.5624
13182SOL    HW142692   4.951   1.456   3.491  1.1384  1.0182  0.7607
13182SOL    HW242693   5.101   1.450   3.511  0.8747 -1.1762  2.5850
13183SOL     OW42694   1.238   7.487   7.989 -0.0378 -0.2357 -0.8349
13183SOL    HW142695   1.312   7.476   7.928  1.9917  1.5162  1.1454
13183SOL    HW242696   1.274   7.537   8.062 -2.7319 -0.9784  1.1687
13184SOL     OW42697   0.309   6.226   5.018  0.3172  0.3482 -0.3698
13184SOL    HW142698   0.392   6.183   5.037  1.0474  1.3606 -1.2152
13184SOL    HW242699   0.306   6.233   4.922 -0.8718  0.0724 -0.3710
13185SOL     OW42700   5.137   3.948   0.496 -0.3210  0.8905  0.4692
13185SOL    HW142701   5.132   4.040   0.471 -2.5317  0.9122  0.7747
13185SOL    HW242702   5.093   3.902   0.424 -2.6066  0.4985  2.0067
13186SOL     OW42703   3.646   0.235   5.901 -0.1042  0.3709  0.1347
13186SOL    HW142704   3.605   0.319   5.921  0.2211  0.3911  0.7599
13186SOL    HW242705   3.679   0.204   5.985  1.3099  0.4382 -0.3770
13187SOL     OW42706   1.643   6.533   0.945  0.0382 -1.0383 -0.2456
13187SOL    HW142707   1.592   6.613   0.942 -0.2787 -1.2756 -1.8472
13187SOL    HW242708   1.620   6.493   1.029 -2.3131 -1.0788 -0.8652
13188SOL     OW42709   0.718   2.407   5.466 -0.7517  0.1203 -0.1748
13188SOL    HW142710   0.734   2.492   5.426  1.5647 -0.0609  0.1799
13188SOL    HW242711   0.793   2.394   5.524 -0.2973 -2.7322 -1.2162
13189SOL     OW42712   0.925   2.175   3.925  0.1043  0.1988  0.1132
13189SOL    HW142713   0.960   2.097   3.882 -0.3828  0.7967 -1.4376
13189SOL    HW242714   0.998   2.209   3.977  0.2620 -1.3694  0.9659
13190SOL     OW42715   2.995   3.591   0.348  0.5986  0.0465  0.0490
13190SOL    HW142716   2.958   3.564   0.433 -2.0170  1.9341 -0.3785
13190SOL    HW242717   3.029   3.679   0.363  2.4447 -0.5559 -0.3189
13191SOL     OW42718   4.027   7.131   2.113  1.0300  0.2354 -0.6099
13191SOL    HW142719   3.993   7.149   2.025 -2.2381 -0.8714  0.2567
13191SOL    HW242720   4.000   7.206   2.165  2.2930  0.5378 -0.3660
13192SOL     OW42721   3.548   2.106   7.540 -0.0239 -0.0571 -0.0996
13192SOL    HW142722   3.572   2.020   7.576 -0.7284  0.0829  0.7342
13192SOL    HW242723   3.607   2.168   7.582 -0.5898  0.0567  0.5560
13193SOL     OW42724   3.550   7.135   0.507 -0.1547  0.0907 -0.1935
13193SOL    HW142725   3.458   7.160   0.497 -0.2213  0.7792  1.7814
13193SOL    HW242726   3.548   7.060   0.566  0.6192  0.9065  0.8836
13194SOL     OW42727   1.364   4.728   6.595  0.1088 -0.1624 -0.7507
13194SOL    HW142728   1.383   4.807   6.545 -2.1995  0.1335 -1.2994
13194SOL    HW242729   1.448   4.684   6.605  1.4864  2.3907 -0.3291
13195SOL     OW42730   4.407   4.610   2.421  0.0153  0.0494 -0.3592
13195SOL    HW142731   4.350   4.639   2.351 -0.8247 -1.6268 -0.4110
13195SOL    HW242732   4.351   4.557   2.478  0.6983  1.2093  1.5240
13196SOL     OW42733   4.531   7.312   3.963 -0.1950  1.2318  0.2598
13196SOL    HW142734   4.579   7.235   3.935  0.4169  0.4839  3.0814
13196SOL    HW242735   4.505   7.356   3.881  0.4332 -1.3046 -1.3929
13197SOL     OW42736   7.097   3.311   3.101 -0.5594  0.4499  0.1751
13197SOL    HW142737   7.150   3.377   3.057  1.7138 -1.2264  0.2069
13197SOL    HW242738   7.114   3.230   3.052 -2.3513 -0.3726  0.8056
13198SOL     OW42739   4.319   0.969   0.019  0.2502  0.2784 -0.0584
13198SOL    HW142740   4.357   1.032  -0.043 -0.3788  0.6738 -0.0468
13198SOL    HW242741   4.225   0.976   0.006  0.1372 -0.0302  0.5677
13199SOL     OW42742   7.846   4.786   0.496 -0.0772  0.8720  0.2633
13199SOL    HW142743   7.908   4.778   0.568  0.0167  2.8615  0.4652
13199SOL    HW242744   7.761   4.798   0.539  0.0217  2.3842  0.1077
13200SOL     OW42745   4.210   4.381   1.635 -0.2516 -0.5909  0.1622
13200SOL    HW142746   4.162   4.298   1.640 -4.3342  1.5766  1.2944
13200SOL    HW242747   4.213   4.412   1.725  0.6348  0.7891 -0.3175
13201SOL     OW42748   1.542   4.627   5.123 -0.2999 -0.2262 -0.1300
13201SOL    HW142749   1.539   4.711   5.077 -0.3230  0.6790  1.4815
13201SOL    HW242750   1.519   4.647   5.213  2.7059 -1.4220  1.0319
13202SOL     OW42751   1.938   1.662   2.939 -0.0944  0.3749  0.1752
13202SOL    HW142752   1.924   1.644   2.846  1.7944 -1.2309  0.1306
13202SOL    HW242753   1.995   1.591   2.968  0.5138  1.6334  2.2266
13203SOL     OW42754   0.308   7.490   6.284  0.5729 -0.1676  1.0073
13203SOL    HW142755   0.240   7.439   6.239 -1.3700  2.7632  0.3224
13203SOL    HW242756   0.290   7.477   6.377 -2.5886  2.2292  0.9153
13204SOL     OW42757   3.690   7.494   5.590  0.6113 -0.6151  0.0776
13204SOL    HW142758   3.696   7.554   5.665 -2.6125 -0.7485  0.5776
13204SOL    HW242759   3.665   7.410   5.628  1.6076 -1.4159 -0.9507
13205SOL     OW42760   1.659   1.631   4.324 -0.3727  0.5256  0.3152
13205SOL    HW142761   1.749   1.662   4.335 -0.2203  0.3700 -0.4663
13205SOL    HW242762   1.606   1.710   4.324 -0.1658  0.6644  0.0757
13206SOL     OW42763   7.752   7.611   7.058  0.1525 -1.1617  0.0190
13206SOL    HW142764   7.741   7.648   7.146  2.8281 -0.5011  0.1901
13206SOL    HW242765   7.825   7.661   7.021 -0.7056 -1.6399 -2.4909
13207SOL     OW42766   7.700   5.866   4.508 -0.3748 -0.4019  0.0814
13207SOL    HW142767   7.717   5.882   4.415  0.7513 -0.6163  0.2378
13207SOL    HW242768   7.701   5.954   4.548 -0.8473 -0.3110 -0.1070
13208SOL     OW42769   0.684   1.689   7.314 -0.3429  0.1257  0.4149
13208SOL    HW142770   0.772   1.725   7.322 -0.7670  0.7790  3.2809
13208SOL    HW242771   0.696   1.595   7.326 -0.0106  0.1898  0.6124
13209SOL     OW42772   1.563   2.753   4.160 -0.0494 -0.0784  0.3463
13209SOL    HW142773   1.601   2.737   4.246  1.3980  0.8641 -0.0907
13209SOL    HW242774   1.468   2.750   4.175  0.1648  0.8129  2.1342
13210SOL     OW42775   3.982   6.697   1.994  0.0297  0.0843 -0.3015
13210SOL    HW142776   3.959   6.707   1.902 -0.1080  1.1540 -0.1700
13210SOL    HW242777   3.955   6.608   2.017 -0.2048 -0.0846 -1.2091
13211SOL     OW42778   5.209   5.634   6.820 -0.3564 -0.2348 -0.7288
13211SOL    HW142779   5.272   5.611   6.888 -0.0239 -0.5703 -1.1430
13211SOL    HW242780   5.241   5.717   6.784  0.1271 -0.6504 -1.2693
13212SOL     OW42781   3.580   6.449   8.077  0.0997 -0.0668  0.1212
13212SOL    HW142782   3.563   6.361   8.111 -0.3885 -0.1955 -0.4551
13212SOL    HW242783   3.506   6.468   8.020 -0.8053  1.4977  1.7188
13213SOL     OW42784   2.799   7.791   3.637  0.1442 -0.5745 -1.0991
13213SOL    HW142785   2.713   7.809   3.673 -0.3042 -1.6069 -1.5997
13213SOL    HW242786   2.860   7.825   3.702 -0.6368 -0.2596 -0.5123
13214SOL     OW42787   1.822   5.105   4.005  0.2009  0.0220  0.1261
13214SOL    HW142788   1.836   5.090   4.098  1.0509 -0.9710 -0.1477
13214SOL    HW242789   1.852   5.025   3.963 -1.1223  0.0541 -0.9344
13215SOL     OW42790   1.158   6.988   4.880  0.0544  0.4919  0.2334
13215SOL    HW142791   1.128   7.073   4.846  0.1299 -0.2632 -1.8532
13215SOL    HW242792   1.228   7.011   4.940 -0.1784  1.9477 -0.0035
13216SOL     OW42793   4.961   0.212   2.917 -0.1492  0.6703  0.0276
13216SOL    HW142794   4.870   0.185   2.930  0.3618 -0.3201  1.8910
13216SOL    HW242795   5.008   0.174   2.991  1.8716  0.7829 -1.1299
13217SOL     OW42796   6.382   1.417   5.404  0.0401 -0.2531 -0.1311
13217SOL    HW142797   6.356   1.481   5.471  0.0497 -0.1218 -0.2528
13217SOL    HW242798   6.330   1.339   5.424  1.5137 -0.9450  1.2946
13218SOL     OW42799   5.319   6.974   7.828 -0.5651 -0.0863  0.2202
13218SOL    HW142800   5.277   6.892   7.803 -0.5455  0.1281 -0.5491
13218SOL    HW242801   5.261   7.042   7.793  0.3061  0.2136 -0.6846
13219SOL     OW42802   7.420   0.390   6.939 -0.9894 -0.1330  0.5674
13219SOL    HW142803   7.451   0.407   7.028 -0.1463  1.1896  0.0542
13219SOL    HW242804   7.411   0.477   6.900 -0.6846 -0.7145 -0.8574
13220SOL     OW42805   7.895   6.542   3.837  0.4420 -0.3384 -0.3414
13220SOL    HW142806   7.966   6.606   3.831 -0.0182  0.5232  2.3154
13220SOL    HW242807   7.926   6.477   3.899 -1.8160  1.2559  2.7140
13221SOL     OW42808   1.494   0.462   6.779  0.3287  0.4663  0.6845
13221SOL    HW142809   1.422   0.498   6.729 -0.2634 -0.2787  0.9780
13221SOL    HW242810   1.510   0.526   6.849 -2.3080 -0.8342  2.6798
13222SOL     OW42811   4.305   7.443   0.998  0.4209  0.2361  0.2926
13222SOL    HW142812   4.387   7.482   0.967  0.6814  0.3996  1.1385
13222SOL    HW242813   4.314   7.350   0.979 -0.7723  0.6777 -2.9874
13223SOL     OW42814   7.100   2.792   4.022  0.1397 -0.0485 -0.4443
13223SOL    HW142815   7.123   2.715   3.971  1.0134 -1.5179  1.9971
13223SOL    HW242816   7.184   2.830   4.048 -0.1021 -1.3870  2.7108
13224SOL     OW42817   0.328   2.467   0.118 -0.1189 -0.1928 -0.6913
13224SOL    HW142818   0.368   2.419   0.190  0.4369  0.4185 -0.5757
13224SOL    HW242819   0.240   2.487   0.149  0.5024  1.1281  0.3665
13225SOL     OW42820   0.792   2.666   7.566  0.5446  0.0406 -0.8625
13225SOL    HW142821   0.841   2.746   7.583  1.0625 -0.0986 -1.6457
13225SOL    HW242822   0.835   2.626   7.491  1.0650 -1.5924  0.2297
13226SOL     OW42823   4.679   7.014   0.419  0.3132 -0.0252  0.3481
13226SOL    HW142824   4.742   7.049   0.356 -1.4421  0.4081 -1.2430
13226SOL    HW242825   4.599   7.064   0.403 -0.2948 -0.1474  2.7158
13227SOL     OW42826   4.899   2.876   5.547  0.3765  0.3494 -0.1715
13227SOL    HW142827   4.933   2.952   5.594 -1.4119  0.9580  0.1968
13227SOL    HW242828   4.840   2.834   5.609  0.6683 -0.8569 -0.6884
13228SOL     OW42829   6.835   6.712   1.050 -0.1463  0.5422 -0.3253
13228SOL    HW142830   6.820   6.618   1.040  0.2704  0.4997 -0.5672
13228SOL    HW242831   6.847   6.724   1.144  1.1127  0.1452 -0.4198
13229SOL     OW42832   4.144   0.931   3.384  0.2948  0.4789 -0.2770
13229SOL    HW142833   4.138   0.944   3.478  1.2395  0.2964 -0.1808
13229SOL    HW242834   4.226   0.973   3.359  0.8007 -0.7481 -0.7785
13230SOL     OW42835   0.756   3.509   3.125  0.4282  0.0778 -0.2697
13230SOL    HW142836   0.802   3.494   3.208 -2.0856  0.4691  1.3111
13230SOL    HW242837   0.722   3.598   3.133 -0.9997 -0.3627 -1.1051
13231SOL     OW42838   1.590   7.443   6.503 -0.5029 -0.5946 -0.0577
13231SOL    HW142839   1.603   7.375   6.436 -2.3704 -1.4861  0.4038
13231SOL    HW242840   1.495   7.456   6.505 -0.3143  0.8073  1.0792
13232SOL     OW42841   5.422   6.785   7.492  0.2196 -0.4635 -0.7045
13232SOL    HW142842   5.511   6.754   7.506  0.8463  1.2691 -0.6388
13232SOL    HW242843   5.411   6.857   7.554 -1.2199 -0.6203 -0.7443
13233SOL     OW42844   4.469   0.070   3.336  0.0913 -0.0255  0.0830
13233SOL    HW142845   4.553   0.090   3.294  0.5690  1.6085  1.6904
13233SOL    HW242846   4.415   0.147   3.321 -0.3176 -0.1111  1.0006
13234SOL     OW42847   0.617   1.757   3.332 -0.0539  0.2733  0.1439
13234SOL    HW142848   0.695   1.809   3.353  0.0132 -0.1029  0.8578
13234SOL    HW242849   0.624   1.680   3.388 -1.4711  0.7315  0.9759
13235SOL     OW42850   1.944   1.614   1.988  0.1765 -0.0383  0.0269
13235SOL    HW142851   2.037   1.635   1.977 -0.0075  0.1903 -1.1745
13235SOL    HW242852   1.940   1.519   1.975 -0.0771  0.2440 -2.5854
13236SOL     OW42853   0.018   4.273   6.893  0.1683  0.2350  0.6380
13236SOL    HW142854   0.113   4.279   6.882  0.0531 -0.4507 -1.0837
13236SOL    HW242855  -0.000   4.179   6.902 -0.3333  0.3746  1.1487
13237SOL     OW42856   6.887   0.272   3.455 -0.4384  0.6240  0.3285
13237SOL    HW142857   6.905   0.184   3.487  1.3053  1.1147  0.8132
13237SOL    HW242858   6.913   0.271   3.363 -2.4026  0.1012 -0.2714
13238SOL     OW42859   1.345   5.594   6.020  0.5717  0.3563  0.6533
13238SOL    HW142860   1.306   5.522   6.069 -0.6676  1.0154  0.6751
13238SOL    HW242861   1.270   5.641   5.983  1.2102  2.8685  2.3422
13239SOL     OW42862   2.051   0.929   5.780 -0.3991  0.2672  0.5457
13239SOL    HW142863   2.016   0.840   5.774 -2.3426  1.0369 -0.3008
13239SOL    HW242864   2.067   0.942   5.874  0.2791 -1.0769  0.6374
13240SOL     OW42865   3.572   1.353   6.164 -0.6228 -0.3032 -0.9132
13240SOL    HW142866   3.498   1.390   6.116 -1.8701  0.4152  1.3770
13240SOL    HW242867   3.532   1.292   6.226  0.8618 -1.0236 -0.6196
13241SOL     OW42868   0.887   5.289   6.021  0.3798 -0.0586  0.2992
13241SOL    HW142869   0.862   5.199   5.997 -0.5049 -0.5910  2.9289
13241SOL    HW242870   0.900   5.333   5.937 -2.0467 -1.8412 -1.1345
13242SOL     OW42871   0.980   2.656   7.831  0.3103 -0.2989 -0.5663
13242SOL    HW142872   0.890   2.641   7.860  0.4511 -0.0727 -0.0092
13242SOL    HW242873   1.030   2.584   7.870  0.7622  0.8358  1.0360
13243SOL     OW42874   7.860   2.420   1.120  0.4977 -0.5687 -0.0459
13243SOL    HW142875   7.787   2.361   1.104  0.6572 -1.1878  1.3563
13243SOL    HW242876   7.827   2.506   1.094 -0.5322 -0.9225  0.0503
13244SOL     OW42877   5.513   6.329   2.726  0.2051  0.0780  0.3878
13244SOL    HW142878   5.485   6.287   2.807 -1.3325  0.5816  0.1590
13244SOL    HW242879   5.571   6.400   2.755 -2.1078  1.7406  1.3140
13245SOL     OW42880   7.746   1.969   3.689 -0.4709  0.0849  0.0097
13245SOL    HW142881   7.751   2.057   3.650 -0.7005  0.3549  0.5837
13245SOL    HW242882   7.836   1.947   3.710 -0.3877  0.0945 -0.3322
13246SOL     OW42883   0.066   5.560   1.711 -0.4449  0.7651  0.0674
13246SOL    HW142884   0.141   5.540   1.656  0.2943  0.5218  1.1347
13246SOL    HW242885   0.103   5.597   1.791 -1.5057  1.3733  0.2972
13247SOL     OW42886   1.692   7.359   1.484  0.7458 -0.5477 -0.0130
13247SOL    HW142887   1.719   7.273   1.451 -0.1421 -1.0992  0.6555
13247SOL    HW242888   1.641   7.397   1.412 -0.9589 -1.6367  0.5464
13248SOL     OW42889   2.400   7.252   1.057 -0.2742 -0.3601 -0.3681
13248SOL    HW142890   2.307   7.253   1.080  0.0184 -1.5105  1.0274
13248SOL    HW242891   2.402   7.277   0.965 -1.9621 -0.2740 -0.4189
13249SOL     OW42892   7.697   5.903   7.332  0.1464 -0.2903 -0.2064
13249SOL    HW142893   7.715   5.960   7.257 -0.2183 -0.0136 -0.0887
13249SOL    HW242894   7.602   5.904   7.341  0.2303  0.4467  0.8409
13250SOL     OW42895   0.973   3.349   2.086 -0.2180 -0.3583 -0.1428
13250SOL    HW142896   0.992   3.320   2.175  0.2091 -0.2165 -0.1850
13250SOL    HW242897   1.020   3.287   2.030  1.5745  0.9917 -0.2186
13251SOL     OW42898   3.608   0.383   3.523  0.3253  0.0624  0.6048
13251SOL    HW142899   3.628   0.476   3.508 -0.3645  0.2128  0.5877
13251SOL    HW242900   3.522   0.371   3.483  1.1111 -0.9762 -0.8483
13252SOL     OW42901   0.052   6.404   4.896 -0.4448  0.6618  0.3606
13252SOL    HW142902  -0.008   6.336   4.927 -1.1293  0.4024 -1.3688
13252SOL    HW242903   0.121   6.355   4.852 -0.2926  1.0387  0.1798
13253SOL     OW42904   5.829   4.873   6.370  0.1715 -0.0780 -1.0261
13253SOL    HW142905   5.777   4.863   6.290 -0.1488 -2.1426 -0.6099
13253SOL    HW242906   5.771   4.845   6.440 -0.1252  3.2461  0.2297
13254SOL     OW42907   7.337   2.022   3.374 -1.0569 -0.0886  0.6103
13254SOL    HW142908   7.321   2.055   3.463 -0.1691 -0.1766  0.8132
13254SOL    HW242909   7.331   2.099   3.318 -1.0978  0.0558  0.8115
13255SOL     OW42910   0.329   7.840   7.076  0.3464  0.8963 -0.5179
13255SOL    HW142911   0.367   7.928   7.086 -1.1123  1.4573  0.4666
13255SOL    HW242912   0.242   7.847   7.114 -0.2677 -0.6888 -1.5343
13256SOL     OW42913   8.009   0.449   0.661 -0.1060 -0.0327 -0.2706
13256SOL    HW142914   8.028   0.521   0.721  1.1702 -1.0008  0.5376
13256SOL    HW242915   7.939   0.400   0.704 -1.5907  1.1637 -1.2319
13257SOL     OW42916   0.596   3.171   2.236 -0.4053 -0.1545 -0.3534
13257SOL    HW142917   0.661   3.188   2.304  0.8400  2.7039 -2.0675
13257SOL    HW242918   0.517   3.149   2.284  0.6230  0.8857  2.0092
13258SOL     OW42919   3.838   8.058   7.202 -0.3666  0.6154  0.2542
13258SOL    HW142920   3.879   8.131   7.249  2.1351 -1.1170  0.9399
13258SOL    HW242921   3.902   7.987   7.206 -2.5322 -1.5475 -0.6951
13259SOL     OW42922   0.087   0.199   4.441 -0.4141  0.0386 -0.0070
13259SOL    HW142923   0.145   0.208   4.366  0.2117 -1.0294  0.3153
13259SOL    HW242924   0.062   0.288   4.464  0.2021  0.4392 -0.8541
13260SOL     OW42925   3.459   6.260   2.472  0.6944 -0.1712 -0.4664
13260SOL    HW142926   3.416   6.210   2.403  0.7283  0.1876 -0.7483
13260SOL    HW242927   3.508   6.328   2.426 -0.2213  0.7935 -0.0436
13261SOL     OW42928   0.048   3.078   6.086  0.6188 -0.1826  0.3947
13261SOL    HW142929  -0.038   3.103   6.054  0.1810 -1.4296  0.5070
13261SOL    HW242930   0.060   2.988   6.054  0.6746 -1.0476  2.6319
13262SOL     OW42931   2.793   4.711   3.550 -0.0666 -0.0845 -0.1086
13262SOL    HW142932   2.788   4.801   3.583 -0.0988 -0.1733  0.1264
13262SOL    HW242933   2.705   4.677   3.564  0.6796 -1.1313  2.5416
13263SOL     OW42934   4.050   6.562   3.637 -0.1149  0.3364 -0.1308
13263SOL    HW142935   3.989   6.489   3.621 -0.7073  0.5622  1.0326
13263SOL    HW242936   3.994   6.640   3.634  1.0362  1.4552 -6.0005
13264SOL     OW42937   3.383   5.214   0.654 -0.2258  0.2386  0.8583
13264SOL    HW142938   3.476   5.201   0.670 -0.0643  1.3681  0.9408
13264SOL    HW242939   3.379   5.281   0.586 -0.9688  1.8665  2.4321
13265SOL     OW42940   3.261   1.200   1.847 -0.4409  0.4283 -0.1217
13265SOL    HW142941   3.291   1.132   1.786 -0.3391  0.0388  0.3526
13265SOL    HW242942   3.252   1.154   1.930  0.3153  1.1544  0.3759
13266SOL     OW42943   7.063   3.653   2.692  0.3203  0.3212  0.4154
13266SOL    HW142944   7.095   3.624   2.607  0.2569 -0.7584  0.7437
13266SOL    HW242945   7.041   3.572   2.739 -2.1218  0.9415  0.5063
13267SOL     OW42946   6.670   4.117   6.092  0.2910  0.2404  0.6479
13267SOL    HW142947   6.589   4.095   6.137 -0.0482 -0.5629 -0.3022
13267SOL    HW242948   6.675   4.054   6.020  3.4235 -1.9462  2.5369
13268SOL     OW42949   1.780   2.148   4.482  0.7390 -0.2994  0.2813
13268SOL    HW142950   1.865   2.126   4.445  0.7484 -0.2715  0.2856
13268SOL    HW242951   1.781   2.111   4.570  0.9841  0.2247  0.5034
13269SOL     OW42952   0.875   6.910   6.509 -0.0010 -0.3924  0.3228
13269SOL    HW142953   0.962   6.951   6.510 -0.4281  0.5498  1.0538
13269SOL    HW242954   0.876   6.852   6.585  0.2828 -1.0548 -0.1782
13270SOL     OW42955   0.759   5.810   7.533  0.1428  0.1249  0.3415
13270SOL    HW142956   0.720   5.848   7.454 -0.6994  0.2530  0.7979
13270SOL    HW242957   0.744   5.877   7.601 -1.6151 -1.0965  1.2318
13271SOL     OW42958   1.991   3.194   6.721  0.2080 -0.0540  0.0614
13271SOL    HW142959   2.085   3.175   6.728  0.1916  0.4200  2.3246
13271SOL    HW242960   1.985   3.262   6.654  1.5772  0.3976  0.3662
13272SOL     OW42961   3.794   2.768   5.694 -0.1977  0.5019 -0.5835
13272SOL    HW142962   3.829   2.779   5.606 -0.2421  1.2877 -0.5157
13272SOL    HW242963   3.739   2.690   5.689  1.8057 -0.9848 -0.6064
13273SOL     OW42964   7.140   0.936   7.519  0.4246 -0.0648  0.5344
13273SOL    HW142965   7.108   0.867   7.460 -0.9476 -0.0123  1.1827
13273SOL    HW242966   7.095   0.919   7.602 -0.7837  2.2041  0.4357
13274SOL     OW42967   7.206   1.460   5.726 -0.7273  0.4611 -0.0512
13274SOL    HW142968   7.116   1.427   5.733 -0.1887 -0.7382  1.9360
13274SOL    HW242969   7.258   1.383   5.705  0.0338  0.8336  0.4456
13275SOL     OW42970   0.185   0.426   7.468  0.4033  0.1645 -0.4335
13275SOL    HW142971   0.212   0.468   7.387  0.0629 -0.4539 -0.8681
13275SOL    HW242972   0.177   0.334   7.447 -0.4897  0.1077  0.0883
13276SOL     OW42973   6.141   0.658   0.967 -0.1219  0.2144  0.4892
13276SOL    HW142974   6.100   0.595   1.026 -2.1337 -0.1298 -1.1462
13276SOL    HW242975   6.105   0.743   0.993 -1.2144  0.0295 -0.3598
13277SOL     OW42976   7.245   4.310   7.495  0.3433 -0.2826  0.7223
13277SOL    HW142977   7.294   4.234   7.527  2.1109  0.1084 -0.8513
13277SOL    HW242978   7.312   4.368   7.459 -1.1606  1.0255 -0.0926
13278SOL     OW42979   4.919   6.405   2.509 -0.2258  0.5304  0.5091
13278SOL    HW142980   4.912   6.310   2.514  1.6047  0.2951 -0.5918
13278SOL    HW242981   4.828   6.436   2.515 -1.1589 -1.4479 -1.6602
13279SOL     OW42982   4.926   1.301   5.794  0.0001 -0.3580  0.3822
13279SOL    HW142983   4.921   1.387   5.751 -0.7343 -1.0524 -0.9615
13279SOL    HW242984   4.998   1.311   5.857 -0.8538  1.6238  1.1544
13280SOL     OW42985   6.915   1.956   2.236  0.1745  0.1351 -0.8550
13280SOL    HW142986   6.943   1.868   2.212 -0.1645 -0.7322  1.6958
13280SOL    HW242987   6.992   1.996   2.275 -0.4495 -0.1819  0.8041
13281SOL     OW42988   1.661   1.143   4.180  0.3110  0.6565 -0.3807
13281SOL    HW142989   1.580   1.093   4.185 -1.0588  2.6002 -1.5793
13281SOL    HW242990   1.728   1.079   4.154 -0.3274 -1.4008  2.5386
13282SOL     OW42991   5.690   3.994   3.159  0.2018 -0.5945 -0.4733
13282SOL    HW142992   5.601   4.012   3.189  0.4566 -0.1688  0.0619
13282SOL    HW242993   5.680   3.930   3.089 -0.5766 -0.0486 -0.8818
13283SOL     OW42994   0.382   0.889   6.473 -0.0775  0.1446  0.3925
13283SOL    HW142995   0.408   0.798   6.482 -0.0623 -0.0093 -0.9784
13283SOL    HW242996   0.288   0.886   6.460 -0.1613  0.3732  0.9334
13284SOL     OW42997   7.752   1.364   3.143 -0.0168 -0.3008  0.1994
13284SOL    HW142998   7.783   1.313   3.218  0.2637 -0.1904  0.1601
13284SOL    HW242999   7.816   1.346   3.074 -0.1828 -0.2723  0.0377
13285SOL     OW43000   1.334   3.012   3.396  0.4770  0.3439 -0.1983
13285SOL    HW143001   1.397   3.069   3.351  1.0046 -0.6680 -0.7656
13285SOL    HW243002   1.256   3.016   3.342 -0.1544  2.0050  0.7770
13286SOL     OW43003   4.917   6.606   7.033 -0.2330  0.3273  0.4506
13286SOL    HW143004   4.993   6.661   7.050  0.0481  1.0779 -2.6263
13286SOL    HW243005   4.953   6.518   7.021  0.0078  0.4751  0.0884
13287SOL     OW43006   5.762   5.847   4.532  0.2294 -0.3987  0.0889
13287SOL    HW143007   5.668   5.836   4.518 -0.0410  0.2027  1.3524
13287SOL    HW243008   5.770   5.926   4.586  1.3769 -1.1329  1.0396
13288SOL     OW43009   0.457   0.773   1.457  0.5828 -0.0797 -0.8318
13288SOL    HW143010   0.465   0.866   1.478  0.8109 -0.1234 -0.7242
13288SOL    HW243011   0.545   0.738   1.467  0.2235 -0.6285  0.6233
13289SOL     OW43012   6.254   1.283   4.770  0.0902 -0.1538  0.0706
13289SOL    HW143013   6.172   1.274   4.820 -0.3484  1.3798 -0.3097
13289SOL    HW243014   6.323   1.258   4.831 -0.4716  1.2377  1.3283
13290SOL     OW43015   1.125   4.869   6.046 -0.3410  0.0997  0.6284
13290SOL    HW143016   1.121   4.962   6.068 -0.0685  0.5686 -1.0922
13290SOL    HW243017   1.217   4.854   6.021 -0.3124 -0.7066  1.1915
13291SOL     OW43018   7.610   4.802   0.838 -0.6472  0.3168  0.4275
13291SOL    HW143019   7.621   4.720   0.789 -0.1465  0.8733 -0.4094
13291SOL    HW243020   7.517   4.824   0.827 -0.1295  1.6008 -2.2341
13292SOL     OW43021   5.143   5.813   3.462 -0.2368 -0.1380  0.3962
13292SOL    HW143022   5.072   5.853   3.513  0.2643 -0.4360  1.3478
13292SOL    HW243023   5.106   5.803   3.374 -1.0391  0.6018  0.6286
13293SOL     OW43024   1.667   6.893   5.324  0.4835 -0.2300  0.4083
13293SOL    HW143025   1.673   6.988   5.314  1.2399 -0.4180 -1.2211
13293SOL    HW243026   1.612   6.864   5.252  1.4973 -1.1595 -0.0228
13294SOL     OW43027   0.657   5.109   7.113  0.4401  0.4984 -0.2838
13294SOL    HW143028   0.577   5.083   7.159  0.8012  0.7207  0.4998
13294SOL    HW243029   0.713   5.031   7.118 -0.1287 -0.0347 -1.8014
13295SOL     OW43030   8.039   3.281   3.083  0.1045 -0.6450  0.1197
13295SOL    HW143031   8.102   3.342   3.122 -1.7147  0.3830  1.6022
13295SOL    HW243032   8.060   3.282   2.990  1.3298  0.8188  0.3613
13296SOL     OW43033   6.039   1.640   6.153  0.4617 -0.2315  0.0723
13296SOL    HW143034   6.053   1.631   6.059 -1.1353  1.1094 -0.3340
13296SOL    HW243035   6.014   1.731   6.166  0.3084 -0.4703  1.7610
13297SOL     OW43036   4.730   2.848   0.975  0.1103 -0.3808 -0.1177
13297SOL    HW143037   4.722   2.788   0.901 -1.1850  0.7865 -0.9773
13297SOL    HW243038   4.640   2.866   1.001  0.5407 -1.0608  2.0296
13298SOL     OW43039   4.339   0.166   4.859  0.0957  0.1096 -0.5653
13298SOL    HW143040   4.290   0.183   4.778 -1.1366  0.2080  0.1729
13298SOL    HW243041   4.425   0.136   4.829 -0.2865  0.2747 -1.9085
13299SOL     OW43042   0.946   7.970   1.224  0.6603 -0.1276 -0.3863
13299SOL    HW143043   0.886   7.993   1.295  1.5866  0.1776  0.3206
13299SOL    HW243044   0.965   8.054   1.182 -0.2884 -0.3719 -1.3453
13300SOL     OW43045   0.058   1.262   6.902  0.0532 -0.0523 -0.3227
13300SOL    HW143046   0.055   1.176   6.942 -0.1607 -0.4716 -1.2073
13300SOL    HW243047   0.107   1.249   6.821 -1.6994  0.2007 -1.4923
13301SOL     OW43048   2.406   4.773   2.072 -0.2329 -0.7877 -0.0771
13301SOL    HW143049   2.449   4.694   2.037  0.5364  0.2608 -1.6157
13301SOL    HW243050   2.364   4.813   1.996  0.4190  0.9289  0.4188
13302SOL     OW43051   7.156   6.365   0.474  0.1219  0.3064 -0.3986
13302SOL    HW143052   7.120   6.448   0.443 -0.0284 -0.0390 -1.1695
13302SOL    HW243053   7.146   6.305   0.400 -0.0554 -0.4900  0.2534
13303SOL     OW43054   7.563   6.987   4.630  0.1343  0.6316 -0.0945
13303SOL    HW143055   7.652   7.023   4.624  0.5454 -0.3672 -0.3301
13303SOL    HW243056   7.506   7.061   4.612  0.9921  0.6173 -3.7735
13304SOL     OW43057   2.244   7.949   2.241 -0.0557 -0.3205 -0.0869
13304SOL    HW143058   2.304   7.932   2.314  1.0993  0.8442 -0.7269
13304SOL    HW243059   2.252   8.042   2.225 -1.7349 -0.2075 -0.5067
13305SOL     OW43060   5.813   6.615   6.812 -0.2951 -0.2048  0.5818
13305SOL    HW143061   5.876   6.661   6.756  0.0506 -1.6650 -0.2829
13305SOL    HW243062   5.746   6.584   6.752 -0.7884 -0.3875  1.2244
13306SOL     OW43063   1.674   1.845   5.895  0.0686 -0.7314 -0.1977
13306SOL    HW143064   1.748   1.833   5.835 -0.5280 -0.3478 -1.0334
13306SOL    HW243065   1.660   1.939   5.896  0.4637 -0.6685  1.0558
13307SOL     OW43066   6.919   7.878   4.352 -0.3240 -0.2640  0.3015
13307SOL    HW143067   6.855   7.900   4.284 -1.1992 -3.8236 -0.2238
13307SOL    HW243068   7.004   7.900   4.313 -0.9722  0.3068 -0.8253
13308SOL     OW43069   4.597   6.653   1.620 -0.5005  0.1534  0.2513
13308SOL    HW143070   4.506   6.682   1.621 -0.5820  0.1480  3.5185
13308SOL    HW243071   4.593   6.563   1.653  0.4337 -1.3216 -3.1702
13309SOL     OW43072   5.476   0.072   1.489 -0.5955 -0.5002 -0.1297
13309SOL    HW143073   5.399   0.062   1.545  0.2061  0.8597  1.2867
13309SOL    HW243074   5.522  -0.012   1.497 -1.9769 -1.3809 -1.1148
13310SOL     OW43075   2.140   1.975   5.619  0.6922 -0.2748  0.0519
13310SOL    HW143076   2.054   1.959   5.580  0.6143 -0.5128  0.3161
13310SOL    HW243077   2.136   2.066   5.651 -1.0266 -1.4987  3.9182
13311SOL     OW43078   3.186   7.023   5.448 -0.0633 -1.3342 -0.2080
13311SOL    HW143079   3.173   7.063   5.534  0.1819 -1.2794 -0.1941
13311SOL    HW243080   3.105   7.042   5.400  0.3571 -0.1165 -0.4713
13312SOL     OW43081   0.815   2.254   3.477  0.7421  0.1537 -0.2798
13312SOL    HW143082   0.881   2.206   3.428  1.9708 -0.4188  1.8350
13312SOL    HW243083   0.734   2.239   3.428  2.0284  0.4755 -2.6709
13313SOL     OW43084   3.873   3.432   6.684  0.1800  0.1263 -0.5485
13313SOL    HW143085   3.876   3.355   6.741  1.6465  0.7779  0.3211
13313SOL    HW243086   3.933   3.412   6.612 -1.8405 -0.7854 -2.0637
13314SOL     OW43087   1.603   4.839   1.651 -0.0156  0.0886 -0.1155
13314SOL    HW143088   1.685   4.824   1.603  0.5022  0.4704  0.6286
13314SOL    HW243089   1.624   4.817   1.742 -0.5421  0.8293  0.1997
13315SOL     OW43090   6.686   0.261   4.003  0.3304  0.5000 -0.0061
13315SOL    HW143091   6.719   0.222   3.922  0.0408 -1.1042  0.6211
13315SOL    HW243092   6.625   0.329   3.974  0.3941  0.0918 -1.1318
13316SOL     OW43093   2.173   5.896   2.011 -0.0928 -0.6691  0.4740
13316SOL    HW143094   2.110   5.862   1.948 -0.0555  0.3119 -0.1175
13316SOL    HW243095   2.154   5.850   2.093 -0.8353 -1.1848  0.0158
13317SOL     OW43096   2.812   6.747   4.075 -0.1318 -0.0316  0.2312
13317SOL    HW143097   2.784   6.757   4.166 -0.9413 -1.0596  0.1158
13317SOL    HW243098   2.743   6.789   4.024  0.4677  0.8025  0.0915
13318SOL     OW43099   3.378   1.815   7.001  0.2803 -0.3585 -0.2668
13318SOL    HW143100   3.326   1.738   6.978  2.4372 -1.9494 -0.2466
13318SOL    HW243101   3.424   1.838   6.921 -0.1736  0.8015 -0.2101
13319SOL     OW43102   7.378   6.927   7.010 -0.3739 -0.6426  0.7841
13319SOL    HW143103   7.338   6.967   7.088 -1.8634  2.1544 -1.2312
13319SOL    HW243104   7.461   6.973   7.000 -0.8494  0.0662 -0.0331
13320SOL     OW43105   2.121   4.148   7.317 -0.6347 -0.1744 -0.4970
13320SOL    HW143106   2.031   4.138   7.347 -0.5566 -1.4013 -0.6246
13320SOL    HW243107   2.120   4.116   7.227  0.1822 -1.5335 -0.0676
13321SOL     OW43108   2.509   4.666   1.693  0.3659 -0.1373 -0.1307
13321SOL    HW143109   2.519   4.688   1.600  0.7247  3.0362  0.5438
13321SOL    HW243110   2.589   4.699   1.734  0.0963 -1.2306  1.3761
13322SOL     OW43111   7.482   0.495   6.268  0.1112  0.0169 -0.4042
13322SOL    HW143112   7.522   0.441   6.201  1.1112 -0.1928  0.3380
13322SOL    HW243113   7.488   0.443   6.348  0.0033  0.7388  0.0829
13323SOL     OW43114   4.979   3.417   7.825 -0.6605 -0.5544  0.1201
13323SOL    HW143115   5.074   3.418   7.836 -0.5321 -0.7172 -0.8827
13323SOL    HW243116   4.965   3.431   7.731 -1.6369 -0.2804  0.2898
13324SOL     OW43117   1.740   1.068   0.716 -0.7255 -0.0291 -0.0518
13324SOL    HW143118   1.726   1.115   0.634  0.5558  1.9244  0.7775
13324SOL    HW243119   1.802   1.122   0.765 -1.0974 -1.3570  2.0311
13325SOL     OW43120   7.910   4.502   1.294 -0.5775  0.4515 -0.0000
13325SOL    HW143121   7.958   4.419   1.298 -0.5033  0.5208  3.7250
13325SOL    HW243122   7.850   4.499   1.369 -0.5080  3.7983  0.3425
13326SOL     OW43123   1.639   0.758   7.491  0.2664  0.0916 -0.2123
13326SOL    HW143124   1.602   0.756   7.580  0.9693  0.6661  0.1026
13326SOL    HW243125   1.596   0.833   7.449  1.2742  0.9639  0.2616
13327SOL     OW43126   1.801   4.587   2.160 -0.1381  0.1142 -0.1264
13327SOL    HW143127   1.826   4.617   2.247  0.9021 -0.2778 -0.2705
13327SOL    HW243128   1.834   4.497   2.156  2.4511  0.9962 -1.9064
13328SOL     OW43129   0.155   5.305   0.709  0.1738  0.2016  0.0244
13328SOL    HW143130   0.177   5.310   0.802 -0.9392  1.6269  0.2399
13328SOL    HW243131   0.215   5.367   0.667  0.6134 -0.3736 -0.2264
13329SOL     OW43132   5.560   0.893   7.088  0.0932 -0.0248  0.1803
13329SOL    HW143133   5.477   0.891   7.137 -0.5619  0.1308 -0.8851
13329SOL    HW243134   5.591   0.983   7.098 -1.9278  1.1259 -2.6489
13330SOL     OW43135   4.565   1.300   2.579 -0.2398  0.1591  0.2334
13330SOL    HW143136   4.501   1.234   2.607  0.0486 -0.2417 -0.0349
13330SOL    HW243137   4.524   1.384   2.600 -0.0378 -0.1112  1.8932
13331SOL     OW43138   1.988   7.047   5.333  1.0125 -0.7157 -0.0703
13331SOL    HW143139   1.991   6.979   5.401  1.9827 -0.4361  0.1816
13331SOL    HW243140   2.073   7.092   5.340 -0.0924  1.3823  0.6526
13332SOL     OW43141   3.001   0.051   0.840 -0.5077 -0.0585 -0.3070
13332SOL    HW143142   3.060   0.042   0.915 -0.4633  0.7722 -0.2386
13332SOL    HW243143   3.022  -0.025   0.785  0.3168 -0.0166 -0.0689
13333SOL     OW43144   2.949   7.488   3.158 -0.4056 -0.0586 -0.2254
13333SOL    HW143145   2.882   7.453   3.219 -0.8072 -0.5736 -0.9463
13333SOL    HW243146   2.966   7.576   3.190  0.7621 -0.9423  1.7720
13334SOL     OW43147   7.858   4.987   2.998  0.1566 -0.4681  0.0822
13334SOL    HW143148   7.880   4.913   2.942 -0.5725  1.1433 -2.4933
13334SOL    HW243149   7.767   4.970   3.024  0.4167 -1.0938  0.6323
13335SOL     OW43150   1.135   3.727   0.182  0.0598 -0.0353  0.2399
13335SOL    HW143151   1.167   3.727   0.092 -0.7541  0.5803 -0.0526
13335SOL    HW243152   1.185   3.797   0.225  0.2051 -0.1048  0.1868
13336SOL     OW43153   2.937   0.942   7.021  0.0877 -0.2983 -0.2341
13336SOL    HW143154   2.945   0.920   6.929  1.8068 -1.2976  0.1092
13336SOL    HW243155   3.027   0.942   7.054 -0.5008 -0.2216  1.4927
13337SOL     OW43156   6.680   0.978   2.766  0.4415 -0.2271  0.0917
13337SOL    HW143157   6.692   1.045   2.834  0.2328 -1.1134  1.0339
13337SOL    HW243158   6.587   0.959   2.767  0.8249 -2.5531  1.8996
13338SOL     OW43159   1.131   2.798   7.239 -1.0557  0.0065  0.1087
13338SOL    HW143160   1.104   2.850   7.163 -1.5019  0.3740  0.5140
13338SOL    HW243161   1.214   2.760   7.213 -0.3553  1.4938  0.0558
13339SOL     OW43162   1.103   6.567   3.939 -0.3461 -0.2189 -0.4519
13339SOL    HW143163   1.078   6.608   4.021  0.2493  0.9695 -0.8510
13339SOL    HW243164   1.043   6.492   3.931 -0.1714 -0.5837  1.2257
13340SOL     OW43165   7.722   5.063   0.676  0.0005 -0.1517 -0.9111
13340SOL    HW143166   7.705   5.027   0.763  0.7869  1.3231 -0.1133
13340SOL    HW243167   7.638   5.056   0.631 -0.4731 -0.7478  0.0305
13341SOL     OW43168   1.165   4.357   1.680 -0.3485 -0.8744  0.0170
13341SOL    HW143169   1.242   4.369   1.625  0.5743 -3.6528  0.5574
13341SOL    HW243170   1.104   4.425   1.651  1.7722  0.5660 -1.3346
13342SOL     OW43171   7.966   5.835   6.157  0.4856  0.1460 -0.1392
13342SOL    HW143172   7.997   5.757   6.110  0.3124 -0.0973  0.1463
13342SOL    HW243173   7.997   5.822   6.246 -0.0079  0.1448  0.0326
13343SOL     OW43174   3.880   2.400   0.738  0.4330 -0.1377 -0.1205
13343SOL    HW143175   3.907   2.310   0.757  1.0214  0.0604 -0.0100
13343SOL    HW243176   3.953   2.437   0.688 -0.4898 -0.2225 -1.6065
13344SOL     OW43177   2.043   6.771   7.958 -0.2929 -0.1783 -0.2849
13344SOL    HW143178   2.056   6.766   7.864 -0.8530 -2.8963 -0.3075
13344SOL    HW243179   2.131   6.789   7.994  0.4871 -1.9146 -1.2143
13345SOL     OW43180   3.077   2.274   6.863 -0.0356  0.3133  0.0586
13345SOL    HW143181   3.154   2.325   6.889  0.1800  0.0064  0.0319
13345SOL    HW243182   3.110   2.184   6.855 -0.8615 -0.2127  2.1635
13346SOL     OW43183   1.938   5.701   6.018  0.4923  0.3942  0.1562
13346SOL    HW143184   1.962   5.716   6.110 -0.8347  0.8664  0.4405
13346SOL    HW243185   2.018   5.723   5.969  1.5853 -0.9505  1.2456
13347SOL     OW43186   7.787   4.001   3.802  0.0375  0.1672 -0.6920
13347SOL    HW143187   7.697   3.975   3.782 -0.3709  0.3614  0.8115
13347SOL    HW243188   7.838   3.967   3.728 -1.3101  0.4156 -1.7806
13348SOL     OW43189   1.507   7.847   5.390 -0.2367 -0.1409 -0.2883
13348SOL    HW143190   1.431   7.906   5.389 -1.1895 -1.3269 -0.2460
13348SOL    HW243191   1.538   7.846   5.299 -1.1307 -0.6991 -0.5980
13349SOL     OW43192   0.489   6.880   1.178 -0.1912 -0.7399 -0.1601
13349SOL    HW143193   0.463   6.893   1.269  4.0007  0.9682  1.0240
13349SOL    HW243194   0.524   6.791   1.175 -1.2218 -1.1484 -0.4006
13350SOL     OW43195   2.127   1.535   6.125 -0.1759  0.0560 -0.1525
13350SOL    HW143196   2.199   1.544   6.062  0.0196  0.5925  0.1419
13350SOL    HW243197   2.171   1.518   6.208 -0.4456 -1.0624 -0.2199
13351SOL     OW43198   7.918   6.865   6.468  0.1428 -0.8297 -0.4852
13351SOL    HW143199   7.999   6.821   6.444 -1.0250 -2.7339 -1.1645
13351SOL    HW243200   7.876   6.887   6.385  0.1914  0.6664 -0.1502
13352SOL     OW43201   7.519   0.506   5.670  0.1391 -0.0605 -0.5258
13352SOL    HW143202   7.484   0.586   5.630  0.4206 -0.1299 -0.9224
13352SOL    HW243203   7.499   0.515   5.763 -0.7152  0.0084 -0.7107
13353SOL     OW43204   7.590   3.037   1.729  0.3995 -0.2890  0.0806
13353SOL    HW143205   7.671   2.986   1.726  0.1466 -0.6609 -0.7071
13353SOL    HW243206   7.521   2.975   1.707 -0.0370  0.1650  0.1297
13354SOL     OW43207   3.961   3.733   7.865 -0.4202  0.0462 -0.3177
13354SOL    HW143208   4.009   3.681   7.800  2.6098  0.6708  1.2177
13354SOL    HW243209   4.004   3.713   7.948 -1.2034  2.5881  0.7878
13355SOL     OW43210   4.660   6.810   1.208  0.2586  0.0589 -0.1806
13355SOL    HW143211   4.673   6.901   1.235  0.1321  0.1429 -0.4004
13355SOL    HW243212   4.721   6.797   1.135 -0.4797  0.2966 -0.8637
13356SOL     OW43213   1.164   3.546   6.721  0.0862 -0.5341 -0.6457
13356SOL    HW143214   1.193   3.545   6.630 -0.9622  0.3329 -1.0063
13356SOL    HW243215   1.068   3.538   6.716  0.0266 -0.6217  0.3873
13357SOL     OW43216   2.717   5.492   1.009 -0.0034 -0.0382  0.0417
13357SOL    HW143217   2.686   5.403   0.995 -2.3322  0.5679  0.8261
13357SOL    HW243218   2.639   5.547   0.995  1.1819  1.8004  0.2893
13358SOL     OW43219   5.855   7.118   7.196 -0.5286  0.6846  0.1266
13358SOL    HW143220   5.825   7.110   7.106  1.2314  0.8528 -0.5197
13358SOL    HW243221   5.798   7.060   7.247  0.2847 -1.7003 -1.5453
13359SOL     OW43222   7.447   1.264   2.766 -0.3536 -0.4752  0.4216
13359SOL    HW143223   7.463   1.303   2.853  1.4754 -0.0907 -0.0416
13359SOL    HW243224   7.451   1.170   2.781  0.2928 -0.4085  0.7178
13360SOL     OW43225   0.900   3.897   5.221 -0.1613  0.6718 -0.4485
13360SOL    HW143226   0.955   3.832   5.176 -0.9709  0.6574 -1.4684
13360SOL    HW243227   0.941   3.981   5.200  1.0556  0.5072  1.1114
13361SOL     OW43228   3.962   1.636   7.869  0.4345 -0.1789 -0.5821
13361SOL    HW143229   3.932   1.719   7.906 -1.0931 -1.0546  0.2115
13361SOL    HW243230   4.044   1.618   7.914  0.3218  0.4526 -0.1182
13362SOL     OW43231   5.687   5.254   1.920 -0.8579 -0.0427 -0.0263
13362SOL    HW143232   5.664   5.193   1.991 -0.2368  0.8592  0.9860
13362SOL    HW243233   5.608   5.308   1.909 -0.6014  0.5026  0.7272
13363SOL     OW43234   5.697   4.888   1.794 -0.4000  0.2684  0.0700
13363SOL    HW143235   5.706   4.795   1.775 -2.7966 -0.0310  0.0972
13363SOL    HW243236   5.710   4.931   1.709 -0.3518 -0.1794 -0.1519
13364SOL     OW43237   0.777   8.015   4.789  0.8809  0.2047 -0.4919
13364SOL    HW143238   0.822   8.098   4.807  0.4220 -0.0282  1.9946
13364SOL    HW243239   0.716   8.036   4.718 -0.1249  2.3651  0.9092
13365SOL     OW43240   1.175   5.416   0.023  0.8174  0.9941  0.2985
13365SOL    HW143241   1.195   5.322   0.030  0.8044  0.7311 -2.1521
13365SOL    HW243242   1.126   5.436   0.102  0.9134 -1.0507  0.9409
13366SOL     OW43243   1.725   7.646   3.522 -0.8114 -0.0935 -0.0482
13366SOL    HW143244   1.668   7.708   3.567 -1.4264 -1.7651  1.5664
13366SOL    HW243245   1.814   7.674   3.545 -1.0486  0.5528  0.1051
13367SOL     OW43246   6.893   0.384   1.229 -0.5884 -0.3626 -0.1800
13367SOL    HW143247   6.936   0.390   1.144 -1.0841 -2.1413 -0.6000
13367SOL    HW243248   6.923   0.461   1.277  0.9060 -0.1368 -1.4132
13368SOL     OW43249   2.008   2.188   2.047 -0.1368 -0.4289 -0.3196
13368SOL    HW143250   2.003   2.148   2.133 -0.8316  1.6448  0.6679
13368SOL    HW243251   2.086   2.243   2.050  0.2251 -0.8607 -1.2733
13369SOL     OW43252   7.216   6.766   0.484  0.1412  0.0506 -0.3255
13369SOL    HW143253   7.304   6.804   0.483  0.6844 -1.0586  0.9178
13369SOL    HW243254   7.160   6.834   0.521  0.8372  0.1410  0.5933
13370SOL     OW43255   7.086   4.591   2.553  0.1486  0.2782  0.3189
13370SOL    HW143256   7.132   4.525   2.604 -0.9608 -1.6148 -0.9993
13370SOL    HW243257   7.154   4.654   2.529  1.3210 -0.5359  1.3305
13371SOL     OW43258   4.709   2.866   1.636 -0.3582 -0.0752  0.0758
13371SOL    HW143259   4.761   2.798   1.594  0.9737  0.6077  0.5727
13371SOL    HW243260   4.729   2.857   1.730  1.4171  2.2279 -0.0099
13372SOL     OW43261   7.475   7.607   0.463  0.1793  0.1576  0.3914
13372SOL    HW143262   7.542   7.570   0.520  1.9905  0.1927 -1.5972
13372SOL    HW243263   7.484   7.702   0.474 -1.1852  0.1766  1.8329
13373SOL     OW43264   7.417   7.408   7.859  0.0682 -0.3460 -0.2677
13373SOL    HW143265   7.352   7.440   7.922  1.6293  0.4544  1.0469
13373SOL    HW243266   7.496   7.395   7.912  0.5883 -2.7278 -1.5189
13374SOL     OW43267   1.175   2.112   5.000  0.2629 -0.1288  0.4966
13374SOL    HW143268   1.253   2.063   4.975 -0.5545 -1.5835  0.6127
13374SOL    HW243269   1.106   2.080   4.941 -0.0695  1.7945 -0.2249
13375SOL     OW43270   2.945   4.304   2.559  1.0727  0.0635  0.0893
13375SOL    HW143271   2.960   4.387   2.605 -2.0804  0.1647  1.1856
13375SOL    HW243272   2.908   4.330   2.475 -1.3162 -0.1022  0.9944
13376SOL     OW43273   1.704   1.215   2.193  0.4219  0.0531  0.4914
13376SOL    HW143274   1.625   1.268   2.197  0.6625  0.3630  1.3774
13376SOL    HW243275   1.677   1.134   2.149 -0.0008  0.8005 -0.6413
13377SOL     OW43276   7.443   4.458   5.347  0.1540  0.3019  0.2872
13377SOL    HW143277   7.466   4.444   5.439 -0.0095  0.6765  0.3873
13377SOL    HW243278   7.436   4.370   5.310  0.4769  0.1535  0.5685
13378SOL     OW43279   1.563   0.208   6.702  0.6508  0.5261  0.5095
13378SOL    HW143280   1.527   0.295   6.717  1.6026  1.1211 -0.4922
13378SOL    HW243281   1.508   0.149   6.754  1.1911  1.9408  2.7940
13379SOL     OW43282   7.078   2.027   7.528  0.1857  0.4692 -0.0929
13379SOL    HW143283   7.148   2.083   7.560  0.0233  0.9157 -0.5132
13379SOL    HW243284   7.067   2.052   7.436  3.1664 -3.2278 -1.7795
13380SOL     OW43285   2.409   0.373   0.614 -0.0458 -0.9399  0.0844
13380SOL    HW143286   2.348   0.372   0.688 -1.6893 -1.0178 -1.1989
13380SOL    HW243287   2.453   0.288   0.617  0.5011 -0.6325  1.4098
13381SOL     OW43288   6.488   0.455   2.931  0.2198 -0.2260  0.5364
13381SOL    HW143289   6.537   0.515   2.875 -1.2602  0.6962  0.1723
13381SOL    HW243290   6.416   0.424   2.876  0.4530 -1.6864  0.9961
13382SOL     OW43291   7.222   2.677   6.605 -0.4906 -0.1438 -0.2052
13382SOL    HW143292   7.263   2.737   6.542  0.6907  1.2752  1.7957
13382SOL    HW243293   7.293   2.654   6.665 -1.7908 -0.6828  1.1658
13383SOL     OW43294   5.718   2.578   5.526 -0.2729 -0.7268 -0.3599
13383SOL    HW143295   5.808   2.612   5.533 -1.0362  1.0235  2.5455
13383SOL    HW243296   5.727   2.497   5.477  2.9264 -0.7162  0.0004
13384SOL     OW43297   7.596   7.558   3.288  0.0841  0.3507  0.3799
13384SOL    HW143298   7.655   7.602   3.349  1.1731  0.2802 -0.6032
13384SOL    HW243299   7.653   7.519   3.222 -1.0030 -0.5223 -0.0855
13385SOL     OW43300   2.868   1.251   5.950 -0.3522 -0.2154  0.1990
13385SOL    HW143301   2.921   1.321   5.912 -0.2970 -0.1498  0.3932
13385SOL    HW243302   2.913   1.171   5.924  0.7659 -0.1282  1.6608
13386SOL     OW43303   0.993   4.950   4.280  0.3376 -0.5244  0.3157
13386SOL    HW143304   0.899   4.948   4.300  0.2621  0.1262  0.0677
13386SOL    HW243305   0.998   4.920   4.189  0.2829  0.1417  0.0824
13387SOL     OW43306   7.175   3.101   2.227  0.5003 -0.0442  0.3478
13387SOL    HW143307   7.205   3.018   2.264 -0.3838 -0.4606  0.1583
13387SOL    HW243308   7.168   3.160   2.303 -0.7710 -0.7327  0.7954
13388SOL     OW43309   2.813   5.811   4.135  0.2360  0.1338 -0.1891
13388SOL    HW143310   2.774   5.821   4.222 -0.6489  0.8595 -0.6585
13388SOL    HW243311   2.898   5.770   4.152  1.0936  2.3004  1.2392
13389SOL     OW43312   0.279   6.648   5.272  0.3074 -0.1821 -0.0857
13389SOL    HW143313   0.245   6.559   5.274  0.7635 -0.3777 -0.6430
13389SOL    HW243314   0.253   6.682   5.186  2.1052 -0.5954 -0.8433
13390SOL     OW43315   7.262   6.306   3.832 -0.2456 -0.4656  0.1587
13390SOL    HW143316   7.201   6.333   3.763  0.7489 -1.0625 -0.9968
13390SOL    HW243317   7.206   6.276   3.903 -1.3094  0.3429 -0.3137
13391SOL     OW43318   3.071   6.166   3.025 -0.4108 -0.2932  0.5967
13391SOL    HW143319   3.072   6.196   3.116 -1.1935 -1.1247  0.8930
13391SOL    HW243320   2.985   6.193   2.992 -1.3200 -2.4230  0.9913
13392SOL     OW43321   6.118   6.242   7.293 -0.3942  0.2922  0.3898
13392SOL    HW143322   6.065   6.319   7.275  0.6428  0.9017 -0.1469
13392SOL    HW243323   6.146   6.211   7.207 -1.1418 -0.9519  0.5640
13393SOL     OW43324   2.924   7.172   3.410  0.0427  0.0279  0.7527
13393SOL    HW143325   3.020   7.169   3.412  0.1442  1.4891 -0.1855
13393SOL    HW243326   2.901   7.240   3.474 -0.2923  0.4820  0.1580
13394SOL     OW43327   6.877   3.230   1.215 -0.0973 -0.3504  0.4054
13394SOL    HW143328   6.857   3.147   1.172 -0.0932 -0.1405 -0.0014
13394SOL    HW243329   6.874   3.295   1.145 -0.5661  0.0616  0.7980
13395SOL     OW43330   1.264   0.118   1.668  0.1692  0.2928  0.2768
13395SOL    HW143331   1.350   0.126   1.627  0.2155  1.4754  0.5480
13395SOL    HW243332   1.203   0.113   1.595  0.3291  1.3974  0.0411
13396SOL     OW43333   1.922   4.377   1.298 -1.0885 -0.2431 -0.4509
13396SOL    HW143334   1.896   4.399   1.209  1.1647 -0.8519 -1.3347
13396SOL    HW243335   1.852   4.321   1.331 -0.4492 -2.8687 -3.1360
13397SOL     OW43336   7.706   2.654   2.640 -0.1732  0.1747 -0.2340
13397SOL    HW143337   7.647   2.642   2.566 -0.0146 -0.3934 -0.2729
13397SOL    HW243338   7.685   2.582   2.699  0.3364  0.0886 -0.1545
13398SOL     OW43339   7.159   6.047   1.554  0.3621 -0.0850 -0.3516
13398SOL    HW143340   7.201   5.969   1.588 -0.2788 -0.9631 -1.4858
13398SOL    HW243341   7.104   6.078   1.625 -0.4766 -1.5135 -0.3328
13399SOL     OW43342   0.193   4.759   4.158  0.0359 -0.6771 -0.1114
13399SOL    HW143343   0.229   4.690   4.102  0.3282 -1.1268  0.6080
13399SOL    HW243344   0.268   4.793   4.206 -0.2556 -0.5455  0.2613
13400SOL     OW43345   5.771   1.748   3.696 -0.1336 -0.3399  0.1893
13400SOL    HW143346   5.768   1.658   3.728 -0.7456  0.2962  2.0566
13400SOL    HW243347   5.691   1.758   3.645 -0.5383 -0.5893  0.7702
13401SOL     OW43348   0.434   3.391   3.420  0.6253 -0.0224 -0.3643
13401SOL    HW143349   0.524   3.366   3.441  0.8594  0.9198 -0.1943
13401SOL    HW243350   0.420   3.358   3.331  1.0554 -0.3828 -0.3028
13402SOL     OW43351   0.937   2.957   1.548  0.2912 -0.1786 -0.3879
13402SOL    HW143352   0.903   2.870   1.526  0.1016 -1.0075  2.7227
13402SOL    HW243353   0.865   2.999   1.596  1.6000  0.2955  1.2216
13403SOL     OW43354   6.115   2.013   3.516 -0.2573  0.4841  0.0530
13403SOL    HW143355   6.066   1.994   3.436 -0.3541 -0.8065  0.4113
13403SOL    HW243356   6.159   1.931   3.538 -1.1723  0.4670  1.9825
13404SOL     OW43357   1.368   0.327   4.048  0.4859 -0.0919 -0.5327
13404SOL    HW143358   1.384   0.337   4.142  0.1301 -2.6828 -0.1107
13404SOL    HW243359   1.313   0.401   4.025  0.7410  0.7003  1.2705
13405SOL     OW43360   3.241   2.622   6.514  0.0296  0.0547  0.9241
13405SOL    HW143361   3.262   2.669   6.594 -0.1508 -0.6037  1.3760
13405SOL    HW243362   3.265   2.531   6.533 -2.3526 -0.5907  1.1875
13406SOL     OW43363   0.353   5.856   3.622 -0.6038 -0.1992  0.1641
13406SOL    HW143364   0.363   5.763   3.603  0.9946 -0.3483  1.5679
13406SOL    HW243365   0.336   5.860   3.716 -1.1127  0.9268  0.0486
13407SOL     OW43366   4.133   0.742   4.077  0.2062  1.0873  0.4499
13407SOL    HW143367   4.069   0.671   4.078 -1.1045  2.0962 -2.0900
13407SOL    HW243368   4.091   0.812   4.128  0.0050  1.1695  0.1764
13408SOL     OW43369   5.450   4.508   2.690 -0.2124 -0.4264  0.4865
13408SOL    HW143370   5.394   4.571   2.735  0.6345  1.6398 -1.1817
13408SOL    HW243371   5.389   4.442   2.655 -1.5986  1.3893 -0.7214
13409SOL     OW43372   4.541   3.281   4.643  0.5458 -0.1094 -0.7164
13409SOL    HW143373   4.630   3.297   4.673  0.2270  0.6152 -0.0866
13409SOL    HW243374   4.486   3.326   4.708 -0.4609 -3.3180  0.8618
13410SOL     OW43375   6.709   5.142   7.698 -0.0017  0.1405  0.0705
13410SOL    HW143376   6.695   5.214   7.760 -1.5939  0.3083 -0.4454
13410SOL    HW243377   6.647   5.159   7.627 -1.2340 -2.2971  0.4308
13411SOL     OW43378   3.879   0.923   3.423  0.1221 -0.5164  0.8573
13411SOL    HW143379   3.974   0.920   3.410 -0.0977  0.7608 -1.7306
13411SOL    HW243380   3.859   0.843   3.472  2.7082  0.1596  3.2916
13412SOL     OW43381   7.610   5.028   2.759 -0.0710 -0.0942 -0.3072
13412SOL    HW143382   7.553   5.020   2.682 -1.2756  0.8983  0.4546
13412SOL    HW243383   7.619   4.938   2.791  0.6797 -0.5731 -1.7199
13413SOL     OW43384   1.165   0.111   2.666  0.4256  0.4203  0.0433
13413SOL    HW143385   1.259   0.125   2.671  0.8259 -1.8553 -0.1368
13413SOL    HW243386   1.139   0.087   2.755  0.0721  0.6808  0.0139
13414SOL     OW43387   4.858   7.318   6.012  0.2028  0.6338 -0.2652
13414SOL    HW143388   4.939   7.367   6.025  0.7614 -0.1038 -0.9341
13414SOL    HW243389   4.805   7.339   6.089  0.9066  1.3487  0.0341
13415SOL     OW43390   0.053   7.403   7.573 -0.3792 -0.2121 -0.4433
13415SOL    HW143391   0.098   7.322   7.599 -1.7181 -0.6119  0.7516
13415SOL    HW243392  -0.012   7.374   7.509 -2.9109 -0.7005  2.1046
13416SOL     OW43393   3.978   1.082   7.698 -0.0231 -0.4655 -0.3011
13416SOL    HW143394   3.953   1.017   7.631  1.2687 -1.8848  0.5310
13416SOL    HW243395   4.065   1.055   7.726  0.4448  1.5064  0.2945
13417SOL     OW43396   2.866   6.492   1.975 -0.5051  0.8372  0.2584
13417SOL    HW143397   2.864   6.580   1.936  0.6506  0.3750 -0.8821
13417SOL    HW243398   2.779   6.457   1.958  0.1072  0.4369 -2.5018
13418SOL     OW43399   1.511   6.713   7.264  0.1681  0.6324 -0.4161
13418SOL    HW143400   1.497   6.665   7.346 -0.4681 -0.3767 -1.0937
13418SOL    HW243401   1.431   6.699   7.214  0.4785  1.3902 -1.1391
13419SOL     OW43402   5.890   6.490   3.718  0.2435 -0.3238 -0.2047
13419SOL    HW143403   5.981   6.470   3.698  0.0651  0.0674 -1.5079
13419SOL    HW243404   5.881   6.583   3.698  0.1651  0.3125  2.3487
13420SOL     OW43405   1.618   6.941   1.551  0.9080 -0.2038 -0.1286
13420SOL    HW143406   1.558   6.909   1.483 -1.6604  0.0575  1.8568
13420SOL    HW243407   1.670   7.009   1.508  0.9350 -1.5222 -2.3485
13421SOL     OW43408   6.293   0.113   0.869 -0.0911 -0.0762 -0.7248
13421SOL    HW143409   6.277   0.098   0.962 -0.2939 -2.6242 -1.1038
13421SOL    HW243410   6.270   0.030   0.827  1.4152  0.5222 -2.8788
13422SOL     OW43411   0.682   8.067   7.535  0.4343 -0.0420 -0.1227
13422SOL    HW143412   0.763   8.029   7.569  0.1610  1.0324  1.9524
13422SOL    HW243413   0.709   8.145   7.488  0.6443  0.3127  0.5649
13423SOL     OW43414   7.393   1.177   6.933  0.1100 -0.1195  0.0434
13423SOL    HW143415   7.400   1.147   6.843 -0.1412  1.3636 -0.5035
13423SOL    HW243416   7.464   1.133   6.980  0.2252 -0.9201 -0.8703
13424SOL     OW43417   6.970   0.226   1.472 -0.1336  0.3126 -0.3776
13424SOL    HW143418   6.890   0.177   1.492 -0.2709  0.4990 -0.4664
13424SOL    HW243419   6.960   0.252   1.381  0.0287  0.3373 -0.3889
13425SOL     OW43420   2.363   7.119   5.417  0.2952  0.5552  0.0244
13425SOL    HW143421   2.284   7.162   5.384 -0.2108 -0.2576  0.1517
13425SOL    HW243422   2.331   7.056   5.482  0.9200 -0.6249 -0.7738
13426SOL     OW43423   5.645   2.334   6.997  0.3117 -0.3689 -0.2808
13426SOL    HW143424   5.682   2.333   7.085 -0.4929 -1.0909  0.0652
13426SOL    HW243425   5.551   2.343   7.011  0.3458  1.8949 -1.1492
13427SOL     OW43426   2.705   1.471   0.044  0.1322 -0.1410  0.0425
13427SOL    HW143427   2.734   1.440   0.130 -0.3824 -0.2810  0.1660
13427SOL    HW243428   2.752   1.415  -0.018 -0.2177 -0.6705  0.2533
13428SOL     OW43429   0.192   6.779   4.555  0.1761 -0.4302 -0.0181
13428SOL    HW143430   0.268   6.724   4.536  1.6881  1.5570 -0.1373
13428SOL    HW243431   0.143   6.782   4.473  0.7113 -0.6795 -0.3556
13429SOL     OW43432   5.688   4.169   2.374 -0.7630  0.2483 -0.1906
13429SOL    HW143433   5.607   4.219   2.389 -1.1212 -0.6401  1.0156
13429SOL    HW243434   5.665   4.079   2.395  0.3383 -0.1555 -0.6385
13430SOL     OW43435   1.658   1.561   5.611  0.0471 -0.5364  0.8932
13430SOL    HW143436   1.719   1.574   5.538  0.6422 -0.3380  1.4127
13430SOL    HW243437   1.587   1.623   5.595 -0.0901 -0.8597  0.2091
13431SOL     OW43438   7.821   6.051   7.663 -0.2531 -0.7078  0.5889
13431SOL    HW143439   7.785   6.136   7.636  1.1712 -0.5887 -1.0780
13431SOL    HW243440   7.744   6.001   7.692 -1.5674  0.0581 -1.3692
13432SOL     OW43441   2.661   3.517   1.851  0.0637 -0.1369 -0.6786
13432SOL    HW143442   2.671   3.495   1.944 -1.7919  0.9543 -0.1815
13432SOL    HW243443   2.666   3.433   1.806 -1.6495 -1.0322  0.6754
13433SOL     OW43444   0.434   5.689   6.629  0.5188  0.0466  0.9134
13433SOL    HW143445   0.517   5.682   6.582 -0.4719  1.4092 -1.2520
13433SOL    HW243446   0.441   5.769   6.680  0.9571 -0.4777  1.6800
13434SOL     OW43447   7.338   7.317   6.378  0.1596 -0.4563 -0.2188
13434SOL    HW143448   7.406   7.302   6.312  0.6728 -1.3324  0.5041
13434SOL    HW243449   7.355   7.406   6.410 -2.1015  1.4337 -3.5641
13435SOL     OW43450   2.066   6.752   2.667  0.3479  0.2249  0.0827
13435SOL    HW143451   2.157   6.725   2.682 -0.2310 -0.7929  1.9261
13435SOL    HW243452   2.064   6.844   2.693  1.0795  0.5842 -1.0451
13436SOL     OW43453   1.575   0.150   3.741 -0.2081 -0.3824 -0.1904
13436SOL    HW143454   1.645   0.176   3.801 -2.6064  0.9926  2.2084
13436SOL    HW243455   1.542   0.068   3.778 -1.8007  0.5474  0.5400
13437SOL     OW43456   3.453   3.353   4.626 -0.0792  0.1170  0.4429
13437SOL    HW143457   3.467   3.274   4.677 -0.1966 -1.1624 -1.4164
13437SOL    HW243458   3.517   3.347   4.554 -1.5558  0.5629 -0.9771
13438SOL     OW43459   1.269   3.079   2.427 -0.1090 -0.5729 -0.2588
13438SOL    HW143460   1.317   3.015   2.481  1.5654 -0.1666 -1.1874
13438SOL    HW243461   1.264   3.157   2.482  2.8341  0.3143 -1.0588
13439SOL     OW43462   4.274   2.109   5.012 -0.0809  0.8939 -0.4553
13439SOL    HW143463   4.281   2.022   4.974  0.0020  1.2433 -1.2582
13439SOL    HW243464   4.327   2.105   5.091 -2.3369 -0.6094  1.1026
13440SOL     OW43465   5.916   2.200   3.525 -0.1469 -0.3193  0.6401
13440SOL    HW143466   5.994   2.147   3.540  0.6879  0.4163 -0.9097
13440SOL    HW243467   5.849   2.137   3.498  1.0073 -0.6003 -1.8162
13441SOL     OW43468   5.543   3.399   1.247  0.2359 -0.0996  0.1840
13441SOL    HW143469   5.557   3.473   1.189  0.4404 -0.6184 -0.4319
13441SOL    HW243470   5.625   3.349   1.244  0.0951 -0.3641  0.5738
13442SOL     OW43471   4.359   1.409   3.285  0.2104  0.4564 -0.2921
13442SOL    HW143472   4.311   1.332   3.256  3.2204 -1.4294 -0.6665
13442SOL    HW243473   4.294   1.462   3.332 -2.6042 -0.9434 -2.3040
13443SOL     OW43474   4.599   3.092   0.212 -0.4780  0.0801 -0.1590
13443SOL    HW143475   4.615   3.080   0.118 -1.4407 -1.1531 -0.1951
13443SOL    HW243476   4.674   3.052   0.255 -0.2374  0.2649 -0.4074
13444SOL     OW43477   6.632   4.470   0.032  0.7852 -0.2023  0.1003
13444SOL    HW143478   6.621   4.555  -0.009 -0.1957  0.4984  1.7622
13444SOL    HW243479   6.614   4.484   0.125  0.7473 -2.1830  0.4491
13445SOL     OW43480   7.889   3.005   2.857  0.5726  0.0964  0.4984
13445SOL    HW143481   7.908   3.091   2.818  1.4884 -0.2440  0.1689
13445SOL    HW243482   7.967   2.984   2.907 -0.0636 -0.0864  1.4427
13446SOL     OW43483   4.574   0.774   2.848  0.6603 -0.3135  0.0315
13446SOL    HW143484   4.578   0.700   2.788 -2.6955 -0.8218  0.2425
13446SOL    HW243485   4.524   0.742   2.923  2.1093  1.2136  1.7623
13447SOL     OW43486   1.847   7.557   6.418 -0.1019 -0.0182  0.0694
13447SOL    HW143487   1.831   7.619   6.488  3.3180 -0.0979  1.0968
13447SOL    HW243488   1.835   7.608   6.338  0.6590  1.4281  0.8435
13448SOL     OW43489   0.114   3.610   4.929  0.5571 -0.6100  0.5164
13448SOL    HW143490   0.105   3.522   4.892  4.0298 -1.5666  1.5413
13448SOL    HW243491   0.119   3.597   5.023 -1.3697  1.0516  0.9235
13449SOL     OW43492   0.564   3.126   5.172 -0.3972 -0.3259 -0.0445
13449SOL    HW143493   0.591   3.043   5.133 -0.8605 -0.6665  0.3524
13449SOL    HW243494   0.638   3.153   5.226 -0.5286 -0.8632  0.4177
13450SOL     OW43495   3.229   1.479   7.902  0.0131  0.3266 -0.4304
13450SOL    HW143496   3.319   1.482   7.870  0.2941  0.6277  0.3536
13450SOL    HW243497   3.175   1.501   7.826  0.5041 -1.1732 -1.2467
13451SOL     OW43498   6.764   5.257   0.743 -0.1653 -0.1707 -0.1235
13451SOL    HW143499   6.780   5.212   0.826 -1.1226  2.2687  1.5052
13451SOL    HW243500   6.812   5.339   0.750 -0.2930  0.1107 -2.0001
13452SOL     OW43501   5.286   6.168   1.962  0.1806  0.1361  0.5340
13452SOL    HW143502   5.327   6.242   2.006  2.1549 -0.6759  0.1330
13452SOL    HW243503   5.336   6.092   1.991  0.4642 -0.6213 -1.7654
13453SOL     OW43504   7.015   5.241   7.963  0.0280 -0.4228 -0.1557
13453SOL    HW143505   6.964   5.321   7.952 -1.5596 -1.1313  1.5166
13453SOL    HW243506   7.100   5.271   7.996  0.4905  0.7157 -2.2136
13454SOL     OW43507   5.244   3.973   6.077 -0.0416 -0.4202  0.1771
13454SOL    HW143508   5.191   3.894   6.083 -0.0329 -0.4634 -0.3175
13454SOL    HW243509   5.334   3.941   6.085 -0.1001 -0.0610  4.4014
13455SOL     OW43510   7.591   2.824   5.684 -0.1656  0.0178 -0.5177
13455SOL    HW143511   7.652   2.755   5.656  0.9172  0.9520 -0.5172
13455SOL    HW243512   7.521   2.776   5.729 -0.4826 -1.2679 -2.2594
13456SOL     OW43513   1.866   4.842   1.519  0.2295  0.1585  0.2283
13456SOL    HW143514   1.884   4.935   1.530  1.4535 -0.1047  0.5686
13456SOL    HW243515   1.886   4.824   1.428  1.0591  0.0111  0.4336
13457SOL     OW43516   0.044   7.171   4.314 -0.6582 -0.1009  0.1076
13457SOL    HW143517   0.078   7.089   4.350 -4.2585 -0.7849  2.4715
13457SOL    HW243518   0.040   7.156   4.219  3.2139 -0.6925 -0.1176
13458SOL     OW43519   0.898   2.796   3.092 -0.2488  0.2568 -0.5147
13458SOL    HW143520   0.844   2.866   3.055 -0.3085 -0.0125 -0.9452
13458SOL    HW243521   0.949   2.839   3.161 -1.3069  0.4240  0.1776
13459SOL     OW43522   5.333   0.276   0.354 -0.0136  0.3649 -0.0537
13459SOL    HW143523   5.419   0.238   0.370 -0.6434 -0.2359  2.2558
13459SOL    HW243524   5.284   0.207   0.308  0.4647  0.3888 -0.6050
13460SOL     OW43525   7.201   2.898   3.107  0.5101  0.2155  0.1870
13460SOL    HW143526   7.151   2.819   3.087  2.2171 -1.0336  0.6203
13460SOL    HW243527   7.171   2.963   3.044 -4.0335  0.6728  2.4363
13461SOL     OW43528   6.581   2.754   5.588  0.3163  0.2020 -0.0363
13461SOL    HW143529   6.569   2.770   5.495  0.5496  0.9748  0.0581
13461SOL    HW243530   6.517   2.812   5.631 -0.9664 -1.3595  0.2528
13462SOL     OW43531   3.143   1.266   2.227 -0.1693  0.0425 -0.4454
13462SOL    HW143532   3.072   1.227   2.279 -0.5100  0.4030 -0.6327
13462SOL    HW243533   3.185   1.191   2.184 -0.4573 -0.1718 -0.3602
13463SOL     OW43534   1.036   5.647   2.792  0.1674 -0.0773 -0.5273
13463SOL    HW143535   1.053   5.565   2.745 -1.0796 -0.1805 -0.8334
13463SOL    HW243536   0.944   5.667   2.774  0.5438  1.6170 -0.8052
13464SOL     OW43537   6.165   1.746   0.955  0.7775 -0.3983  0.4071
13464SOL    HW143538   6.077   1.773   0.929  0.7024 -1.6572 -0.7558
13464SOL    HW243539   6.152   1.661   0.998  1.5971 -1.6414 -1.6874
13465SOL     OW43540   4.186   7.134   1.255 -0.2523  0.0750  0.2347
13465SOL    HW143541   4.226   7.136   1.168  0.1415  1.6207  0.4210
13465SOL    HW243542   4.236   7.068   1.303 -1.2766 -1.7245 -1.0411
13466SOL     OW43543   7.524   1.046   0.129 -0.2674 -0.2556  0.1034
13466SOL    HW143544   7.543   0.953   0.144  1.7143 -0.1249 -1.1527
13466SOL    HW243545   7.430   1.049   0.114 -0.1923 -2.2797 -1.1434
13467SOL     OW43546   5.317   4.776   2.831 -0.8986 -0.5854  0.0548
13467SOL    HW143547   5.251   4.845   2.832 -0.6552 -0.3346 -0.5264
13467SOL    HW243548   5.400   4.823   2.824 -0.7120 -0.9248 -0.0113
13468SOL     OW43549   4.028   7.999   3.157  0.2065  0.0370 -0.1159
13468SOL    HW143550   4.122   7.987   3.140  0.0771  0.3985 -1.1699
13468SOL    HW243551   4.025   8.068   3.223  0.6632  0.9976 -1.0590
13469SOL     OW43552   7.356   1.763   4.086 -0.2230  0.9440 -0.3515
13469SOL    HW143553   7.362   1.845   4.134 -2.7697  0.5482  0.7788
13469SOL    HW243554   7.264   1.756   4.060  0.1954 -0.9209 -1.6056
13470SOL     OW43555   4.497   2.625   1.616  0.5472 -0.8273  0.0639
13470SOL    HW143556   4.551   2.574   1.676 -0.6692 -1.0287  1.0340
13470SOL    HW243557   4.538   2.613   1.530  1.1375 -2.2304  0.5112
13471SOL     OW43558   5.252   4.548   5.707 -0.8429 -0.3746 -0.1562
13471SOL    HW143559   5.203   4.498   5.772  1.5675  0.0652  2.1436
13471SOL    HW243560   5.299   4.483   5.656 -1.4031 -0.6395 -0.3422
13472SOL     OW43561   4.471   7.701   6.752 -0.4179 -0.7879  0.1456
13472SOL    HW143562   4.380   7.720   6.730 -0.7232 -2.0574  0.2086
13472SOL    HW243563   4.522   7.769   6.708 -1.3878 -0.1330  0.0193
13473SOL     OW43564   0.781   2.140   2.639  0.0280 -0.1152  0.1799
13473SOL    HW143565   0.766   2.195   2.561  1.1493 -0.6104 -0.4073
13473SOL    HW243566   0.698   2.143   2.686 -1.6351 -1.9181 -2.3672
13474SOL     OW43567   1.858   2.580   8.015  0.0077 -0.1886  0.3080
13474SOL    HW143568   1.773   2.587   7.973 -0.1619  0.8255  0.7890
13474SOL    HW243569   1.840   2.535   8.098 -0.4330  1.7348  1.3257
13475SOL     OW43570   3.251   4.639   7.479 -0.0704 -0.1132  0.9143
13475SOL    HW143571   3.233   4.630   7.573  1.3341  0.2012  1.2451
13475SOL    HW243572   3.182   4.697   7.447 -0.3315  0.1106  1.8463
13476SOL     OW43573   5.477   0.486   4.209 -0.6411  0.0160 -0.3311
13476SOL    HW143574   5.551   0.538   4.178 -1.8317  1.1421 -1.3349
13476SOL    HW243575   5.434   0.455   4.130 -0.9942 -1.0361  0.2507
13477SOL     OW43576   4.489   6.454   0.900  0.3478  0.2932 -0.0172
13477SOL    HW143577   4.542   6.526   0.866 -0.2988  0.9273  0.2866
13477SOL    HW243578   4.509   6.451   0.994  0.4513  0.0056 -0.0474
13478SOL     OW43579   6.785   2.778   6.959  0.0729  0.1495 -0.2793
13478SOL    HW143580   6.820   2.789   7.048  0.9166 -2.2591 -0.2690
13478SOL    HW243581   6.712   2.717   6.970  0.9227 -1.1147 -1.3627
13479SOL     OW43582   5.670   0.557   6.278  0.5954  0.2516  0.4386
13479SOL    HW143583   5.621   0.614   6.337  0.8342  0.8923  0.0144
13479SOL    HW243584   5.727   0.506   6.337 -0.6180 -0.5731  0.9476
13480SOL     OW43585   0.066   6.528   4.165  0.3664  0.2350  0.2869
13480SOL    HW143586   0.061   6.581   4.246 -0.4535 -0.3360  0.6175
13480SOL    HW243587  -0.025   6.515   4.139  0.6093 -0.0208 -0.4551
13481SOL     OW43588   7.003   2.941   1.269 -0.3832  0.2739 -0.0151
13481SOL    HW143589   6.996   2.893   1.352 -0.7447 -0.4301 -0.4404
13481SOL    HW243590   7.087   2.913   1.232 -0.5675  0.0052 -0.2360
13482SOL     OW43591   7.537   3.785   1.671 -0.0155 -0.0790 -0.3178
13482SOL    HW143592   7.603   3.803   1.605  1.5111 -1.7945  0.6441
13482SOL    HW243593   7.477   3.723   1.629  0.9231 -1.1283 -0.1487
13483SOL     OW43594   0.010   2.876   3.329  0.0845 -0.2522  0.4685
13483SOL    HW143595   0.049   2.958   3.297  0.6750 -0.6323  0.2163
13483SOL    HW243596  -0.080   2.879   3.296  0.7412 -0.7633 -1.5044
13484SOL     OW43597   7.466   4.169   4.040 -0.1530  0.0706 -0.6591
13484SOL    HW143598   7.446   4.159   4.133 -0.2847  1.5650 -0.5009
13484SOL    HW243599   7.558   4.195   4.039 -0.1029 -0.1112 -0.9687
13485SOL     OW43600   0.030   0.458   4.457 -0.1687  0.1008  0.0597
13485SOL    HW143601   0.062   0.542   4.423  0.7305 -0.1061  0.3836
13485SOL    HW243602  -0.053   0.480   4.499  0.1283  0.8604  0.2673
13486SOL     OW43603   6.282   2.345   6.975  0.1095  0.1116  0.2012
13486SOL    HW143604   6.242   2.413   7.028 -0.6487  1.0357 -1.4693
13486SOL    HW243605   6.312   2.280   7.038 -2.6536  0.0989  1.6858
13487SOL     OW43606   6.417   0.461   1.281  0.7010  0.2364  0.3047
13487SOL    HW143607   6.384   0.540   1.237  2.6942  0.5218 -0.8247
13487SOL    HW243608   6.456   0.493   1.361 -0.4631  0.0701  0.9638
13488SOL     OW43609   4.811   0.412   4.306  0.3817  0.1794  0.0855
13488SOL    HW143610   4.791   0.435   4.397 -0.3669 -1.1696  0.2797
13488SOL    HW243611   4.907   0.410   4.302  0.4167 -0.2722  0.9789
13489SOL     OW43612   6.479   7.987   3.033  0.9269  0.1078 -0.0475
13489SOL    HW143613   6.507   7.896   3.028 -0.5826 -0.3111 -3.5623
13489SOL    HW243614   6.443   7.997   3.121  1.7632 -2.4563  0.6515
13490SOL     OW43615   2.914   7.806   6.149 -0.3660 -0.5468  0.4949
13490SOL    HW143616   2.991   7.752   6.134 -0.0875 -0.0028 -0.0691
13490SOL    HW243617   2.917   7.873   6.080  1.2081  2.3415  3.0998
13491SOL     OW43618   2.668   1.285   2.872  0.1826  0.1681  0.5084
13491SOL    HW143619   2.610   1.222   2.916 -2.9576  1.5408 -1.3787
13491SOL    HW243620   2.669   1.361   2.930  0.4721 -0.0254  0.7585
13492SOL     OW43621   7.303   3.621   3.260 -0.2908 -0.2925 -0.7130
13492SOL    HW143622   7.259   3.705   3.270  0.8449  0.3873 -1.2352
13492SOL    HW243623   7.300   3.582   3.348 -1.1622  0.1118 -0.5530
13493SOL     OW43624   6.737   2.930   5.082 -0.0830 -0.3290 -0.1009
13493SOL    HW143625   6.762   2.983   5.158 -1.2263 -0.5169  0.4171
13493SOL    HW243626   6.734   2.840   5.116 -2.9323 -0.1781  0.3016
13494SOL     OW43627   0.499   0.696   5.019  0.3553  0.1951  0.3791
13494SOL    HW143628   0.427   0.716   5.080  0.6999 -1.2048  1.3099
13494SOL    HW243629   0.455   0.668   4.939 -0.1361  0.1419  0.6621
13495SOL     OW43630   6.087   4.427   1.386 -0.2967 -0.0941 -0.4218
13495SOL    HW143631   5.996   4.434   1.357 -0.3641  0.3100 -0.1241
13495SOL    HW243632   6.088   4.350   1.443 -0.6164  0.3125  0.1531
13496SOL     OW43633   5.114   4.775   2.054  0.2331 -0.3532  0.1299
13496SOL    HW143634   5.057   4.720   2.000  0.3489  0.1200 -0.4788
13496SOL    HW243635   5.055   4.837   2.096  0.1190 -0.8422  0.7148
13497SOL     OW43636   3.728   1.292   1.590  0.0258 -0.3948 -0.5044
13497SOL    HW143637   3.687   1.206   1.599 -1.1071  0.0455 -1.2156
13497SOL    HW243638   3.787   1.299   1.665  0.4212 -1.9376 -0.6435
13498SOL     OW43639   0.137   5.713   1.924 -0.1333 -0.1008 -0.0598
13498SOL    HW143640   0.080   5.790   1.925 -1.1595 -0.8237 -0.8867
13498SOL    HW243641   0.174   5.709   2.012  0.8406  1.9701 -0.2997
13499SOL     OW43642   2.315   6.241   0.538  0.0078  0.4135 -0.1836
13499SOL    HW143643   2.373   6.231   0.463  2.8989  0.3353  1.9046
13499SOL    HW243644   2.332   6.164   0.592 -1.9867  0.4672  0.6081
13500SOL     OW43645   1.693   7.986   7.801 -0.6344 -0.5446 -0.4396
13500SOL    HW143646   1.717   7.894   7.793 -2.3120 -1.1512  0.9400
13500SOL    HW243647   1.764   8.024   7.853  0.7768 -0.6902 -2.1493
13501SOL     OW43648   3.285   4.790   5.145  0.6680  0.3524  0.1556
13501SOL    HW143649   3.374   4.796   5.179 -0.6270  1.2957  3.9283
13501SOL    HW243650   3.260   4.880   5.126 -0.0752  0.3420  1.0160
13502SOL     OW43651   3.589   4.189   4.115  0.5550 -0.2358 -0.7362
13502SOL    HW143652   3.615   4.125   4.049 -0.1356  0.1750 -1.4370
13502SOL    HW243653   3.654   4.259   4.108  0.4912 -0.1997 -0.9750
13503SOL     OW43654   4.213   0.929   2.770 -0.0239  0.0223  0.2072
13503SOL    HW143655   4.129   0.937   2.725 -0.8013 -0.4467  1.5043
13503SOL    HW243656   4.192   0.937   2.863  1.4585  0.4824  0.5404
13504SOL     OW43657   3.612   1.486   1.042  0.0579  0.0416 -0.7497
13504SOL    HW143658   3.698   1.512   1.011  0.1519  0.1581 -0.3981
13504SOL    HW243659   3.552   1.551   1.005 -0.3152 -1.6749 -3.4833
13505SOL     OW43660   2.197   7.057   7.427  0.2984  0.0894  0.1811
13505SOL    HW143661   2.130   7.046   7.360  1.0413  0.0173 -0.5694
13505SOL    HW243662   2.227   6.968   7.446  2.3690  0.2660 -1.8038
13506SOL     OW43663   0.329   2.487   3.157 -0.5076  0.4248  0.0383
13506SOL    HW143664   0.285   2.456   3.078  0.7293  1.0072 -0.9207
13506SOL    HW243665   0.296   2.431   3.227 -0.0870 -1.4968 -1.2413
13507SOL     OW43666   2.321   5.105   2.730  0.2482  0.3012 -0.1672
13507SOL    HW143667   2.399   5.055   2.753 -0.2568 -0.3651  0.1182
13507SOL    HW243668   2.265   5.100   2.807 -0.1405  0.6501 -0.4207
13508SOL     OW43669   0.222   5.693   7.284  0.4258 -0.1062 -0.0580
13508SOL    HW143670   0.243   5.685   7.191  0.5088  1.1368 -0.1618
13508SOL    HW243671   0.130   5.668   7.290  0.7435 -1.3967 -0.2666
13509SOL     OW43672   3.101   5.006   3.788 -0.1655  0.5593  0.1321
13509SOL    HW143673   3.050   4.974   3.863  0.6545 -2.9554 -0.5998
13509SOL    HW243674   3.184   5.034   3.825 -0.3652  0.3925  0.7173
13510SOL     OW43675   2.053   7.670   1.339  0.4447 -0.0119 -0.0509
13510SOL    HW143676   2.022   7.756   1.309  1.4152  0.4531  0.2197
13510SOL    HW243677   1.994   7.607   1.298 -0.3941  0.7924 -0.1181
13511SOL     OW43678   1.533   5.121   5.762 -0.0146 -0.6332  0.4735
13511SOL    HW143679   1.600   5.155   5.821  0.9660  1.2364 -1.5812
13511SOL    HW243680   1.561   5.032   5.743 -0.3629 -1.2865  2.7565
13512SOL     OW43681   6.064   5.727   7.911 -0.1730 -0.3254  0.0870
13512SOL    HW143682   6.019   5.751   7.831 -0.7769  0.8515  0.7539
13512SOL    HW243683   6.104   5.642   7.892 -0.4434 -0.1423 -1.3843
13513SOL     OW43684   7.487   4.466   5.665 -0.3429 -0.3652 -0.0985
13513SOL    HW143685   7.393   4.485   5.656 -0.5747 -0.8773  1.0346
13513SOL    HW243686   7.524   4.546   5.702 -0.1779  0.1189 -1.2675
13514SOL     OW43687   2.840   2.727   7.823  0.2429 -0.3517 -0.8964
13514SOL    HW143688   2.884   2.672   7.887  0.3573  0.8107  0.0748
13514SOL    HW243689   2.904   2.740   7.753  1.1938  0.6468  0.1079
13515SOL     OW43690   4.333   2.450   3.407  0.0102 -0.2880  0.5963
13515SOL    HW143691   4.358   2.516   3.471  0.0738 -0.5597  0.8544
13515SOL    HW243692   4.256   2.487   3.363  0.0434 -0.0452  0.7397
13516SOL     OW43693   3.800   5.976   2.285 -0.2096 -0.1782 -0.0312
13516SOL    HW143694   3.867   6.023   2.334 -0.9475 -1.7701  2.6985
13516SOL    HW243695   3.763   6.041   2.226  0.5109  1.9534  1.7517
13517SOL     OW43696   6.346   5.650   3.197 -0.3285  0.0255  0.0915
13517SOL    HW143697   6.359   5.661   3.103 -2.0915  1.7473 -0.0150
13517SOL    HW243698   6.434   5.641   3.233  0.3963 -0.3820 -1.6622
13518SOL     OW43699   3.995   0.752   3.009  0.1647 -0.0206  0.2896
13518SOL    HW143700   3.934   0.717   3.074  0.0755  0.9067  0.7247
13518SOL    HW243701   3.987   0.693   2.934 -0.6116 -0.4206  0.6771
13519SOL     OW43702   5.536   1.110   7.753  0.0236 -0.3216 -0.1665
13519SOL    HW143703   5.533   1.014   7.753  3.4705 -0.5563 -0.6063
13519SOL    HW243704   5.536   1.134   7.845 -1.9132 -0.6208 -0.0546
13520SOL     OW43705   6.512   6.519   3.315  0.0731  0.1831 -0.8639
13520SOL    HW143706   6.507   6.541   3.408 -0.0391  0.1168 -0.8534
13520SOL    HW243707   6.535   6.601   3.272  1.1437 -0.0091 -0.6766
13521SOL     OW43708   0.801   4.730   7.474  0.6800  0.6070 -0.1024
13521SOL    HW143709   0.793   4.648   7.522  0.1342  1.1130  0.7064
13521SOL    HW243710   0.779   4.798   7.538  0.3270  1.3322 -0.9561
13522SOL     OW43711   3.777   0.354   0.771 -0.0161 -0.4497 -0.5304
13522SOL    HW143712   3.759   0.321   0.682  1.8172 -2.3050 -0.2904
13522SOL    HW243713   3.804   0.445   0.757 -1.2936 -0.1921 -1.6678
13523SOL     OW43714   6.009   4.099   4.321 -0.3096  0.2881  0.4022
13523SOL    HW143715   6.071   4.168   4.347 -0.4111  0.8342 -0.7535
13523SOL    HW243716   5.924   4.144   4.319 -0.2630  0.3361 -1.1120
13524SOL     OW43717   4.376   6.434   2.094  0.4699 -0.0501 -0.3321
13524SOL    HW143718   4.398   6.437   2.001  0.0629  0.7223 -0.4096
13524SOL    HW243719   4.332   6.517   2.111 -0.6913 -0.7491  0.2383
13525SOL     OW43720   5.323   4.823   1.839 -0.2747  0.4689  0.3367
13525SOL    HW143721   5.304   4.883   1.767 -0.3180  0.8361  0.6554
13525SOL    HW243722   5.291   4.868   1.917  0.4033  0.3780  0.6725
13526SOL     OW43723   5.165   2.105   2.854  0.2116 -0.0689  0.5286
13526SOL    HW143724   5.222   2.028   2.861  0.3152 -0.1502 -0.9339
13526SOL    HW243725   5.109   2.100   2.932  0.5418 -1.3570  0.7116
13527SOL     OW43726   4.541   5.954   7.177 -0.1992  0.1893  0.2445
13527SOL    HW143727   4.558   5.957   7.083  0.2917 -0.8722  0.2796
13527SOL    HW243728   4.449   5.979   7.186  0.1127  1.6406 -0.3779
13528SOL     OW43729   4.630   6.479   2.602 -0.1587 -0.3839  0.7943
13528SOL    HW143730   4.593   6.392   2.586  0.8331 -0.2958 -3.1109
13528SOL    HW243731   4.556   6.539   2.590 -0.1577 -0.5506 -0.1201
13529SOL     OW43732   0.143   7.799   2.205  0.2216 -0.2254  0.5689
13529SOL    HW143733   0.196   7.869   2.166  0.7546 -0.3984  0.9631
13529SOL    HW243734   0.059   7.841   2.224  0.6449  0.4144  1.0998
13530SOL     OW43735   6.206   2.526   7.253 -0.1172  0.1009 -0.1411
13530SOL    HW143736   6.160   2.498   7.332 -1.0169 -0.3943 -0.8248
13530SOL    HW243737   6.215   2.620   7.262  0.1056  0.0038  0.7124
13531SOL     OW43738   6.976   6.003   7.607 -0.1704  0.1272 -0.1415
13531SOL    HW143739   7.026   5.939   7.557 -1.8428 -1.3184 -0.0971
13531SOL    HW243740   6.886   5.994   7.574 -0.9984  0.3224  1.9076
13532SOL     OW43741   6.960   1.379   5.399  0.3984 -0.6525  0.5027
13532SOL    HW143742   6.982   1.471   5.411  0.3014 -0.2680 -1.8509
13532SOL    HW243743   6.864   1.377   5.399  0.3982 -0.6841  0.1197
13533SOL     OW43744   3.127   5.364   1.030 -0.4741  0.1270 -0.2277
13533SOL    HW143745   3.096   5.454   1.039 -1.2684 -0.0121 -1.3753
13533SOL    HW243746   3.128   5.349   0.935  0.9220 -0.6388 -0.1141
13534SOL     OW43747   6.170   1.847   1.405 -0.6776  0.2841 -0.7306
13534SOL    HW143748   6.235   1.777   1.410 -3.6000 -2.6192  2.0252
13534SOL    HW243749   6.115   1.824   1.331 -0.2906  1.1100 -1.2943
13535SOL     OW43750   6.290   2.945   6.639 -0.1680  0.1886 -0.5064
13535SOL    HW143751   6.256   2.982   6.721  0.6152 -0.0018 -0.0922
13535SOL    HW243752   6.379   2.980   6.631  0.7992 -1.9711  0.1583
13536SOL     OW43753   2.750   0.733   0.900  0.0853  0.5521 -0.3088
13536SOL    HW143754   2.657   0.728   0.877  0.1751  1.1279 -0.8226
13536SOL    HW243755   2.754   0.701   0.990 -0.0821 -3.2291 -1.4699
13537SOL     OW43756   2.644   4.835   2.224 -0.0539  0.4448 -0.7308
13537SOL    HW143757   2.678   4.758   2.270  1.3270  1.7240  0.4891
13537SOL    HW243758   2.565   4.804   2.181  1.4134 -2.1016 -1.7697
13538SOL     OW43759   2.911   4.166   4.933  0.3355 -0.1703  0.1417
13538SOL    HW143760   2.924   4.084   4.885 -0.0174 -0.3665  0.3692
13538SOL    HW243761   2.892   4.231   4.866 -1.2402 -0.6657  0.0718
13539SOL     OW43762   2.962   6.846   1.068  0.4347  0.2583 -0.0493
13539SOL    HW143763   2.987   6.802   1.150  1.0344 -2.1395 -1.4034
13539SOL    HW243764   2.878   6.805   1.044 -0.3992  1.8807 -0.0157
13540SOL     OW43765   0.423   0.908   0.090  0.0762 -0.6102  0.0022
13540SOL    HW143766   0.390   0.859   0.166 -1.6297 -1.7206 -1.3832
13540SOL    HW243767   0.446   0.841   0.027  2.4782  0.2606 -0.1530
13541SOL     OW43768   3.258   3.745   4.971  0.2192 -0.7551 -0.3055
13541SOL    HW143769   3.228   3.779   4.886 -1.6760 -0.0362  0.5917
13541SOL    HW243770   3.354   3.751   4.966  0.1023  1.4201 -1.5703
13542SOL     OW43771   6.953   3.480   5.212  0.4726 -0.0122 -0.2927
13542SOL    HW143772   7.027   3.516   5.260  0.4544  1.1362 -1.0773
13542SOL    HW243773   6.983   3.476   5.121 -0.7008  1.3619 -0.7795
13543SOL     OW43774   7.717   5.729   6.324  0.3677  0.7168 -0.1759
13543SOL    HW143775   7.805   5.766   6.330  1.1925 -1.2168  0.8005
13543SOL    HW243776   7.706   5.681   6.406 -1.0237 -0.2487 -0.8897
13544SOL     OW43777   6.104   6.298   6.687 -0.6361  0.1447 -0.0254
13544SOL    HW143778   6.145   6.246   6.756  0.0106  1.0539  0.2967
13544SOL    HW243779   6.010   6.287   6.701 -0.5151 -0.9589  0.0048
13545SOL     OW43780   1.688   6.797   7.788  0.4564 -0.0641 -0.2904
13545SOL    HW143781   1.704   6.725   7.727  0.8599  0.5383 -0.9083
13545SOL    HW243782   1.756   6.861   7.768 -0.3514  0.8265 -0.2812
13546SOL     OW43783   2.234   3.336   2.984 -0.2966  0.5019  0.1804
13546SOL    HW143784   2.310   3.363   3.036 -0.1185  1.9094 -0.7800
13546SOL    HW243785   2.161   3.338   3.046  0.4039 -0.7913  1.0931
13547SOL     OW43786   4.479   4.001   3.521  0.1717  0.7540 -0.0821
13547SOL    HW143787   4.422   3.951   3.463  0.9095 -2.0617  1.4289
13547SOL    HW243788   4.427   4.077   3.546 -1.6089  0.0199 -1.3528
13548SOL     OW43789   5.436   6.424   7.519 -0.3368 -0.5653  0.0331
13548SOL    HW143790   5.411   6.464   7.436  0.9497  0.3089  0.0448
13548SOL    HW243791   5.421   6.330   7.506  1.3288 -0.6369 -1.7684
13549SOL     OW43792   2.588   6.173   6.963  0.4680 -0.2949  0.1228
13549SOL    HW143793   2.529   6.242   6.935  0.5505 -0.1384  0.3399
13549SOL    HW243794   2.675   6.201   6.932  0.2430 -1.1939 -1.4628
13550SOL     OW43795   3.134   2.337   5.869  0.1877 -0.1476  0.1021
13550SOL    HW143796   3.138   2.370   5.958  0.6287  2.5194 -0.8230
13550SOL    HW243797   3.224   2.312   5.848 -0.1009 -1.8283  0.7123
13551SOL     OW43798   5.654   2.472   4.266 -0.1761 -0.3734 -0.1659
13551SOL    HW143799   5.613   2.401   4.218  0.1279 -0.1196 -0.8152
13551SOL    HW243800   5.745   2.444   4.278  0.6488  0.9422 -2.6488
13552SOL     OW43801   3.984   7.698   5.470 -0.3611 -0.0431 -0.4558
13552SOL    HW143802   3.994   7.608   5.437  0.2743  0.1714 -0.8754
13552SOL    HW243803   3.957   7.688   5.561 -0.7744 -0.6622 -0.6455
13553SOL     OW43804   5.666   5.017   3.819  0.1223  0.5672 -0.1862
13553SOL    HW143805   5.570   5.010   3.822  0.2493 -1.9706 -0.3135
13553SOL    HW243806   5.697   4.957   3.886  1.6511  0.9982 -0.4675
13554SOL     OW43807   2.207   6.929   3.209  0.2520 -0.0932  0.1231
13554SOL    HW143808   2.293   6.940   3.250  0.0769  0.0770  0.4466
13554SOL    HW243809   2.163   7.012   3.223 -0.0910 -0.2965  0.2493
13555SOL     OW43810   6.907   2.581   2.070  0.0295 -0.0667 -0.3653
13555SOL    HW143811   6.930   2.489   2.083 -2.6273 -0.9176 -0.9015
13555SOL    HW243812   6.957   2.629   2.136 -0.5361 -2.2490  1.7860
13556SOL     OW43813   6.377   4.168   3.977  0.1235  0.3491  0.0098
13556SOL    HW143814   6.353   4.077   3.995  3.1814 -1.0470 -1.9672
13556SOL    HW243815   6.456   4.182   4.028  0.3927  1.4345 -0.6731
13557SOL     OW43816   6.146   2.603   1.740 -0.3705 -0.3336 -0.0219
13557SOL    HW143817   6.086   2.576   1.670  0.4437  3.4395 -2.4957
13557SOL    HW243818   6.231   2.569   1.714  0.1980  2.1455 -1.8526
13558SOL     OW43819   6.344   3.297   2.174  0.2299 -0.1927 -0.1919
13558SOL    HW143820   6.359   3.359   2.103  1.7703 -0.7465 -0.3767
13558SOL    HW243821   6.260   3.324   2.212  0.3545  1.3320 -0.9408
13559SOL     OW43822   7.832   7.119   7.051 -0.8916 -0.4626 -0.1952
13559SOL    HW143823   7.775   7.121   6.975  2.4815  0.3376 -2.9828
13559SOL    HW243824   7.840   7.210   7.078 -0.0825 -0.3990 -0.6058
13560SOL     OW43825   1.375   0.928   1.858 -0.3217 -0.0147 -0.1307
13560SOL    HW143826   1.297   0.957   1.904  0.4804  1.1153  0.5620
13560SOL    HW243827   1.355   0.943   1.765 -0.9122  0.3137  0.0436
13561SOL     OW43828   7.069   7.984   7.122  0.5170  0.5274  0.5915
13561SOL    HW143829   7.120   7.968   7.202  1.4421 -0.5828 -0.1698
13561SOL    HW243830   7.119   7.940   7.053 -0.8663  0.4432 -0.4069
13562SOL     OW43831   3.679   2.924   1.435 -0.4819 -0.1787  0.4304
13562SOL    HW143832   3.741   2.864   1.394 -1.0113 -0.0578 -0.5643
13562SOL    HW243833   3.715   3.011   1.417 -1.9740  0.0290 -2.0250
13563SOL     OW43834   1.504   7.521   7.261  0.4447 -0.1939  0.0266
13563SOL    HW143835   1.471   7.592   7.317  1.3207  0.4707 -0.2630
13563SOL    HW243836   1.499   7.443   7.315  2.8861  0.7093  1.7217
13564SOL     OW43837   3.135   4.328   6.240  0.5923  0.2932  0.7111
13564SOL    HW143838   3.135   4.260   6.307 -0.2934  0.2830  0.7218
13564SOL    HW243839   3.112   4.408   6.287 -0.1971  0.2571  0.4143
13565SOL     OW43840   1.320   7.436   3.170 -0.5926  0.8708  0.2569
13565SOL    HW143841   1.361   7.383   3.238 -0.6874  0.5641  0.0753
13565SOL    HW243842   1.358   7.524   3.182 -2.2940  1.4103  2.1545
13566SOL     OW43843   4.668   5.526   7.779 -0.1298 -0.2107  0.0710
13566SOL    HW143844   4.593   5.530   7.840  0.8289  1.2840  1.2279
13566SOL    HW243845   4.742   5.500   7.834  0.6868  0.7622 -0.5460
13567SOL     OW43846   1.030   2.012   2.904  0.3282 -0.0886 -0.2217
13567SOL    HW143847   1.038   2.065   2.825  0.5536  0.7245  0.3349
13567SOL    HW243848   0.941   2.028   2.935  0.0298 -0.8892 -0.6392
13568SOL     OW43849   1.003   0.915   5.851  0.4265  0.3778  0.3787
13568SOL    HW143850   1.019   0.833   5.804  1.7452  0.4083  0.7587
13568SOL    HW243851   0.946   0.965   5.792  1.0987 -0.0634 -0.6658
13569SOL     OW43852   7.684   0.023   3.064  0.7174  0.1199  0.0050
13569SOL    HW143853   7.752   0.051   3.125  0.2872 -0.2076  0.6469
13569SOL    HW243854   7.609   0.079   3.084  0.3414 -0.4618  0.2795
13570SOL     OW43855   2.715   1.457   3.255 -0.0415  0.0012  0.2006
13570SOL    HW143856   2.791   1.440   3.199  0.5579  1.8795  0.3756
13570SOL    HW243857   2.640   1.447   3.197  0.4531 -0.0281 -0.4455
13571SOL     OW43858   7.653   5.607   4.504  0.2374  0.0024  0.5278
13571SOL    HW143859   7.635   5.701   4.512  0.9758  0.0086  3.1597
13571SOL    HW243860   7.721   5.590   4.570 -0.2426 -2.4779  0.4808
13572SOL     OW43861   7.172   7.468   2.009  0.1861 -0.4043  0.2566
13572SOL    HW143862   7.136   7.521   1.938  0.0485 -1.0564 -0.1663
13572SOL    HW243863   7.096   7.421   2.044  0.3599 -0.5609  0.4247
13573SOL     OW43864   7.105   3.324   0.362 -0.0243 -0.4200  0.3170
13573SOL    HW143865   7.023   3.288   0.329  0.0473 -0.1576 -0.1699
13573SOL    HW243866   7.108   3.413   0.326  0.5224 -0.4698  0.2279
13574SOL     OW43867   5.659   2.100   1.745  0.3344 -1.1105 -0.4148
13574SOL    HW143868   5.734   2.123   1.691  0.0713 -0.9734 -0.7216
13574SOL    HW243869   5.600   2.051   1.687  0.7046 -2.2372  0.1168
13575SOL     OW43870   1.687   8.073   4.587  0.0639 -0.1712 -0.4087
13575SOL    HW143871   1.696   8.021   4.666 -0.4279 -0.1943 -0.3614
13575SOL    HW243872   1.776   8.095   4.561  0.1985  0.8248  0.7996
13576SOL     OW43873   6.465   7.212   0.027  0.4919  0.5073 -0.1422
13576SOL    HW143874   6.515   7.189   0.106  1.0138  1.8238 -0.0657
13576SOL    HW243875   6.376   7.184   0.046  1.0878 -1.5371 -0.1224
13577SOL     OW43876   3.114   3.903   2.585 -0.5356 -0.0186 -0.6207
13577SOL    HW143877   3.175   3.971   2.615  0.9861 -1.3929 -0.4389
13577SOL    HW243878   3.171   3.834   2.550 -2.0513 -0.9539 -1.3297
13578SOL     OW43879   2.044   4.989   6.705  0.1965  0.3708 -0.2566
13578SOL    HW143880   2.044   4.907   6.655 -0.8336  0.2172 -0.0300
13578SOL    HW243881   2.048   5.058   6.639 -0.2160  0.1506 -0.5210
13579SOL     OW43882   1.446   0.729   4.194 -0.0775 -0.0850  0.7136
13579SOL    HW143883   1.385   0.671   4.148 -0.6879 -0.0073  1.4064
13579SOL    HW243884   1.532   0.703   4.162 -0.3911 -0.9761  0.5689
13580SOL     OW43885   2.948   8.068   5.661 -0.2632  0.1268 -0.5398
13580SOL    HW143886   2.902   7.984   5.667  0.4063 -0.1949  0.2191
13580SOL    HW243887   2.881   8.130   5.629 -0.1424 -1.1983 -3.7331
13581SOL     OW43888   3.952   7.950   2.490 -0.1522 -0.2875  0.1528
13581SOL    HW143889   3.926   7.923   2.578 -2.0093  0.9497  0.0297
13581SOL    HW243890   3.884   8.012   2.462  2.2553  2.1424 -0.7519
13582SOL     OW43891   7.935   1.417   6.855 -0.0828  0.1746  0.4104
13582SOL    HW143892   8.010   1.377   6.900 -1.0080  0.3896  2.2194
13582SOL    HW243893   7.859   1.370   6.888 -0.7508 -0.6524 -2.0873
13583SOL     OW43894   6.664   3.018   2.144  0.6941 -0.3171  0.4018
13583SOL    HW143895   6.686   3.106   2.114 -0.2208  0.0635  0.8064
13583SOL    HW243896   6.728   2.961   2.101 -0.2078  0.2527 -1.8154
13584SOL     OW43897   1.671   5.830   3.015 -1.0019  0.2824 -0.0353
13584SOL    HW143898   1.725   5.909   3.012  0.4635 -0.6449  0.4712
13584SOL    HW243899   1.707   5.774   2.947  0.8285 -1.6009  2.2998
13585SOL     OW43900   1.501   3.542   2.569  0.5418  0.4495  0.2540
13585SOL    HW143901   1.431   3.480   2.550  1.3511 -0.3032 -0.3613
13585SOL    HW243902   1.456   3.625   2.585 -0.7317 -0.6602  3.0782
13586SOL     OW43903   2.006   2.532   2.985  0.1505  0.0142  0.5780
13586SOL    HW143904   1.937   2.494   3.040 -0.1145 -0.6874 -0.2173
13586SOL    HW243905   2.058   2.457   2.957 -0.8470  0.0873 -1.6733
13587SOL     OW43906   4.079   0.598   2.225  0.0684  0.2051  0.1841
13587SOL    HW143907   4.093   0.619   2.317 -0.2916 -0.2836  0.3545
13587SOL    HW243908   4.137   0.523   2.209  1.0822  1.0755 -0.3249
13588SOL     OW43909   1.610   6.908   2.040  0.4387 -0.5568 -0.7102
13588SOL    HW143910   1.597   6.943   1.951 -1.3795  0.0856 -0.2429
13588SOL    HW243911   1.562   6.825   2.040  1.2208 -1.0161 -0.5843
13589SOL     OW43912   4.577   1.116   1.772 -0.4446  0.3348 -0.2182
13589SOL    HW143913   4.652   1.082   1.723 -0.2369  0.6753 -0.1417
13589SOL    HW243914   4.538   1.039   1.813 -2.1897 -0.3928 -2.9888
13590SOL     OW43915   7.754   0.281   1.605 -0.5386  0.3387  0.2548
13590SOL    HW143916   7.670   0.234   1.613  1.0687 -3.5734 -2.5003
13590SOL    HW243917   7.809   0.242   1.673  0.4376 -0.8932 -1.1988
13591SOL     OW43918   3.149   5.652   1.842 -0.0543 -0.0017 -0.2132
13591SOL    HW143919   3.062   5.685   1.865  0.7594  1.6363  0.6519
13591SOL    HW243920   3.133   5.562   1.814 -2.2879  0.8418 -2.0145
13592SOL     OW43921   5.324   4.046   6.494  0.2345 -0.2285  0.5193
13592SOL    HW143922   5.318   4.138   6.519  1.7639 -0.1995  0.8957
13592SOL    HW243923   5.366   4.004   6.569 -0.6307 -1.2838  0.4353
13593SOL     OW43924   4.586   7.470   1.088 -0.0715 -0.3936  0.1533
13593SOL    HW143925   4.673   7.431   1.083 -0.2291 -0.6897 -0.3696
13593SOL    HW243926   4.540   7.419   1.154  0.1791 -0.1800  0.4948
13594SOL     OW43927   6.428   7.409   7.509 -0.9724  0.0004 -0.2857
13594SOL    HW143928   6.455   7.357   7.434 -0.4124  0.1454 -0.1886
13594SOL    HW243929   6.380   7.348   7.565  1.1439 -0.8682  0.6644
13595SOL     OW43930   7.855   6.641   6.162 -0.7781 -0.0499  0.0303
13595SOL    HW143931   7.933   6.646   6.106 -1.1580  0.3684 -0.4713
13595SOL    HW243932   7.886   6.598   6.241 -0.2625 -0.7776 -0.5531
13596SOL     OW43933   1.172   1.467   3.021  0.0253  0.2832  0.2632
13596SOL    HW143934   1.082   1.468   3.053  0.3939 -1.2923  1.4324
13596SOL    HW243935   1.164   1.466   2.925 -1.2019 -0.2277  0.3614
13597SOL     OW43936   3.783   3.202   2.625  0.0539  0.3092 -0.1460
13597SOL    HW143937   3.877   3.212   2.635  0.2589 -0.1506 -1.3933
13597SOL    HW243938   3.769   3.108   2.618 -0.5459  0.3526  0.4488
13598SOL     OW43939   0.304   2.107   6.434 -0.1630  0.3607  0.1242
13598SOL    HW143940   0.381   2.149   6.471  0.4062 -1.5467  1.2648
13598SOL    HW243941   0.244   2.098   6.508 -0.2705 -0.7499 -0.0814
13599SOL     OW43942   1.164   6.519   3.131  0.1967  0.6308  0.3848
13599SOL    HW143943   1.103   6.507   3.058 -0.6240 -0.1423  1.1609
13599SOL    HW243944   1.248   6.539   3.090 -0.6394  2.0474 -0.6999
13600SOL     OW43945   2.238   1.310   4.203  0.4062  0.3673 -0.3048
13600SOL    HW143946   2.327   1.299   4.169 -0.1906 -0.2265 -1.7596
13600SOL    HW243947   2.246   1.296   4.297  1.8478  0.3327 -0.4109
13601SOL     OW43948   3.139   3.046   5.669  0.5111 -0.6181 -0.5551
13601SOL    HW143949   3.229   3.078   5.671  0.3569 -0.1820  1.7531
13601SOL    HW243950   3.090   3.114   5.623  0.9765  0.3136  0.2876
13602SOL     OW43951   1.389   3.520   7.198  0.1039  0.1018 -0.2245
13602SOL    HW143952   1.330   3.568   7.141 -1.5973 -0.4165  1.0236
13602SOL    HW243953   1.475   3.527   7.155 -1.0046  0.0545 -2.5904
13603SOL     OW43954   2.952   4.403   5.794  0.0558 -0.0159 -0.1478
13603SOL    HW143955   2.900   4.423   5.871 -2.2830  1.7787 -2.0056
13603SOL    HW243956   3.040   4.432   5.816 -1.0944  3.0224  0.9749
13604SOL     OW43957   4.948   3.679   5.934  0.0015 -0.5374 -0.1580
13604SOL    HW143958   4.923   3.612   5.871  0.8384 -0.6741 -0.3514
13604SOL    HW243959   5.039   3.660   5.956 -0.6306 -1.2406  2.0651
13605SOL     OW43960   1.010   4.806   4.054 -0.6059 -0.2131 -0.1887
13605SOL    HW143961   0.931   4.786   4.003  0.3331 -0.4614 -1.6278
13605SOL    HW243962   1.055   4.722   4.062 -0.0018  0.0994 -0.2647
13606SOL     OW43963   4.107   4.957   3.844  0.4755  0.1825  0.0756
13606SOL    HW143964   4.029   4.906   3.824  0.7631  0.5174 -2.1784
13606SOL    HW243965   4.075   5.047   3.854  0.4391  0.1486  0.2682
13607SOL     OW43966   3.216   1.494   1.628  0.4276  0.4048  0.1185
13607SOL    HW143967   3.130   1.497   1.670 -0.2103  0.3951 -1.1537
13607SOL    HW243968   3.275   1.533   1.693 -1.0376  3.4511 -0.1975
13608SOL     OW43969   6.620   3.306   3.365 -0.3237  0.4134 -0.2233
13608SOL    HW143970   6.656   3.224   3.330 -0.0443  0.4558 -0.0429
13608SOL    HW243971   6.621   3.366   3.291 -0.1218  0.3813 -0.2483
13609SOL     OW43972   5.213   4.583   0.933  0.2586  0.2229 -0.0804
13609SOL    HW143973   5.303   4.606   0.914  0.3646 -1.7414 -2.5266
13609SOL    HW243974   5.216   4.489   0.954 -1.0728  0.4188  1.2007
13610SOL     OW43975   2.023   4.399   0.865 -0.2668  0.1420 -0.1703
13610SOL    HW143976   1.937   4.399   0.825 -1.0901  2.5993  1.4040
13610SOL    HW243977   2.084   4.399   0.791 -1.6238  0.1928 -1.3255
13611SOL     OW43978   1.896   6.189   0.647  0.1043  0.5614  0.0366
13611SOL    HW143979   1.815   6.184   0.698 -0.5779  1.6757 -0.8850
13611SOL    HW243980   1.883   6.263   0.588  1.5838  0.4177 -0.5264
13612SOL     OW43981   4.283   7.482   7.754 -0.0732  0.4532 -0.4439
13612SOL    HW143982   4.327   7.566   7.757 -0.2543  0.5360 -0.0026
13612SOL    HW243983   4.268   7.459   7.846  2.0657 -1.1763 -0.4180
13613SOL     OW43984   1.432   2.921   2.623 -0.0864  0.0626 -0.2249
13613SOL    HW143985   1.524   2.894   2.614  0.1459  1.0996 -1.1676
13613SOL    HW243986   1.424   2.948   2.714  0.3889 -0.5901  0.0183
13614SOL     OW43987   6.272   4.331   8.072 -0.0225  0.5645 -0.6610
13614SOL    HW143988   6.244   4.296   8.156 -2.4993  1.5875 -0.9773
13614SOL    HW243989   6.331   4.403   8.094 -0.9568  1.0770  0.2471
13615SOL     OW43990   4.471   4.511   6.224  0.0338  0.0106  0.1895
13615SOL    HW143991   4.494   4.602   6.242  0.1999  0.0432 -0.1860
13615SOL    HW243992   4.522   4.488   6.147 -0.2290 -0.3115  0.1095
13616SOL     OW43993   4.187   2.193   7.232 -0.1993  0.7328  0.4209
13616SOL    HW143994   4.122   2.254   7.197 -0.9263 -0.2790 -0.0458
13616SOL    HW243995   4.268   2.244   7.234 -0.0521  0.8746 -2.8668
13617SOL     OW43996   7.467   3.535   6.489  0.2291 -0.1696 -0.3612
13617SOL    HW143997   7.375   3.560   6.495  0.2587 -0.4653  2.2110
13617SOL    HW243998   7.465   3.443   6.463 -0.3534 -0.8919  2.0240
13618SOL     OW43999   0.630   6.945   3.377  0.8898 -0.5347 -0.2976
13618SOL    HW144000   0.553   6.890   3.367  0.9685 -0.6130 -0.4708
13618SOL    HW244001   0.689   6.918   3.307  0.6167  0.2805 -0.8649
13619SOL     OW44002   6.444   4.090   0.557  0.2540  0.0013  0.4825
13619SOL    HW144003   6.414   4.059   0.471 -0.7564 -0.0581  0.8435
13619SOL    HW244004   6.398   4.033   0.619  0.5733  0.3880  1.0711
13620SOL     OW44005   7.047   7.280   6.813 -0.1011 -0.7528 -0.6967
13620SOL    HW144006   7.097   7.199   6.805 -0.3269 -0.8404 -1.2737
13620SOL    HW244007   7.081   7.322   6.892 -0.1779 -1.5451 -0.2342
13621SOL     OW44008   4.103   2.874   3.995 -0.5320  0.4711 -0.4672
13621SOL    HW144009   4.107   2.815   3.920  0.3065  0.1279 -0.1736
13621SOL    HW244010   4.054   2.825   4.061 -1.4811  0.8698 -0.8605
13622SOL     OW44011   5.185   5.096   0.725  0.6291  0.5994 -0.0869
13622SOL    HW144012   5.167   5.189   0.712  2.6068  1.0544  0.0681
13622SOL    HW244013   5.252   5.075   0.659 -0.7728 -1.0880 -1.0540
13623SOL     OW44014   7.883   6.625   3.478 -0.1031 -0.0365 -0.0085
13623SOL    HW144015   7.948   6.643   3.546  1.5903 -1.9109 -1.0211
13623SOL    HW244016   7.884   6.702   3.423  0.4316  0.4329  0.6413
13624SOL     OW44017   6.833   6.164   3.903  0.5824  0.3653  0.0709
13624SOL    HW144018   6.814   6.164   3.809  2.1510  2.7786 -0.3458
13624SOL    HW244019   6.912   6.109   3.911  0.7757  0.6134 -0.1148
13625SOL     OW44020   0.893   1.169   7.241 -0.3286 -0.3630 -0.7547
13625SOL    HW144021   0.831   1.126   7.182  0.3328 -1.7221 -0.4847
13625SOL    HW244022   0.845   1.178   7.323 -0.6286 -0.1453 -0.9485
13626SOL     OW44023   1.909   4.859   0.928  0.3308 -0.3537 -0.2675
13626SOL    HW144024   1.964   4.897   0.860  0.3987  3.1527  1.5102
13626SOL    HW244025   1.823   4.899   0.915 -0.6797 -2.4477 -0.4125
13627SOL     OW44026   5.736   6.847   2.805 -0.9636  0.4237 -0.0401
13627SOL    HW144027   5.784   6.916   2.851  1.5753 -0.8752 -0.5442
13627SOL    HW244028   5.753   6.863   2.712  0.5684 -1.3554 -0.1418
13628SOL     OW44029   2.630   5.804   6.468 -0.6541 -0.3744 -0.0031
13628SOL    HW144030   2.560   5.786   6.405  0.4935 -1.7972 -0.9430
13628SOL    HW244031   2.697   5.850   6.417  0.4072 -1.7845  0.0473
13629SOL     OW44032   6.927   2.420   2.429 -0.2307  0.1567  0.2421
13629SOL    HW144033   6.912   2.513   2.441  0.9058  0.4595 -0.4899
13629SOL    HW244034   6.999   2.415   2.365 -0.2879 -1.2112  0.2445
13630SOL     OW44035   0.743   0.829   4.928 -0.1609 -0.4452 -0.0510
13630SOL    HW144036   0.656   0.789   4.929 -0.2742 -0.2420  1.8537
13630SOL    HW244037   0.728   0.919   4.957  0.7044 -0.4880  0.5691
13631SOL     OW44038   3.499   1.407   5.322  0.4053  0.8810  1.0989
13631SOL    HW144039   3.469   1.385   5.410  0.5749 -1.3027  0.6619
13631SOL    HW244040   3.544   1.328   5.291  0.5137  1.6554 -0.8773
13632SOL     OW44041   5.994   1.974   0.565 -0.4467  0.3854 -0.0972
13632SOL    HW144042   5.946   1.982   0.482 -1.6198 -1.3645  0.3711
13632SOL    HW244043   5.939   2.020   0.628 -1.7929 -1.9219  0.5110
13633SOL     OW44044   3.261   2.381   1.945 -0.0080 -0.4019  0.4484
13633SOL    HW144045   3.180   2.330   1.942 -0.3726  0.0602 -3.9250
13633SOL    HW244046   3.327   2.322   1.908  1.2018  0.0225  1.8345
13634SOL     OW44047   5.539   1.795   3.543 -0.7703  0.4686  0.7140
13634SOL    HW144048   5.520   1.786   3.450 -1.3490 -0.3550  0.9022
13634SOL    HW244049   5.466   1.750   3.587 -0.1379  0.2342  1.5455
13635SOL     OW44050   5.294   3.513   6.367 -0.6016  0.2424 -0.1136
13635SOL    HW144051   5.250   3.490   6.285 -0.1285  1.5608 -0.7662
13635SOL    HW244052   5.300   3.609   6.365  1.1677  0.1886  0.5185
13636SOL     OW44053   0.774   7.921   5.054 -0.3371  0.3731 -0.5790
13636SOL    HW144054   0.779   7.972   4.974 -3.4412  0.0536 -1.0802
13636SOL    HW244055   0.722   7.974   5.115 -1.7110 -1.1676 -0.3355
13637SOL     OW44056   3.906   1.439   5.800  0.0140  0.0614 -0.3755
13637SOL    HW144057   3.857   1.515   5.832 -0.0735  0.0971 -0.5920
13637SOL    HW244058   3.972   1.476   5.741  1.6378  0.2113  1.4538
13638SOL     OW44059   7.863   0.683   3.670 -0.5640  0.4857 -0.4625
13638SOL    HW144060   7.808   0.695   3.747 -0.9250  0.0011 -0.6432
13638SOL    HW244061   7.889   0.591   3.673  0.2905  0.7243 -0.3430
13639SOL     OW44062   0.628   2.439   1.113 -0.1585 -0.0876 -0.6463
13639SOL    HW144063   0.618   2.514   1.054  0.5467 -0.9543 -1.9208
13639SOL    HW244064   0.697   2.386   1.073 -0.6849 -1.4555  0.1691
13640SOL     OW44065   3.017   6.360   2.378  0.4058 -0.0242  0.2765
13640SOL    HW144066   3.104   6.400   2.375  0.4851 -0.2126  0.0316
13640SOL    HW244067   3.029   6.281   2.431  0.2939  0.1619  0.5845
13641SOL     OW44068   6.462   0.045   4.370  0.1910  0.0739  0.1414
13641SOL    HW144069   6.481   0.070   4.460  2.0207  0.4093 -0.2929
13641SOL    HW244070   6.536   0.078   4.320 -0.2081 -1.1216 -1.3216
13642SOL     OW44071   2.642   0.255   5.765 -0.6283  0.3485  0.9046
13642SOL    HW144072   2.626   0.350   5.769 -1.3984  0.3343 -0.7647
13642SOL    HW244073   2.560   0.218   5.732  0.4586 -0.5715 -0.9806
13643SOL     OW44074   3.491   0.702   7.943  0.2371 -0.2080  0.1474
13643SOL    HW144075   3.488   0.606   7.940 -1.2374 -0.1882  0.4422
13643SOL    HW244076   3.428   0.730   7.876  2.1129  0.6085 -1.3850
13644SOL     OW44077   5.291   5.799   4.659 -0.2927 -0.2321 -0.2058
13644SOL    HW144078   5.336   5.782   4.576 -0.5930 -1.6013 -0.1216
13644SOL    HW244079   5.356   5.782   4.726 -0.7018 -1.5541 -0.1068
13645SOL     OW44080   0.875   7.405   6.155 -0.3179  0.6125  0.0551
13645SOL    HW144081   0.830   7.478   6.112 -1.7222 -0.4226 -0.2998
13645SOL    HW244082   0.893   7.343   6.084  1.0875  0.6940  0.3126
13646SOL     OW44083   3.035   0.056   6.515  0.1769  0.5455 -0.5145
13646SOL    HW144084   2.983  -0.023   6.502 -0.3975  1.1169 -1.8000
13646SOL    HW244085   2.975   0.118   6.558  0.4945  0.4400  0.0917
13647SOL     OW44086   3.991   7.288   5.498  0.0422 -0.0067  0.3857
13647SOL    HW144087   3.961   7.372   5.464  0.3321  0.9301  2.3015
13647SOL    HW244088   4.085   7.286   5.481 -0.1153 -0.3931 -0.5046
13648SOL     OW44089   5.951   0.700   5.582  1.0813  0.1473 -0.3299
13648SOL    HW144090   5.984   0.672   5.667 -0.4132 -0.7579 -0.0137
13648SOL    HW244091   5.896   0.776   5.601 -4.4428 -3.5689  0.6142
13649SOL     OW44092   3.711   6.386   0.906  0.3852  0.1904 -0.4273
13649SOL    HW144093   3.802   6.408   0.925  0.5215  1.6872 -2.4762
13649SOL    HW244094   3.712   6.356   0.815 -1.1484  0.0002 -0.4064
13650SOL     OW44095   3.267   4.312   2.360 -0.1188 -0.3568  0.1367
13650SOL    HW144096   3.330   4.282   2.425 -0.3290  1.7241  1.4055
13650SOL    HW244097   3.320   4.354   2.293 -0.0625  0.5020  0.7010
13651SOL     OW44098   5.573   7.554   3.883 -0.2871 -0.0689  0.1759
13651SOL    HW144099   5.666   7.530   3.889 -0.3931 -0.1777  2.5718
13651SOL    HW244100   5.533   7.483   3.834  0.3495 -1.9957  2.2650
13652SOL     OW44101   0.775   5.577   0.407  0.4664  0.4436  0.0139
13652SOL    HW144102   0.807   5.601   0.320 -1.1723 -0.5940 -0.9036
13652SOL    HW244103   0.854   5.581   0.462  1.6938  0.3681 -1.6431
13653SOL     OW44104   5.664   3.763   6.014  0.3440  0.1095 -0.0712
13653SOL    HW144105   5.577   3.725   6.025  0.7426 -1.2156 -1.2540
13653SOL    HW244106   5.648   3.858   6.015 -1.1726 -0.1057 -0.7244
13654SOL     OW44107   1.908   7.720   0.879  0.1314  0.0417  0.4722
13654SOL    HW144108   1.877   7.803   0.914  1.3594  1.4028 -1.4683
13654SOL    HW244109   1.838   7.658   0.899 -0.2058  1.1599  3.2215
13655SOL     OW44110   6.448   6.744   5.492 -0.0688  0.5805  0.0734
13655SOL    HW144111   6.438   6.713   5.582 -0.4384 -0.5201 -0.3238
13655SOL    HW244112   6.407   6.675   5.439 -0.2377  1.4188 -0.9086
13656SOL     OW44113   0.970   2.379   0.184  0.4607  0.8750  0.3672
13656SOL    HW144114   0.970   2.295   0.138 -1.0099  0.5135  0.9909
13656SOL    HW244115   0.964   2.356   0.277 -0.3428  1.6756  0.5268
13657SOL     OW44116   2.359   3.546   7.812  0.3348  0.3057 -0.4720
13657SOL    HW144117   2.358   3.641   7.825 -0.8331  0.1825  0.5643
13657SOL    HW244118   2.436   3.516   7.861 -0.1247  0.5738  0.4296
13658SOL     OW44119   7.461   2.953   7.941 -0.4320 -0.8840 -0.2064
13658SOL    HW144120   7.553   2.975   7.957 -0.6201  0.5420 -0.9565
13658SOL    HW244121   7.426   2.935   8.028  0.4764 -1.1245  0.1211
13659SOL     OW44122   7.087   4.512   6.958  0.1823  0.0716  0.3870
13659SOL    HW144123   7.044   4.592   6.927 -0.4848 -0.4181  0.0390
13659SOL    HW244124   7.171   4.543   6.993 -0.1680  0.9527  0.4792
13660SOL     OW44125   1.952   5.856   4.560 -0.6211 -0.2078 -0.7230
13660SOL    HW144126   1.888   5.806   4.610 -1.3342  1.3940  0.0141
13660SOL    HW244127   1.899   5.907   4.498  0.0059  0.3662 -0.7965
13661SOL     OW44128   3.295   7.615   5.222 -0.3841  0.0788 -0.0491
13661SOL    HW144129   3.288   7.598   5.129 -0.0048  1.0089 -0.2591
13661SOL    HW244130   3.257   7.537   5.264 -1.7206  0.2069 -0.9799
13662SOL     OW44131   4.508   4.592   0.503 -0.0580  0.6971  0.0568
13662SOL    HW144132   4.487   4.601   0.596 -1.0801  0.2647 -0.1210
13662SOL    HW244133   4.588   4.643   0.492  1.1600 -0.7571  1.5472
13663SOL     OW44134   5.117   7.567   7.510  0.3947 -0.0597 -0.1595
13663SOL    HW144135   5.024   7.585   7.503  0.6812  0.7938 -2.4998
13663SOL    HW244136   5.145   7.611   7.591 -1.2701 -0.7970  0.8766
13664SOL     OW44137   0.066   3.954   0.621  0.0480 -0.3851 -0.3852
13664SOL    HW144138   0.113   3.871   0.621  1.1106  0.1184  2.2032
13664SOL    HW244139   0.035   3.965   0.711 -2.9603  0.5117 -1.4143
13665SOL     OW44140   7.376   6.210   5.343 -0.1102 -0.0078 -0.3480
13665SOL    HW144141   7.301   6.165   5.304  0.5346 -2.3913  0.9545
13665SOL    HW244142   7.341   6.248   5.424 -0.2752  0.3888 -0.6015
13666SOL     OW44143   4.476   6.911   3.233 -0.2480  0.0730 -0.3432
13666SOL    HW144144   4.519   6.985   3.191 -0.2960  1.5807  2.0573
13666SOL    HW244145   4.430   6.866   3.162  1.4544  1.0974 -2.2136
13667SOL     OW44146   5.215   1.614   0.385 -0.0076 -0.3255 -0.3531
13667SOL    HW144147   5.194   1.524   0.361 -0.5345 -0.1760 -0.4641
13667SOL    HW244148   5.311   1.619   0.379  0.0637 -1.0082  0.1244
13668SOL     OW44149   2.225   3.489   4.549  0.2161 -0.1612 -0.1230
13668SOL    HW144150   2.177   3.501   4.466  1.2472  0.2505 -0.6744
13668SOL    HW244151   2.236   3.394   4.556  2.5163 -0.1116 -1.9018
13669SOL     OW44152   7.493   6.048   0.446 -0.0743 -0.7300  0.1860
13669SOL    HW144153   7.430   6.099   0.497 -0.9908 -2.0383  0.3983
13669SOL    HW244154   7.561   6.112   0.423 -1.1061  0.5564  0.5430
13670SOL     OW44155   0.547   0.702   8.058 -0.2155 -0.2424  0.4127
13670SOL    HW144156   0.520   0.652   7.982  1.9267 -2.4302  0.9765
13670SOL    HW244157   0.547   0.639   8.130  2.1846  0.5946  1.2529
13671SOL     OW44158   2.610   3.619   6.017 -0.3508 -0.7628 -0.3006
13671SOL    HW144159   2.516   3.631   6.029 -0.5229 -1.8017 -0.4849
13671SOL    HW244160   2.618   3.569   5.936  0.4158  0.0840 -0.7680
13672SOL     OW44161   2.398   0.969   7.660 -0.3309  0.1743 -0.3457
13672SOL    HW144162   2.474   0.962   7.603  1.1777 -2.0544  1.7514
13672SOL    HW244163   2.353   0.885   7.651 -0.7279  0.2372  0.7904
13673SOL     OW44164   5.660   1.002   6.110 -0.2438  0.4198 -0.4850
13673SOL    HW144165   5.753   0.981   6.110 -0.6599 -1.5993 -1.1460
13673SOL    HW244166   5.639   1.021   6.202  0.5790 -0.3022 -0.1381
13674SOL     OW44167   1.730   6.444   5.447  0.0386 -0.1910  0.0158
13674SOL    HW144168   1.661   6.387   5.481  0.3662 -0.3428  0.4385
13674SOL    HW244169   1.737   6.422   5.354 -0.4528 -0.2033 -0.0178
13675SOL     OW44170   2.368   2.086   6.751  0.4534 -0.4159 -0.0563
13675SOL    HW144171   2.344   2.131   6.670 -0.0884  0.6336  0.6515
13675SOL    HW244172   2.295   2.104   6.811 -0.0728 -2.7847  0.0923
13676SOL     OW44173   5.469   1.248   3.760 -0.0586 -0.5458  0.0337
13676SOL    HW144174   5.516   1.326   3.787  0.4462 -1.0168  0.5398
13676SOL    HW244175   5.381   1.259   3.796 -0.0460 -0.1143 -0.0714
13677SOL     OW44176   6.283   2.486   2.686  0.0324  0.0960  0.6921
13677SOL    HW144177   6.377   2.499   2.696 -0.0912  0.7947  0.9978
13677SOL    HW244178   6.248   2.489   2.775 -0.5784  2.3739  0.4460
13678SOL     OW44179   0.747   3.446   6.145 -0.1212  0.1420  0.5729
13678SOL    HW144180   0.682   3.503   6.103 -0.0724  0.5220  1.0000
13678SOL    HW244181   0.706   3.419   6.227 -0.4441 -1.0621  0.0335
13679SOL     OW44182   5.322   0.243   0.023 -0.7520 -0.3826  0.2232
13679SOL    HW144183   5.390   0.309   0.015  0.0781 -1.2482  0.0194
13679SOL    HW244184   5.305   0.236   0.117 -1.6236  0.8776  0.1806
13680SOL     OW44185   2.151   7.712   2.510  0.6401  0.1517 -0.1363
13680SOL    HW144186   2.099   7.754   2.441 -0.1553  0.0404  0.3735
13680SOL    HW244187   2.087   7.693   2.579  0.5231 -3.5712 -1.0488
13681SOL     OW44188   1.313   5.748   2.763 -0.1357 -0.2086 -0.3594
13681SOL    HW144189   1.314   5.842   2.742  0.4125 -0.0309  0.4161
13681SOL    HW244190   1.231   5.716   2.724 -0.7996  0.7836  0.1646
13682SOL     OW44191   5.412   2.926   0.372  0.3923  0.0021  0.2961
13682SOL    HW144192   5.427   2.859   0.306 -2.9452 -1.8155  1.1667
13682SOL    HW244193   5.328   2.966   0.348  0.2800  0.9767  2.1072
13683SOL     OW44194   3.269   7.514   3.948  0.0250  0.1778  0.0304
13683SOL    HW144195   3.196   7.561   3.987 -1.3388 -1.2410 -0.7178
13683SOL    HW244196   3.230   7.461   3.879  1.7501 -0.7222 -0.3164
13684SOL     OW44197   7.449   5.316   5.406  0.0449  0.2025 -0.0638
13684SOL    HW144198   7.495   5.380   5.350  0.3776 -0.9741 -1.1844
13684SOL    HW244199   7.357   5.324   5.380 -0.0938  0.9978  0.6102
13685SOL     OW44200   1.538   5.700   8.021 -0.0094 -0.0559 -0.1798
13685SOL    HW144201   1.573   5.611   8.022  1.0654  0.3509  0.8882
13685SOL    HW244202   1.448   5.690   8.052 -0.1568 -0.8468 -0.8074
13686SOL     OW44203   4.609   0.426   6.912  0.3094 -0.4001  0.1478
13686SOL    HW144204   4.581   0.357   6.974  1.8147 -1.0702  0.1312
13686SOL    HW244205   4.686   0.389   6.869  0.4708  0.8687 -0.6916
13687SOL     OW44206   7.292   3.663   7.432 -0.5482 -0.1469 -0.0489
13687SOL    HW144207   7.314   3.742   7.481 -1.4378  0.4584 -0.5762
13687SOL    HW244208   7.355   3.661   7.360  1.0084 -1.2473  1.2706
13688SOL     OW44209   1.339   7.302   0.206 -0.1390  0.4723  0.2207
13688SOL    HW144210   1.395   7.315   0.129 -1.6482  1.0932 -0.8056
13688SOL    HW244211   1.364   7.215   0.239  0.6152  0.2451 -0.8911
13689SOL     OW44212   2.365   4.471   8.010  0.6425  0.1457  0.2851
13689SOL    HW144213   2.321   4.411   7.949  2.0621 -1.6791  0.9637
13689SOL    HW244214   2.447   4.493   7.966  0.4698  0.9938  0.3806
13690SOL     OW44215   2.276   7.966   3.067 -0.4466 -0.0248 -0.4353
13690SOL    HW144216   2.338   7.936   3.001  0.6263 -1.0515  0.9738
13690SOL    HW244217   2.326   8.025   3.123 -0.5196 -1.3129  1.0617
13691SOL     OW44218   2.189   3.932   2.598  0.0618  0.6398 -0.0021
13691SOL    HW144219   2.110   3.966   2.556 -1.0999 -1.9701 -0.1398
13691SOL    HW244220   2.260   3.957   2.539 -0.9310  1.1971 -1.0078
13692SOL     OW44221   0.332   4.374   1.774 -0.1894  0.5160  0.0852
13692SOL    HW144222   0.293   4.324   1.846  2.6553 -0.8228  0.8694
13692SOL    HW244223   0.410   4.414   1.813  1.2292  0.0981 -2.1186
13693SOL     OW44224   4.314   4.585   1.214  0.0986 -0.1202  0.7900
13693SOL    HW144225   4.259   4.515   1.178  0.6154 -0.8143  1.3283
13693SOL    HW244226   4.352   4.547   1.293  2.0069  0.0510 -0.0013
13694SOL     OW44227   2.667   5.372   3.673 -0.5920 -0.8389  0.4797
13694SOL    HW144228   2.718   5.298   3.708 -1.7386 -1.9616 -0.1171
13694SOL    HW244229   2.578   5.355   3.704 -0.6058  1.2256  1.7353
13695SOL     OW44230   2.896   6.375   4.130  0.1849  0.2154 -0.7554
13695SOL    HW144231   2.923   6.449   4.184  0.0032 -0.0701 -0.2688
13695SOL    HW244232   2.976   6.324   4.118  0.2595  0.3628 -0.8963
13696SOL     OW44233   8.080   3.899   2.961  0.0879 -0.3923 -0.2277
13696SOL    HW144234   8.084   3.913   2.866 -0.1668 -1.4016 -0.3967
13696SOL    HW244235   8.028   3.972   2.993 -2.9948 -1.9517 -1.3300
13697SOL     OW44236   1.760   1.364   1.073 -0.3818 -0.0960 -0.3162
13697SOL    HW144237   1.676   1.340   1.112  0.7736 -2.9795  0.6950
13697SOL    HW244238   1.809   1.408   1.143  0.1419 -1.4675  0.2087
13698SOL     OW44239   7.795   0.653   0.424  0.8979 -0.3456 -0.9871
13698SOL    HW144240   7.743   0.683   0.499  0.4363 -0.8673 -1.0953
13698SOL    HW244241   7.755   0.570   0.399  3.2761 -2.0536  0.4773
13699SOL     OW44242   8.051   3.038   3.554  0.6458 -0.6089  0.3292
13699SOL    HW144243   8.116   3.107   3.543 -0.6183  0.8956  1.7334
13699SOL    HW244244   8.055   2.987   3.473  0.6526  1.9523 -1.3818
13700SOL     OW44245   7.248   5.205   3.885 -0.7008 -0.1647 -0.0032
13700SOL    HW144246   7.245   5.137   3.951  0.5879 -0.7469 -0.5221
13700SOL    HW244247   7.341   5.229   3.878 -1.2848  3.6621  2.1687
13701SOL     OW44248   2.273   6.097   1.773  0.1712  0.5589  0.0960
13701SOL    HW144249   2.204   6.163   1.767 -0.1184  0.5365  2.2587
13701SOL    HW244250   2.243   6.026   1.717 -0.7450  1.2442 -0.3131
13702SOL     OW44251   2.376   3.574   0.283 -0.1170  0.2935  0.0657
13702SOL    HW144252   2.369   3.479   0.280  2.8995 -0.0271 -0.2626
13702SOL    HW244253   2.317   3.605   0.214  0.0744 -1.4655 -0.9425
13703SOL     OW44254   7.490   2.520   2.814 -0.3191 -0.1863 -0.0523
13703SOL    HW144255   7.417   2.466   2.784 -0.0024 -0.5009 -0.2574
13703SOL    HW244256   7.568   2.466   2.800  0.0292  0.4137 -0.5137
13704SOL     OW44257   4.800   0.139   7.219  0.6151  0.0363  0.6576
13704SOL    HW144258   4.868   0.174   7.162  0.7547  0.3807  1.0307
13704SOL    HW244259   4.847   0.086   7.283  0.6262  0.9229  1.4068
13705SOL     OW44260   7.900   1.292   6.126 -0.1947 -0.5851  0.5697
13705SOL    HW144261   7.815   1.295   6.083 -0.0820 -0.9468  0.3155
13705SOL    HW244262   7.957   1.247   6.063  0.6579  1.3228 -0.0881
13706SOL     OW44263   0.159   8.091   4.617  0.4814  0.3614 -0.2626
13706SOL    HW144264   0.134   8.173   4.575 -0.8318  0.3879  0.5208
13706SOL    HW244265   0.254   8.087   4.608  0.5347  1.8434 -0.5279
13707SOL     OW44266   0.325   5.484   2.825  0.9628  0.3439  0.2149
13707SOL    HW144267   0.399   5.523   2.778  0.7590  0.0657 -0.3512
13707SOL    HW244268   0.266   5.454   2.755  0.3272  0.5428  0.6567
13708SOL     OW44269   2.974   1.526   6.383 -0.3155 -0.0830  0.1368
13708SOL    HW144270   2.887   1.541   6.419  0.7695 -1.0256  3.5023
13708SOL    HW244271   2.961   1.460   6.314 -2.0762 -1.5645  1.7887
13709SOL     OW44272   7.976   2.041   7.898 -0.1197 -0.2641  0.5255
13709SOL    HW144273   7.932   1.983   7.837 -0.3421 -0.2418  0.6631
13709SOL    HW244274   7.915   2.113   7.911  0.2180  0.0868  0.2312
13710SOL     OW44275   5.810   1.827   6.903 -0.3050  0.0603 -0.0069
13710SOL    HW144276   5.765   1.911   6.892 -0.8341 -0.2133  0.0246
13710SOL    HW244277   5.748   1.762   6.869  0.1877 -0.2986 -0.2348
13711SOL     OW44278   4.355   4.275   2.199  0.2610 -0.1059 -0.1601
13711SOL    HW144279   4.390   4.222   2.270 -2.0280  0.1461  1.2508
13711SOL    HW244280   4.292   4.218   2.155 -0.8049  0.7868  0.1576
13712SOL     OW44281   3.630   1.802   1.788 -0.5848  0.2867 -0.6084
13712SOL    HW144282   3.638   1.707   1.794 -0.2408  0.2865 -1.0046
13712SOL    HW244283   3.624   1.819   1.694  1.7655  0.8297 -0.7177
13713SOL     OW44284   4.951   1.634   0.006  0.2508  0.5112 -0.0492
13713SOL    HW144285   4.989   1.708  -0.041  1.8440 -0.2391 -0.0067
13713SOL    HW244286   4.996   1.558  -0.030 -0.1602 -0.2828  1.0781
13714SOL     OW44287   2.585   0.763   3.012  0.0022 -0.1379 -0.2715
13714SOL    HW144288   2.672   0.803   3.011 -0.0911  0.4323  2.9707
13714SOL    HW244289   2.593   0.688   3.071 -1.7034 -0.0172  0.1891
13715SOL     OW44290   4.745   2.055   5.210  0.1265 -0.3339  0.2843
13715SOL    HW144291   4.821   2.066   5.153  1.0048 -0.7568  1.3374
13715SOL    HW244292   4.782   2.036   5.296 -1.1591  0.9599  1.1616
13716SOL     OW44293   2.710   4.380   5.032 -0.0366 -0.0059 -0.6879
13716SOL    HW144294   2.769   4.305   5.029 -1.2334 -0.9855 -0.4909
13716SOL    HW244295   2.684   4.394   4.941 -2.7454 -2.2941 -0.3984
13717SOL     OW44296   8.077   3.991   2.350 -1.1374  0.0359 -0.2946
13717SOL    HW144297   8.014   4.004   2.278 -0.4927 -2.2455 -1.3865
13717SOL    HW244298   8.068   3.898   2.372  2.4565 -0.6416 -1.1443
13718SOL     OW44299   6.994   3.895   2.817 -0.3707 -0.0938  0.0292
13718SOL    HW144300   6.900   3.910   2.809 -0.8543 -2.1573  1.0733
13718SOL    HW244301   7.010   3.816   2.765  1.0292  0.8205 -1.0216
13719SOL     OW44302   3.840   2.052   4.436 -0.1063 -0.0993 -0.2829
13719SOL    HW144303   3.801   2.133   4.403 -0.2652 -0.3690 -0.7711
13719SOL    HW244304   3.897   2.022   4.365  0.7048  0.0840  0.2644
13720SOL     OW44305   7.121   6.194   0.252  0.0050 -0.3410 -0.7434
13720SOL    HW144306   7.030   6.171   0.267 -0.0627 -1.3839 -2.5103
13720SOL    HW244307   7.151   6.134   0.185  2.3611 -0.8099  0.5956
13721SOL     OW44308   4.995   3.401   2.876  0.3438  0.3154 -0.4076
13721SOL    HW144309   4.981   3.467   2.945  0.3834 -0.8544  0.7710
13721SOL    HW244310   5.014   3.452   2.797 -0.1874  1.7191  0.3326
13722SOL     OW44311   2.901   1.263   1.345 -0.1214 -0.0976  0.4038
13722SOL    HW144312   2.848   1.341   1.329  0.1233 -0.2749 -1.5618
13722SOL    HW244313   2.967   1.264   1.276 -0.3933 -2.2516  0.0142
13723SOL     OW44314   1.076   2.588   6.710  0.1328  0.3928 -0.5297
13723SOL    HW144315   1.016   2.522   6.674  1.1555 -0.5983 -0.4679
13723SOL    HW244316   1.147   2.593   6.646  0.0254  1.5225 -0.5805
13724SOL     OW44317   2.916   6.245   6.435  0.2760 -0.0175  0.3278
13724SOL    HW144318   2.959   6.303   6.497  0.1494 -1.4728  1.8353
13724SOL    HW244319   2.848   6.200   6.485 -0.9163 -0.0783 -1.2534
13725SOL     OW44320   4.630   2.035   7.277  0.4321  0.2908 -0.4719
13725SOL    HW144321   4.686   1.998   7.345  0.5122  1.9885  0.4516
13725SOL    HW244322   4.549   2.058   7.322  0.3543  1.1094 -0.9956
13726SOL     OW44323   7.205   3.621   0.189 -0.9719 -0.1868  0.4259
13726SOL    HW144324   7.199   3.715   0.173 -0.9570 -0.1045  0.8890
13726SOL    HW244325   7.234   3.614   0.280 -1.3209 -0.6425  0.5052
13727SOL     OW44326   7.595   5.265   7.124 -0.3510  0.2830  0.0412
13727SOL    HW144327   7.589   5.302   7.211 -0.8437  1.6414 -0.5491
13727SOL    HW244328   7.647   5.185   7.135 -1.1744 -0.0571  1.7039
13728SOL     OW44329   6.123   4.683   7.999  0.3478  0.0479  0.2818
13728SOL    HW144330   6.117   4.719   8.087 -0.9139  2.1364 -0.5909
13728SOL    HW244331   6.126   4.588   8.012 -1.6081  0.1950  2.5346
13729SOL     OW44332   6.150   5.016   5.992  0.1742 -0.3342 -0.1234
13729SOL    HW144333   6.137   4.924   5.967  0.1105 -0.7032  1.2018
13729SOL    HW244334   6.080   5.063   5.946  0.2233 -0.9414 -0.8343
13730SOL     OW44335   0.054   1.370   3.074 -0.5085 -0.0259  0.3838
13730SOL    HW144336   0.094   1.283   3.072 -0.6825 -0.0925 -0.5511
13730SOL    HW244337  -0.018   1.365   3.011 -1.0677  0.5364  0.9696
13731SOL     OW44338   7.524   5.498   3.371 -0.2786 -0.1993  0.1204
13731SOL    HW144339   7.571   5.416   3.355  0.3397 -0.2829  2.0641
13731SOL    HW244340   7.438   5.484   3.333 -0.4814 -2.1148  1.1437
13732SOL     OW44341   4.497   8.072   4.158  0.6801 -0.7955  0.1984
13732SOL    HW144342   4.519   8.082   4.250 -0.0706 -0.2813  0.3316
13732SOL    HW244343   4.418   8.124   4.146  1.9970  1.0287 -1.2187
13733SOL     OW44344   3.193   3.130   3.046 -0.2686 -0.1235  0.3993
13733SOL    HW144345   3.203   3.156   3.138  0.6116 -1.0117  0.5839
13733SOL    HW244346   3.104   3.156   3.023 -0.0379  1.3687  1.0748
13734SOL     OW44347   0.443   3.840   5.099  0.1588 -0.2506  0.2807
13734SOL    HW144348   0.403   3.774   5.155  0.7867  1.0365  2.3744
13734SOL    HW244349   0.516   3.795   5.056  0.4822 -0.9658  1.5519
13735SOL     OW44350   3.771   0.318   7.827 -0.3614 -0.3565  0.3557
13735SOL    HW144351   3.858   0.358   7.834 -0.2464 -0.8462  2.2905
13735SOL    HW244352   3.788   0.224   7.833 -0.6834 -0.8159 -3.5119
13736SOL     OW44353   2.716   3.774   3.281 -0.0585 -0.1260 -0.5858
13736SOL    HW144354   2.710   3.679   3.270  1.7126 -0.5121  1.1928
13736SOL    HW244355   2.699   3.789   3.374  2.0749  0.9908 -0.3000
13737SOL     OW44356   2.009   3.696   6.731 -0.2726 -0.0874 -0.1754
13737SOL    HW144357   2.028   3.602   6.726  0.2610 -0.0765  1.2564
13737SOL    HW244358   1.982   3.720   6.642 -0.2866 -1.5630 -0.5904
13738SOL     OW44359   5.587   2.064   3.592 -0.2844  0.0465  0.2815
13738SOL    HW144360   5.669   2.055   3.543  1.5456 -0.4385  3.1539
13738SOL    HW244361   5.542   1.981   3.579 -1.4821  1.0753 -3.0465
13739SOL     OW44362   5.356   1.305   2.474 -0.6177  0.6150  0.4116
13739SOL    HW144363   5.445   1.340   2.486 -0.8056  1.0141  0.6484
13739SOL    HW244364   5.369   1.211   2.460 -0.0457  0.8700 -0.9994
13740SOL     OW44365   7.796   4.183   0.487  0.1533 -0.7180 -0.0025
13740SOL    HW144366   7.847   4.229   0.420 -0.3316 -0.7685 -0.4184
13740SOL    HW244367   7.818   4.227   0.568  0.2382 -0.2131 -0.2948
13741SOL     OW44368   1.834   7.213   2.122  0.3273 -0.2554 -0.0594
13741SOL    HW144369   1.872   7.127   2.108 -1.4391 -1.1059  0.1305
13741SOL    HW244370   1.753   7.212   2.071  1.6093  2.3482 -2.4178
13742SOL     OW44371   4.252   2.812   7.578  0.0929  0.0814 -0.2406
13742SOL    HW144372   4.260   2.798   7.672  0.3256  0.9892 -0.1153
13742SOL    HW244373   4.307   2.744   7.539  0.3637 -0.0154  0.2938
13743SOL     OW44374   3.530   0.385   6.832  0.3093  0.1080 -0.4097
13743SOL    HW144375   3.492   0.297   6.833 -1.8550  0.9347 -2.3255
13743SOL    HW244376   3.529   0.413   6.924  1.4894 -1.9765  0.3078
13744SOL     OW44377   7.751   0.670   6.653  0.5632  0.0315 -0.3174
13744SOL    HW144378   7.708   0.722   6.721 -1.2721 -1.5311 -0.2097
13744SOL    HW244379   7.810   0.612   6.701 -0.1446 -0.5223 -0.1035
13745SOL     OW44380   1.932   1.704   5.366 -0.0983  0.1545 -0.1461
13745SOL    HW144381   1.981   1.760   5.306 -0.0351 -0.0356 -0.2703
13745SOL    HW244382   1.887   1.641   5.310 -0.2295  0.1257 -0.0100
13746SOL     OW44383   0.686   6.916   0.396  0.3019 -0.2916 -0.6366
13746SOL    HW144384   0.691   6.820   0.400 -0.7065 -0.3656 -0.7284
13746SOL    HW244385   0.776   6.945   0.384  1.1222 -1.0467  2.7017
13747SOL     OW44386   3.487   1.724   2.611 -0.6970  0.3131 -0.4903
13747SOL    HW144387   3.524   1.773   2.539  0.4337  0.1405 -0.0523
13747SOL    HW244388   3.458   1.790   2.674 -0.4061  0.4438 -0.4929
13748SOL     OW44389   2.020   6.545   6.465  0.1561  0.5333 -0.0509
13748SOL    HW144390   2.048   6.546   6.557 -0.7740  0.8582  0.2382
13748SOL    HW244391   2.073   6.612   6.423 -1.0208  2.0154  0.7507
13749SOL     OW44392   6.927   6.354   6.124 -0.7003 -0.0552 -0.4055
13749SOL    HW144393   6.994   6.348   6.056  0.0549 -0.3182  0.3355
13749SOL    HW244394   6.972   6.325   6.204 -2.2687 -2.3171 -0.2470
13750SOL     OW44395   0.390   1.422   7.985  0.1321 -0.9161  0.1814
13750SOL    HW144396   0.341   1.443   7.906  0.6705  0.9160  0.2895
13750SOL    HW244397   0.369   1.330   8.003 -1.0679 -0.9643 -1.3010
13751SOL     OW44398   3.891   2.396   2.046 -0.0174 -0.2451 -0.4295
13751SOL    HW144399   3.898   2.306   2.012  1.6410 -0.0770 -0.6325
13751SOL    HW244400   3.866   2.448   1.969  2.8905  0.0028 -1.3459
13752SOL     OW44401   3.970   0.638   7.390  0.4258 -0.7310 -0.3794
13752SOL    HW144402   3.969   0.730   7.361 -0.3346 -0.7915 -0.5565
13752SOL    HW244403   4.030   0.595   7.329 -1.3198 -0.8969 -2.0799
13753SOL     OW44404   0.058   1.614   3.836  0.1210 -0.8008  1.0563
13753SOL    HW144405   0.087   1.633   3.746  0.1904 -0.0301  1.2377
13753SOL    HW244406  -0.011   1.549   3.825 -2.5773  1.9477  0.1066
13754SOL     OW44407   4.206   4.373   7.446  0.3374  0.1850 -0.7238
13754SOL    HW144408   4.292   4.408   7.422 -0.2233  1.7626 -0.5831
13754SOL    HW244409   4.151   4.394   7.370 -0.4032  1.1559  0.0526
13755SOL     OW44410   4.892   5.296   1.658  0.2501 -0.1549  0.2584
13755SOL    HW144411   4.974   5.249   1.677  0.4861  0.3828  0.5764
13755SOL    HW244412   4.886   5.362   1.726 -1.3907 -1.3501  1.3612
13756SOL     OW44413   3.549   0.943   3.796  0.0938 -0.2016  0.2646
13756SOL    HW144414   3.481   0.995   3.839 -0.1379 -1.7704  1.9214
13756SOL    HW244415   3.557   0.981   3.709 -1.0587  1.6632  0.9146
13757SOL     OW44416   6.483   1.195   5.262 -0.2279  0.5012 -0.4289
13757SOL    HW144417   6.415   1.146   5.310  0.1107 -2.2936 -2.5404
13757SOL    HW244418   6.552   1.130   5.246  1.5095  2.4204 -1.1780
13758SOL     OW44419   3.108   5.815   7.912 -0.2826  0.1166 -0.0606
13758SOL    HW144420   3.044   5.767   7.858  0.4529  0.1212 -0.9728
13758SOL    HW244421   3.191   5.771   7.895  0.1679  0.8605  0.1678
13759SOL     OW44422   6.991   6.935   1.078 -0.0975  0.1877 -0.0572
13759SOL    HW144423   6.941   7.002   1.124  0.2356  2.1957 -2.4001
13759SOL    HW244424   6.928   6.865   1.062 -1.6890  1.8184 -1.2517
13760SOL     OW44425   5.565   6.008   4.884  0.4279 -0.3975 -0.0648
13760SOL    HW144426   5.516   5.926   4.893 -0.2763  0.1827  1.8892
13760SOL    HW244427   5.655   5.985   4.907 -0.1208 -0.3161  2.5028
13761SOL     OW44428   3.727   2.713   0.415 -0.1698  0.1089 -0.7565
13761SOL    HW144429   3.744   2.730   0.507  1.5331 -1.6362 -0.6758
13761SOL    HW244430   3.674   2.632   0.415 -0.5433  0.3447 -1.3105
13762SOL     OW44431   7.177   3.424   7.379  0.0838  0.2113 -0.3436
13762SOL    HW144432   7.107   3.424   7.445 -0.4745  0.3135 -0.9306
13762SOL    HW244433   7.223   3.507   7.393  2.2768 -1.2915  2.3035
13763SOL     OW44434   7.247   6.589   1.138  0.2248  0.3852  0.1039
13763SOL    HW144435   7.304   6.585   1.215  1.0017  0.5174 -0.4542
13763SOL    HW244436   7.164   6.623   1.172 -0.6045 -2.6861  1.5473
13764SOL     OW44437   3.837   3.446   3.374 -0.0141  0.1674 -0.2116
13764SOL    HW144438   3.878   3.518   3.326 -0.1788  0.7501  0.4970
13764SOL    HW244439   3.907   3.381   3.384  0.5395  0.8217  0.3092
13765SOL     OW44440   0.802   3.601   0.017 -0.2301  0.5286  0.5268
13765SOL    HW144441   0.776   3.651  -0.060  1.3020  0.3437 -0.1447
13765SOL    HW244442   0.814   3.512  -0.016 -1.2409  0.0717  1.3517
13766SOL     OW44443   2.066   2.294   6.514 -0.0783 -0.2292  0.0378
13766SOL    HW144444   1.984   2.319   6.557 -0.7934 -0.7907 -0.9455
13766SOL    HW244445   2.076   2.359   6.444  1.2399  0.8694  1.1859
13767SOL     OW44446   2.194   2.773   7.566 -0.9116 -0.5651 -0.2322
13767SOL    HW144447   2.112   2.794   7.611 -0.5132 -2.6838  1.6824
13767SOL    HW244448   2.206   2.679   7.581  1.0260 -0.6572 -1.9234
13768SOL     OW44449   4.106   6.251   3.431 -0.4723 -0.5258  0.1069
13768SOL    HW144450   4.174   6.213   3.487 -0.5729 -0.6110  0.1718
13768SOL    HW244451   4.029   6.256   3.487  0.2213  2.2768  0.9701
13769SOL     OW44452   0.651   3.366   6.569  0.5131  0.0673  0.6065
13769SOL    HW144453   0.702   3.410   6.636  1.3736  1.1268 -0.6802
13769SOL    HW244454   0.692   3.280   6.559  1.1931  0.3977  0.5445
13770SOL     OW44455   6.307   4.596   0.843 -0.3529 -0.0809  0.0370
13770SOL    HW144456   6.386   4.583   0.895  0.7077  1.0254 -1.2197
13770SOL    HW244457   6.271   4.508   0.832  0.6321 -0.5876  0.7389
13771SOL     OW44458   6.215   2.811   7.368 -0.5888 -0.0585  0.2713
13771SOL    HW144459   6.137   2.864   7.348 -0.1230  0.9293  0.9885
13771SOL    HW244460   6.279   2.874   7.402  0.9077 -0.6742 -1.2627
13772SOL     OW44461   3.405   5.463   1.452  0.2470 -0.2476  0.3540
13772SOL    HW144462   3.345   5.460   1.526  1.5645  0.0823  1.4692
13772SOL    HW244463   3.381   5.543   1.405  1.4915  1.3996  2.3211
13773SOL     OW44464   4.325   2.681   6.890  0.2304  0.3926 -0.0765
13773SOL    HW144465   4.337   2.725   6.806 -0.1551  0.1007 -0.2842
13773SOL    HW244466   4.256   2.617   6.875  0.1776  0.3173  0.4558
13774SOL     OW44467   5.134   2.598   7.313  0.1334 -0.1270  0.3616
13774SOL    HW144468   5.142   2.685   7.352 -0.0715  0.0338  0.0511
13774SOL    HW244469   5.100   2.615   7.225 -1.3497 -0.6163  0.8164
13775SOL     OW44470   7.225   3.212   4.042 -0.4823  0.2144  0.5752
13775SOL    HW144471   7.275   3.214   4.124  1.9056 -2.9805 -0.6217
13775SOL    HW244472   7.290   3.195   3.974 -2.7402 -0.1152 -1.6447
13776SOL     OW44473   6.595   3.508   3.175  0.0565  0.2281 -0.2595
13776SOL    HW144474   6.672   3.536   3.225  0.3359  1.4947 -1.3638
13776SOL    HW244475   6.526   3.569   3.201 -0.5294 -0.7464  0.5352
13777SOL     OW44476   0.515   0.346   2.981 -0.4411 -0.0235  0.2491
13777SOL    HW144477   0.459   0.318   2.909  1.1594 -0.1644 -0.9964
13777SOL    HW244478   0.457   0.347   3.057 -2.0548 -0.4093 -0.9174
13778SOL     OW44479   7.551   1.406   5.012  0.1583  1.0389  0.3499
13778SOL    HW144480   7.585   1.325   5.051 -0.0892  1.1970  0.9003
13778SOL    HW244481   7.491   1.377   4.944  1.3342  0.7488 -0.6073
13779SOL     OW44482   6.192   6.283   6.168 -0.7079 -0.2677 -0.1200
13779SOL    HW144483   6.146   6.358   6.131 -0.0066 -0.1017 -0.6590
13779SOL    HW244484   6.158   6.277   6.257 -0.7992  0.6696 -0.0772
13780SOL     OW44485   1.208   3.135   3.623 -0.0813 -0.3053  0.2860
13780SOL    HW144486   1.127   3.181   3.602  1.0430  1.0534 -1.3643
13780SOL    HW244487   1.241   3.106   3.538  1.5958 -0.0376  0.8123
13781SOL     OW44488   7.924   6.989   5.105 -0.7151  0.4754 -0.5481
13781SOL    HW144489   7.896   7.040   5.181 -0.5077 -1.0211  0.5964
13781SOL    HW244490   8.020   6.983   5.115 -0.8215 -0.9599 -0.0496
13782SOL     OW44491   8.072   7.751   0.601 -0.8153 -0.6715  0.0832
13782SOL    HW144492   8.149   7.766   0.546 -0.0579 -0.1508  1.2322
13782SOL    HW244493   8.056   7.657   0.596 -0.4401 -0.6994 -0.6043
13783SOL     OW44494   4.574   7.849   2.628 -0.0517  0.4792 -0.3372
13783SOL    HW144495   4.656   7.827   2.673  0.4169  1.1152 -0.8542
13783SOL    HW244496   4.518   7.883   2.698 -0.0804 -0.4636  0.1176
13784SOL     OW44497   2.330   0.058   6.339  0.1514 -0.0294  0.0901
13784SOL    HW144498   2.327   0.070   6.244 -0.1627  0.1584  0.1242
13784SOL    HW244499   2.354  -0.034   6.350 -0.1220 -0.1369 -0.1755
13785SOL     OW44500   6.131   6.683   1.184  0.1164 -0.3248  0.1224
13785SOL    HW144501   6.148   6.679   1.090  1.6609  0.0379  0.3520
13785SOL    HW244502   6.168   6.767   1.212 -2.0173  0.4423  0.7688
13786SOL     OW44503   1.205   1.036   6.551 -0.0212  0.5228  0.2190
13786SOL    HW144504   1.153   1.043   6.631 -1.3623 -0.0362 -0.5607
13786SOL    HW244505   1.188   1.118   6.504 -0.1654  0.3645 -0.0108
13787SOL     OW44506   5.989   3.164   5.785  0.2784  0.4451  0.2839
13787SOL    HW144507   6.039   3.244   5.804  1.8386  0.0024 -1.5614
13787SOL    HW244508   5.919   3.163   5.850 -0.1937  3.6587  0.0011
13788SOL     OW44509   1.303   5.768   6.858 -0.0702 -0.4635  0.0834
13788SOL    HW144510   1.272   5.841   6.911  1.2929  0.4079 -0.2556
13788SOL    HW244511   1.241   5.763   6.785 -1.1564 -0.7764  0.9963
13789SOL     OW44512   7.915   5.094   5.536  0.1516  0.1005  0.1447
13789SOL    HW144513   7.843   5.122   5.592  0.2071 -1.0946  0.8533
13789SOL    HW244514   7.950   5.175   5.499 -2.6108  0.6423 -1.5769
13790SOL     OW44515   8.033   1.574   5.873 -0.2249 -0.1404  0.3165
13790SOL    HW144516   8.037   1.487   5.834 -0.7264  0.1670 -0.4391
13790SOL    HW244517   8.021   1.558   5.967  0.2719 -0.8826  0.2614
13791SOL     OW44518   3.238   5.368   5.508  0.1199 -0.4480  0.4172
13791SOL    HW144519   3.240   5.336   5.598  0.2787 -1.6016  0.0172
13791SOL    HW244520   3.155   5.335   5.473  0.7280 -1.2514 -0.2887
13792SOL     OW44521   7.525   4.483   6.930 -0.3193  0.6677 -0.0667
13792SOL    HW144522   7.505   4.497   6.837  0.8805 -0.3063 -0.5046
13792SOL    HW244523   7.567   4.397   6.932  0.6462  1.1405  1.2403
13793SOL     OW44524   6.736   0.949   0.597 -0.5033 -0.4518 -0.3174
13793SOL    HW144525   6.785   0.888   0.542 -0.2049  0.8941 -1.6051
13793SOL    HW244526   6.714   1.021   0.539 -1.3576  0.4043  1.0179
13794SOL     OW44527   1.030   6.744   0.270  0.1317  0.7406 -0.1077
13794SOL    HW144528   0.958   6.682   0.264 -0.1218  0.8423  1.5211
13794SOL    HW244529   1.088   6.707   0.336 -0.6089  2.7673  1.7859
13795SOL     OW44530   0.119   4.116   2.788  0.1358 -0.8357  0.7063
13795SOL    HW144531   0.114   4.183   2.719  1.0884 -0.9030  0.5694
13795SOL    HW244532   0.080   4.159   2.865  0.5124 -0.2034  0.5542
13796SOL     OW44533   6.605   3.788   4.739  0.1727 -0.3770 -0.0239
13796SOL    HW144534   6.530   3.752   4.786 -0.2485 -0.7631 -0.9822
13796SOL    HW244535   6.641   3.854   4.800 -2.3250  1.5272 -0.4295
13797SOL     OW44536   6.725   0.829   8.000  0.7002 -0.0376 -0.0110
13797SOL    HW144537   6.654   0.878   7.960 -0.9402 -1.5882  0.8601
13797SOL    HW244538   6.792   0.822   7.931  0.6030  2.5200 -0.4418
13798SOL     OW44539   2.955   7.382   1.758 -0.0272  0.2878  0.7235
13798SOL    HW144540   3.022   7.324   1.795  1.3891  0.6909 -1.1102
13798SOL    HW244541   2.912   7.329   1.691 -0.0002  0.7518  0.3370
13799SOL     OW44542   4.407   5.606   7.448 -0.2139 -0.0397  0.0814
13799SOL    HW144543   4.431   5.592   7.356 -1.1049  2.4815 -0.6300
13799SOL    HW244544   4.481   5.655   7.485  0.9577 -2.5455  1.2964
13800SOL     OW44545   7.263   6.861   4.771  0.1739  0.5440  1.0954
13800SOL    HW144546   7.237   6.787   4.825  0.3820 -0.9737 -0.7992
13800SOL    HW244547   7.331   6.906   4.822  1.8001 -1.9720  1.2909
13801SOL     OW44548   7.898   5.351   4.611  0.6275 -0.1556  0.0403
13801SOL    HW144549   7.994   5.350   4.613  0.6537  1.4186  0.5210
13801SOL    HW244550   7.876   5.297   4.536  1.9907  1.5999 -1.7369
13802SOL     OW44551   5.021   6.163   7.384 -0.0854  0.7150  0.4075
13802SOL    HW144552   4.931   6.147   7.357  0.5330 -0.8011 -0.8954
13802SOL    HW244553   5.051   6.078   7.419  1.4065  0.6442 -0.9465
13803SOL     OW44554   3.471   1.873   2.867 -0.3484  0.1398 -0.3983
13803SOL    HW144555   3.495   1.943   2.807  0.0416 -0.8140 -1.4080
13803SOL    HW244556   3.379   1.854   2.847 -0.1758 -0.2777 -0.8118
13804SOL     OW44557   5.597   3.723   7.337  0.3929  0.2729 -0.4501
13804SOL    HW144558   5.563   3.703   7.250 -1.7591  0.3921  0.3142
13804SOL    HW244559   5.685   3.684   7.338 -1.2297 -3.8522 -1.0951
13805SOL     OW44560   4.514   8.051   6.211  0.4673  0.4182  0.2718
13805SOL    HW144561   4.592   8.059   6.157  1.1909 -1.3519  0.9953
13805SOL    HW244562   4.540   8.086   6.296  0.3558  0.1706  0.4077
13806SOL     OW44563   3.589   3.876   2.133  0.3684 -0.2506 -0.2476
13806SOL    HW144564   3.579   3.866   2.228 -0.5798  0.6559 -0.2343
13806SOL    HW244565   3.536   3.806   2.096 -2.5226  1.6699 -0.1058
13807SOL     OW44566   4.994   1.359   2.563 -0.0681 -0.2762  0.0089
13807SOL    HW144567   4.921   1.305   2.590 -0.7741  0.3054 -0.6944
13807SOL    HW244568   5.035   1.311   2.491  0.5008 -0.7878  0.6536
13808SOL     OW44569   0.500   4.761   0.707 -0.0436  0.3892 -0.0858
13808SOL    HW144570   0.415   4.783   0.746 -0.8016 -0.7900 -0.9904
13808SOL    HW244571   0.546   4.713   0.776 -1.2352 -1.3829 -0.4670
13809SOL     OW44572   5.473   7.587   3.040  0.2459 -0.5554 -0.4442
13809SOL    HW144573   5.382   7.560   3.055  0.3536 -1.0216 -0.6239
13809SOL    HW244574   5.484   7.580   2.945  0.2212  0.3039 -0.5171
13810SOL     OW44575   5.575   5.915   6.334 -0.1687  0.3536  0.1524
13810SOL    HW144576   5.485   5.901   6.361 -0.6723 -0.6850 -1.8578
13810SOL    HW244577   5.581   6.009   6.319 -1.6233  0.1952 -1.8162
13811SOL     OW44578   4.315   1.934   6.155 -0.0438 -0.8046  0.2665
13811SOL    HW144579   4.269   1.985   6.222  1.0478 -0.9012  1.1138
13811SOL    HW244580   4.408   1.946   6.174  0.2687 -2.8636  0.3450
13812SOL     OW44581   4.377   0.196   0.283  0.2874  0.1422  0.3320
13812SOL    HW144582   4.451   0.175   0.226  0.0110  0.3658 -0.1188
13812SOL    HW244583   4.351   0.112   0.320  1.3283  0.1839  1.2028
13813SOL     OW44584   0.556   0.471   7.565  0.2844  0.1034 -0.1398
13813SOL    HW144585   0.571   0.565   7.561  0.7459  0.0066 -0.8849
13813SOL    HW244586   0.590   0.445   7.651 -0.8585  0.7737  0.5373
13814SOL     OW44587   5.630   0.317   3.057  0.4239 -0.3145 -0.4050
13814SOL    HW144588   5.603   0.366   2.979 -1.3281 -0.9719 -0.2683
13814SOL    HW244589   5.703   0.367   3.093  0.2107  0.8935 -1.5552
13815SOL     OW44590   2.606   0.956   2.552 -0.5162 -0.0202 -0.0402
13815SOL    HW144591   2.576   1.041   2.519 -0.5668  0.7656  1.9242
13815SOL    HW244592   2.571   0.951   2.641  0.4864 -1.5735  0.2976
13816SOL     OW44593   5.117   7.491   4.281  0.2622 -0.2776  0.3039
13816SOL    HW144594   5.122   7.434   4.204  0.3138  1.5079 -1.0567
13816SOL    HW244595   5.172   7.447   4.346  1.6929 -0.9435 -1.2642
13817SOL     OW44596   1.119   6.538   7.672 -0.9117 -0.0296  0.0303
13817SOL    HW144597   1.165   6.622   7.663 -2.3195  0.8111  0.3397
13817SOL    HW244598   1.042   6.547   7.616 -1.6765 -0.6533  0.9428
13818SOL     OW44599   0.844   6.241   0.168  0.0593 -0.2187  0.3446
13818SOL    HW144600   0.868   6.150   0.149  2.0182 -0.0612  1.7049
13818SOL    HW244601   0.881   6.291   0.096 -0.3952 -0.4156 -0.0333
13819SOL     OW44602   5.685   7.632   4.624 -0.5980  0.2676  0.1521
13819SOL    HW144603   5.759   7.663   4.677 -1.6727  0.3750  1.6522
13819SOL    HW244604   5.712   7.648   4.534  1.5229 -0.3821  0.6044
13820SOL     OW44605   7.202   0.107   7.320 -0.8007 -0.2574 -0.2778
13820SOL    HW144606   7.269   0.100   7.252 -1.4182 -1.0595 -0.8202
13820SOL    HW244607   7.249   0.088   7.402 -0.1342  0.3427 -0.5091
13821SOL     OW44608   4.089   6.101   1.308  0.5228 -0.1274 -0.2896
13821SOL    HW144609   4.010   6.131   1.352  0.8504 -0.0384  0.2362
13821SOL    HW244610   4.121   6.177   1.260  2.1253  0.8238  2.1356
13822SOL     OW44611   7.397   5.751   6.049  0.6106  0.7491 -0.3609
13822SOL    HW144612   7.458   5.714   5.985  0.8631 -0.4405  0.5215
13822SOL    HW244613   7.312   5.714   6.026  0.5001  1.2067 -0.6827
13823SOL     OW44614   7.985   1.777   3.140  0.2051  0.2302  0.3465
13823SOL    HW144615   7.895   1.799   3.118  0.0907 -1.8313 -1.6205
13823SOL    HW244616   7.978   1.707   3.204  0.3598 -0.4878 -0.4029
13824SOL     OW44617   1.605   5.419   7.958 -0.0030 -0.2114  0.3664
13824SOL    HW144618   1.626   5.382   7.873  0.2257 -3.6281  1.7374
13824SOL    HW244619   1.689   5.452   7.992 -0.0097  0.7058 -0.4677
13825SOL     OW44620   3.140   6.708   6.033 -0.1044 -0.3036 -0.2383
13825SOL    HW144621   3.077   6.688   5.964  0.0625  1.0506 -0.8115
13825SOL    HW244622   3.089   6.703   6.114 -0.9738  0.7743 -0.6938
13826SOL     OW44623   3.288   2.817   8.048 -0.0882 -0.2034  0.2734
13826SOL    HW144624   3.353   2.764   8.003 -1.0795 -1.4450  0.2633
13826SOL    HW244625   3.303   2.906   8.016  1.9161 -0.3629  0.6506
13827SOL     OW44626   3.958   2.172   0.890  0.0711  0.1987 -0.3241
13827SOL    HW144627   3.927   2.219   0.967  0.8294 -0.0630  0.1559
13827SOL    HW244628   3.931   2.081   0.904 -1.3868  0.4575 -1.2462
13828SOL     OW44629   4.844   3.377   3.511 -0.0228  0.1147  0.1434
13828SOL    HW144630   4.832   3.341   3.599 -2.3122  0.0671 -0.1512
13828SOL    HW244631   4.784   3.328   3.456  1.5901 -0.0775 -1.5666
13829SOL     OW44632   6.711   3.440   1.276 -0.2289  0.1075 -0.3073
13829SOL    HW144633   6.759   3.358   1.269 -1.0055 -0.3589 -0.3144
13829SOL    HW244634   6.649   3.426   1.348 -0.1903  0.7802 -0.1348
13830SOL     OW44635   6.166   7.246   1.368 -0.1982 -0.2338  0.5112
13830SOL    HW144636   6.249   7.210   1.399 -0.2789 -1.6191 -0.7844
13830SOL    HW244637   6.189   7.298   1.291  0.0118  3.2382  2.6979
13831SOL     OW44638   3.093   8.037   2.388  0.1210  0.0955 -0.3872
13831SOL    HW144639   3.027   8.046   2.320 -2.0317  1.3462  1.7292
13831SOL    HW244640   3.148   8.115   2.379  0.7593 -0.4608 -1.5374
13832SOL     OW44641   4.746   3.980   2.261  0.1479  0.2149 -0.3425
13832SOL    HW144642   4.833   4.019   2.251  0.1287  0.4258  0.2338
13832SOL    HW244643   4.747   3.944   2.349 -0.8997  1.6758  0.3166
13833SOL     OW44644   1.679   5.202   5.973 -0.6098  0.1869  0.3133
13833SOL    HW144645   1.744   5.259   5.932 -1.0465  1.1229  0.8705
13833SOL    HW244646   1.636   5.258   6.038 -0.9702 -0.8227  0.9726
13834SOL     OW44647   0.732   0.132   0.611 -0.1078  0.0177 -0.0837
13834SOL    HW144648   0.721   0.202   0.674  1.9449 -0.7016  1.1767
13834SOL    HW244649   0.647   0.087   0.610 -0.8302  1.3186  0.5527
13835SOL     OW44650   6.489   1.326   0.506  0.3228  0.2972  0.1184
13835SOL    HW144651   6.560   1.352   0.565  1.2955 -2.3704  0.2219
13835SOL    HW244652   6.458   1.243   0.540 -1.2110  0.2027 -1.3706
13836SOL     OW44653   4.924   3.686   7.391 -0.0238 -0.1526 -0.2965
13836SOL    HW144654   4.893   3.749   7.457 -2.1205 -0.5089 -0.8806
13836SOL    HW244655   4.847   3.667   7.338  1.1824 -1.3085 -1.7109
13837SOL     OW44656   2.635   2.114   0.504 -0.2237 -0.0071  0.0320
13837SOL    HW144657   2.611   2.104   0.412  0.1222  0.3737 -0.1030
13837SOL    HW244658   2.663   2.027   0.531 -2.4980 -0.6750  0.4226
13838SOL     OW44659   2.967   5.930   5.271  0.1754  0.1169 -0.2168
13838SOL    HW144660   2.941   5.971   5.354  0.1901  0.3503 -0.3279
13838SOL    HW244661   2.988   6.004   5.213 -0.3738 -0.0249 -0.6053
13839SOL     OW44662   3.184   2.231   5.441  0.4703  0.1917  0.3154
13839SOL    HW144663   3.213   2.170   5.509 -0.2612 -2.3959 -1.5392
13839SOL    HW244664   3.102   2.268   5.475 -0.0891 -1.3505  0.7366
13840SOL     OW44665   0.555   7.823   5.366  0.3791  0.7897 -0.2822
13840SOL    HW144666   0.506   7.884   5.311  0.4132 -0.3325 -1.6123
13840SOL    HW244667   0.621   7.785   5.308  0.6193 -0.2091  0.6088
13841SOL     OW44668   3.716   5.817   0.780  0.1752 -0.5274  0.0725
13841SOL    HW144669   3.656   5.752   0.743  1.7150 -1.9046 -0.1023
13841SOL    HW244670   3.722   5.885   0.713 -0.8374 -0.5723 -0.0854
13842SOL     OW44671   4.267   0.192   1.998 -0.0117 -0.4537 -0.9301
13842SOL    HW144672   4.266   0.236   2.083 -1.7965 -1.4511 -0.3729
13842SOL    HW244673   4.292   0.260   1.935 -0.8833  0.8842  0.1257
13843SOL     OW44674   3.361   5.580   3.803  0.0018  0.1350 -0.3258
13843SOL    HW144675   3.354   5.522   3.879  0.3334 -0.2755 -0.6084
13843SOL    HW244676   3.275   5.576   3.761 -0.6762  1.4912  0.8318
13844SOL     OW44677   2.677   6.103   3.790 -0.2250  0.4966  0.9230
13844SOL    HW144678   2.735   6.170   3.825 -1.4907  0.5377  3.1501
13844SOL    HW244679   2.735   6.033   3.761  0.9802  0.7637  2.5799
13845SOL     OW44680   1.070   5.494   1.567  0.0242  0.3191  0.2623
13845SOL    HW144681   1.153   5.516   1.523  1.2981 -2.2590  1.1443
13845SOL    HW244682   1.095   5.482   1.658 -1.1338 -1.2848  0.4076
13846SOL     OW44683   4.638   0.321   3.724 -0.0407 -0.3601 -0.6981
13846SOL    HW144684   4.573   0.391   3.715 -0.4215 -0.5383  0.5233
13846SOL    HW244685   4.711   0.349   3.668  0.0151  1.2651  0.1433
13847SOL     OW44686   4.417   1.814   1.237 -0.0285  0.6039  0.0513
13847SOL    HW144687   4.467   1.887   1.274  0.5556  0.1430  0.1755
13847SOL    HW244688   4.472   1.781   1.166 -0.4584  0.5153 -0.2469
13848SOL     OW44689   2.993   3.237   6.927  0.6538  0.3723 -0.0505
13848SOL    HW144690   3.065   3.275   6.977  1.3079 -0.0447 -0.6663
13848SOL    HW244691   2.967   3.307   6.867  0.3565  0.6136  0.3485
13849SOL     OW44692   7.530   2.191   6.822  0.2585  0.3274 -0.0872
13849SOL    HW144693   7.452   2.229   6.781  0.3456 -0.3395 -0.8952
13849SOL    HW244694   7.542   2.242   6.902 -0.4878  1.0201 -0.4004
13850SOL     OW44695   3.740   7.039   6.602  0.4264 -0.2922  0.2496
13850SOL    HW144696   3.741   7.070   6.692  0.6924  1.9651 -0.4498
13850SOL    HW244697   3.692   7.107   6.554 -1.2571 -2.2970 -1.0574
13851SOL     OW44698   4.742   0.139   1.493 -0.4355 -0.1881  0.2347
13851SOL    HW144699   4.722   0.102   1.407  1.3466 -0.0559 -0.2813
13851SOL    HW244700   4.813   0.201   1.476  1.0344 -1.2976  1.9989
13852SOL     OW44701   7.097   1.926   2.611  0.2713 -0.0182  0.1182
13852SOL    HW144702   7.047   1.862   2.561 -0.0339  0.3596 -0.0666
13852SOL    HW244703   7.187   1.916   2.579  0.0413  0.3679 -0.6760
13853SOL     OW44704   3.103   3.177   2.013 -0.3440 -0.1952  0.1835
13853SOL    HW144705   3.108   3.118   1.938  0.1465  1.9373 -1.5921
13853SOL    HW244706   3.030   3.235   1.992  1.1551  1.8232  0.1906
13854SOL     OW44707   3.943   7.341   4.897 -0.2794 -0.0122  0.5475
13854SOL    HW144708   3.913   7.300   4.979 -0.6979  0.7740  0.8071
13854SOL    HW244709   3.865   7.387   4.865 -1.3950 -3.4767 -2.4333
13855SOL     OW44710   4.664   2.259   6.201  0.2229 -0.4821  0.1014
13855SOL    HW144711   4.721   2.195   6.159  0.7321 -0.2302  0.3955
13855SOL    HW244712   4.601   2.284   6.133  1.0744 -0.0313 -0.5337
13856SOL     OW44713   4.881   1.667   7.314 -0.0520  0.3710  0.3598
13856SOL    HW144714   4.940   1.689   7.241 -0.8222 -1.0401 -0.7509
13856SOL    HW244715   4.796   1.653   7.272 -0.2445 -1.7144  1.3387
13857SOL     OW44716   2.473   7.403   5.081 -0.3300 -0.1560  0.3606
13857SOL    HW144717   2.546   7.427   5.024  0.7901 -0.5687  1.5773
13857SOL    HW244718   2.410   7.474   5.070 -0.4197 -0.5280 -1.8354
13858SOL     OW44719   0.097   3.134   5.172 -0.0468  0.0287  0.3196
13858SOL    HW144720   0.023   3.195   5.169  1.3170  1.7194 -0.7651
13858SOL    HW244721   0.083   3.076   5.097 -0.9846 -0.5777  0.9441
13859SOL     OW44722   0.233   4.827   1.486 -0.4578 -0.1966 -0.1477
13859SOL    HW144723   0.212   4.743   1.528 -0.1887 -1.5707 -2.5603
13859SOL    HW244724   0.252   4.804   1.395  2.6421  2.1016 -0.2294
13860SOL     OW44725   7.257   3.752   1.178  0.3897  0.0916  0.5875
13860SOL    HW144726   7.313   3.818   1.137 -0.3454  0.7725  0.6549
13860SOL    HW244727   7.221   3.796   1.255 -1.1597  0.0889 -0.1035
13861SOL     OW44728   5.487   6.467   6.389  0.1606 -0.1133 -0.0868
13861SOL    HW144729   5.460   6.426   6.307  2.7937 -1.2935 -0.4590
13861SOL    HW244730   5.407   6.472   6.441 -1.8446  1.6791 -3.0633
13862SOL     OW44731   5.832   0.378   7.587  0.2787  0.0398  0.2448
13862SOL    HW144732   5.789   0.459   7.559  0.2472  0.9700  2.7468
13862SOL    HW244733   5.917   0.406   7.621  1.1717 -1.2736 -0.8002
13863SOL     OW44734   3.902   1.839   8.062 -0.1439  0.1427  0.2034
13863SOL    HW144735   3.927   1.791   8.140 -1.1129  0.4616  0.7256
13863SOL    HW244736   3.806   1.845   8.066 -0.1320  1.1095 -0.4337
13864SOL     OW44737   5.758   2.350   7.253  1.0565  0.3053 -0.2212
13864SOL    HW144738   5.699   2.336   7.327  0.5458 -2.5866 -1.0447
13864SOL    HW244739   5.840   2.307   7.279  1.0461 -0.2615 -1.0984
13865SOL     OW44740   2.471   7.735   5.511 -0.4111 -0.5955 -0.0279
13865SOL    HW144741   2.423   7.801   5.460  0.9146  0.0682 -0.4747
13865SOL    HW244742   2.551   7.780   5.539  0.7676 -2.1433 -0.7416
13866SOL     OW44743   5.104   2.865   5.111  0.5784  0.2239 -0.6914
13866SOL    HW144744   5.138   2.788   5.064  0.6258  0.8368 -1.6864
13866SOL    HW244745   5.125   2.847   5.203 -3.8957 -3.3725 -0.0108
13867SOL     OW44746   2.259   0.689   7.571  0.2099  0.1419 -0.2637
13867SOL    HW144747   2.179   0.636   7.571  0.1632 -0.0663  3.4371
13867SOL    HW244748   2.299   0.672   7.486 -2.3806 -1.7589 -1.2412
13868SOL     OW44749   3.187   2.746   2.362  0.2432  0.0627 -0.0643
13868SOL    HW144750   3.168   2.784   2.276 -1.6885  0.5575  0.5384
13868SOL    HW244751   3.111   2.690   2.380  1.6245 -1.7380  0.4031
13869SOL     OW44752   4.754   6.125   7.270  0.4202  0.3717  0.2234
13869SOL    HW144753   4.725   6.216   7.262  0.0262  0.2348  0.0920
13869SOL    HW244754   4.676   6.073   7.255  1.0627 -0.0519 -1.9512
13870SOL     OW44755   0.082   2.637   2.879 -0.0642  0.3535 -0.2352
13870SOL    HW144756   0.083   2.671   2.790  1.2716 -0.8400 -0.7090
13870SOL    HW244757   0.139   2.697   2.928  0.3577  0.1802 -0.5125
13871SOL     OW44758   2.442   0.989   0.912 -0.2747  0.5593  0.0557
13871SOL    HW144759   2.374   0.988   0.845 -1.1126 -0.0609  0.8828
13871SOL    HW244760   2.411   1.052   0.977 -0.5324 -0.3651  0.8722
13872SOL     OW44761   2.435   0.004   4.810 -0.1549  0.0571  0.8054
13872SOL    HW144762   2.527   0.008   4.786 -0.3583  0.0764 -0.0017
13872SOL    HW244763   2.393  -0.039   4.736 -1.1221  1.9999  0.1412
13873SOL     OW44764   2.634   3.719   3.525 -0.4791 -0.2418 -0.6580
13873SOL    HW144765   2.615   3.625   3.523 -3.0364  0.2020 -0.2061
13873SOL    HW244766   2.598   3.749   3.608 -0.2979  1.2717 -1.0938
13874SOL     OW44767   1.744   6.569   1.725 -0.1236  0.1493 -0.3089
13874SOL    HW144768   1.804   6.621   1.672  0.2834  0.2981  0.2903
13874SOL    HW244769   1.797   6.495   1.756 -0.7487 -0.7665 -1.3318
13875SOL     OW44770   7.553   0.595   4.518  0.6581  0.0975  0.2391
13875SOL    HW144771   7.491   0.522   4.519  1.3658 -0.5387 -0.2642
13875SOL    HW244772   7.566   0.617   4.610 -1.0374  0.8892  0.3113
13876SOL     OW44773   6.181   0.136   6.347  0.2097 -0.0131 -0.5689
13876SOL    HW144774   6.211   0.108   6.260  0.7135 -0.4020 -0.2747
13876SOL    HW244775   6.199   0.230   6.348  0.3151 -0.0265 -0.8415
13877SOL     OW44776   2.771   4.550   2.069  0.1902 -0.0689 -0.1210
13877SOL    HW144777   2.689   4.557   2.021 -0.3623  1.2015  0.9431
13877SOL    HW244778   2.824   4.490   2.017 -0.9019  0.1455 -1.5477
13878SOL     OW44779   1.088   0.800   0.053  0.3550  0.5599  0.1282
13878SOL    HW144780   1.100   0.733   0.121 -0.9555  0.8643  0.6875
13878SOL    HW244781   1.158   0.863   0.068 -0.8672  1.4860  2.2746
13879SOL     OW44782   3.862   2.700   4.820  0.3093  0.0359 -0.1494
13879SOL    HW144783   3.842   2.783   4.776  1.5841 -0.3607 -1.5504
13879SOL    HW244784   3.789   2.643   4.799  0.7652 -0.0588 -1.5731
13880SOL     OW44785   2.919   0.925   0.798 -0.2563 -0.2655 -0.6234
13880SOL    HW144786   2.864   0.850   0.818  0.5856 -0.5535  0.7605
13880SOL    HW244787   3.005   0.888   0.780  0.7381  0.3821  2.1568
13881SOL     OW44788   5.888   1.497   2.816  0.3416 -0.2010 -0.1561
13881SOL    HW144789   5.805   1.480   2.772  0.1606  0.1484  0.0393
13881SOL    HW244790   5.872   1.470   2.907 -0.7920  3.1733  0.8124
13882SOL     OW44791   0.218   5.108   3.151 -0.4552  0.6752 -0.2195
13882SOL    HW144792   0.227   5.034   3.090 -1.4481  0.4079 -0.0566
13882SOL    HW244793   0.287   5.169   3.124  0.1180 -0.1228 -0.6175
13883SOL     OW44794   6.705   1.801   0.513  0.2110  0.0975 -0.3642
13883SOL    HW144795   6.776   1.821   0.575 -0.6741  0.8383  0.4294
13883SOL    HW244796   6.700   1.879   0.458  0.9170 -0.5133 -1.3222
13884SOL     OW44797   7.892   6.161   3.068  0.2995  1.0306  0.5619
13884SOL    HW144798   7.930   6.196   3.148 -1.4262  1.5370  1.1912
13884SOL    HW244799   7.881   6.238   3.011  0.3097  0.8644  0.3327
13885SOL     OW44800   3.870   5.442   3.897  0.0630  0.0300  0.3790
13885SOL    HW144801   3.788   5.447   3.848  0.6617  0.0197 -0.6498
13885SOL    HW244802   3.934   5.485   3.841  0.6990  0.3415  1.3243
13886SOL     OW44803   1.897   6.744   5.162  0.3467  0.5394  0.0666
13886SOL    HW144804   1.914   6.701   5.245 -0.8047 -4.1536 -1.7755
13886SOL    HW244805   1.802   6.760   5.162 -0.2550 -2.3332 -1.2722
13887SOL     OW44806   6.081   5.017   4.370  0.2553 -0.2753 -0.2014
13887SOL    HW144807   6.162   4.971   4.391  0.0038 -0.0183  1.4927
13887SOL    HW244808   6.092   5.044   4.279  2.5415  0.7029  0.2936
13888SOL     OW44809   2.690   2.207   2.627 -0.2213 -0.2363  0.2040
13888SOL    HW144810   2.739   2.288   2.643  0.4241 -0.4097 -0.8331
13888SOL    HW244811   2.654   2.184   2.713 -0.2420  1.0290  0.5542
13889SOL     OW44812   4.590   5.701   0.575 -0.0132  0.1541 -0.5679
13889SOL    HW144813   4.559   5.615   0.604 -1.5464  0.8082 -0.2025
13889SOL    HW244814   4.612   5.688   0.483 -0.3246 -0.6070 -0.5445
13890SOL     OW44815   2.138   0.081   5.242  0.1651  0.1384 -0.4551
13890SOL    HW144816   2.084   0.059   5.166 -0.2371  0.4747 -0.2732
13890SOL    HW244817   2.075   0.109   5.309  0.5851  0.8916 -0.3600
13891SOL     OW44818   3.633   5.344   2.864  0.0792  0.2428  0.0511
13891SOL    HW144819   3.643   5.331   2.958 -0.0958  0.6599  0.1288
13891SOL    HW244820   3.701   5.290   2.825 -0.9126 -1.2773  0.3435
13892SOL     OW44821   4.542   2.470   2.487 -0.3357 -0.0038 -0.4050
13892SOL    HW144822   4.586   2.544   2.445  0.3377  0.9249  1.7659
13892SOL    HW244823   4.555   2.485   2.581  0.2962 -3.1977  0.1220
13893SOL     OW44824   1.039   0.345   3.272  0.1634  1.2175 -0.1115
13893SOL    HW144825   1.054   0.439   3.285  0.3147  1.2688 -0.6428
13893SOL    HW244826   1.113   0.316   3.220 -0.6862  1.1238 -1.3017
13894SOL     OW44827   1.563   0.418   2.389 -0.2500 -0.2990 -0.4992
13894SOL    HW144828   1.619   0.447   2.461  1.6017  0.0382 -1.9824
13894SOL    HW244829   1.494   0.484   2.384 -0.0506  0.0062  0.5636
13895SOL     OW44830   2.465   3.043   5.418  0.2437 -0.1734 -0.6731
13895SOL    HW144831   2.448   2.968   5.476  0.8060  0.2348  0.0379
13895SOL    HW244832   2.558   3.062   5.430 -0.2545  1.7814  0.5877
13896SOL     OW44833   4.427   3.389   5.147 -0.0664 -0.1461 -0.6805
13896SOL    HW144834   4.363   3.434   5.202  1.1997  1.1923 -0.2094
13896SOL    HW244835   4.463   3.321   5.204 -0.3760 -0.2478 -0.6070
13897SOL     OW44836   1.863   1.133   4.006 -0.1130  0.5630 -0.3194
13897SOL    HW144837   1.916   1.213   4.001 -0.1581  0.6533  0.4027
13897SOL    HW244838   1.792   1.147   3.944 -0.6836  1.5333  0.5049
13898SOL     OW44839   5.722   5.476   4.240 -0.2916 -0.1219 -0.4806
13898SOL    HW144840   5.754   5.548   4.186 -0.0519 -0.2896 -0.5622
13898SOL    HW244841   5.792   5.410   4.238 -0.2573 -0.1115  0.0684
13899SOL     OW44842   1.034   0.003   3.243  0.3544  0.2186 -0.1774
13899SOL    HW144843   1.086   0.063   3.190  0.0816  0.8320  0.2335
13899SOL    HW244844   0.944   0.019   3.216  0.2587  0.1788  0.1100
13900SOL     OW44845   0.950   7.994   2.028 -0.2813 -0.3152 -0.0958
13900SOL    HW144846   1.042   7.992   2.001 -0.3929 -0.8884 -0.4617
13900SOL    HW244847   0.947   8.055   2.101  0.6346 -1.3134  0.8167
13901SOL     OW44848   1.136   5.123   2.033 -0.9655 -0.3061  0.0421
13901SOL    HW144849   1.207   5.106   1.972 -1.9505 -1.3308 -0.8661
13901SOL    HW244850   1.169   5.090   2.117  0.2827  0.8463  0.0473
13902SOL     OW44851   0.735   6.737   4.987  0.6072 -0.4707  1.0338
13902SOL    HW144852   0.707   6.736   4.895  0.3730 -0.1170  1.0984
13902SOL    HW244853   0.675   6.676   5.030  0.5622 -0.4531  0.9964
13903SOL     OW44854   1.793   6.698   3.604 -0.3658  0.9028 -0.1953
13903SOL    HW144855   1.747   6.634   3.549  1.3346  0.0797 -0.7291
13903SOL    HW244856   1.765   6.677   3.693 -3.7100  2.6917 -0.6517
13904SOL     OW44857   0.430   5.817   0.755  0.3085 -0.1137 -0.0860
13904SOL    HW144858   0.495   5.783   0.692  1.5672  0.9121  0.6025
13904SOL    HW244859   0.367   5.864   0.701  1.3211  0.6750 -0.6115
13905SOL     OW44860   2.532   6.370   5.170  0.4018 -0.1790  0.1376
13905SOL    HW144861   2.480   6.419   5.233  0.6227  0.5957 -0.2776
13905SOL    HW244862   2.469   6.310   5.129 -0.0132  0.2553  0.1402
13906SOL     OW44863   7.763   7.727   3.079 -0.0702 -0.1186  0.6211
13906SOL    HW144864   7.783   7.811   3.119 -1.3808  0.0564  0.9654
13906SOL    HW244865   7.670   7.713   3.098  0.1267 -1.6629  0.6083
13907SOL     OW44866   2.386   4.450   4.072 -0.4124  0.2258  0.2592
13907SOL    HW144867   2.428   4.437   4.157  2.4147  0.1620 -1.0361
13907SOL    HW244868   2.329   4.374   4.062  0.1974 -0.4405  1.5501
13908SOL     OW44869   0.960   6.511   1.560 -0.2696  0.6643  0.4642
13908SOL    HW144870   0.949   6.417   1.543  1.5153  0.5736 -0.3377
13908SOL    HW244871   0.870   6.545   1.564 -0.9259 -0.8617 -0.4523
13909SOL     OW44872   0.868   0.634   7.054  0.1587 -0.1244  0.1465
13909SOL    HW144873   0.926   0.670   7.121  0.4226  0.6292 -0.4720
13909SOL    HW244874   0.908   0.550   7.030  1.4211  0.7124 -0.7895
13910SOL     OW44875   2.392   2.987   2.700 -0.2063  0.3958 -1.0195
13910SOL    HW144876   2.355   2.985   2.612  0.1355  1.6327 -1.2156
13910SOL    HW244877   2.338   3.052   2.747 -0.6263 -0.5245 -0.1963
13911SOL     OW44878   1.907   6.952   2.051  0.4405 -0.0420  0.8854
13911SOL    HW144879   1.928   6.952   1.957  1.4217  0.5682  1.0939
13911SOL    HW244880   1.820   6.911   2.056  1.5470 -2.7711 -0.0312
13912SOL     OW44881   2.072   7.379   1.929 -0.6582  0.1195 -0.3336
13912SOL    HW144882   2.162   7.406   1.944 -1.1995  0.6722  2.3491
13912SOL    HW244883   2.021   7.426   1.995 -2.7302 -1.2342 -0.8742
13913SOL     OW44884   1.633   6.834   6.434  0.4187 -0.0888 -0.0549
13913SOL    HW144885   1.711   6.811   6.485 -0.2667 -0.7172  0.7577
13913SOL    HW244886   1.560   6.823   6.496 -0.4337 -0.7425 -1.1315
13914SOL     OW44887   5.575   4.581   1.256  0.1658  0.0358  0.1332
13914SOL    HW144888   5.586   4.615   1.167 -0.0320 -0.0659  0.0677
13914SOL    HW244889   5.594   4.656   1.313  0.1118  0.1521  0.0002
13915SOL     OW44890   3.295   3.964   3.992  0.0424 -1.0007 -0.3320
13915SOL    HW144891   3.240   4.042   3.983  1.7119  0.3201  0.4048
13915SOL    HW244892   3.311   3.956   4.086  2.2534 -0.4661 -0.6047
13916SOL     OW44893   0.147   4.318   3.134 -0.1869  0.2602 -0.1002
13916SOL    HW144894   0.125   4.365   3.214  0.2646  0.2609  0.0278
13916SOL    HW244895   0.218   4.369   3.094 -0.3843  0.2421 -0.4853
13917SOL     OW44896   6.101   8.081   0.134 -0.2854 -0.1105 -0.1474
13917SOL    HW144897   6.118   8.172   0.110 -0.1971  0.2183  1.0993
13917SOL    HW244898   6.107   8.033   0.052  0.5028  0.8912 -0.6900
13918SOL     OW44899   4.373   5.602   5.428 -0.0353 -0.0575  0.0774
13918SOL    HW144900   4.404   5.517   5.460 -2.3078 -0.8609  0.3851
13918SOL    HW244901   4.354   5.651   5.508 -0.5184  0.0126 -0.0779
13919SOL     OW44902   0.727   5.828   4.475 -0.0196 -0.4750 -0.3665
13919SOL    HW144903   0.678   5.910   4.460  1.0875  0.1956 -0.3823
13919SOL    HW244904   0.740   5.825   4.569  2.0040  0.6214 -0.5562
13920SOL     OW44905   7.840   1.707   0.107  0.1314 -0.3070 -0.3434
13920SOL    HW144906   7.878   1.621   0.088  0.3556 -0.4502  0.6833
13920SOL    HW244907   7.748   1.689   0.123 -0.1636 -0.1174 -1.7081
13921SOL     OW44908   4.815   6.110   4.031 -0.4227 -0.4952 -0.1041
13921SOL    HW144909   4.770   6.071   4.106 -0.1332  1.1757  0.9997
13921SOL    HW244910   4.801   6.048   3.960  0.5853 -2.9237  1.6767
13922SOL     OW44911   7.717   5.279   3.245  0.1854 -0.1618  0.4990
13922SOL    HW144912   7.807   5.312   3.238 -0.4984  1.7556  0.2330
13922SOL    HW244913   7.700   5.238   3.160  1.1929 -1.6798  0.9816
13923SOL     OW44914   0.764   1.126   2.372 -0.2758  0.1449 -0.3177
13923SOL    HW144915   0.727   1.047   2.333 -0.1608 -0.5692  0.9413
13923SOL    HW244916   0.691   1.163   2.422 -0.8207  1.7947 -2.2238
13924SOL     OW44917   1.604   2.312   6.696  0.4557 -0.0100  0.2116
13924SOL    HW144918   1.611   2.225   6.737 -1.0892  0.3262  1.2764
13924SOL    HW244919   1.560   2.295   6.613 -0.8144 -0.1544  0.8885
13925SOL     OW44920   2.224   6.652   5.854 -0.1236  0.5877  0.1004
13925SOL    HW144921   2.284   6.718   5.886 -1.0661  1.5858 -0.1195
13925SOL    HW244922   2.229   6.581   5.918  0.6260  1.0255  0.5389
13926SOL     OW44923   0.757   6.723   2.821 -0.3930 -0.4511  0.0832
13926SOL    HW144924   0.752   6.713   2.916 -0.7434  0.8711  0.2171
13926SOL    HW244925   0.803   6.806   2.807  2.6325 -2.1494 -0.9628
13927SOL     OW44926   2.770   4.124   0.266 -0.4595  0.4364 -0.2104
13927SOL    HW144927   2.729   4.045   0.301 -0.9330  1.3007  1.2522
13927SOL    HW244928   2.748   4.123   0.172  1.0080 -2.0304 -0.6060
13928SOL     OW44929   1.010   0.777   1.700 -0.1304  0.3366  0.1780
13928SOL    HW144930   1.086   0.751   1.648 -0.3645  1.2655 -0.6475
13928SOL    HW244931   1.008   0.714   1.772  0.6096 -0.5566 -0.5489
13929SOL     OW44932   5.627   1.165   0.528 -0.4022  0.3804 -0.2444
13929SOL    HW144933   5.562   1.128   0.468 -1.1633 -1.0508  1.3681
13929SOL    HW244934   5.702   1.106   0.520 -0.9493 -0.5337  1.0207
13930SOL     OW44935   1.021   4.950   3.180 -0.2602  0.1756  0.5235
13930SOL    HW144936   0.969   5.014   3.130 -1.0564 -0.8004  0.0415
13930SOL    HW244937   1.082   4.914   3.115 -0.3726 -0.1250  0.5825
13931SOL     OW44938   6.010   3.181   6.761  0.0199 -0.1209 -0.8668
13931SOL    HW144939   6.017   3.125   6.684 -2.6066 -0.5615 -0.8742
13931SOL    HW244940   6.047   3.128   6.832 -0.2001 -0.9030 -1.3197
13932SOL     OW44941   0.566   2.101   2.425  0.3420  0.0110  0.3071
13932SOL    HW144942   0.521   2.025   2.464  0.3325 -0.5627 -0.7657
13932SOL    HW244943   0.567   2.167   2.495 -0.3356 -0.7006  1.0186
13933SOL     OW44944   2.920   3.897   1.855  0.3488  0.1494 -0.3040
13933SOL    HW144945   2.839   3.922   1.899  0.6846  2.1434 -0.7549
13933SOL    HW244946   2.900   3.814   1.812 -1.1325  0.1088  0.4251
13934SOL     OW44947   5.548   7.731   5.625 -0.3333  0.2597 -0.4541
13934SOL    HW144948   5.528   7.780   5.546  4.0324 -1.6427 -3.1013
13934SOL    HW244949   5.596   7.793   5.680 -0.6034  0.7035 -0.7079
13935SOL     OW44950   7.061   1.032   6.803  0.3952  0.5650 -0.4540
13935SOL    HW144951   7.032   0.944   6.830  0.7855  0.4003 -0.5651
13935SOL    HW244952   7.110   1.065   6.878 -1.0135  1.3016  0.1779
13936SOL     OW44953   2.934   0.630   5.251 -0.0334  0.4785 -0.3376
13936SOL    HW144954   2.964   0.719   5.269  0.1253  0.5842 -1.0877
13936SOL    HW244955   2.986   0.575   5.310  0.8621  0.7662 -0.8396
13937SOL     OW44956   0.147   4.365   0.448  0.3563  0.5045 -0.1610
13937SOL    HW144957   0.113   4.360   0.537 -0.4022 -2.7451 -0.5126
13937SOL    HW244958   0.207   4.291   0.441  0.6763  0.8960 -2.2546
13938SOL     OW44959   4.832   1.510   3.266 -0.2790  0.1255 -0.6262
13938SOL    HW144960   4.760   1.545   3.319  1.5253  0.6730  1.6610
13938SOL    HW244961   4.900   1.577   3.272  1.0056 -1.0610 -1.3821
13939SOL     OW44962   3.756   6.287   5.786 -0.1050 -0.1831  0.1526
13939SOL    HW144963   3.733   6.373   5.821  0.1398 -0.6390  1.4975
13939SOL    HW244964   3.687   6.229   5.818 -1.1219 -0.2632 -2.0084
13940SOL     OW44965   2.560   5.618   4.041 -0.5012 -0.0302  0.4103
13940SOL    HW144966   2.536   5.709   4.057  1.5717  0.7223 -0.4371
13940SOL    HW244967   2.590   5.617   3.950  2.9201 -0.7078  1.4073
13941SOL     OW44968   1.886   3.097   5.883 -0.4190 -0.3859 -0.0693
13941SOL    HW144969   1.879   3.027   5.948 -0.3472 -0.5631 -0.2534
13941SOL    HW244970   1.971   3.083   5.842  0.3106  0.7496  0.9888
13942SOL     OW44971   0.122   6.482   2.499  0.5657  0.1310 -0.8686
13942SOL    HW144972   0.059   6.544   2.463  1.1979  0.9360 -0.6076
13942SOL    HW244973   0.207   6.520   2.480  0.9482 -0.3694 -0.2054
13943SOL     OW44974   5.041   1.135   0.381  0.2739 -0.0023  0.4239
13943SOL    HW144975   5.107   1.184   0.332 -0.2988  0.6760  0.3064
13943SOL    HW244976   5.083   1.114   0.465  1.2049 -1.0197 -0.2622
13944SOL     OW44977   1.618   3.064   3.094  0.5106  0.0795 -0.0960
13944SOL    HW144978   1.598   3.096   3.181  0.3081  0.2433 -0.2027
13944SOL    HW244979   1.573   2.980   3.088 -1.2209  0.9937 -0.7763
13945SOL     OW44980   3.998   3.417   0.618 -0.3211 -0.1890  0.0867
13945SOL    HW144981   4.051   3.351   0.664 -0.3463  0.2171  0.7013
13945SOL    HW244982   4.061   3.463   0.563  0.0584  0.5783  1.1359
13946SOL     OW44983   7.729   0.037   1.931  0.3144 -0.1049  0.3501
13946SOL    HW144984   7.706  -0.056   1.928  0.2383 -0.0901  0.4992
13946SOL    HW244985   7.774   0.048   2.015  0.7952 -0.1160  0.0982
13947SOL     OW44986   3.110   3.618   7.255 -0.0182 -0.2234 -0.3289
13947SOL    HW144987   3.029   3.664   7.236  1.2538  1.5375 -1.7439
13947SOL    HW244988   3.133   3.645   7.344 -0.4339  0.1287 -0.3277
13948SOL     OW44989   7.198   0.579   7.662 -0.1217  0.0713  0.3467
13948SOL    HW144990   7.228   0.545   7.577 -1.3698 -0.9431  0.2804
13948SOL    HW244991   7.108   0.608   7.645 -0.4817 -0.4059  1.3855
13949SOL     OW44992   7.068   4.834   1.781  0.1317  0.1541  0.4968
13949SOL    HW144993   6.991   4.817   1.727 -1.2715 -0.6686  2.6498
13949SOL    HW244994   7.080   4.929   1.778 -1.5105  0.3965  0.8163
13950SOL     OW44995   6.168   3.274   7.341  0.5037 -0.3376 -0.2117
13950SOL    HW144996   6.142   3.306   7.255  0.1707  1.4447  0.5079
13950SOL    HW244997   6.096   3.218   7.369  0.1168 -0.0591 -0.6395
13951SOL     OW44998   7.265   5.317   2.774 -0.7815  0.3890 -0.3855
13951SOL    HW144999   7.173   5.305   2.751 -1.0607  0.8708  0.4566
13951SOL    HW245000   7.291   5.397   2.729 -0.2355 -0.7004 -2.1282
13952SOL     OW45001   2.139   2.925   4.995 -0.3988  0.2860 -0.0795
13952SOL    HW145002   2.179   2.840   4.980 -1.4155  0.0147 -1.4404
13952SOL    HW245003   2.212   2.987   4.994  0.3064 -0.5255  0.6173
13953SOL     OW45004   3.595   0.015   0.666  0.2269 -0.1375  0.0522
13953SOL    HW145005   3.682   0.013   0.707 -0.3794  1.1586  1.5158
13953SOL    HW245006   3.534   0.001   0.739 -0.8849  1.6715 -0.4660
13954SOL     OW45007   0.425   7.865   7.378 -0.2772 -0.1748 -0.6266
13954SOL    HW145008   0.362   7.931   7.410 -2.9253 -2.9333  0.2997
13954SOL    HW245009   0.448   7.814   7.455  0.7038 -1.1566 -1.5419
13955SOL     OW45010   4.642   5.734   1.679  0.0767  0.4276  0.1261
13955SOL    HW145011   4.694   5.814   1.678  0.3809  0.2286 -0.4129
13955SOL    HW245012   4.592   5.738   1.760  1.2017  0.4483  0.8364
13956SOL     OW45013   2.397   0.989   5.186  0.5443  0.0058  0.2380
13956SOL    HW145014   2.411   1.004   5.280  0.8995 -0.0124  0.1884
13956SOL    HW245015   2.305   1.013   5.172  0.5982  0.3907  0.5114
13957SOL     OW45016   7.692   5.925   6.819  0.4868  0.5474 -0.7740
13957SOL    HW145017   7.689   6.009   6.866  1.7536  1.2401 -1.8791
13957SOL    HW245018   7.608   5.884   6.839  0.6804  1.1033  1.5281
13958SOL     OW45019   7.502   1.195   1.792 -0.2261 -0.1758  0.1586
13958SOL    HW145020   7.482   1.219   1.882  0.6049 -0.6422  0.4778
13958SOL    HW245021   7.481   1.273   1.741  1.4258  0.9067  1.0433
13959SOL     OW45022   5.614   2.739   5.036  1.0618  0.2907  0.2800
13959SOL    HW145023   5.638   2.726   5.128  1.8305  1.4504  0.2624
13959SOL    HW245024   5.521   2.761   5.038  0.7552 -0.9611  0.6532
13960SOL     OW45025   2.571   2.715   7.772 -0.6996  0.8011  0.6361
13960SOL    HW145026   2.658   2.683   7.793 -0.6205  0.4425 -0.1909
13960SOL    HW245027   2.567   2.803   7.808 -0.8404 -0.0329  2.7920
13961SOL     OW45028   1.483   7.447   1.691 -0.5984 -0.1570 -0.1902
13961SOL    HW145029   1.415   7.483   1.634 -0.2900  1.1602  0.2283
13961SOL    HW245030   1.435   7.413   1.767 -0.8223  0.7039  0.0704
13962SOL     OW45031   1.580   6.300   1.749  0.0206 -0.3994  0.3520
13962SOL    HW145032   1.530   6.381   1.746  2.3428  1.3500  3.1007
13962SOL    HW245033   1.627   6.298   1.665 -0.0894  1.1113  0.2238
13963SOL     OW45034   4.748   3.430   4.358 -0.5267  0.1048 -1.0476
13963SOL    HW145035   4.691   3.355   4.341 -0.6249 -0.0004 -0.2946
13963SOL    HW245036   4.796   3.406   4.437 -1.7707  1.5203  0.1906
13964SOL     OW45037   3.254   4.032   7.267  0.2905  0.0493  0.1153
13964SOL    HW145038   3.240   4.026   7.361  1.7797  0.3291  0.3829
13964SOL    HW245039   3.261   4.126   7.250  4.2019 -0.0278  0.4730
13965SOL     OW45040   2.750   3.667   6.834  0.7616  0.1574 -0.2600
13965SOL    HW145041   2.726   3.757   6.809  0.9823  0.4165  0.4534
13965SOL    HW245042   2.764   3.671   6.928  1.4133 -0.4910 -0.3213
13966SOL     OW45043   3.352   7.172   1.429 -0.0222  0.2286  0.3322
13966SOL    HW145044   3.274   7.218   1.397 -0.7356 -1.7667 -1.0185
13966SOL    HW245045   3.411   7.171   1.354  0.7484  0.5700  0.9320
13967SOL     OW45046   7.186   4.242   6.967 -0.0509 -0.0233  0.0902
13967SOL    HW145047   7.157   4.327   6.999 -0.3334 -0.4246  0.9205
13967SOL    HW245048   7.106   4.190   6.961  0.3609 -0.9130  1.7038
13968SOL     OW45049   7.732   6.214   5.698  0.0383 -0.0860 -0.2920
13968SOL    HW145050   7.698   6.181   5.781  3.5713 -2.8770  0.2544
13968SOL    HW245051   7.764   6.302   5.719  0.7564 -0.6904  1.3299
13969SOL     OW45052   2.410   6.021   6.458  0.3678 -0.0664  0.6577
13969SOL    HW145053   2.452   6.019   6.544  2.8000 -0.4633 -0.4588
13969SOL    HW245054   2.483   6.028   6.396 -1.1912 -1.4942 -1.4729
13970SOL     OW45055   3.281   5.209   8.004 -0.8918 -0.0245 -0.2773
13970SOL    HW145056   3.260   5.148   8.075 -1.0175 -1.3020 -1.3804
13970SOL    HW245057   3.355   5.170   7.959  0.0050  1.4071 -0.1288
13971SOL     OW45058   6.026   1.824   1.651 -0.4527  0.1495 -0.4800
13971SOL    HW145059   6.084   1.836   1.575 -0.3168 -0.0376 -0.4088
13971SOL    HW245060   6.078   1.854   1.725 -0.4039 -0.1224 -0.4018
13972SOL     OW45061   0.172   0.614   5.200  0.5728  0.5849 -0.7829
13972SOL    HW145062   0.188   0.525   5.167  1.2415  0.7797 -0.9998
13972SOL    HW245063   0.088   0.639   5.161  0.3779  0.0547 -0.7227
13973SOL     OW45064   0.576   2.810   6.844  0.6346  0.0389  0.0567
13973SOL    HW145065   0.572   2.782   6.936  0.2185 -3.9021 -0.9762
13973SOL    HW245066   0.667   2.792   6.818  0.2780 -0.6621 -0.7523
13974SOL     OW45067   7.600   7.599   6.274 -0.0392  0.0309 -0.0136
13974SOL    HW145068   7.695   7.610   6.283 -0.1711  1.3189  0.0678
13974SOL    HW245069   7.567   7.612   6.363 -0.3925  1.0497 -0.2781
13975SOL     OW45070   2.203   3.202   4.572  0.1404 -0.4696  0.1072
13975SOL    HW145071   2.186   3.183   4.480 -1.1557 -1.4934  0.5203
13975SOL    HW245072   2.126   3.169   4.618 -0.4735  2.3413  1.3352
13976SOL     OW45073   2.801   6.021   2.827  0.4156  0.3770  0.1366
13976SOL    HW145074   2.800   6.103   2.875  0.7701  0.4647 -0.0034
13976SOL    HW245075   2.765   6.043   2.741 -0.8929  0.0737  0.5830
13977SOL     OW45076   1.216   1.481   4.015  0.2473  0.5433  0.0677
13977SOL    HW145077   1.271   1.519   3.946 -0.0184 -0.6406 -0.8248
13977SOL    HW245078   1.277   1.456   4.083  0.4628  2.2500  0.5535
13978SOL     OW45079   1.753   5.873   7.129  0.0096 -0.1973  0.5548
13978SOL    HW145080   1.709   5.844   7.049  0.5625  2.0188 -0.6525
13978SOL    HW245081   1.682   5.891   7.191 -0.4446 -1.5351  0.4470
13979SOL     OW45082   5.582   3.596   1.042 -0.1472 -0.2880 -0.1157
13979SOL    HW145083   5.547   3.525   0.989  0.7224 -0.9893  0.2302
13979SOL    HW245084   5.638   3.645   0.981  0.4269 -0.7791  0.0075
13980SOL     OW45085   0.037   4.621   0.758  0.0693 -0.4906 -0.1857
13980SOL    HW145086   0.049   4.528   0.778  2.2636  0.0229  1.1636
13980SOL    HW245087   0.101   4.639   0.690  0.9138  0.4018  0.8186
13981SOL     OW45088   4.579   2.535   1.859 -0.1153  0.4473  0.0621
13981SOL    HW145089   4.540   2.482   1.928  0.0318  1.1447  0.6922
13981SOL    HW245090   4.512   2.600   1.838 -0.8015 -0.7443 -1.6065
13982SOL     OW45091   2.725   3.305   5.156  0.3706  0.2697  0.3265
13982SOL    HW145092   2.762   3.378   5.206  0.5951 -0.1413  0.7698
13982SOL    HW245093   2.669   3.347   5.091  0.7345  0.8513  0.3756
13983SOL     OW45094   0.382   2.012   6.136  0.1799 -0.0689  0.3584
13983SOL    HW145095   0.464   2.059   6.123  0.0815 -0.1138 -0.4898
13983SOL    HW245096   0.362   1.974   6.050 -1.7028  1.4847  0.0346
13984SOL     OW45097   3.769   6.974   7.471 -0.2486  0.0035 -0.0448
13984SOL    HW145098   3.736   6.936   7.552  1.6236 -1.1999  0.2182
13984SOL    HW245099   3.861   6.994   7.489  0.6257 -1.5886 -2.2282
13985SOL     OW45100   5.314   3.655   8.093  0.1420 -0.2366  0.3567
13985SOL    HW145101   5.328   3.577   8.147 -0.1894 -0.5814 -0.0405
13985SOL    HW245102   5.391   3.661   8.038  0.0061 -0.4967  0.1364
13986SOL     OW45103   7.648   0.175   0.540 -0.1967  0.1320 -0.3605
13986SOL    HW145104   7.699   0.103   0.503 -0.3162 -0.7058  1.0429
13986SOL    HW245105   7.659   0.246   0.477 -0.8831 -1.3916 -2.3113
13987SOL     OW45106   6.945   4.774   7.026  0.1620 -0.2931  0.5239
13987SOL    HW145107   6.858   4.758   6.989 -0.0770 -1.1265  1.4024
13987SOL    HW245108   6.943   4.732   7.112  1.1441  0.4529  0.9311
13988SOL     OW45109   3.769   0.959   2.801 -0.1830  0.1070 -0.3014
13988SOL    HW145110   3.793   0.987   2.890  1.0639 -1.1894 -0.2019
13988SOL    HW245111   3.711   1.029   2.770 -0.1952  0.8790  1.3096
13989SOL     OW45112   4.474   8.038   6.783  0.2804  0.7204 -0.1070
13989SOL    HW145113   4.416   8.028   6.858 -0.9902 -2.3665 -1.3684
13989SOL    HW245114   4.447   8.121   6.743 -1.9224  0.3220  0.4548
13990SOL     OW45115   6.379   0.475   6.265 -0.1673 -0.6387  0.2343
13990SOL    HW145116   6.309   0.478   6.331 -0.7581  1.2102 -0.4327
13990SOL    HW245117   6.423   0.392   6.283 -0.3870 -0.2945  2.8693
13991SOL     OW45118   6.924   0.630   7.543 -0.3083 -0.5028  0.3857
13991SOL    HW145119   6.890   0.556   7.491  2.6511 -1.1133 -0.8923
13991SOL    HW245120   6.850   0.691   7.548 -1.6775 -1.8059 -1.9364
13992SOL     OW45121   0.987   2.826   4.919  0.3925 -0.4542 -0.0979
13992SOL    HW145122   1.050   2.877   4.970  1.2200 -0.1395 -1.3600
13992SOL    HW245123   0.958   2.756   4.977  0.2725  0.6667  1.2194
13993SOL     OW45124   2.048   5.157   2.362 -0.3804  0.1502  0.0537
13993SOL    HW145125   2.012   5.088   2.418 -1.2354  0.5103 -0.0347
13993SOL    HW245126   1.990   5.158   2.286  0.7095 -0.2722 -0.8200
13994SOL     OW45127   0.477   1.814   5.586  0.2092  0.0526 -0.0786
13994SOL    HW145128   0.404   1.781   5.639  1.4741  0.8819  2.3638
13994SOL    HW245129   0.438   1.880   5.529 -0.7616  1.8496  2.5027
13995SOL     OW45130   2.778   3.365   3.777  0.0406  0.4402  0.1778
13995SOL    HW145131   2.805   3.358   3.869 -1.6944  2.1103  0.8842
13995SOL    HW245132   2.859   3.389   3.731  0.9002 -0.2237  1.2952
13996SOL     OW45133   6.803   7.753   2.336  0.5693 -0.1651 -0.1807
13996SOL    HW145134   6.757   7.835   2.350  2.9451  1.0695  1.0709
13996SOL    HW245135   6.792   7.705   2.418  0.5674 -0.3432 -0.2848
13997SOL     OW45136   5.815   4.857   4.050 -0.2125  0.6594 -0.6384
13997SOL    HW145137   5.843   4.860   4.142 -0.1006 -0.5928 -0.6176
13997SOL    HW245138   5.897   4.857   4.001 -0.2792  1.7353 -0.7629
13998SOL     OW45139   2.099   6.998   4.923  0.4823  0.8515 -0.1429
13998SOL    HW145140   2.008   7.021   4.943 -0.1543 -1.1273 -0.5107
13998SOL    HW245141   2.148   7.079   4.939 -1.1414  1.6272  1.3013
13999SOL     OW45142   7.763   7.055   6.753 -1.1119  0.1836 -0.1216
13999SOL    HW145143   7.744   7.121   6.687 -2.0058 -0.5753 -0.6578
13999SOL    HW245144   7.856   7.036   6.742 -0.4443  2.4038  1.0665
14000SOL     OW45145   1.285   1.381   4.474  0.2935  0.0635 -0.3182
14000SOL    HW145146   1.238   1.379   4.557 -1.5373  0.1579 -1.3131
14000SOL    HW245147   1.371   1.416   4.496 -0.6423  1.4569  1.3058
14001SOL     OW45148   1.985   4.907   6.945  0.3100  0.0463  0.0646
14001SOL    HW145149   2.008   4.944   6.860  1.1323  0.6582  0.5408
14001SOL    HW245150   1.972   4.813   6.928 -1.2501  0.4263 -1.0484
14002SOL     OW45151   2.749   4.408   6.735  0.2618  0.2497  0.9384
14002SOL    HW145152   2.693   4.485   6.747  0.4174  0.3667  0.9103
14002SOL    HW245153   2.750   4.365   6.820 -0.6349 -0.2698  0.7052
14003SOL     OW45154   1.941   0.064   4.705 -0.0161  0.6864 -0.8658
14003SOL    HW145155   2.015   0.124   4.707 -0.4483  1.2480 -1.0987
14003SOL    HW245156   1.963  -0.000   4.638  1.4974 -0.8408  0.9982
14004SOL     OW45157   5.113   4.173   0.327  0.0133  0.1989 -0.2589
14004SOL    HW145158   5.038   4.215   0.284  0.8614  1.4518 -0.5928
14004SOL    HW245159   5.184   4.181   0.263  1.4032  2.4036  1.3918
14005SOL     OW45160   4.223   2.472   4.065  0.1614  0.2594 -0.3714
14005SOL    HW145161   4.205   2.505   4.153 -1.5360  0.4328 -0.7434
14005SOL    HW245162   4.257   2.383   4.079 -0.7117  0.0444  0.4432
14006SOL     OW45163   3.401   1.820   6.006  0.5308 -0.1669 -0.5857
14006SOL    HW145164   3.323   1.843   6.057  2.0227 -0.3573  1.9509
14006SOL    HW245165   3.367   1.774   5.929 -1.9201  1.3391 -0.5127
14007SOL     OW45166   4.108   6.305   2.203 -0.0509  0.5494  0.2722
14007SOL    HW145167   4.022   6.332   2.171 -0.3152 -0.1538  0.3633
14007SOL    HW245168   4.166   6.315   2.128 -0.8665 -2.1223 -0.8388
14008SOL     OW45169   3.978   0.384   4.342  0.0906 -0.0113 -0.1873
14008SOL    HW145170   3.921   0.311   4.320  0.3203 -0.0367 -0.7133
14008SOL    HW245171   4.033   0.352   4.413  1.1306 -0.8266 -1.3205
14009SOL     OW45172   3.296   1.244   1.496 -0.3403  0.2450 -0.6897
14009SOL    HW145173   3.365   1.266   1.433 -0.2747 -0.4603 -0.8659
14009SOL    HW245174   3.274   1.328   1.537  0.3030  0.5502 -0.9529
14010SOL     OW45175   1.451   3.552   2.864 -0.8752 -0.1216 -0.0491
14010SOL    HW145176   1.427   3.637   2.901 -0.5356 -0.0728  0.0561
14010SOL    HW245177   1.510   3.573   2.791  0.0669 -0.3115  0.6425
14011SOL     OW45178   3.851   6.600   5.257 -0.0633 -0.0302 -0.6202
14011SOL    HW145179   3.903   6.612   5.337  0.7909  0.0994 -1.1791
14011SOL    HW245180   3.874   6.676   5.203 -4.4792  2.8398  0.9762
14012SOL     OW45181   7.805   3.027   6.065 -0.1154  0.0039 -0.5666
14012SOL    HW145182   7.852   2.944   6.070 -1.6738 -1.0608 -2.1595
14012SOL    HW245183   7.744   3.024   6.138 -0.2159 -0.3074 -0.6604
14013SOL     OW45184   1.709   3.860   6.404 -0.1640  0.0776 -0.1145
14013SOL    HW145185   1.774   3.835   6.469  1.3441  2.3315 -0.6474
14013SOL    HW245186   1.760   3.880   6.326 -1.8375 -1.5795 -1.7675
14014SOL     OW45187   4.750   5.084   3.186 -0.1844 -0.0103  0.2170
14014SOL    HW145188   4.809   5.024   3.230 -1.5541 -2.5295 -1.1908
14014SOL    HW245189   4.696   5.121   3.257  1.5054  0.6248  1.2401
14015SOL     OW45190   2.310   0.446   1.709  0.0613 -0.5549 -0.2789
14015SOL    HW145191   2.301   0.541   1.717  2.8523 -0.3198  1.1951
14015SOL    HW245192   2.346   0.418   1.793 -0.8840 -2.9843 -0.5997
14016SOL     OW45193   6.434   2.297   1.209 -0.4358  0.3910  0.2593
14016SOL    HW145194   6.388   2.374   1.243  0.2951  0.7770  0.3917
14016SOL    HW245195   6.525   2.311   1.235 -0.3139 -0.5648  0.3562
14017SOL     OW45196   7.979   7.708   4.340 -0.3543  0.0052  0.1253
14017SOL    HW145197   8.073   7.718   4.329 -0.1807 -0.2766  1.2020
14017SOL    HW245198   7.945   7.797   4.343 -0.1218  0.1062 -0.2330
14018SOL     OW45199   0.459   6.000   7.646 -0.3327 -0.1168 -0.3140
14018SOL    HW145200   0.526   6.030   7.585  0.0053 -0.4712 -0.1240
14018SOL    HW245201   0.446   5.907   7.624  0.2067 -0.4022  0.5135
14019SOL     OW45202   0.313   2.601   5.212  0.3539 -0.5817 -0.3278
14019SOL    HW145203   0.395   2.610   5.163  0.2905  2.3429 -0.0654
14019SOL    HW245204   0.312   2.510   5.240  3.7417 -0.6524  0.0196
14020SOL     OW45205   0.802   3.421   4.747  0.0993 -0.3813  0.1630
14020SOL    HW145206   0.848   3.340   4.769 -0.4523 -1.0079 -0.9429
14020SOL    HW245207   0.726   3.422   4.805 -1.1289 -1.8252 -1.3223
14021SOL     OW45208   6.318   0.831   3.381 -0.1244 -0.4062  0.3374
14021SOL    HW145209   6.240   0.885   3.395 -0.7687 -1.3734  0.5560
14021SOL    HW245210   6.288   0.760   3.324  0.4132 -1.1735  0.9836
14022SOL     OW45211   4.773   1.647   4.265  0.1986  0.4482  0.4916
14022SOL    HW145212   4.807   1.557   4.258  2.1502  1.2051 -0.6509
14022SOL    HW245213   4.781   1.668   4.358  0.5176 -0.2914  0.6428
14023SOL     OW45214   0.495   0.492   1.986  0.2217  0.1563 -0.0177
14023SOL    HW145215   0.540   0.426   2.038  0.1001 -0.0476 -0.1711
14023SOL    HW245216   0.458   0.553   2.050  0.1321 -0.0530  0.1275
14024SOL     OW45217   5.145   1.125   3.173  0.0899 -0.4199  0.1930
14024SOL    HW145218   5.194   1.048   3.145  1.1368  0.1830  0.3146
14024SOL    HW245219   5.195   1.160   3.247  0.7206  1.4579 -1.0438
14025SOL     OW45220   7.065   5.245   1.180  0.0893  0.3093  0.2030
14025SOL    HW145221   7.033   5.312   1.240  2.0822  1.0472  0.5308
14025SOL    HW245222   7.149   5.218   1.217 -0.0104 -1.3678 -0.6984
14026SOL     OW45223   0.834   1.582   3.423 -0.3261 -0.4207 -0.0421
14026SOL    HW145224   0.900   1.538   3.476 -1.4904 -0.9162  1.0416
14026SOL    HW245225   0.780   1.629   3.486  0.4480  2.0543 -1.1098
14027SOL     OW45226   4.433   2.104   5.226 -0.4780  0.1473  0.2330
14027SOL    HW145227   4.518   2.094   5.183 -0.3261  2.7936 -0.2616
14027SOL    HW245228   4.452   2.156   5.304 -1.4829 -0.2918  0.7807
14028SOL     OW45229   4.357   5.153   6.165 -0.7360  0.1510  0.3230
14028SOL    HW145230   4.422   5.221   6.146  1.6424 -1.1631  3.0299
14028SOL    HW245231   4.274   5.200   6.169  0.3692  2.3718 -0.7167
14029SOL     OW45232   3.545   5.766   6.856 -0.3263  0.3264  0.1206
14029SOL    HW145233   3.514   5.756   6.766  0.0146  1.4830 -0.1563
14029SOL    HW245234   3.619   5.827   6.848  1.2265 -1.3576  0.9055
14030SOL     OW45235   3.475   5.656   2.427 -0.4774  0.0419  0.0055
14030SOL    HW145236   3.473   5.724   2.495  0.4145 -0.3939  0.4892
14030SOL    HW245237   3.540   5.688   2.364  0.9489 -0.9587  0.9144
14031SOL     OW45238   7.174   0.733   7.311 -0.5639  0.1167 -0.4671
14031SOL    HW145239   7.098   0.728   7.253 -0.1664  0.0786 -0.9936
14031SOL    HW245240   7.187   0.644   7.342 -1.0388  0.2125  0.0353
14032SOL     OW45241   6.286   0.081   6.874 -0.0882 -0.8007 -0.3202
14032SOL    HW145242   6.282   0.046   6.963  0.0707 -0.0651 -0.0101
14032SOL    HW245243   6.282   0.176   6.886  2.5481 -0.5292 -0.9058
14033SOL     OW45244   0.808   5.386   4.886 -0.1610  0.2157 -0.0605
14033SOL    HW145245   0.884   5.430   4.924 -0.2022  2.0456 -1.9042
14033SOL    HW245246   0.739   5.452   4.888 -0.8847 -0.4909 -0.8932
14034SOL     OW45247   1.900   3.163   0.694 -0.5360 -0.2640  0.0337
14034SOL    HW145248   1.823   3.106   0.700 -0.8375 -0.1674 -2.1026
14034SOL    HW245249   1.893   3.203   0.608  0.9790  1.1546  0.5163
14035SOL     OW45250   4.617   2.136   2.597 -0.1779 -0.0095 -0.3601
14035SOL    HW145251   4.536   2.174   2.631 -0.6015  0.1140 -1.4425
14035SOL    HW245252   4.593   2.046   2.574  0.4600 -0.5166  0.9232
14036SOL     OW45253   7.166   3.887   6.953  0.0984 -0.2675 -0.0822
14036SOL    HW145254   7.214   3.823   6.899  0.1493 -0.9642  0.7716
14036SOL    HW245255   7.149   3.841   7.035 -2.4493 -0.2433 -0.4836
14037SOL     OW45256   3.083   8.009   7.349 -0.4784 -0.1255  0.2325
14037SOL    HW145257   3.112   8.099   7.335  0.5878 -0.2550  1.3968
14037SOL    HW245258   2.996   8.017   7.387 -0.6592  0.3842 -0.2757
14038SOL     OW45259   5.942   4.094   2.878 -0.1205 -0.2813 -0.3023
14038SOL    HW145260   5.868   4.040   2.848 -0.1331  0.1376 -1.0243
14038SOL    HW245261   5.998   4.032   2.925 -1.1466 -0.5253  0.6648
14039SOL     OW45262   2.645   2.269   7.283  0.9656 -0.3182 -0.8627
14039SOL    HW145263   2.708   2.284   7.212  1.4479 -0.2661 -0.4310
14039SOL    HW245264   2.595   2.192   7.254  1.2064 -0.3396 -1.2297
14040SOL     OW45265   6.138   4.679   1.210 -0.7194 -0.8848 -0.2023
14040SOL    HW145266   6.228   4.654   1.230  0.0630  0.5069 -1.7024
14040SOL    HW245267   6.085   4.607   1.244  0.8781 -1.3927  1.3854
14041SOL     OW45268   3.736   4.458   5.856  0.0639  0.1363  0.2599
14041SOL    HW145269   3.681   4.444   5.778  0.5552  1.2600 -0.3128
14041SOL    HW245270   3.824   4.432   5.829  0.1940  0.3081  0.5112
14042SOL     OW45271   2.760   1.678   7.500  0.6378 -0.5409  0.1221
14042SOL    HW145272   2.763   1.696   7.594  1.9998 -2.8440  0.5860
14042SOL    HW245273   2.837   1.721   7.464  0.5545 -0.3401  0.1833
14043SOL     OW45274   7.015   7.298   5.106 -0.0089 -0.3208  0.8103
14043SOL    HW145275   7.052   7.224   5.056 -1.5379 -0.5096 -0.1075
14043SOL    HW245276   7.053   7.375   5.065 -0.1645 -0.5319  0.2500
14044SOL     OW45277   4.553   4.882   0.830 -0.1909  0.0861  0.2653
14044SOL    HW145278   4.520   4.814   0.888 -2.7995  0.2421 -0.8639
14044SOL    HW245279   4.532   4.964   0.874 -0.3581  0.1776  0.0215
14045SOL     OW45280   1.845   4.309   6.038  0.1715 -0.2459 -0.5660
14045SOL    HW145281   1.897   4.229   6.041 -0.7467 -0.8479 -0.1464
14045SOL    HW245282   1.860   4.351   6.123  1.6373  0.7007 -1.2492
14046SOL     OW45283   4.937   4.533   6.323  0.4882 -0.0107 -0.5836
14046SOL    HW145284   4.864   4.586   6.290  2.4635  1.5078 -2.7967
14046SOL    HW245285   4.997   4.596   6.362  1.7229 -0.9263 -0.9535
14047SOL     OW45286   0.519   1.942   0.191 -0.2527  0.0708  0.4273
14047SOL    HW145287   0.429   1.942   0.159  0.2519  0.8512 -1.1142
14047SOL    HW245288   0.538   1.851   0.209 -1.6505 -0.0009  1.7071
14048SOL     OW45289   3.055   4.407   4.527 -0.2387  0.4124 -0.3294
14048SOL    HW145290   3.072   4.451   4.610  0.1944  0.1312 -0.2616
14048SOL    HW245291   2.980   4.452   4.490 -0.1366  0.8497 -0.0066
14049SOL     OW45292   1.523   4.606   7.834  0.0996 -0.3784 -0.1135
14049SOL    HW145293   1.554   4.547   7.765  1.3911 -0.8309  0.8126
14049SOL    HW245294   1.580   4.683   7.826 -1.5907  0.8138 -1.3316
14050SOL     OW45295   3.768   4.739   7.290 -0.0984  0.5640  0.0957
14050SOL    HW145296   3.759   4.829   7.256  0.3439 -0.7829 -4.1481
14050SOL    HW245297   3.681   4.701   7.278  0.1582 -0.0793  0.2784
14051SOL     OW45298   5.063   5.475   7.066  0.0564  0.1119  0.6031
14051SOL    HW145299   5.103   5.417   7.130 -0.0963 -1.7366 -0.8767
14051SOL    HW245300   5.136   5.518   7.022  0.1469  1.9341  2.4083
14052SOL     OW45301   0.737   0.699   5.222 -0.2852  0.1271  0.1068
14052SOL    HW145302   0.724   0.616   5.268 -0.7739  0.0546 -0.1564
14052SOL    HW245303   0.656   0.712   5.172  0.8555 -0.6630 -2.1222
14053SOL     OW45304   1.096   6.769   6.928  0.2028 -0.0697  0.4207
14053SOL    HW145305   1.103   6.706   6.856  1.3306  0.0821  0.3843
14053SOL    HW245306   1.006   6.802   6.921 -0.1509 -1.0726 -0.0528
14054SOL     OW45307   3.106   1.561   7.054 -0.5363 -0.6215 -0.5224
14054SOL    HW145308   3.036   1.618   7.022  0.3384  0.7627 -0.0561
14054SOL    HW245309   3.173   1.563   6.985 -0.0254 -0.1771 -0.0290
14055SOL     OW45310   7.200   5.298   4.271 -0.0815 -0.0653 -0.2794
14055SOL    HW145311   7.201   5.336   4.183 -2.5252  0.1136 -0.2978
14055SOL    HW245312   7.142   5.222   4.264  0.5795 -0.7307  0.9498
14056SOL     OW45313   1.628   5.090   7.454  0.1721  0.0172  0.6175
14056SOL    HW145314   1.543   5.127   7.433  0.2271 -0.2372 -0.1068
14056SOL    HW245315   1.630   5.007   7.406  1.0584  0.3056  0.1253
14057SOL     OW45316   7.351   2.733   7.504 -0.5508 -0.0269 -0.0728
14057SOL    HW145317   7.331   2.758   7.595  0.9087  0.5454  0.1341
14057SOL    HW245318   7.374   2.816   7.462 -1.5037 -0.2515 -1.0627
14058SOL     OW45319   0.983   1.706   6.299 -0.3453  0.2890  0.2791
14058SOL    HW145320   0.978   1.646   6.224  0.1759  0.6379 -0.0504
14058SOL    HW245321   1.076   1.727   6.305 -0.4817  0.8041  0.5989
14059SOL     OW45322   3.609   1.449   2.659  0.0701  0.1969 -0.2783
14059SOL    HW145323   3.544   1.389   2.694 -0.1990  0.6921  0.0924
14059SOL    HW245324   3.568   1.535   2.665 -0.1520  0.2699 -2.2120
14060SOL     OW45325   0.691   2.589   0.487 -0.0454  0.1725 -0.2482
14060SOL    HW145326   0.714   2.565   0.397 -2.4623 -1.5887 -0.4959
14060SOL    HW245327   0.624   2.525   0.512  1.2710 -0.0646  3.2092
14061SOL     OW45328   1.502   5.812   0.314  0.2191  0.6690 -0.1725
14061SOL    HW145329   1.521   5.896   0.272  0.9919  0.0605 -1.0783
14061SOL    HW245330   1.536   5.822   0.403 -0.8592  1.7499  0.1374
14062SOL     OW45331   3.472   3.746   6.670  0.3269 -0.0212  0.2656
14062SOL    HW145332   3.431   3.769   6.587  1.9945  2.5755  0.0379
14062SOL    HW245333   3.414   3.781   6.737 -0.0277 -0.3390  0.1245
14063SOL     OW45334   5.334   3.099   7.059 -0.5005 -0.2228  0.5743
14063SOL    HW145335   5.324   3.027   6.997  2.8999  0.0442 -0.5148
14063SOL    HW245336   5.348   3.055   7.143  1.9085 -1.0010 -0.1345
14064SOL     OW45337   2.118   5.612   3.943  0.5257  0.4587  0.0483
14064SOL    HW145338   2.044   5.629   4.001  0.7464  0.5470  0.3038
14064SOL    HW245339   2.182   5.567   3.999  0.5284  0.0763 -0.2556
14065SOL     OW45340   8.026   0.440   1.186  0.3131  0.2274  0.1726
14065SOL    HW145341   7.942   0.449   1.141  0.3332 -2.6385 -0.6195
14065SOL    HW245342   8.003   0.421   1.277  0.0513 -0.7198 -0.0775
14066SOL     OW45343   4.387   0.294   0.016 -0.0180 -0.3777  0.1555
14066SOL    HW145344   4.305   0.260  -0.020 -0.5376  0.1183  0.8623
14066SOL    HW245345   4.376   0.291   0.111  0.1758  1.1129  0.2514
14067SOL     OW45346   6.854   5.216   0.110 -0.1273  0.1279 -0.4279
14067SOL    HW145347   6.919   5.221   0.040  0.7843 -0.1290  0.3683
14067SOL    HW245348   6.794   5.288   0.093  0.3314  0.3243 -1.2293
14068SOL     OW45349   3.124   6.697   0.912  0.2393 -0.3104 -0.0014
14068SOL    HW145350   3.060   6.750   0.961  0.1577 -0.2736 -0.1447
14068SOL    HW245351   3.090   6.697   0.823  0.6024 -0.0338 -0.1425
14069SOL     OW45352   6.077   1.464   3.519  0.0431  0.3151  0.6080
14069SOL    HW145353   6.071   1.369   3.526  0.2159  0.1789 -0.7650
14069SOL    HW245354   6.158   1.480   3.471 -0.3116  1.1165  0.2464
14070SOL     OW45355   1.260   1.881   7.971 -0.2287 -0.2028 -0.0360
14070SOL    HW145356   1.304   1.920   7.896  0.8270 -1.2603 -0.0009
14070SOL    HW245357   1.172   1.862   7.940 -0.4327  1.1766 -0.3749
14071SOL     OW45358   7.538   3.822   2.614 -0.1915  1.1978 -0.0816
14071SOL    HW145359   7.630   3.829   2.590 -0.3377  2.4127 -0.3403
14071SOL    HW245360   7.501   3.759   2.552  1.0171 -1.5458  1.7495
14072SOL     OW45361   2.015   1.248   6.923  0.1937  0.1257  0.1839
14072SOL    HW145362   2.007   1.337   6.888  0.5784  0.4129  0.8151
14072SOL    HW245363   1.964   1.194   6.862 -1.8595  1.0620  0.9895
14073SOL     OW45364   4.345   5.790   4.301  0.0104  0.3236  0.3697
14073SOL    HW145365   4.291   5.855   4.256  0.2313 -1.0408 -2.0487
14073SOL    HW245366   4.408   5.761   4.234  1.4003 -0.7243  2.0486
14074SOL     OW45367   0.686   0.671   5.956  0.3332  0.0627  0.2029
14074SOL    HW145368   0.751   0.607   5.984 -0.7364 -1.4114 -0.5888
14074SOL    HW245369   0.687   0.738   6.025  1.4204 -0.8212  1.0776
14075SOL     OW45370   1.714   5.762   4.282 -0.4851  0.0884 -0.1484
14075SOL    HW145371   1.629   5.759   4.324 -1.6061 -2.1708 -2.3038
14075SOL    HW245372   1.746   5.672   4.285  0.9819  0.5420 -0.9570
14076SOL     OW45373   6.495   3.084   5.666 -0.2489 -0.0722  0.0919
14076SOL    HW145374   6.530   3.061   5.752  0.3563 -1.8763 -0.5908
14076SOL    HW245375   6.401   3.066   5.673 -0.0117 -1.4721  0.0311
14077SOL     OW45376   6.602   5.596   3.355 -0.2720  0.0874  0.1533
14077SOL    HW145377   6.557   5.530   3.408 -0.1982 -1.7294 -1.9161
14077SOL    HW245378   6.594   5.676   3.406 -1.9964 -1.1031  1.9236
14078SOL     OW45379   3.032   0.215   4.483 -0.2972  0.0149  0.4061
14078SOL    HW145380   3.053   0.213   4.389  2.1959 -0.6364  0.9143
14078SOL    HW245381   3.013   0.307   4.501 -0.6406  0.1773 -0.6860
14079SOL     OW45382   0.888   7.673   4.259  0.3912 -0.7246 -0.3338
14079SOL    HW145383   0.924   7.600   4.309  0.5158 -0.0930  0.5315
14079SOL    HW245384   0.952   7.743   4.270 -0.8936  0.3235  0.9878
14080SOL     OW45385   7.302   2.547   7.262  0.3570  0.2456 -0.7694
14080SOL    HW145386   7.395   2.554   7.239  0.2729  0.2556 -1.1192
14080SOL    HW245387   7.270   2.475   7.208  0.3516 -0.3311 -0.0156
14081SOL     OW45388   7.448   3.227   4.769  0.1454  0.9352  0.4388
14081SOL    HW145389   7.521   3.165   4.761  0.4028  1.1065  1.3209
14081SOL    HW245390   7.476   3.304   4.719 -0.9389 -0.2825 -2.2216
14082SOL     OW45391   0.963   4.277   7.923 -0.1266 -0.3027  0.9937
14082SOL    HW145392   0.920   4.287   8.008 -2.2189  0.1948 -0.0458
14082SOL    HW245393   0.974   4.182   7.913  0.9118 -0.3253  2.1428
14083SOL     OW45394   6.843   7.674   4.555  0.6304 -0.3977 -0.4064
14083SOL    HW145395   6.927   7.685   4.600  0.1600  0.0359  0.3873
14083SOL    HW245396   6.854   7.719   4.471  0.7390  0.8594  0.2657
14084SOL     OW45397   5.854   0.373   2.393  0.1681  0.5730 -0.1757
14084SOL    HW145398   5.767   0.340   2.373 -0.8415  2.2928  1.0754
14084SOL    HW245399   5.912   0.298   2.381 -1.6356 -0.9400  0.1065
14085SOL     OW45400   7.776   5.409   6.264 -0.1565 -0.0840  0.4706
14085SOL    HW145401   7.785   5.504   6.273  0.2294 -0.1592  0.9083
14085SOL    HW245402   7.787   5.375   6.353 -0.6115 -0.5156  0.3728
14086SOL     OW45403   0.240   3.785   0.030 -0.1525  0.4697 -0.3278
14086SOL    HW145404   0.314   3.749  -0.019  0.3307  1.0569 -0.0411
14086SOL    HW245405   0.163   3.754  -0.017  0.2909  0.6014 -1.1640
14087SOL     OW45406   0.589   2.738   7.105  0.0480 -0.2679  0.3010
14087SOL    HW145407   0.661   2.791   7.141  1.0863 -0.8886 -0.7703
14087SOL    HW245408   0.549   2.697   7.182  0.6423  0.3297  0.9495
14088SOL     OW45409   2.626   5.621   6.657  0.2995  0.5464 -0.6098
14088SOL    HW145410   2.631   5.693   6.593 -2.1884  0.6192 -0.8342
14088SOL    HW245411   2.579   5.552   6.610 -1.4584  0.5500  1.0522
14089SOL     OW45412   6.135   2.185   1.726 -0.1458  0.4985 -0.5748
14089SOL    HW145413   6.138   2.114   1.791  2.1840 -0.7246 -1.8984
14089SOL    HW245414   6.192   2.253   1.762  1.1506 -0.1821 -1.2532
14090SOL     OW45415   2.853   5.991   7.053  0.8238 -0.2408  0.4228
14090SOL    HW145416   2.822   5.985   6.963  1.8578  0.2356  0.0281
14090SOL    HW245417   2.879   5.901   7.075 -0.0940 -0.5019  0.5115
14091SOL     OW45418   6.944   1.840   1.293 -0.1715 -0.0237 -0.2328
14091SOL    HW145419   7.034   1.807   1.292 -0.1178  0.0989  0.1323
14091SOL    HW245420   6.902   1.793   1.364  0.1816  1.3534  0.9494
14092SOL     OW45421   7.979   2.773   2.590  0.2721 -0.2505 -0.6551
14092SOL    HW145422   7.895   2.768   2.636  0.4652  0.2780 -0.2316
14092SOL    HW245423   7.985   2.691   2.541 -0.9992  0.1603 -1.5626
14093SOL     OW45424   2.365   6.378   1.829  0.2995  0.1006  0.2512
14093SOL    HW145425   2.317   6.315   1.883 -0.9314  0.5168 -0.3104
14093SOL    HW245426   2.297   6.428   1.784  1.1468 -1.7301 -3.4949
14094SOL     OW45427   0.856   6.674   7.066  0.1798 -0.4270 -0.7706
14094SOL    HW145428   0.878   6.750   7.119 -3.1052  0.8590 -1.0325
14094SOL    HW245429   0.937   6.622   7.064  1.6354  1.4715  2.0045
14095SOL     OW45430   4.739   2.880   4.005  0.4795  0.3303 -0.6104
14095SOL    HW145431   4.767   2.843   3.921 -1.9644 -1.5143 -0.7487
14095SOL    HW245432   4.745   2.807   4.066  1.4905  1.4490  0.6599
14096SOL     OW45433   3.534   7.219   1.216 -0.0567 -0.3375 -0.2299
14096SOL    HW145434   3.612   7.217   1.159  0.0230  1.8041 -0.2791
14096SOL    HW245435   3.467   7.260   1.162 -0.3937  0.4236  0.7453
14097SOL     OW45436   2.957   0.390   6.291 -0.1205  0.2890 -0.1997
14097SOL    HW145437   2.952   0.483   6.314 -0.7981  0.0701  0.6010
14097SOL    HW245438   2.925   0.345   6.369 -1.8049 -0.5302 -1.3025
14098SOL     OW45439   6.180   1.196   1.619 -0.6172  0.1081  0.5016
14098SOL    HW145440   6.182   1.135   1.693  1.3581 -0.6267 -0.0848
14098SOL    HW245441   6.203   1.142   1.543 -3.5856  0.6147 -0.9107
14099SOL     OW45442   4.148   4.533   2.619 -0.1655  0.4356  0.1202
14099SOL    HW145443   4.135   4.485   2.538  1.3901  0.6072 -0.2783
14099SOL    HW245444   4.216   4.484   2.665  0.2601  1.3203  0.4637
14100SOL     OW45445   2.053   0.800   4.214 -0.0689  0.0667 -0.6691
14100SOL    HW145446   2.099   0.783   4.132  1.0633 -1.7019  0.2546
14100SOL    HW245447   2.123   0.817   4.278 -0.9084  1.0941 -0.0056
14101SOL     OW45448   6.841   7.183   6.189  0.6629 -0.4567  0.0944
14101SOL    HW145449   6.901   7.109   6.181 -0.0521 -1.4007  2.5340
14101SOL    HW245450   6.874   7.233   6.264 -0.4078  0.1803  0.1616
14102SOL     OW45451   8.077   1.140   2.497 -0.5100  0.2514 -0.1981
14102SOL    HW145452   8.106   1.131   2.406  0.8251  0.3615  0.2003
14102SOL    HW245453   8.112   1.225   2.525 -0.8981  0.2116  0.4212
14103SOL     OW45454   3.002   1.544   0.645  0.7688 -0.2553 -0.0850
14103SOL    HW145455   2.926   1.562   0.590  0.8953 -1.1186 -0.5483
14103SOL    HW245456   3.036   1.631   0.667  0.2794  0.1145 -0.7541
14104SOL     OW45457   6.473   1.036   5.905  0.0948  0.4630  0.0039
14104SOL    HW145458   6.462   0.975   5.979  0.2864  1.1813  0.6412
14104SOL    HW245459   6.520   0.985   5.839 -1.9656 -0.8637 -0.5064
14105SOL     OW45460   1.392   0.018   7.536 -0.5589  0.6326 -0.0881
14105SOL    HW145461   1.445   0.071   7.476 -2.4100  1.4925 -1.0563
14105SOL    HW245462   1.395   0.066   7.618  0.7589  0.2578  0.1046
14106SOL     OW45463   5.682   4.814   4.826  0.5298  0.1058  0.0680
14106SOL    HW145464   5.600   4.801   4.872  2.4808 -0.2921  3.8700
14106SOL    HW245465   5.691   4.737   4.769 -1.7801  0.3502 -0.7054
14107SOL     OW45466   4.663   0.021   3.941 -0.2134  0.2644  0.0000
14107SOL    HW145467   4.690   0.112   3.951 -0.3586  0.1995  1.0018
14107SOL    HW245468   4.587   0.011   3.997 -0.0531 -0.5356  0.0941
14108SOL     OW45469   3.741   4.134   3.002 -0.3901 -0.3359  0.7910
14108SOL    HW145470   3.731   4.154   2.909 -0.5274 -2.5538  0.2661
14108SOL    HW245471   3.824   4.174   3.026 -0.1869 -0.0123 -0.3822
14109SOL     OW45472   5.368   6.491   5.988 -0.1981  0.8127 -0.5587
14109SOL    HW145473   5.455   6.524   6.011  1.0422 -1.8517 -1.0771
14109SOL    HW245474   5.332   6.459   6.070 -0.4741  1.4010 -0.4447
14110SOL     OW45475   7.459   8.085   0.972 -0.3321 -0.4201  0.3762
14110SOL    HW145476   7.543   8.049   0.944  0.0958  1.0436 -0.3469
14110SOL    HW245477   7.395   8.018   0.951  0.1019  0.0874 -3.1614
14111SOL     OW45478   4.690   7.899   7.270 -0.1232 -0.6005 -0.4365
14111SOL    HW145479   4.767   7.954   7.287  1.5665 -2.1126 -2.6371
14111SOL    HW245480   4.617   7.960   7.270  1.1275  1.0213  0.9901
14112SOL     OW45481   2.338   0.618   3.930  0.5980 -0.5802 -0.0892
14112SOL    HW145482   2.298   0.551   3.985 -0.6407 -0.6019 -0.9512
14112SOL    HW245483   2.281   0.695   3.940  0.8296 -0.3206 -0.6789
14113SOL     OW45484   3.555   3.849   2.404 -0.2718  0.0050  0.2884
14113SOL    HW145485   3.605   3.925   2.433  1.0610 -0.7091 -0.0346
14113SOL    HW245486   3.468   3.860   2.444 -0.1088  1.6691  0.2391
14114SOL     OW45487   0.793   4.195   4.115  0.0629 -0.5151  0.1815
14114SOL    HW145488   0.840   4.253   4.055  0.7686  0.0007  1.2130
14114SOL    HW245489   0.818   4.107   4.087  0.9830 -0.2639  0.1767
14115SOL     OW45490   1.386   1.144   7.786 -0.5023  0.4027  0.0344
14115SOL    HW145491   1.326   1.160   7.713 -0.5297  0.5538  0.0896
14115SOL    HW245492   1.451   1.082   7.752  0.4011  1.6686 -0.5952
14116SOL     OW45493   2.231   5.010   7.054  0.8592  0.4992  0.3157
14116SOL    HW145494   2.156   4.955   7.032  0.7900  0.7001  0.0458
14116SOL    HW245495   2.205   5.052   7.136  0.4108  1.0515 -0.1020
14117SOL     OW45496   2.199   3.718   0.641 -0.3114  0.1395  0.4712
14117SOL    HW145497   2.260   3.743   0.711  0.0974 -1.2775  0.6425
14117SOL    HW245498   2.187   3.624   0.652 -0.7695  0.0103 -0.9639
14118SOL     OW45499   5.802   5.614   7.928  0.2546  0.1821 -0.3945
14118SOL    HW145500   5.874   5.672   7.903  0.6076 -0.4790 -0.9482
14118SOL    HW245501   5.800   5.547   7.860 -0.4438 -0.1969 -0.0132
14119SOL     OW45502   4.012   7.274   0.984  0.2219 -0.1771 -0.5462
14119SOL    HW145503   4.073   7.233   0.923  0.5301  0.3571 -0.5984
14119SOL    HW245504   4.063   7.290   1.063  0.3890  1.0213 -0.8723
14120SOL     OW45505   1.300   5.670   3.586 -0.1006  0.1142 -0.5128
14120SOL    HW145506   1.371   5.688   3.525  0.3301 -0.2751 -0.1384
14120SOL    HW245507   1.227   5.722   3.554 -0.1640 -0.7655 -1.8749
14121SOL     OW45508   2.400   6.755   5.521  0.2223 -0.6379  0.3975
14121SOL    HW145509   2.479   6.740   5.470 -0.6991  0.6595 -1.5655
14121SOL    HW245510   2.389   6.676   5.574  1.9536 -1.4957 -0.4565
14122SOL     OW45511   5.604   2.786   7.207 -0.2357  0.5600  0.0175
14122SOL    HW145512   5.669   2.798   7.276  0.3133 -0.2613 -0.3411
14122SOL    HW245513   5.586   2.875   7.175  0.4250  0.8299  0.3778
14123SOL     OW45514   7.357   6.969   2.613 -0.8096 -0.2877  0.5281
14123SOL    HW145515   7.355   7.043   2.673  2.4250 -2.6745  4.0154
14123SOL    HW245516   7.308   6.900   2.658 -1.6005 -1.0944 -1.4445
14124SOL     OW45517   2.966   8.058   3.163  0.6679  0.4262  0.0680
14124SOL    HW145518   2.913   8.023   3.236  0.5259  3.5637  1.6281
14124SOL    HW245519   2.913   8.129   3.127  2.5647  1.7360 -0.2624
14125SOL     OW45520   1.096   5.582   2.241  0.1240 -0.1045  0.1594
14125SOL    HW145521   1.064   5.509   2.187  0.6039 -1.1452  1.2262
14125SOL    HW245522   1.061   5.564   2.328  0.0450  1.0913  0.3832
14126SOL     OW45523   7.071   3.792   3.856 -0.3865 -0.1146 -0.1541
14126SOL    HW145524   7.150   3.810   3.907 -1.1855  1.5976  0.5769
14126SOL    HW245525   7.078   3.700   3.833  1.5963 -0.1229  0.2637
14127SOL     OW45526   4.258   4.530   6.394 -0.4344 -0.3722  0.4443
14127SOL    HW145527   4.321   4.527   6.321  0.9335 -2.4822  1.5917
14127SOL    HW245528   4.304   4.579   6.463 -1.4519  1.0189  0.1785
14128SOL     OW45529   1.135   6.654   0.528 -0.4536 -0.1223 -0.0919
14128SOL    HW145530   1.187   6.594   0.581  0.3413 -0.3347 -1.0742
14128SOL    HW245531   1.190   6.732   0.518 -0.5749 -0.0966 -0.6065
14129SOL     OW45532   5.024   1.680   3.267 -0.0541 -0.5524  0.1283
14129SOL    HW145533   5.101   1.696   3.212 -0.6233 -0.4230 -0.6540
14129SOL    HW245534   5.001   1.765   3.303 -0.8329 -0.2514 -1.0113
14130SOL     OW45535   6.861   7.951   4.679 -0.6672  0.6234  0.0553
14130SOL    HW145536   6.948   7.961   4.641 -0.5007  2.4696  0.8164
14130SOL    HW245537   6.843   7.857   4.674  1.6908  0.0837  0.6058
14131SOL     OW45538   0.838   7.660   2.267 -0.0136  0.0384 -0.4784
14131SOL    HW145539   0.933   7.654   2.263  0.0822  1.3227 -0.5857
14131SOL    HW245540   0.809   7.571   2.285  1.2801 -0.0869  1.2289
14132SOL     OW45541   0.559   4.139   2.531 -0.1908 -0.3132  0.5319
14132SOL    HW145542   0.531   4.048   2.519  1.8105 -0.9364  0.0425
14132SOL    HW245543   0.642   4.132   2.579  0.5230  1.1727 -0.4065
14133SOL     OW45544   5.638   6.055   0.793 -0.0610  0.1276  0.1844
14133SOL    HW145545   5.651   5.963   0.817  2.5772  0.3408 -0.1425
14133SOL    HW245546   5.635   6.102   0.876 -1.7038 -0.2373  0.3645
14134SOL     OW45547   0.405   0.141   7.309  0.8006 -0.0922 -0.0988
14134SOL    HW145548   0.475   0.092   7.267  0.6021 -0.7738  0.3591
14134SOL    HW245549   0.352   0.173   7.236  2.1331  1.3076 -0.5137
14135SOL     OW45550   5.952   3.702   1.236 -0.4735  0.2855 -0.2411
14135SOL    HW145551   5.989   3.624   1.194 -0.0292 -0.1052  0.8291
14135SOL    HW245552   5.931   3.673   1.325 -2.8873  0.6398 -0.6180
14136SOL     OW45553   3.396   0.743   0.567  0.4095 -0.6794 -0.1743
14136SOL    HW145554   3.486   0.717   0.548 -0.1274 -0.8435 -2.9758
14136SOL    HW245555   3.397   0.839   0.562  0.1868 -0.7261 -1.9175
14137SOL     OW45556   1.276   7.529   1.399  0.0191  0.2124  0.2211
14137SOL    HW145557   1.214   7.463   1.367  1.5816 -1.2346 -0.0123
14137SOL    HW245558   1.335   7.544   1.324  0.2010  1.2474  0.5551
14138SOL     OW45559   6.371   1.480   0.035 -0.0107  0.3154 -0.0599
14138SOL    HW145560   6.325   1.564   0.043 -2.6527 -0.9357 -1.2028
14138SOL    HW245561   6.325   1.422   0.096 -0.2840 -1.1180 -1.5852
14139SOL     OW45562   2.222   5.056   2.987 -0.4359 -0.0619  0.3565
14139SOL    HW145563   2.250   5.115   3.057 -2.2036  0.1740  0.9219
14139SOL    HW245564   2.221   4.969   3.029 -0.9946  0.0046  0.4908
14140SOL     OW45565   4.166   6.742   7.401 -0.2780 -0.4954 -0.0925
14140SOL    HW145566   4.142   6.833   7.415  0.3564 -0.5937  1.8213
14140SOL    HW245567   4.100   6.691   7.448  0.7563 -0.9156  0.9566
14141SOL     OW45568   7.792   1.573   5.045  0.0717  0.2715 -0.2515
14141SOL    HW145569   7.718   1.512   5.045 -0.7423  1.2187  0.5697
14141SOL    HW245570   7.857   1.532   4.987 -0.4845 -1.2944  0.1815
14142SOL     OW45571   5.228   1.879   3.522  0.4163  0.5472 -0.8124
14142SOL    HW145572   5.142   1.916   3.500 -0.1892  0.2452  0.9054
14142SOL    HW245573   5.226   1.868   3.617  1.5440 -1.4617 -0.9664
14143SOL     OW45574   2.680   1.475   2.580 -0.1943 -0.2223  0.6587
14143SOL    HW145575   2.759   1.425   2.558  2.2347  3.3403  0.2341
14143SOL    HW245576   2.617   1.451   2.513  1.7849 -0.7248 -1.1450
14144SOL     OW45577   5.363   5.959   0.570 -0.3381 -0.2633 -0.0390
14144SOL    HW145578   5.406   5.879   0.601  0.0828  0.6356  1.8596
14144SOL    HW245579   5.269   5.940   0.575 -0.2657 -0.3707  1.2821
14145SOL     OW45580   6.052   6.932   5.609  0.1539 -0.1110 -0.4648
14145SOL    HW145581   6.104   7.010   5.591 -0.0675 -0.3049 -2.0393
14145SOL    HW245582   6.073   6.872   5.538 -2.8026  0.0973 -1.6216
14146SOL     OW45583   0.647   0.211   5.905  0.0657 -0.2469  0.3465
14146SOL    HW145584   0.580   0.277   5.887  0.5768  0.0674 -0.4418
14146SOL    HW245585   0.719   0.260   5.946  0.8964 -0.0947 -1.2270
14147SOL     OW45586   3.992   3.358   6.443  0.9367  0.5598  0.1005
14147SOL    HW145587   3.934   3.285   6.424  1.2625  0.0339  1.0367
14147SOL    HW245588   3.984   3.416   6.367 -1.0335  0.6679  0.3344
14148SOL     OW45589   6.567   2.468   5.459 -0.1870  0.4379  0.3291
14148SOL    HW145590   6.566   2.409   5.534  0.7506 -1.1749 -0.8536
14148SOL    HW245591   6.660   2.480   5.438 -0.4428  0.0639 -1.1377
14149SOL     OW45592   7.936   3.798   3.956 -0.8831 -0.2759  0.6249
14149SOL    HW145593   7.901   3.853   3.885 -0.3680 -1.6572 -0.7515
14149SOL    HW245594   7.874   3.725   3.963  0.0088 -1.0817  0.3476
14150SOL     OW45595   0.712   2.147   1.933  0.1143 -0.7980  0.3441
14150SOL    HW145596   0.654   2.208   1.978 -1.3865 -2.8881  1.4232
14150SOL    HW245597   0.658   2.110   1.863  1.2078 -0.4556 -0.7129
14151SOL     OW45598   3.035   0.796   6.610 -0.3076  0.3266  0.1464
14151SOL    HW145599   3.088   0.863   6.567 -0.5860  0.6439  0.2890
14151SOL    HW245600   2.963   0.845   6.650 -2.0363 -0.3333 -2.0107
14152SOL     OW45601   2.243   2.500   7.541  0.2384  0.2107  0.4061
14152SOL    HW145602   2.210   2.456   7.620  1.9666  0.7402  1.4681
14152SOL    HW245603   2.334   2.520   7.561  0.4689  1.1497 -1.4118
14153SOL     OW45604   6.615   5.225   1.901 -0.2520  0.4954 -0.4455
14153SOL    HW145605   6.525   5.225   1.932 -0.2612 -0.8116 -0.4182
14153SOL    HW245606   6.654   5.146   1.939  1.7227  2.3620  1.7835
14154SOL     OW45607   1.665   1.726   4.637 -0.3760 -0.0115  0.5631
14154SOL    HW145608   1.577   1.762   4.646 -0.5918  0.0874 -1.4282
14154SOL    HW245609   1.651   1.637   4.606  0.2274 -0.1727  0.7447
14155SOL     OW45610   7.673   1.961   6.771  0.2205  0.1493 -0.2406
14155SOL    HW145611   7.591   2.001   6.799  0.8015 -0.0117  1.8639
14155SOL    HW245612   7.652   1.868   6.760 -0.0545  0.2376 -0.4644
14156SOL     OW45613   6.128   7.346   2.810 -0.2464 -0.3839 -0.1672
14156SOL    HW145614   6.122   7.365   2.716 -0.7712 -0.7610 -0.2128
14156SOL    HW245615   6.136   7.251   2.815  0.3442 -0.3239  0.1520
14157SOL     OW45616   0.408   3.605   3.708 -0.2376  0.7804 -0.1276
14157SOL    HW145617   0.423   3.622   3.615 -0.1417 -1.3174 -0.5464
14157SOL    HW245618   0.347   3.531   3.709  2.1174 -1.3105  1.3820
14158SOL     OW45619   2.994   3.272   4.246 -0.5133  0.0907  0.1031
14158SOL    HW145620   3.073   3.227   4.275  0.5617  0.6716 -1.7558
14158SOL    HW245621   2.979   3.339   4.313  0.5054 -0.1156  0.5604
14159SOL     OW45622   7.340   3.525   3.531 -0.3178 -0.4779 -0.4661
14159SOL    HW145623   7.393   3.446   3.545  0.8565  0.3160 -0.2920
14159SOL    HW245624   7.302   3.544   3.617 -1.2672 -1.2989 -0.6894
14160SOL     OW45625   1.088   4.083   0.111 -0.0034 -0.4989 -0.1980
14160SOL    HW145626   1.076   4.040   0.027  0.8038 -0.5290 -0.3066
14160SOL    HW245627   1.172   4.051   0.143 -0.1687 -0.2765  0.4960
14161SOL     OW45628   6.259   1.483   5.912  0.0732 -0.6110 -0.5968
14161SOL    HW145629   6.310   1.508   5.989 -1.8159  0.6666  0.3113
14161SOL    HW245630   6.300   1.402   5.882  1.1292 -0.9198  1.4841
14162SOL     OW45631   6.740   1.047   7.585 -0.1554  0.0793 -0.2027
14162SOL    HW145632   6.827   1.066   7.551  0.2311  0.4236  0.9358
14162SOL    HW245633   6.707   1.131   7.617 -1.5988  0.2840 -2.0966
14163SOL     OW45634   7.290   0.442   4.025 -0.4802  0.6025  0.1164
14163SOL    HW145635   7.299   0.509   3.957  0.6015 -0.2602 -0.6169
14163SOL    HW245636   7.326   0.363   3.985 -1.2878 -0.3074  1.1436
14164SOL     OW45637   7.418   0.856   3.988 -0.9615 -0.2044  0.2648
14164SOL    HW145638   7.436   0.873   4.081 -1.4078  0.2577  0.2680
14164SOL    HW245639   7.377   0.936   3.956 -0.8382 -0.3734 -0.3300
14165SOL     OW45640   5.403   3.071   6.480 -0.5815  0.6866 -0.2893
14165SOL    HW145641   5.381   3.012   6.552 -1.0219 -0.8558 -1.6230
14165SOL    HW245642   5.488   3.107   6.504 -0.3914 -0.3365  0.6670
14166SOL     OW45643   7.832   2.335   3.045  0.1786  0.0460  0.4216
14166SOL    HW145644   7.768   2.390   3.091 -0.2188 -1.6035  1.9804
14166SOL    HW245645   7.814   2.247   3.077  2.2970 -0.6709 -0.2281
14167SOL     OW45646   5.637   3.058   7.107 -0.4445  0.3619  0.0939
14167SOL    HW145647   5.611   3.124   7.042 -0.5736  0.1495 -0.0678
14167SOL    HW245648   5.625   3.102   7.191  0.3393  0.8610 -0.0443
14168SOL     OW45649   7.650   1.730   1.366  0.1638 -0.0893  0.1102
14168SOL    HW145650   7.731   1.746   1.416 -0.4511  0.7026  0.8814
14168SOL    HW245651   7.659   1.786   1.289  0.1764  0.3306  0.4070
14169SOL     OW45652   5.112   7.406   6.047  0.3332 -0.0999 -0.1005
14169SOL    HW145653   5.144   7.489   6.011 -1.2601  0.9281  0.7081
14169SOL    HW245654   5.182   7.375   6.103  0.0936  1.9767  1.4792
14170SOL     OW45655   6.032   5.743   1.292 -0.5831  0.1985  0.1340
14170SOL    HW145656   5.937   5.733   1.300 -0.5095  0.0089  0.7769
14170SOL    HW245657   6.043   5.829   1.250 -0.9981  1.0065  1.6225
14171SOL     OW45658   6.367   1.314   1.238  0.5007  0.1615 -0.1433
14171SOL    HW145659   6.436   1.265   1.194  1.3849  0.1194  1.2241
14171SOL    HW245660   6.397   1.321   1.329 -0.1176  2.2892 -0.0510
14172SOL     OW45661   2.610   2.008   0.263 -0.2531 -0.5993  0.2547
14172SOL    HW145662   2.534   1.955   0.284  0.8856 -1.5777  2.1950
14172SOL    HW245663   2.589   2.049   0.180 -2.6107 -1.3459  0.4244
14173SOL     OW45664   1.860   2.269   4.897  0.0623  0.4365  0.1575
14173SOL    HW145665   1.813   2.343   4.935  0.5641  1.3054 -0.8600
14173SOL    HW245666   1.877   2.296   4.806 -1.8325 -1.8670 -1.0054
14174SOL     OW45667   2.842   2.347   7.966  0.0312  0.8084 -0.5051
14174SOL    HW145668   2.930   2.374   7.941  0.7383 -0.3037  0.6379
14174SOL    HW245669   2.811   2.295   7.892  1.1184 -0.3926 -0.1695
14175SOL     OW45670   3.496   7.417   2.316  0.5677  0.0067 -0.4154
14175SOL    HW145671   3.523   7.348   2.256  1.7410 -0.4937  0.6593
14175SOL    HW245672   3.531   7.497   2.277  0.7690 -0.2340 -0.7354
14176SOL     OW45673   7.546   7.044   1.602 -0.3605  0.2768  0.7544
14176SOL    HW145674   7.456   7.056   1.572 -0.2153 -0.6374 -0.1005
14176SOL    HW245675   7.590   7.000   1.529  0.8814  1.0354  1.0084
14177SOL     OW45676   3.071   3.581   6.236  0.6094 -0.7780  0.3949
14177SOL    HW145677   2.979   3.555   6.236  0.7641 -1.4280  1.7949
14177SOL    HW245678   3.085   3.619   6.323  1.7322 -0.9701  0.3117
14178SOL     OW45679   5.075   0.011   7.562  0.4309  0.1571 -0.4527
14178SOL    HW145680   5.125   0.052   7.492  0.3718 -2.3139 -2.0448
14178SOL    HW245681   5.141  -0.011   7.629  0.7234  1.0932 -0.4228
14179SOL     OW45682   2.087   7.743   0.074 -0.2119 -0.1463 -0.4924
14179SOL    HW145683   1.997   7.730   0.103  0.2583 -1.8494  0.3002
14179SOL    HW245684   2.140   7.733   0.153  0.9785 -3.4642 -1.5416
14180SOL     OW45685   2.165   1.808   5.846 -0.2742  0.3886  0.1185
14180SOL    HW145686   2.147   1.856   5.765 -2.4191 -1.4983 -0.6519
14180SOL    HW245687   2.224   1.737   5.820 -0.2862  0.2749  0.3929
14181SOL     OW45688   4.027   0.372   1.827  0.1417  0.1084  1.1495
14181SOL    HW145689   4.023   0.430   1.751  0.7434 -0.7530  0.4347
14181SOL    HW245690   4.114   0.387   1.864  1.0742 -1.6771 -0.1774
14182SOL     OW45691   0.741   6.548   3.407  0.3828  0.1054 -0.2621
14182SOL    HW145692   0.741   6.594   3.491  1.3976  0.8862 -0.6598
14182SOL    HW245693   0.813   6.486   3.414  1.2933  1.0370 -0.9706
14183SOL     OW45694   1.816   0.511   0.109 -0.1717 -0.1582 -0.5257
14183SOL    HW145695   1.843   0.420   0.096  1.4821  0.2514 -0.2545
14183SOL    HW245696   1.872   0.542   0.180  0.0212  1.3608 -1.3061
14184SOL     OW45697   4.621   2.945   4.285  0.6959 -0.0898  0.4516
14184SOL    HW145698   4.711   2.915   4.274 -0.0628 -3.0703  1.4457
14184SOL    HW245699   4.567   2.877   4.245 -1.1907  0.2821  2.1634
14185SOL     OW45700   3.612   5.001   2.830  0.8426 -0.2212 -0.1308
14185SOL    HW145701   3.659   4.973   2.909 -0.1053  0.5643  0.7428
14185SOL    HW245702   3.526   5.028   2.862  0.4872  0.2432 -1.4251
14186SOL     OW45703   0.019   0.537   2.793  0.5285 -0.1699 -0.1484
14186SOL    HW145704   0.053   0.615   2.836  0.2833  0.8698 -1.7495
14186SOL    HW245705  -0.061   0.566   2.749  0.4949 -1.2796 -0.8752
14187SOL     OW45706   6.533   1.419   6.867  0.1301 -0.6865 -0.3571
14187SOL    HW145707   6.513   1.379   6.951 -1.1101 -1.3598 -0.9314
14187SOL    HW245708   6.628   1.415   6.860  0.4973  1.4323  1.9616
14188SOL     OW45709   6.230   7.281   7.664 -0.5408 -0.0480 -0.0875
14188SOL    HW145710   6.278   7.299   7.745  2.2411 -2.9106 -0.8841
14188SOL    HW245711   6.180   7.201   7.683  0.4013 -0.9410 -1.2136
14189SOL     OW45712   2.414   6.033   4.613 -0.3607 -0.3038 -0.0733
14189SOL    HW145713   2.456   5.971   4.673  0.7255 -0.4905 -0.9897
14189SOL    HW245714   2.454   6.117   4.632 -2.1131  0.2641  1.4395
14190SOL     OW45715   6.769   1.089   5.379 -0.2079 -0.2131  0.2542
14190SOL    HW145716   6.742   1.169   5.334  0.1075 -0.5482 -0.5598
14190SOL    HW245717   6.816   1.039   5.312  1.6907 -0.0303  1.3774
14191SOL     OW45718   2.727   1.239   0.550 -0.3047 -0.2041  0.3040
14191SOL    HW145719   2.729   1.219   0.643  1.6830  1.0438  0.5979
14191SOL    HW245720   2.786   1.176   0.510  0.0730  0.2416  0.1424
14192SOL     OW45721   1.469   2.834   3.868 -0.1321 -0.3870 -0.1419
14192SOL    HW145722   1.453   2.913   3.919 -3.6839 -1.6939  1.0418
14192SOL    HW245723   1.504   2.771   3.931  1.1616 -0.2968 -0.7311
14193SOL     OW45724   1.982   3.518   3.417  0.0043  0.0026  0.5144
14193SOL    HW145725   1.945   3.430   3.415  2.7682 -1.2547 -0.8335
14193SOL    HW245726   1.914   3.574   3.380 -1.4565 -1.7160  0.4989
14194SOL     OW45727   4.129   5.128   1.232  1.1580  0.1259 -0.5051
14194SOL    HW145728   4.100   5.088   1.150  0.6939 -0.1075 -0.2323
14194SOL    HW245729   4.084   5.078   1.300  0.6275  1.0659 -0.1531
14195SOL     OW45730   7.976   2.969   1.430 -0.4812  0.3425  0.1133
14195SOL    HW145731   7.901   2.927   1.472 -0.4342 -1.5165 -1.5056
14195SOL    HW245732   8.052   2.934   1.476 -0.5143 -0.0467 -0.1212
14196SOL     OW45733   0.093   2.252   1.280 -0.4313  0.5691 -0.1871
14196SOL    HW145734   0.014   2.209   1.312 -1.0578  1.5781 -0.3158
14196SOL    HW245735   0.156   2.243   1.351 -0.3881 -0.9215 -0.3840
14197SOL     OW45736   6.405   7.424   1.998  0.5989 -0.0238 -0.2041
14197SOL    HW145737   6.483   7.402   1.946 -0.0887 -2.3279 -0.3963
14197SOL    HW245738   6.373   7.505   1.959  2.3876  0.4982 -0.7032
14198SOL     OW45739   2.567   7.193   6.134 -0.0469 -0.0951 -0.2139
14198SOL    HW145740   2.629   7.156   6.197 -0.3061  1.0920  0.7757
14198SOL    HW245741   2.493   7.221   6.188  0.1058  1.7838 -0.9236
14199SOL     OW45742   3.930   3.703   2.831  0.0264 -0.6478  0.4116
14199SOL    HW145743   3.936   3.689   2.736 -0.6397 -0.0885  0.2725
14199SOL    HW245744   3.998   3.647   2.868 -1.4398 -2.9808 -0.1937
14200SOL     OW45745   5.370   2.341   6.423 -0.0760  0.2853 -0.1535
14200SOL    HW145746   5.324   2.382   6.496 -0.5416 -1.2757  0.4801
14200SOL    HW245747   5.303   2.326   6.357 -0.0043  0.0966 -0.1844
14201SOL     OW45748   6.773   4.744   0.368 -0.2714  0.3665  0.2271
14201SOL    HW145749   6.815   4.821   0.331 -0.4607  0.6618  0.6130
14201SOL    HW245750   6.836   4.710   0.431 -0.9168  1.3186  1.4588
14202SOL     OW45751   7.868   1.891   1.395  0.2015  1.0274  0.0605
14202SOL    HW145752   7.934   1.951   1.360  0.0691  1.0180 -0.2073
14202SOL    HW245753   7.916   1.811   1.416 -0.2599 -0.3171 -3.4610
14203SOL     OW45754   4.759   0.923   4.510 -0.0103  0.2819 -0.1957
14203SOL    HW145755   4.684   0.923   4.452 -0.6724  0.1545  0.6373
14203SOL    HW245756   4.835   0.928   4.452 -0.6272 -0.4939 -1.0871
14204SOL     OW45757   7.107   7.635   7.140 -0.5676  0.2243  0.0857
14204SOL    HW145758   7.136   7.570   7.077 -1.6530 -1.3319  1.1311
14204SOL    HW245759   7.011   7.633   7.135 -0.6484  2.1434 -0.2245
14205SOL     OW45760   5.643   1.711   7.374  0.5397 -0.1599 -0.2236
14205SOL    HW145761   5.725   1.761   7.368  1.3719 -1.5869 -1.2852
14205SOL    HW245762   5.626   1.681   7.285 -3.6394  3.8042 -1.1247
14206SOL     OW45763   1.423   0.078   5.108  0.2479 -0.2307  0.2547
14206SOL    HW145764   1.383   0.103   5.024  1.2463  2.0208  0.3694
14206SOL    HW245765   1.358   0.021   5.149 -1.8902  1.4743 -0.5186
14207SOL     OW45766   3.546   4.533   6.170 -0.2088 -0.1254  0.7553
14207SOL    HW145767   3.514   4.490   6.090  0.4444 -0.1657  0.5110
14207SOL    HW245768   3.633   4.496   6.185  0.3994  1.1341  0.5085
14208SOL     OW45769   2.377   2.708   6.837  0.2824  0.0514  0.5392
14208SOL    HW145770   2.348   2.622   6.866 -0.1070  0.0415  0.1450
14208SOL    HW245771   2.440   2.691   6.767 -0.6243  0.0687 -0.3245
14209SOL     OW45772   2.098   4.022   3.166 -0.3158 -0.2770  0.5442
14209SOL    HW145773   2.124   3.935   3.136  0.0577  0.3630 -1.0824
14209SOL    HW245774   2.036   4.005   3.238 -1.0409 -1.9014 -0.4116
14210SOL     OW45775   2.482   7.267   8.062  0.0851 -0.1862 -0.2967
14210SOL    HW145776   2.541   7.343   8.065 -0.9597  0.6210  0.5681
14210SOL    HW245777   2.455   7.254   8.152 -3.1234  1.1797 -0.9112
14211SOL     OW45778   7.714   0.358   3.071 -0.1176  0.1584 -0.0727
14211SOL    HW145779   7.645   0.369   3.136 -0.0437 -1.2929  0.2804
14211SOL    HW245780   7.668   0.332   2.991 -0.2579  2.4497 -0.7906
14212SOL     OW45781   4.913   1.160   6.929  0.1706  0.3700  0.8073
14212SOL    HW145782   4.891   1.189   7.018 -0.2122 -3.2714  2.0633
14212SOL    HW245783   5.005   1.133   6.935  0.2792  0.5293 -0.0490
14213SOL     OW45784   1.392   5.159   2.277 -0.0772  0.4543  0.0301
14213SOL    HW145785   1.434   5.149   2.192 -0.8298 -0.0705 -0.2923
14213SOL    HW245786   1.464   5.167   2.340  0.4808  0.3132 -0.5892
14214SOL     OW45787   1.792   4.630   5.801  0.2896 -0.6021 -0.0127
14214SOL    HW145788   1.716   4.576   5.819 -0.1734 -1.1277 -3.0255
14214SOL    HW245789   1.756   4.711   5.765  1.1004 -0.7654 -1.2609
14215SOL     OW45790   3.318   6.383   1.331 -0.0617 -0.8843 -0.0369
14215SOL    HW145791   3.282   6.472   1.325  0.6083 -0.5366  0.8861
14215SOL    HW245792   3.398   6.393   1.383 -0.8582 -2.2639  1.5804
14216SOL     OW45793   1.940   3.716   6.474  0.2119  0.1889 -0.2723
14216SOL    HW145794   2.015   3.751   6.425  1.1697 -1.3226  0.0332
14216SOL    HW245795   1.951   3.621   6.469 -1.3296 -0.0453  0.3643
14217SOL     OW45796   2.242   1.612   2.281  0.5008 -0.2115  0.2361
14217SOL    HW145797   2.221   1.663   2.203 -0.0965 -0.6085  0.1292
14217SOL    HW245798   2.307   1.549   2.252 -1.7525 -2.2505 -0.6878
14218SOL     OW45799   3.104   2.197   2.508  0.0066 -0.0351  0.1886
14218SOL    HW145800   3.071   2.226   2.423 -1.3196 -1.4393  0.1917
14218SOL    HW245801   3.176   2.138   2.486  0.9339  1.0778  0.1233
14219SOL     OW45802   3.463   6.381   1.827 -0.2915  0.4579  0.2490
14219SOL    HW145803   3.368   6.393   1.825 -0.3856 -0.3231 -0.2706
14219SOL    HW245804   3.483   6.329   1.749  0.6768  1.3498 -0.1161
14220SOL     OW45805   6.850   2.435   0.649 -0.1263  0.6314  0.2773
14220SOL    HW145806   6.843   2.467   0.559  0.5195  1.3529  0.4714
14220SOL    HW245807   6.933   2.471   0.681  0.9937 -1.7864  0.3057
14221SOL     OW45808   2.563   1.796   0.471 -0.1920 -0.6504 -0.1499
14221SOL    HW145809   2.638   1.794   0.411 -0.1986  1.3118 -0.2727
14221SOL    HW245810   2.508   1.723   0.443 -0.2501  0.2480 -2.6538
14222SOL     OW45811   7.543   2.626   2.180  0.1355 -0.4342 -0.2135
14222SOL    HW145812   7.450   2.646   2.178 -0.1631 -1.7043  0.3009
14222SOL    HW245813   7.566   2.610   2.088 -0.2080 -0.3359 -0.3184
14223SOL     OW45814   4.056   4.198   3.857  0.3884  0.1495  0.1859
14223SOL    HW145815   4.145   4.226   3.877  0.5565 -1.4238  1.9182
14223SOL    HW245816   4.027   4.258   3.788  2.5183  1.1376  0.0650
14224SOL     OW45817   5.352   4.530   3.071  0.1817  0.3142 -0.1240
14224SOL    HW145818   5.437   4.514   3.031  0.7423  2.6387 -0.0547
14224SOL    HW245819   5.289   4.520   3.000  0.6298 -0.2738 -0.4458
14225SOL     OW45820   5.116   5.727   0.870  0.0053 -0.2541  0.6193
14225SOL    HW145821   5.071   5.797   0.823  1.9734  1.5083  1.1859
14225SOL    HW245822   5.138   5.765   0.955  1.5158 -1.4024  0.7989
14226SOL     OW45823   4.160   8.067   7.304  0.0854  0.2391  0.5437
14226SOL    HW145824   4.197   8.060   7.392 -0.5480 -1.0089  0.7335
14226SOL    HW245825   4.118   8.153   7.302  1.7328  1.1044  0.7844
14227SOL     OW45826   8.020   6.599   4.732 -0.7835 -0.2446 -0.6396
14227SOL    HW145827   7.945   6.605   4.790 -1.0651  2.0383 -1.1317
14227SOL    HW245828   8.082   6.543   4.779 -0.3391  2.6727  2.7156
14228SOL     OW45829   0.786   4.049   3.040 -0.3268 -0.1453 -0.3249
14228SOL    HW145830   0.847   4.119   3.017  0.4602  0.0908  2.1910
14228SOL    HW245831   0.701   4.093   3.046 -0.0406  0.3646  0.0917
14229SOL     OW45832   1.676   7.238   4.837 -0.0329  0.0911  0.7364
14229SOL    HW145833   1.643   7.177   4.771 -0.5951  0.5502  0.5790
14229SOL    HW245834   1.696   7.318   4.787  0.5564  0.0864  0.9591
14230SOL     OW45835   7.627   1.797   5.048 -0.4526 -0.1599  0.2426
14230SOL    HW145836   7.689   1.858   5.088 -0.7779 -0.6919  1.5893
14230SOL    HW245837   7.678   1.718   5.031 -0.1947  0.2306 -0.8891
14231SOL     OW45838   0.457   4.697   5.444  0.7224 -0.2034 -0.3953
14231SOL    HW145839   0.367   4.729   5.445  0.7679 -0.0816  0.5135
14231SOL    HW245840   0.456   4.620   5.501  1.0804 -0.5254 -0.8141
14232SOL     OW45841   1.730   1.735   3.431  0.2567 -0.1089 -0.1749
14232SOL    HW145842   1.739   1.725   3.336  0.3744  0.7230 -0.2543
14232SOL    HW245843   1.643   1.699   3.450 -0.3284  0.9481 -0.7880
14233SOL     OW45844   1.994   5.698   7.136  0.6005 -0.3216  0.0359
14233SOL    HW145845   1.954   5.784   7.148  1.2386  0.0839 -0.6294
14233SOL    HW245846   2.032   5.702   7.048  1.7059 -0.8474  0.4742
14234SOL     OW45847   3.465   7.783   2.831  0.1317  0.4979 -0.0661
14234SOL    HW145848   3.391   7.781   2.891 -0.7083  0.5921 -1.0733
14234SOL    HW245849   3.498   7.873   2.836 -0.2854  0.6575 -0.1565
14235SOL     OW45850   4.444   2.675   8.054 -0.6211 -0.5749 -0.3668
14235SOL    HW145851   4.538   2.664   8.065 -0.2614  0.9572 -1.6332
14235SOL    HW245852   4.411   2.585   8.042  0.5095 -1.2090  0.9386
14236SOL     OW45853   6.488   0.509   5.081 -0.1102  0.3070 -0.2596
14236SOL    HW145854   6.410   0.514   5.136 -1.1490 -0.1623 -1.6662
14236SOL    HW245855   6.550   0.570   5.123 -1.2590  0.8050  0.7779
14237SOL     OW45856   5.165   3.235   4.802  0.6207  0.5100  0.1366
14237SOL    HW145857   5.250   3.278   4.800  0.8003  0.1299 -1.1662
14237SOL    HW245858   5.184   3.144   4.782 -0.1528  0.5336 -0.7484
14238SOL     OW45859   6.047   0.239   6.673 -0.3094  0.0777  0.2441
14238SOL    HW145860   6.096   0.159   6.688  0.4724  0.5324  0.1834
14238SOL    HW245861   6.000   0.254   6.755 -0.1143 -0.2070  0.4087
14239SOL     OW45862   3.503   0.109   6.794 -0.7244 -0.2833 -0.2214
14239SOL    HW145863   3.580   0.078   6.840 -1.5108 -1.3458  0.4131
14239SOL    HW245864   3.499   0.055   6.715 -1.1937 -0.7098  0.0878
14240SOL     OW45865   5.025   4.790   0.349 -0.2357 -0.2785  0.4307
14240SOL    HW145866   4.956   4.750   0.297  0.3357  0.7436 -1.1782
14240SOL    HW245867   4.981   4.860   0.397 -0.6295 -0.7719  0.8067
14241SOL     OW45868   0.295   4.973   5.031 -0.2826 -0.2129 -0.4043
14241SOL    HW145869   0.289   5.051   4.975  1.3428  0.4598  0.2777
14241SOL    HW245870   0.370   4.925   4.995 -0.0618 -0.4495  0.3649
14242SOL     OW45871   1.453   1.479   2.987 -0.0177 -0.2487 -0.0296
14242SOL    HW145872   1.471   1.535   2.911 -0.3367 -0.7894 -0.5113
14242SOL    HW245873   1.358   1.467   2.986 -0.2762  1.2480  1.5401
14243SOL     OW45874   4.721   3.972   1.606  0.3077  0.4641  0.0423
14243SOL    HW145875   4.683   3.966   1.693  0.4590 -1.8602  0.0033
14243SOL    HW245876   4.647   3.998   1.550 -0.3000 -0.0987  0.5635
14244SOL     OW45877   0.395   6.115   5.326  0.2857  0.2369 -0.0512
14244SOL    HW145878   0.441   6.126   5.409  0.0751  0.9057 -0.0220
14244SOL    HW245879   0.320   6.060   5.348  0.5926 -0.1374  0.0697
14245SOL     OW45880   2.528   6.569   4.226 -0.1832 -0.0384  0.0283
14245SOL    HW145881   2.568   6.655   4.213  0.9777 -0.7363 -1.3926
14245SOL    HW245882   2.529   6.529   4.139 -4.5256  0.0457 -0.2432
14246SOL     OW45883   1.196   3.618   6.972  0.4204  0.3409  0.0369
14246SOL    HW145884   1.158   3.706   6.972  0.0312  0.1878  1.1737
14246SOL    HW245885   1.189   3.589   6.881 -0.0615  1.2259 -0.2176
14247SOL     OW45886   5.153   5.552   1.464 -0.0252 -0.4001  0.1952
14247SOL    HW145887   5.220   5.543   1.396 -1.1374 -2.0727 -0.7481
14247SOL    HW245888   5.079   5.501   1.431 -1.4435  0.6598  1.6226
14248SOL     OW45889   5.493   0.631   5.164  0.4617  0.0899  0.7645
14248SOL    HW145890   5.499   0.651   5.257  0.7612 -2.2415  1.3230
14248SOL    HW245891   5.584   0.624   5.135  0.4129  2.5088 -0.1873
14249SOL     OW45892   4.847   5.948   1.090  0.1621  0.1694  0.0996
14249SOL    HW145893   4.791   6.024   1.076  0.5958  0.6255  0.7964
14249SOL    HW245894   4.870   5.919   1.002 -0.0065  0.8481 -0.1749
14250SOL     OW45895   4.015   2.142   4.681 -0.2444  0.0175  0.0837
14250SOL    HW145896   4.010   2.064   4.736 -0.7754  0.2731  0.3969
14250SOL    HW245897   4.005   2.109   4.591  0.5517 -0.3899  0.1321
14251SOL     OW45898   3.021   5.500   3.472  0.5450 -1.0706  0.0316
14251SOL    HW145899   3.040   5.412   3.438 -0.3828 -1.0342 -0.6165
14251SOL    HW245900   2.937   5.523   3.432 -1.7937 -1.8919  3.8860
14252SOL     OW45901   6.920   6.409   5.142  0.0160  0.2644 -0.1870
14252SOL    HW145902   6.915   6.443   5.053  1.4813  0.7835 -0.0965
14252SOL    HW245903   6.877   6.476   5.195 -0.2507  0.2778 -0.4131
14253SOL     OW45904   2.726   0.282   0.751 -0.3792  0.0801 -0.1331
14253SOL    HW145905   2.648   0.250   0.706 -1.9448  2.2119  0.8723
14253SOL    HW245906   2.735   0.224   0.827 -0.6437 -0.5118 -0.5438
14254SOL     OW45907   5.222   1.133   7.756  0.2713  0.1207 -0.0667
14254SOL    HW145908   5.162   1.140   7.829 -1.1841 -1.5477 -1.0179
14254SOL    HW245909   5.283   1.206   7.767 -2.3133  2.3379  0.5876
14255SOL     OW45910   1.278   2.158   5.872  0.6060 -0.1830  0.2795
14255SOL    HW145911   1.361   2.147   5.824  1.2653 -0.4024  1.4443
14255SOL    HW245912   1.217   2.188   5.805  1.6540  0.1278 -0.5825
14256SOL     OW45913   0.009   2.484   5.448  0.7044 -0.0242  0.0295
14256SOL    HW145914   0.070   2.539   5.497  1.1811  0.8829 -1.5090
14256SOL    HW245915   0.000   2.527   5.363 -1.6999 -0.4144 -0.0016
14257SOL     OW45916   2.708   0.257   3.131 -0.2968 -0.2873 -0.8455
14257SOL    HW145917   2.615   0.269   3.111  0.0575 -0.1602 -2.5398
14257SOL    HW245918   2.752   0.265   3.047  1.3533  0.5027  0.0491
14258SOL     OW45919   5.180   6.457   5.791 -0.1962 -0.5873  0.3379
14258SOL    HW145920   5.223   6.459   5.877 -0.3460 -0.9402  0.4209
14258SOL    HW245921   5.091   6.426   5.809 -0.5043  0.1880  0.1714
14259SOL     OW45922   4.528   5.021   3.038  0.5883  0.5420  0.0177
14259SOL    HW145923   4.590   5.031   3.110  1.6672  1.8029 -1.0224
14259SOL    HW245924   4.456   5.079   3.060 -0.6546 -1.4650  1.5866
14260SOL     OW45925   0.447   4.844   2.388  0.1873  0.1858 -0.0588
14260SOL    HW145926   0.459   4.863   2.295  2.4163 -0.0381  0.1275
14260SOL    HW245927   0.531   4.865   2.428 -0.8437  0.6842  2.0046
14261SOL     OW45928   1.845   3.078   2.880  0.2641  0.2250  1.0110
14261SOL    HW145929   1.779   3.123   2.828  2.0093  1.7269 -0.0459
14261SOL    HW245930   1.800   3.051   2.959 -1.3909  2.0102  0.7472
14262SOL     OW45931   5.843   0.273   2.051 -0.1036 -0.4133 -0.1114
14262SOL    HW145932   5.803   0.239   1.971 -0.1707  0.1751 -0.3328
14262SOL    HW245933   5.780   0.253   2.120  1.0142 -3.1510  0.2541
14263SOL     OW45934   1.762   5.570   1.952 -0.4930  0.3849  0.9684
14263SOL    HW145935   1.799   5.649   1.993  1.6971  0.2103 -0.4643
14263SOL    HW245936   1.826   5.502   1.970  0.6537  0.3132 -2.5935
14264SOL     OW45937   5.211   2.748   4.594  0.2514  0.0158 -0.4654
14264SOL    HW145938   5.266   2.695   4.651  0.1210  1.0475  0.6815
14264SOL    HW245939   5.132   2.696   4.581  1.2204 -1.2085 -1.6101
14265SOL     OW45940   1.374   0.463   4.741  0.2825 -0.0791 -0.3608
14265SOL    HW145941   1.286   0.430   4.756  0.1108  1.2646  2.1290
14265SOL    HW245942   1.363   0.532   4.676 -0.4822 -0.0667 -0.2238
14266SOL     OW45943   7.165   5.695   5.923 -0.4175 -0.1642 -0.0471
14266SOL    HW145944   7.069   5.693   5.934 -0.4697  0.0205 -0.4645
14266SOL    HW245945   7.180   5.654   5.838 -0.0919 -0.5531  0.1942
14267SOL     OW45946   2.121   2.188   6.853  0.0020  0.2976 -0.2990
14267SOL    HW145947   2.148   2.192   6.944 -1.3167 -2.9647  0.3440
14267SOL    HW245948   2.029   2.215   6.854  0.4968  2.1982 -1.0484
14268SOL     OW45949   6.849   6.195   0.369 -0.1245 -0.6813 -0.3281
14268SOL    HW145950   6.795   6.219   0.444 -1.1725 -1.1814 -0.8980
14268SOL    HW245951   6.794   6.213   0.293  0.4809 -1.2865 -0.9239
14269SOL     OW45952   4.658   6.580   6.227  0.1367 -0.9389  0.0484
14269SOL    HW145953   4.598   6.611   6.159 -2.0690  0.6113  2.5198
14269SOL    HW245954   4.744   6.587   6.187 -0.9017  1.5214 -2.0477
14270SOL     OW45955   2.639   6.826   4.329  0.5739  0.0470  0.4457
14270SOL    HW145956   2.688   6.907   4.342 -0.6723  1.3705 -2.2459
14270SOL    HW245957   2.549   6.848   4.354  0.1133 -0.2778 -0.8289
14271SOL     OW45958   5.663   0.616   7.592 -0.1950  0.1702 -0.1027
14271SOL    HW145959   5.618   0.675   7.653 -1.9016 -1.7630  0.6262
14271SOL    HW245960   5.749   0.656   7.580 -0.3303  1.4198  2.3981
14272SOL     OW45961   6.543   5.721   7.380  0.4964  0.6663  0.0544
14272SOL    HW145962   6.515   5.690   7.467 -2.2871  0.5008 -0.7889
14272SOL    HW245963   6.553   5.642   7.328  2.4592  0.7460  0.2305
14273SOL     OW45964   7.969   0.895   7.966 -0.5838  0.1344 -0.2296
14273SOL    HW145965   7.965   0.802   7.986 -0.1959  0.1475 -0.0622
14273SOL    HW245966   7.926   0.905   7.882  1.3071 -0.5339 -1.3381
14274SOL     OW45967   2.312   1.988   6.326  0.1663  0.1761 -0.1096
14274SOL    HW145968   2.217   1.984   6.322  0.1072 -0.3624  1.1091
14274SOL    HW245969   2.341   1.982   6.235 -0.9282 -1.1337 -0.4082
14275SOL     OW45970   7.588   2.832   0.222  0.0034  0.1603  0.0203
14275SOL    HW145971   7.527   2.811   0.293  0.3578 -1.3216 -0.0669
14275SOL    HW245972   7.532   2.865   0.152 -0.5780 -0.1624  0.3217
14276SOL     OW45973   2.271   3.940   4.401  0.0634  0.5614 -0.0695
14276SOL    HW145974   2.317   3.904   4.477  1.9597 -1.6105 -2.0709
14276SOL    HW245975   2.244   3.863   4.352 -1.6410  1.9009 -1.3173
14277SOL     OW45976   5.569   0.197   6.151  0.0574 -0.4567  0.2618
14277SOL    HW145977   5.621   0.142   6.210  1.1466 -0.3148 -0.5210
14277SOL    HW245978   5.634   0.234   6.091 -0.7762  0.9776  0.2127
14278SOL     OW45979   5.423   3.773   0.762  0.5356  0.1961 -0.2025
14278SOL    HW145980   5.330   3.779   0.782  0.7894 -0.7582  1.5017
14278SOL    HW245981   5.430   3.704   0.696  0.0746 -0.0091 -0.0348
14279SOL     OW45982   7.836   3.493   1.585  0.2093  0.1661 -0.0844
14279SOL    HW145983   7.812   3.400   1.591 -2.6656  0.8566  0.5700
14279SOL    HW245984   7.763   3.533   1.538  2.5352  1.7870 -2.5876
14280SOL     OW45985   2.577   7.088   1.874 -0.6088 -0.2930  0.1779
14280SOL    HW145986   2.614   7.000   1.870 -0.0867 -0.0592 -0.3231
14280SOL    HW245987   2.567   7.105   1.968  2.9110  0.5711  0.5547
14281SOL     OW45988   0.474   4.587   7.406 -0.0011  0.3802  0.1030
14281SOL    HW145989   0.420   4.645   7.460  1.2916  0.6190  1.1902
14281SOL    HW245990   0.487   4.635   7.324 -0.6260  0.7306  0.2086
14282SOL     OW45991   4.993   7.114   5.114 -0.1932  0.5717  0.1360
14282SOL    HW145992   4.958   7.097   5.027  0.1332 -3.3802  0.6139
14282SOL    HW245993   4.916   7.128   5.169 -0.5488  0.1965 -0.2655
14283SOL     OW45994   7.496   4.815   4.665 -0.1309  0.4196  0.0496
14283SOL    HW145995   7.418   4.838   4.716 -0.1669  0.9955 -0.2543
14283SOL    HW245996   7.540   4.899   4.649  1.0804  0.0088  1.0467
14284SOL     OW45997   4.256   6.688   2.003 -0.3329  0.4035 -0.0788
14284SOL    HW145998   4.164   6.688   2.029 -0.4161  1.1731 -0.3464
14284SOL    HW245999   4.255   6.670   1.909 -0.0543 -1.9263  0.2984
14285SOL     OW46000   7.475   3.344   0.625 -0.6081 -0.2152 -0.4000
14285SOL    HW146001   7.421   3.324   0.702 -1.0385  2.0842 -0.0344
14285SOL    HW246002   7.484   3.439   0.626  1.6095 -0.3398 -1.7326
14286SOL     OW46003   1.798   2.311   2.881  0.0283  0.5737 -0.0247
14286SOL    HW146004   1.754   2.256   2.945  0.5880  0.2783  0.1153
14286SOL    HW246005   1.868   2.256   2.846  0.0009  0.8761 -0.5747
14287SOL     OW46006   4.992   4.043   6.492  0.0284 -0.4092 -0.0637
14287SOL    HW146007   5.066   4.036   6.552 -1.9359  0.8155  2.6722
14287SOL    HW246008   4.950   4.126   6.514 -1.7575 -0.6945 -2.0309
14288SOL     OW46009   6.944   3.489   3.462  0.1853 -0.5089 -0.2543
14288SOL    HW146010   6.980   3.577   3.466  1.2201 -0.9027 -0.4083
14288SOL    HW246011   7.003   3.437   3.517 -0.5280 -1.0682  0.0037
14289SOL     OW46012   0.149   0.011   7.913  0.1520 -0.2323 -0.7197
14289SOL    HW146013   0.146   0.093   7.863 -1.8659  1.9538  2.6080
14289SOL    HW246014   0.232   0.016   7.961  0.1593 -0.2829 -0.7268
14290SOL     OW46015   6.209   0.006   4.910 -0.6592 -0.0414 -0.3802
14290SOL    HW146016   6.266   0.037   4.980  2.4779 -1.6579 -1.9909
14290SOL    HW246017   6.145   0.076   4.898  0.2792  1.4096  2.2937
14291SOL     OW46018   4.214   0.729   0.093  0.6312 -0.0148 -0.3460
14291SOL    HW146019   4.176   0.663   0.150  1.3390  0.9619  1.3182
14291SOL    HW246020   4.141   0.762   0.041  0.0815 -1.3134 -0.4240
14292SOL     OW46021   5.719   6.942   2.536 -0.0281  0.3715 -0.0841
14292SOL    HW146022   5.764   7.020   2.569 -0.6229  0.6955 -0.0268
14292SOL    HW246023   5.685   6.968   2.451  0.9957 -0.2806 -0.7137
14293SOL     OW46024   7.280   7.000   4.066  0.2792 -0.2203 -0.0916
14293SOL    HW146025   7.311   6.932   4.126  0.3488  0.2550  0.4154
14293SOL    HW246026   7.298   7.082   4.111  0.1431  0.1371 -0.6776
14294SOL     OW46027   7.664   5.642   6.059  0.5451  0.0475  0.2469
14294SOL    HW146028   7.639   5.722   6.014 -2.2219 -0.0501  1.4155
14294SOL    HW246029   7.690   5.670   6.147 -2.4551 -0.3744  1.3788
14295SOL     OW46030   7.699   4.770   2.829  0.1644  0.2177  0.3519
14295SOL    HW146031   7.723   4.756   2.921 -1.6665 -0.1866  0.8126
14295SOL    HW246032   7.670   4.684   2.799 -0.6902  0.6684 -0.1416
14296SOL     OW46033   1.237   0.184   1.935  0.7915 -0.0037 -0.1897
14296SOL    HW146034   1.295   0.259   1.921 -0.3227  0.8175 -0.5486
14296SOL    HW246035   1.210   0.158   1.847  1.0464 -0.7230 -0.0545
14297SOL     OW46036   5.434   1.512   4.264 -0.5010  0.3489  0.1598
14297SOL    HW146037   5.487   1.588   4.240 -1.4070  0.5170 -1.4146
14297SOL    HW246038   5.344   1.537   4.244 -0.9094 -0.8314  0.4192
14298SOL     OW46039   4.154   0.620   4.491  0.3655  0.1076  0.0336
14298SOL    HW146040   4.166   0.557   4.562  0.3498  2.0169  1.8268
14298SOL    HW246041   4.210   0.588   4.420  0.6718 -1.6631  1.0209
14299SOL     OW46042   3.634   5.835   4.756 -0.0262 -0.3313  0.2517
14299SOL    HW146043   3.539   5.822   4.751 -0.1602  0.6721 -0.0312
14299SOL    HW246044   3.671   5.756   4.716 -0.7155 -1.0713  1.0411
14300SOL     OW46045   5.458   7.546   1.283  0.3917 -0.4841  0.8733
14300SOL    HW146046   5.409   7.510   1.357  0.4220  0.5824  1.4354
14300SOL    HW246047   5.397   7.607   1.241  0.3021 -1.2301 -0.1267
14301SOL     OW46048   0.140   0.505   7.742 -0.9356  0.2058  0.0561
14301SOL    HW146049   0.131   0.476   7.651 -0.9312 -1.9978  0.6963
14301SOL    HW246050   0.134   0.600   7.737 -1.3296  0.1319 -2.2004
14302SOL     OW46051   4.139   4.694   3.387  0.6783  0.0712  0.2138
14302SOL    HW146052   4.136   4.788   3.366 -1.6758 -0.1102 -0.6400
14302SOL    HW246053   4.182   4.690   3.473  2.1746  1.7614 -0.3963
14303SOL     OW46054   3.419   0.342   1.743 -0.2936 -0.0949 -0.0040
14303SOL    HW146055   3.359   0.416   1.754  0.5395  0.5373  0.4371
14303SOL    HW246056   3.504   0.376   1.772  0.5239 -0.6226 -1.6633
14304SOL     OW46057   6.440   2.956   4.378  0.3563 -0.0527  0.5264
14304SOL    HW146058   6.443   2.862   4.361  0.4506  0.2252 -1.2033
14304SOL    HW246059   6.530   2.985   4.366 -0.1632  0.7244 -2.3437
14305SOL     OW46060   0.177   4.318   1.999 -0.0788 -0.0751  0.0322
14305SOL    HW146061   0.157   4.409   2.023 -0.0442  0.2001 -0.9163
14305SOL    HW246062   0.141   4.266   2.070 -1.0512  0.6250  0.0781
14306SOL     OW46063   4.312   1.737   0.844  0.2257 -0.2814  0.4953
14306SOL    HW146064   4.279   1.654   0.809  0.3406 -0.8031  1.5813
14306SOL    HW246065   4.234   1.785   0.870  0.2299 -0.7624  1.4142
14307SOL     OW46066   0.714   5.018   0.901 -0.1050 -0.2307 -0.2112
14307SOL    HW146067   0.673   5.025   0.815  0.7746  2.8884 -0.4932
14307SOL    HW246068   0.650   5.059   0.960  0.7807  0.8810  0.0043
14308SOL     OW46069   7.361   7.750   4.503  0.1368  0.1449  0.2129
14308SOL    HW146070   7.322   7.667   4.477 -0.2800  0.5404 -0.4647
14308SOL    HW246071   7.434   7.726   4.560  0.1212 -0.6899 -0.1094
14309SOL     OW46072   7.150   0.687   5.688 -0.3885  0.3248  0.9529
14309SOL    HW146073   7.070   0.708   5.737 -0.7979 -1.8610  1.3137
14309SOL    HW246074   7.145   0.593   5.673  1.6040  0.3222  0.0082
14310SOL     OW46075   7.899   0.920   0.867  1.0185 -0.4866 -0.1639
14310SOL    HW146076   7.981   0.917   0.818  1.9256  1.0882  1.1515
14310SOL    HW246077   7.832   0.894   0.804  2.1572  1.1203 -2.1471
14311SOL     OW46078   7.176   0.233   2.863  0.0510 -0.6185 -0.1712
14311SOL    HW146079   7.221   0.177   2.927 -1.1965 -0.9394  0.4562
14311SOL    HW246080   7.163   0.316   2.910  0.0191 -0.5165 -0.3618
14312SOL     OW46081   7.950   0.509   1.861  0.1335  0.1678 -0.5525
14312SOL    HW146082   7.897   0.556   1.797 -0.4719  0.3987  0.0938
14312SOL    HW246083   7.965   0.423   1.822  2.2200  1.2306 -2.2558
14313SOL     OW46084   0.588   1.647   2.893  0.2164 -0.0506  0.4066
14313SOL    HW146085   0.654   1.693   2.843  0.3373  0.6764  1.2150
14313SOL    HW246086   0.634   1.617   2.972 -0.5699  1.1241  1.3428
14314SOL     OW46087   1.709   0.559   6.569  0.2165 -0.2928  0.0637
14314SOL    HW146088   1.694   0.589   6.659  0.6456  0.5616 -0.1373
14314SOL    HW246089   1.656   0.479   6.561  1.2506 -1.1673  1.5008
14315SOL     OW46090   6.529   6.068   0.461  0.0579  0.1797 -0.0250
14315SOL    HW146091   6.605   6.063   0.403  0.8527 -1.7478  1.0756
14315SOL    HW246092   6.474   6.137   0.423  0.3887 -1.1133 -3.1842
14316SOL     OW46093   1.498   2.478   3.814 -0.0357  0.2116 -0.0284
14316SOL    HW146094   1.440   2.534   3.865  0.9643  0.7882  0.5134
14316SOL    HW246095   1.452   2.394   3.809  0.3380 -0.3156  2.9850
14317SOL     OW46096   6.116   7.813   1.648 -0.3502 -0.5518 -0.6355
14317SOL    HW146097   6.094   7.794   1.739 -0.4299  0.3611 -0.4619
14317SOL    HW246098   6.047   7.770   1.597 -1.2592  0.3498 -0.1901
14318SOL     OW46099   5.073   0.238   7.333  0.2578 -0.0697 -0.1386
14318SOL    HW146100   5.164   0.224   7.356  0.5979 -0.0565 -1.3926
14318SOL    HW246101   5.029   0.256   7.416  1.0945 -1.5892  0.6743
14319SOL     OW46102   7.299   6.715   2.807 -0.6616 -0.0339 -0.2664
14319SOL    HW146103   7.207   6.711   2.782 -0.9333  0.2389  0.6576
14319SOL    HW246104   7.305   6.790   2.866 -0.1189 -0.8266  0.7307
14320SOL     OW46105   5.612   2.359   3.359 -0.0154  0.7051 -0.1102
14320SOL    HW146106   5.569   2.311   3.288  1.1821  1.3297 -1.2917
14320SOL    HW246107   5.634   2.291   3.423 -1.0288  0.1191 -0.3441
14321SOL     OW46108   3.327   5.217   4.316 -0.5496  0.0198  0.0021
14321SOL    HW146109   3.311   5.123   4.314 -1.3111  0.1355  0.1926
14321SOL    HW246110   3.276   5.248   4.391  0.8264  0.3878  0.8295
14322SOL     OW46111   6.311   7.380   6.266  0.5805  0.1471  0.0936
14322SOL    HW146112   6.316   7.458   6.210  0.8654 -0.7918 -1.2280
14322SOL    HW246113   6.258   7.318   6.216  2.1463 -1.2812  0.1408
14323SOL     OW46114   3.431   4.407   4.324  0.0159 -0.4939 -0.4396
14323SOL    HW146115   3.520   4.403   4.360  0.3173 -1.3668 -1.2350
14323SOL    HW246116   3.436   4.359   4.242 -0.7896  0.9325 -1.3792
14324SOL     OW46117   0.467   6.667   7.820  0.5939 -0.1739  0.4990
14324SOL    HW146118   0.484   6.603   7.889  0.1936 -1.3225 -0.4332
14324SOL    HW246119   0.408   6.622   7.760  1.0289  0.7622 -0.6644
14325SOL     OW46120   7.022   3.199   2.638  0.0014  0.2322  0.7355
14325SOL    HW146121   7.001   3.256   2.564 -0.5971  0.8674  1.3792
14325SOL    HW246122   6.988   3.245   2.715 -1.6978 -1.5540  1.1541
14326SOL     OW46123   5.784   7.441   3.435  0.3498 -0.5231 -0.0294
14326SOL    HW146124   5.736   7.505   3.487  1.9286  0.9095 -0.2324
14326SOL    HW246125   5.829   7.385   3.500  0.4620 -0.2202  0.1547
14327SOL     OW46126   7.677   4.061   4.884 -0.0191 -0.0959 -0.4188
14327SOL    HW146127   7.588   4.076   4.913  0.1335  0.2476 -0.1286
14327SOL    HW246128   7.679   4.093   4.794  0.2238  1.3692  0.0879
14328SOL     OW46129   0.101   6.298   2.055  0.0276 -0.0803 -0.2528
14328SOL    HW146130   0.158   6.373   2.073 -0.5255  0.5584 -1.1313
14328SOL    HW246131   0.075   6.267   2.142 -1.5470  2.1527  0.1585
14329SOL     OW46132   1.147   1.928   1.082 -0.2263 -0.2722  0.2704
14329SOL    HW146133   1.162   1.877   1.002  0.1348  0.8283 -0.3889
14329SOL    HW246134   1.145   1.863   1.152 -1.3230 -1.3490 -0.7111
14330SOL     OW46135   5.412   1.594   3.949  0.2431 -0.5153  0.4084
14330SOL    HW146136   5.343   1.529   3.934  1.4498 -1.6882 -0.2903
14330SOL    HW246137   5.368   1.665   3.996 -2.1204  0.0663 -2.3680
14331SOL     OW46138   2.456   4.734   7.164  0.1433  0.2110  0.0535
14331SOL    HW146139   2.396   4.683   7.110 -0.3427 -0.2863  1.0366
14331SOL    HW246140   2.520   4.769   7.102  0.5566 -1.6662 -0.6522
14332SOL     OW46141   1.814   0.417   3.746 -0.0250  0.4703 -0.4114
14332SOL    HW146142   1.831   0.503   3.708 -1.3056  1.3581  0.9071
14332SOL    HW246143   1.743   0.432   3.808  0.3212 -1.3734  0.5078
14333SOL     OW46144   4.912   7.383   4.837 -0.3339  0.0710  0.0722
14333SOL    HW146145   4.990   7.431   4.808 -0.1746 -0.1858  0.0781
14333SOL    HW246146   4.946   7.301   4.872 -0.7194 -0.7807 -1.4496
14334SOL     OW46147   2.108   5.229   4.809 -0.3955 -0.2489 -0.0520
14334SOL    HW146148   2.168   5.166   4.769 -0.1036  0.3261 -0.5246
14334SOL    HW246149   2.025   5.217   4.762 -0.8162 -1.3685  0.9091
14335SOL     OW46150   6.881   3.269   0.049 -0.5518 -0.7599  0.1901
14335SOL    HW146151   6.936   3.346   0.064  0.6255 -1.3952 -0.7156
14335SOL    HW246152   6.796   3.305   0.023  0.7657  0.3132 -3.1310
14336SOL     OW46153   5.519   5.520   1.424 -0.7681 -0.0229  0.0283
14336SOL    HW146154   5.463   5.529   1.501 -0.4662  1.8556  0.0684
14336SOL    HW246155   5.596   5.573   1.444  0.6839 -1.8544 -0.3937
14337SOL     OW46156   7.193   1.066   2.538  0.4917  0.2147 -0.5857
14337SOL    HW146157   7.153   0.993   2.492 -0.1993  0.8179 -0.9774
14337SOL    HW246158   7.230   1.028   2.617 -0.8717 -0.3789 -0.2070
14338SOL     OW46159   8.086   6.373   1.497  0.7453 -0.2302 -0.1087
14338SOL    HW146160   8.100   6.403   1.407  2.0219  0.8585  0.4092
14338SOL    HW246161   8.164   6.322   1.518 -0.8061 -2.9352 -0.5131
14339SOL     OW46162   4.994   0.218   1.929 -0.3238 -0.6471  0.0721
14339SOL    HW146163   5.078   0.175   1.945 -0.5538 -0.8574  0.7193
14339SOL    HW246164   5.010   0.310   1.950  0.3558 -0.2534 -1.9561
14340SOL     OW46165   6.032   1.727   3.594  0.0599 -0.3975  0.2201
14340SOL    HW146166   6.044   1.634   3.575  0.8785 -0.3407  0.4221
14340SOL    HW246167   5.945   1.732   3.634  0.3634 -1.2026  1.0150
14341SOL     OW46168   1.529   7.655   4.238  0.3145  0.0413  0.0893
14341SOL    HW146169   1.544   7.722   4.171  0.5938 -1.6032 -1.5671
14341SOL    HW246170   1.491   7.581   4.191  2.5598 -2.0408  1.2764
14342SOL     OW46171   6.202   6.411   4.795 -0.4079  0.0782  0.2822
14342SOL    HW146172   6.267   6.380   4.858 -1.3022  0.4796  1.4340
14342SOL    HW246173   6.129   6.350   4.804  0.1140 -0.9212 -1.6536
14343SOL     OW46174   4.480   3.850   7.855  0.0193 -0.3657 -0.6184
14343SOL    HW146175   4.407   3.908   7.877  1.0896  0.7436  0.1322
14343SOL    HW246176   4.438   3.769   7.827 -1.6441 -1.6753  4.5641
14344SOL     OW46177   0.893   1.811   6.528 -0.0928  0.1678 -0.3592
14344SOL    HW146178   0.916   1.778   6.442  0.7417  0.1001 -0.1207
14344SOL    HW246179   0.846   1.892   6.511 -1.3020 -0.6332 -0.9184
14345SOL     OW46180   2.821   7.158   4.119  0.5920  0.0713 -0.2957
14345SOL    HW146181   2.814   7.137   4.213  1.7265 -0.7137 -0.3711
14345SOL    HW246182   2.839   7.252   4.117  0.7358  0.0630  0.2844
14346SOL     OW46183   1.286   2.606   5.980 -0.4135  0.1223 -0.5622
14346SOL    HW146184   1.308   2.561   6.061  0.1766 -0.9591 -1.2968
14346SOL    HW246185   1.195   2.634   5.992 -0.0062  0.9635  0.8813
14347SOL     OW46186   3.392   6.780   1.985  0.7174 -0.1352 -0.5165
14347SOL    HW146187   3.484   6.751   1.983  0.2119 -1.8110 -1.3374
14347SOL    HW246188   3.374   6.805   1.894  1.0446  2.6656  0.1003
14348SOL     OW46189   8.058   1.989   1.196  0.4228 -0.6349 -0.2444
14348SOL    HW146190   8.099   1.926   1.136 -0.9438 -0.5893 -1.2682
14348SOL    HW246191   8.082   2.075   1.161 -1.0562 -0.6029 -1.2636
14349SOL     OW46192   0.224   5.093   1.840  0.6234  0.4183  0.0422
14349SOL    HW146193   0.283   5.027   1.804  1.7077  0.7274  1.1957
14349SOL    HW246194   0.280   5.169   1.855 -0.1712  0.8834  0.7207
14350SOL     OW46195   0.489   4.661   0.122  0.0302  0.5243  0.0132
14350SOL    HW146196   0.418   4.721   0.102 -0.5095 -0.3322 -0.7323
14350SOL    HW246197   0.456   4.609   0.196 -0.5986 -0.5987 -1.0116
14351SOL     OW46198   1.001   6.282   1.902  0.6202 -0.0058 -0.1060
14351SOL    HW146199   1.024   6.351   1.965  3.3363 -2.0139  1.3027
14351SOL    HW246200   1.082   6.266   1.853 -0.1990 -1.5518 -1.0330
14352SOL     OW46201   1.177   1.475   2.741  0.3396  0.0975  0.3530
14352SOL    HW146202   1.239   1.492   2.670  0.0996 -0.0376  0.1142
14352SOL    HW246203   1.115   1.413   2.705 -0.7587  1.2840  0.1332
14353SOL     OW46204   6.424   2.384   7.424 -0.2074  0.1649 -0.1003
14353SOL    HW146205   6.432   2.478   7.442 -1.9639  0.6295 -1.4746
14353SOL    HW246206   6.431   2.378   7.328  0.4044 -1.1874  0.0117
14354SOL     OW46207   4.386   0.428   4.588 -0.0023  0.0189  0.4487
14354SOL    HW146208   4.439   0.388   4.656  1.6051  0.7959 -0.2837
14354SOL    HW246209   4.322   0.361   4.564  0.0706 -0.6238  1.9747
14355SOL     OW46210   4.491   7.784   0.441 -0.2106 -0.2316  0.0126
14355SOL    HW146211   4.465   7.720   0.375 -1.2368 -0.9167  1.0357
14355SOL    HW246212   4.570   7.747   0.481  0.8981  0.5760 -1.3189
14356SOL     OW46213   6.091   2.789   3.669  0.1657  0.1203 -0.1156
14356SOL    HW146214   6.158   2.810   3.604  0.4291  0.5994  0.3037
14356SOL    HW246215   6.017   2.758   3.618  0.7101 -0.4268 -0.5821
14357SOL     OW46216   5.443   4.046   2.730  0.6072 -0.4798  0.5402
14357SOL    HW146217   5.442   4.028   2.636 -0.8567  1.7226  0.0379
14357SOL    HW246218   5.405   3.968   2.770 -2.0247 -0.1639 -1.0931
14358SOL     OW46219   4.313   6.827   5.865  0.0901 -0.1422 -0.3062
14358SOL    HW146220   4.369   6.903   5.849  0.0878  0.5586  2.6074
14358SOL    HW246221   4.225   6.863   5.870 -0.1342 -0.6246 -0.7134
14359SOL     OW46222   4.254   4.760   5.017 -0.3015  0.0582 -0.5021
14359SOL    HW146223   4.260   4.681   5.070  0.8900 -0.0647 -0.8070
14359SOL    HW246224   4.230   4.829   5.080 -1.4343 -0.5403 -0.2529
14360SOL     OW46225   5.472   5.688   1.205 -0.1530  0.4028  0.7928
14360SOL    HW146226   5.557   5.727   1.187  0.7206 -2.1831 -1.1731
14360SOL    HW246227   5.489   5.622   1.272 -0.5595 -0.2934  0.2197
14361SOL     OW46228   6.392   7.301   7.178 -0.3408  0.7331  0.5758
14361SOL    HW146229   6.470   7.265   7.221 -1.1535 -0.6600  0.9588
14361SOL    HW246230   6.326   7.305   7.248 -1.4830 -0.9326 -0.3446
14362SOL     OW46231   1.714   1.862   0.899 -0.3780  0.0744  0.4409
14362SOL    HW146232   1.641   1.869   0.838  0.3637  1.4751 -0.3349
14362SOL    HW246233   1.697   1.931   0.964  0.2990  0.4770  0.1983
14363SOL     OW46234   8.086   4.751   2.057  0.1509 -0.2308 -0.2330
14363SOL    HW146235   8.100   4.659   2.080 -0.6497 -0.2355  0.2753
14363SOL    HW246236   8.038   4.748   1.974  1.4041 -0.2367 -0.9868
14364SOL     OW46237   5.192   2.397   1.134 -0.4288 -0.3034  0.4774
14364SOL    HW146238   5.125   2.428   1.074  1.0148 -0.9561 -1.5578
14364SOL    HW246239   5.247   2.474   1.150 -0.4181 -0.3000  0.4236
14365SOL     OW46240   2.958   0.460   4.947 -0.1388 -0.1864 -0.0337
14365SOL    HW146241   2.941   0.458   5.041  0.4222  1.5102  0.1432
14365SOL    HW246242   2.995   0.374   4.927 -0.5396 -0.6725  1.2408
14366SOL     OW46243   2.130   3.496   6.966 -0.2690 -0.4142 -0.7020
14366SOL    HW146244   2.203   3.515   7.025 -1.8805  2.3878  0.6294
14366SOL    HW246245   2.103   3.407   6.989  1.5117 -0.7967  0.0884
14367SOL     OW46246   4.291   4.478   6.937  0.2460  0.0311  0.2338
14367SOL    HW146247   4.282   4.478   7.032 -1.8852  0.6163  0.0884
14367SOL    HW246248   4.291   4.571   6.913 -2.1201 -0.0794 -0.4807
14368SOL     OW46249   1.675   6.488   3.497 -0.3380  0.5654  0.2945
14368SOL    HW146250   1.607   6.468   3.561  1.0448  0.3835  1.7809
14368SOL    HW246251   1.730   6.409   3.495 -0.5596  0.4117 -1.4404
14369SOL     OW46252   2.859   2.370   6.107 -0.6440 -0.0978  0.9049
14369SOL    HW146253   2.951   2.343   6.111  0.1913  2.4827  0.8498
14369SOL    HW246254   2.826   2.354   6.196 -0.0424 -0.7344  1.0217
14370SOL     OW46255   1.550   3.858   4.200 -0.2403  0.8269 -0.0802
14370SOL    HW146256   1.541   3.763   4.200 -1.7490  0.9423  0.7385
14370SOL    HW246257   1.486   3.889   4.264  0.9974  2.3346  0.5188
14371SOL     OW46258   5.710   4.103   1.986  0.3448 -0.1580  0.3444
14371SOL    HW146259   5.749   4.110   1.899  0.9223 -1.1336  0.5071
14371SOL    HW246260   5.769   4.153   2.042  0.1118  0.2576  0.2227
14372SOL     OW46261   4.880   1.371   1.277  0.4109  0.0213 -0.3870
14372SOL    HW146262   4.932   1.366   1.198  2.3397  2.1944  0.6350
14372SOL    HW246263   4.934   1.421   1.339 -0.8236 -1.8803  2.4530
14373SOL     OW46264   3.833   4.869   3.785  0.0017 -0.0003  0.1217
14373SOL    HW146265   3.783   4.818   3.722  0.8159  0.6605 -1.1092
14373SOL    HW246266   3.778   4.945   3.804 -0.5624 -0.5656  0.7992
14374SOL     OW46267   2.621   4.504   3.016 -0.1865  0.8255 -0.3623
14374SOL    HW146268   2.604   4.571   3.082  0.7740 -0.5444  1.3854
14374SOL    HW246269   2.716   4.505   3.005 -0.0995 -0.5753  0.0891
14375SOL     OW46270   5.760   7.402   6.550  0.2583 -0.1444  0.0215
14375SOL    HW146271   5.711   7.319   6.547 -0.2010  0.1231  0.1075
14375SOL    HW246272   5.697   7.466   6.583  0.1428  0.5611 -1.4532
14376SOL     OW46273   4.687   2.356   0.886  0.6016  0.0516  0.1355
14376SOL    HW146274   4.751   2.291   0.914 -0.7301 -1.6722 -0.6042
14376SOL    HW246275   4.602   2.313   0.899 -0.6452  2.9514  3.0289
14377SOL     OW46276   3.353   4.667   4.302 -0.4578 -0.3643  0.1296
14377SOL    HW146277   3.384   4.577   4.312 -0.1960 -0.1080  2.0796
14377SOL    HW246278   3.297   4.682   4.379 -2.3740  0.4346 -1.3196
14378SOL     OW46279   5.929   6.060   7.803  0.5075  0.3919 -0.1021
14378SOL    HW146280   5.913   6.149   7.834 -1.0931 -0.3978  1.5622
14378SOL    HW246281   5.911   6.064   7.709  0.1485  1.7584  0.0053
14379SOL     OW46282   5.712   7.096   2.978 -0.2147 -0.5139 -0.3182
14379SOL    HW146283   5.769   7.104   2.901 -0.7133 -2.6822 -0.9848
14379SOL    HW246284   5.745   7.162   3.039 -0.0480  1.6037 -2.5145
14380SOL     OW46285   7.856   4.027   6.039 -0.4097  0.1379  0.1483
14380SOL    HW146286   7.803   4.011   6.118 -2.0320  1.7036 -0.5548
14380SOL    HW246287   7.796   4.069   5.978  0.7314 -1.2458 -2.0684
14381SOL     OW46288   3.016   7.680   7.761 -0.2727 -0.1648 -0.4981
14381SOL    HW146289   3.016   7.614   7.831  2.6087  0.2178 -0.0418
14381SOL    HW246290   3.031   7.763   7.806  2.4952 -0.0087 -1.5409
14382SOL     OW46291   0.199   5.596   6.773 -0.0740  0.0156  0.2174
14382SOL    HW146292   0.276   5.619   6.722  0.2719  1.7900  1.4486
14382SOL    HW246293   0.222   5.514   6.815  2.1062  1.5596  2.2928
14383SOL     OW46294   3.754   3.582   4.190  0.0319  0.2469 -0.0460
14383SOL    HW146295   3.747   3.592   4.095  1.4209 -1.4795 -0.3763
14383SOL    HW246296   3.775   3.489   4.204  0.6841  0.6210  1.8856
14384SOL     OW46297   5.542   5.357   6.723 -0.5921  0.3029  0.0755
14384SOL    HW146298   5.591   5.292   6.674 -0.2436  0.6916 -0.0970
14384SOL    HW246299   5.464   5.310   6.754 -0.1126 -0.3152  0.3640
14385SOL     OW46300   3.605   6.949   7.182  0.0815  0.1900  0.1021
14385SOL    HW146301   3.613   6.930   7.276  0.2255  1.0467  0.2692
14385SOL    HW246302   3.662   6.885   7.140 -1.4999 -1.5134  0.4387
14386SOL     OW46303   6.925   1.335   0.229  0.1622  0.3968  0.5680
14386SOL    HW146304   6.841   1.354   0.187  0.4509 -1.0517 -0.7803
14386SOL    HW246305   6.905   1.267   0.293  0.5673 -1.4693 -1.1940
14387SOL     OW46306   5.780   0.980   6.903  0.4513  0.3085 -0.2179
14387SOL    HW146307   5.775   1.025   6.988  0.6345  1.3339 -0.7475
14387SOL    HW246308   5.858   1.014   6.861  0.4971 -0.3762 -0.7132
14388SOL     OW46309   1.492   6.203   3.687 -0.1699 -0.4731  0.2336
14388SOL    HW146310   1.504   6.167   3.599  1.1712  0.6311 -0.0638
14388SOL    HW246311   1.531   6.138   3.745 -0.5031 -0.9166 -0.0316
14389SOL     OW46312   6.607   5.252   4.596  0.5092  0.0860  0.1231
14389SOL    HW146313   6.637   5.310   4.526  0.3685  1.2246  0.9763
14389SOL    HW246314   6.668   5.267   4.668  0.1350 -0.4169  0.5536
14390SOL     OW46315   8.038   4.084   7.071 -0.3409  0.2191  0.6218
14390SOL    HW146316   8.070   3.998   7.101  2.0119  0.5185 -0.7868
14390SOL    HW246317   8.059   4.143   7.143 -0.7536 -0.1515  1.0542
14391SOL     OW46318   4.183   5.460   5.895  0.1425  0.0503  0.3701
14391SOL    HW146319   4.128   5.538   5.902 -0.3043 -0.0171 -1.7427
14391SOL    HW246320   4.149   5.401   5.962  0.1745  1.4659  1.6850
14392SOL     OW46321   5.495   2.589   7.865  0.0280  0.0138 -0.3499
14392SOL    HW146322   5.425   2.608   7.803 -1.8766  2.5633  2.3095
14392SOL    HW246323   5.468   2.506   7.905 -1.0407  0.4883 -0.0300
14393SOL     OW46324   4.139   3.126   5.363  0.5721 -0.2022  0.4004
14393SOL    HW146325   4.193   3.089   5.433  0.1663 -2.0937 -0.2150
14393SOL    HW246326   4.171   3.085   5.283 -0.5566  0.0523 -0.2067
14394SOL     OW46327   2.871   6.250   1.174 -0.0732  0.3867 -0.5670
14394SOL    HW146328   2.882   6.177   1.234 -0.0516  0.0781 -0.9439
14394SOL    HW246329   2.875   6.328   1.230 -1.7019  0.0569  0.0607
14395SOL     OW46330   4.872   1.550   5.002  0.3171  0.3926  0.2758
14395SOL    HW146331   4.784   1.536   5.036  0.1583 -0.3259 -0.3876
14395SOL    HW246332   4.926   1.485   5.049  0.3981  0.4861  0.3129
14396SOL     OW46333   0.501   4.774   2.952 -0.2884  0.1787  0.0464
14396SOL    HW146334   0.584   4.793   2.997 -0.6101  1.4882  0.1242
14396SOL    HW246335   0.473   4.690   2.988 -0.1714  0.8426  1.8070
14397SOL     OW46336   4.373   5.499   6.197  0.2996  0.1027  0.3848
14397SOL    HW146337   4.365   5.576   6.142 -0.6970 -0.4881 -0.3267
14397SOL    HW246338   4.297   5.501   6.255  1.1153  0.4934  1.4790
14398SOL     OW46339   5.236   5.445   5.855 -0.2390 -0.1430 -0.0007
14398SOL    HW146340   5.288   5.478   5.928 -1.4816 -1.2523  1.4569
14398SOL    HW246341   5.300   5.410   5.793  0.7929 -0.5626  1.2666
14399SOL     OW46342   4.261   1.696   4.088 -0.0307  0.0466  0.3396
14399SOL    HW146343   4.285   1.714   3.997 -0.2590  0.0047  0.2714
14399SOL    HW246344   4.334   1.731   4.139 -0.2312  0.7240  0.1809
14400SOL     OW46345   3.948   3.013   7.855  0.4696 -0.1691  0.7313
14400SOL    HW146346   3.887   3.087   7.860  1.6919  0.8234  1.3592
14400SOL    HW246347   3.964   3.002   7.761  0.2867  0.3770  0.6316
14401SOL     OW46348   1.163   5.445   0.868 -0.2180 -0.3629 -0.2875
14401SOL    HW146349   1.207   5.373   0.914  1.2611  0.8152  0.1996
14401SOL    HW246350   1.071   5.437   0.894  0.1974 -1.1215  1.0280
14402SOL     OW46351   0.162   2.593   4.714 -0.7108 -0.6403 -0.5168
14402SOL    HW146352   0.187   2.560   4.628  0.1308 -0.8814 -0.1838
14402SOL    HW246353   0.162   2.515   4.770 -2.3303 -0.6796 -0.5181
14403SOL     OW46354   1.590   1.873   3.069 -0.6465 -0.2224  0.0687
14403SOL    HW146355   1.501   1.875   3.103 -0.2165 -2.1238  1.5079
14403SOL    HW246356   1.632   1.951   3.105 -2.1494  1.7208 -2.1323
14404SOL     OW46357   7.853   6.849   5.527 -0.5182  0.0625 -0.6854
14404SOL    HW146358   7.813   6.812   5.606  0.5331  1.5523  0.5980
14404SOL    HW246359   7.837   6.783   5.459 -1.5438 -1.2125  0.7241
14405SOL     OW46360   0.111   6.924   4.120 -0.1115 -0.0489 -0.3064
14405SOL    HW146361   0.185   6.977   4.089  0.6132 -0.4399  0.6982
14405SOL    HW246362   0.036   6.983   4.115  0.1850  0.2641 -1.6436
14406SOL     OW46363   7.114   4.590   3.589 -0.2921 -0.5217  0.0997
14406SOL    HW146364   7.160   4.507   3.578  1.1510  0.3797 -1.1996
14406SOL    HW246365   7.154   4.648   3.524 -0.9458  1.3200  1.2546
14407SOL     OW46366   1.068   3.137   6.510  0.1282  0.6457 -0.4936
14407SOL    HW146367   1.027   3.058   6.543 -0.1080  0.6338 -0.8110
14407SOL    HW246368   1.109   3.177   6.586  0.4774  0.0782 -0.3835
14408SOL     OW46369   2.665   3.786   1.084 -0.1890 -0.2756 -0.1584
14408SOL    HW146370   2.579   3.769   1.123  0.7304  0.6668  2.4801
14408SOL    HW246371   2.682   3.878   1.103  0.9367 -0.1302 -1.6862
14409SOL     OW46372   0.374   7.578   0.691  0.1946  0.0675 -0.4404
14409SOL    HW146373   0.304   7.521   0.722  0.4973  0.6854  1.5283
14409SOL    HW246374   0.447   7.519   0.673 -1.1198 -0.7392 -3.7264
14410SOL     OW46375   3.640   7.339   0.636  0.0786 -0.4827  0.2767
14410SOL    HW146376   3.624   7.288   0.715  1.2286 -1.0638  0.1600
14410SOL    HW246377   3.602   7.287   0.565 -0.2383 -0.3555  0.3537
14411SOL     OW46378   2.504   1.671   5.735  0.7510 -0.1213 -0.0811
14411SOL    HW146379   2.471   1.753   5.699  1.7616  0.1197 -0.5014
14411SOL    HW246380   2.470   1.604   5.676  1.6758  0.1953 -1.0126
14412SOL     OW46381   3.691   2.373   7.933 -0.2325 -0.0525  0.4720
14412SOL    HW146382   3.690   2.357   7.839 -0.4261 -1.4568  0.6973
14412SOL    HW246383   3.649   2.459   7.943 -1.4225 -0.4680 -0.6213
14413SOL     OW46384   3.759   4.473   7.633 -0.2871  0.1520  0.4652
14413SOL    HW146385   3.753   4.392   7.581 -0.2523  1.7000 -2.1078
14413SOL    HW246386   3.829   4.523   7.591 -0.0876  1.4419  2.2109
14414SOL     OW46387   2.479   5.869   1.598  0.4872 -0.2472 -0.2884
14414SOL    HW146388   2.440   5.939   1.546  1.7037  1.6088  1.1870
14414SOL    HW246389   2.442   5.789   1.561 -2.3513  1.2167 -0.8910
14415SOL     OW46390   7.639   8.060   4.554 -0.2915 -0.8851 -0.0586
14415SOL    HW146391   7.604   8.033   4.469  1.5068 -1.8440 -0.5586
14415SOL    HW246392   7.604   7.996   4.616  0.2062 -1.5850 -0.4799
14416SOL     OW46393   6.257   4.672   6.897 -0.7099  0.0002 -0.3858
14416SOL    HW146394   6.218   4.595   6.938 -0.9251 -0.1301 -0.8280
14416SOL    HW246395   6.275   4.732   6.970  1.5417 -1.3504  0.2558
14417SOL     OW46396   0.907   6.017   5.904 -0.1931 -0.0422 -0.0557
14417SOL    HW146397   0.871   5.983   5.822  0.0159 -0.8138  0.1613
14417SOL    HW246398   0.842   5.993   5.970 -0.7888  1.3475 -0.1039
14418SOL     OW46399   5.970   0.720   2.025 -0.3045 -0.6081  0.4600
14418SOL    HW146400   5.897   0.765   2.068 -1.0668 -0.8871 -0.5134
14418SOL    HW246401   6.037   0.788   2.016 -0.5511 -0.2693  1.0860
14419SOL     OW46402   0.909   3.666   1.343  0.0653  0.2686  0.1724
14419SOL    HW146403   0.880   3.680   1.433  0.5920  1.7386  0.1522
14419SOL    HW246404   0.842   3.708   1.289  0.3178  0.3890 -0.0514
14420SOL     OW46405   6.044   6.845   0.591  0.2590  0.1530 -0.2384
14420SOL    HW146406   6.107   6.844   0.518  0.0104 -0.1013 -0.4524
14420SOL    HW246407   5.974   6.787   0.562  1.4933 -2.3642  1.3804
14421SOL     OW46408   4.936   4.256   3.464 -1.0099 -0.2844  0.0045
14421SOL    HW146409   4.952   4.164   3.485  2.4987 -0.0124 -0.9586
14421SOL    HW246410   4.951   4.303   3.546  0.7810 -0.2835 -0.3041
14422SOL     OW46411   2.738   4.458   7.077 -0.2067 -0.2529 -0.0615
14422SOL    HW146412   2.760   4.549   7.096 -0.7949  0.3508 -2.0080
14422SOL    HW246413   2.725   4.418   7.163  2.9504  0.7049  0.9886
14423SOL     OW46414   6.689   0.398   6.519 -0.0791 -0.4264 -0.0299
14423SOL    HW146415   6.646   0.325   6.475 -0.2380  0.1794 -0.9103
14423SOL    HW246416   6.739   0.441   6.450 -0.1277  0.4019  0.4370
14424SOL     OW46417   5.481   6.361   3.805 -0.8075  0.4842  0.3217
14424SOL    HW146418   5.466   6.454   3.791 -2.5013  0.3105  0.7624
14424SOL    HW246419   5.470   6.322   3.718 -1.6097  0.5380  0.3891
14425SOL     OW46420   4.224   7.411   8.012 -0.2774 -0.2766  0.0066
14425SOL    HW146421   4.141   7.411   8.059 -0.9592 -1.3343 -1.1354
14425SOL    HW246422   4.271   7.335   8.046  0.9767  1.2230  1.8264
14426SOL     OW46423   0.387   3.451   7.170  0.2859 -0.1865  0.1484
14426SOL    HW146424   0.422   3.362   7.170 -0.1222 -0.3576 -0.9314
14426SOL    HW246425   0.329   3.453   7.247 -0.0987 -1.0187 -0.0997
14427SOL     OW46426   0.495   5.275   4.897  0.1151 -0.1665  0.5681
14427SOL    HW146427   0.552   5.255   4.823 -1.6763 -0.7119 -0.7396
14427SOL    HW246428   0.514   5.366   4.918 -0.2197  0.4049 -1.4225
14428SOL     OW46429   7.004   0.323   6.318  0.0119  0.4681 -0.1555
14428SOL    HW146430   7.040   0.235   6.305  1.8449  0.9796  1.0651
14428SOL    HW246431   7.055   0.359   6.391 -0.5250  2.6422 -0.7800
14429SOL     OW46432   6.836   6.302   6.625  0.4080 -0.1978 -0.0949
14429SOL    HW146433   6.880   6.272   6.705 -0.0706 -1.0041 -0.1212
14429SOL    HW246434   6.815   6.394   6.642 -2.1843 -1.0277  1.8588
14430SOL     OW46435   4.201   4.922   0.689 -0.2647  0.0679  0.2208
14430SOL    HW146436   4.106   4.917   0.690 -0.3311  1.1127  0.5146
14430SOL    HW246437   4.226   4.921   0.781 -0.0875  1.0384  0.1979
14431SOL     OW46438   1.280   5.595   5.256 -0.0211 -0.8500  0.6177
14431SOL    HW146439   1.262   5.659   5.187 -1.0073 -0.1708  1.4682
14431SOL    HW246440   1.289   5.647   5.335  0.9790 -1.6338  1.0366
14432SOL     OW46441   2.924   3.346   7.747 -0.3441  0.2563  0.1810
14432SOL    HW146442   2.851   3.317   7.691 -0.3173  1.6012 -0.5923
14432SOL    HW246443   3.002   3.334   7.693  0.1114 -1.5994  1.1624
14433SOL     OW46444   1.360   1.375   4.199  0.3020 -0.1403 -0.2067
14433SOL    HW146445   1.311   1.421   4.267  0.7504 -0.6136  0.4672
14433SOL    HW246446   1.359   1.283   4.227  1.1094 -0.2371 -0.4445
14434SOL     OW46447   4.358   6.827   6.957 -0.1814 -0.6572  0.4042
14434SOL    HW146448   4.346   6.861   7.046  1.9236  0.0758  0.4626
14434SOL    HW246449   4.332   6.899   6.900  0.9182 -0.1751  0.4863
14435SOL     OW46450   8.055   0.742   0.515  0.2478 -0.2838 -0.5443
14435SOL    HW146451   8.054   0.786   0.430  1.7742 -0.9181 -0.9257
14435SOL    HW246452   7.982   0.680   0.512 -0.8497  0.9536 -0.6564
14436SOL     OW46453   3.326   4.938   3.191 -0.2367 -0.4623 -0.0235
14436SOL    HW146454   3.419   4.952   3.173 -0.1609  0.4657  0.9574
14436SOL    HW246455   3.326   4.892   3.276 -0.6085 -3.2698 -1.4246
14437SOL     OW46456   7.229   5.034   3.126 -0.1682 -0.2183 -0.1083
14437SOL    HW146457   7.281   5.064   3.051  0.6168 -0.8907  0.1430
14437SOL    HW246458   7.176   4.963   3.090 -0.2643 -0.1195 -0.1648
14438SOL     OW46459   5.149   6.110   3.624 -0.0183 -0.3110  0.4735
14438SOL    HW146460   5.103   6.194   3.619  0.5728  0.0814  1.3375
14438SOL    HW246461   5.082   6.045   3.602 -0.7238  0.3197  0.7040
14439SOL     OW46462   7.983   6.606   1.866  0.3887 -0.0570  0.9364
14439SOL    HW146463   7.939   6.558   1.936 -2.4901  1.5456  0.4041
14439SOL    HW246464   7.944   6.693   1.869  0.5451  0.2431 -2.2941
14440SOL     OW46465   6.724   1.700   4.951  0.1745 -0.2007  0.1984
14440SOL    HW146466   6.690   1.767   5.010 -1.2936  0.1815 -1.0248
14440SOL    HW246467   6.647   1.647   4.928  0.7430 -0.4690 -1.1931
14441SOL     OW46468   4.334   6.839   1.047  0.2240 -0.1136  0.4748
14441SOL    HW146469   4.328   6.934   1.036 -0.9824 -0.3473 -1.4160
14441SOL    HW246470   4.315   6.824   1.139 -1.5664  1.3788  0.4050
14442SOL     OW46471   3.472   4.080   5.921 -0.3798  0.1147  0.1387
14442SOL    HW146472   3.413   4.099   5.848 -0.1285 -0.2407 -0.1599
14442SOL    HW246473   3.415   4.077   5.998 -0.8420 -0.7709 -0.2262
14443SOL     OW46474   2.640   2.698   4.725  0.2515 -0.2932 -0.3262
14443SOL    HW146475   2.670   2.653   4.645  1.2764 -1.7286  0.8106
14443SOL    HW246476   2.678   2.647   4.796 -1.5951  0.2794  1.1247
14444SOL     OW46477   7.648   1.345   8.062  0.3150 -0.7580 -0.3718
14444SOL    HW146478   7.615   1.318   7.976  0.6885  1.0928 -1.1425
14444SOL    HW246479   7.570   1.370   8.111  0.2459 -0.0362 -0.8413
14445SOL     OW46480   0.845   2.260   6.102  0.1019 -0.0777  0.4173
14445SOL    HW146481   0.875   2.333   6.156  0.1818  0.8581 -0.8617
14445SOL    HW246482   0.909   2.191   6.118  1.3396  0.9219 -0.0925
14446SOL     OW46483   7.345   2.226   0.825  0.7077  0.2845  0.0290
14446SOL    HW146484   7.291   2.204   0.749  0.2535  0.6944  0.2286
14446SOL    HW246485   7.334   2.320   0.836 -0.9359 -0.0526  1.8619
14447SOL     OW46486   7.445   3.017   3.104  0.5972  0.0763  0.1162
14447SOL    HW146487   7.374   2.953   3.104  0.1608  0.5213  2.0948
14447SOL    HW246488   7.525   2.964   3.100  0.2204 -0.4232 -2.2194
14448SOL     OW46489   7.685   1.170   0.424 -0.6183  0.3891  0.7216
14448SOL    HW146490   7.675   1.168   0.519 -0.5001 -1.0335  0.7329
14448SOL    HW246491   7.714   1.081   0.401  1.2358  1.2281 -0.4377
14449SOL     OW46492   4.639   2.651   3.102 -0.0909  0.2754 -0.1715
14449SOL    HW146493   4.554   2.639   3.062 -0.5128 -3.9129  1.5166
14449SOL    HW246494   4.701   2.618   3.037 -0.3557 -1.9707  0.6371
14450SOL     OW46495   4.565   1.877   5.674 -0.4064  0.0122 -0.2862
14450SOL    HW146496   4.553   1.783   5.665  1.6045 -0.7373  3.0899
14450SOL    HW246497   4.493   1.906   5.731  0.0761  0.0989  0.2925
14451SOL     OW46498   0.710   2.684   2.481 -0.1130 -0.4530 -0.4597
14451SOL    HW146499   0.754   2.710   2.563  0.1584 -0.7707 -0.5041
14451SOL    HW246500   0.634   2.742   2.476  0.5256  0.3809 -0.5939
14452SOL     OW46501   7.029   6.669   2.785  0.3805 -0.4792  0.4594
14452SOL    HW146502   6.999   6.708   2.703 -1.9753  0.3061  1.6236
14452SOL    HW246503   6.977   6.589   2.794 -0.8477  0.4537  2.1040
14453SOL     OW46504   5.889   5.270   5.060  0.2061  0.5984  0.6133
14453SOL    HW146505   5.879   5.179   5.032  3.0571  0.3337  0.1615
14453SOL    HW246506   5.800   5.297   5.086 -1.3563 -1.2839 -2.1970
14454SOL     OW46507   2.907   7.519   2.013 -0.2671 -0.0819 -0.4985
14454SOL    HW146508   2.815   7.545   2.014 -0.0273  0.7793  0.2159
14454SOL    HW246509   2.913   7.457   1.941 -1.1991  0.6430 -1.2330
14455SOL     OW46510   5.617   7.615   6.289  0.1267 -0.0174  0.6056
14455SOL    HW146511   5.659   7.636   6.205 -0.4664 -0.5911  0.1567
14455SOL    HW246512   5.659   7.673   6.352 -0.6985  1.7497 -0.4055
14456SOL     OW46513   3.239   0.707   2.951  0.0521 -0.4569  0.4118
14456SOL    HW146514   3.191   0.728   3.032  1.7863 -0.9718  1.6378
14456SOL    HW246515   3.276   0.620   2.966  0.1787 -0.6904 -1.0784
14457SOL     OW46516   0.951   4.895   6.280  0.0785 -0.4804  0.7299
14457SOL    HW146517   1.024   4.848   6.320  1.7319 -0.6642 -2.2014
14457SOL    HW246518   0.898   4.826   6.239 -0.8639 -0.2013  1.4321
14458SOL     OW46519   7.965   7.418   6.836  0.0293 -1.1013 -0.5975
14458SOL    HW146520   8.023   7.494   6.839  0.6199 -1.5182 -1.2706
14458SOL    HW246521   8.023   7.343   6.831 -0.5683 -1.5080 -1.6224
14459SOL     OW46522   6.021   4.055   1.804  0.2851 -0.3396 -0.4955
14459SOL    HW146523   6.014   3.959   1.801 -1.0596 -0.3563  1.2104
14459SOL    HW246524   6.056   4.074   1.891  0.2924  0.7226 -0.7148
14460SOL     OW46525   7.990   0.682   2.083  0.0014 -0.2421  0.0340
14460SOL    HW146526   7.905   0.679   2.126 -0.2314  1.0588 -0.2892
14460SOL    HW246527   7.972   0.663   1.991  0.0861 -0.1523 -0.0022
14461SOL     OW46528   4.358   6.777   1.569  0.0072 -0.2386  0.2629
14461SOL    HW146529   4.341   6.848   1.508 -1.7330 -0.4757  0.4161
14461SOL    HW246530   4.340   6.814   1.655 -1.2942 -0.9272  0.3169
14462SOL     OW46531   2.408   6.160   5.045 -0.9021  0.3934  0.0793
14462SOL    HW146532   2.458   6.111   5.110 -1.6292  2.4867  2.3896
14462SOL    HW246533   2.318   6.130   5.057 -1.2084  1.5619  0.8780
14463SOL     OW46534   5.365   0.318   2.121 -0.1821  0.1580 -0.1710
14463SOL    HW146535   5.318   0.386   2.169 -0.6904  0.4764 -1.0910
14463SOL    HW246536   5.428   0.366   2.068  1.8447 -0.3121  1.6948
14464SOL     OW46537   5.631   7.403   4.431 -0.7603  0.9638  0.0315
14464SOL    HW146538   5.599   7.487   4.464  1.9917  1.4758  1.7423
14464SOL    HW246539   5.716   7.423   4.392 -0.1974 -0.9535  0.1563
14465SOL     OW46540   0.192   3.490   1.635 -0.4028 -0.2047  0.5062
14465SOL    HW146541   0.179   3.474   1.541  0.6696  1.7968 -0.0414
14465SOL    HW246542   0.119   3.548   1.659 -0.4346 -0.3726  0.8199
14466SOL     OW46543   0.873   3.450   7.269  0.4066  0.2948  0.1672
14466SOL    HW146544   0.965   3.468   7.289  1.8447 -3.4863 -1.9510
14466SOL    HW246545   0.856   3.500   7.189  1.2765 -0.3678 -0.4566
14467SOL     OW46546   7.836   2.127   7.611 -0.1636  0.0215  0.4585
14467SOL    HW146547   7.833   2.138   7.516  0.1042  0.9930  0.5456
14467SOL    HW246548   7.778   2.195   7.645  0.4290  0.2618  1.0194
14468SOL     OW46549   4.314   8.004   2.009 -0.3230  0.1335 -0.3803
14468SOL    HW146550   4.316   8.097   1.990 -0.9646  0.1412 -0.4345
14468SOL    HW246551   4.222   7.985   2.027 -0.6737 -1.0085 -2.9622
14469SOL     OW46552   1.636   2.132   3.546 -0.7166  0.2510 -0.4323
14469SOL    HW146553   1.722   2.157   3.511 -0.6308  1.2583  0.4367
14469SOL    HW246554   1.657   2.082   3.625 -0.9279  1.3562  0.3331
14470SOL     OW46555   0.622   1.086   4.990 -0.2751 -0.2699  0.4791
14470SOL    HW146556   0.543   1.063   4.942  0.8785 -1.9817 -0.6981
14470SOL    HW246557   0.667   1.148   4.933 -0.0209 -0.4962  0.4335
14471SOL     OW46558   2.381   0.712   5.926 -0.4537  0.1661 -0.7827
14471SOL    HW146559   2.361   0.756   6.009  0.2941 -1.2425  0.1865
14471SOL    HW246560   2.409   0.624   5.952 -0.5765 -0.4282 -2.5679
14472SOL     OW46561   5.391   6.983   6.136 -0.2603 -0.2139 -0.3191
14472SOL    HW146562   5.350   6.901   6.109 -0.0726 -0.8004  1.1025
14472SOL    HW246563   5.433   6.962   6.220  1.1691  0.9085 -0.7164
14473SOL     OW46564   3.753   6.510   7.371 -0.2550  0.3650  0.0216
14473SOL    HW146565   3.687   6.576   7.394 -0.2506  0.3738  0.0093
14473SOL    HW246566   3.802   6.551   7.300 -2.1957 -0.8328 -2.1464
14474SOL     OW46567   4.918   5.539   0.789 -0.2130 -0.1602 -0.0257
14474SOL    HW146568   4.828   5.532   0.822  0.6674 -0.3355  2.5750
14474SOL    HW246569   4.950   5.621   0.828  0.6841  0.0407 -1.1617
14475SOL     OW46570   7.464   7.972   6.576 -0.4181  1.0049 -0.7825
14475SOL    HW146571   7.555   7.993   6.559  0.3908 -1.9729 -0.6571
14475SOL    HW246572   7.433   7.932   6.494 -0.3025 -1.8232  0.4773
14476SOL     OW46573   5.952   1.462   2.206  0.1248  0.0583 -0.7093
14476SOL    HW146574   5.858   1.452   2.218  0.3365 -3.6805 -1.0224
14476SOL    HW246575   5.966   1.453   2.112  0.8535  0.3328 -0.6377
14477SOL     OW46576   4.578   0.684   6.789 -0.9375 -0.2343 -0.2932
14477SOL    HW146577   4.577   0.593   6.821 -1.1551 -0.6014 -1.3008
14477SOL    HW246578   4.642   0.683   6.718  0.8236  0.9683  1.2172
14478SOL     OW46579   4.648   0.270   4.126 -0.5142 -0.4516 -0.1160
14478SOL    HW146580   4.697   0.309   4.198  0.3328 -0.5323 -0.6430
14478SOL    HW246581   4.559   0.262   4.160 -0.4900  0.9975  0.3710
14479SOL     OW46582   5.405   5.513   2.770  0.1555 -0.1305  0.4585
14479SOL    HW146583   5.346   5.438   2.767 -0.5012  0.3894 -0.2769
14479SOL    HW246584   5.470   5.495   2.701  0.0529 -0.0736  0.3458
14480SOL     OW46585   0.624   2.900   1.641  0.0394  1.1797  0.2236
14480SOL    HW146586   0.676   2.927   1.566 -1.7789 -2.1394 -2.5161
14480SOL    HW246587   0.663   2.816   1.668 -2.3148 -0.2250 -0.4393
14481SOL     OW46588   6.931   1.791   0.679  0.3515  0.3116  0.4089
14481SOL    HW146589   6.932   1.784   0.774  1.0211  2.0378  0.5619
14481SOL    HW246590   7.022   1.781   0.653  0.1400 -0.3983 -0.0835
14482SOL     OW46591   6.172   3.702   0.933 -0.3963  0.3293  0.4745
14482SOL    HW146592   6.090   3.727   0.891 -1.4473 -1.0754  1.5978
14482SOL    HW246593   6.146   3.649   1.008  1.5030  0.8525  1.5817
14483SOL     OW46594   3.854   0.999   1.450  0.5551 -0.0241  0.3336
14483SOL    HW146595   3.926   1.019   1.510  1.5864 -0.3760 -0.7427
14483SOL    HW246596   3.847   1.076   1.394  0.2100 -0.0678  0.3131
14484SOL     OW46597   6.906   6.436   3.898  0.0600 -0.0068 -0.0721
14484SOL    HW146598   6.948   6.421   3.814  0.0037  1.9622 -0.5059
14484SOL    HW246599   6.878   6.349   3.928  0.8793 -0.8398 -1.6455
14485SOL     OW46600   1.079   0.584   1.068  0.1861  0.3631 -0.4039
14485SOL    HW146601   1.010   0.520   1.054  0.4164 -0.1413  0.6426
14485SOL    HW246602   1.100   0.617   0.981  1.5060 -2.4868 -1.2975
14486SOL     OW46603   1.462   7.760   2.118 -0.1150 -0.4501  0.3405
14486SOL    HW146604   1.491   7.824   2.054 -3.5903  1.3858  0.4006
14486SOL    HW246605   1.497   7.792   2.201 -0.4109  0.4285  0.1353
14487SOL     OW46606   4.314   6.645   0.389 -0.1141  0.1238  0.0814
14487SOL    HW146607   4.407   6.662   0.401 -0.2626  1.1536 -0.1965
14487SOL    HW246608   4.277   6.655   0.477  0.6175 -4.6256  1.2346
14488SOL     OW46609   3.737   3.876   2.916  0.0280 -0.2707 -0.2491
14488SOL    HW146610   3.777   3.938   2.977 -0.5200  1.1060 -1.2531
14488SOL    HW246611   3.811   3.822   2.885  0.2602 -1.2549  1.8642
14489SOL     OW46612   6.403   3.405   7.058 -0.1943 -0.0063 -0.4064
14489SOL    HW146613   6.358   3.433   6.978 -0.3669 -0.1796 -0.3720
14489SOL    HW246614   6.474   3.350   7.028 -0.0473  0.2105 -0.4580
14490SOL     OW46615   4.391   6.839   7.674 -0.2000 -0.5925 -0.4707
14490SOL    HW146616   4.318   6.824   7.734 -0.0712  0.8879  0.0855
14490SOL    HW246617   4.405   6.753   7.633 -0.7861 -1.4582  1.0342
14491SOL     OW46618   5.740   5.454   2.562 -0.1904  0.0921 -0.7536
14491SOL    HW146619   5.736   5.401   2.482  1.7383 -0.6208 -0.4387
14491SOL    HW246620   5.759   5.543   2.531  0.2743 -0.1292 -1.1117
14492SOL     OW46621   0.075   0.178   0.708 -0.2080  0.3169 -0.5435
14492SOL    HW146622   0.065   0.165   0.803  1.6929 -2.3049 -0.6179
14492SOL    HW246623   0.062   0.272   0.697 -0.0638  0.8048  2.3948
14493SOL     OW46624   7.810   7.881   1.879 -0.0087  0.6797 -0.0352
14493SOL    HW146625   7.898   7.918   1.868 -0.3276  1.2178 -0.8487
14493SOL    HW246626   7.801   7.869   1.974  0.9502  0.5898  0.0564
14494SOL     OW46627   3.114   6.019   3.316  0.2789 -0.9595  0.3512
14494SOL    HW146628   3.030   6.013   3.271  0.1331  0.4290  0.3770
14494SOL    HW246629   3.091   6.035   3.408  0.5546 -0.3346  0.3201
14495SOL     OW46630   3.379   1.569   4.382 -0.4671  0.0331 -0.4129
14495SOL    HW146631   3.386   1.586   4.476 -0.3451 -1.2102 -0.1869
14495SOL    HW246632   3.468   1.581   4.350 -0.8766  2.5949 -0.7784
14496SOL     OW46633   1.559   3.947   1.157  0.6098  0.6827  0.0139
14496SOL    HW146634   1.608   3.865   1.166 -0.5051 -0.2243 -1.7051
14496SOL    HW246635   1.526   3.946   1.067 -2.5778  1.1950  1.0511
14497SOL     OW46636   1.654   6.289   5.695  0.1295 -0.3817 -0.4977
14497SOL    HW146637   1.563   6.315   5.677  0.4272  0.4217 -0.8982
14497SOL    HW246638   1.647   6.224   5.764 -0.5774  2.2934  2.1866
14498SOL     OW46639   7.176   2.187   4.425 -0.3368  0.4315  0.5928
14498SOL    HW146640   7.199   2.224   4.511  1.6731 -1.4261  0.9519
14498SOL    HW246641   7.144   2.099   4.444  0.7727 -0.2622 -0.5420
14499SOL     OW46642   1.582   3.903   3.243 -0.3768  0.0419 -0.3907
14499SOL    HW146643   1.632   3.980   3.270  0.8770 -1.0248  0.4464
14499SOL    HW246644   1.542   3.871   3.324 -1.6012  0.2702 -0.8757
14500SOL     OW46645   7.831   7.996   2.568  0.3472 -0.4931 -0.3762
14500SOL    HW146646   7.787   8.062   2.621  0.1109 -0.0354 -1.1209
14500SOL    HW246647   7.773   7.920   2.571  0.1159 -0.3164 -0.3435
14501SOL     OW46648   7.080   3.883   7.977  0.1518  0.8518 -0.2055
14501SOL    HW146649   7.019   3.956   7.960  0.1101  0.7267 -0.6166
14501SOL    HW246650   7.105   3.853   7.890  0.9945  1.0518 -0.0425
14502SOL     OW46651   3.213   6.761   3.178  0.0658 -0.5142  0.3179
14502SOL    HW146652   3.139   6.802   3.132  1.1312  0.3360 -0.7094
14502SOL    HW246653   3.181   6.746   3.267 -1.2190  0.1639 -0.0068
14503SOL     OW46654   0.121   3.805   7.710  0.9398  0.7227  0.6483
14503SOL    HW146655   0.121   3.881   7.769  0.1284  0.7803  0.5932
14503SOL    HW246656   0.030   3.799   7.680  1.2338  0.3935 -0.2124
14504SOL     OW46657   2.235   0.760   6.568  0.9005  0.3135  0.3120
14504SOL    HW146658   2.315   0.806   6.544  1.2759  0.1855  1.2668
14504SOL    HW246659   2.263   0.669   6.581  0.3314 -0.0218 -0.7093
14505SOL     OW46660   6.975   2.615   4.679  0.2565  0.2123 -0.0307
14505SOL    HW146661   6.989   2.706   4.652  0.9138 -0.1417 -0.9368
14505SOL    HW246662   6.931   2.575   4.604 -2.6447  0.4197  1.4032
14506SOL     OW46663   0.995   2.053   6.170 -0.1092  0.3291  0.1920
14506SOL    HW146664   1.066   2.049   6.106  0.3420  3.1927  0.3863
14506SOL    HW246665   0.974   1.962   6.189  2.5414 -0.6005 -0.9456
14507SOL     OW46666   0.756   1.654   2.208 -0.1555 -0.1140  0.1556
14507SOL    HW146667   0.741   1.560   2.205  0.6535 -0.2379 -0.2164
14507SOL    HW246668   0.851   1.663   2.220 -0.2533  0.6511  0.4405
14508SOL     OW46669   1.603   6.010   1.771  0.2577 -0.3695 -0.8051
14508SOL    HW146670   1.531   5.948   1.787  1.0621 -1.3623 -0.9843
14508SOL    HW246671   1.559   6.095   1.767 -0.7859 -0.8348  0.1179
14509SOL     OW46672   5.527   4.017   4.861  0.4687 -0.4174  0.1120
14509SOL    HW146673   5.439   4.019   4.898  1.1853 -0.9252  1.9567
14509SOL    HW246674   5.514   4.028   4.767 -1.5960 -1.0765  0.2791
14510SOL     OW46675   3.575   2.883   5.043 -0.2118  0.5754  0.1195
14510SOL    HW146676   3.624   2.846   5.116 -1.5672  1.0831  1.3344
14510SOL    HW246677   3.522   2.953   5.082  0.8245  2.5240 -1.7710
14511SOL     OW46678   6.238   2.516   1.265  0.1649 -0.2913 -0.2062
14511SOL    HW146679   6.166   2.456   1.284  0.0536 -0.5672 -1.4470
14511SOL    HW246680   6.199   2.584   1.211  0.7210 -0.1480 -0.4268
14512SOL     OW46681   7.389   2.595   3.120  0.1381  0.5470  0.4650
14512SOL    HW146682   7.419   2.578   3.031  0.2015 -0.1160  0.6092
14512SOL    HW246683   7.295   2.610   3.112  0.4054  2.3070  0.0525
14513SOL     OW46684   2.608   3.505   2.983  0.3366  0.7161 -0.5326
14513SOL    HW146685   2.518   3.537   2.984  0.4788  1.1185  0.0259
14513SOL    HW246686   2.626   3.480   3.074  0.6411  0.2250 -0.7275
14514SOL     OW46687   1.265   4.687   3.674  0.2374 -0.6255 -0.6512
14514SOL    HW146688   1.342   4.632   3.687  1.5186  0.9978 -0.9240
14514SOL    HW246689   1.259   4.699   3.579  0.0278 -0.2539 -0.5949
14515SOL     OW46690   0.491   7.382   3.509 -0.0333  0.0787 -0.2127
14515SOL    HW146691   0.480   7.299   3.462  2.4300  0.4939 -1.7137
14515SOL    HW246692   0.579   7.377   3.546 -0.4067  1.4448  0.9390
14516SOL     OW46693   4.614   3.873   7.194 -0.2401  0.4360 -0.4090
14516SOL    HW146694   4.693   3.928   7.194 -0.8609  1.4320 -2.7195
14516SOL    HW246695   4.551   3.921   7.246 -0.1598  0.9963 -0.8165
14517SOL     OW46696   5.795   1.624   1.137 -0.6666 -0.2147 -0.0039
14517SOL    HW146697   5.772   1.710   1.172 -2.7487 -0.5247 -0.4966
14517SOL    HW246698   5.891   1.623   1.139 -0.5944  0.8520  3.0297
14518SOL     OW46699   7.479   2.976   7.449 -0.6223 -0.0079 -0.6459
14518SOL    HW146700   7.564   3.019   7.438 -0.4796 -0.5326 -1.7481
14518SOL    HW246701   7.421   3.045   7.483  0.1046  0.4961 -0.4049
14519SOL     OW46702   3.287   4.349   5.705  0.4007 -0.0561 -0.3044
14519SOL    HW146703   3.290   4.355   5.800 -1.9566 -0.1275 -0.1591
14519SOL    HW246704   3.249   4.433   5.677  2.2056  0.4735 -1.3206
14520SOL     OW46705   0.002   4.183   6.115 -0.2264 -0.7344  0.0264
14520SOL    HW146706  -0.073   4.123   6.110  0.9992 -2.4915  1.2979
14520SOL    HW246707   0.028   4.181   6.208  0.3918  1.1392 -0.0623
14521SOL     OW46708   7.374   6.576   0.332  0.0899  0.1728 -0.2943
14521SOL    HW146709   7.281   6.594   0.345 -0.3852  0.7459 -3.6085
14521SOL    HW246710   7.414   6.662   0.325  0.1732  0.0308 -2.3981
14522SOL     OW46711   7.086   6.038   0.019  0.0474 -0.5007 -0.1183
14522SOL    HW146712   7.128   5.954   0.039  0.5957 -0.6677 -1.7476
14522SOL    HW246713   7.102   6.050  -0.075 -1.1296  0.8175 -0.1803
14523SOL     OW46714   5.409   2.134   4.656  0.4852 -0.0082  0.1645
14523SOL    HW146715   5.489   2.130   4.603 -0.7751 -0.7273 -1.7640
14523SOL    HW246716   5.439   2.118   4.746  2.5528  0.2222 -0.4364
14524SOL     OW46717   6.579   0.374   6.044  0.0055 -0.0073 -0.5286
14524SOL    HW146718   6.575   0.325   5.962  0.0691 -1.1267  0.1168
14524SOL    HW246719   6.532   0.319   6.107 -1.1533  1.4210 -0.0821
14525SOL     OW46720   3.485   2.063   5.360  0.0233  0.2371 -0.2223
14525SOL    HW146721   3.511   1.972   5.348 -0.1481  0.2542 -0.7934
14525SOL    HW246722   3.413   2.075   5.298  1.0100  1.1546 -1.2419
14526SOL     OW46723   5.969   4.935   2.322  0.0309 -0.1835 -0.0812
14526SOL    HW146724   5.918   4.918   2.401 -0.3643 -1.8263 -0.6511
14526SOL    HW246725   5.932   5.016   2.286 -0.8209 -0.2657  0.5815
14527SOL     OW46726   4.980   5.627   6.244 -0.2681 -0.3273  0.2217
14527SOL    HW146727   4.887   5.633   6.264 -0.3940 -1.5287  0.0615
14527SOL    HW246728   4.997   5.534   6.231  0.7089 -0.0308 -0.9447
14528SOL     OW46729   0.152   5.802   6.069 -0.0823 -0.7795 -0.1576
14528SOL    HW146730   0.091   5.729   6.057  0.3230 -1.0159 -0.8430
14528SOL    HW246731   0.134   5.860   5.995 -0.6363 -0.0122  0.5750
14529SOL     OW46732   2.407   5.638   1.450 -0.9354 -0.4781  0.6213
14529SOL    HW146733   2.481   5.622   1.391 -0.3633 -0.6452  1.3680
14529SOL    HW246734   2.334   5.657   1.392 -0.3832 -0.6373 -0.1435
14530SOL     OW46735   0.094   2.516   2.000 -0.3575 -0.6158 -0.5768
14530SOL    HW146736   0.066   2.601   1.965 -0.4284  0.0297  0.9388
14530SOL    HW246737   0.015   2.462   1.999 -0.4987 -0.4069 -0.8244
14531SOL     OW46738   6.653   1.590   7.396 -0.5859 -0.4178 -0.2651
14531SOL    HW146739   6.667   1.545   7.480  0.7355  0.4897  0.0343
14531SOL    HW246740   6.651   1.683   7.418 -2.0604 -0.2361 -1.0351
14532SOL     OW46741   7.096   1.187   1.277 -0.2395  0.3875 -0.1998
14532SOL    HW146742   7.079   1.239   1.355  0.8940 -0.7849  0.8768
14532SOL    HW246743   7.082   1.247   1.204  1.2726  2.2951  0.9904
14533SOL     OW46744   2.598   0.529   5.728 -0.0978  0.1966  0.0624
14533SOL    HW146745   2.662   0.549   5.660 -0.2060  0.3839  0.0158
14533SOL    HW246746   2.513   0.543   5.687 -0.1675  0.1055  0.1727
14534SOL     OW46747   1.109   5.933   2.598  0.2026  0.4473 -0.0005
14534SOL    HW146748   1.180   5.890   2.550 -0.2265 -1.9197  1.3263
14534SOL    HW246749   1.037   5.870   2.597 -1.6980  2.5088 -0.7167
14535SOL     OW46750   6.311   2.179   0.486 -0.0510 -0.3872 -0.0356
14535SOL    HW146751   6.388   2.138   0.525  1.0959  0.8498 -0.9103
14535SOL    HW246752   6.306   2.265   0.528 -0.3103 -0.0374 -0.7579
14536SOL     OW46753   7.332   3.499   4.058  0.5010 -0.6638  0.1651
14536SOL    HW146754   7.379   3.415   4.065  1.0688 -0.4626 -0.9862
14536SOL    HW246755   7.394   3.557   4.014  0.2598  0.4872  1.3012
14537SOL     OW46756   5.918   2.574   7.457  0.3229  0.1271 -0.3936
14537SOL    HW146757   5.924   2.480   7.474  1.2142 -0.0196 -1.3975
14537SOL    HW246758   5.936   2.615   7.542 -0.9815 -0.5987  0.2680
14538SOL     OW46759   5.509   6.624   3.790  0.7120 -0.0536 -0.1763
14538SOL    HW146760   5.509   6.710   3.748  0.2305 -0.3592 -0.8269
14538SOL    HW246761   5.530   6.641   3.881 -1.4203  1.0006  0.1711
14539SOL     OW46762   6.632   3.659   3.688  0.2750 -0.3804 -0.0722
14539SOL    HW146763   6.630   3.587   3.750 -0.6847  0.4572  0.9077
14539SOL    HW246764   6.635   3.738   3.742 -1.0888  0.3892 -1.0517
14540SOL     OW46765   4.577   6.785   3.458 -0.1286  0.5266  0.2149
14540SOL    HW146766   4.582   6.697   3.422  0.0533  0.9735 -0.8846
14540SOL    HW246767   4.536   6.837   3.389 -0.1046  1.3316  0.7971
14541SOL     OW46768   6.142   3.952   3.004 -0.4497  0.4210  0.0096
14541SOL    HW146769   6.205   3.962   2.933 -0.1141 -1.6161 -0.0425
14541SOL    HW246770   6.174   3.876   3.053 -0.9205  1.4972  2.0824
14542SOL     OW46771   2.342   5.668   2.587  0.6486 -0.1347 -0.5661
14542SOL    HW146772   2.332   5.632   2.499  4.2050 -2.9822 -0.0737
14542SOL    HW246773   2.422   5.720   2.582 -0.0772  1.1440  0.6348
14543SOL     OW46774   3.263   4.367   7.354  0.3828  0.5128  0.2218
14543SOL    HW146775   3.259   4.462   7.361  2.5664  0.5995  1.0046
14543SOL    HW246776   3.181   4.337   7.394 -0.4669  2.0383 -0.2903
14544SOL     OW46777   4.520   6.259   3.937 -0.5207  0.1129  0.1746
14544SOL    HW146778   4.587   6.215   3.990  1.1042  0.8879 -1.1457
14544SOL    HW246779   4.471   6.187   3.897 -0.6258 -0.4700  1.2857
14545SOL     OW46780   3.226   4.070   7.950 -0.0571  0.8145  0.0179
14545SOL    HW146781   3.290   4.087   7.881 -0.1712 -0.8799 -0.5378
14545SOL    HW246782   3.153   4.028   7.906 -1.0306  1.5896  0.8515
14546SOL     OW46783   4.244   0.903   6.180  0.1383  0.1369  0.2124
14546SOL    HW146784   4.260   0.809   6.167  0.1804  0.1801 -0.0548
14546SOL    HW246785   4.155   0.917   6.148  0.1463  0.1960  0.2165
14547SOL     OW46786   4.854   7.545   7.750 -0.1612  0.2429 -0.2196
14547SOL    HW146787   4.772   7.535   7.702  1.8676 -2.4766 -3.6289
14547SOL    HW246788   4.892   7.626   7.715 -0.0704 -0.0778 -0.8642
14548SOL     OW46789   1.023   2.232   3.280 -0.9045  0.4152  0.1197
14548SOL    HW146790   0.953   2.253   3.218 -0.8213  0.6116  0.0918
14548SOL    HW246791   1.102   2.270   3.241 -0.7464  0.0167  0.0500
14549SOL     OW46792   0.536   4.051   6.324  0.4274  0.0310  0.5018
14549SOL    HW146793   0.591   3.988   6.372  1.0063  0.1779  0.0567
14549SOL    HW246794   0.585   4.066   6.243 -0.3311  0.0922  0.0505
14550SOL     OW46795   0.631   5.151   2.915  0.0910  0.7364  0.0613
14550SOL    HW146796   0.680   5.068   2.915  0.0628  0.7204 -0.7096
14550SOL    HW246797   0.552   5.131   2.965 -0.0306  0.2255 -0.3208
14551SOL     OW46798   0.467   6.303   0.528  0.2737  0.5081 -0.2400
14551SOL    HW146799   0.527   6.260   0.467  0.0138 -0.5325  0.2098
14551SOL    HW246800   0.522   6.367   0.574  0.8266  0.2175 -0.4860
14552SOL     OW46801   3.802   0.096   3.840 -0.3487  0.8430 -0.2473
14552SOL    HW146802   3.887   0.138   3.844  0.3094 -0.3669 -0.8855
14552SOL    HW246803   3.810   0.020   3.899 -0.7088  0.2776 -0.9130
14553SOL     OW46804   3.645   7.779   3.816 -0.0321  0.2491 -0.6033
14553SOL    HW146805   3.623   7.870   3.835 -0.4188  0.4054 -1.6903
14553SOL    HW246806   3.609   7.730   3.890  1.9798  1.1264  1.0577
14554SOL     OW46807   0.738   3.452   2.205  0.7450  0.1676  0.0252
14554SOL    HW146808   0.826   3.417   2.190  0.4584 -1.3635  1.5480
14554SOL    HW246809   0.696   3.387   2.262 -1.5187  0.6500 -0.9656
14555SOL     OW46810   6.241   1.466   7.421 -0.0110 -0.1934 -0.8651
14555SOL    HW146811   6.292   1.533   7.466  1.7374 -2.0634  0.1108
14555SOL    HW246812   6.155   1.506   7.407  0.6031  1.8215  0.7013
14556SOL     OW46813   2.296   3.527   1.594  0.4985  0.1769 -0.4047
14556SOL    HW146814   2.246   3.446   1.584 -0.3384  0.9615 -3.9330
14556SOL    HW246815   2.239   3.585   1.645  0.8060 -1.1044  1.5183
14557SOL     OW46816   6.887   7.548   6.280  0.1298 -0.5084 -0.1552
14557SOL    HW146817   6.802   7.513   6.254  0.2772 -0.5934 -0.5342
14557SOL    HW246818   6.900   7.516   6.369 -1.1132  1.0830  0.6614
14558SOL     OW46819   0.037   3.403   2.014  0.4495  0.5269  0.1906
14558SOL    HW146820   0.028   3.497   1.997  1.8350  0.7693  0.6585
14558SOL    HW246821   0.121   3.380   1.973  0.9408 -0.1345  1.5286
14559SOL     OW46822   5.676   0.716   3.507 -0.0433 -1.0005  0.4784
14559SOL    HW146823   5.756   0.733   3.557  0.7629 -1.4833 -0.5952
14559SOL    HW246824   5.668   0.791   3.448 -0.0725 -1.2166  0.2065
14560SOL     OW46825   7.610   6.274   7.299 -0.0653 -0.0332 -0.2489
14560SOL    HW146826   7.661   6.208   7.252  2.3924 -0.2485  2.4195
14560SOL    HW246827   7.525   6.234   7.313  0.8290 -1.9766 -0.1195
14561SOL     OW46828   2.716   2.916   4.026 -0.0325  0.1583  0.1424
14561SOL    HW146829   2.803   2.944   4.055  0.4229  0.9051 -1.7705
14561SOL    HW246830   2.714   2.938   3.933 -2.0113 -0.5342 -0.0226
14562SOL     OW46831   6.366   1.841   4.182  0.3984 -0.2732 -0.3355
14562SOL    HW146832   6.280   1.883   4.183  0.8961  0.7918 -0.4026
14562SOL    HW246833   6.400   1.855   4.271  0.3663 -0.9914 -0.2072
14563SOL     OW46834   3.814   2.501   2.860  0.2505 -0.5668 -0.2157
14563SOL    HW146835   3.795   2.409   2.878 -0.8494 -0.4596 -0.7470
14563SOL    HW246836   3.764   2.521   2.781 -0.6161  0.8435  0.6436
14564SOL     OW46837   6.546   3.523   5.271 -0.3208  0.6132  0.1845
14564SOL    HW146838   6.605   3.449   5.261  0.2368  0.8822  1.3237
14564SOL    HW246839   6.509   3.537   5.184 -0.9978 -1.4683  0.0928
14565SOL     OW46840   1.604   3.798   4.630 -0.3012  0.5436  0.3105
14565SOL    HW146841   1.555   3.723   4.597  1.8696 -1.1550  0.6709
14565SOL    HW246842   1.556   3.826   4.708 -1.9316  0.4892 -0.6256
14566SOL     OW46843   6.650   1.251   5.679  0.4006 -0.1301 -0.0992
14566SOL    HW146844   6.662   1.316   5.748  0.6257 -0.3933  0.1132
14566SOL    HW246845   6.686   1.170   5.716 -1.1844 -0.7280  0.2034
14567SOL     OW46846   1.909   5.280   0.622 -0.6807 -0.1442 -0.3795
14567SOL    HW146847   1.847   5.349   0.599 -0.1650  0.4984  0.1380
14567SOL    HW246848   1.959   5.315   0.696  0.3815 -0.5986 -0.8533
14568SOL     OW46849   3.110   3.573   7.813  0.0793  0.1288  0.3660
14568SOL    HW146850   3.107   3.493   7.761  0.2616 -0.0782  0.6688
14568SOL    HW246851   3.088   3.643   7.751  3.6001  0.3339 -0.8715
14569SOL     OW46852   4.666   3.027   3.612 -0.2308  0.1192  0.1721
14569SOL    HW146853   4.726   3.101   3.622 -0.4838  0.5310 -1.1716
14569SOL    HW246854   4.703   2.976   3.540 -0.9871 -0.1284 -0.0462
14570SOL     OW46855   7.821   5.503   7.508 -0.7735 -0.6795 -0.1958
14570SOL    HW146856   7.816   5.540   7.420 -0.4254 -0.0408  0.0441
14570SOL    HW246857   7.790   5.573   7.565  1.8380  0.0643  0.4616
14571SOL     OW46858   4.194   6.052   1.551 -0.5945  0.0796 -0.4473
14571SOL    HW146859   4.156   6.069   1.465 -0.0972  0.4988 -0.5886
14571SOL    HW246860   4.284   6.026   1.532 -0.9910 -1.6845 -0.1786
14572SOL     OW46861   5.019   6.533   2.282 -0.5227  0.3209  0.3998
14572SOL    HW146862   4.996   6.488   2.363  0.2885  0.1438  0.5402
14572SOL    HW246863   4.940   6.530   2.229 -1.2458  0.9364  1.4050
14573SOL     OW46864   4.691   1.607   7.136 -0.3428  0.1733  0.6520
14573SOL    HW146865   4.741   1.649   7.066 -0.6842  0.3553  0.5109
14573SOL    HW246866   4.622   1.559   7.090  0.4104 -1.0556  0.7829
14574SOL     OW46867   7.105   0.564   0.506 -0.1830 -0.4738  0.4002
14574SOL    HW146868   7.176   0.501   0.494 -0.0637 -0.6146  1.6742
14574SOL    HW246869   7.137   0.645   0.466  0.2248 -0.8432 -0.0303
14575SOL     OW46870   7.182   6.876   1.869 -0.1978 -0.0824  0.7087
14575SOL    HW146871   7.143   6.926   1.797 -1.7711 -2.5001 -0.2545
14575SOL    HW246872   7.136   6.906   1.947  0.3981  1.4310  0.5128
14576SOL     OW46873   4.483   6.385   3.684 -0.1122 -0.2527 -0.0119
14576SOL    HW146874   4.525   6.356   3.765  1.0055  2.2734  0.4241
14576SOL    HW246875   4.392   6.402   3.709  0.3471  1.0274  0.9030
14577SOL     OW46876   2.526   0.293   6.294 -0.4794 -0.3753 -0.0185
14577SOL    HW146877   2.476   0.225   6.249 -1.9222  0.4892  0.2078
14577SOL    HW246878   2.593   0.245   6.343 -1.8629 -1.7143  0.6600
14578SOL     OW46879   2.722   5.576   0.368  0.3028 -0.1680  0.0627
14578SOL    HW146880   2.680   5.514   0.308 -1.3263  0.5398  0.4248
14578SOL    HW246881   2.662   5.650   0.372  1.6871  0.9697  0.5011
14579SOL     OW46882   0.789   4.889   4.976  0.6956 -0.6838 -0.3007
14579SOL    HW146883   0.738   4.967   4.996  2.6896  0.6678 -0.2899
14579SOL    HW246884   0.746   4.819   5.025 -0.3791  0.6348  0.7062
14580SOL     OW46885   5.424   6.947   0.329 -0.1759 -0.8192  0.1529
14580SOL    HW146886   5.353   6.938   0.265 -0.8726  3.7178 -0.0819
14580SOL    HW246887   5.501   6.968   0.277  0.0791 -0.5372  0.6332
14581SOL     OW46888   4.527   2.250   2.196  0.1982  0.3284 -1.1105
14581SOL    HW146889   4.567   2.254   2.282  2.2195 -1.3872 -1.8726
14581SOL    HW246890   4.502   2.340   2.176  1.1781  1.0076  0.5713
14582SOL     OW46891   6.600   6.862   5.297 -0.1772 -0.1539 -0.5262
14582SOL    HW146892   6.570   6.841   5.385  1.6003 -0.8689 -0.0491
14582SOL    HW246893   6.602   6.958   5.294  1.6119 -0.1019  0.9193
14583SOL     OW46894   4.852   2.855   6.713 -0.5123  0.2964  0.0157
14583SOL    HW146895   4.820   2.859   6.623 -1.2572  1.0129  0.3078
14583SOL    HW246896   4.886   2.766   6.721 -1.4510 -0.1409 -0.6353
14584SOL     OW46897   5.408   6.728   0.801 -0.5666  0.1173 -0.8045
14584SOL    HW146898   5.373   6.764   0.720  0.0061  0.0099 -1.1095
14584SOL    HW246899   5.438   6.640   0.777 -1.0419 -0.1879 -0.3051
14585SOL     OW46900   7.512   0.870   0.487  0.3910 -0.2906  0.0654
14585SOL    HW146901   7.498   0.779   0.512  0.8072 -0.3939 -0.0644
14585SOL    HW246902   7.542   0.865   0.396 -1.4957  0.1013 -0.6208
14586SOL     OW46903   6.913   1.466   2.107 -0.2298  0.3365 -0.6394
14586SOL    HW146904   6.961   1.395   2.151 -0.3050  1.2774  1.0811
14586SOL    HW246905   6.824   1.433   2.097  0.3170 -0.7422 -2.1865
14587SOL     OW46906   6.987   4.222   4.947  0.8751 -0.4295  0.2301
14587SOL    HW146907   6.895   4.201   4.961  0.6718 -0.4838 -1.1109
14587SOL    HW246908   7.027   4.140   4.921  1.3114 -0.4025  0.7959
14588SOL     OW46909   7.000   1.986   5.616  0.3303 -0.1648  1.2388
14588SOL    HW146910   7.078   1.979   5.561 -0.5817  1.2258 -0.3334
14588SOL    HW246911   6.937   1.927   5.575 -0.4255  1.0311  0.6198
14589SOL     OW46912   5.981   8.072   5.185 -0.1538 -0.5917  0.2637
14589SOL    HW146913   6.045   8.139   5.212 -1.6795  1.8045 -1.6124
14589SOL    HW246914   6.031   7.990   5.186  2.5082  0.8885  0.4190
14590SOL     OW46915   5.071   1.162   4.950  0.1983  0.6679  0.2339
14590SOL    HW146916   4.997   1.112   4.916  0.5505  0.7314 -0.6642
14590SOL    HW246917   5.145   1.101   4.947  0.2732  0.7355  0.7102
14591SOL     OW46918   5.379   0.701   1.356 -0.5550  0.2401  0.1603
14591SOL    HW146919   5.381   0.673   1.264 -0.6616 -1.2770  0.5819
14591SOL    HW246920   5.391   0.795   1.353 -1.1666  0.3050 -1.4568
14592SOL     OW46921   7.596   6.280   5.984  0.0066  0.0193  0.1560
14592SOL    HW146922   7.515   6.323   6.012 -1.1404 -0.9699 -1.4586
14592SOL    HW246923   7.584   6.188   6.010  0.2085 -0.3074 -0.8630
14593SOL     OW46924   7.389   5.367   0.345  0.5597  0.2231  0.1665
14593SOL    HW146925   7.345   5.335   0.267  1.2660  0.0884 -0.1852
14593SOL    HW246926   7.421   5.288   0.389 -1.1727  0.1546  1.4444
14594SOL     OW46927   6.763   5.781   2.997 -0.8662 -0.1618  0.1002
14594SOL    HW146928   6.752   5.689   3.021 -1.0615 -0.0073  0.6155
14594SOL    HW246929   6.748   5.783   2.902 -0.6491 -0.6907  0.0526
14595SOL     OW46930   1.787   4.474   4.613  0.0346 -0.2158 -0.2408
14595SOL    HW146931   1.774   4.539   4.543 -1.7783 -0.5865 -0.2981
14595SOL    HW246932   1.853   4.513   4.670  2.5135 -0.4172 -2.7401
14596SOL     OW46933   2.212   3.465   6.706  0.1834 -0.0218  0.1346
14596SOL    HW146934   2.271   3.540   6.705 -1.7756  1.5892 -2.1973
14596SOL    HW246935   2.191   3.453   6.799 -0.1320  2.8780  0.5153
14597SOL     OW46936   4.981   4.006   3.612 -0.1113  0.3326  0.1481
14597SOL    HW146937   5.065   3.998   3.656 -0.5183  0.6225  0.9973
14597SOL    HW246938   4.924   3.942   3.656 -0.4027  0.3205 -0.2414
14598SOL     OW46939   0.200   1.734   4.389 -0.5164  0.2748  0.1232
14598SOL    HW146940   0.126   1.696   4.437  0.3298  1.4317  2.5251
14598SOL    HW246941   0.174   1.731   4.297 -1.4413 -3.9213  0.3346
14599SOL     OW46942   0.683   7.073   3.977  0.2229  0.4505 -0.5055
14599SOL    HW146943   0.738   7.006   3.937  0.1509 -0.0114  0.1531
14599SOL    HW246944   0.639   7.116   3.903 -1.1164 -1.4271 -0.8747
14600SOL     OW46945   6.868   3.309   7.377 -0.1062 -0.0742  0.0368
14600SOL    HW146946   6.839   3.317   7.286 -0.6839 -0.7879  0.1457
14600SOL    HW246947   6.862   3.398   7.412  0.4657  0.2732 -0.7139
14601SOL     OW46948   4.649   0.176   5.560 -0.0062  0.1373  0.0424
14601SOL    HW146949   4.647   0.080   5.550  1.2398  0.2030 -1.2560
14601SOL    HW246950   4.722   0.204   5.504 -0.4837  1.8735  0.2324
14602SOL     OW46951   3.432   0.995   4.942 -0.1638 -0.1637  0.2747
14602SOL    HW146952   3.477   0.956   4.867 -3.6666 -2.4717 -0.8859
14602SOL    HW246953   3.419   1.087   4.917 -0.8864 -0.7761 -1.8314
14603SOL     OW46954   6.988   7.422   6.584 -0.0434  0.4724  0.4472
14603SOL    HW146955   7.000   7.370   6.664  1.7157  1.4518  0.8818
14603SOL    HW246956   6.894   7.428   6.573 -0.3282 -1.8431  0.9949
14604SOL     OW46957   0.313   3.643   2.309  0.5472 -0.5237 -0.3476
14604SOL    HW146958   0.327   3.727   2.265 -1.9680 -0.1578 -0.5935
14604SOL    HW246959   0.305   3.580   2.238  1.2598 -0.7937 -0.1991
14605SOL     OW46960   5.150   2.877   2.016 -0.0761 -0.3255  0.2572
14605SOL    HW146961   5.086   2.808   2.033 -2.4654  1.4188 -1.0549
14605SOL    HW246962   5.099   2.958   2.015  1.8736  1.0358 -2.2087
14606SOL     OW46963   0.311   6.753   0.983 -0.0061  0.3013  0.2079
14606SOL    HW146964   0.228   6.777   1.023 -0.0273 -0.5052  0.6717
14606SOL    HW246965   0.378   6.791   1.039 -0.0548  0.2689  0.2875
14607SOL     OW46966   7.186   1.060   4.459 -0.0133  0.0010 -0.1417
14607SOL    HW146967   7.150   1.147   4.475 -0.0089  0.2114 -1.2183
14607SOL    HW246968   7.134   1.025   4.387  1.5012  0.0656 -1.3073
14608SOL     OW46969   4.945   5.137   7.470  0.3416  0.3832  0.5003
14608SOL    HW146970   4.999   5.095   7.403  0.5067 -0.0379  0.8872
14608SOL    HW246971   4.985   5.110   7.553 -0.5146 -0.0067  0.7929
14609SOL     OW46972   3.017   0.313   7.561 -0.0813 -0.1185  0.2468
14609SOL    HW146973   3.039   0.247   7.496  3.2068  0.2945  0.7494
14609SOL    HW246974   3.027   0.268   7.645  0.5454  0.5815  0.5578
14610SOL     OW46975   2.898   1.572   6.867 -0.4742  0.5648  0.0404
14610SOL    HW146976   2.911   1.487   6.824 -1.7654  0.3447  0.0543
14610SOL    HW246977   2.910   1.636   6.798  1.7598  0.4864  0.2735
14611SOL     OW46978   4.798   0.569   1.407 -0.3133 -0.0868  0.2649
14611SOL    HW146979   4.708   0.544   1.384 -0.9551  1.5260  0.8599
14611SOL    HW246980   4.806   0.659   1.377  0.8940  0.0131  0.8405
14612SOL     OW46981   1.565   2.382   0.510  0.4831 -0.0853 -0.4625
14612SOL    HW146982   1.619   2.433   0.570  1.3658 -1.6566  0.1311
14612SOL    HW246983   1.539   2.445   0.442 -0.0573  1.5913  1.2020
14613SOL     OW46984   6.336   7.940   4.238 -0.4095 -0.6042 -0.1837
14613SOL    HW146985   6.371   7.856   4.266  1.7452 -0.6797 -2.7044
14613SOL    HW246986   6.390   8.005   4.283 -0.0440 -0.6479 -0.5513
14614SOL     OW46987   1.265   5.979   1.426  0.1541  0.1970 -0.5868
14614SOL    HW146988   1.334   6.035   1.463 -0.4006  0.5036  0.0117
14614SOL    HW246989   1.236   6.024   1.347 -0.7968  1.1660  0.2791
14615SOL     OW46990   4.169   0.448   1.067  0.7102 -0.5282  0.3033
14615SOL    HW146991   4.156   0.537   1.036 -0.1115 -1.2606 -1.5812
14615SOL    HW246992   4.155   0.453   1.162 -1.7947  0.9183 -0.0580
14616SOL     OW46993   3.233   1.424   5.012 -0.0957  0.5487 -0.3262
14616SOL    HW146994   3.183   1.351   4.976  0.5382  0.6866 -1.5488
14616SOL    HW246995   3.290   1.385   5.077 -1.0159  0.2357  0.3182
14617SOL     OW46996   4.982   1.712   0.263  0.1388  0.5085  0.1776
14617SOL    HW146997   4.972   1.688   0.171 -0.6623  2.2350 -0.2264
14617SOL    HW246998   5.076   1.721   0.275  0.1594  2.7855 -1.2093
14618SOL     OW46999   0.500   4.864   4.092 -0.0556  0.0723  0.5293
14618SOL    HW147000   0.544   4.781   4.109  2.2521  1.1780  0.4590
14618SOL    HW247001   0.447   4.849   4.014  0.6450 -1.2200  0.2900
14619SOL     OW47002   3.659   5.853   4.459  0.1229  0.7972  0.2584
14619SOL    HW147003   3.570   5.832   4.489 -0.2150  0.9897 -0.5704
14619SOL    HW247004   3.648   5.878   4.367  1.2799 -1.0455 -0.4455
14620SOL     OW47005   1.865   1.988   6.099  0.2157 -0.2737  0.2002
14620SOL    HW147006   1.770   1.976   6.109 -0.3386  0.4884 -2.8224
14620SOL    HW247007   1.898   1.903   6.071  0.3962 -0.4657  0.9766
14621SOL     OW47008   1.915   2.206   0.122  0.2538 -0.2808  0.4377
14621SOL    HW147009   1.854   2.134   0.141 -0.2681 -0.0300 -0.2168
14621SOL    HW247010   1.875   2.283   0.162  1.0823 -0.4330  1.6030
14622SOL     OW47011   0.079   7.616   4.112  0.0540  0.4485 -0.6373
14622SOL    HW147012   0.027   7.604   4.033 -1.6851 -0.5607  0.5766
14622SOL    HW247013   0.068   7.709   4.134 -1.1917  0.2776 -0.4671
14623SOL     OW47014   2.960   4.722   1.138  0.4727 -0.1735  0.3108
14623SOL    HW147015   3.018   4.783   1.184  1.1202 -0.2300 -0.4013
14623SOL    HW247016   3.008   4.699   1.058  0.0244 -1.2278  0.3234
14624SOL     OW47017   4.799   6.971   1.951 -0.1673 -0.0149 -0.4561
14624SOL    HW147018   4.772   6.882   1.927 -0.0154 -0.6144  1.4215
14624SOL    HW247019   4.718   7.021   1.951 -0.9039 -1.0659  2.0720
14625SOL     OW47020   7.899   4.980   4.666  0.5418  0.9150 -0.2462
14625SOL    HW147021   7.873   5.065   4.701  0.9515  0.1525  2.1383
14625SOL    HW247022   7.822   4.924   4.681  1.1860  0.2543  0.6984
14626SOL     OW47023   3.955   7.923   6.836  0.2814  0.1651  0.4309
14626SOL    HW147024   3.866   7.900   6.809  0.2859 -0.2774  0.7977
14626SOL    HW247025   3.960   7.900   6.928  0.4366  1.1963  0.6957
14627SOL     OW47026   7.810   6.701   4.276 -0.6913  1.1585 -0.0197
14627SOL    HW147027   7.817   6.728   4.368 -0.0900  3.3259 -0.6253
14627SOL    HW247028   7.795   6.607   4.279  0.4876  0.9755  2.2788
14628SOL     OW47029   0.968   6.907   4.004 -0.1599 -0.2157 -0.3404
14628SOL    HW147030   0.910   6.839   3.970 -0.8490  0.3117 -0.2305
14628SOL    HW247031   1.021   6.861   4.070 -0.6946 -0.6311 -0.1866
14629SOL     OW47032   1.174   4.198   4.956 -0.4043 -0.0580  0.4604
14629SOL    HW147033   1.145   4.289   4.961  0.5173  0.2118  1.4829
14629SOL    HW247034   1.257   4.203   4.908  0.2420 -0.1739  1.5224
14630SOL     OW47035   2.915   3.992   1.545  0.3770  0.0763 -0.1418
14630SOL    HW147036   2.939   4.084   1.546  1.2031 -0.0767 -1.9236
14630SOL    HW247037   2.993   3.947   1.578  0.3753 -0.0456 -0.3036
14631SOL     OW47038   3.757   2.106   1.328  0.4000 -0.0495 -0.4806
14631SOL    HW147039   3.777   2.181   1.384  0.8474 -0.7417  0.3005
14631SOL    HW247040   3.757   2.031   1.387 -0.2683 -0.6380 -1.2166
14632SOL     OW47041   3.248   4.639   1.249 -0.0318  0.0816 -0.6578
14632SOL    HW147042   3.324   4.653   1.193 -0.4583 -0.2540 -1.3260
14632SOL    HW247043   3.216   4.727   1.269  0.8362  0.2531  0.0667
14633SOL     OW47044   4.768   3.710   6.161 -0.4646  0.0887  0.1186
14633SOL    HW147045   4.799   3.777   6.222 -0.7544  0.9854 -0.6866
14633SOL    HW247046   4.829   3.716   6.087  0.3299 -1.4884  0.6170
14634SOL     OW47047   5.025   2.822   0.481 -0.4029  0.5338 -0.1625
14634SOL    HW147048   4.972   2.863   0.550  0.0461 -0.6361  0.9038
14634SOL    HW247049   5.014   2.728   0.495 -0.3035  0.2728 -1.7100
14635SOL     OW47050   0.415   2.533   7.855 -0.2035 -0.0334  0.8011
14635SOL    HW147051   0.413   2.473   7.781 -0.1335 -0.6834  1.3147
14635SOL    HW247052   0.329   2.523   7.896  0.3901 -1.0828  1.8823
14636SOL     OW47053   2.728   1.802   7.770 -0.7188 -0.2658  0.1385
14636SOL    HW147054   2.691   1.720   7.803  0.5503 -0.7760  0.3517
14636SOL    HW247055   2.656   1.865   7.777 -1.4384 -1.1359  0.8605
14637SOL     OW47056   0.773   7.767   7.289 -0.1136  1.0158  0.2375
14637SOL    HW147057   0.684   7.733   7.296  1.0409 -2.8844 -1.3935
14637SOL    HW247058   0.763   7.850   7.241 -2.8596  0.9744  0.5807
14638SOL     OW47059   4.299   2.993   5.181  0.0152  0.0876  0.3038
14638SOL    HW147060   4.387   2.971   5.213  0.7511  0.5337 -1.3044
14638SOL    HW247061   4.278   2.922   5.120 -1.2443 -0.6163  1.5147
14639SOL     OW47062   5.660   4.000   0.095 -1.1113  0.6534 -0.6780
14639SOL    HW147063   5.674   3.976   0.004 -3.2990  0.6599 -1.0768
14639SOL    HW247064   5.589   3.944   0.124  0.9526 -0.9313  1.7713
14640SOL     OW47065   5.364   1.506   6.201  0.6129  0.1454 -0.1377
14640SOL    HW147066   5.282   1.466   6.175 -0.4246  0.4489  2.3924
14640SOL    HW247067   5.409   1.438   6.252  0.2204  1.1143  1.5815
14641SOL     OW47068   0.023   2.304   4.371 -0.4863  0.5433 -0.2007
14641SOL    HW147069   0.090   2.322   4.305 -0.5497 -1.5318 -0.8951
14641SOL    HW247070  -0.043   2.372   4.356 -0.0919  0.6308 -1.7341
14642SOL     OW47071   0.682   7.450   4.789  0.4119 -0.0129  0.2681
14642SOL    HW147072   0.651   7.365   4.757  2.3669 -0.9176  0.6720
14642SOL    HW247073   0.721   7.491   4.713 -0.7571  0.6856  0.0108
14643SOL     OW47074   1.348   4.900   1.196 -0.0592  0.0955 -0.1511
14643SOL    HW147075   1.253   4.897   1.190 -0.0841  0.1352  0.1935
14643SOL    HW247076   1.378   4.889   1.106 -0.2826 -3.7807  0.0694
14644SOL     OW47077   7.217   0.818   2.870  0.5180 -0.5179 -0.2979
14644SOL    HW147078   7.271   0.751   2.912 -0.4854 -1.1483  0.0150
14644SOL    HW247079   7.136   0.773   2.847 -0.9593  0.9786  1.5718
14645SOL     OW47080   7.636   7.423   8.008 -0.2219 -0.5210  0.1081
14645SOL    HW147081   7.657   7.508   8.047 -0.3360  0.1812 -1.2726
14645SOL    HW247082   7.711   7.403   7.953 -0.9350 -0.4481 -0.9306
14646SOL     OW47083   6.917   0.701   5.965 -0.1627 -0.5222 -0.0019
14646SOL    HW147084   6.893   0.667   5.879 -0.7801  0.3399 -0.1832
14646SOL    HW247085   6.859   0.654   6.026  1.3907 -2.3433  0.1637
14647SOL     OW47086   0.332   4.968   6.696  0.4167 -0.5164 -0.3661
14647SOL    HW147087   0.403   4.918   6.738 -1.1587 -1.1174  1.7632
14647SOL    HW247088   0.336   4.941   6.604  1.8306 -1.9012  0.0431
14648SOL     OW47089   7.766   3.349   3.368  0.5408  0.2673  0.4144
14648SOL    HW147090   7.702   3.394   3.313  0.8570 -0.5902 -0.6856
14648SOL    HW247091   7.724   3.267   3.392  1.3859 -0.5092 -0.6961
14649SOL     OW47092   7.643   6.964   7.739 -0.0573  0.2444  0.5590
14649SOL    HW147093   7.581   6.944   7.669 -0.5378  0.2064  0.9905
14649SOL    HW247094   7.592   7.012   7.804  0.5522  0.9003  0.5712
14650SOL     OW47095   3.929   2.170   6.711  0.1807  0.0433 -0.1813
14650SOL    HW147096   3.911   2.101   6.647  1.5415 -0.8405  0.3371
14650SOL    HW247097   4.023   2.184   6.704 -0.0366  1.6999 -0.0944
14651SOL     OW47098   7.931   6.297   0.745  0.1670  0.6481  0.7206
14651SOL    HW147099   7.843   6.278   0.778  0.8447  2.0795  3.6323
14651SOL    HW247100   7.960   6.214   0.707 -1.5241 -0.5523  1.8882
14652SOL     OW47101   2.839   5.970   3.254  0.0332  0.9008  0.3155
14652SOL    HW147102   2.814   6.059   3.276 -0.0102  1.0695 -0.3964
14652SOL    HW247103   2.759   5.931   3.218 -0.1673  0.3251  1.3552
14653SOL     OW47104   5.332   6.339   3.399 -0.3566  0.0003  0.1681
14653SOL    HW147105   5.254   6.363   3.348  0.4925  1.9569 -0.2922
14653SOL    HW247106   5.367   6.263   3.354 -1.0092  0.1888 -0.6990
14654SOL     OW47107   4.172   6.306   4.019  0.0489  0.5288  0.0316
14654SOL    HW147108   4.198   6.220   4.051  0.2448  0.3292 -0.6374
14654SOL    HW247109   4.251   6.359   4.027 -0.6409  1.2967  2.5190
14655SOL     OW47110   4.639   1.335   6.395 -0.2284 -0.3511 -0.2118
14655SOL    HW147111   4.714   1.299   6.347 -0.5976 -0.9449 -0.3503
14655SOL    HW247112   4.643   1.429   6.378  0.7559 -0.3164  0.1622
14656SOL     OW47113   7.654   3.204   0.124  0.1861  0.0411 -0.2046
14656SOL    HW147114   7.637   3.248   0.208  0.3251 -1.3034  0.5568
14656SOL    HW247115   7.706   3.127   0.148 -0.6037 -0.8906 -1.4170
14657SOL     OW47116   3.884   2.402   4.692  0.3831  0.3533  0.1040
14657SOL    HW147117   3.906   2.311   4.675 -2.4439 -0.0933 -1.8281
14657SOL    HW247118   3.887   2.444   4.605  1.0856  2.0105  0.8703
14658SOL     OW47119   6.034   7.861   4.578  0.5920 -0.0674  0.3387
14658SOL    HW147120   5.974   7.851   4.505  0.8688 -2.6304  0.3850
14658SOL    HW247121   6.094   7.930   4.550  0.2588 -0.4787 -1.5400
14659SOL     OW47122   1.307   7.909   7.351 -0.3119  0.1297 -0.2461
14659SOL    HW147123   1.339   7.829   7.393 -0.5500  0.4412  0.5511
14659SOL    HW247124   1.333   7.979   7.410  0.2245  0.6855 -1.1332
14660SOL     OW47125   0.112   4.509   0.002  0.5947 -0.0667 -0.3737
14660SOL    HW147126   0.148   4.553  -0.075 -1.0173 -0.3244 -1.3203
14660SOL    HW247127   0.049   4.572   0.038 -1.6032 -1.4139 -1.6382
14661SOL     OW47128   5.408   0.443   3.876 -0.0909 -0.6693 -0.7609
14661SOL    HW147129   5.388   0.534   3.857 -0.7128 -0.4146  0.9320
14661SOL    HW247130   5.494   0.427   3.836 -1.0007 -0.0695 -3.1341
14662SOL     OW47131   1.766   4.947   2.202 -0.1550 -0.3583  0.4410
14662SOL    HW147132   1.815   4.880   2.250 -1.1352 -0.1280  1.8260
14662SOL    HW247133   1.688   4.961   2.255  0.2051  2.1586  0.4080
14663SOL     OW47134   0.102   3.971   2.056 -0.0128 -0.0482 -0.5576
14663SOL    HW147135   0.097   4.002   1.966  0.2819 -0.0134 -0.5627
14663SOL    HW247136   0.016   3.991   2.093 -0.3384 -0.5839 -0.9968
14664SOL     OW47137   1.103   7.779   0.664  0.8282  0.0731 -0.0525
14664SOL    HW147138   1.142   7.712   0.608  0.4059 -0.2418  0.0253
14664SOL    HW247139   1.162   7.784   0.740 -0.3310 -1.8597  1.0429
14665SOL     OW47140   7.069   2.120   1.924 -0.5466  0.3907  0.0799
14665SOL    HW147141   7.158   2.149   1.905 -0.0562 -0.0233  1.6529
14665SOL    HW247142   7.068   2.027   1.900 -0.3510  0.2229  0.7252
14666SOL     OW47143   7.926   1.620   3.363 -0.1457  0.0638 -0.0572
14666SOL    HW147144   7.968   1.541   3.397 -0.7487 -0.8941 -1.4383
14666SOL    HW247145   7.834   1.613   3.390 -0.1932  0.3109 -0.1465
14667SOL     OW47146   1.485   0.140   2.417 -0.6017  0.1452  0.2883
14667SOL    HW147147   1.469   0.162   2.509 -1.0925 -0.2452  0.2981
14667SOL    HW247148   1.500   0.224   2.374 -1.3193  0.4035  0.5428
14668SOL     OW47149   3.518   5.592   3.577 -0.4146  0.1599 -0.0798
14668SOL    HW147150   3.471   5.597   3.660 -2.0259  1.0434 -0.9881
14668SOL    HW247151   3.609   5.612   3.599 -0.4982 -1.1343  1.6699
14669SOL     OW47152   4.365   1.758   7.586 -0.4840  0.0328  0.4682
14669SOL    HW147153   4.314   1.687   7.625  2.1558 -2.9948 -1.0950
14669SOL    HW247154   4.330   1.837   7.626 -2.3414 -2.2443  3.8791
14670SOL     OW47155   1.714   1.227   4.433  0.0386 -0.2634  0.1408
14670SOL    HW147156   1.802   1.190   4.419  0.0304 -0.0716 -0.4362
14670SOL    HW247157   1.672   1.222   4.347  0.3957  2.0407 -0.2201
14671SOL     OW47158   6.065   2.839   5.499 -0.0871 -0.7940 -0.0352
14671SOL    HW147159   6.116   2.913   5.534 -0.8258 -0.1707 -0.2476
14671SOL    HW247160   6.033   2.793   5.576 -0.1965 -0.4855  0.1049
14672SOL     OW47161   3.371   4.994   3.904 -0.0399 -0.6614  0.0223
14672SOL    HW147162   3.311   4.920   3.892 -0.9814  0.1374 -0.2960
14672SOL    HW247163   3.417   4.975   3.985 -0.1266 -1.6952 -0.1566
14673SOL     OW47164   7.079   7.738   1.174 -0.4380 -0.3453  0.3431
14673SOL    HW147165   7.142   7.670   1.197 -0.6658 -0.6481  0.0762
14673SOL    HW247166   7.130   7.818   1.170  0.1114 -0.7351 -0.7967
14674SOL     OW47167   4.054   1.245   3.509  0.5031  0.5120  0.1398
14674SOL    HW147168   4.096   1.166   3.542 -0.4089  0.2137  0.6265
14674SOL    HW247169   4.115   1.316   3.529  1.5060 -0.1067 -0.6466
14675SOL     OW47170   1.538   4.574   5.679  0.3259 -0.0963  0.2554
14675SOL    HW147171   1.496   4.490   5.661  1.1871 -0.4746 -0.0349
14675SOL    HW247172   1.581   4.598   5.597  2.4203 -0.7563  1.0916
14676SOL     OW47173   7.895   6.963   7.557 -0.2270  0.3827  0.1232
14676SOL    HW147174   7.863   6.888   7.508  1.4620 -0.0228 -0.3974
14676SOL    HW247175   7.830   6.975   7.627 -1.6306 -0.2223 -1.0270
14677SOL     OW47176   2.281   1.882   7.994  0.5001 -0.1379  0.0493
14677SOL    HW147177   2.252   1.966   8.031 -1.6183 -0.5245 -0.5945
14677SOL    HW247178   2.201   1.841   7.961  1.5063 -2.3486  0.1556
14678SOL     OW47179   1.339   2.902   3.071  0.2432 -0.0319 -0.2400
14678SOL    HW147180   1.347   2.830   3.133  0.5487  1.8863  2.0844
14678SOL    HW247181   1.259   2.947   3.096 -1.9324 -1.4303 -3.8900
14679SOL     OW47182   0.904   5.448   5.792  0.3097  0.1290  0.1258
14679SOL    HW147183   0.865   5.525   5.832  1.9585  1.4480 -0.6724
14679SOL    HW247184   0.870   5.447   5.703  1.4608  0.8687 -0.3469
14680SOL     OW47185   7.595   1.834   7.380 -0.3290 -0.1214  0.0949
14680SOL    HW147186   7.504   1.805   7.376 -0.6668  1.0097 -1.0360
14680SOL    HW247187   7.596   1.917   7.332  1.5293 -0.7130 -1.0114
14681SOL     OW47188   7.501   1.903   7.039  0.1851 -0.2560  0.0051
14681SOL    HW147189   7.545   1.964   7.098  0.7527 -0.1787 -0.4974
14681SOL    HW247190   7.535   1.817   7.063 -1.6423 -0.6071  1.6768
14682SOL     OW47191   4.482   2.817   2.511 -0.0036 -0.4659  0.4014
14682SOL    HW147192   4.574   2.835   2.493  0.0368 -1.8473 -0.9700
14682SOL    HW247193   4.483   2.773   2.596  0.8353 -2.0492 -0.3738
14683SOL     OW47194   7.278   7.272   0.770 -0.1109  0.1037  0.2612
14683SOL    HW147195   7.247   7.192   0.813 -1.5241  0.7357  0.4558
14683SOL    HW247196   7.266   7.255   0.676  0.3489 -0.2035  0.2526
14684SOL     OW47197   6.826   2.504   5.490 -0.6824 -0.2268  0.6005
14684SOL    HW147198   6.890   2.536   5.427 -0.5562  2.2790  1.8737
14684SOL    HW247199   6.874   2.440   5.543  0.4620  0.7562  0.7956
14685SOL     OW47200   1.152   8.004   6.257  0.0601  0.6754 -0.1029
14685SOL    HW147201   1.226   8.053   6.293  0.9117  1.2871 -2.4777
14685SOL    HW247202   1.078   8.065   6.261 -0.0608  0.4608  1.2458
14686SOL     OW47203   2.438   2.042   3.236  0.0653 -0.1409  0.2315
14686SOL    HW147204   2.372   1.973   3.224 -0.3978  0.4359 -0.6689
14686SOL    HW247205   2.517   2.008   3.193 -0.2824  0.0439 -0.5711
14687SOL     OW47206   4.685   0.290   4.578 -0.0902  0.4238  1.0512
14687SOL    HW147207   4.710   0.383   4.581  0.3806  0.4633 -1.7944
14687SOL    HW247208   4.734   0.250   4.651  0.0316  2.3019  2.0709
14688SOL     OW47209   1.843   1.192   5.205  0.0666  0.2519 -0.2458
14688SOL    HW147210   1.895   1.263   5.241  0.1987  0.6748 -1.2369
14688SOL    HW247211   1.798   1.230   5.130 -0.0946 -0.6291 -0.6153
14689SOL     OW47212   7.374   1.282   4.824 -0.0398 -0.1168 -0.1633
14689SOL    HW147213   7.364   1.187   4.814 -0.2934 -0.3554  2.0003
14689SOL    HW247214   7.286   1.316   4.816  0.1013  0.0274 -1.3807
14690SOL     OW47215   2.061   2.435   5.114  0.2109 -0.2479 -0.3260
14690SOL    HW147216   2.147   2.438   5.072  1.1300  2.2626  1.4730
14690SOL    HW247217   2.016   2.514   5.082  0.1950  0.6551  1.7269
14691SOL     OW47218   0.217   6.241   7.214  0.7466  0.1622 -0.5124
14691SOL    HW147219   0.171   6.193   7.145  0.7899  0.2457 -0.6006
14691SOL    HW247220   0.274   6.176   7.255  0.1306 -0.0767 -0.0213
14692SOL     OW47221   3.293   4.928   4.292 -0.4096 -0.8541 -0.5680
14692SOL    HW147222   3.198   4.928   4.307 -0.0847 -0.6710  1.8261
14692SOL    HW247223   3.313   4.838   4.266 -1.0416 -1.3474  0.5923
14693SOL     OW47224   2.162   0.842   3.968  0.2410  0.1193 -0.2254
14693SOL    HW147225   2.084   0.848   3.912 -0.6019 -1.0089  0.7717
14693SOL    HW247226   2.206   0.926   3.956 -1.7603  1.2918  0.1012
14694SOL     OW47227   6.140   3.174   0.835 -0.1506  0.5023 -0.4364
14694SOL    HW147228   6.129   3.168   0.740 -2.4995 -3.0332 -0.1553
14694SOL    HW247229   6.069   3.230   0.864  0.3780  1.3293 -0.7151
14695SOL     OW47230   1.108   4.836   6.514  0.1559 -0.3283  0.5091
14695SOL    HW147231   1.173   4.770   6.537 -0.5329 -1.3848 -0.5001
14695SOL    HW247232   1.092   4.883   6.597  0.9168 -1.1754  1.1600
14696SOL     OW47233   3.821   2.222   2.909  0.5496 -0.3893 -0.4031
14696SOL    HW147234   3.817   2.142   2.857 -0.9699 -1.9848  2.0169
14696SOL    HW247235   3.911   2.226   2.941  0.3291 -1.8351  0.4578
14697SOL     OW47236   1.926   6.682   1.505 -0.1054  0.3091  0.3258
14697SOL    HW147237   1.993   6.737   1.546  1.7263 -1.3921 -0.2041
14697SOL    HW247238   1.914   6.720   1.418  0.2885  0.5391  0.3689
14698SOL     OW47239   1.529   4.993   3.445  0.1510 -0.2995 -0.0151
14698SOL    HW147240   1.572   5.077   3.430 -1.3099  0.5783  0.4592
14698SOL    HW247241   1.481   5.005   3.527  0.0020 -1.6444  0.1196
14699SOL     OW47242   4.821   1.707   3.671 -0.0237 -0.3996 -0.0874
14699SOL    HW147243   4.814   1.801   3.652  0.6017  0.5668  3.6669
14699SOL    HW247244   4.736   1.671   3.646 -0.7525  1.4146 -0.3683
14700SOL     OW47245   4.656   7.709   7.978  0.0773  0.0091  0.5692
14700SOL    HW147246   4.699   7.628   7.952  0.4716 -0.0086  1.2671
14700SOL    HW247247   4.567   7.682   8.000 -0.5297  0.1409 -1.4764
14701SOL     OW47248   6.579   1.974   6.932 -0.0430 -0.2691  0.1908
14701SOL    HW147249   6.671   1.961   6.908  0.1101 -0.4151  0.8391
14701SOL    HW247250   6.582   2.014   7.019 -0.6034 -0.7779  0.4544
14702SOL     OW47251   2.726   4.081   4.110  0.4741  0.1937 -0.0457
14702SOL    HW147252   2.685   4.107   4.028  0.1319  2.7879  0.8388
14702SOL    HW247253   2.779   4.005   4.088 -0.1209  0.4119 -2.5042
14703SOL     OW47254   7.112   1.958   6.175  0.7127 -0.2442  0.4791
14703SOL    HW147255   7.125   1.982   6.083  1.4064  0.3242  0.7172
14703SOL    HW247256   7.021   1.981   6.193  0.7407  0.2019  0.0911
14704SOL     OW47257   5.053   0.049   6.349 -0.3504 -0.5638 -0.1098
14704SOL    HW147258   5.141   0.086   6.364 -0.9812  0.2136  2.2656
14704SOL    HW247259   5.059  -0.040   6.384 -0.8557 -0.0038  1.4837
14705SOL     OW47260   7.215   6.306   2.299  0.2611  0.2927  0.5976
14705SOL    HW147261   7.300   6.350   2.300 -0.0715  0.9675  0.1917
14705SOL    HW247262   7.208   6.265   2.385  1.3884 -0.5572  0.3016
14706SOL     OW47263   0.678   6.338   4.973 -0.1164  0.6123 -0.2359
14706SOL    HW147264   0.675   6.372   5.063 -1.9647  1.7673 -0.6918
14706SOL    HW247265   0.771   6.340   4.950  0.3620  0.6191  1.5093
14707SOL     OW47266   0.698   1.443   7.441 -0.6831 -0.1157  0.1090
14707SOL    HW147267   0.744   1.506   7.496 -1.2615  0.8606 -0.4932
14707SOL    HW247268   0.728   1.358   7.472  1.0343  0.4660  0.1509
14708SOL     OW47269   5.048   4.386   6.106  0.5716 -0.7377  0.4318
14708SOL    HW147270   5.011   4.433   6.180  0.7994 -0.4146  0.3446
14708SOL    HW247271   5.081   4.304   6.143 -0.9918 -1.4301  0.3680
14709SOL     OW47272   6.461   0.899   0.505 -0.2203 -0.4151 -0.1470
14709SOL    HW147273   6.551   0.921   0.530 -0.9233  1.1421  1.2831
14709SOL    HW247274   6.440   0.820   0.555 -0.5251  0.8343  1.8356
14710SOL     OW47275   0.514   0.010   4.559  0.2361  0.4495 -0.8820
14710SOL    HW147276   0.472  -0.026   4.480  0.5734  0.6255 -1.1416
14710SOL    HW247277   0.486   0.101   4.561 -1.2225  0.0310  0.1764
14711SOL     OW47278   6.601   7.162   6.504  0.5139 -0.3005 -0.2033
14711SOL    HW147279   6.611   7.070   6.480  0.2520  0.1001 -1.9441
14711SOL    HW247280   6.507   7.179   6.493  0.4866  0.0781  0.5346
14712SOL     OW47281   1.006   6.699   2.667  0.1739 -0.5013  0.4676
14712SOL    HW147282   0.929   6.653   2.701 -0.6667  0.5400  0.0474
14712SOL    HW247283   1.001   6.786   2.707 -0.1039  0.3019 -1.2285
14713SOL     OW47284   4.560   6.020   4.159 -0.2994  0.0255  0.2563
14713SOL    HW147285   4.562   5.934   4.118  0.0080 -0.0214  0.3658
14713SOL    HW247286   4.467   6.042   4.165 -0.4101 -0.5947  0.8556
14714SOL     OW47287   2.304   2.148   7.718  0.2798  0.1557 -0.5768
14714SOL    HW147288   2.220   2.127   7.677  0.1293 -0.1609 -0.1188
14714SOL    HW247289   2.361   2.172   7.645  0.1326 -0.7794 -1.0192
14715SOL     OW47290   8.094   0.241   5.768 -1.0376 -0.2082 -0.4167
14715SOL    HW147291   8.033   0.169   5.752 -1.9549  0.4794 -0.0708
14715SOL    HW247292   8.044   0.320   5.751  0.3663  0.3705 -2.2429
14716SOL     OW47293   4.327   2.296   2.499  0.1488  0.1520  0.4084
14716SOL    HW147294   4.398   2.360   2.491 -2.4849  3.3884  0.9972
14716SOL    HW247295   4.309   2.291   2.592 -1.2047  0.3729  0.1765
14717SOL     OW47296   1.474   2.957   5.242 -0.2647 -0.5442  0.1411
14717SOL    HW147297   1.405   2.913   5.292 -0.9521  0.4286  0.0782
14717SOL    HW247298   1.499   3.031   5.297 -0.7668  0.3216 -0.7643
14718SOL     OW47299   7.461   0.341   7.486 -0.3810 -0.1107 -1.1161
14718SOL    HW147300   7.538   0.366   7.538 -0.4510 -0.3037 -0.9199
14718SOL    HW247301   7.435   0.256   7.521  0.3530 -0.8692 -2.3118
14719SOL     OW47302   2.619   0.544   3.170  0.2275  0.6009 -0.1295
14719SOL    HW147303   2.687   0.483   3.200  1.5199  0.7775 -2.4416
14719SOL    HW247304   2.542   0.490   3.156  0.8625 -0.2283 -0.5154
14720SOL     OW47305   5.236   5.591   6.354  0.1780  0.0749  0.1015
14720SOL    HW147306   5.217   5.497   6.362 -0.7360  0.2890  0.5584
14720SOL    HW247307   5.161   5.627   6.307  1.9940  0.0957 -3.0716
14721SOL     OW47308   5.406   0.777   3.361 -0.2446  0.2356  0.0381
14721SOL    HW147309   5.463   0.853   3.368 -0.4164  0.6467 -2.3389
14721SOL    HW247310   5.457   0.712   3.312  0.1433 -1.5118  2.5487
14722SOL     OW47311   7.061   7.299   5.693 -0.4686  0.2646 -0.0730
14722SOL    HW147312   6.998   7.241   5.649 -0.5426 -0.4938  0.9889
14722SOL    HW247313   7.145   7.255   5.684 -0.5780 -0.2122  1.0321
14723SOL     OW47314   1.476   3.985   0.907  0.4803  0.2086 -0.4490
14723SOL    HW147315   1.385   3.957   0.896 -0.1528  0.4441  2.8748
14723SOL    HW247316   1.476   4.078   0.886  0.2728 -0.0688 -1.7177
14724SOL     OW47317   4.197   3.001   1.029 -0.2528  0.2461 -0.0726
14724SOL    HW147318   4.125   3.055   1.060 -0.9063 -0.2821 -0.6391
14724SOL    HW247319   4.238   3.054   0.960  0.0778  0.6612  0.4376
14725SOL     OW47320   4.624   0.149   7.566  0.4845  0.1525  0.1593
14725SOL    HW147321   4.553   0.206   7.538  0.9543  0.0944 -1.2076
14725SOL    HW247322   4.688   0.208   7.605  0.7430  0.5242 -0.7960
14726SOL     OW47323   7.974   5.718   6.431  0.4780  0.0978  0.1975
14726SOL    HW147324   7.996   5.637   6.477 -0.6816 -0.7714 -0.7192
14726SOL    HW247325   7.947   5.778   6.501 -0.7455 -1.0220  0.7554
14727SOL     OW47326   6.472   7.438   2.265 -0.0721  0.4756  0.0449
14727SOL    HW147327   6.461   7.533   2.277 -2.2380  0.1135  1.5769
14727SOL    HW247328   6.429   7.419   2.182  1.2157  0.9229 -0.7562
14728SOL     OW47329   2.387   4.554   7.538  0.2500 -0.3174  0.1665
14728SOL    HW147330   2.337   4.472   7.539 -0.5161  0.1396  0.3896
14728SOL    HW247331   2.476   4.527   7.518  0.3668 -1.4147  1.9124
14729SOL     OW47332   6.588   3.523   0.289 -0.0553 -0.3408 -0.3172
14729SOL    HW147333   6.651   3.592   0.306 -0.4296 -0.4801  1.8753
14729SOL    HW247334   6.621   3.448   0.339 -2.1997 -0.2413  1.3765
14730SOL     OW47335   3.746   4.129   1.442 -0.0057  0.1310 -0.0249
14730SOL    HW147336   3.678   4.108   1.378 -0.8853  2.1616  0.1677
14730SOL    HW247337   3.698   4.147   1.523  0.6828  1.9862  0.0079
14731SOL     OW47338   1.162   1.801   4.364 -0.4976  0.0157 -0.7255
14731SOL    HW147339   1.127   1.752   4.438 -2.6840 -2.1745 -2.9984
14731SOL    HW247340   1.090   1.859   4.338 -0.2711 -0.1931 -1.8879
14732SOL     OW47341   3.524   7.171   2.551  0.7458  0.5368 -0.4638
14732SOL    HW147342   3.487   7.240   2.606 -0.0797  0.5914 -1.0624
14732SOL    HW247343   3.607   7.207   2.520  2.6191 -0.5500  2.8746
14733SOL     OW47344   7.960   1.308   3.640 -0.3640 -0.8081 -0.0685
14733SOL    HW147345   8.055   1.314   3.645 -0.3932 -1.1594  1.9936
14733SOL    HW247346   7.928   1.375   3.700 -1.4650 -0.3367 -1.1229
14734SOL     OW47347   7.130   2.850   5.119  0.4153  0.4383 -0.0483
14734SOL    HW147348   7.085   2.793   5.057  0.7654 -1.6559  1.4838
14734SOL    HW247349   7.102   2.938   5.097 -2.0063 -0.5191 -1.0801
14735SOL     OW47350   6.867   6.695   0.657  0.1127 -0.3902  0.2902
14735SOL    HW147351   6.827   6.646   0.586 -0.2881  0.5940 -0.1835
14735SOL    HW247352   6.952   6.653   0.670  0.3636 -0.3439 -1.0411
14736SOL     OW47353   0.608   0.613   3.033  0.3905 -0.0454  0.1787
14736SOL    HW147354   0.585   0.522   3.015  1.0159 -0.1695 -0.0102
14736SOL    HW247355   0.544   0.664   2.982 -1.6044 -0.3142  2.2853
14737SOL     OW47356   7.625   6.372   3.451 -0.6383 -0.4430 -0.3028
14737SOL    HW147357   7.542   6.327   3.435 -1.1932  0.0083  1.0867
14737SOL    HW247358   7.611   6.461   3.417 -0.2624 -0.7321 -1.2226
14738SOL     OW47359   6.811   2.956   6.760  0.1400 -0.4040  0.1445
14738SOL    HW147360   6.893   2.947   6.712  0.2024 -1.6093  0.4515
14738SOL    HW247361   6.819   2.897   6.835 -0.3456  0.7185  1.1174
14739SOL     OW47362   1.361   5.213   7.714  1.2027  0.1026 -0.2607
14739SOL    HW147363   1.320   5.208   7.801  0.7576 -0.2860 -0.4856
14739SOL    HW247364   1.415   5.134   7.709 -1.3706 -1.7462 -1.6031
14740SOL     OW47365   1.790   6.079   5.214 -0.1214 -0.2483 -0.0566
14740SOL    HW147366   1.715   6.124   5.176  0.6407  1.2263  0.1064
14740SOL    HW247367   1.760   6.054   5.302  0.0424  1.8271  0.6634
14741SOL     OW47368   4.192   7.726   6.786  0.3370 -0.1413  0.5744
14741SOL    HW147369   4.190   7.635   6.816  0.8169  0.8548  4.1064
14741SOL    HW247370   4.102   7.756   6.791 -0.1263 -0.7684 -2.2531
14742SOL     OW47371   2.730   3.301   7.393  0.0381  0.1240  0.6349
14742SOL    HW147372   2.636   3.286   7.404 -0.6078  2.5435 -0.7284
14742SOL    HW247373   2.771   3.219   7.420 -2.4562 -1.0431  1.1767
14743SOL     OW47374   2.472   6.347   6.477 -0.2736 -0.6374 -0.4248
14743SOL    HW147375   2.416   6.369   6.552  1.0064 -0.2950  0.4599
14743SOL    HW247376   2.523   6.272   6.506 -1.7613 -2.3382 -1.9977
14744SOL     OW47377   0.839   3.001   0.888  0.5277 -1.2803  0.0553
14744SOL    HW147378   0.764   2.982   0.945 -0.3706 -0.5330 -0.8460
14744SOL    HW247379   0.902   3.044   0.945 -1.0255  0.9945  0.1812
14745SOL     OW47380   7.771   2.401   6.672 -0.5958 -0.1349 -0.2587
14745SOL    HW147381   7.839   2.442   6.620 -1.6573  0.7112 -1.0314
14745SOL    HW247382   7.731   2.337   6.613 -0.0657 -1.1078  0.4002
14746SOL     OW47383   5.463   1.052   2.686 -0.1825 -0.5328 -0.0034
14746SOL    HW147384   5.411   1.130   2.707  1.3242  0.2939  0.8249
14746SOL    HW247385   5.460   1.046   2.591 -2.9464 -1.3719  0.0476
14747SOL     OW47386   5.770   1.778   5.842  0.2773  0.3385 -0.2624
14747SOL    HW147387   5.850   1.826   5.823 -0.4294  1.0241 -1.6995
14747SOL    HW247388   5.795   1.686   5.839  1.1515  0.5535  0.0689
14748SOL     OW47389   1.834   3.243   4.276  0.2089 -0.1286 -0.5233
14748SOL    HW147390   1.872   3.299   4.209  1.4742 -1.2988 -0.8254
14748SOL    HW247391   1.746   3.278   4.289 -1.0206 -1.2205 -4.4642
14749SOL     OW47392   7.753   3.192   2.570  0.4123 -0.1283 -0.0025
14749SOL    HW147393   7.779   3.251   2.641  3.2261  0.2569 -1.2178
14749SOL    HW247394   7.695   3.128   2.611  0.3973  1.1975  2.1866
14750SOL     OW47395   6.262   7.192   0.434  0.1113  0.3059  0.3822
14750SOL    HW147396   6.200   7.165   0.502  0.9797 -0.3994  0.9228
14750SOL    HW247397   6.331   7.239   0.481  1.4862 -1.4676  0.2472
14751SOL     OW47398   4.938   2.705   2.067  0.6756 -0.2900 -0.0962
14751SOL    HW147399   4.897   2.695   1.981 -0.0989  2.6053 -0.1530
14751SOL    HW247400   4.974   2.618   2.086 -1.1926 -1.6630 -2.2512
14752SOL     OW47401   1.938   2.045   3.840  0.5537  0.3314  0.6013
14752SOL    HW147402   1.850   2.028   3.807 -0.1888 -0.0222  2.6467
14752SOL    HW247403   1.954   2.137   3.819 -0.3903  0.4689  0.4360
14753SOL     OW47404   7.759   4.517   4.208  0.3348  0.0528 -0.3856
14753SOL    HW147405   7.753   4.503   4.113  0.2261 -0.9589 -0.2451
14753SOL    HW247406   7.845   4.482   4.231  0.6585  0.9443 -0.2090
14754SOL     OW47407   5.714   7.508   1.410 -0.3823 -0.0549 -0.7000
14754SOL    HW147408   5.634   7.554   1.387  0.1212  0.5876 -1.2001
14754SOL    HW247409   5.750   7.480   1.326  1.0085  1.5208 -0.6826
14755SOL     OW47410   6.444   0.413   3.886  0.8768 -0.2394  0.0919
14755SOL    HW147411   6.497   0.459   3.820  1.7726 -1.4292 -0.0466
14755SOL    HW247412   6.379   0.478   3.913  0.3908  0.2746 -2.0515
14756SOL     OW47413   1.430   5.611   3.253 -0.1137  0.1942  0.7053
14756SOL    HW147414   1.516   5.588   3.218 -0.5447 -1.3504  0.5648
14756SOL    HW247415   1.377   5.632   3.176 -0.1687  0.0052  0.6900
14757SOL     OW47416   5.665   2.066   6.877  0.2608  0.6752 -0.6623
14757SOL    HW147417   5.624   2.081   6.791 -3.4802  1.0541  0.9891
14757SOL    HW247418   5.642   2.144   6.928  2.6400  0.5866  0.6647
14758SOL     OW47419   6.448   2.191   0.908  0.0748  0.1689  0.2957
14758SOL    HW147420   6.398   2.267   0.879  0.2544  0.7123  1.3605
14758SOL    HW247421   6.521   2.229   0.957 -0.4107 -0.7161  1.7389
14759SOL     OW47422   1.223   0.406   1.390  0.0068  0.6517  0.2559
14759SOL    HW147423   1.220   0.411   1.294  0.4963  1.6409  0.2813
14759SOL    HW247424   1.316   0.392   1.409 -0.3088 -1.4456  0.5315
14760SOL     OW47425   3.870   1.416   5.006 -0.1825  0.1377 -0.1967
14760SOL    HW147426   3.930   1.398   5.078 -0.6545  0.1702  0.2141
14760SOL    HW247427   3.824   1.333   4.992  1.4722 -0.5734 -1.9981
14761SOL     OW47428   3.034   0.343   1.505 -0.4132 -0.2457  0.1383
14761SOL    HW147429   2.960   0.403   1.515 -0.3417 -0.2639  0.8207
14761SOL    HW247430   3.062   0.325   1.594  0.3035 -0.3806 -0.1074
14762SOL     OW47431   2.398   3.688   7.222  0.0498  0.4653 -0.3026
14762SOL    HW147432   2.473   3.674   7.280  1.4706  2.0507 -1.6375
14762SOL    HW247433   2.406   3.620   7.156 -0.4918 -0.1982  0.3059
14763SOL     OW47434   5.305   7.318   0.027  0.2287 -0.1241 -0.2379
14763SOL    HW147435   5.372   7.260  -0.008 -0.3399 -1.2295  0.4447
14763SOL    HW247436   5.346   7.358   0.104 -0.0810 -1.2924  0.5611
14764SOL     OW47437   3.144   3.262   1.404 -0.5704  0.0497 -0.0388
14764SOL    HW147438   3.185   3.187   1.360  2.1592  1.1954  0.3474
14764SOL    HW247439   3.100   3.309   1.333 -0.5697 -0.8082 -0.6359
14765SOL     OW47440   5.592   4.934   2.835  0.2069 -0.2134  0.3728
14765SOL    HW147441   5.659   5.000   2.815 -0.0646  0.3993  1.4194
14765SOL    HW247442   5.564   4.954   2.924 -0.4759 -1.2467  0.4080
14766SOL     OW47443   1.076   7.265   3.079  0.5053  0.0027  0.4823
14766SOL    HW147444   1.162   7.307   3.088 -1.2691  3.5781  2.7352
14766SOL    HW247445   1.054   7.236   3.167 -1.3141  0.8000  0.3246
14767SOL     OW47446   5.096   3.050   6.637  0.0909 -0.0140 -0.7130
14767SOL    HW147447   5.016   3.015   6.675  0.4054  1.3898  1.4049
14767SOL    HW247448   5.164   2.987   6.662  0.4213  1.2402  1.8668
14768SOL     OW47449   4.723   1.985   3.472  0.2225 -0.0002 -0.4283
14768SOL    HW147450   4.688   1.981   3.383  0.6347 -1.4577 -0.5495
14768SOL    HW247451   4.687   2.066   3.508 -0.1982  0.4566 -1.8097
14769SOL     OW47452   5.732   6.328   7.504  0.7444  0.1068 -0.3968
14769SOL    HW147453   5.759   6.409   7.461  0.8011  0.1466 -0.2883
14769SOL    HW247454   5.643   6.347   7.534  0.7726  0.1434 -0.3362
14770SOL     OW47455   4.033   4.726   7.666 -0.0429 -0.2073  0.0355
14770SOL    HW147456   3.988   4.684   7.593 -0.1653  1.1166 -0.6746
14770SOL    HW247457   4.069   4.807   7.630 -1.7982  1.5102  1.8422
14771SOL     OW47458   0.246   4.836   0.150  0.1848  0.0882  0.2124
14771SOL    HW147459   0.180   4.848   0.082 -1.2104  0.0297  1.5102
14771SOL    HW247460   0.317   4.896   0.126 -1.1631  1.5769 -0.2047
14772SOL     OW47461   1.970   2.288   6.183  0.0452  0.7634  0.4639
14772SOL    HW147462   1.891   2.273   6.235 -0.6324  0.5030 -0.6025
14772SOL    HW247463   1.965   2.223   6.112  2.3652 -0.8379  1.6111
14773SOL     OW47464   4.748   7.206   5.235  0.2527 -0.2113 -0.2026
14773SOL    HW147465   4.662   7.188   5.195 -0.4101  0.2763  0.9369
14773SOL    HW247466   4.737   7.182   5.327  1.2888  0.0262 -0.0042
14774SOL     OW47467   5.197   6.194   3.082  0.1900 -0.2073 -0.2374
14774SOL    HW147468   5.240   6.117   3.118  0.9055  0.7654  1.0823
14774SOL    HW247469   5.142   6.160   3.011  2.8666 -1.5483 -1.8399
14775SOL     OW47470   1.964   3.675   7.477  0.6052  0.3199  0.1083
14775SOL    HW147471   2.017   3.748   7.446  0.0375  0.1932 -1.2199
14775SOL    HW247472   1.980   3.605   7.413 -1.6132  0.4867 -0.6926
14776SOL     OW47473   7.826   6.656   4.913  0.1100 -0.3327  0.1550
14776SOL    HW147474   7.804   6.747   4.896 -0.1727 -0.3178  0.5716
14776SOL    HW247475   7.748   6.621   4.957  1.3506  0.0538  2.8636
14777SOL     OW47476   6.317   1.428   0.319  0.4466 -0.2514  0.1475
14777SOL    HW147477   6.398   1.386   0.346  0.3588 -2.5749 -2.7623
14777SOL    HW247478   6.248   1.369   0.351 -0.1700  1.3530  1.9956
14778SOL     OW47479   3.434   0.615   3.641 -0.6102  0.4687  0.0391
14778SOL    HW147480   3.344   0.627   3.610 -0.7014 -2.6107 -1.3397
14778SOL    HW247481   3.429   0.542   3.703  0.8215  0.8748  0.6894
14779SOL     OW47482   4.001   0.394   4.821 -1.1795 -0.1986 -0.7314
14779SOL    HW147483   4.036   0.356   4.741  2.3962  0.2364  0.4548
14779SOL    HW247484   4.022   0.487   4.815 -0.1862 -0.2704  0.9601
14780SOL     OW47485   4.047   0.439   5.078  0.1489 -0.0403 -0.2220
14780SOL    HW147486   4.011   0.422   4.991 -0.3359 -0.5762  0.0777
14780SOL    HW247487   4.101   0.363   5.098 -0.2194 -0.2006  0.1893
14781SOL     OW47488   5.807   6.727   0.527  0.7045 -0.1841 -0.2098
14781SOL    HW147489   5.763   6.733   0.442  0.8046  0.4374 -0.2202
14781SOL    HW247490   5.770   6.798   0.578 -1.1614 -1.9958  1.1308
14782SOL     OW47491   0.946   1.008   3.765  0.7788  0.4923 -0.5178
14782SOL    HW147492   0.976   0.950   3.834  0.3040 -0.0198 -0.7380
14782SOL    HW247493   0.934   1.093   3.808 -0.9075 -0.1509  0.3703
14783SOL     OW47494   0.786   7.190   5.586  0.0022  0.5438  0.1071
14783SOL    HW147495   0.832   7.120   5.633 -0.1017 -0.5770 -1.4115
14783SOL    HW247496   0.693   7.177   5.608 -0.2083 -0.8610 -1.4681
14784SOL     OW47497   2.440   3.066   6.120 -0.0084 -0.3502 -0.0942
14784SOL    HW147498   2.417   3.062   6.213 -0.8062 -0.3358 -0.2841
14784SOL    HW247499   2.522   3.017   6.113 -0.9046 -1.9584  0.3199
14785SOL     OW47500   3.486   7.693   7.388  0.8091 -0.2742  0.2956
14785SOL    HW147501   3.527   7.657   7.467  0.1152 -0.8272  0.4106
14785SOL    HW247502   3.398   7.719   7.415  0.8287  0.2422 -0.1176
14786SOL     OW47503   5.223   5.526   1.175 -0.5098 -0.1524  0.0687
14786SOL    HW147504   5.127   5.523   1.170 -0.5118  0.3871 -0.2787
14786SOL    HW247505   5.246   5.612   1.138  0.2548 -1.2262 -2.1181
14787SOL     OW47506   6.314   0.890   0.025 -0.2480  0.0682  0.8476
14787SOL    HW147507   6.308   0.899   0.120 -0.4064  1.2181  0.7456
14787SOL    HW247508   6.222   0.889  -0.005 -0.2518  3.0148  0.4736
14788SOL     OW47509   0.440   6.816   5.433  0.7105 -0.4770 -0.8242
14788SOL    HW147510   0.402   6.748   5.377 -0.8734 -0.3048 -0.0241
14788SOL    HW247511   0.447   6.774   5.519 -1.1926  0.5815 -0.0744
14789SOL     OW47512   4.168   4.453   0.611 -0.1311  0.1293 -0.2706
14789SOL    HW147513   4.193   4.469   0.520  0.0291 -0.4890 -0.3416
14789SOL    HW247514   4.235   4.393   0.644  1.6822  2.7563  1.2309
14790SOL     OW47515   1.848   4.642   7.712  0.4268 -0.2449  0.1302
14790SOL    HW147516   1.932   4.685   7.726  0.7311 -0.9317  0.4652
14790SOL    HW247517   1.786   4.694   7.764  0.6441  0.2380 -0.0833
14791SOL     OW47518   8.053   5.025   2.008 -0.3162  0.4216 -0.0868
14791SOL    HW147519   8.041   5.070   2.092 -0.7358  1.1110 -0.5028
14791SOL    HW247520   8.099   4.945   2.030  1.6375  1.6453  0.5528
14792SOL     OW47521   6.217   3.170   3.361  0.4037 -0.0454  0.1944
14792SOL    HW147522   6.189   3.227   3.290  2.1706  1.5709  0.7350
14792SOL    HW247523   6.236   3.086   3.318  0.9660  0.7458 -1.1696
14793SOL     OW47524   6.727   7.221   4.886  0.0483  0.3523 -0.6276
14793SOL    HW147525   6.746   7.178   4.969  2.4982  0.5267 -1.0051
14793SOL    HW247526   6.734   7.314   4.904  0.0813  0.4092 -0.9212
14794SOL     OW47527   6.076   0.711   2.576 -0.2634 -0.5469 -0.0721
14794SOL    HW147528   6.102   0.667   2.658 -2.0516 -2.0997 -0.2551
14794SOL    HW247529   6.074   0.640   2.511 -1.2380  0.1906 -0.8760
14795SOL     OW47530   6.835   2.313   2.877 -0.4261  0.2835  0.4923
14795SOL    HW147531   6.827   2.279   2.788 -1.0163  1.3367  0.1289
14795SOL    HW247532   6.929   2.324   2.891 -0.2550 -0.8824  0.4046
14796SOL     OW47533   4.411   4.469   3.163 -0.4404  0.4431  0.1297
14796SOL    HW147534   4.328   4.512   3.143 -0.2336  1.3579  1.1991
14796SOL    HW247535   4.386   4.377   3.178 -1.3140  0.7662  0.7711
14797SOL     OW47536   4.952   7.649   4.414 -0.4509 -0.7755  0.3759
14797SOL    HW147537   4.974   7.638   4.507  1.2524  1.4476  0.3030
14797SOL    HW247538   5.003   7.581   4.370 -1.4354 -1.9932  1.0339
14798SOL     OW47539   4.923   4.143   5.516  0.1359 -0.4379  0.0596
14798SOL    HW147540   4.982   4.215   5.496 -1.5602  1.3280  1.0706
14798SOL    HW247541   4.897   4.158   5.607 -0.3142 -2.3221  0.2935
14799SOL     OW47542   1.471   0.563   7.204  0.0821 -0.0541 -0.0905
14799SOL    HW147543   1.543   0.522   7.252 -1.0599 -1.2020  0.7118
14799SOL    HW247544   1.420   0.489   7.170 -0.9955  0.7201 -0.1985
14800SOL     OW47545   2.627   1.233   5.837  0.2127  0.7338  0.3073
14800SOL    HW147546   2.650   1.156   5.786  0.2393  1.1502 -0.3115
14800SOL    HW247547   2.694   1.237   5.906  2.1294  1.9714 -1.4998
14801SOL     OW47548   4.815   0.187   6.345 -0.0209 -0.0759  0.2196
14801SOL    HW147549   4.886   0.125   6.362 -0.8692 -1.0129  0.4118
14801SOL    HW247550   4.853   0.273   6.366  0.7848 -0.6385  1.1601
14802SOL     OW47551   2.364   0.714   1.701 -0.0805 -0.4614 -0.0748
14802SOL    HW147552   2.453   0.724   1.737  0.2924  0.6287 -1.2228
14802SOL    HW247553   2.368   0.757   1.616 -1.5809 -0.8951 -0.3890
14803SOL     OW47554   0.671   4.360   0.651 -0.1456  0.1223  0.1420
14803SOL    HW147555   0.667   4.364   0.747  0.9302 -0.0968  0.2074
14803SOL    HW247556   0.684   4.268   0.631 -1.1721  0.0481 -0.2688
14804SOL     OW47557   2.822   7.455   0.715 -0.0563  0.0284 -0.8044
14804SOL    HW147558   2.821   7.416   0.628  0.0485  2.0684 -1.7761
14804SOL    HW247559   2.904   7.426   0.753 -1.0311 -2.5905 -0.5054
14805SOL     OW47560   6.117   4.492   4.825 -0.4382 -0.1197  0.0971
14805SOL    HW147561   6.140   4.452   4.741  0.2162  2.2740 -0.9180
14805SOL    HW247562   6.027   4.462   4.841 -1.0059  0.3077 -2.0418
14806SOL     OW47563   4.112   6.662   6.369  0.1169  0.2300 -0.7281
14806SOL    HW147564   4.052   6.706   6.429  0.4867  2.2792 -1.7693
14806SOL    HW247565   4.055   6.624   6.302 -0.1289  0.6593 -0.7671
14807SOL     OW47566   5.721   0.613   0.847 -0.0639  0.1567 -0.0340
14807SOL    HW147567   5.709   0.638   0.939 -2.6171 -0.1777 -0.2151
14807SOL    HW247568   5.711   0.518   0.846  1.6749 -0.0648 -0.4739
14808SOL     OW47569   2.189   3.130   2.821 -0.3164  0.3313  0.2536
14808SOL    HW147570   2.133   3.074   2.875 -2.3166  2.1540  0.2091
14808SOL    HW247571   2.209   3.205   2.876  0.5407  0.6025 -0.4006
14809SOL     OW47572   5.042   4.995   7.045  0.1728 -0.1487 -0.7689
14809SOL    HW147573   4.989   4.916   7.053  0.0975  0.0306  0.9224
14809SOL    HW247574   4.980   5.065   7.025  0.0967 -0.3296 -1.1652
14810SOL     OW47575   4.575   5.365   7.176  0.2591 -0.1174  0.1764
14810SOL    HW147576   4.482   5.344   7.189  0.0175  0.2880 -0.7730
14810SOL    HW247577   4.575   5.425   7.101  1.2485  0.2951  0.4966
14811SOL     OW47578   2.696   3.612   4.367  0.4181  0.5503  0.4529
14811SOL    HW147579   2.637   3.566   4.427  0.3902 -0.1913 -0.1184
14811SOL    HW247580   2.772   3.633   4.420  0.3499 -0.0093  0.7804
14812SOL     OW47581   4.921   0.357   2.630 -0.3412  0.3261  0.0244
14812SOL    HW147582   4.942   0.289   2.694  2.0941  0.3244 -0.6965
14812SOL    HW247583   4.872   0.423   2.680 -0.8800 -0.9292  1.2142
14813SOL     OW47584   1.112   4.813   5.673 -0.2263 -0.4612  0.0816
14813SOL    HW147585   1.075   4.745   5.728  1.0927 -1.3174 -0.0500
14813SOL    HW247586   1.206   4.796   5.673 -0.1513 -0.4680 -2.3486
14814SOL     OW47587   1.520   4.077   5.576 -0.1899 -0.5573  0.4546
14814SOL    HW147588   1.586   4.117   5.633  1.4964 -2.3490 -0.1074
14814SOL    HW247589   1.461   4.031   5.635  0.7303 -1.2468  0.8729
14815SOL     OW47590   2.406   1.179   1.140  0.0167 -0.1267  0.0754
14815SOL    HW147591   2.461   1.143   1.210  0.9027 -0.4623 -0.7783
14815SOL    HW247592   2.468   1.209   1.074 -0.8224 -0.1741 -0.7432
14816SOL     OW47593   4.984   0.858   1.707 -0.2216 -0.3835  0.2528
14816SOL    HW147594   4.949   0.917   1.640 -0.7289 -1.1743 -0.1978
14816SOL    HW247595   4.942   0.774   1.689  0.8243 -1.0018  0.6055
14817SOL     OW47596   6.120   5.751   3.605  0.1059 -0.1917 -0.5293
14817SOL    HW147597   6.079   5.834   3.629 -0.7247 -1.0373  1.1248
14817SOL    HW247598   6.173   5.727   3.681 -0.3732 -1.6160 -0.6134
14818SOL     OW47599   2.894   7.040   6.764  0.5817  0.3207 -0.2218
14818SOL    HW147600   2.892   6.955   6.807  1.9881  0.7160  0.6824
14818SOL    HW247601   2.892   7.020   6.670  0.2642 -0.6759 -0.0077
14819SOL     OW47602   0.308   6.987   0.071  0.0819 -0.3323 -0.3718
14819SOL    HW147603   0.310   6.903   0.118 -1.0513 -0.2759 -0.1981
14819SOL    HW247604   0.314   6.963  -0.021 -0.8340 -0.6455 -0.3552
14820SOL     OW47605   4.713   0.781   3.708  0.1160 -0.1302  0.3084
14820SOL    HW147606   4.729   0.873   3.729  1.5908 -0.4883  0.8941
14820SOL    HW247607   4.783   0.758   3.648 -1.4774 -0.3429 -1.5699
14821SOL     OW47608   8.002   1.341   0.944  0.1614 -0.2305 -0.1588
14821SOL    HW147609   7.993   1.287   1.023 -0.4822 -2.1083 -1.4546
14821SOL    HW247610   7.960   1.424   0.967 -0.6806 -1.0054  1.2222
14822SOL     OW47611   2.017   2.049   4.341 -0.3499  0.0159 -0.0078
14822SOL    HW147612   2.029   1.971   4.287  0.7462 -0.2131  0.5453
14822SOL    HW247613   2.057   2.120   4.291  2.3835 -0.5142  1.2441
14823SOL     OW47614   2.940   0.015   6.791 -0.0381  0.7304 -0.1894
14823SOL    HW147615   2.940  -0.079   6.808  0.9731  0.2772 -2.4136
14823SOL    HW247616   3.031   0.042   6.806 -0.4954  1.5782  1.3116
14824SOL     OW47617   4.236   5.158   3.367 -0.0259 -0.2123 -0.1963
14824SOL    HW147618   4.243   5.253   3.362 -0.7025 -0.1094  0.5374
14824SOL    HW247619   4.241   5.139   3.461  1.8353 -1.0572 -0.4333
14825SOL     OW47620   7.034   6.575   5.447 -0.2112  0.8661  0.3976
14825SOL    HW147621   6.965   6.508   5.441  0.2662  0.3102  1.0309
14825SOL    HW247622   6.986   6.658   5.451 -0.8133  0.5718 -0.3909
14826SOL     OW47623   2.118   1.411   2.417 -0.0195 -0.3943  0.6121
14826SOL    HW147624   2.128   1.366   2.333 -1.5648 -0.1066  0.2360
14826SOL    HW247625   2.121   1.504   2.396  0.2284 -0.3207  0.9637
14827SOL     OW47626   1.737   4.283   4.148 -0.2345 -0.2340 -0.4420
14827SOL    HW147627   1.744   4.217   4.217 -0.8858  1.7782  1.6753
14827SOL    HW247628   1.643   4.295   4.136 -0.1244  0.5357 -0.5605
14828SOL     OW47629   5.204   3.639   6.012 -0.2041  0.1284  0.4827
14828SOL    HW147630   5.279   3.693   5.985  1.7546 -1.1874  2.8132
14828SOL    HW247631   5.239   3.550   6.012 -2.0675 -0.6292  0.8144
14829SOL     OW47632   5.139   6.141   1.315 -0.5380  0.1043 -0.0884
14829SOL    HW147633   5.131   6.158   1.221  0.6366  0.4116 -0.1490
14829SOL    HW247634   5.134   6.046   1.323  1.4867 -0.1084 -0.7296
14830SOL     OW47635   6.460   3.089   7.926  0.1427 -0.1703  0.0884
14830SOL    HW147636   6.487   3.152   7.993  1.3893 -0.3208 -0.2383
14830SOL    HW247637   6.484   3.131   7.843 -1.3001 -0.0255 -0.2819
14831SOL     OW47638   2.836   7.208   2.989 -0.4619 -0.0094  0.1890
14831SOL    HW147639   2.888   7.148   2.936  1.3143  1.6294 -0.0340
14831SOL    HW247640   2.798   7.153   3.057 -1.2582 -1.8497 -1.6037
14832SOL     OW47641   3.161   3.344   6.305  0.0660  0.0893  0.4754
14832SOL    HW147642   3.090   3.280   6.311  2.0732 -2.4297 -0.7944
14832SOL    HW247643   3.119   3.423   6.269 -2.1923 -1.0360  0.4490
14833SOL     OW47644   7.989   3.152   5.562 -0.5121  0.1499 -0.8301
14833SOL    HW147645   7.946   3.122   5.643  0.9186 -2.3185 -0.8856
14833SOL    HW247646   7.978   3.079   5.501 -0.0872  1.2870 -2.3318
14834SOL     OW47647   5.038   5.963   6.213  0.4538 -0.6167 -0.2077
14834SOL    HW147648   5.031   5.963   6.309 -1.5820 -1.0605 -0.2935
14834SOL    HW247649   5.129   5.939   6.195  1.0522  0.1372  1.6032
14835SOL     OW47650   3.647   1.313   6.727  0.0891  0.3431 -0.2758
14835SOL    HW147651   3.680   1.236   6.772  0.8185  0.4681 -0.5834
14835SOL    HW247652   3.721   1.374   6.726 -0.7868  1.4865  0.9358
14836SOL     OW47653   4.555   6.122   2.564  0.3744 -0.7902 -0.6202
14836SOL    HW147654   4.472   6.075   2.568 -0.2057  0.1002 -1.5740
14836SOL    HW247655   4.605   6.075   2.497  0.0309 -0.4523 -1.1316
14837SOL     OW47656   7.703   1.932   4.335  0.4453 -0.1114 -0.3709
14837SOL    HW147657   7.618   1.962   4.367  0.0436 -2.1149  0.5820
14837SOL    HW247658   7.762   2.005   4.351 -0.5805  0.3855  1.3540
14838SOL     OW47659   7.739   0.083   2.767  0.1215 -0.0572  0.3982
14838SOL    HW147660   7.661   0.110   2.719  0.1273  1.8415  1.3528
14838SOL    HW247661   7.709   0.069   2.857  0.7138 -0.1576  0.5842
14839SOL     OW47662   6.816   6.416   2.230  0.3006 -0.0252 -0.0179
14839SOL    HW147663   6.762   6.338   2.239 -1.2228  1.0265  0.3756
14839SOL    HW247664   6.796   6.449   2.142  0.8055  0.0335 -0.1186
14840SOL     OW47665   3.565   2.091   6.093  0.2128 -0.0742 -0.3250
14840SOL    HW147666   3.504   2.033   6.047  0.9442 -1.0769 -0.0677
14840SOL    HW247667   3.598   2.150   6.025 -1.5367  0.9502 -0.3389
14841SOL     OW47668   2.710   3.629   6.542  0.0001  0.0239 -0.0382
14841SOL    HW147669   2.802   3.607   6.526  0.0205 -0.2534  0.4313
14841SOL    HW247670   2.711   3.723   6.561 -0.0180  0.3368 -1.5206
14842SOL     OW47671   3.588   3.845   7.426 -0.7187 -0.0135  0.2522
14842SOL    HW147672   3.633   3.801   7.499  0.2764  1.8204  0.8113
14842SOL    HW247673   3.499   3.858   7.457 -0.2628  0.8879  1.2427
14843SOL     OW47674   6.967   6.755   7.451  0.8014 -0.3043 -0.5252
14843SOL    HW147675   7.062   6.762   7.453  0.7272  1.6237 -1.3515
14843SOL    HW247676   6.946   6.691   7.519  2.6893 -1.0246 -0.5583
14844SOL     OW47677   1.267   5.930   2.153  0.0423 -0.2404 -0.1018
14844SOL    HW147678   1.250   5.973   2.069  1.7219 -0.7005 -0.6978
14844SOL    HW247679   1.248   5.838   2.137 -0.3486 -0.2266  0.2522
14845SOL     OW47680   7.346   6.546   1.950 -0.0504  0.3330  0.2327
14845SOL    HW147681   7.266   6.573   1.906 -0.6899  0.3498  1.3601
14845SOL    HW247682   7.415   6.599   1.911 -0.5332  0.0781 -0.9853
14846SOL     OW47683   4.195   0.057   4.101  0.1842 -0.0248 -0.1422
14846SOL    HW147684   4.197   0.136   4.154  1.0577  0.2415 -0.5663
14846SOL    HW247685   4.190   0.088   4.011 -1.2042 -0.4742 -0.2536
14847SOL     OW47686   2.870   1.983   3.504 -0.4799  0.2674 -0.0738
14847SOL    HW147687   2.956   1.943   3.494 -0.1929  1.1976 -1.7291
14847SOL    HW247688   2.821   1.953   3.427 -0.6443  2.0471 -0.7142
14848SOL     OW47689   3.973   0.970   2.624  0.2375  0.3433  0.1738
14848SOL    HW147690   3.930   0.981   2.540 -0.3900  0.1395  0.4572
14848SOL    HW247691   3.901   0.967   2.687  0.6297 -0.7083  0.5868
14849SOL     OW47692   6.658   1.926   5.079 -0.3707 -0.4738 -0.8599
14849SOL    HW147693   6.709   1.925   5.160 -1.2122 -0.9974 -0.3161
14849SOL    HW247694   6.619   2.013   5.076  1.3067  0.2962 -1.7932
14850SOL     OW47695   4.125   6.721   4.227  0.1503  0.3624 -0.0662
14850SOL    HW147696   4.041   6.685   4.255  0.1212  0.5357  0.0693
14850SOL    HW247697   4.112   6.744   4.135 -0.0308  0.6352  0.0269
14851SOL     OW47698   2.585   1.076   4.886  0.2914  0.0440 -0.0102
14851SOL    HW147699   2.499   1.047   4.855 -0.4035  0.2289  1.6418
14851SOL    HW247700   2.647   1.020   4.840 -0.7296 -0.3091 -1.0030
14852SOL     OW47701   3.570   5.339   4.234  0.0712  0.9106 -0.3767
14852SOL    HW147702   3.504   5.273   4.255 -0.0579  0.8215 -1.0564
14852SOL    HW247703   3.615   5.355   4.317 -1.3559  1.6090  0.2851
14853SOL     OW47704   4.287   4.939   0.978  0.7792 -0.1025 -0.2400
14853SOL    HW147705   4.206   4.948   1.027  0.7423 -3.4871  0.5927
14853SOL    HW247706   4.334   5.020   0.993 -1.1546  0.7390  1.7559
14854SOL     OW47707   2.255   2.265   1.463  0.4513  0.6907 -0.2605
14854SOL    HW147708   2.346   2.235   1.475 -0.0317 -0.1463  1.7262
14854SOL    HW247709   2.232   2.236   1.375  1.5439 -0.6668 -0.1422
14855SOL     OW47710   0.189   5.700   5.702  0.2117 -0.1487 -0.1258
14855SOL    HW147711   0.202   5.768   5.769  0.9304  0.1239 -0.5252
14855SOL    HW247712   0.266   5.708   5.646 -0.9170  0.3784 -1.6575
14856SOL     OW47713   1.545   2.294   0.149 -0.2783  0.3580 -0.2315
14856SOL    HW147714   1.479   2.308   0.217 -1.3528 -0.9024 -0.9626
14856SOL    HW247715   1.495   2.282   0.069  0.7945 -1.1324 -0.7265
14857SOL     OW47716   1.907   1.736   4.270  0.0951 -0.0853 -0.3904
14857SOL    HW147717   1.891   1.800   4.200  1.8204 -0.1571 -0.9063
14857SOL    HW247718   1.978   1.682   4.236  0.0630 -0.9654  0.8968
14858SOL     OW47719   7.762   5.947   1.574 -0.2004  0.1637  0.3423
14858SOL    HW147720   7.731   5.873   1.522  1.2086  0.3880 -0.9009
14858SOL    HW247721   7.694   6.014   1.563 -0.7068 -0.3721  0.1433
14859SOL     OW47722   3.415   0.844   1.144 -0.0809 -0.4800 -0.0656
14859SOL    HW147723   3.365   0.884   1.216 -0.4207  0.5006 -0.8243
14859SOL    HW247724   3.348   0.812   1.084  0.1967 -1.6965  0.2398
14860SOL     OW47725   7.975   6.943   5.989 -0.2158 -0.4420  0.1533
14860SOL    HW147726   8.025   6.871   6.027 -0.4715 -0.0321  1.2785
14860SOL    HW247727   7.930   6.904   5.914  0.1764 -1.2864  0.3524
14861SOL     OW47728   7.351   5.642   2.086  0.3577 -0.3540 -0.2617
14861SOL    HW147729   7.330   5.549   2.087  0.6169 -0.4317  1.2086
14861SOL    HW247730   7.446   5.645   2.071  0.5611 -0.4185  0.8758
14862SOL     OW47731   3.075   3.691   6.492  0.3551  0.1160 -0.0348
14862SOL    HW147732   3.170   3.690   6.482  0.4039 -1.0212  0.4025
14862SOL    HW247733   3.061   3.730   6.579  0.2689  2.6227 -1.0637
14863SOL     OW47734   1.225   4.603   2.656 -0.3422  0.1686 -0.3370
14863SOL    HW147735   1.140   4.646   2.668  0.0066  0.6231  0.5667
14863SOL    HW247736   1.252   4.631   2.568 -0.8716  0.4588 -0.4174
14864SOL     OW47737   6.335   0.431   4.161 -0.2195 -0.5186 -0.1206
14864SOL    HW147738   6.280   0.471   4.094  1.2291 -2.0245 -2.3447
14864SOL    HW247739   6.398   0.377   4.112  2.2826 -0.0741  2.3162
14865SOL     OW47740   0.709   4.497   7.246  0.4587 -0.6210 -0.0835
14865SOL    HW147741   0.731   4.517   7.337  2.5676 -1.3900 -0.3782
14865SOL    HW247742   0.646   4.425   7.253 -0.7126  0.4349  0.7650
14866SOL     OW47743   0.985   4.151   2.005  0.2921 -0.1675  0.2280
14866SOL    HW147744   0.919   4.166   1.937 -0.5313  0.4552  1.1347
14866SOL    HW247745   1.055   4.104   1.961 -0.9048 -1.1340 -0.7044
14867SOL     OW47746   1.246   2.514   2.093 -0.4154  0.3390  0.6375
14867SOL    HW147747   1.276   2.441   2.038 -0.3704  1.5437 -1.0227
14867SOL    HW247748   1.194   2.473   2.161 -0.8779 -1.2130 -0.5898
14868SOL     OW47749   1.493   4.049   6.374 -0.0323  0.4143  0.7096
14868SOL    HW147750   1.584   4.020   6.373 -0.1680 -0.0188  0.6766
14868SOL    HW247751   1.455   4.004   6.450  0.5808  3.1009  2.7840
14869SOL     OW47752   0.346   3.306   3.143  0.4363  0.0020 -0.6111
14869SOL    HW147753   0.296   3.266   3.071  1.1262 -1.7432 -0.1746
14869SOL    HW247754   0.438   3.295   3.117  0.6539  1.7281 -0.6534
14870SOL     OW47755   5.380   1.898   4.452 -0.2588 -0.2674 -0.3155
14870SOL    HW147756   5.333   1.830   4.404 -0.2290 -0.7401  0.3280
14870SOL    HW247757   5.358   1.883   4.544 -2.0490  1.9139 -0.2825
14871SOL     OW47758   1.916   3.580   0.707  0.0822 -0.0572 -0.0846
14871SOL    HW147759   1.860   3.650   0.675  0.3570  0.0910 -0.2435
14871SOL    HW247760   1.973   3.559   0.633  2.1012  1.6718  0.8815
14872SOL     OW47761   6.333   0.797   7.765  0.3639  0.4990  0.4078
14872SOL    HW147762   6.350   0.799   7.670  0.1254  0.7407  0.3713
14872SOL    HW247763   6.407   0.845   7.803  0.6346  0.1201  0.3724
14873SOL     OW47764   1.343   0.290   3.769  0.0636 -0.4164  0.7080
14873SOL    HW147765   1.366   0.323   3.856 -0.5503 -0.6997  0.9856
14873SOL    HW247766   1.427   0.270   3.728  0.3354 -1.1491  1.5867
14874SOL     OW47767   5.037   0.673   2.321  0.1114 -0.0453  0.1989
14874SOL    HW147768   4.958   0.672   2.266  0.5327 -1.2080 -0.4238
14874SOL    HW247769   5.012   0.721   2.399 -1.0865 -0.0096 -0.1948
14875SOL     OW47770   0.021   2.728   1.797 -0.2637  0.0534 -0.0746
14875SOL    HW147771   0.079   2.665   1.756 -1.3922 -0.7403 -0.4976
14875SOL    HW247772   0.064   2.813   1.784  0.9843 -0.5439  0.0013
14876SOL     OW47773   6.748   6.874   0.278 -0.6975 -0.3555 -0.1488
14876SOL    HW147774   6.815   6.940   0.296  1.1447 -1.7227 -1.5843
14876SOL    HW247775   6.684   6.918   0.223  2.0388 -0.3479 -3.7003
14877SOL     OW47776   1.060   0.225   6.523  0.3363  0.2309  0.2910
14877SOL    HW147777   1.147   0.235   6.485  0.4284 -0.2937  0.3447
14877SOL    HW247778   1.065   0.142   6.572 -0.8652 -1.0684 -1.6418
14878SOL     OW47779   2.046   5.543   3.641 -0.2576  0.0111 -0.8057
14878SOL    HW147780   2.081   5.520   3.727 -1.7825  0.2347 -0.0922
14878SOL    HW247781   1.968   5.487   3.631 -0.7385  0.7932 -1.5446
14879SOL     OW47782   6.880   1.774   4.728 -0.0599 -0.0765 -0.3979
14879SOL    HW147783   6.847   1.862   4.706 -1.2419 -0.9034 -2.1386
14879SOL    HW247784   6.819   1.743   4.795 -1.1313 -0.4680 -1.5158
14880SOL     OW47785   1.852   5.322   6.709 -0.4686  0.2238  0.4823
14880SOL    HW147786   1.811   5.362   6.786 -0.8400  0.9779 -0.0968
14880SOL    HW247787   1.940   5.298   6.738 -0.3818  1.0927  0.9589
14881SOL     OW47788   6.866   4.396   7.077 -0.2116 -0.5226  0.6634
14881SOL    HW147789   6.889   4.321   7.022  0.6886 -0.9217  1.5626
14881SOL    HW247790   6.929   4.464   7.051 -0.6375 -0.2696  0.2787
14882SOL     OW47791   0.479   4.728   7.169 -0.3838  0.0952  0.0364
14882SOL    HW147792   0.531   4.675   7.110 -0.1950 -1.6721  1.7201
14882SOL    HW247793   0.388   4.704   7.149 -0.4954  1.3942 -1.2231
14883SOL     OW47794   0.436   6.627   5.676 -0.5307 -0.3081  0.1437
14883SOL    HW147795   0.356   6.596   5.718  0.4180 -2.7929  0.2862
14883SOL    HW247796   0.479   6.548   5.643  0.7741  1.1507 -1.9703
14884SOL     OW47797   3.938   6.143   6.601 -0.1685 -0.4395  0.3796
14884SOL    HW147798   3.922   6.197   6.678 -0.7751 -0.5746  0.3519
14884SOL    HW247799   4.019   6.179   6.563 -1.1449  1.2049 -0.2717
14885SOL     OW47800   7.261   1.016   4.856  0.2418 -0.4628  0.6080
14885SOL    HW147801   7.309   1.000   4.937 -1.1480 -2.8156  1.0694
14885SOL    HW247802   7.281   0.940   4.801  0.0265  0.3865 -0.6932
14886SOL     OW47803   5.251   2.080   6.909  0.0986  0.1101 -0.5980
14886SOL    HW147804   5.322   2.143   6.918  0.0544 -0.1146  2.0829
14886SOL    HW247805   5.172   2.130   6.929  0.0773 -0.7146  1.6972
14887SOL     OW47806   6.588   5.280   7.046  0.0837 -0.0086  0.0216
14887SOL    HW147807   6.674   5.302   7.082  0.4552 -2.0993  0.5584
14887SOL    HW247808   6.555   5.211   7.104 -1.4595 -0.0253 -0.8345
14888SOL     OW47809   3.662   7.486   1.086 -0.4026  0.3977 -0.4973
14888SOL    HW147810   3.576   7.449   1.070 -1.0414  2.2462 -1.7302
14888SOL    HW247811   3.722   7.432   1.033 -0.5043 -1.8031  1.4879
14889SOL     OW47812   0.904   0.588   6.158 -0.6570  0.4387  0.1882
14889SOL    HW147813   0.855   0.638   6.222  0.7020  0.8977  0.9075
14889SOL    HW247814   0.996   0.605   6.178 -0.1329 -1.7516  0.0035
14890SOL     OW47815   7.232   4.851   4.538 -0.0511  0.1168 -0.5719
14890SOL    HW147816   7.242   4.947   4.539  3.5768 -0.0776 -2.3452
14890SOL    HW247817   7.281   4.823   4.462 -0.6234 -3.2595  0.1549
14891SOL     OW47818   2.749   5.326   0.712  0.3862 -0.4200 -0.2012
14891SOL    HW147819   2.778   5.411   0.678  0.6903 -0.7238 -0.7087
14891SOL    HW247820   2.829   5.281   0.736  0.2423 -0.6694 -0.1827
14892SOL     OW47821   7.480   5.028   5.434  0.4632  0.3547 -0.0983
14892SOL    HW147822   7.539   4.981   5.493  0.2697 -0.3464 -0.4581
14892SOL    HW247823   7.521   5.113   5.422  0.3110  0.6759  1.3749
14893SOL     OW47824   0.085   0.208   6.655 -0.6443 -0.2770  0.4082
14893SOL    HW147825   0.083   0.298   6.688 -0.2259  0.1938 -0.7965
14893SOL    HW247826   0.146   0.211   6.581 -1.1911 -1.3889 -0.1114
14894SOL     OW47827   0.319   7.316   1.689  0.1917  0.0612 -0.4919
14894SOL    HW147828   0.355   7.233   1.659 -1.5525 -1.5603  1.5675
14894SOL    HW247829   0.274   7.352   1.613  2.7662  0.2558 -2.0171
14895SOL     OW47830   7.118   4.369   1.138 -0.0360  0.1868  0.0606
14895SOL    HW147831   7.101   4.454   1.179 -0.3407  0.5218 -0.7266
14895SOL    HW247832   7.040   4.353   1.085 -0.9591 -1.6198  1.8505
14896SOL     OW47833   5.695   5.027   5.258 -0.2796  0.1884 -0.3029
14896SOL    HW147834   5.752   5.049   5.331 -1.2047  0.3879  0.3711
14896SOL    HW247835   5.632   5.099   5.253 -1.2882 -0.6480 -0.1825
14897SOL     OW47836   0.264   1.194   6.306 -0.0680 -0.2522 -0.7316
14897SOL    HW147837   0.248   1.256   6.377 -0.2756  0.6484 -1.5465
14897SOL    HW247838   0.220   1.113   6.335 -0.6813  0.2860 -0.1182
14898SOL     OW47839   2.800   6.222   2.998  0.0481 -0.7361  0.2993
14898SOL    HW147840   2.780   6.247   3.088  1.1839 -0.1687  0.4135
14898SOL    HW247841   2.756   6.288   2.945 -2.4216 -2.2567  0.2917
14899SOL     OW47842   2.659   2.803   6.945 -0.2566  0.2017 -0.4495
14899SOL    HW147843   2.716   2.870   6.984 -0.5816 -0.0013  0.3883
14899SOL    HW247844   2.689   2.721   6.984  0.4661 -0.2287 -1.8456
14900SOL     OW47845   7.368   1.684   7.423  0.3361 -0.4410  0.8218
14900SOL    HW147846   7.360   1.719   7.511 -0.9365  0.6780  0.2909
14900SOL    HW247847   7.283   1.700   7.382  0.5092 -1.9723 -0.2539
14901SOL     OW47848   1.123   1.252   3.962 -0.1619 -0.0077 -0.0055
14901SOL    HW147849   1.161   1.340   3.970 -0.2494 -0.0869  1.4283
14901SOL    HW247850   1.036   1.267   3.926  0.0553  0.4290 -0.3662
14902SOL     OW47851   5.637   2.713   6.323 -0.1802 -0.2259  0.2092
14902SOL    HW147852   5.635   2.631   6.274 -2.0729 -0.8859  1.2907
14902SOL    HW247853   5.546   2.732   6.343  0.2612  1.8562  0.5069
14903SOL     OW47854   5.174   3.101   1.190 -0.4386 -0.4132 -0.1062
14903SOL    HW147855   5.251   3.100   1.247 -1.1445  0.1061  0.8876
14903SOL    HW247856   5.197   3.160   1.119  0.4725 -1.0944 -0.4016
14904SOL     OW47857   2.061   1.475   4.444  0.7435  0.0705  0.0338
14904SOL    HW147858   1.985   1.500   4.496  1.1801  0.8555  0.3011
14904SOL    HW247859   2.024   1.430   4.368  0.0640 -0.3429  0.5953
14905SOL     OW47860   0.980   0.462   2.057  0.0553 -0.6750  0.1652
14905SOL    HW147861   0.993   0.368   2.073  0.3012 -0.9196 -1.3170
14905SOL    HW247862   0.990   0.472   1.963  1.1501  1.0469  0.4204
14906SOL     OW47863   1.966   0.071   6.029  0.1334  0.6466 -0.1687
14906SOL    HW147864   1.906   0.044   5.959  0.9681  2.1272 -1.4998
14906SOL    HW247865   1.985  -0.011   6.076 -1.5056 -0.1532 -0.7968
14907SOL     OW47866   0.217   2.207   5.072  0.2372 -0.0041 -0.3033
14907SOL    HW147867   0.252   2.278   5.124 -0.8317  0.2326  0.1339
14907SOL    HW247868   0.274   2.202   4.996  0.7743  0.8118  0.0296
14908SOL     OW47869   7.437   4.016   2.883 -0.3204 -0.2143 -0.0173
14908SOL    HW147870   7.375   3.972   2.941  0.9973 -2.3397 -0.0930
14908SOL    HW247871   7.392   4.019   2.798 -0.7693 -0.6557  0.1982
14909SOL     OW47872   3.578   5.099   7.977 -0.1303 -0.0722 -0.2791
14909SOL    HW147873   3.642   5.030   7.962 -0.3798 -0.0538 -1.5262
14909SOL    HW247874   3.599   5.133   8.064  0.8642 -0.7800 -0.2283
14910SOL     OW47875   1.561   1.641   7.751 -0.0109  0.5973 -0.1277
14910SOL    HW147876   1.639   1.675   7.795 -0.9330  0.5329  1.6285
14910SOL    HW247877   1.567   1.674   7.661  2.0256  0.5872 -0.0385
14911SOL     OW47878   4.244   2.160   3.690  0.3018  0.3636 -0.1288
14911SOL    HW147879   4.310   2.225   3.713 -1.2096  1.5828  1.0207
14911SOL    HW247880   4.268   2.130   3.603  1.3119  2.1206 -0.4919
14912SOL     OW47881   7.313   7.753   2.928 -0.0079  0.4329  0.1239
14912SOL    HW147882   7.306   7.699   2.849 -1.0982 -0.8767  1.0773
14912SOL    HW247883   7.286   7.841   2.899  1.9050  0.5832 -1.4762
14913SOL     OW47884   6.216   6.074   3.523 -0.5550  0.1981  0.4289
14913SOL    HW147885   6.309   6.069   3.546  0.0708  2.5478 -1.2341
14913SOL    HW247886   6.171   6.073   3.608  1.0520  0.1080  1.3213
14914SOL     OW47887   3.252   7.287   7.902  0.5588 -0.5642 -0.2940
14914SOL    HW147888   3.249   7.368   7.851 -0.8304 -1.0444 -1.0266
14914SOL    HW247889   3.239   7.217   7.838  0.2661 -1.2820  0.5149
14915SOL     OW47890   0.318   0.026   6.901 -0.6740 -0.4590 -0.1892
14915SOL    HW147891   0.369   0.085   6.845 -2.3177  0.8430 -0.3895
14915SOL    HW247892   0.270  -0.029   6.839 -2.4478  0.9433 -0.1572
14916SOL     OW47893   7.576   7.773   2.379 -0.0988 -0.2605 -0.8376
14916SOL    HW147894   7.497   7.776   2.325 -1.3297  0.6271  0.9037
14916SOL    HW247895   7.557   7.832   2.452  0.7128 -2.7053  1.5469
14917SOL     OW47896   0.049   3.703   3.389  0.1028 -0.3395 -0.2510
14917SOL    HW147897  -0.003   3.731   3.313 -0.4137 -1.0783 -0.1789
14917SOL    HW247898   0.003   3.626   3.422 -0.3122  0.6164  1.5029
14918SOL     OW47899   5.262   5.586   4.429  0.0312 -0.1309  0.1587
14918SOL    HW147900   5.308   5.537   4.496  0.1867 -0.5309 -0.2341
14918SOL    HW247901   5.186   5.532   4.408 -1.8396  1.4798  2.2970
14919SOL     OW47902   2.179   6.851   1.282 -0.0249  0.0728  0.0818
14919SOL    HW147903   2.255   6.818   1.330 -0.3671  0.3146  0.8055
14919SOL    HW247904   2.189   6.816   1.193  0.1639 -1.1149  0.5613
14920SOL     OW47905   1.507   6.287   2.873 -0.1052  0.0547 -0.6964
14920SOL    HW147906   1.475   6.330   2.794 -0.6604 -0.1617 -0.5947
14920SOL    HW247907   1.457   6.205   2.877 -0.2603  0.1817  0.0157
14921SOL     OW47908   4.255   3.525   0.675  0.0269 -0.0802 -0.2135
14921SOL    HW147909   4.252   3.600   0.616 -1.3991 -0.3699 -0.5529
14921SOL    HW247910   4.348   3.516   0.698  0.0863  2.4900  0.8118
14922SOL     OW47911   5.410   7.268   6.097 -0.3052 -0.0736  0.0020
14922SOL    HW147912   5.484   7.270   6.158 -1.0418 -0.2252  0.9329
14922SOL    HW247913   5.380   7.178   6.100 -0.9600  0.1480  0.1702
14923SOL     OW47914   6.211   4.672   6.246 -0.3500  0.1320 -0.0031
14923SOL    HW147915   6.137   4.660   6.186 -0.6582  0.0455  0.3917
14923SOL    HW247916   6.177   4.730   6.314 -0.7195 -1.5814  1.3234
14924SOL     OW47917   3.609   2.297   0.709 -0.0184  0.3835 -0.4371
14924SOL    HW147918   3.691   2.346   0.710  0.4212 -0.2467  2.3658
14924SOL    HW247919   3.545   2.358   0.672  1.1422  1.8855 -0.0582
14925SOL     OW47920   2.616   4.271   1.770  0.3751  0.1394 -0.0972
14925SOL    HW147921   2.555   4.197   1.768  0.4836  0.0278  0.5245
14925SOL    HW247922   2.591   4.320   1.848 -0.0592  1.0763 -0.8161
14926SOL     OW47923   4.069   2.558   6.814 -0.7778 -0.2509  0.0135
14926SOL    HW147924   4.022   2.480   6.846  0.7718 -0.9524  0.6816
14926SOL    HW247925   4.079   2.543   6.720  0.5171 -1.4452  0.3193
14927SOL     OW47926   5.090   0.654   5.533  0.0238  0.0458  0.3598
14927SOL    HW147927   5.165   0.709   5.556 -0.7168  1.0247  0.4939
14927SOL    HW247928   5.013   0.706   5.558 -0.7068 -0.8815  0.1068
14928SOL     OW47929   6.785   4.979   6.725  0.1394 -0.1424  0.3486
14928SOL    HW147930   6.832   4.924   6.662  1.2780 -1.0415  1.9028
14928SOL    HW247931   6.731   4.918   6.775 -0.6925  0.5449  0.3182
14929SOL     OW47932   7.309   0.621   0.191 -0.2290 -0.0343  0.2187
14929SOL    HW147933   7.393   0.639   0.235 -0.5846 -0.7202  1.2051
14929SOL    HW247934   7.247   0.681   0.233 -0.3797 -0.0071 -0.0401
14930SOL     OW47935   5.818   4.425   0.646  0.6226 -0.5188 -0.2418
14930SOL    HW147936   5.823   4.370   0.567 -1.2261 -0.0596 -0.7348
14930SOL    HW247937   5.878   4.497   0.628  1.4261 -1.2477 -0.5338
14931SOL     OW47938   7.476   6.241   4.993 -0.8833 -0.1705 -0.2928
14931SOL    HW147939   7.460   6.200   4.908 -0.6780 -0.2702 -0.2839
14931SOL    HW247940   7.497   6.169   5.052  1.8641  0.0773 -0.8053
14932SOL     OW47941   6.228   4.819   4.444 -0.1642  0.0479 -0.1010
14932SOL    HW147942   6.155   4.781   4.493  1.2171 -1.4960  0.8709
14932SOL    HW247943   6.301   4.760   4.461  1.0885  1.0181 -1.8120
14933SOL     OW47944   0.145   2.490   1.673 -0.7122  0.1489 -0.2373
14933SOL    HW147945   0.120   2.529   1.589 -0.5534  0.7748  0.0013
14933SOL    HW247946   0.078   2.424   1.689 -1.8864  1.3732  0.0858
14934SOL     OW47947   2.434   4.224   6.067 -0.6732  0.0793 -0.3356
14934SOL    HW147948   2.494   4.298   6.075  0.7487 -0.9006 -1.5162
14934SOL    HW247949   2.347   4.265   6.060  0.1520  1.7143 -1.7953
14935SOL     OW47950   7.703   0.339   2.164  0.4950 -0.2385 -0.0403
14935SOL    HW147951   7.623   0.308   2.123 -0.9254 -0.2051  2.4852
14935SOL    HW247952   7.696   0.434   2.161  1.7103 -0.1607 -2.0134
14936SOL     OW47953   6.864   5.730   0.557 -0.6395  0.0412  0.1980
14936SOL    HW147954   6.941   5.692   0.514  0.6953  2.2210  0.5234
14936SOL    HW247955   6.821   5.782   0.489  0.7482  2.4389  1.0370
14937SOL     OW47956   6.900   1.453   7.298 -0.3261 -0.2889 -0.1408
14937SOL    HW147957   6.837   1.525   7.299  0.2135  0.1840  0.9159
14937SOL    HW247958   6.848   1.377   7.272 -1.4772 -0.0045  1.2124
14938SOL     OW47959   0.525   0.686   3.520 -0.5282 -0.3744 -0.0251
14938SOL    HW147960   0.500   0.769   3.478  0.9908 -0.1511 -0.5593
14938SOL    HW247961   0.611   0.703   3.559 -0.9670 -1.2090  1.3870
14939SOL     OW47962   5.869   2.041   4.630  0.5397 -0.2550  0.1264
14939SOL    HW147963   5.945   1.984   4.641  0.5140 -0.5125 -0.9339
14939SOL    HW247964   5.796   1.981   4.616  0.3050  0.0126  0.1915
14940SOL     OW47965   5.140   0.096   1.400  0.9868 -0.4405 -0.9383
14940SOL    HW147966   5.186   0.070   1.480 -1.3369 -2.5915 -0.1593
14940SOL    HW247967   5.093   0.175   1.424  0.2968 -1.0767 -0.1233
14941SOL     OW47968   3.154   1.933   6.372  0.4373  0.1152  0.3628
14941SOL    HW147969   3.125   1.874   6.302 -0.6697 -1.7140  2.2575
14941SOL    HW247970   3.080   1.991   6.387  0.2003 -0.2979  0.8197
14942SOL     OW47971   0.059   0.529   3.304 -0.4647  0.0370  1.1423
14942SOL    HW147972  -0.031   0.500   3.291 -0.2160 -0.7494  1.1297
14942SOL    HW247973   0.062   0.560   3.394 -1.3477  2.3586  0.4605
14943SOL     OW47974   4.209   3.717   5.263  0.0253  0.0820  0.2478
14943SOL    HW147975   4.224   3.639   5.316  0.9182 -1.4269 -2.0986
14943SOL    HW247976   4.262   3.703   5.184 -0.2386  2.8109 -0.5057
14944SOL     OW47977   7.186   6.564   0.705  0.6247 -0.4587 -0.2532
14944SOL    HW147978   7.233   6.582   0.624 -0.8882  0.5117 -0.9396
14944SOL    HW247979   7.246   6.594   0.774  1.9632 -1.3800 -0.9566
14945SOL     OW47980   1.801   2.644   6.144  0.5169 -0.1633  0.0511
14945SOL    HW147981   1.748   2.600   6.077  0.2863  0.4532 -0.1826
14945SOL    HW247982   1.890   2.615   6.128  0.4757  0.0560 -0.5899
14946SOL     OW47983   0.263   4.405   7.470  0.1174  0.4283 -0.0049
14946SOL    HW147984   0.324   4.355   7.416 -2.4045 -0.3421 -2.3825
14946SOL    HW247985   0.307   4.489   7.484  2.3093 -0.6088 -0.3096
14947SOL     OW47986   1.096   3.232   0.427  0.6795 -0.3215  0.1000
14947SOL    HW147987   1.164   3.294   0.402  0.1814  1.3051  2.3772
14947SOL    HW247988   1.106   3.223   0.522 -0.0605 -2.8423  0.0140
14948SOL     OW47989   3.487   6.153   6.309 -0.0151 -0.2105  0.2974
14948SOL    HW147990   3.494   6.245   6.283  1.4288 -0.7095 -1.3093
14948SOL    HW247991   3.532   6.148   6.393  1.1346  0.3597 -0.2530
14949SOL     OW47992   5.024   3.876   1.412  0.2637  0.1012  0.5193
14949SOL    HW147993   4.939   3.832   1.421  0.2472 -0.2975 -1.2345
14949SOL    HW247994   5.065   3.867   1.498 -0.3483 -2.0804  0.6235
14950SOL     OW47995   5.086   0.138   4.610 -0.0637 -0.1435 -0.1932
14950SOL    HW147996   5.009   0.110   4.560  0.2008 -1.2709  0.0201
14950SOL    HW247997   5.100   0.069   4.675  1.0281  0.1365 -0.1094
14951SOL     OW47998   3.291   2.009   4.769 -0.7155  0.0021 -1.1197
14951SOL    HW147999   3.386   2.003   4.776 -0.6569  1.7920  0.2391
14951SOL    HW248000   3.274   2.010   4.675  0.3629 -2.8448 -1.4480
14952SOL     OW48001   0.844   6.061   5.087 -0.1171  0.3437 -1.0164
14952SOL    HW148002   0.829   5.972   5.056 -1.6897  0.1546  0.1808
14952SOL    HW248003   0.922   6.090   5.038 -0.2000 -1.2752 -2.2103
14953SOL     OW48004   4.037   2.651   2.854  0.4135  0.6112 -0.6031
14953SOL    HW148005   4.087   2.619   2.929  2.6881 -0.2580 -2.3648
14953SOL    HW248006   3.951   2.609   2.862  0.8864 -0.1116  1.0438
14954SOL     OW48007   5.257   0.104   2.857  0.2896  0.1004 -0.2873
14954SOL    HW148008   5.196   0.125   2.928  0.5237 -0.6533  0.1551
14954SOL    HW248009   5.337   0.076   2.902  1.5540  2.5572 -0.8314
14955SOL     OW48010   1.399   0.505   7.694 -0.3035  0.3319 -0.2878
14955SOL    HW148011   1.344   0.493   7.772 -0.5440  1.8947 -0.1831
14955SOL    HW248012   1.488   0.491   7.725 -0.3866  1.0803  0.3178
14956SOL     OW48013   7.964   3.086   6.397  0.3544 -0.4187  0.3328
14956SOL    HW148014   8.059   3.098   6.402  0.0907  1.5025  1.3488
14956SOL    HW248015   7.942   3.111   6.307  0.8941 -1.9714 -0.2819
14957SOL     OW48016   7.860   5.534   7.999  0.6435  0.2093  0.9490
14957SOL    HW148017   7.899   5.497   7.920  1.9416  0.6515  1.3615
14957SOL    HW248018   7.861   5.629   7.984  0.5738  0.2739  1.3422
14958SOL     OW48019   4.791   7.550   0.158 -0.3134  0.2545 -0.5234
14958SOL    HW148020   4.700   7.540   0.187 -0.1599 -0.2061 -0.1886
14958SOL    HW248021   4.794   7.502   0.074  0.3505 -2.5021  0.9415
14959SOL     OW48022   5.917   4.312   7.621  0.0842  0.0649 -0.1836
14959SOL    HW148023   5.898   4.404   7.638  0.8426  0.1577  0.2241
14959SOL    HW248024   5.916   4.271   7.708 -0.3232 -0.3303 -0.3695
14960SOL     OW48025   7.906   6.597   0.366 -0.1081  0.0282 -0.0644
14960SOL    HW148026   7.827   6.558   0.403  0.4076  0.0066  1.0643
14960SOL    HW248027   7.877   6.639   0.286 -1.4675  0.9077  0.8446
14961SOL     OW48028   3.061   2.060   2.732  0.1065 -0.1669 -0.6139
14961SOL    HW148029   3.030   2.104   2.811 -2.2917 -1.2614 -0.8396
14961SOL    HW248030   3.062   2.129   2.665  1.9576  0.7189  0.2393
14962SOL     OW48031   4.005   5.026   1.494 -0.4012 -0.0844  0.3025
14962SOL    HW148032   4.063   4.962   1.536  1.0988  0.8434 -0.2868
14962SOL    HW248033   3.996   5.096   1.559 -0.2484  0.1284  0.0915
14963SOL     OW48034   2.746   2.731   7.378  0.8680  1.1255  1.1407
14963SOL    HW148035   2.709   2.656   7.423 -1.0246  1.1719 -0.2326
14963SOL    HW248036   2.806   2.694   7.313 -0.2695  0.7573  0.2813
14964SOL     OW48037   4.021   5.803   1.304 -0.0511  0.7079  0.3424
14964SOL    HW148038   3.969   5.866   1.254  0.4314 -0.0616 -1.1817
14964SOL    HW248039   4.105   5.799   1.258  1.1984  1.4712  2.3973
14965SOL     OW48040   4.723   3.388   5.474 -1.2858 -0.0999  0.1736
14965SOL    HW148041   4.700   3.347   5.557  2.1499 -1.4552  0.6285
14965SOL    HW248042   4.722   3.482   5.492 -1.7210 -0.3216  1.4063
14966SOL     OW48043   5.086   4.792   0.035 -0.0020  0.6189  0.8888
14966SOL    HW148044   5.073   4.885   0.053 -1.2191  0.5457  0.4970
14966SOL    HW248045   5.181   4.781   0.031  0.1731  2.2166 -0.9056
14967SOL     OW48046   7.508   3.318   2.449  0.4560  0.4271 -0.1269
14967SOL    HW148047   7.566   3.377   2.401  1.5808 -0.3906  0.1874
14967SOL    HW248048   7.563   3.242   2.470 -0.9565 -0.7816 -0.5763
14968SOL     OW48049   3.753   5.744   3.570 -0.2234  0.4695  0.1366
14968SOL    HW148050   3.801   5.792   3.637 -0.0055 -1.3972  1.4143
14968SOL    HW248051   3.822   5.711   3.511 -0.4031  1.9897 -0.9752
14969SOL     OW48052   1.973   0.642   4.985  0.2024  0.2037 -0.3876
14969SOL    HW148053   1.969   0.569   5.046 -0.3467  0.9234  0.4619
14969SOL    HW248054   2.021   0.710   5.031  0.2623  0.5682 -0.9681
14970SOL     OW48055   5.489   1.072   2.396  0.0605  0.0021 -0.0001
14970SOL    HW148056   5.554   1.074   2.325 -1.2701  0.7571 -1.2501
14970SOL    HW248057   5.414   1.027   2.358 -0.6029  0.2391  1.0085
14971SOL     OW48058   0.204   7.407   2.984 -0.3400  0.2294 -0.0662
14971SOL    HW148059   0.166   7.490   3.013 -0.5426 -0.1551  0.7937
14971SOL    HW248060   0.257   7.377   3.058  0.5865  0.1032 -0.7583
14972SOL     OW48061   5.463   8.094   5.264 -0.1094 -0.1949  0.1294
14972SOL    HW148062   5.434   8.073   5.176 -0.3473  1.2893 -0.1826
14972SOL    HW248063   5.556   8.116   5.254 -0.2359  0.3819  0.1567
14973SOL     OW48064   3.814   8.075   4.466 -0.2733  0.6461  0.0790
14973SOL    HW148065   3.798   8.070   4.561 -1.3468  0.4654 -0.0975
14973SOL    HW248066   3.876   8.147   4.456  0.7592 -0.0734  1.0120
14974SOL     OW48067   7.396   2.672   3.377  0.5725  0.2571 -0.9141
14974SOL    HW148068   7.351   2.602   3.424 -0.5057  2.5200  1.7020
14974SOL    HW248069   7.401   2.640   3.287 -3.6985 -1.4530 -0.7861
14975SOL     OW48070   3.405   0.456   5.684 -0.4554  0.0618  0.3707
14975SOL    HW148071   3.343   0.528   5.673  0.3769  0.6989 -0.4599
14975SOL    HW248072   3.435   0.438   5.594  1.6872  0.8501  0.8623
14976SOL     OW48073   3.279   5.270   2.738  0.0807 -0.1376  0.5935
14976SOL    HW148074   3.342   5.241   2.804  1.3324  0.5345 -0.2725
14976SOL    HW248075   3.214   5.201   2.735  1.3942 -1.4202  0.6918
14977SOL     OW48076   7.330   1.991   4.216 -0.3489 -0.0623  0.0376
14977SOL    HW148077   7.288   2.067   4.175 -0.6855 -0.4170 -0.2883
14977SOL    HW248078   7.374   2.026   4.292  0.7771  0.7119 -0.9384
14978SOL     OW48079   3.237   1.025   0.193  0.1153 -0.1954 -0.1202
14978SOL    HW148080   3.330   1.036   0.213 -0.4215  1.0171  1.9405
14978SOL    HW248081   3.207   1.112   0.168 -0.9526  0.0263  1.7140
14979SOL     OW48082   7.763   1.420   0.334 -0.2111 -0.0050 -0.2538
14979SOL    HW148083   7.818   1.408   0.256 -1.5320  0.2021 -1.2515
14979SOL    HW248084   7.754   1.332   0.370 -0.2196 -0.2265 -0.7807
14980SOL     OW48085   5.434   5.712   2.939 -0.2137  0.0401 -0.1185
14980SOL    HW148086   5.460   5.663   2.861  1.4013  1.4488 -0.5322
14980SOL    HW248087   5.362   5.662   2.976  0.8331 -2.1955 -0.9293
14981SOL     OW48088   0.370   7.075   1.611 -0.3789  0.0413  0.2881
14981SOL    HW148089   0.311   7.052   1.539  0.5702 -0.8607 -0.2236
14981SOL    HW248090   0.410   6.992   1.636  0.1078  0.5229  1.1486
14982SOL     OW48091   4.861   1.019   7.833 -0.1129  0.6346  0.2873
14982SOL    HW148092   4.837   1.016   7.740  0.4122 -1.2603  0.1770
14982SOL    HW248093   4.792   0.971   7.878 -0.0673  1.0598  0.8223
14983SOL     OW48094   7.442   7.560   5.606 -0.0858  0.6736 -0.4834
14983SOL    HW148095   7.350   7.544   5.627  0.6592 -1.2087  1.7876
14983SOL    HW248096   7.478   7.602   5.684  1.0866  1.0612 -1.1955
14984SOL     OW48097   0.909   7.886   0.178  0.0450  0.3264  0.3286
14984SOL    HW148098   0.899   7.832   0.099 -0.0525  0.4949  0.2227
14984SOL    HW248099   0.839   7.952   0.170  0.8524  1.1511 -0.1065
14985SOL     OW48100   3.751   4.805   1.809  0.0064  0.3690 -0.2683
14985SOL    HW148101   3.845   4.813   1.826  0.4741 -0.0391 -2.3760
14985SOL    HW248102   3.711   4.811   1.896  2.0649 -1.0559  0.8771
14986SOL     OW48103   1.597   1.946   6.206 -0.3514 -0.0523  0.1809
14986SOL    HW148104   1.512   1.936   6.164 -1.5165 -1.4700  2.6252
14986SOL    HW248105   1.632   1.857   6.212  0.9743  0.4233 -0.0894
14987SOL     OW48106   0.404   1.736   1.705 -0.2971  0.8751  0.2276
14987SOL    HW148107   0.333   1.681   1.670  0.4808 -0.1482  0.2325
14987SOL    HW248108   0.432   1.789   1.630  0.9936 -0.9225 -0.6344
14988SOL     OW48109   7.503   6.378   7.617 -0.4543 -0.6012 -0.2387
14988SOL    HW148110   7.483   6.471   7.624 -0.3691 -0.5873 -0.1752
14988SOL    HW248111   7.481   6.355   7.527  0.4438 -0.2994 -0.5535
14989SOL     OW48112   1.721   7.271   7.725 -0.6502 -0.0612 -0.0657
14989SOL    HW148113   1.793   7.257   7.663  0.8657  1.4153  1.2722
14989SOL    HW248114   1.649   7.218   7.690  1.2217 -2.0396 -1.1740
14990SOL     OW48115   5.589   6.601   6.096 -0.3109 -0.0889  0.3330
14990SOL    HW148116   5.632   6.588   6.180  0.7463  1.6179  0.0961
14990SOL    HW248117   5.621   6.686   6.065  0.0752 -1.0829 -2.2400
14991SOL     OW48118   3.406   7.425   2.701  0.2038 -0.4355  0.1072
14991SOL    HW148119   3.424   7.506   2.654  1.1612 -0.6154  0.1434
14991SOL    HW248120   3.426   7.446   2.792 -2.5209  0.1905  0.6528
14992SOL     OW48121   2.796   4.103   6.317  0.4434 -0.0213 -0.2124
14992SOL    HW148122   2.781   4.102   6.222 -1.9250 -1.1845  0.0815
14992SOL    HW248123   2.847   4.025   6.334 -1.3479 -1.2921 -0.3276
14993SOL     OW48124   1.610   2.726   5.142 -0.2371 -0.2267 -0.3273
14993SOL    HW148125   1.552   2.786   5.190  0.1554  0.9629 -1.3063
14993SOL    HW248126   1.628   2.770   5.060  4.4636  0.9225  1.0330
14994SOL     OW48127   0.928   4.132   0.440  0.4554 -0.2210  0.6114
14994SOL    HW148128   0.845   4.156   0.399 -0.2836 -0.2146  2.0413
14994SOL    HW248129   0.981   4.212   0.434  0.6720 -0.4486 -0.9738
14995SOL     OW48130   6.990   3.292   2.089  0.4425 -0.7234  0.0978
14995SOL    HW148131   6.912   3.249   2.055  1.0759 -1.7152 -0.1435
14995SOL    HW248132   6.963   3.382   2.106 -0.8880 -1.1797  0.5029
14996SOL     OW48133   4.219   4.827   2.080 -0.2364  0.0053  0.7203
14996SOL    HW148134   4.158   4.791   2.144 -1.4069 -0.0241 -0.3884
14996SOL    HW248135   4.175   4.904   2.045  0.1722 -0.2587 -0.3969
14997SOL     OW48136   5.362   7.802   5.850 -0.2440  0.5039 -1.1304
14997SOL    HW148137   5.307   7.879   5.835  0.9892  1.3155 -1.6619
14997SOL    HW248138   5.389   7.775   5.763  1.2777  0.9631 -0.8345
14998SOL     OW48139   2.707   1.704   0.953 -0.5959  0.4378 -0.2220
14998SOL    HW148140   2.754   1.761   0.891 -1.7927  1.0823 -0.5711
14998SOL    HW248141   2.679   1.630   0.900  1.1297 -0.6215  0.2746
14999SOL     OW48142   6.139   7.418   2.506  0.1849 -0.6599 -0.1540
14999SOL    HW148143   6.108   7.496   2.552  1.1614  0.2449 -0.9878
14999SOL    HW248144   6.127   7.438   2.414  0.6190 -1.4257 -0.3889
15000SOL     OW48145   2.244   5.224   4.462 -0.1660 -0.1148  0.7200
15000SOL    HW148146   2.155   5.248   4.434 -0.2335  0.0645  1.0818
15000SOL    HW248147   2.234   5.138   4.502 -0.2228  0.0223  1.0016
15001SOL     OW48148   4.840   5.469   6.872  0.6037 -0.1441 -0.1837
15001SOL    HW148149   4.752   5.447   6.904  0.4332 -0.3771 -0.7885
15001SOL    HW248150   4.885   5.503   6.948  0.0439 -0.1984  0.1823
15002SOL     OW48151   3.800   3.737   0.045 -0.1589 -0.8399  0.0502
15002SOL    HW148152   3.708   3.753   0.065 -0.8970 -2.4769 -1.6909
15002SOL    HW248153   3.816   3.787  -0.036  1.0305  0.8269  1.2416
15003SOL     OW48154   1.990   1.175   1.155 -0.0779  0.6892  0.5664
15003SOL    HW148155   1.925   1.112   1.186  0.1135  0.4033  0.3898
15003SOL    HW248156   1.977   1.252   1.210  3.4051 -1.3141  4.7334
15004SOL     OW48157   1.111   0.306   5.193  0.3157 -0.1259 -0.3579
15004SOL    HW148158   1.041   0.250   5.158  1.1958 -1.2313 -0.4285
15004SOL    HW248159   1.067   0.367   5.252 -0.9220  0.3563 -1.7412
15005SOL     OW48160   7.749   3.834   1.501 -0.3282  0.1353 -0.4598
15005SOL    HW148161   7.760   3.912   1.446 -0.1701  0.3626 -0.1113
15005SOL    HW248162   7.739   3.762   1.439 -1.5517  0.5666 -0.8054
15006SOL     OW48163   7.063   6.016   2.239 -0.2058 -0.0740  0.8116
15006SOL    HW148164   7.067   6.102   2.198 -2.2803 -0.2508  0.1092
15006SOL    HW248165   7.098   5.956   2.173 -0.2449  0.0382  0.6899
15007SOL     OW48166   5.213   4.808   7.347  0.6058 -0.7217 -0.0590
15007SOL    HW148167   5.274   4.753   7.397 -0.4363 -1.9079 -0.0519
15007SOL    HW248168   5.127   4.770   7.364 -0.1435  0.8614 -0.1537
15008SOL     OW48169   6.366   2.268   3.004  0.3409  0.3372  0.5175
15008SOL    HW148170   6.409   2.186   3.027  0.7622  0.1912 -0.6904
15008SOL    HW248171   6.411   2.334   3.057  1.7665  0.1190 -0.3536
15009SOL     OW48172   3.743   6.876   0.423  0.7982 -0.0869  0.3258
15009SOL    HW148173   3.801   6.947   0.449  0.2983  0.4934 -0.1150
15009SOL    HW248174   3.691   6.857   0.501  1.3523 -0.3920  0.6267
15010SOL     OW48175   3.725   6.626   6.363  0.2967  0.0489 -0.6409
15010SOL    HW148176   3.794   6.606   6.299  0.3553 -0.7100 -0.3514
15010SOL    HW248177   3.716   6.721   6.359  1.7554  0.2319 -0.2881
15011SOL     OW48178   4.736   0.392   7.634 -0.3970  0.1531 -0.6522
15011SOL    HW148179   4.714   0.382   7.541 -0.3366 -1.5244 -0.5046
15011SOL    HW248180   4.741   0.487   7.647 -1.8800  0.4599 -2.0198
15012SOL     OW48181   7.320   0.806   4.701  0.2456  0.1738  0.5792
15012SOL    HW148182   7.394   0.750   4.723  0.7920  0.5515 -0.2336
15012SOL    HW248183   7.245   0.747   4.697  0.6164 -0.3169  0.8148
15013SOL     OW48184   3.249   5.563   0.766 -0.5246 -0.3252 -0.9332
15013SOL    HW148185   3.261   5.471   0.790  1.0109  0.6347  2.7271
15013SOL    HW248186   3.161   5.585   0.798 -0.0590 -0.0574  0.2230
15014SOL     OW48187   1.247   7.911   6.967  0.0831  0.2670 -0.3823
15014SOL    HW148188   1.229   7.916   6.874 -1.6176  1.6318 -0.0349
15014SOL    HW248189   1.192   7.839   6.999  1.1425 -0.6201 -0.5053
15015SOL     OW48190   4.074   1.117   5.090 -0.1384  0.3219  0.2603
15015SOL    HW148191   4.037   1.103   5.177 -0.0004  0.2117  0.3016
15015SOL    HW248192   4.157   1.161   5.106  0.0815 -0.0778  0.2052
15016SOL     OW48193   2.585   1.000   0.330  0.4510  0.3963 -0.1546
15016SOL    HW148194   2.570   1.077   0.275  0.8265 -0.3593 -1.3590
15016SOL    HW248195   2.675   0.974   0.310  0.5995  0.1057  0.8414
15017SOL     OW48196   2.686   3.285   2.795  0.2776  0.1494 -0.2002
15017SOL    HW148197   2.648   3.373   2.804 -1.1046 -0.3154 -1.1718
15017SOL    HW248198   2.668   3.242   2.878  0.8835  0.7504  0.2496
15018SOL     OW48199   0.544   7.820   6.932 -0.4990 -0.1189  0.4372
15018SOL    HW148200   0.496   7.826   6.849 -0.9508  1.8182  0.8085
15018SOL    HW248201   0.475   7.815   6.999 -0.2107  1.3106  0.8767
15019SOL     OW48202   5.332   2.076   4.240 -0.0089 -0.1693  0.2628
15019SOL    HW148203   5.333   2.005   4.305  0.1457 -0.6540 -0.2628
15019SOL    HW248204   5.341   2.156   4.292  0.5122 -0.5727  0.8034
15020SOL     OW48205   1.164   5.674   7.665  0.3583 -0.1251 -0.3606
15020SOL    HW148206   1.134   5.758   7.699 -0.0326 -0.8133  1.0791
15020SOL    HW248207   1.102   5.653   7.595  0.3816  0.7008 -0.6457
15021SOL     OW48208   6.167   3.739   6.781  0.1999  0.6919  0.1286
15021SOL    HW148209   6.082   3.695   6.791 -0.1289  1.1070 -0.6863
15021SOL    HW248210   6.169   3.803   6.851 -0.1142  0.6044  0.2225
15022SOL     OW48211   2.577   5.831   3.248 -0.0755  0.3128  0.6312
15022SOL    HW148212   2.517   5.757   3.255  2.2866 -1.7731  0.4170
15022SOL    HW248213   2.589   5.844   3.154  0.6447 -0.0345  0.6711
15023SOL     OW48214   6.740   1.784   1.091 -0.1890 -0.1880  0.2589
15023SOL    HW148215   6.660   1.756   1.134  0.6582 -1.3988  1.0938
15023SOL    HW248216   6.799   1.808   1.162 -0.2852  2.1957 -0.3720
15024SOL     OW48217   1.027   3.874   6.217  0.3292 -0.4060  0.2548
15024SOL    HW148218   1.089   3.827   6.274 -1.4268 -1.6228  1.2878
15024SOL    HW248219   1.018   3.818   6.140 -1.4459 -1.6716  1.3014
15025SOL     OW48220   7.404   4.203   5.271  0.5645  0.0121 -0.6840
15025SOL    HW148221   7.327   4.160   5.234  0.0676  0.3687 -0.0839
15025SOL    HW248222   7.448   4.135   5.322 -1.9920  0.8251  3.0600
15026SOL     OW48223   3.046   4.663   5.369 -0.4478 -0.2924  0.3510
15026SOL    HW148224   3.062   4.740   5.423  0.3328 -0.7997  0.8727
15026SOL    HW248225   3.073   4.589   5.425  0.2382 -0.8393 -0.6700
15027SOL     OW48226   7.443   4.199   2.292 -0.0668  0.2474 -0.0289
15027SOL    HW148227   7.494   4.230   2.216 -1.1692 -1.7576 -1.6888
15027SOL    HW248228   7.357   4.178   2.256 -0.1581 -2.2673  1.4267
15028SOL     OW48229   2.442   7.131   6.994 -0.5735  0.6642  0.0108
15028SOL    HW148230   2.428   7.056   6.937 -1.7438  0.6076  0.3349
15028SOL    HW248231   2.383   7.115   7.068 -3.1804  3.2834 -1.2667
15029SOL     OW48232   6.832   6.413   5.468  0.0713  0.3711  0.2360
15029SOL    HW148233   6.765   6.379   5.408  1.6511 -0.2887 -1.2434
15029SOL    HW248234   6.782   6.449   5.541 -1.8368 -2.9907  0.8202
15030SOL     OW48235   3.549   3.734   0.755 -0.3370 -0.2800 -0.3417
15030SOL    HW148236   3.588   3.821   0.764  0.6424 -0.7019 -0.3459
15030SOL    HW248237   3.591   3.698   0.677  0.0805 -1.1581  0.2758
15031SOL     OW48238   0.019   5.303   1.971  0.5334 -0.1210  0.5826
15031SOL    HW148239  -0.005   5.266   2.056  1.6522  0.7761  1.3187
15031SOL    HW248240   0.058   5.388   1.992  3.2609 -0.9639 -0.5722
15032SOL     OW48241   6.398   1.652   2.715 -0.5526 -0.4857  0.4923
15032SOL    HW148242   6.401   1.557   2.709 -3.6975 -0.6433 -0.6571
15032SOL    HW248243   6.336   1.679   2.647  0.1524  2.3971  0.8313
15033SOL     OW48244   3.801   4.347   3.482  0.0311 -0.4213  0.0190
15033SOL    HW148245   3.767   4.302   3.405  0.2816 -0.5647 -0.0100
15033SOL    HW248246   3.832   4.431   3.450  0.3520 -0.5759 -0.0799
15034SOL     OW48247   5.347   5.008   0.135  0.5152 -0.4308  0.1623
15034SOL    HW148248   5.345   4.923   0.179 -0.9365 -0.8537 -0.6511
15034SOL    HW248249   5.423   5.053   0.172 -0.0170 -1.1682  2.3281
15035SOL     OW48250   0.670   1.060   7.059 -0.0679  0.6342 -0.3840
15035SOL    HW148251   0.655   1.012   7.140 -2.0446  0.2221 -0.9458
15035SOL    HW248252   0.651   1.152   7.081 -0.0079  0.6065 -0.2236
15036SOL     OW48253   5.434   5.443   3.073  0.4000 -0.5628  0.8061
15036SOL    HW148254   5.356   5.492   3.047  1.1722  0.4427  0.3167
15036SOL    HW248255   5.436   5.368   3.013 -1.3772 -1.8481  2.2510
15037SOL     OW48256   0.153   7.314   6.141 -0.4898 -0.0813  0.0931
15037SOL    HW148257   0.241   7.279   6.126  0.1755  1.2808  0.6718
15037SOL    HW248258   0.104   7.239   6.175  0.8407 -0.5374  1.1170
15038SOL     OW48259   0.792   0.187   7.928  0.3253 -0.2138 -0.2052
15038SOL    HW148260   0.860   0.208   7.864 -1.2520 -1.3697 -2.3589
15038SOL    HW248261   0.773   0.095   7.914  0.2191 -0.6515  2.2968
15039SOL     OW48262   7.948   3.408   0.870 -0.0560 -0.0166  0.5193
15039SOL    HW148263   8.027   3.367   0.906 -0.8428 -0.5714  1.6787
15039SOL    HW248264   7.933   3.363   0.787  1.2926  0.6654 -0.1403
15040SOL     OW48265   2.577   6.884   0.379  0.1266  0.5872  0.2206
15040SOL    HW148266   2.493   6.923   0.401 -0.2014 -0.7129  1.4164
15040SOL    HW248267   2.562   6.840   0.295 -0.8281 -0.8343  1.0967
15041SOL     OW48268   7.037   5.850   4.442  0.9512  0.2921  0.4045
15041SOL    HW148269   6.955   5.807   4.467  0.3808  1.5985  0.8822
15041SOL    HW248270   7.066   5.804   4.363  0.5534 -1.1653  1.0800
15042SOL     OW48271   4.167   4.216   1.997  0.7640 -0.0807 -0.2488
15042SOL    HW148272   4.127   4.140   2.040  1.3064  1.5226  3.5392
15042SOL    HW248273   4.109   4.236   1.924 -2.5381 -0.9347  1.9109
15043SOL     OW48274   4.422   0.410   2.757 -0.0836 -0.1777 -0.0448
15043SOL    HW148275   4.339   0.442   2.792  0.5727  0.9192  0.5462
15043SOL    HW248276   4.462   0.486   2.715 -0.9771 -1.4443 -3.6312
15044SOL     OW48277   3.766   7.172   4.154 -0.4913  0.2954  0.1745
15044SOL    HW148278   3.727   7.166   4.067 -0.7872  1.3082  0.2144
15044SOL    HW248279   3.855   7.205   4.139 -0.1878 -0.5066  0.1907
15045SOL     OW48280   2.390   3.084   3.596  0.3419 -0.3114  0.2222
15045SOL    HW148281   2.318   3.020   3.602  1.8572 -1.9902  2.0277
15045SOL    HW248282   2.396   3.122   3.684  1.2344  0.2811 -0.0838
15046SOL     OW48283   4.752   0.155   6.093 -0.1820 -0.3659  0.2326
15046SOL    HW148284   4.763   0.162   6.188  1.3675  1.3997 -0.0201
15046SOL    HW248285   4.829   0.106   6.064  0.4455  0.8915 -0.2899
15047SOL     OW48286   0.036   7.645   3.006  0.2538 -0.5317  0.0656
15047SOL    HW148287   0.104   7.681   3.064 -0.3154  1.5155 -0.4662
15047SOL    HW248288   0.020   7.714   2.942 -3.2580 -0.3761  0.9291
15048SOL     OW48289   0.509   0.103   4.084  0.3097  0.0127  0.8867
15048SOL    HW148290   0.443   0.046   4.044 -1.1895  2.9348 -1.2395
15048SOL    HW248291   0.592   0.056   4.073 -0.9958 -2.4161  0.7818
15049SOL     OW48292   3.254   1.304   6.177  0.2472 -0.1561  0.8345
15049SOL    HW148293   3.180   1.249   6.203  1.9641 -3.0206  0.1054
15049SOL    HW248294   3.225   1.347   6.097 -0.0769 -2.8763 -0.6578
15050SOL     OW48295   0.911   8.059   5.394 -0.3721 -0.2494  0.1213
15050SOL    HW148296   0.827   8.072   5.349 -0.4408 -0.0337  0.3099
15050SOL    HW248297   0.936   8.146   5.424 -1.7873 -0.7179  3.0864
15051SOL     OW48298   0.995   1.938   3.804 -0.0636 -0.3637  0.2314
15051SOL    HW148299   1.089   1.947   3.819 -0.1029  4.1190 -0.6762
15051SOL    HW248300   0.988   1.882   3.727  1.8522 -0.7759  0.3084
15052SOL     OW48301   3.161   1.955   3.569  0.2623  0.4413  0.1913
15052SOL    HW148302   3.229   1.894   3.541  0.0069  0.1196  0.2653
15052SOL    HW248303   3.166   2.026   3.505 -0.4176 -0.3588 -0.8000
15053SOL     OW48304   1.248   1.944   7.331 -0.2416  0.5362  0.3261
15053SOL    HW148305   1.268   2.025   7.284 -0.9572  0.2940 -0.4120
15053SOL    HW248306   1.263   1.875   7.267 -0.0522  0.1057  0.8280
15054SOL     OW48307   1.130   7.057   0.071  0.3429 -0.4280 -0.1585
15054SOL    HW148308   1.137   6.962   0.057  3.0440 -0.1295 -1.4188
15054SOL    HW248309   1.204   7.094   0.024 -0.7648  2.3813  0.0967
15055SOL     OW48310   1.360   6.687   6.070  0.1111 -0.4458  0.5288
15055SOL    HW148311   1.339   6.593   6.076  1.5327 -0.7297  1.8341
15055SOL    HW248312   1.393   6.699   5.982  0.5451 -1.3365  0.5584
15056SOL     OW48313   3.146   7.963   4.433 -0.2250 -0.3268  0.1941
15056SOL    HW148314   3.082   7.926   4.494 -0.2667 -0.0742  0.3053
15056SOL    HW248315   3.173   7.889   4.379  1.1209 -0.9458  1.6388
15057SOL     OW48316   2.677   6.497   0.464 -0.1118 -0.1822 -0.4304
15057SOL    HW148317   2.662   6.586   0.498 -0.6962 -1.2839  2.4933
15057SOL    HW248318   2.755   6.467   0.511  1.2235 -0.6538 -2.7695
15058SOL     OW48319   4.301   5.873   7.574  0.7349 -0.8586 -0.2178
15058SOL    HW148320   4.329   5.790   7.535  2.2250 -0.7236  0.4686
15058SOL    HW248321   4.380   5.927   7.572 -0.0127  0.2698  0.0588
15059SOL     OW48322   4.370   3.575   7.254  0.0255  0.2816  0.1021
15059SOL    HW148323   4.375   3.614   7.341  0.5143 -0.6199  0.4972
15059SOL    HW248324   4.331   3.643   7.199  0.4917  1.1715  0.8390
15060SOL     OW48325   6.840   4.290   6.667 -0.6272  0.0629  0.0596
15060SOL    HW148326   6.755   4.254   6.642 -1.2667 -0.1849  2.3564
15060SOL    HW248327   6.821   4.380   6.693 -0.4327 -0.3413  1.6809
15061SOL     OW48328   8.050   5.333   0.531 -0.0354  0.3752  0.5616
15061SOL    HW148329   8.113   5.328   0.603  0.0304  2.0441  0.6585
15061SOL    HW248330   7.966   5.352   0.573  0.1199  2.0233  0.2046
15062SOL     OW48331   6.222   3.586   7.529 -0.0118  0.2830 -0.5331
15062SOL    HW148332   6.148   3.646   7.538 -0.1280  0.6002 -2.9480
15062SOL    HW248333   6.263   3.586   7.615 -2.2501  0.8356  0.6133
15063SOL     OW48334   4.212   1.974   1.409 -0.3579 -0.1200  0.4114
15063SOL    HW148335   4.265   2.028   1.468  0.5586  0.3560 -0.8206
15063SOL    HW248336   4.165   2.038   1.355 -0.0711 -0.5557 -0.3546
15064SOL     OW48337   2.668   6.194   0.983 -0.2197 -0.4460 -0.2521
15064SOL    HW148338   2.720   6.202   1.063 -0.2324 -1.2231 -0.1652
15064SOL    HW248339   2.726   6.227   0.914  0.0627 -0.4639 -0.0279
15065SOL     OW48340   0.765   2.007   6.345 -0.0262  0.2475 -0.5781
15065SOL    HW148341   0.753   2.095   6.311  0.8336  0.5220 -0.2215
15065SOL    HW248342   0.734   1.949   6.276 -0.3807  0.8265 -0.9083
15066SOL     OW48343   6.932   3.651   5.714  0.2054 -0.1187  0.0524
15066SOL    HW148344   6.953   3.595   5.640 -1.4551  0.5136 -0.9484
15066SOL    HW248345   6.987   3.729   5.703 -1.3014  0.7859 -1.6006
15067SOL     OW48346   2.268   0.445   2.949  0.8386  0.8689 -0.4249
15067SOL    HW148347   2.210   0.384   2.903  0.8973  1.2576 -1.0116
15067SOL    HW248348   2.222   0.529   2.946  0.0408  0.5782  1.6827
15068SOL     OW48349   0.984   6.364   0.379 -0.0125 -0.1644  0.2211
15068SOL    HW148350   0.947   6.333   0.296  0.7015  0.7216 -0.4395
15068SOL    HW248351   1.064   6.409   0.355  0.5727 -0.4927  1.4710
15069SOL     OW48352   3.050   3.843   2.913  0.7205  0.6109  0.1281
15069SOL    HW148353   3.101   3.898   2.971  0.1741  0.2825  0.9370
15069SOL    HW248354   2.960   3.849   2.946  0.4607  0.1329 -0.4550
15070SOL     OW48355   1.029   0.463   7.783  0.3357  0.1014  0.3138
15070SOL    HW148356   0.942   0.501   7.770 -0.0884 -0.7230  0.6657
15070SOL    HW248357   1.084   0.537   7.809 -0.1861  0.6835 -0.2150
15071SOL     OW48358   1.220   7.155   2.347  0.3217  0.8503  0.0092
15071SOL    HW148359   1.169   7.221   2.301  1.0596  1.3671 -0.0969
15071SOL    HW248360   1.296   7.140   2.291 -0.2502 -0.7201 -0.3815
15072SOL     OW48361   1.783   4.961   6.403 -0.0371  0.7849  0.1357
15072SOL    HW148362   1.705   4.934   6.354 -1.0249 -0.2755  2.1853
15072SOL    HW248363   1.837   4.882   6.407 -0.4130  0.5741  1.5228
15073SOL     OW48364   3.303   2.939   4.221  0.4074  0.0708 -0.5057
15073SOL    HW148365   3.370   2.872   4.207 -0.0452 -0.6528  0.6774
15073SOL    HW248366   3.230   2.892   4.261 -1.0437  0.7346 -2.1998
15074SOL     OW48367   4.117   0.327   5.524  0.5531 -0.2100  0.0853
15074SOL    HW148368   4.039   0.349   5.575  1.1335 -1.2059  1.4480
15074SOL    HW248369   4.152   0.412   5.497 -0.0559  0.3202  0.9034
15075SOL     OW48370   8.031   7.718   1.993  0.2776  0.6027  0.0325
15075SOL    HW148371   8.112   7.694   2.037  0.6388  0.7484 -0.5439
15075SOL    HW248372   8.029   7.814   1.997  0.7361  0.6673 -0.9980
15076SOL     OW48373   3.087   4.671   0.919  0.5393  0.3775 -0.0908
15076SOL    HW148374   3.168   4.657   0.869  0.4221 -0.1615 -0.1300
15076SOL    HW248375   3.047   4.584   0.925  0.6263  0.4017  1.0784
15077SOL     OW48376   3.791   6.088   4.520 -0.0206 -0.8513  0.0201
15077SOL    HW148377   3.739   6.008   4.512 -1.0334 -0.0248 -2.9129
15077SOL    HW248378   3.863   6.076   4.459 -0.8656  0.8961 -1.4118
15078SOL     OW48379   2.782   2.181   7.731 -0.3334  0.0755 -0.0224
15078SOL    HW148380   2.729   2.122   7.677 -1.9977  0.4272  1.1416
15078SOL    HW248381   2.796   2.258   7.675  1.0225 -0.9590 -1.1964
15079SOL     OW48382   5.903   5.917   1.129 -0.9333 -0.1542 -0.3841
15079SOL    HW148383   5.814   5.946   1.150 -0.5117  0.7901  0.1497
15079SOL    HW248384   5.956   5.996   1.135 -0.0586 -0.7021 -0.7362
15080SOL     OW48385   3.374   7.885   5.065 -0.5161  0.1584  0.3638
15080SOL    HW148386   3.343   7.824   4.999  1.4840  0.5684 -1.0309
15080SOL    HW248387   3.397   7.830   5.140 -1.7566 -0.4226  0.3354
15081SOL     OW48388   3.131   0.382   0.557  0.3696 -0.0933  0.5476
15081SOL    HW148389   3.092   0.296   0.540  0.8185 -0.0292 -1.0020
15081SOL    HW248390   3.056   0.439   0.576 -0.1536 -0.3755 -0.5549
15082SOL     OW48391   0.897   3.406   7.777 -0.0723  0.2892 -0.0953
15082SOL    HW148392   0.917   3.338   7.713 -0.2508  1.1398 -1.0824
15082SOL    HW248393   0.843   3.362   7.843 -0.6963 -0.3959 -1.0292
15083SOL     OW48394   5.496   2.070   2.766 -0.0707  0.0416  0.1860
15083SOL    HW148395   5.520   2.007   2.698  0.3006  2.0289 -1.6457
15083SOL    HW248396   5.403   2.086   2.753  0.4271  2.1247 -1.5140
15084SOL     OW48397   0.460   2.303   6.854  0.6501 -0.6767  0.0123
15084SOL    HW148398   0.553   2.309   6.833  0.3741  0.4338 -1.0229
15084SOL    HW248399   0.440   2.387   6.896  0.4716 -1.5947  1.8362
15085SOL     OW48400   6.211   7.295   7.367 -0.0236  0.2723  0.1510
15085SOL    HW148401   6.160   7.214   7.358 -0.8074  0.8167 -0.4062
15085SOL    HW248402   6.149   7.358   7.403 -0.5464  1.6835 -2.9152
15086SOL     OW48403   1.972   2.606   4.597  0.0995 -0.6686 -0.3741
15086SOL    HW148404   2.003   2.696   4.587 -0.0165 -0.4016  1.3310
15086SOL    HW248405   1.887   2.605   4.554  0.6823 -0.3382 -1.5729
15087SOL     OW48406   0.062   5.841   0.654 -0.0499  0.2075 -0.1789
15087SOL    HW148407   0.119   5.798   0.591 -0.2551  1.5573 -1.3570
15087SOL    HW248408   0.087   5.805   0.739  1.5347 -0.3013 -0.8263
15088SOL     OW48409   1.968   3.510   6.070  0.1652 -0.0143 -0.3143
15088SOL    HW148410   1.874   3.509   6.087  0.2719 -0.5694  0.3464
15088SOL    HW248411   1.989   3.601   6.051 -0.4383  0.1871 -0.0365
15089SOL     OW48412   4.851   1.480   2.041 -0.5820 -0.2153  0.2556
15089SOL    HW148413   4.801   1.548   2.086 -3.2607 -2.2056  0.5317
15089SOL    HW248414   4.871   1.518   1.955  1.3344  2.2430  1.6633
15090SOL     OW48415   3.194   7.665   0.097 -0.1098  0.1508  0.6525
15090SOL    HW148416   3.099   7.654   0.084  0.1106  0.3122 -1.6229
15090SOL    HW248417   3.214   7.616   0.176 -1.6757 -2.1653 -0.2924
15091SOL     OW48418   7.782   4.150   3.115 -0.1689 -0.6512  0.2207
15091SOL    HW148419   7.717   4.219   3.101  0.1830 -0.4213 -0.3376
15091SOL    HW248420   7.818   4.167   3.202  0.5888  0.4449 -0.2842
15092SOL     OW48421   0.238   3.373   6.484 -0.0513  0.3422 -0.2940
15092SOL    HW148422   0.248   3.418   6.568 -0.0114 -1.0892  0.4883
15092SOL    HW248423   0.322   3.387   6.439  0.4919 -0.1732  0.5456
15093SOL     OW48424   6.245   7.870   3.572 -0.2900  0.0794  0.7704
15093SOL    HW148425   6.280   7.903   3.489 -0.2417 -3.2859 -0.6877
15093SOL    HW248426   6.161   7.830   3.550 -1.0341  0.4485  2.6692
15094SOL     OW48427   1.298   5.914   5.349 -0.9490  0.1568 -0.1918
15094SOL    HW148428   1.369   5.910   5.285 -1.2145 -0.8873 -0.4371
15094SOL    HW248429   1.320   5.847   5.414 -1.7939 -0.2941 -0.3603
15095SOL     OW48430   3.986   6.392   1.023  0.2091  0.3736  0.2836
15095SOL    HW148431   3.979   6.432   1.109 -0.0465  0.9952 -0.0211
15095SOL    HW248432   4.054   6.442   0.978  1.2404 -0.7546  0.5541
15096SOL     OW48433   1.422   7.402   6.229 -0.1828 -0.6833 -0.0783
15096SOL    HW148434   1.345   7.458   6.220 -0.3311 -0.4538  2.1387
15096SOL    HW248435   1.386   7.313   6.236 -0.3178 -0.5576  1.1680
15097SOL     OW48436   1.257   3.938   4.982  0.0559  0.0546 -0.1721
15097SOL    HW148437   1.199   3.892   5.042  0.4049 -0.7123 -0.4087
15097SOL    HW248438   1.226   4.029   4.982 -1.3657 -0.4093 -0.5726
15098SOL     OW48439   1.890   1.946   3.043  0.0401  0.1573  0.0433
15098SOL    HW148440   1.963   2.006   3.029  1.2161 -1.4207 -1.0293
15098SOL    HW248441   1.920   1.863   3.006 -3.1407 -0.0128 -2.6500
15099SOL     OW48442   4.244   2.270   4.356  0.2283  0.0320  0.4367
15099SOL    HW148443   4.272   2.192   4.405 -0.7672 -0.6234 -0.0067
15099SOL    HW248444   4.293   2.266   4.275  0.7645  0.2996  0.7452
15100SOL     OW48445   2.511   1.768   2.968 -0.1200 -0.2676  0.0981
15100SOL    HW148446   2.583   1.815   3.009 -0.9116 -1.1974  2.7797
15100SOL    HW248447   2.472   1.831   2.907  0.3481  1.7174  1.7645
15101SOL     OW48448   1.694   5.410   7.438  0.7464 -0.2476  0.2327
15101SOL    HW148449   1.685   5.486   7.380  0.7464 -0.5260 -0.1347
15101SOL    HW248450   1.632   5.346   7.404  0.1304 -0.1052  1.0529
15102SOL     OW48451   6.679   1.555   3.302 -0.1446  0.5540 -0.3824
15102SOL    HW148452   6.604   1.530   3.249  0.2013  0.1645 -0.6962
15102SOL    HW248453   6.754   1.543   3.244  0.3459 -0.8699  0.5063
15103SOL     OW48454   2.666   3.885   0.341 -0.0237  0.8992 -0.0372
15103SOL    HW148455   2.621   3.816   0.391  3.5573 -1.7279 -0.0970
15103SOL    HW248456   2.654   3.861   0.250 -1.4507  2.2996 -0.2722
15104SOL     OW48457   7.942   1.230   0.708 -0.7651  0.3020 -0.2929
15104SOL    HW148458   7.967   1.138   0.700 -1.6958  0.0238 -0.1342
15104SOL    HW248459   8.000   1.265   0.776  2.1755  0.8295 -2.8586
15105SOL     OW48460   1.385   4.627   0.958 -0.2392  0.0161 -0.4701
15105SOL    HW148461   1.351   4.646   0.870 -1.2407  0.7129  0.0553
15105SOL    HW248462   1.452   4.694   0.971  1.6167 -1.5067 -1.6026
15106SOL     OW48463   0.435   5.817   6.092 -0.6215 -0.1371 -0.1975
15106SOL    HW148464   0.477   5.737   6.122  0.3133  0.6510  0.6795
15106SOL    HW248465   0.341   5.800   6.100 -0.4167 -0.6943  1.2327
15107SOL     OW48466   3.837   7.806   5.277 -0.4758 -0.2739 -0.5432
15107SOL    HW148467   3.779   7.874   5.312  1.0077  1.7357 -1.8017
15107SOL    HW248468   3.888   7.777   5.353 -1.5560 -0.4829  0.1333
15108SOL     OW48469   3.203   6.972   1.197  0.6732  0.0868  0.1406
15108SOL    HW148470   3.150   7.044   1.233 -0.7544 -0.8058 -0.1055
15108SOL    HW248471   3.141   6.921   1.145  1.9400 -0.6474 -0.6759
15109SOL     OW48472   1.461   0.923   7.372  0.0222 -0.0200 -0.2319
15109SOL    HW148473   1.395   0.859   7.345  1.2929 -1.5982  0.2972
15109SOL    HW248474   1.458   0.991   7.304 -1.9765 -0.1448 -0.3271
15110SOL     OW48475   5.875   1.358   7.752 -0.3405  0.2623  0.3568
15110SOL    HW148476   5.798   1.404   7.786  0.1489  0.7270  0.8647
15110SOL    HW248477   5.874   1.377   7.658 -0.1195  1.3822  0.5632
15111SOL     OW48478   7.820   1.156   1.492 -0.0750 -0.3165  0.5091
15111SOL    HW148479   7.751   1.108   1.539  1.2485 -2.0758  0.7443
15111SOL    HW248480   7.891   1.164   1.556  0.3121  0.6537 -0.0209
15112SOL     OW48481   2.649   2.965   3.556 -0.0197 -0.4018 -0.0678
15112SOL    HW148482   2.574   3.024   3.553 -0.1156 -0.4102  1.3800
15112SOL    HW248483   2.694   2.987   3.638  1.4975 -0.4864 -0.8367
15113SOL     OW48484   7.059   3.512   5.923  0.2591  0.1667 -0.6825
15113SOL    HW148485   7.018   3.533   5.840 -2.0934  2.0810  0.8291
15113SOL    HW248486   6.997   3.454   5.967  0.7450  0.3949  0.3497
15114SOL     OW48487   6.329   5.482   5.048 -0.0830  1.1119  0.2952
15114SOL    HW148488   6.364   5.435   4.972 -0.2871 -0.8672  1.3710
15114SOL    HW248489   6.373   5.567   5.046 -0.0298  1.1014 -1.9776
15115SOL     OW48490   6.013   2.228   0.413  0.1179  0.0371 -0.3326
15115SOL    HW148491   5.985   2.157   0.355  0.6403  1.0745 -1.9097
15115SOL    HW248492   6.108   2.227   0.409  0.1328  1.6165 -1.4426
15116SOL     OW48493   1.414   6.268   6.791 -0.1414  0.4794 -0.2030
15116SOL    HW148494   1.500   6.228   6.784 -1.4346 -2.5770 -0.3673
15116SOL    HW248495   1.385   6.279   6.701 -0.7336 -0.5806 -0.1637
15117SOL     OW48496   2.328   4.675   5.588 -0.0540 -0.4841  0.0235
15117SOL    HW148497   2.299   4.694   5.498  1.5450 -1.4105 -0.7260
15117SOL    HW248498   2.378   4.752   5.614 -2.7764  1.0378  1.2515
15118SOL     OW48499   0.253   0.479   7.210 -0.0287 -0.3866 -0.5083
15118SOL    HW148500   0.324   0.522   7.161  0.9034 -1.7161 -0.3857
15118SOL    HW248501   0.236   0.398   7.160  0.9358 -1.7794  1.2984
15119SOL     OW48502   0.436   6.178   5.871  0.3587  0.0766  0.6240
15119SOL    HW148503   0.435   6.159   5.965  1.6657  0.3977  0.7272
15119SOL    HW248504   0.526   6.207   5.854  0.5213 -1.2498 -0.9908
15120SOL     OW48505   6.297   5.265   1.940 -0.1030 -0.1931 -0.0890
15120SOL    HW148506   6.233   5.194   1.934  0.0312 -0.3247  0.0543
15120SOL    HW248507   6.312   5.290   1.849 -1.8965  1.2159 -0.0560
15121SOL     OW48508   7.408   5.996   3.037 -0.1114  0.0405 -0.3713
15121SOL    HW148509   7.454   6.029   2.959 -0.6932 -1.3664 -1.3586
15121SOL    HW248510   7.451   5.913   3.057  0.9136  0.9967  1.6806
15122SOL     OW48511   1.118   5.774   5.986  0.1260 -0.1409  0.0995
15122SOL    HW148512   1.077   5.843   5.935  0.2670  0.2569  0.5204
15122SOL    HW248513   1.155   5.818   6.062 -1.9501 -0.9692  1.7121
15123SOL     OW48514   6.064   7.078   7.769 -0.5320 -0.1880 -0.2277
15123SOL    HW148515   6.061   7.053   7.861  0.8668 -1.5015 -0.5139
15123SOL    HW248516   6.034   7.001   7.721  0.7731 -0.2772 -0.9627
15124SOL     OW48517   5.899   7.482   1.196 -0.1593  0.0952 -0.3593
15124SOL    HW148518   5.988   7.513   1.210 -0.7500  2.8284 -1.8008
15124SOL    HW248519   5.904   7.427   1.118  0.1071  1.4043 -1.2979
15125SOL     OW48520   5.588   5.139   8.045 -0.1764  0.0812 -0.1426
15125SOL    HW148521   5.609   5.056   8.086  1.1439  0.7606  0.6389
15125SOL    HW248522   5.594   5.204   8.116  2.7907  1.3730 -1.3779
15126SOL     OW48523   7.391   4.083   7.044 -0.2767  0.0278 -0.0428
15126SOL    HW148524   7.360   4.002   7.004 -1.1806  0.7910 -0.9659
15126SOL    HW248525   7.322   4.147   7.024  0.8528  1.2408 -0.1752
15127SOL     OW48526   6.405   1.167   4.962 -0.2530  0.3428  0.6081
15127SOL    HW148527   6.350   1.211   5.027 -0.7787 -0.3860  0.6608
15127SOL    HW248528   6.472   1.122   5.013 -2.1640 -2.4112  0.9118
15128SOL     OW48529   5.164   1.835   6.433 -0.2493 -0.1177 -0.0502
15128SOL    HW148530   5.223   1.873   6.498  2.9665 -0.3266 -2.5528
15128SOL    HW248531   5.109   1.774   6.482  2.1539 -0.4642  2.4578
15129SOL     OW48532   3.240   0.499   4.355 -0.0833 -0.4946  0.0519
15129SOL    HW148533   3.197   0.446   4.289 -1.6287  0.7775 -0.0279
15129SOL    HW248534   3.252   0.439   4.429 -2.3637 -0.8521  0.2096
15130SOL     OW48535   7.583   4.368   6.310 -0.1961  0.2253 -0.2816
15130SOL    HW148536   7.523   4.348   6.381 -0.0240  0.6842 -0.0068
15130SOL    HW248537   7.536   4.430   6.255 -0.1377  0.2519 -0.3015
15131SOL     OW48538   0.497   5.001   7.647  0.6153 -0.1179  0.1964
15131SOL    HW148539   0.431   5.038   7.588 -0.3525 -0.8792  0.7515
15131SOL    HW248540   0.531   5.076   7.696 -0.7510  0.1651  0.7681
15132SOL     OW48541   1.121   0.996   2.020  0.1405 -0.3384  0.4066
15132SOL    HW148542   1.082   1.045   1.947  2.1567  2.9442  1.3362
15132SOL    HW248543   1.076   0.912   2.019 -1.8789  0.6053 -2.8562
15133SOL     OW48544   1.422   3.888   7.413 -0.4641 -0.1842  0.4312
15133SOL    HW148545   1.429   3.947   7.488  0.0655  1.0211 -0.5452
15133SOL    HW248546   1.502   3.835   7.417 -0.5852 -0.3431  0.8786
15134SOL     OW48547   7.797   2.910   1.161 -0.9293 -0.3188 -0.1293
15134SOL    HW148548   7.829   2.965   1.089 -3.7070  1.6497 -0.0174
15134SOL    HW248549   7.858   2.926   1.233 -0.1150  0.4484 -0.9636
15135SOL     OW48550   6.517   1.549   1.724 -0.6480 -0.0942  0.2172
15135SOL    HW148551   6.490   1.557   1.816 -0.4158  0.4959  0.2399
15135SOL    HW248552   6.548   1.637   1.701 -0.7394 -0.2316 -0.4376
15136SOL     OW48553   5.061   7.591   2.702 -0.3424 -0.0780 -0.3897
15136SOL    HW148554   5.155   7.580   2.715  0.2299  0.0776 -3.6609
15136SOL    HW248555   5.021   7.525   2.759  1.6162  0.5568  1.9004
15137SOL     OW48556   2.935   1.543   1.701  0.7785 -0.0681  0.0411
15137SOL    HW148557   2.945   1.638   1.693  0.7814 -0.1529 -1.2585
15137SOL    HW248558   2.861   1.531   1.761  2.5304  0.6857  2.5078
15138SOL     OW48559   0.607   7.747   5.689 -0.0801 -0.1739 -0.4049
15138SOL    HW148560   0.606   7.764   5.783 -1.1263  0.3563 -0.4999
15138SOL    HW248561   0.692   7.781   5.660  0.4548 -0.7728  0.4079
15139SOL     OW48562   0.412   5.705   1.018 -0.5454 -0.1736 -0.1825
15139SOL    HW148563   0.405   5.742   0.930  0.8247  0.4902 -0.0343
15139SOL    HW248564   0.370   5.770   1.075 -1.3714 -0.5710 -0.3243
15140SOL     OW48565   0.489   2.242   5.921  0.1111  0.0953 -0.3972
15140SOL    HW148566   0.580   2.250   5.890  0.0028  1.6327 -0.3744
15140SOL    HW248567   0.467   2.329   5.953 -0.9448 -0.5937  0.8480
15141SOL     OW48568   6.447   3.715   6.142  0.1029  0.5346 -0.2393
15141SOL    HW148569   6.494   3.733   6.224 -0.9351  1.4855  0.1701
15141SOL    HW248570   6.357   3.742   6.160 -0.5570 -0.9843 -1.0999
15142SOL     OW48571   0.628   5.377   3.985 -0.2051  0.4096  0.3351
15142SOL    HW148572   0.548   5.412   3.946  0.0923 -0.4383 -1.0841
15142SOL    HW248573   0.608   5.286   4.004  0.4899  0.1445 -0.1946
15143SOL     OW48574   4.154   5.028   0.446  0.8446 -0.3353 -0.0260
15143SOL    HW148575   4.196   4.997   0.526 -1.6766 -0.2282  1.4361
15143SOL    HW248576   4.145   4.950   0.391 -0.9647 -1.2741  1.5172
15144SOL     OW48577   0.328   4.627   4.382 -0.0050 -0.1280  0.0658
15144SOL    HW148578   0.416   4.604   4.352 -0.3045 -0.1662 -0.8274
15144SOL    HW248579   0.280   4.544   4.384  0.0078 -0.1216  0.6437
15145SOL     OW48580   7.197   3.429   4.635 -0.1080  0.2039 -0.3053
15145SOL    HW148581   7.195   3.406   4.542  0.3435  0.6381 -0.4268
15145SOL    HW248582   7.117   3.390   4.671  1.0949 -2.4830 -0.2741
15146SOL     OW48583   1.705   2.031   0.196  0.2270 -0.5752 -0.8585
15146SOL    HW148584   1.674   2.027   0.286  0.4269  1.3946 -0.6566
15146SOL    HW248585   1.629   2.005   0.143 -0.1803 -0.7994 -0.1737
15147SOL     OW48586   6.172   1.154   2.741  0.2284  0.1656 -0.1989
15147SOL    HW148587   6.122   1.201   2.808  1.6209  1.0200  0.2657
15147SOL    HW248588   6.213   1.223   2.689  0.9340 -0.5156 -0.5646
15148SOL     OW48589   1.109   5.867   3.005 -0.3123  0.1272 -0.4794
15148SOL    HW148590   1.097   5.817   2.925 -0.7671 -3.0198  1.4078
15148SOL    HW248591   1.175   5.818   3.054 -0.5474  1.5632  1.3901
15149SOL     OW48592   7.020   3.719   0.502 -0.1878  0.7026 -0.8578
15149SOL    HW148593   7.033   3.783   0.433  0.0033  1.3487 -0.2390
15149SOL    HW248594   7.002   3.771   0.580  1.4245  0.0803 -0.0143
15150SOL     OW48595   5.652   5.799   0.886 -0.2309  0.1059 -0.0252
15150SOL    HW148596   5.620   5.821   0.974  2.0441  1.8100  0.4843
15150SOL    HW248597   5.659   5.704   0.885 -3.9728 -0.3319  0.1824
15151SOL     OW48598   1.445   1.590   1.778  0.5597 -0.3510  0.5144
15151SOL    HW148599   1.537   1.606   1.758  0.6263 -1.3273 -0.0215
15151SOL    HW248600   1.431   1.497   1.757  0.0268 -0.8465  2.7777
15152SOL     OW48601   4.114   7.586   4.497  0.0858  0.2459 -0.2588
15152SOL    HW148602   4.135   7.575   4.589 -0.5754 -0.4624 -0.1798
15152SOL    HW248603   4.117   7.681   4.483 -1.1004  0.4724  0.8153
15153SOL     OW48604   4.542   8.050   5.052 -0.4822 -0.5937  0.5685
15153SOL    HW148605   4.513   8.105   5.125 -0.8098  1.3027 -0.8935
15153SOL    HW248606   4.533   8.107   4.975  0.3137 -2.3497 -0.8851
15154SOL     OW48607   7.930   0.246   0.098  0.3379  0.0105  0.0359
15154SOL    HW148608   7.973   0.160   0.094  0.7922  0.2649 -1.2755
15154SOL    HW248609   7.956   0.283   0.182  0.8084 -0.7999  0.2566
15155SOL     OW48610   7.539   5.173   6.849 -0.1022  0.0021 -0.1356
15155SOL    HW148611   7.623   5.132   6.829 -1.2397 -1.9934 -1.2725
15155SOL    HW248612   7.544   5.197   6.941  0.5462 -3.2647  0.8110
15156SOL     OW48613   6.327   6.836   3.223  0.1339  0.6361  0.1063
15156SOL    HW148614   6.338   6.853   3.130  1.7252  3.3465  0.6954
15156SOL    HW248615   6.408   6.794   3.250 -0.2480  0.0260  0.3296
15157SOL     OW48616   3.853   0.269   2.327 -0.6511 -0.0668 -0.0413
15157SOL    HW148617   3.874   0.256   2.419 -0.8218 -1.5397 -0.1867
15157SOL    HW248618   3.917   0.216   2.279 -0.2056  1.1180 -0.8157
15158SOL     OW48619   5.275   1.335   1.277  0.2581  0.5911  0.7570
15158SOL    HW148620   5.250   1.399   1.210  0.7786  1.1367  1.0812
15158SOL    HW248621   5.348   1.375   1.323  0.0739  0.1036  1.4905
15159SOL     OW48622   2.517   4.388   3.838  0.3564 -0.0141  0.0002
15159SOL    HW148623   2.460   4.402   3.914 -0.5176  1.1459 -0.8344
15159SOL    HW248624   2.550   4.298   3.849 -1.7170 -0.7756  0.4524
15160SOL     OW48625   0.921   4.362   3.464 -0.6318  0.2017  0.4539
15160SOL    HW148626   0.917   4.308   3.543  0.2387 -0.1685  0.2501
15160SOL    HW248627   0.838   4.344   3.418 -1.3481  0.7528  1.4806
15161SOL     OW48628   6.868   2.817   7.864 -0.5398  0.3710  0.3323
15161SOL    HW148629   6.883   2.893   7.808 -1.0801  1.2318  1.3528
15161SOL    HW248630   6.778   2.825   7.893 -0.3968 -0.3104  0.9852
15162SOL     OW48631   1.850   5.062   0.196 -0.4735 -0.0286 -0.8774
15162SOL    HW148632   1.942   5.046   0.174 -1.1363 -4.8682 -1.2028
15162SOL    HW248633   1.807   5.079   0.112 -0.2477  0.0790 -0.9724
15163SOL     OW48634   1.657   3.537   7.078 -0.3253 -0.0240  0.2079
15163SOL    HW148635   1.689   3.593   7.008 -0.7619 -1.9048 -1.5687
15163SOL    HW248636   1.658   3.449   7.042 -1.4743 -0.9581  2.2463
15164SOL     OW48637   2.366   6.856   1.734  0.5473 -0.1973 -0.4600
15164SOL    HW148638   2.338   6.857   1.826  2.5987 -1.6908  0.2661
15164SOL    HW248639   2.331   6.938   1.697  0.7525  1.0883  1.9849
15165SOL     OW48640   1.034   5.524   3.481  0.2916 -0.4274  0.2056
15165SOL    HW148641   1.014   5.443   3.528 -0.1785 -0.7152 -0.4731
15165SOL    HW248642   1.106   5.501   3.423  1.7490  0.2512  1.6510
15166SOL     OW48643   4.551   2.565   5.819  0.2549 -0.0366  0.2152
15166SOL    HW148644   4.466   2.537   5.854  0.0062  2.0121  1.4159
15166SOL    HW248645   4.612   2.553   5.893  1.2179 -2.1185 -0.8318
15167SOL     OW48646   5.399   3.794   6.206 -0.3245  0.7628  0.3959
15167SOL    HW148647   5.317   3.786   6.256  0.4591 -1.8913  1.4459
15167SOL    HW248648   5.468   3.790   6.272  0.6962  0.4595 -0.6499
15168SOL     OW48649   7.871   6.588   1.203  0.0000  0.4489 -0.0642
15168SOL    HW148650   7.849   6.669   1.158  0.6269  0.3999 -0.4888
15168SOL    HW248651   7.967   6.588   1.206  0.0379 -0.5627 -0.6472
15169SOL     OW48652   5.326   3.109   5.520  0.0772 -0.5140 -0.2373
15169SOL    HW148653   5.236   3.128   5.544 -0.1557 -0.9059 -0.7699
15169SOL    HW248654   5.343   3.022   5.556  0.2968 -0.3728  0.0025
15170SOL     OW48655   0.762   0.009   2.952 -0.1497  0.6531  0.0127
15170SOL    HW148656   0.765   0.024   3.047 -0.1079  0.2531  0.0780
15170SOL    HW248657   0.669   0.007   2.931 -0.1698  0.2269  0.1336
15171SOL     OW48658   2.071   6.113   7.817  0.2363 -0.4073 -0.2556
15171SOL    HW148659   2.016   6.047   7.860 -1.1998 -0.4932 -2.1202
15171SOL    HW248660   2.014   6.190   7.808  0.8560 -0.0233 -1.0308
15172SOL     OW48661   4.032   5.403   3.277 -0.7475 -0.5105 -0.2567
15172SOL    HW148662   4.096   5.473   3.260 -0.4146 -0.8110 -0.2620
15172SOL    HW248663   4.040   5.387   3.371 -1.8923  0.4829  0.0287
15173SOL     OW48664   2.310   6.815   7.466  0.7686  0.0987  0.4905
15173SOL    HW148665   2.314   6.723   7.441 -1.0037  0.0956  0.0738
15173SOL    HW248666   2.383   6.856   7.420  0.7093 -0.8475 -0.4847
15174SOL     OW48667   6.762   7.004   4.032 -0.4062  0.3670 -0.6356
15174SOL    HW148668   6.681   6.954   4.045 -0.7170  0.9253 -0.3718
15174SOL    HW248669   6.734   7.095   4.034 -0.0630  0.5483 -2.5694
15175SOL     OW48670   3.145   6.729   2.240  0.5758 -0.5316 -0.4788
15175SOL    HW148671   3.142   6.700   2.149 -0.4111 -0.5252 -0.4515
15175SOL    HW248672   3.204   6.667   2.283  1.4692 -0.2211 -1.2285
15176SOL     OW48673   1.279   2.230   0.023 -0.1364 -0.1829  0.0000
15176SOL    HW148674   1.221   2.227  -0.053  0.2385 -2.4408 -0.2594
15176SOL    HW248675   1.224   2.265   0.093 -1.2610 -0.4949 -0.6922
15177SOL     OW48676   7.380   0.637   3.810 -0.1194  0.1067 -0.0917
15177SOL    HW148677   7.397   0.699   3.881 -1.9083  0.4042  0.1165
15177SOL    HW248678   7.466   0.619   3.773  0.5043  2.3358  0.1452
15178SOL     OW48679   7.737   3.506   6.521 -0.5974  0.3060 -0.3607
15178SOL    HW148680   7.646   3.532   6.531 -0.7943 -0.2148 -0.7681
15178SOL    HW248681   7.751   3.502   6.427 -0.7893 -1.7757 -0.3305
15179SOL     OW48682   2.519   4.642   0.462 -0.1136  0.0866 -0.0738
15179SOL    HW148683   2.613   4.655   0.446 -0.2953 -0.2400 -1.5654
15179SOL    HW248684   2.493   4.716   0.516  1.1553 -0.2244  1.0238
15180SOL     OW48685   2.541   1.795   8.091  0.6021 -0.0150 -0.4221
15180SOL    HW148686   2.519   1.778   8.182 -0.5200  1.1382 -0.4523
15180SOL    HW248687   2.462   1.835   8.054  1.6005  1.1186 -1.4432
15181SOL     OW48688   4.911   4.334   6.564 -0.4601  0.5043  0.0740
15181SOL    HW148689   4.823   4.336   6.601 -0.7482 -0.2215 -0.5430
15181SOL    HW248690   4.906   4.394   6.489  0.3548  2.6431  1.6458
15182SOL     OW48691   0.897   1.467   4.644  0.0667 -0.4597  0.0621
15182SOL    HW148692   0.832   1.436   4.581 -0.3373 -2.8095  1.5107
15182SOL    HW248693   0.850   1.530   4.699  0.3089  1.2822 -1.6181
15183SOL     OW48694   0.528   8.028   7.177 -0.3643 -0.7327  0.2962
15183SOL    HW148695   0.612   7.996   7.143 -0.3043 -0.0881 -0.1846
15183SOL    HW248696   0.510   7.972   7.252 -0.3904 -2.0579 -0.6605
15184SOL     OW48697   7.394   4.511   2.052  0.6634  0.2688 -0.0142
15184SOL    HW148698   7.370   4.574   1.985 -1.0321  0.0819  0.3616
15184SOL    HW248699   7.313   4.498   2.102  0.7506 -2.6356 -0.4529
15185SOL     OW48700   0.948   5.123   8.043 -0.2247  0.3948  0.6194
15185SOL    HW148701   1.009   5.053   8.066 -1.2012 -0.6183  0.2445
15185SOL    HW248702   0.985   5.162   7.963 -0.2154 -0.4029  0.2274
15186SOL     OW48703   7.427   0.715   7.700  0.3301  0.1113  1.1471
15186SOL    HW148704   7.338   0.680   7.697 -0.2129  1.5019 -0.9320
15186SOL    HW248705   7.420   0.798   7.747  0.0671  1.2382 -0.7675
15187SOL     OW48706   7.340   1.937   1.668 -0.4247  0.8387 -0.3865
15187SOL    HW148707   7.364   1.939   1.575  1.6030 -2.2700 -0.0814
15187SOL    HW248708   7.401   1.997   1.710  0.3657  0.3323 -0.7913
15188SOL     OW48709   2.287   2.345   4.920  0.7573  0.1100  0.4327
15188SOL    HW148710   2.376   2.376   4.938  0.4846  0.2287  1.7359
15188SOL    HW248711   2.265   2.380   4.834  1.9464  0.1410  0.1312
15189SOL     OW48712   2.944   1.033   8.048 -0.2771 -0.3948  0.0106
15189SOL    HW148713   2.981   0.959   8.096 -2.6988 -1.3008  0.6152
15189SOL    HW248714   2.970   1.018   7.957  2.1972 -0.0323  0.5727
15190SOL     OW48715   7.058   0.070   6.255  0.3338 -0.3040  0.0464
15190SOL    HW148716   7.045   0.004   6.187  0.3332 -0.8623  0.5855
15190SOL    HW248717   7.051   0.022   6.338  0.7071  0.3032  0.4388
15191SOL     OW48718   2.554   7.819   4.728 -0.0149 -0.2657  0.2594
15191SOL    HW148719   2.600   7.819   4.644 -0.9007 -3.0653 -0.3379
15191SOL    HW248720   2.461   7.830   4.705 -0.1987 -0.3088  0.9500
15192SOL     OW48721   1.032   2.368   0.511 -0.5573 -0.1686  0.5156
15192SOL    HW148722   0.970   2.316   0.561  0.4096 -1.7262  0.1701
15192SOL    HW248723   1.099   2.394   0.574 -0.3282 -0.5219  0.4221
15193SOL     OW48724   7.095   3.994   4.905 -0.1241 -0.0275  0.6879
15193SOL    HW148725   7.085   3.900   4.893 -0.0463 -0.1361  1.4055
15193SOL    HW248726   7.098   4.006   5.000  0.0598  0.6782  0.6023
15194SOL     OW48727   2.700   4.902   3.988 -0.0673 -0.3784 -0.5007
15194SOL    HW148728   2.628   4.954   4.023 -2.0725 -1.2099 -3.0930
15194SOL    HW248729   2.661   4.819   3.963  1.2198 -0.1096 -3.9739
15195SOL     OW48730   4.907   2.771   3.824 -0.0091  0.2162 -0.2796
15195SOL    HW148731   4.947   2.836   3.766 -1.0851  0.5834 -0.6415
15195SOL    HW248732   4.918   2.688   3.778  0.4879  0.2826 -0.2888
15196SOL     OW48733   7.083   0.870   2.401 -0.5335 -0.4160 -0.0235
15196SOL    HW148734   7.065   0.881   2.308  0.1349 -2.4983 -0.4457
15196SOL    HW248735   7.032   0.793   2.427 -1.6334  0.7929  1.6487
15197SOL     OW48736   7.712   7.296   0.485  0.2185  0.0727 -0.2918
15197SOL    HW148737   7.712   7.211   0.528  0.7013  0.5180  0.6115
15197SOL    HW248738   7.677   7.357   0.550  1.4756  0.8556 -0.2990
15198SOL     OW48739   6.445   1.116   0.700 -0.0320  0.1220 -0.0364
15198SOL    HW148740   6.441   1.071   0.784 -0.0467  1.4106  0.6794
15198SOL    HW248741   6.442   1.046   0.635 -0.7867 -0.8557  1.0157
15199SOL     OW48742   2.774   1.485   1.938 -0.3027 -0.3280  0.8259
15199SOL    HW148743   2.858   1.441   1.948 -0.0029 -0.1323 -0.6623
15199SOL    HW248744   2.709   1.415   1.946  0.0670 -0.6987  0.6004
15200SOL     OW48745   1.243   5.364   7.276  0.2597  0.2727 -0.1528
15200SOL    HW148746   1.156   5.403   7.286  1.1242  2.0564  1.0239
15200SOL    HW248747   1.240   5.320   7.191 -2.6929 -2.3453  1.1051
15201SOL     OW48748   2.226   6.254   6.912 -0.4191  0.1613  0.0728
15201SOL    HW148749   2.142   6.245   6.958 -0.5977  1.4261  0.0198
15201SOL    HW248750   2.267   6.168   6.921  0.0711  0.6170  3.6213
15202SOL     OW48751   6.816   7.986   3.881 -0.2457 -0.2776  0.0073
15202SOL    HW148752   6.849   8.070   3.849  0.0682  0.0899  1.2618
15202SOL    HW248753   6.876   7.961   3.951 -1.0967 -0.9146  0.5274
15203SOL     OW48754   0.455   5.792   7.466 -0.0084  0.4728  0.3342
15203SOL    HW148755   0.488   5.726   7.527  0.0859  1.2087  1.0918
15203SOL    HW248756   0.421   5.741   7.392  0.9683 -0.3823  0.4460
15204SOL     OW48757   1.367   7.716   0.367  0.0522  0.0024  0.2529
15204SOL    HW148758   1.308   7.684   0.435 -0.1012  0.0110  0.1232
15204SOL    HW248759   1.367   7.811   0.377  2.0321 -0.0967  1.9291
15205SOL     OW48760   1.928   1.364   4.243  0.0814 -0.3214  0.5571
15205SOL    HW148761   1.905   1.447   4.201  0.2215 -0.2985  0.5250
15205SOL    HW248762   1.855   1.305   4.222 -0.0220 -0.2035  0.5883
15206SOL     OW48763   5.922   2.549   7.133  0.2521  0.1782 -0.4578
15206SOL    HW148764   5.995   2.580   7.187  0.3039 -0.7497  0.0308
15206SOL    HW248765   5.858   2.516   7.196 -0.4038  0.5846 -0.9015
15207SOL     OW48766   3.348   5.969   6.895  0.0267  0.2785 -0.3297
15207SOL    HW148767   3.347   6.004   6.805 -0.6445 -1.7646 -1.1701
15207SOL    HW248768   3.379   5.879   6.885  1.9155  0.6260  1.7849
15208SOL     OW48769   7.861   1.192   2.739 -0.0407 -0.3079 -0.6318
15208SOL    HW148770   7.765   1.195   2.729 -0.1654  2.0710  0.5316
15208SOL    HW248771   7.893   1.167   2.652 -1.6669  1.2411 -1.7469
15209SOL     OW48772   3.178   1.559   2.857 -0.3818 -0.0287  0.1000
15209SOL    HW148773   3.086   1.557   2.834 -0.5024  1.7181  0.3094
15209SOL    HW248774   3.204   1.650   2.845  1.8144 -0.8121 -1.7959
15210SOL     OW48775   5.651   1.640   6.792 -0.2509 -0.1407 -0.2815
15210SOL    HW148776   5.640   1.548   6.817 -0.8043  0.6018  2.5247
15210SOL    HW248777   5.562   1.670   6.774 -0.4187  0.4555  1.3813
15211SOL     OW48778   0.542   2.417   4.873  0.1391  0.1714 -0.3216
15211SOL    HW148779   0.533   2.444   4.782 -1.8234  0.8333  0.0379
15211SOL    HW248780   0.633   2.387   4.880 -0.0515 -1.2992 -2.8584
15212SOL     OW48781   1.101   6.777   0.016 -0.1814 -0.0869 -0.3474
15212SOL    HW148782   1.068   6.755   0.103  1.5357 -0.1474  0.3355
15212SOL    HW248783   1.118   6.692  -0.024 -1.5761 -0.0730 -1.0214
15213SOL     OW48784   6.282   5.715   7.584  0.0304 -0.2979  0.3979
15213SOL    HW148785   6.197   5.711   7.539  1.3487 -0.4611 -2.2568
15213SOL    HW248786   6.273   5.788   7.645 -1.8439  0.0287 -0.2055
15214SOL     OW48787   0.218   3.188   7.055  0.5166 -0.0728 -0.4411
15214SOL    HW148788   0.307   3.160   7.033 -0.3790 -2.1487 -1.7491
15214SOL    HW248789   0.212   3.175   7.150  1.1684 -1.3547 -0.5520
15215SOL     OW48790   7.214   1.429   3.468  0.1507  0.6066  0.2392
15215SOL    HW148791   7.136   1.437   3.414  0.6428  1.1237 -0.4099
15215SOL    HW248792   7.233   1.519   3.497  1.1736  0.6781 -0.5842
15216SOL     OW48793   7.199   3.193   5.520 -0.3959  0.2205 -0.0746
15216SOL    HW148794   7.160   3.238   5.446  1.6287  2.5560  0.1378
15216SOL    HW248795   7.255   3.126   5.481 -1.5044 -0.4892 -0.4939
15217SOL     OW48796   0.127   6.894   1.111  0.0810 -0.1160  0.5027
15217SOL    HW148797   0.057   6.830   1.126 -0.1353  0.1703  0.7197
15217SOL    HW248798   0.092   6.952   1.043  1.0300 -1.3737 -1.1444
15218SOL     OW48799   0.138   3.648   5.195  0.5831 -0.0813  0.4258
15218SOL    HW148800   0.125   3.702   5.273 -2.4725  0.5770 -0.3949
15218SOL    HW248801   0.221   3.602   5.210  0.9275  1.2887  3.2571
15219SOL     OW48802   5.889   1.106   3.416  0.3692  0.6210  0.2672
15219SOL    HW148803   5.977   1.101   3.379  1.1537 -1.0897  2.1461
15219SOL    HW248804   5.878   1.197   3.441  1.3679  0.9801 -0.5689
15220SOL     OW48805   2.886   5.351   4.846  0.5685  0.2640  0.2929
15220SOL    HW148806   2.935   5.431   4.865  0.7633  0.0185  0.8419
15220SOL    HW248807   2.862   5.316   4.931  2.9362 -1.7570  0.2599
15221SOL     OW48808   1.935   6.175   2.434  0.1391 -0.3081  0.2853
15221SOL    HW148809   2.024   6.175   2.400  0.8857 -2.3313  2.0177
15221SOL    HW248810   1.904   6.265   2.421  1.1156 -0.3553 -3.4653
15222SOL     OW48811   7.452   0.132   7.060  0.4198  0.2901  0.1701
15222SOL    HW148812   7.417   0.203   7.006  2.4685  1.1693 -0.1098
15222SOL    HW248813   7.486   0.176   7.137  2.3513 -0.2416 -0.3185
15223SOL     OW48814   3.672   1.346   3.456  0.1101 -0.1181  0.0574
15223SOL    HW148815   3.654   1.315   3.367 -0.7587  0.0211  0.1818
15223SOL    HW248816   3.690   1.266   3.505 -2.6002 -0.5502  0.4904
15224SOL     OW48817   7.179   0.004   6.524 -0.0280  0.3304  0.4590
15224SOL    HW148818   7.175  -0.011   6.618 -1.1610 -1.2120  0.2078
15224SOL    HW248819   7.227   0.086   6.514 -2.0870  1.8842  2.4901
15225SOL     OW48820   4.686   1.172   0.957  0.2496 -0.0630 -0.1328
15225SOL    HW148821   4.739   1.186   0.878 -0.3950  1.0762 -0.3918
15225SOL    HW248822   4.595   1.173   0.925  0.0258 -0.6437  0.4833
15226SOL     OW48823   5.180   0.166   3.721 -0.0239 -0.0216 -0.4822
15226SOL    HW148824   5.211   0.110   3.650 -0.1044  0.6043 -1.0222
15226SOL    HW248825   5.123   0.229   3.678 -0.1037  0.3388  0.1476
15227SOL     OW48826   2.457   0.120   5.604  0.1497  0.4848 -0.4366
15227SOL    HW148827   2.422   0.198   5.564  1.2514  0.4683 -1.4882
15227SOL    HW248828   2.394   0.051   5.584  0.4386  0.5823 -1.7439
15228SOL     OW48829   3.280   3.582   4.688 -0.2351  0.8321 -0.2046
15228SOL    HW148830   3.232   3.545   4.762 -0.4297 -1.5756 -1.4528
15228SOL    HW248831   3.369   3.548   4.696 -0.3637  0.1904 -1.2628
15229SOL     OW48832   4.189   2.896   3.147  0.2010 -0.2122  0.7708
15229SOL    HW148833   4.246   2.923   3.220  0.5838 -1.6292  1.0151
15229SOL    HW248834   4.107   2.872   3.189  1.0523 -2.9969  1.0601
15230SOL     OW48835   8.009   7.126   7.335 -0.4716 -0.3341  0.3021
15230SOL    HW148836   7.989   7.067   7.407 -1.0815  0.6407  0.9609
15230SOL    HW248837   7.928   7.131   7.285 -0.8378  0.8977  0.9726
15231SOL     OW48838   7.602   0.703   5.074 -0.0777 -0.1159  0.0793
15231SOL    HW148839   7.694   0.675   5.074 -0.0601 -0.1761  2.0810
15231SOL    HW248840   7.562   0.655   5.146 -1.8692 -0.5343 -1.1152
15232SOL     OW48841   1.286   0.999   1.589 -0.3467  0.4433 -0.4139
15232SOL    HW148842   1.338   0.940   1.536  0.5385  0.6942  0.1596
15232SOL    HW248843   1.344   1.073   1.606 -0.7041  0.4795  0.6874
15233SOL     OW48844   0.717   0.999   1.367 -0.0217 -0.6362 -0.8728
15233SOL    HW148845   0.652   1.009   1.436  0.7823 -1.9033  0.1148
15233SOL    HW248846   0.666   0.986   1.287 -0.9938  2.6321 -0.9285
15234SOL     OW48847   4.698   1.175   4.649  0.4502  0.0705  0.1430
15234SOL    HW148848   4.626   1.139   4.702  0.3756 -0.5682 -0.3767
15234SOL    HW248849   4.710   1.110   4.579 -0.5778  1.6652 -1.6090
15235SOL     OW48850   5.888   2.940   0.649  0.4555  0.1869  0.3794
15235SOL    HW148851   5.843   2.894   0.720  1.4736 -0.4535  0.6339
15235SOL    HW248852   5.830   2.930   0.573 -0.3425  0.3311  0.9528
15236SOL     OW48853   5.995   0.875   1.073  0.8367  0.3186  0.0731
15236SOL    HW148854   6.066   0.939   1.071  0.1089  1.1377 -0.1874
15236SOL    HW248855   5.916   0.927   1.081  0.2231 -0.5568 -0.1342
15237SOL     OW48856   5.086   0.697   4.300  0.0804  0.3910 -0.3870
15237SOL    HW148857   5.072   0.603   4.293 -1.0053  0.5041  0.0467
15237SOL    HW248858   5.146   0.718   4.228 -0.5996 -0.4409 -1.2256
15238SOL     OW48859   6.203   2.731   5.291 -0.4708  0.3367  0.4909
15238SOL    HW148860   6.198   2.635   5.296  0.9227  0.2410  0.3323
15238SOL    HW248861   6.151   2.761   5.365  1.0687 -0.6053  2.0310
15239SOL     OW48862   6.938   0.486   3.990 -0.2583  0.0414 -0.1335
15239SOL    HW148863   6.913   0.487   4.082 -2.0302  1.1146 -0.5866
15239SOL    HW248864   7.022   0.440   3.989 -0.0332  0.2969  2.0423
15240SOL     OW48865   6.104   4.776   4.917  0.6292  0.0204 -0.2943
15240SOL    HW148866   6.016   4.766   4.951  0.8048  1.2429  0.5887
15240SOL    HW248867   6.150   4.696   4.945  0.0467 -0.2112  0.0082
15241SOL     OW48868   4.545   3.672   5.302  0.0373  0.0781 -0.0872
15241SOL    HW148869   4.492   3.617   5.360 -1.4330  0.6299 -0.8530
15241SOL    HW248870   4.574   3.744   5.358 -0.7514  0.2266  0.1402
15242SOL     OW48871   7.307   0.460   4.526  0.1225  0.3435  0.1582
15242SOL    HW148872   7.256   0.527   4.573  0.3193  1.5995 -1.3433
15242SOL    HW248873   7.246   0.386   4.517 -0.1302  0.3156  1.7707
15243SOL     OW48874   1.890   1.693   5.734 -0.2963  0.3543  0.2355
15243SOL    HW148875   1.817   1.631   5.734 -0.5079  0.5892  1.4214
15243SOL    HW248876   1.943   1.667   5.809  0.2010  0.9333  0.0927
15244SOL     OW48877   4.311   0.419   1.854 -0.4711  0.6701  0.7785
15244SOL    HW148878   4.320   0.465   1.771 -0.8010  1.6549  1.2764
15244SOL    HW248879   4.327   0.485   1.921  1.7881 -0.5119  1.5215
15245SOL     OW48880   5.106   2.780   5.423  0.0859 -0.0936  0.8182
15245SOL    HW148881   5.023   2.807   5.462 -0.3045  0.9643 -0.6613
15245SOL    HW248882   5.095   2.686   5.405 -1.7213  0.4553 -1.4113
15246SOL     OW48883   3.695   4.205   0.656  0.0242  0.0083 -0.0045
15246SOL    HW148884   3.685   4.277   0.718 -0.0514 -0.4897  0.5694
15246SOL    HW248885   3.616   4.208   0.603 -0.7997 -0.7023  1.1347
15247SOL     OW48886   6.322   0.242   5.651  0.8673 -0.6912  0.3179
15247SOL    HW148887   6.317   0.207   5.562 -0.3050 -1.2677  0.5953
15247SOL    HW248888   6.240   0.289   5.663  1.7393  0.8439  0.5190
15248SOL     OW48889   0.080   7.235   4.750 -0.3862  0.1519 -0.6972
15248SOL    HW148890   0.118   7.213   4.665  1.2206  0.6686 -0.1450
15248SOL    HW248891  -0.014   7.240   4.733 -0.1640 -0.3830 -2.2983
15249SOL     OW48892   6.965   1.223   6.151 -0.1303 -0.2022 -0.2451
15249SOL    HW148893   6.906   1.150   6.131 -0.4087  0.4096 -1.8240
15249SOL    HW248894   7.044   1.204   6.101 -0.1399  0.4681 -0.5237
15250SOL     OW48895   0.637   4.090   1.028  0.2206 -0.1123 -0.0893
15250SOL    HW148896   0.596   4.015   1.071 -2.5349  0.4959 -1.4186
15250SOL    HW248897   0.730   4.066   1.020 -0.2485 -2.6019  1.0432
15251SOL     OW48898   4.343   3.752   1.768 -0.7280  0.8972  0.0512
15251SOL    HW148899   4.251   3.777   1.757 -0.7208  1.3372  0.9617
15251SOL    HW248900   4.358   3.755   1.862 -0.1115 -0.3973  0.0132
15252SOL     OW48901   3.198   7.544   7.536  0.0559 -0.4344 -0.0061
15252SOL    HW148902   3.270   7.503   7.584 -0.5644 -0.3285  1.0464
15252SOL    HW248903   3.213   7.638   7.544 -0.0352 -0.4150 -0.0517
15253SOL     OW48904   5.544   6.874   3.691  0.3664 -0.8319  0.5034
15253SOL    HW148905   5.599   6.952   3.683  1.3071 -1.5522 -0.3463
15253SOL    HW248906   5.456   6.908   3.703  0.5394  0.3903 -1.2891
15254SOL     OW48907   6.680   6.587   0.453  0.2094  0.4415  0.2384
15254SOL    HW148908   6.585   6.585   0.465  0.1602 -0.6441 -0.1892
15254SOL    HW248909   6.692   6.580   0.358  0.7352 -0.4814  0.3653
15255SOL     OW48910   6.706   2.325   1.268  0.1869 -0.2303 -0.4693
15255SOL    HW148911   6.769   2.396   1.277  0.4356 -0.2868 -1.5724
15255SOL    HW248912   6.746   2.251   1.312  1.3991 -0.5594 -2.0462
15256SOL     OW48913   4.757   1.142   2.331 -0.0391 -0.2060 -0.1432
15256SOL    HW148914   4.675   1.187   2.354  0.0648  0.1024 -0.3658
15256SOL    HW248915   4.765   1.153   2.236 -1.2717 -2.8344 -0.6407
15257SOL     OW48916   5.672   1.947   7.153 -0.1594 -0.7099 -0.4446
15257SOL    HW148917   5.742   1.884   7.166 -0.6339 -1.9607 -3.2767
15257SOL    HW248918   5.688   1.983   7.066 -2.0123  0.3398 -0.3955
15258SOL     OW48919   7.168   3.325   1.127  0.0767  0.1256 -0.1710
15258SOL    HW148920   7.147   3.284   1.211 -0.6573  0.0383 -0.3890
15258SOL    HW248921   7.084   3.359   1.096  0.6566  1.7501 -0.0317
15259SOL     OW48922   3.738   3.156   7.452 -0.4384  0.4229  0.0139
15259SOL    HW148923   3.765   3.083   7.397 -2.8600 -0.0042 -0.7420
15259SOL    HW248924   3.646   3.139   7.471 -1.0048  3.0746  0.1051
15260SOL     OW48925   5.296   2.676   0.844  0.4340  0.2828 -0.3269
15260SOL    HW148926   5.201   2.682   0.858  0.6179  2.3723  0.3690
15260SOL    HW248927   5.309   2.717   0.758  0.6029 -1.0856 -0.9673
15261SOL     OW48928   4.875   6.148   2.606  0.3598  0.2905  0.2638
15261SOL    HW148929   4.966   6.119   2.611  0.0395 -1.3621 -1.9551
15261SOL    HW248930   4.828   6.091   2.666  0.3609 -1.1362 -1.0249
15262SOL     OW48931   1.132   5.442   1.183 -0.0678 -0.1835  0.6162
15262SOL    HW148932   1.149   5.530   1.149 -1.5608  0.5370  1.6189
15262SOL    HW248933   1.072   5.456   1.257 -1.3494 -2.1319  0.0243
15263SOL     OW48934   0.196   4.631   7.109 -0.1402  0.1244 -0.0763
15263SOL    HW148935   0.118   4.620   7.055  0.0456  0.8570 -0.5187
15263SOL    HW248936   0.230   4.542   7.121 -1.5431 -0.3135  0.9194
15264SOL     OW48937   1.028   6.579   3.367 -0.2294  0.4627  0.6751
15264SOL    HW148938   1.062   6.562   3.279 -1.8001 -0.1163  0.1376
15264SOL    HW248939   1.063   6.508   3.420  0.3585  0.5548  0.4181
15265SOL     OW48940   6.950   7.251   1.918  0.2669  0.0486 -0.2000
15265SOL    HW148941   6.928   7.316   1.852  1.0549  1.5311  0.9443
15265SOL    HW248942   6.865   7.214   1.944 -0.4080  1.8765  0.3550
15266SOL     OW48943   5.380   5.503   7.598 -0.2399  0.1604  0.0350
15266SOL    HW148944   5.431   5.430   7.565 -0.4563 -0.1138  0.3006
15266SOL    HW248945   5.380   5.492   7.693  1.2796  1.5334  0.2375
15267SOL     OW48946   5.428   5.479   0.131  0.1470  0.0284  0.4360
15267SOL    HW148947   5.353   5.437   0.090  0.4059  0.1476 -0.1693
15267SOL    HW248948   5.400   5.570   0.142 -0.0441 -0.0746  0.8377
15268SOL     OW48949   1.395   5.363   5.140  0.1567  0.2618 -0.4250
15268SOL    HW148950   1.362   5.448   5.167  0.5235  0.7007 -1.3193
15268SOL    HW248951   1.318   5.306   5.139 -0.5572  1.2089 -2.2556
15269SOL     OW48952   1.207   0.430   5.843 -0.1064 -0.2485  0.0012
15269SOL    HW148953   1.247   0.452   5.927 -0.3061 -2.3971  0.7279
15269SOL    HW248954   1.218   0.335   5.836 -2.7806 -0.5633 -0.9818
15270SOL     OW48955   2.246   0.487   7.244  0.7023  0.2263 -0.2642
15270SOL    HW148956   2.177   0.471   7.180 -2.0184  0.3821  2.4098
15270SOL    HW248957   2.291   0.565   7.212 -1.6305  1.2600 -1.2264
15271SOL     OW48958   5.876   6.863   2.183  0.4866 -0.2590 -0.0306
15271SOL    HW148959   5.953   6.806   2.184  0.8436  0.1707  2.6042
15271SOL    HW248960   5.809   6.814   2.231 -0.9599 -0.5963 -2.2139
15272SOL     OW48961   0.475   3.339   4.680  0.6266 -0.3764 -0.3043
15272SOL    HW148962   0.518   3.415   4.720 -2.7399  0.6504  1.8606
15272SOL    HW248963   0.513   3.263   4.725  0.4000  0.4601  1.3851
15273SOL     OW48964   5.873   2.051   2.624 -0.6190  0.1936 -0.0508
15273SOL    HW148965   5.957   2.056   2.578 -0.5688 -0.6979 -0.0777
15273SOL    HW248966   5.860   1.957   2.640 -1.6063  0.3210 -0.0401
15274SOL     OW48967   4.459   4.347   0.153  0.1236 -0.8003  0.0378
15274SOL    HW148968   4.414   4.402   0.089  2.1964 -1.7364 -2.4115
15274SOL    HW248969   4.535   4.399   0.179  0.0631 -1.0178  0.6613
15275SOL     OW48970   4.673   7.158   5.502  0.4583 -0.2266  0.3167
15275SOL    HW148971   4.613   7.189   5.570 -0.7694  0.3316 -0.9579
15275SOL    HW248972   4.626   7.087   5.459  0.2173  0.9001 -1.3824
15276SOL     OW48973   4.013   5.704   3.402 -0.5789 -0.5949 -0.5344
15276SOL    HW148974   4.095   5.709   3.353  1.2236 -1.3745  2.1605
15276SOL    HW248975   3.996   5.793   3.430  0.1691 -0.6252  0.0605
15277SOL     OW48976   4.442   6.553   7.470 -0.6953  0.3806  0.5638
15277SOL    HW148977   4.439   6.579   7.378 -1.0232 -0.7726  0.2277
15277SOL    HW248978   4.528   6.512   7.480 -1.4681 -1.4200  0.1927
15278SOL     OW48979   0.440   1.430   2.912 -0.1335 -0.0244 -0.2226
15278SOL    HW148980   0.350   1.463   2.909  0.0234  0.5461  0.8953
15278SOL    HW248981   0.492   1.498   2.869 -0.2571 -0.4883 -1.1338
15279SOL     OW48982   7.716   3.012   7.872  0.0403 -0.4517 -0.0659
15279SOL    HW148983   7.793   3.057   7.905 -0.0300  0.6028 -1.2414
15279SOL    HW248984   7.674   3.076   7.813 -1.1446 -1.3664 -0.2684
15280SOL     OW48985   1.699   1.112   5.641  0.0056 -0.0763  0.7868
15280SOL    HW148986   1.787   1.143   5.664  0.3696 -0.7862  0.4001
15280SOL    HW248987   1.702   1.018   5.657  0.1040 -0.5367 -1.5584
15281SOL     OW48988   2.289   4.797   3.766 -0.1075  0.2366 -0.4225
15281SOL    HW148989   2.315   4.807   3.857 -0.8215  1.1136 -0.3039
15281SOL    HW248990   2.232   4.720   3.765  2.2406 -1.6094 -0.6582
15282SOL     OW48991   0.099   7.316   0.283  0.5604 -0.0216 -0.1361
15282SOL    HW148992   0.005   7.328   0.268  0.5688 -0.0538 -0.2191
15282SOL    HW248993   0.124   7.249   0.219  0.5765 -0.2361  0.0947
15283SOL     OW48994   4.227   3.827   0.975 -0.4067  0.5557  0.3383
15283SOL    HW148995   4.159   3.802   0.913 -0.2597 -0.4841  0.5770
15283SOL    HW248996   4.297   3.763   0.961 -1.6643 -1.9043  3.7704
15284SOL     OW48997   1.115   0.382   4.282  0.2867 -0.0278  0.5476
15284SOL    HW148998   1.120   0.346   4.194  0.3317 -1.0527  0.9582
15284SOL    HW248999   1.089   0.474   4.269  0.9852  0.0335 -0.5612
15285SOL     OW49000   5.140   2.765   1.651  0.7346  0.1818 -0.9738
15285SOL    HW149001   5.063   2.772   1.708  0.8877  0.6595 -0.8186
15285SOL    HW249002   5.127   2.832   1.585  0.5225 -0.4221 -1.5544
15286SOL     OW49003   3.042   3.018   1.791  0.7801 -0.1723 -0.2629
15286SOL    HW149004   3.102   2.947   1.813  0.9032  0.0184  0.0327
15286SOL    HW249005   2.966   2.975   1.752  0.3264 -0.5874  1.0011
15287SOL     OW49006   6.290   1.791   2.479  0.3662 -0.7611 -0.0600
15287SOL    HW149007   6.255   1.878   2.494  0.2771 -0.5811 -1.1673
15287SOL    HW249008   6.382   1.805   2.455  0.2015 -0.9086 -0.8079
15288SOL     OW49009   3.093   6.444   7.893 -0.1814  0.0535 -0.3950
15288SOL    HW149010   3.018   6.420   7.840  0.8331 -1.1878 -1.3247
15288SOL    HW249011   3.154   6.486   7.832  1.8805 -3.2114 -0.8156
15289SOL     OW49012   1.573   6.266   3.214 -0.4549 -0.6612 -0.4807
15289SOL    HW149013   1.502   6.329   3.227  1.2318  1.5976 -1.6519
15289SOL    HW249014   1.534   6.197   3.160 -2.2352 -0.4495  0.4652
15290SOL     OW49015   2.723   1.000   7.657 -0.4232  0.1177 -0.4172
15290SOL    HW149016   2.780   1.058   7.707  0.6596 -1.9954  0.9449
15290SOL    HW249017   2.742   0.912   7.690 -3.2633 -0.8887 -1.1103
15291SOL     OW49018   5.907   5.021   5.426  0.1006  0.0711 -0.2662
15291SOL    HW149019   5.950   4.989   5.346 -0.2891  0.5078 -0.6523
15291SOL    HW249020   5.952   4.974   5.497 -0.0178 -0.8484 -0.7829
15292SOL     OW49021   6.163   2.442   2.933 -0.8452  0.2386 -0.4808
15292SOL    HW149022   6.121   2.460   3.017 -0.6464  0.1667 -0.3653
15292SOL    HW249023   6.240   2.390   2.955 -0.4220  0.7926 -0.6448
15293SOL     OW49024   1.234   4.208   4.251  0.7329 -0.0974  0.1703
15293SOL    HW149025   1.194   4.258   4.181 -1.2204 -0.7759  0.7318
15293SOL    HW249026   1.174   4.135   4.266  1.7332 -0.6646  1.7058
15294SOL     OW49027   4.685   3.528   6.479  0.3238 -0.3134 -0.0206
15294SOL    HW149028   4.691   3.505   6.386  1.1860 -0.9534  0.1740
15294SOL    HW249029   4.777   3.531   6.508  0.1455  1.1709  0.5157
15295SOL     OW49030   7.900   4.134   0.138 -0.0553  0.0174 -0.0925
15295SOL    HW149031   7.805   4.123   0.139 -0.0801 -0.2728 -2.1568
15295SOL    HW249032   7.916   4.212   0.191 -1.7495  1.8854 -2.1677
15296SOL     OW49033   3.327   7.641   5.692  0.2927  0.1095  0.1575
15296SOL    HW149034   3.386   7.603   5.757  0.1727 -1.7822 -0.7573
15296SOL    HW249035   3.259   7.684   5.744  0.6384 -0.6432  1.2783
15297SOL     OW49036   1.901   4.041   0.716  0.0610  0.3029  0.0974
15297SOL    HW149037   1.916   4.130   0.685  0.8023  0.1192 -0.0957
15297SOL    HW249038   1.902   4.048   0.811  0.1220  0.4979  0.0830
15298SOL     OW49039   7.736   2.308   2.033 -0.4468 -0.2806  0.0351
15298SOL    HW149040   7.694   2.368   2.094 -1.7878 -1.7372  0.6151
15298SOL    HW249041   7.698   2.222   2.053  1.2748 -1.3104 -0.8731
15299SOL     OW49042   6.833   3.117   1.580 -0.3112 -0.1672 -0.3270
15299SOL    HW149043   6.895   3.147   1.512 -1.3305  1.4999 -0.5736
15299SOL    HW249044   6.796   3.036   1.544 -0.5430  0.4748 -1.5927
15300SOL     OW49045   3.651   5.453   8.026  0.1028  0.0146  0.2873
15300SOL    HW149046   3.696   5.532   7.997 -0.3101 -0.6090 -2.2854
15300SOL    HW249047   3.565   5.485   8.056  0.1714  0.6072 -0.1238
15301SOL     OW49048   4.226   6.457   0.854 -0.2920  0.1511  0.5756
15301SOL    HW149049   4.316   6.443   0.884  0.2264  0.7362 -0.6460
15301SOL    HW249050   4.234   6.521   0.783 -1.6152 -0.1871  0.0943
15302SOL     OW49051   4.722   7.010   3.587  0.0720  0.1073 -0.3904
15302SOL    HW149052   4.679   6.957   3.520  0.6832  0.4930 -1.1003
15302SOL    HW249053   4.800   7.044   3.544 -0.0101  1.1218  0.2239
15303SOL     OW49054   0.570   0.345   1.039 -0.4049 -0.0262 -0.7466
15303SOL    HW149055   0.582   0.253   1.062  2.2863  0.4453  0.0341
15303SOL    HW249056   0.522   0.383   1.114  0.9087 -0.2590  0.2472
15304SOL     OW49057   3.468   2.375   2.662  0.3238 -0.1539  0.0245
15304SOL    HW149058   3.405   2.432   2.617 -1.6789 -2.5077 -0.3278
15304SOL    HW249059   3.419   2.337   2.734  1.5787 -1.4303  0.2477
15305SOL     OW49060   4.382   4.197   5.762  0.1639  0.1376  0.5864
15305SOL    HW149061   4.395   4.158   5.676  0.2926 -2.0224  1.5369
15305SOL    HW249062   4.439   4.274   5.762  1.6228 -0.8903 -0.5875
15306SOL     OW49063   3.397   5.919   0.610 -0.3764 -0.0335  0.1176
15306SOL    HW149064   3.480   5.879   0.585  1.7147  1.5336  3.7671
15306SOL    HW249065   3.357   5.946   0.527  2.5756 -1.1406 -1.8183
15307SOL     OW49066   2.602   2.045   4.745 -0.2304 -0.6715 -0.4292
15307SOL    HW149067   2.618   2.139   4.737  2.9721 -1.2422 -2.3246
15307SOL    HW249068   2.575   2.018   4.657 -1.1179 -1.5794  0.0989
15308SOL     OW49069   5.785   0.645   1.340 -0.1423  0.2243  0.3141
15308SOL    HW149070   5.709   0.606   1.384 -0.7983  0.6371 -0.4389
15308SOL    HW249071   5.818   0.710   1.403  0.4454 -0.9094  1.2190
15309SOL     OW49072   1.151   0.066   7.030  0.7308 -0.1009 -0.0539
15309SOL    HW149073   1.186   0.139   6.978  0.5360 -0.3149 -0.4910
15309SOL    HW249074   1.184  -0.012   6.986 -0.5320 -0.3145 -0.6528
15310SOL     OW49075   5.793   7.864   6.389 -0.2792  0.1140  0.0369
15310SOL    HW149076   5.853   7.794   6.416 -0.7644 -1.0375 -1.7272
15310SOL    HW249077   5.815   7.937   6.447  0.6111 -1.3021  1.5843
15311SOL     OW49078   2.860   3.307   6.473  0.1753  0.1061  0.3439
15311SOL    HW149079   2.861   3.222   6.517 -2.1491 -1.0476 -1.5988
15311SOL    HW249080   2.849   3.371   6.544  0.7270 -1.2843  1.7414
15312SOL     OW49081   4.409   7.608   8.047 -0.3129  0.0563 -0.5289
15312SOL    HW149082   4.434   7.593   8.138  1.3757 -0.9617 -1.1107
15312SOL    HW249083   4.345   7.540   8.027 -1.2454  0.7295  0.0718
15313SOL     OW49084   6.298   0.776   2.369 -0.2603  0.0997 -0.5940
15313SOL    HW149085   6.336   0.707   2.314  0.4273 -1.6419  1.8799
15313SOL    HW249086   6.204   0.756   2.372 -0.3557  0.3975 -1.3319
15314SOL     OW49087   3.687   4.441   4.452 -0.5992 -0.5493  0.0208
15314SOL    HW149088   3.721   4.356   4.480  0.2855  0.1776  1.2252
15314SOL    HW249089   3.762   4.485   4.410 -0.7407  0.0683  0.3996
15315SOL     OW49090   6.627   3.512   2.139  0.0299  0.2149  0.5715
15315SOL    HW149091   6.719   3.525   2.161  0.0986 -1.4730  1.4471
15315SOL    HW249092   6.584   3.497   2.223 -0.8272 -0.1752  0.0765
15316SOL     OW49093   5.580   6.484   3.410  0.5767 -0.2444 -0.1957
15316SOL    HW149094   5.532   6.401   3.408  0.5324 -0.2817  1.0962
15316SOL    HW249095   5.540   6.537   3.341 -0.1594 -0.8975 -0.2897
15317SOL     OW49096   0.129   2.538   6.353  0.3536 -0.6107 -0.6092
15317SOL    HW149097   0.141   2.632   6.364  0.0175 -0.7544  1.6058
15317SOL    HW249098   0.201   2.500   6.404 -0.5462 -1.5295 -0.0014
15318SOL     OW49099   1.114   7.662   6.869  0.5927  0.4221  0.3013
15318SOL    HW149100   1.103   7.640   6.777 -0.5569 -0.7816  0.6964
15318SOL    HW249101   1.028   7.648   6.908  1.0959  0.7268  1.6034
15319SOL     OW49102   7.624   6.337   0.164 -1.0012 -0.5901  0.3694
15319SOL    HW149103   7.604   6.429   0.181  0.6846 -0.0853 -0.1680
15319SOL    HW249104   7.539   6.297   0.146 -1.6515  1.1925 -0.8243
15320SOL     OW49105   6.897   1.060   1.608  0.0486 -0.2964  0.2549
15320SOL    HW149106   6.802   1.053   1.605 -0.0138 -0.3049  1.6693
15320SOL    HW249107   6.914   1.128   1.673  1.0102 -0.3351  0.0576
15321SOL     OW49108   3.414   6.221   3.901  0.0534 -0.0456 -0.5475
15321SOL    HW149109   3.501   6.185   3.882  1.4590  2.4105  0.8363
15321SOL    HW249110   3.385   6.173   3.979 -0.4721 -1.7775 -1.7521
15322SOL     OW49111   7.249   3.129   5.084 -0.2925  0.0790  0.0782
15322SOL    HW149112   7.232   3.066   5.014  1.1555  1.1612 -1.3097
15322SOL    HW249113   7.266   3.211   5.038  2.4067  0.4637  1.5692
15323SOL     OW49114   0.777   3.269   2.469 -0.3814  0.3617 -0.4755
15323SOL    HW149115   0.847   3.333   2.478 -1.0525  1.0942 -0.4114
15323SOL    HW249116   0.814   3.188   2.506  1.4141 -0.0589 -2.9503
15324SOL     OW49117   6.910   5.589   1.050  0.1430 -0.2281 -0.3914
15324SOL    HW149118   6.826   5.551   1.024  0.6061 -1.0885 -0.6691
15324SOL    HW249119   6.970   5.565   0.980  0.9672 -0.9292  0.5282
15325SOL     OW49120   5.298   6.549   3.559 -0.4961 -0.1232 -0.6102
15325SOL    HW149121   5.391   6.562   3.580 -0.7134 -1.2494  1.3225
15325SOL    HW249122   5.296   6.472   3.502 -0.2034  0.3821 -1.3169
15326SOL     OW49123   1.732   3.130   4.914  0.2108 -0.1835  0.0950
15326SOL    HW149124   1.767   3.140   4.825  0.1509  1.3420  0.2185
15326SOL    HW249125   1.800   3.167   4.970 -0.1418 -0.3317  0.6216
15327SOL     OW49126   6.295   6.306   5.747 -0.4816  0.3058 -0.0543
15327SOL    HW149127   6.353   6.345   5.681 -1.1117  2.5548  0.6333
15327SOL    HW249128   6.319   6.349   5.829 -0.0945 -2.0269  1.1721
15328SOL     OW49129   3.562   2.207   2.142 -0.3571  0.1176  0.3072
15328SOL    HW149130   3.526   2.129   2.100  1.3523 -1.0382  0.8800
15328SOL    HW249131   3.649   2.217   2.103 -0.6452  1.9038  0.0662
15329SOL     OW49132   6.220   0.639   5.488 -1.0904  0.1304 -0.2544
15329SOL    HW149133   6.249   0.650   5.579  0.0583  0.6701 -0.6570
15329SOL    HW249134   6.125   0.637   5.493 -1.0724  0.9276  0.8897
15330SOL     OW49135   7.614   3.355   5.117 -0.5731 -0.2199 -0.0946
15330SOL    HW149136   7.643   3.310   5.038 -1.2519 -2.5803  0.9267
15330SOL    HW249137   7.560   3.291   5.164  0.1174  0.9331  2.4778
15331SOL     OW49138   2.024   1.794   7.941 -0.3179 -0.1367  0.3764
15331SOL    HW149139   2.045   1.716   7.992  0.2538 -0.2649 -0.0335
15331SOL    HW249140   1.938   1.776   7.903 -0.3151 -0.4512  0.5135
15332SOL     OW49141   2.576   0.729   7.511  0.1795 -0.2697  0.0894
15332SOL    HW149142   2.631   0.683   7.447 -0.5242 -1.2146  0.1321
15332SOL    HW249143   2.637   0.766   7.574  0.8878  0.5412 -1.0297
15333SOL     OW49144   1.898   3.221   3.902  0.2205  0.5856  0.3986
15333SOL    HW149145   1.827   3.157   3.907 -0.0587  0.8210 -0.3954
15333SOL    HW249146   1.894   3.268   3.986  1.1901 -1.1909  1.4917
15334SOL     OW49147   6.990   5.132   4.253  0.2709  0.0057 -0.4218
15334SOL    HW149148   6.942   5.056   4.286  1.8483 -1.3412 -1.1283
15334SOL    HW249149   6.930   5.172   4.190 -0.9061 -0.1322  0.5589
15335SOL     OW49150   1.946   7.835   7.758 -0.2737 -0.0250 -0.0951
15335SOL    HW149151   1.913   7.855   7.670 -0.8111  0.5690  0.2335
15335SOL    HW249152   1.929   7.742   7.769  0.2164 -0.2071 -0.7986
15336SOL     OW49153   0.295   3.405   7.448 -0.0433  0.9360 -0.0405
15336SOL    HW149154   0.279   3.483   7.501 -1.2666  1.5825 -1.2913
15336SOL    HW249155   0.351   3.350   7.502  3.4321  3.8979 -0.2125
15337SOL     OW49156   1.544   0.871   2.603  0.0931 -0.7642 -0.0384
15337SOL    HW149157   1.578   0.829   2.682  2.6258  2.1110  0.5938
15337SOL    HW249158   1.505   0.953   2.634  0.5022  0.1042 -1.6606
15338SOL     OW49159   0.922   6.956   6.015 -0.2787  0.5300  0.1018
15338SOL    HW149160   0.848   7.007   6.048  0.0809 -0.3278  2.3884
15338SOL    HW249161   0.910   6.869   6.052  2.6877  0.7693  1.9410
15339SOL     OW49162   5.660   6.912   5.960  0.2326  0.2420  0.3537
15339SOL    HW149163   5.685   6.907   5.867  0.5431  0.5269  0.4190
15339SOL    HW249164   5.565   6.919   5.959  0.2704  0.7680  0.0372
15340SOL     OW49165   7.965   1.129   4.527  0.0878  0.5537  0.0385
15340SOL    HW149166   7.910   1.199   4.493  0.2756  0.4040 -0.5806
15340SOL    HW249167   8.054   1.162   4.520  0.2171  0.0727 -0.7208
15341SOL     OW49168   2.511   6.624   1.210 -0.1854  0.7994 -0.2119
15341SOL    HW149169   2.495   6.563   1.282 -0.3738  0.1990 -0.7574
15341SOL    HW249170   2.510   6.570   1.132 -0.9189  1.5722 -0.7631
15342SOL     OW49171   4.920   7.150   2.174  0.2331 -0.5145  0.6834
15342SOL    HW149172   4.855   7.146   2.244 -0.7049 -0.2861 -0.1392
15342SOL    HW249173   4.870   7.128   2.095  0.6601  1.7660 -0.2895
15343SOL     OW49174   4.509   5.387   4.310  0.2598  0.4501 -0.1207
15343SOL    HW149175   4.533   5.412   4.221 -0.9252  0.6607 -0.3984
15343SOL    HW249176   4.417   5.362   4.304  0.5859 -1.0774  0.7462
15344SOL     OW49177   2.942   3.864   0.101 -0.3565 -0.1762 -0.0404
15344SOL    HW149178   2.857   3.819   0.094  0.1755 -1.6030  1.6794
15344SOL    HW249179   2.945   3.893   0.193 -0.2501  2.6281 -0.8446
15345SOL     OW49180   7.555   4.694   5.811  0.5087 -0.0084 -0.3394
15345SOL    HW149181   7.508   4.752   5.871  1.0268 -0.1004  0.1640
15345SOL    HW249182   7.633   4.667   5.860  1.1384  0.2252 -1.1975
15346SOL     OW49183   1.224   2.448   0.701  0.1155 -0.0390  0.3030
15346SOL    HW149184   1.266   2.525   0.662 -1.0501 -0.3379 -1.6432
15346SOL    HW249185   1.200   2.476   0.789  1.7971  1.0506  0.4622
15347SOL     OW49186   0.027   4.149   1.812  0.1996  0.1169  0.2566
15347SOL    HW149187   0.063   4.217   1.869  0.4360  0.1704  0.0429
15347SOL    HW249188   0.063   4.168   1.726  1.0293 -0.8482  0.3777
15348SOL     OW49189   4.765   0.827   7.087 -0.4234 -0.7582 -0.1002
15348SOL    HW149190   4.796   0.870   7.007  2.0337  0.1430  1.2269
15348SOL    HW249191   4.815   0.745   7.090  0.6844 -0.0845  1.2057
15349SOL     OW49192   5.767   0.045   5.659  0.3327 -0.3858  0.2960
15349SOL    HW149193   5.858   0.035   5.632  0.5098  0.7552  0.3930
15349SOL    HW249194   5.728   0.100   5.591 -0.4265 -1.2949 -0.0199
15350SOL     OW49195   7.490   2.775   1.764  0.0386  0.1974  0.0734
15350SOL    HW149196   7.535   2.693   1.786 -0.4322 -0.9867 -2.8933
15350SOL    HW249197   7.473   2.817   1.849  2.0185 -1.8166  1.5771
15351SOL     OW49198   2.846   7.105   2.188 -0.6421 -0.4939  0.1767
15351SOL    HW149199   2.789   7.181   2.199  0.3694  0.3495 -0.2281
15351SOL    HW249200   2.861   7.073   2.277 -1.0510 -0.1963  0.3531
15352SOL     OW49201   8.069   5.826   1.693  0.4469  0.4230 -0.3391
15352SOL    HW149202   8.032   5.835   1.605 -2.1526  1.1363  0.7287
15352SOL    HW249203   8.099   5.735   1.697 -1.2307 -0.2203 -1.3392
15353SOL     OW49204   6.250   7.067   0.101  0.0099 -1.1471  0.0487
15353SOL    HW149205   6.214   7.051   0.189 -0.6798  0.2195  0.0435
15353SOL    HW249206   6.188   7.024   0.042  0.6758 -2.3954  0.2192
15354SOL     OW49207   6.847   0.231   7.563  0.5889  0.1622 -0.5882
15354SOL    HW149208   6.857   0.138   7.542 -1.7464 -0.7788  1.8901
15354SOL    HW249209   6.925   0.253   7.614  1.4866 -0.2014 -1.7591
15355SOL     OW49210   1.264   6.534   4.349 -0.2852 -0.3263 -0.3211
15355SOL    HW149211   1.268   6.449   4.392 -0.1839  0.3905  1.1598
15355SOL    HW249212   1.283   6.597   4.418  1.7891  0.8110 -1.8090
15356SOL     OW49213   3.719   5.994   5.322  0.1369 -0.9604  0.1834
15356SOL    HW149214   3.715   6.047   5.243 -1.6388 -0.0249  0.8475
15356SOL    HW249215   3.789   5.931   5.305  1.8376  1.1038 -0.9244
15357SOL     OW49216   7.352   6.668   0.879 -0.1598 -0.3398  0.6334
15357SOL    HW149217   7.441   6.637   0.896 -0.9168 -1.9854  1.8324
15357SOL    HW249218   7.313   6.679   0.966 -0.9520  1.0021  0.1503
15358SOL     OW49219   3.272   3.747   2.426  0.2624  0.0606 -0.2136
15358SOL    HW149220   3.317   3.759   2.343  0.7681 -1.7403 -0.2220
15358SOL    HW249221   3.224   3.665   2.417 -0.3094  0.2277  1.0121
15359SOL     OW49222   7.430   7.123   6.560 -0.2384 -0.0958 -0.1945
15359SOL    HW149223   7.372   7.170   6.499 -1.8178  0.6204  1.7709
15359SOL    HW249224   7.516   7.161   6.544 -1.2142  2.5365  0.2973
15360SOL     OW49225   4.429   2.586   0.231  0.3237  0.5102  0.8184
15360SOL    HW149226   4.354   2.541   0.193  1.2239  0.3093 -0.8028
15360SOL    HW249227   4.424   2.675   0.196  1.2419  0.2891  0.1058
15361SOL     OW49228   4.948   1.214   1.780 -0.2704 -0.0055 -0.5131
15361SOL    HW149229   5.014   1.183   1.718 -0.7256  0.2917 -1.1426
15361SOL    HW249230   4.954   1.310   1.776  0.2005  0.0214  0.4423
15362SOL     OW49231   3.035   3.369   5.839  0.1754  0.3394  0.0928
15362SOL    HW149232   2.958   3.317   5.818 -0.6235  1.4350  0.1737
15362SOL    HW249233   3.071   3.329   5.918 -0.8046  0.3080  0.5316
15363SOL     OW49234   5.834   2.402   1.108 -0.1117  0.2294 -0.3259
15363SOL    HW149235   5.773   2.373   1.041  0.8651  1.0703 -1.6290
15363SOL    HW249236   5.917   2.360   1.085  0.0158 -0.2948  0.9720
15364SOL     OW49237   8.051   1.205   2.138  0.1933  0.6291  0.3440
15364SOL    HW149238   8.007   1.126   2.107  1.8942 -0.1194 -0.2866
15364SOL    HW249239   7.987   1.275   2.126 -0.8098 -0.4067 -0.5048
15365SOL     OW49240   1.397   2.493   4.461  0.0367  0.0422  1.1905
15365SOL    HW149241   1.485   2.528   4.455  0.3914 -0.4551  2.9867
15365SOL    HW249242   1.364   2.496   4.371  2.3539 -1.0101  0.2250
15366SOL     OW49243   5.418   7.460   2.379  0.0349 -0.6884 -0.4579
15366SOL    HW149244   5.499   7.424   2.344  0.1968 -1.6779  0.8586
15366SOL    HW249245   5.349   7.416   2.330  0.2306 -2.8371  1.0497
15367SOL     OW49246   2.626   4.558   5.432  0.3875 -0.0846  0.5741
15367SOL    HW149247   2.716   4.568   5.463  0.4786  0.8726  0.0272
15367SOL    HW249248   2.574   4.610   5.493  0.5197  1.4676 -0.5806
15368SOL     OW49249   5.168   2.423   6.647 -0.0074 -0.3486  0.0001
15368SOL    HW149250   5.215   2.416   6.730 -0.6568  0.7523  0.4781
15368SOL    HW249251   5.129   2.510   6.648  0.9794  0.1677 -2.0104
15369SOL     OW49252   6.658   3.254   0.922  0.1718 -0.5671 -0.1689
15369SOL    HW149253   6.599   3.328   0.930 -2.3400 -2.3567 -0.7664
15369SOL    HW249254   6.636   3.197   0.995  0.1442 -1.9074 -1.1754
15370SOL     OW49255   3.590   2.352   3.031 -0.0037  0.1763 -0.1271
15370SOL    HW149256   3.526   2.316   3.091  2.5391 -1.0479  2.0733
15370SOL    HW249257   3.623   2.277   2.981 -1.4034  1.0364 -2.5249
15371SOL     OW49258   6.811   3.142   3.847 -0.4053  0.0939 -0.7451
15371SOL    HW149259   6.897   3.101   3.842 -1.2312 -1.7337 -0.8338
15371SOL    HW249260   6.793   3.171   3.757  0.9408  2.3910 -0.3419
15372SOL     OW49261   6.297   7.989   7.529 -0.1393 -0.1282 -0.3435
15372SOL    HW149262   6.293   7.913   7.587  0.4667  0.1962  0.1266
15372SOL    HW249263   6.324   7.953   7.445  0.2300 -0.4278 -0.0999
15373SOL     OW49264   0.474   7.813   7.938  0.3046  0.5854  0.2847
15373SOL    HW149265   0.529   7.790   7.864 -0.7246 -1.6582  0.1573
15373SOL    HW249266   0.445   7.903   7.919  1.4466  0.6903 -1.1241
15374SOL     OW49267   4.070   5.455   3.548  0.2416 -0.3324 -0.3920
15374SOL    HW149268   4.083   5.495   3.634 -0.3679  0.2955 -0.5895
15374SOL    HW249269   4.040   5.526   3.492  0.3073 -0.8099 -1.0483
15375SOL     OW49270   0.972   6.627   4.850 -0.1233 -0.2156  0.0488
15375SOL    HW149271   0.884   6.652   4.821  0.2503  1.7876  0.5456
15375SOL    HW249272   0.965   6.533   4.868 -1.4541 -0.7081 -2.4591
15376SOL     OW49273   3.423   3.487   0.555  0.3379 -0.4605 -0.1030
15376SOL    HW149274   3.465   3.564   0.518  0.8247 -1.4331 -1.6940
15376SOL    HW249275   3.468   3.413   0.513  0.6971 -1.6684  2.2227
15377SOL     OW49276   6.641   7.930   7.667  0.0811 -0.4534 -0.2661
15377SOL    HW149277   6.698   7.856   7.685  0.0184 -0.6947 -1.0282
15377SOL    HW249278   6.603   7.911   7.581  2.6811  2.0526 -2.1826
15378SOL     OW49279   7.803   4.445   6.460 -0.0472  0.2600 -0.3237
15378SOL    HW149280   7.859   4.369   6.478  0.4083  0.1234 -2.0976
15378SOL    HW249281   7.734   4.411   6.404 -0.7986  0.8404  0.2382
15379SOL     OW49282   0.097   6.125   6.952 -0.0495  0.2294  0.0495
15379SOL    HW149283   0.148   6.048   6.976  1.3704  1.3788  0.9561
15379SOL    HW249284   0.029   6.093   6.893  1.3258 -1.4796 -0.6758
15380SOL     OW49285   7.955   4.325   4.180  0.1611 -0.4340  0.0838
15380SOL    HW149286   7.896   4.270   4.128 -0.5264  0.0034  0.3904
15380SOL    HW249287   8.017   4.360   4.116 -0.8559  0.3295 -0.5019
15381SOL     OW49288   3.913   7.904   5.018  0.0837  0.3148  0.1522
15381SOL    HW149289   3.898   7.862   5.103  0.2839 -1.5501 -0.6796
15381SOL    HW249290   3.825   7.927   4.988 -0.0944 -0.0622  0.3669
15382SOL     OW49291   4.028   8.022   2.084 -0.0190 -0.2165  0.2347
15382SOL    HW149292   4.000   8.071   2.006  0.7219  2.4970  1.5762
15382SOL    HW249293   3.947   8.008   2.134 -0.1853 -0.1123 -0.0016
15383SOL     OW49294   7.433   0.788   6.455 -0.2065 -0.2971  0.2751
15383SOL    HW149295   7.498   0.826   6.514 -0.4875 -0.6266  0.8056
15383SOL    HW249296   7.472   0.794   6.368  0.4060 -0.2307  0.5538
15384SOL     OW49297   5.316   3.706   1.906  0.0517  0.3084  0.1476
15384SOL    HW149298   5.315   3.627   1.852  1.2590 -0.0818  0.6655
15384SOL    HW249299   5.350   3.677   1.990  2.7716  1.7797 -0.3384
15385SOL     OW49300   7.775   5.628   4.261 -0.8441 -0.4826  0.0481
15385SOL    HW149301   7.724   5.634   4.342  0.9292  1.1010  1.1138
15385SOL    HW249302   7.782   5.719   4.231  0.9430 -0.7193 -0.3053
15386SOL     OW49303   2.431   0.159   2.862 -0.1776 -0.0706 -0.4716
15386SOL    HW149304   2.463   0.090   2.804 -1.2084 -1.2323  0.2673
15386SOL    HW249305   2.340   0.173   2.835 -0.9269 -1.1716  1.2531
15387SOL     OW49306   6.047   5.397   6.610 -0.5236 -0.0979  0.7417
15387SOL    HW149307   6.080   5.471   6.660  2.1251  1.7459 -3.2043
15387SOL    HW249308   5.988   5.435   6.545  0.2953 -1.4958 -0.9130
15388SOL     OW49309   5.479   3.489   5.462 -1.0189  0.0238  0.3558
15388SOL    HW149310   5.440   3.522   5.381 -1.5038  0.1828  0.6475
15388SOL    HW249311   5.423   3.415   5.487  2.2379 -3.8264 -2.4183
15389SOL     OW49312   0.156   1.000   5.278  0.0780  0.2102  0.1783
15389SOL    HW149313   0.130   1.075   5.331  0.4638  1.2040 -0.9730
15389SOL    HW249314   0.249   0.989   5.296 -0.2427 -0.8551  1.3321
15390SOL     OW49315   4.810   7.960   5.024 -0.2080 -0.1006 -1.2716
15390SOL    HW149316   4.863   8.040   5.021 -0.2934 -0.0520 -1.5424
15390SOL    HW249317   4.720   7.992   5.027 -0.1990 -0.1524  0.7695
15391SOL     OW49318   7.132   1.750   7.282  0.3061 -0.2195 -0.2036
15391SOL    HW149319   7.087   1.747   7.366  1.2942 -1.3434  0.3139
15391SOL    HW249320   7.062   1.762   7.218 -0.6795 -1.3271  0.6240
15392SOL     OW49321   2.556   5.055   7.622  0.0675 -0.0287  0.2381
15392SOL    HW149322   2.503   5.132   7.602  0.0282 -0.0030  0.4463
15392SOL    HW249323   2.537   4.994   7.550 -1.0197 -0.4184  0.8328
15393SOL     OW49324   0.692   3.511   5.146  0.4976 -0.1760 -0.0165
15393SOL    HW149325   0.694   3.587   5.089  1.1093  1.4181  1.9935
15393SOL    HW249326   0.769   3.521   5.202  0.0657 -1.7570  0.9354
15394SOL     OW49327   0.167   2.744   2.633 -0.1642  0.0239  0.5210
15394SOL    HW149328   0.143   2.809   2.568 -0.5969 -0.1619  0.4961
15394SOL    HW249329   0.157   2.660   2.589 -1.2635 -0.1525  1.0648
15395SOL     OW49330   3.135   3.597   4.250 -0.4742  0.3365 -0.1281
15395SOL    HW149331   3.218   3.623   4.291  0.4490 -0.4688 -1.4411
15395SOL    HW249332   3.148   3.614   4.157 -2.5774  2.2481 -0.1582
15396SOL     OW49333   7.151   0.120   2.370 -0.0666  0.3760  0.2843
15396SOL    HW149334   7.076   0.078   2.414 -0.3893  0.0066 -0.6063
15396SOL    HW249335   7.171   0.195   2.426 -1.0331  0.4163  0.6075
15397SOL     OW49336   2.800   1.746   2.039  0.1377 -0.5979 -0.0818
15397SOL    HW149337   2.716   1.714   2.072  0.0951 -0.3746  0.0298
15397SOL    HW249338   2.833   1.674   1.984 -0.4693 -0.3951 -0.7290
15398SOL     OW49339   6.586   5.552   7.115 -1.0711 -0.1944 -0.0794
15398SOL    HW149340   6.526   5.478   7.120 -0.8417 -0.6588 -2.7299
15398SOL    HW249341   6.536   5.622   7.072 -0.8617  0.7338  1.1478
15399SOL     OW49342   2.302   2.005   5.184 -0.0713  0.3615  0.1211
15399SOL    HW149343   2.340   1.941   5.244  0.7354  1.1426  0.4708
15399SOL    HW249344   2.360   2.081   5.190 -0.4690  0.7800 -0.9981
15400SOL     OW49345   5.186   0.695   1.845  0.4448 -0.0997  0.0343
15400SOL    HW149346   5.097   0.677   1.876  0.4902 -0.3109  0.0452
15400SOL    HW249347   5.176   0.766   1.782  0.1376 -0.8173 -0.7469
15401SOL     OW49348   6.820   0.200   1.782 -0.7311 -0.5332 -0.2329
15401SOL    HW149349   6.868   0.283   1.778 -1.6384  0.2097  2.2979
15401SOL    HW249350   6.764   0.202   1.704 -0.3971  1.0108 -0.4754
15402SOL     OW49351   4.739   2.771   0.013 -0.1077  0.1809  0.7282
15402SOL    HW149352   4.833   2.764   0.031 -0.2160  0.1249  1.3214
15402SOL    HW249353   4.711   2.849   0.061 -0.0365  1.2530 -0.9336
15403SOL     OW49354   2.979   2.834   7.191 -0.2823 -0.5177 -0.1501
15403SOL    HW149355   3.027   2.902   7.236 -0.6704 -0.3862  0.0675
15403SOL    HW249356   2.927   2.880   7.125  2.2887 -0.8804 -2.6609
15404SOL     OW49357   4.350   1.690   4.418  0.3270  0.3808 -0.8324
15404SOL    HW149358   4.271   1.658   4.375  0.6590 -0.5011 -0.8057
15404SOL    HW249359   4.374   1.621   4.479  0.8278  0.8691 -0.4578
15405SOL     OW49360   7.202   5.832   1.783  0.0633  0.0034 -0.0498
15405SOL    HW149361   7.291   5.804   1.762  0.2903  1.9399 -1.9339
15405SOL    HW249362   7.213   5.890   1.859  0.0323 -1.7767  1.3876
15406SOL     OW49363   5.149   0.520   6.483  0.0808 -0.4729 -0.1242
15406SOL    HW149364   5.085   0.481   6.541  1.6147 -0.7200  1.4873
15406SOL    HW249365   5.124   0.490   6.396 -1.2592 -1.5214  0.5884
15407SOL     OW49366   1.542   3.067   0.120 -0.4216  0.0073  0.0033
15407SOL    HW149367   1.454   3.038   0.143 -0.4115 -0.2533 -0.2735
15407SOL    HW249368   1.529   3.127   0.047 -0.4987  1.2571  1.0156
15408SOL     OW49369   7.826   2.220   6.868 -0.2001 -0.3514 -0.0775
15408SOL    HW149370   7.764   2.155   6.834 -1.1187  0.3308  0.2643
15408SOL    HW249371   7.815   2.296   6.811  0.2165 -0.1638  0.0852
15409SOL     OW49372   8.003   5.176   0.311 -1.0280 -0.0706 -0.0338
15409SOL    HW149373   8.034   5.221   0.390 -1.5438  0.0237  0.1172
15409SOL    HW249374   8.003   5.244   0.243 -0.9081 -0.0698 -0.0325
15410SOL     OW49375   4.442   5.105   6.495 -0.1345 -0.1374 -0.3798
15410SOL    HW149376   4.468   5.185   6.449 -1.6588  0.9990  0.6597
15410SOL    HW249377   4.376   5.065   6.438 -0.3578  0.0636 -0.2628
15411SOL     OW49378   7.772   1.942   5.617  0.4729  0.0540  0.8496
15411SOL    HW149379   7.729   1.946   5.703 -0.1586 -0.3091  0.5585
15411SOL    HW249380   7.830   1.866   5.624  0.9031  0.4068  1.1666
15412SOL     OW49381   2.330   6.748   3.444  0.2225 -0.0935 -0.2558
15412SOL    HW149382   2.268   6.819   3.465  0.7615  0.1190  0.6938
15412SOL    HW249383   2.385   6.785   3.375 -1.0998 -0.5211 -1.5947
15413SOL     OW49384   3.003   7.242   6.418  0.4121 -0.1621  0.0677
15413SOL    HW149385   2.980   7.334   6.430 -0.2301 -0.1250 -1.2516
15413SOL    HW249386   3.096   7.236   6.441  0.6140  0.9337 -0.4432
15414SOL     OW49387   2.840   2.997   6.999 -0.1671  0.1261 -0.2460
15414SOL    HW149388   2.905   3.035   6.940  0.6151 -1.0075 -0.1559
15414SOL    HW249389   2.787   3.071   7.027  0.2254  0.8776 -1.3904
15415SOL     OW49390   3.286   3.837   6.857  0.7477 -0.2963  0.3062
15415SOL    HW149391   3.194   3.836   6.832  0.8432 -0.1433 -0.0505
15415SOL    HW249392   3.286   3.867   6.948  0.3956 -0.9240  0.5258
15416SOL     OW49393   5.622   6.343   7.150  1.0647  0.5675 -0.1578
15416SOL    HW149394   5.552   6.364   7.089  1.5983  0.3949 -0.8360
15416SOL    HW249395   5.647   6.428   7.188 -0.4865  0.4704  1.1930
15417SOL     OW49396   5.207   7.330   4.481  0.2858 -0.0386 -0.0347
15417SOL    HW149397   5.167   7.268   4.542 -0.4262  0.0918 -0.3462
15417SOL    HW249398   5.279   7.281   4.441 -0.2405 -0.6674 -0.2510
15418SOL     OW49399   7.845   3.053   5.301  0.3378 -0.8331  0.3673
15418SOL    HW149400   7.829   2.962   5.325  0.4206 -1.0878 -0.5187
15418SOL    HW249401   7.824   3.057   5.208 -0.0448  0.1450  0.4816
15419SOL     OW49402   0.181   4.432   3.651  0.2167 -0.3374  0.1924
15419SOL    HW149403   0.272   4.407   3.666  0.1396 -0.6659  0.1112
15419SOL    HW249404   0.135   4.350   3.635 -0.0382 -0.1469 -0.0703
15420SOL     OW49405   6.459   3.821   1.165 -0.2090 -0.0975  0.0571
15420SOL    HW149406   6.482   3.871   1.087 -0.6293 -0.0513 -0.0390
15420SOL    HW249407   6.383   3.867   1.201 -0.0573 -0.1564  0.4576
15421SOL     OW49408   5.467   5.394   4.276  0.8724 -0.5618  0.2487
15421SOL    HW149409   5.423   5.449   4.341  1.3503 -0.1639  0.2386
15421SOL    HW249410   5.543   5.445   4.249 -0.3674  0.1889 -2.0971
15422SOL     OW49411   1.276   2.561   3.380  0.1841 -0.4009  0.0794
15422SOL    HW149412   1.371   2.568   3.392  0.1238  0.0297  0.3441
15422SOL    HW249413   1.263   2.474   3.342  0.4324 -1.9707  3.1711
15423SOL     OW49414   0.174   7.359   4.101 -0.8135 -0.4617  0.1148
15423SOL    HW149415   0.149   7.443   4.138 -0.6885 -0.0895 -0.6400
15423SOL    HW249416   0.091   7.314   4.086 -0.9140 -0.1786 -0.1725
15424SOL     OW49417   4.269   2.634   4.825 -0.2316 -0.2458  0.1442
15424SOL    HW149418   4.242   2.562   4.767  0.8365 -0.8669  0.3918
15424SOL    HW249419   4.207   2.630   4.898  0.1965 -1.3389  0.4681
15425SOL     OW49420   1.966   7.004   2.740  0.5473  0.1463 -0.4815
15425SOL    HW149421   2.013   7.073   2.787  0.7914 -0.7431  0.6161
15425SOL    HW249422   1.973   7.029   2.648  0.2095  1.8519 -0.0905
15426SOL     OW49423   1.874   0.464   5.575 -0.3065 -0.7036 -0.4933
15426SOL    HW149424   1.865   0.505   5.489  1.1350 -1.0291 -0.8154
15426SOL    HW249425   1.788   0.475   5.615 -0.5498  0.8491 -1.3552
15427SOL     OW49426   7.590   0.969   2.058  0.3447 -0.3549  0.8914
15427SOL    HW149427   7.639   1.051   2.051  0.0512 -0.0338  2.3332
15427SOL    HW249428   7.565   0.964   2.150 -0.7498 -1.4350  0.5540
15428SOL     OW49429   1.262   0.551   6.674 -0.0430 -0.0473 -0.8086
15428SOL    HW149430   1.252   0.547   6.579  1.4604  2.1563 -1.1390
15428SOL    HW249431   1.182   0.595   6.705 -0.3221 -0.3469 -1.0974
15429SOL     OW49432   0.254   2.294   0.774  0.1622  0.5692 -0.1791
15429SOL    HW149433   0.176   2.305   0.829 -0.6604 -2.1671 -0.6207
15429SOL    HW249434   0.231   2.334   0.691  0.2412  1.9999  0.4527
15430SOL     OW49435   0.852   0.539   2.620 -0.2328  0.4187  0.0447
15430SOL    HW149436   0.776   0.492   2.584 -0.1355  0.6260 -0.4333
15430SOL    HW249437   0.925   0.511   2.565  0.1319 -0.1600  0.8101
15431SOL     OW49438   3.863   1.205   3.715  0.6678 -0.6312 -0.2059
15431SOL    HW149439   3.915   1.216   3.636 -0.1004 -1.6223 -0.8916
15431SOL    HW249440   3.872   1.287   3.762  1.1644 -0.0254 -1.3180
15432SOL     OW49441   6.162   2.996   2.848  0.1447  0.2082 -0.3811
15432SOL    HW149442   6.254   2.982   2.868  0.2186  0.0661 -0.8076
15432SOL    HW249443   6.131   2.911   2.817 -0.2960  0.0799  0.3740
15433SOL     OW49444   7.092   5.506   2.974 -0.1595  0.2980  0.1231
15433SOL    HW149445   7.087   5.414   2.948 -1.4129  0.3571  0.0571
15433SOL    HW249446   7.058   5.506   3.064 -2.7032  0.9798 -0.7323
15434SOL     OW49447   2.016   6.107   3.188  0.3830  0.4388  0.0437
15434SOL    HW149448   2.000   6.090   3.281  0.2450  2.6751  0.4846
15434SOL    HW249449   2.102   6.147   3.185  1.3505 -1.5886 -1.0981
15435SOL     OW49450   8.076   7.902   5.610  0.2695 -0.2284 -0.0089
15435SOL    HW149451   8.009   7.949   5.560 -0.3695 -0.4469  0.6235
15435SOL    HW249452   8.120   7.847   5.545  2.2755  2.4956 -1.1668
15436SOL     OW49453   2.195   4.905   1.274  0.0971 -0.1399 -0.1391
15436SOL    HW149454   2.127   4.880   1.212  1.2537 -0.1816 -1.4247
15436SOL    HW249455   2.213   4.997   1.254  0.8352 -0.2957 -0.2261
15437SOL     OW49456   3.680   6.517   5.955 -0.0969  0.4190  0.1993
15437SOL    HW149457   3.747   6.540   6.019 -1.2436 -1.7376  2.3233
15437SOL    HW249458   3.614   6.470   6.005 -1.7766 -0.1159 -2.3436
15438SOL     OW49459   6.013   7.513   4.415 -0.3603  0.3438  0.6602
15438SOL    HW149460   6.085   7.509   4.353 -0.4077 -1.6807  0.6726
15438SOL    HW249461   5.949   7.571   4.373  1.3551  2.4908  0.8224
15439SOL     OW49462   2.329   3.724   2.674 -0.4504  0.1873 -0.1464
15439SOL    HW149463   2.274   3.801   2.658  0.2304  0.4556 -1.3322
15439SOL    HW249464   2.418   3.758   2.678  0.0225 -0.6386 -2.0620
15440SOL     OW49465   4.854   7.026   8.019  0.3622 -0.6651 -0.2844
15440SOL    HW149466   4.770   6.979   8.020  0.4773 -0.8546  0.6946
15440SOL    HW249467   4.853   7.073   7.935 -2.0176  1.6904  0.9254
15441SOL     OW49468   7.291   1.864   0.772  0.0827 -0.4482 -0.2517
15441SOL    HW149469   7.334   1.784   0.741 -0.5672 -1.3859  1.1640
15441SOL    HW249470   7.272   1.846   0.865  1.2820  1.9232  0.5233
15442SOL     OW49471   7.732   5.328   2.354 -0.4845  0.1594  0.2718
15442SOL    HW149472   7.677   5.251   2.341  0.0525 -0.1241 -0.4046
15442SOL    HW249473   7.684   5.382   2.417 -2.4011  0.7226 -1.5094
15443SOL     OW49474   4.183   4.824   1.222 -0.0486 -0.1028 -0.2455
15443SOL    HW149475   4.245   4.896   1.237 -0.8350  1.0065 -2.0781
15443SOL    HW249476   4.229   4.746   1.254  0.9366  1.1304  1.5318
15444SOL     OW49477   2.469   1.227   0.123 -0.2443  0.3132  0.0507
15444SOL    HW149478   2.452   1.321   0.133  0.2260  0.3974  0.0861
15444SOL    HW249479   2.560   1.222   0.093 -0.8946 -0.0257 -2.1067
15445SOL     OW49480   7.422   7.903   1.809 -0.3263  0.0088  0.5376
15445SOL    HW149481   7.387   7.982   1.852 -1.4538 -0.0882 -0.1586
15445SOL    HW249482   7.377   7.900   1.725  0.3082 -0.9472  0.2221
15446SOL     OW49483   4.126   7.726   0.487 -0.1232 -0.3928 -0.0511
15446SOL    HW149484   4.169   7.765   0.564  1.6293  0.0943 -1.2225
15446SOL    HW249485   4.043   7.773   0.480 -0.6293 -0.8994  1.9116
15447SOL     OW49486   2.707   7.090   7.259 -0.2158  0.4599  0.7382
15447SOL    HW149487   2.708   7.054   7.170 -1.5260 -1.0986  1.3044
15447SOL    HW249488   2.626   7.141   7.263 -0.1915  0.4738  1.0625
15448SOL     OW49489   1.992   6.386   5.208  0.2221  0.2455 -0.0302
15448SOL    HW149490   1.900   6.386   5.183 -0.4683 -1.1701  2.2251
15448SOL    HW249491   2.004   6.469   5.254  0.0097  0.2938 -0.0602
15449SOL     OW49492   2.393   6.264   4.769  0.1811  0.7861 -0.0537
15449SOL    HW149493   2.320   6.299   4.821  0.0731 -1.0441  1.1006
15449SOL    HW249494   2.439   6.206   4.830  0.3314 -1.0816 -1.8599
15450SOL     OW49495   3.433   6.628   6.258  0.2863  0.6104  0.2026
15450SOL    HW149496   3.480   6.647   6.339 -1.0408  4.2144  0.3402
15450SOL    HW249497   3.437   6.710   6.208 -0.7941 -0.8016 -2.4061
15451SOL     OW49498   0.406   1.335   7.431  0.1269  0.1481  0.1591
15451SOL    HW149499   0.418   1.430   7.423  0.8326  0.0150 -0.4937
15451SOL    HW249500   0.322   1.317   7.390 -0.2621  0.5551  0.7655
15452SOL     OW49501   2.509   2.267   1.994 -0.1834 -0.0339 -0.1598
15452SOL    HW149502   2.521   2.172   1.997 -2.6129 -0.3963  0.5460
15452SOL    HW249503   2.501   2.288   1.901 -0.8020 -0.7265 -0.2729
15453SOL     OW49504   6.037   2.531   6.117 -0.1066 -0.1452  0.1164
15453SOL    HW149505   5.990   2.468   6.172  0.5104 -0.2333  0.5474
15453SOL    HW249506   6.024   2.499   6.027  1.0884 -1.5117  0.3885
15454SOL     OW49507   5.449   6.934   2.705 -0.1897  0.1841 -0.1701
15454SOL    HW149508   5.544   6.947   2.699  0.1416 -1.6054  0.7658
15454SOL    HW249509   5.412   7.007   2.654  1.6528  1.1826 -0.1605
15455SOL     OW49510   6.688   5.441   1.706  0.1764  0.6660  0.4487
15455SOL    HW149511   6.701   5.362   1.759 -1.2634 -0.6319 -1.0054
15455SOL    HW249512   6.598   5.467   1.725 -0.0751  0.6673 -0.7140
15456SOL     OW49513   5.413   7.872   1.751 -0.2107 -0.4638  0.0191
15456SOL    HW149514   5.500   7.886   1.713 -0.1068 -0.7757  0.1399
15456SOL    HW249515   5.421   7.790   1.800 -1.0597 -1.4657 -1.4361
15457SOL     OW49516   0.999   3.666   7.755 -0.2521  0.3920 -0.1883
15457SOL    HW149517   0.953   3.584   7.774 -1.0861  0.4351 -1.8403
15457SOL    HW249518   1.084   3.639   7.722  0.5232  0.2889  1.7541
15458SOL     OW49519   0.408   1.847   5.219 -0.2304  0.2424 -0.4860
15458SOL    HW149520   0.356   1.923   5.247 -2.0720 -1.2120  0.2385
15458SOL    HW249521   0.346   1.792   5.172  0.6479 -1.5710  0.3930
15459SOL     OW49522   7.911   1.578   4.116  0.4490  0.4768  0.5576
15459SOL    HW149523   7.843   1.620   4.168 -0.5202  0.3156 -0.5389
15459SOL    HW249524   7.936   1.501   4.168  2.2705  2.3269  2.6032
15460SOL     OW49525   2.978   3.311   3.409 -0.4822 -0.2083 -0.2752
15460SOL    HW149526   2.911   3.246   3.433 -0.6243  0.1366  0.2910
15460SOL    HW249527   3.016   3.338   3.493 -0.5316  0.5469 -0.4902
15461SOL     OW49528   1.344   0.527   5.633  0.5047 -0.7719  0.3273
15461SOL    HW149529   1.289   0.492   5.703  0.2981 -0.6912  0.2080
15461SOL    HW249530   1.283   0.543   5.561  0.1061  2.2256  1.1980
15462SOL     OW49531   2.001   5.940   5.119 -0.2569  0.4611  0.3751
15462SOL    HW149532   1.919   5.988   5.127  0.0185  1.0413 -0.1801
15462SOL    HW249533   2.068   6.005   5.140  0.1670  0.5627 -1.1561
15463SOL     OW49534   1.777   1.481   7.616 -0.6672  0.4719 -0.2680
15463SOL    HW149535   1.808   1.528   7.694  0.0684  1.8806 -1.3525
15463SOL    HW249536   1.720   1.412   7.650  1.2280 -0.2571  1.6423
15464SOL     OW49537   5.198   3.375   7.218 -0.1362 -0.3061  0.4246
15464SOL    HW149538   5.154   3.314   7.277  0.8219 -0.3853  1.0793
15464SOL    HW249539   5.262   3.420   7.273  1.1230 -0.7231 -0.6449
15465SOL     OW49540   3.668   3.950   0.699 -0.2480  0.0921 -0.4801
15465SOL    HW149541   3.743   3.907   0.659 -0.1036  0.1008 -0.2230
15465SOL    HW249542   3.683   4.043   0.684  1.1922  0.3419  1.8644
15466SOL     OW49543   5.257   2.981   4.708 -0.2759  0.0379 -0.4566
15466SOL    HW149544   5.351   2.996   4.697 -0.3133 -0.2438 -1.1902
15466SOL    HW249545   5.243   2.891   4.679 -0.7470  0.0174 -0.1794
15467SOL     OW49546   3.527   5.841   2.612  0.3547  0.6188  0.2418
15467SOL    HW149547   3.516   5.926   2.655  0.9029  0.8528 -0.0687
15467SOL    HW249548   3.552   5.782   2.682  0.9705  0.9384  0.3009
15468SOL     OW49549   0.836   5.271   6.458  0.0869 -0.5997 -0.1509
15468SOL    HW149550   0.848   5.219   6.537 -1.2111  0.4491  0.7911
15468SOL    HW249551   0.787   5.215   6.399 -0.6829 -0.7013  0.5750
15469SOL     OW49552   1.489   8.095   2.179 -0.0125  0.0354  0.4355
15469SOL    HW149553   1.529   8.159   2.119 -0.4613 -0.3181 -0.2446
15469SOL    HW249554   1.489   8.140   2.264 -1.9025  1.6454 -0.3395
15470SOL     OW49555   0.400   6.131   0.193  0.3054  0.2550  0.2150
15470SOL    HW149556   0.449   6.124   0.275 -1.8541 -0.5058  1.5070
15470SOL    HW249557   0.339   6.202   0.207  0.3856  0.6124 -1.0519
15471SOL     OW49558   2.105   4.611   0.399 -0.2478  0.0769  0.0370
15471SOL    HW149559   2.102   4.583   0.490  0.2003  0.2361  0.1063
15471SOL    HW249560   2.103   4.530   0.348 -2.1184  0.0367  0.1285
15472SOL     OW49561   2.619   1.271   0.982 -0.3092  0.7290 -0.4471
15472SOL    HW149562   2.654   1.209   0.918 -2.1011  0.2677 -1.0467
15472SOL    HW249563   2.644   1.357   0.949 -1.4060  0.5143 -1.9632
15473SOL     OW49564   2.618   0.395   4.731  0.2827 -0.2630 -0.2328
15473SOL    HW149565   2.673   0.452   4.786  1.4203  0.0119 -1.5966
15473SOL    HW249566   2.642   0.306   4.758  0.8015 -0.1307 -0.2418
15474SOL     OW49567   2.414   5.318   2.555 -0.3364 -0.0044  0.6856
15474SOL    HW149568   2.444   5.291   2.468 -0.5556 -1.0542  0.9228
15474SOL    HW249569   2.415   5.237   2.607  2.9844  1.0563  2.6223
15475SOL     OW49570   7.870   3.625   0.612 -0.0746 -0.2062  0.3039
15475SOL    HW149571   7.885   3.544   0.564 -2.0074  0.0058 -0.7618
15475SOL    HW249572   7.895   3.694   0.552 -1.4697  0.0342 -0.0306
15476SOL     OW49573   0.645   5.959   6.045 -0.6740 -0.0148  0.0298
15476SOL    HW149574   0.626   5.994   5.958  1.5133  1.2049 -0.0387
15476SOL    HW249575   0.575   5.897   6.062 -3.2266  2.3446 -1.0857
15477SOL     OW49576   7.591   3.820   1.958  0.1868  0.3090 -0.5328
15477SOL    HW149577   7.573   3.811   1.865 -0.1529 -0.4150 -0.4046
15477SOL    HW249578   7.538   3.752   2.000  0.5842  0.4108  0.1569
15478SOL     OW49579   0.123   6.816   4.818 -0.4284  0.6590  0.5071
15478SOL    HW149580   0.129   6.785   4.728 -1.3574  1.1552  0.2593
15478SOL    HW249581   0.167   6.901   4.817  1.1349 -0.1065  0.9390
15479SOL     OW49582   6.210   3.617   6.517  0.2725 -0.2448 -0.2062
15479SOL    HW149583   6.200   3.524   6.539  1.6313 -0.5200 -0.6406
15479SOL    HW249584   6.214   3.661   6.602 -0.4371 -0.5668  0.0031
15480SOL     OW49585   3.802   1.140   5.013  0.2982 -0.1601 -0.0660
15480SOL    HW149586   3.774   1.078   4.946  0.9907 -0.2719 -0.2628
15480SOL    HW249587   3.898   1.130   5.016  0.3581  0.4805  0.3058
15481SOL     OW49588   0.545   3.821   2.780 -0.5954 -0.2466  0.4353
15481SOL    HW149589   0.517   3.803   2.690 -0.8160 -0.1025  0.4750
15481SOL    HW249590   0.604   3.895   2.773 -1.1681  0.2210  0.4894
15482SOL     OW49591   6.413   0.485   2.580 -0.2603 -0.0013  0.4289
15482SOL    HW149592   6.440   0.577   2.589 -1.0878  0.2588  0.3274
15482SOL    HW249593   6.413   0.470   2.486 -2.7546  0.7315  0.2463
15483SOL     OW49594   4.079   0.685   2.503  0.1738 -0.6210  0.1442
15483SOL    HW149595   4.094   0.771   2.542 -1.1211 -0.9996  1.5919
15483SOL    HW249596   3.984   0.672   2.509  0.4602 -2.7668  1.4158
15484SOL     OW49597   4.135   1.082   0.218 -0.3187  0.2928  0.8187
15484SOL    HW149598   4.181   0.998   0.214  1.3008  1.1558  0.4275
15484SOL    HW249599   4.061   1.072   0.157  1.5283  0.0857 -1.5214
15485SOL     OW49600   2.740   2.748   0.691 -0.1431 -0.2158 -0.3126
15485SOL    HW149601   2.756   2.786   0.605 -2.6426  0.0853 -0.7059
15485SOL    HW249602   2.663   2.692   0.679  1.2352 -2.6144  1.0795
15486SOL     OW49603   0.330   7.536   6.916 -0.8081  0.0359  0.0555
15486SOL    HW149604   0.296   7.457   6.959 -1.2724  0.6019  0.7542
15486SOL    HW249605   0.395   7.571   6.977 -0.0547 -0.2027 -0.5919
15487SOL     OW49606   2.131   0.862   3.072  0.2112  0.4101  0.4184
15487SOL    HW149607   2.072   0.923   3.028  2.4944  3.4966  1.3235
15487SOL    HW249608   2.128   0.887   3.164  0.3757 -1.6509  1.0259
15488SOL     OW49609   6.127   5.326   7.214 -0.1585  0.1490  0.1105
15488SOL    HW149610   6.180   5.400   7.186 -1.0277  0.7813  0.0792
15488SOL    HW249611   6.037   5.358   7.206 -0.5326 -0.8553  0.2702
15489SOL     OW49612   3.240   0.729   7.829  0.4231  0.0153 -0.4052
15489SOL    HW149613   3.219   0.802   7.771 -0.0025 -0.6805 -1.1432
15489SOL    HW249614   3.163   0.719   7.885  0.0735 -0.4898 -0.9666
15490SOL     OW49615   2.151   2.319   2.947 -0.6085 -0.1390 -0.8033
15490SOL    HW149616   2.231   2.321   2.999 -0.5711  0.3817 -0.8761
15490SOL    HW249617   2.132   2.226   2.936 -0.0957 -0.2638 -0.6637
15491SOL     OW49618   3.750   6.517   0.178  0.0862 -0.5336  0.0694
15491SOL    HW149619   3.682   6.560   0.230 -1.4640 -0.4234 -1.9314
15491SOL    HW249620   3.702   6.473   0.108  2.1458  0.7765 -2.3031
15492SOL     OW49621   5.834   6.406   5.498 -0.4329 -0.2135  0.4606
15492SOL    HW149622   5.811   6.317   5.526 -0.4268 -0.0853  0.8808
15492SOL    HW249623   5.926   6.416   5.522 -0.3020 -0.2522 -0.0065
15493SOL     OW49624   7.618   2.400   7.025 -0.4387 -0.9242 -0.2316
15493SOL    HW149625   7.706   2.427   6.999 -0.7733 -0.9040 -1.4054
15493SOL    HW249626   7.584   2.474   7.076 -1.0269  0.6170 -2.6769
15494SOL     OW49627   1.192   5.247   5.496 -0.6805 -0.6527 -0.3726
15494SOL    HW149628   1.118   5.305   5.483 -0.1406  0.1830  0.1465
15494SOL    HW249629   1.267   5.306   5.510  0.3191 -1.4534 -2.0655
15495SOL     OW49630   1.336   7.523   2.139 -1.1181 -0.2166 -0.5051
15495SOL    HW149631   1.401   7.593   2.129 -0.8790 -0.2724  0.5367
15495SOL    HW249632   1.357   7.482   2.223 -0.7103 -2.1127 -1.4673
15496SOL     OW49633   5.698   8.023   3.582  0.3526 -0.1494 -0.8338
15496SOL    HW149634   5.610   8.003   3.549  0.0508 -0.7750  0.2999
15496SOL    HW249635   5.746   8.053   3.504 -1.6032  2.9414 -1.0164
15497SOL     OW49636   0.790   7.235   7.362  0.7210 -0.0542 -0.0682
15497SOL    HW149637   0.760   7.284   7.285 -0.2847 -0.6449 -0.0637
15497SOL    HW249638   0.809   7.303   7.427 -0.6338  0.3491 -0.0689
15498SOL     OW49639   6.772   2.976   4.826 -0.6794 -0.5182  0.0095
15498SOL    HW149640   6.747   2.940   4.911 -1.2597  0.4562  0.2713
15498SOL    HW249641   6.775   2.901   4.767  0.8917 -1.4019  1.1366
15499SOL     OW49642   3.277   3.044   7.904 -0.1505  0.0696 -0.5786
15499SOL    HW149643   3.282   3.135   7.877  0.5963 -0.1396 -1.1721
15499SOL    HW249644   3.198   3.011   7.860 -1.4108  0.8478  0.9985
15500SOL     OW49645   0.610   4.275   3.825  0.2473 -0.0008  0.3747
15500SOL    HW149646   0.641   4.342   3.885  0.9138  0.7858 -0.8176
15500SOL    HW249647   0.516   4.293   3.815  0.5534  1.2360 -0.4970
15501SOL     OW49648   7.527   1.156   5.143 -0.5228 -0.0899 -0.3073
15501SOL    HW149649   7.442   1.130   5.178  0.1787 -1.3753  0.5122
15501SOL    HW249650   7.556   1.082   5.091 -1.0977  1.4065 -2.9726
15502SOL     OW49651   7.213   2.931   5.770 -0.3809 -0.5380  0.2366
15502SOL    HW149652   7.152   2.993   5.729  0.3509 -0.1915 -0.3454
15502SOL    HW249653   7.253   2.980   5.842 -1.7674 -1.1875  1.5163
15503SOL     OW49654   7.983   4.995   7.298  0.6242 -0.3705  0.1092
15503SOL    HW149655   7.968   4.925   7.362 -1.4472  0.6267  0.8387
15503SOL    HW249656   8.043   4.958   7.234  2.8396 -1.4124  2.6278
15504SOL     OW49657   7.213   4.890   2.631 -0.0708 -0.0124  0.0007
15504SOL    HW149658   7.288   4.926   2.584 -0.5878 -0.9802 -1.6612
15504SOL    HW249659   7.245   4.809   2.670  0.5491  1.1348  2.0252
15505SOL     OW49660   2.497   7.154   3.820 -0.1862  0.0982  0.1791
15505SOL    HW149661   2.425   7.148   3.883  1.4609  0.2373  2.2269
15505SOL    HW249662   2.458   7.133   3.736 -2.2984 -1.3389  1.4161
15506SOL     OW49663   7.068   7.000   6.225 -0.2990  0.2875  0.4135
15506SOL    HW149664   7.061   7.093   6.249 -0.4675  0.2805  0.3936
15506SOL    HW249665   7.069   7.000   6.129  2.2497  0.4588  0.3559
15507SOL     OW49666   3.590   5.350   6.816 -0.2523  0.5036 -0.5618
15507SOL    HW149667   3.655   5.303   6.868 -0.6225  0.5551 -0.0528
15507SOL    HW249668   3.641   5.413   6.765  0.1028  0.5233 -0.1847
15508SOL     OW49669   2.878   5.812   5.708  0.0562  0.1883  0.2067
15508SOL    HW149670   2.973   5.820   5.718  0.1721 -2.1067  1.6770
15508SOL    HW249671   2.859   5.722   5.732 -2.6262  0.8528  0.9132
15509SOL     OW49672   1.560   5.741   2.591 -0.2328 -0.2777 -0.5246
15509SOL    HW149673   1.511   5.755   2.672 -1.2075  0.8295 -1.2799
15509SOL    HW249674   1.522   5.803   2.528 -0.2611 -1.8641 -2.1646
15510SOL     OW49675   6.447   3.754   0.861 -0.0203 -0.2951  0.0889
15510SOL    HW149676   6.368   3.710   0.891  0.1733 -1.0990 -0.5627
15510SOL    HW249677   6.419   3.842   0.838  0.1321  1.1496  4.5207
15511SOL     OW49678   0.295   2.033   7.786  0.2944  0.2590 -0.7878
15511SOL    HW149679   0.311   2.103   7.849 -0.3394  1.4102 -1.8478
15511SOL    HW249680   0.210   2.055   7.747  1.4667  0.6418 -3.3421
15512SOL     OW49681   6.040   1.806   6.710  0.7991 -0.0786  0.4904
15512SOL    HW149682   5.967   1.808   6.771 -1.1154 -3.0312 -1.4116
15512SOL    HW249683   6.019   1.873   6.645 -0.9395 -1.5820 -0.6104
15513SOL     OW49684   7.112   2.301   2.948 -0.1489  0.3874  0.2682
15513SOL    HW149685   7.205   2.303   2.925 -0.0849  0.2473  0.5136
15513SOL    HW249686   7.081   2.216   2.917 -0.0822  0.2334  0.6200
15514SOL     OW49687   5.309   2.397   7.346 -0.4008 -0.0951  0.5141
15514SOL    HW149688   5.246   2.469   7.344  0.7763  0.9756  0.2874
15514SOL    HW249689   5.261   2.323   7.383 -2.2687  0.1596 -1.2405
15515SOL     OW49690   0.779   7.626   4.620 -0.3764  0.0993 -0.1722
15515SOL    HW149691   0.793   7.595   4.530  0.7902  0.7063 -0.2137
15515SOL    HW249692   0.735   7.711   4.610 -2.3502 -0.8526 -0.0865
15516SOL     OW49693   6.759   3.998   7.521 -0.3468  0.3852 -0.0438
15516SOL    HW149694   6.670   4.018   7.492 -0.1583  0.8489 -0.2966
15516SOL    HW249695   6.783   4.071   7.578 -1.3568 -1.2820  2.7716
15517SOL     OW49696   3.072   2.559   6.033  0.5524  0.1954 -0.2853
15517SOL    HW149697   3.053   2.569   5.940  0.7883  2.4117 -0.1484
15517SOL    HW249698   3.106   2.644   6.060 -2.4446  0.7079  2.5252
15518SOL     OW49699   2.440   7.527   6.881  0.2603  0.0457 -0.2353
15518SOL    HW149700   2.379   7.502   6.811  1.7608 -1.5592 -1.0508
15518SOL    HW249701   2.500   7.452   6.888  0.8537  0.6746  1.9895
15519SOL     OW49702   7.747   3.851   4.374  0.2860  0.5318  0.1056
15519SOL    HW149703   7.728   3.776   4.432 -2.3603 -0.4959 -1.9031
15519SOL    HW249704   7.725   3.928   4.427  0.4530 -0.2111  1.3125
15520SOL     OW49705   5.404   4.944   6.459  0.0412  0.1446  0.2432
15520SOL    HW149706   5.421   5.037   6.475 -0.9914  0.2377  0.8966
15520SOL    HW249707   5.325   4.925   6.509  0.6266 -1.2740  0.6801
15521SOL     OW49708   7.281   3.895   4.008 -0.0973  0.4187 -0.4507
15521SOL    HW149709   7.245   3.973   4.051 -1.0557 -0.8748  1.2174
15521SOL    HW249710   7.348   3.864   4.069  0.0803 -0.2108 -0.9606
15522SOL     OW49711   0.512   0.151   1.575  0.1192  0.3172  0.1186
15522SOL    HW149712   0.514   0.081   1.509  0.8085  0.1225  0.3474
15522SOL    HW249713   0.600   0.188   1.574  0.4775 -0.4170  1.7153
15523SOL     OW49714   6.051   2.702   6.322 -0.4241  0.1608  0.0418
15523SOL    HW149715   6.019   2.655   6.246 -0.8169 -1.2026  1.0081
15523SOL    HW249716   5.974   2.744   6.360 -0.0934  1.5574 -0.7573
15524SOL     OW49717   7.665   1.195   4.770 -0.2581  0.1886  0.7066
15524SOL    HW149718   7.675   1.210   4.864 -0.5390 -0.6373  0.8760
15524SOL    HW249719   7.571   1.194   4.756 -0.2267 -0.1930  0.5061
15525SOL     OW49720   3.051   6.343   0.066 -0.9101  0.3466  0.7305
15525SOL    HW149721   3.076   6.388  -0.015 -1.7445  0.1899  0.3712
15525SOL    HW249722   2.958   6.325   0.055 -0.4340 -2.3010  0.4490
15526SOL     OW49723   4.758   3.930   7.513 -0.1628 -0.5220 -0.2804
15526SOL    HW149724   4.809   3.950   7.434  0.4535  0.3981  0.3207
15526SOL    HW249725   4.724   4.015   7.541 -0.7682 -0.9124  0.1841
15527SOL     OW49726   1.102   7.593   2.293  0.2430 -0.0322 -0.0006
15527SOL    HW149727   1.131   7.653   2.362  0.5969  0.0562 -0.2243
15527SOL    HW249728   1.177   7.586   2.234 -0.7956  1.7477 -1.6732
15528SOL     OW49729   5.323   4.361   7.281  0.6974 -0.3523 -0.3099
15528SOL    HW149730   5.234   4.341   7.251  0.5270  1.0683 -0.8034
15528SOL    HW249731   5.379   4.301   7.231  0.0031 -1.5152  0.2750
15529SOL     OW49732   1.398   7.700   7.489 -0.0542  0.2627 -0.0691
15529SOL    HW149733   1.479   7.696   7.540  0.0623 -0.6806 -0.3136
15529SOL    HW249734   1.332   7.664   7.548 -0.2406  0.7094  0.0028
15530SOL     OW49735   2.640   4.531   4.510 -0.1018  0.0137 -0.1537
15530SOL    HW149736   2.683   4.558   4.592  0.7234 -0.9233 -0.2674
15530SOL    HW249737   2.709   4.536   4.444 -0.4805 -0.3159 -0.5815
15531SOL     OW49738   7.891   1.908   3.431 -0.3985 -0.6487 -0.1568
15531SOL    HW149739   7.900   1.901   3.526 -0.2668  0.6705 -0.0533
15531SOL    HW249740   7.919   1.822   3.398  2.0546 -0.3124  0.8440
15532SOL     OW49741   4.671   2.168   4.656 -0.3224  0.3933 -0.4954
15532SOL    HW149742   4.610   2.242   4.647  0.2306  0.6515 -2.6989
15532SOL    HW249743   4.706   2.178   4.744 -0.5833  2.5364 -0.5602
15533SOL     OW49744   7.272   5.168   1.338 -0.0196 -0.3637  0.0640
15533SOL    HW149745   7.346   5.172   1.278 -0.2963  2.9694 -0.2431
15533SOL    HW249746   7.310   5.143   1.422  2.2868  4.3074  0.7335
15534SOL     OW49747   6.378   8.019   7.862 -0.4202  0.0774  0.1989
15534SOL    HW149748   6.389   8.095   7.918 -0.5002 -0.0408  0.3773
15534SOL    HW249749   6.379   8.054   7.773 -0.3889  0.2766  0.2773
15535SOL     OW49750   7.555   3.478   3.235 -0.1791 -0.0303 -0.2745
15535SOL    HW149751   7.539   3.392   3.197  0.8769 -0.6245  0.5548
15535SOL    HW249752   7.474   3.527   3.219 -0.5964 -0.9866 -1.2353
15536SOL     OW49753   4.991   1.702   2.888  0.0925  0.1121  0.2918
15536SOL    HW149754   4.980   1.762   2.813 -0.1511  0.3491  0.5145
15536SOL    HW249755   4.902   1.687   2.920  0.0660 -1.0403 -0.2730
15537SOL     OW49756   2.431   6.835   1.382 -0.5803 -0.8073 -0.2540
15537SOL    HW149757   2.491   6.834   1.457  0.7804  0.7731 -1.2270
15537SOL    HW249758   2.460   6.762   1.327  0.7169  0.1174 -0.8554
15538SOL     OW49759   5.568   4.665   5.446  0.0961  0.0548 -0.0369
15538SOL    HW149760   5.511   4.591   5.424  1.2562 -1.2989  1.3269
15538SOL    HW249761   5.529   4.701   5.526 -0.2780  0.7258 -0.5171
15539SOL     OW49762   1.141   1.544   0.469 -0.1012  0.3556 -0.2376
15539SOL    HW149763   1.073   1.492   0.425 -0.6540  1.4455 -0.7011
15539SOL    HW249764   1.217   1.539   0.411 -0.1435  0.0577 -0.2699
15540SOL     OW49765   5.451   5.196   2.974  0.5897 -0.1447 -0.4038
15540SOL    HW149766   5.545   5.200   2.992  0.8038 -0.0689 -1.4566
15540SOL    HW249767   5.412   5.163   3.054  1.6361 -1.2627 -0.3359
15541SOL     OW49768   5.679   6.831   6.900 -0.2617  0.3169 -0.0975
15541SOL    HW149769   5.725   6.756   6.862  1.0902  0.7621  0.5876
15541SOL    HW249770   5.587   6.817   6.877  0.1347 -0.8800 -1.0711
15542SOL     OW49771   4.019   4.471   5.724  0.0346  0.5977  0.1616
15542SOL    HW149772   4.102   4.490   5.680  0.0850  1.1645  0.4898
15542SOL    HW249773   3.976   4.407   5.668  0.9889 -0.2205  0.3292
15543SOL     OW49774   6.741   6.639   0.175  0.3154 -0.1569  0.5792
15543SOL    HW149775   6.722   6.728   0.203  0.3415  0.8787 -2.4114
15543SOL    HW249776   6.835   6.639   0.155  0.0203 -0.3544 -0.9380
15544SOL     OW49777   7.157   0.610   1.813 -0.4742  0.1379 -0.0258
15544SOL    HW149778   7.198   0.528   1.841 -2.9495 -1.0963  0.2254
15544SOL    HW249779   7.142   0.659   1.893  0.3725  0.5632 -0.1124
15545SOL     OW49780   7.473   5.597   6.444  0.0756  0.3228 -0.3969
15545SOL    HW149781   7.560   5.579   6.479 -0.2528  0.1459  0.3474
15545SOL    HW249782   7.472   5.691   6.428 -0.2254  0.6747  1.4182
15546SOL     OW49783   7.117   0.226   3.953 -0.1195 -0.3478 -0.0672
15546SOL    HW149784   7.140   0.236   4.045 -2.1784 -1.7809  0.6791
15546SOL    HW249785   7.201   0.217   3.908  0.9181  0.0278  1.7063
15547SOL     OW49786   6.962   0.965   3.108  0.7438 -0.2804 -0.2542
15547SOL    HW149787   6.903   1.031   3.144 -0.7757 -0.1629 -2.7094
15547SOL    HW249788   6.930   0.882   3.144  1.8205  0.1426  1.7852
15548SOL     OW49789   6.957   5.717   1.720  0.1577  0.4592 -0.2847
15548SOL    HW149790   7.045   5.745   1.744  1.3752 -0.4843 -3.2493
15548SOL    HW249791   6.914   5.798   1.691  1.4229  0.3934 -2.5266
15549SOL     OW49792   4.581   4.654   4.082  0.2527 -0.1614  0.0381
15549SOL    HW149793   4.620   4.571   4.054  0.6088  0.5607 -1.7173
15549SOL    HW249794   4.624   4.720   4.028 -0.0577  1.1744  1.3726
15550SOL     OW49795   0.664   5.231   4.693  0.1191  0.1198 -0.5899
15550SOL    HW149796   0.694   5.241   4.602  0.4963  0.0336 -0.4766
15550SOL    HW249797   0.727   5.282   4.744  1.3944 -1.8321 -0.1048
15551SOL     OW49798   4.232   2.354   1.453  0.3013  0.2847 -0.0677
15551SOL    HW149799   4.304   2.398   1.408  0.8651  0.9291  1.3988
15551SOL    HW249800   4.183   2.311   1.383 -0.0669  2.9249 -1.5410
15552SOL     OW49801   0.236   6.503   5.791 -0.1994 -0.1458 -0.1490
15552SOL    HW149802   0.155   6.551   5.774 -0.8417 -0.1443  2.4715
15552SOL    HW249803   0.207   6.419   5.828  0.9618 -0.3244  0.4180
15553SOL     OW49804   1.308   1.411   5.933  0.7070 -0.1098  0.1439
15553SOL    HW149805   1.360   1.334   5.911  2.1314  1.0642 -0.7202
15553SOL    HW249806   1.237   1.411   5.869  1.0616 -0.3417 -0.2497
15554SOL     OW49807   6.268   3.949   0.701  0.0739 -0.0201  0.0414
15554SOL    HW149808   6.231   3.866   0.671 -1.1801  0.6368 -0.3237
15554SOL    HW249809   6.194   3.995   0.741  0.6426  1.0985 -0.1533
15555SOL     OW49810   4.577   0.812   1.856  0.3737 -0.8822 -0.0015
15555SOL    HW149811   4.596   0.747   1.788  1.6279 -0.6589  0.1083
15555SOL    HW249812   4.550   0.761   1.932  0.3937 -1.2203 -0.2214
15556SOL     OW49813   4.613   3.354   2.523  0.0357 -0.0616 -0.1754
15556SOL    HW149814   4.696   3.316   2.552  0.0417 -1.0264 -1.3974
15556SOL    HW249815   4.576   3.289   2.463 -1.2134  0.7171 -0.2773
15557SOL     OW49816   1.416   6.619   6.957 -0.4920 -0.3658  0.4705
15557SOL    HW149817   1.378   6.685   7.014 -0.4494 -0.2517  0.3664
15557SOL    HW249818   1.343   6.562   6.933 -0.2978 -1.1301  1.6174
15558SOL     OW49819   7.149   4.025   6.700  0.4164  0.5964  0.0440
15558SOL    HW149820   7.161   3.992   6.789  1.1587  0.0173 -0.2557
15558SOL    HW249821   7.076   3.975   6.665 -0.6728  1.6750  0.7196
15559SOL     OW49822   6.527   2.349   7.972 -0.6125  0.0229  0.3858
15559SOL    HW149823   6.511   2.364   7.879  0.7184 -0.8919 -0.0209
15559SOL    HW249824   6.452   2.297   8.002  0.2413 -1.9945 -0.8360
15560SOL     OW49825   2.513   6.645   6.710 -0.5885  0.4081 -0.3911
15560SOL    HW149826   2.432   6.598   6.729  1.3895 -2.7893  0.9953
15560SOL    HW249827   2.528   6.631   6.617  0.7480 -3.4240  0.2434
15561SOL     OW49828   5.265   6.986   3.746  0.4398 -0.4129 -0.3492
15561SOL    HW149829   5.231   6.896   3.743  0.5745 -0.4690 -0.2298
15561SOL    HW249830   5.241   7.024   3.662  0.1410 -0.4739 -0.2911
15562SOL     OW49831   5.009   1.468   6.411  0.3390  0.3860  0.2546
15562SOL    HW149832   5.088   1.476   6.358  0.8616  0.3818  1.0203
15562SOL    HW249833   5.012   1.380   6.447 -0.9238 -0.2632 -1.0979
15563SOL     OW49834   0.642   2.673   0.972  0.0226  0.2338  0.0823
15563SOL    HW149835   0.582   2.727   0.921 -0.3259  0.2954  0.5487
15563SOL    HW249836   0.729   2.702   0.946 -0.0609 -1.2824 -2.1700
15564SOL     OW49837   2.996   7.055   1.558 -0.3189 -0.3923  0.0265
15564SOL    HW149838   2.910   7.073   1.597 -1.3845  0.7746 -2.6333
15564SOL    HW249839   3.008   7.124   1.492  1.9981 -1.3934 -0.7153
15565SOL     OW49840   5.973   3.130   5.480 -0.5838 -0.3877 -0.4178
15565SOL    HW149841   5.953   3.150   5.571 -1.6916  1.0547 -0.9392
15565SOL    HW249842   5.920   3.053   5.460 -1.4523  0.1470 -0.2277
15566SOL     OW49843   0.787   1.358   0.539  0.1046 -0.2228 -0.2447
15566SOL    HW149844   0.834   1.368   0.457  0.3524  1.2664  0.0415
15566SOL    HW249845   0.806   1.269   0.568 -1.9481 -1.6752 -2.9637
15567SOL     OW49846   4.035   1.624   4.457 -0.3023 -0.1880  0.8196
15567SOL    HW149847   3.955   1.599   4.410  0.4358  0.4272 -0.8597
15567SOL    HW249848   4.053   1.551   4.515  0.1809 -2.2935 -1.7864
15568SOL     OW49849   6.179   1.244   5.491  1.0890 -0.1894 -0.4699
15568SOL    HW149850   6.211   1.242   5.581  0.0984 -1.3467 -0.1173
15568SOL    HW249851   6.148   1.155   5.474  0.0227  0.3413 -1.4926
15569SOL     OW49852   7.701   3.344   5.755 -0.3052  0.1316  0.5543
15569SOL    HW149853   7.678   3.312   5.668  0.3037  0.3428  0.3159
15569SOL    HW249854   7.703   3.439   5.745  1.2854  0.0957  0.4179
15570SOL     OW49855   3.009   4.867   4.353  0.4816  0.2554 -0.1416
15570SOL    HW149856   2.970   4.947   4.387  2.8148  1.5385 -0.2953
15570SOL    HW249857   3.012   4.880   4.258  3.1213  1.1858 -0.0136
15571SOL     OW49858   4.036   7.740   0.009 -0.1668  0.3062  0.3579
15571SOL    HW149859   4.062   7.684   0.082  1.0132  0.7878  0.3388
15571SOL    HW249860   3.967   7.692  -0.036 -1.6808  0.4698  2.3919
15572SOL     OW49861   1.966   5.175   6.479 -0.0328 -0.2912 -0.1183
15572SOL    HW149862   1.916   5.112   6.428 -1.6365  0.5783  0.3105
15572SOL    HW249863   1.904   5.206   6.546  0.9130  1.2026  0.1147
15573SOL     OW49864   1.708   5.056   5.019  0.0703  0.0386 -0.3687
15573SOL    HW149865   1.702   5.151   5.014 -1.6943  0.0686  1.1064
15573SOL    HW249866   1.800   5.038   5.039  0.5553  1.3745 -1.2872
15574SOL     OW49867   0.652   4.471   0.383 -0.5887  0.1219 -0.4028
15574SOL    HW149868   0.651   4.445   0.475  2.0981  0.0774 -0.3245
15574SOL    HW249869   0.579   4.533   0.375 -0.1942  0.9938  2.0313
15575SOL     OW49870   1.607   5.697   6.379  0.0453  0.0864 -0.1681
15575SOL    HW149871   1.516   5.726   6.375  0.2387  0.7962  0.3547
15575SOL    HW249872   1.646   5.728   6.298 -0.1672 -0.1642 -0.3646
15576SOL     OW49873   7.139   0.608   4.268 -0.4478 -0.0456  0.5335
15576SOL    HW149874   7.058   0.623   4.317 -0.6005 -0.5030  0.4205
15576SOL    HW249875   7.133   0.667   4.193 -0.5821  0.0678  0.6326
15577SOL     OW49876   6.293   2.088   1.505  0.5276  0.1265  0.6037
15577SOL    HW149877   6.229   2.144   1.549  1.0717  1.0530  0.2370
15577SOL    HW249878   6.240   2.023   1.459 -0.0534 -1.6645  3.5332
15578SOL     OW49879   6.619   4.183   5.589 -0.6210 -0.4016 -0.0499
15578SOL    HW149880   6.622   4.185   5.493  0.6635  0.2482 -0.0153
15578SOL    HW249881   6.642   4.093   5.611  1.8556  0.0729 -0.3349
15579SOL     OW49882   3.995   2.610   0.350  0.3242  0.0127 -0.0963
15579SOL    HW149883   4.050   2.569   0.417 -1.0934 -0.0477  1.0850
15579SOL    HW249884   3.911   2.624   0.394 -0.7890 -0.3926 -2.0058
15580SOL     OW49885   6.469   2.560   2.388 -0.5340 -0.1622 -0.2961
15580SOL    HW149886   6.448   2.641   2.434 -2.3387 -0.6651 -0.1264
15580SOL    HW249887   6.524   2.587   2.315  0.1796  0.9966  0.6452
15581SOL     OW49888   8.017   3.466   3.410  0.2609 -0.0879  0.0386
15581SOL    HW149889   7.941   3.413   3.388 -0.2639  0.7334 -0.1945
15581SOL    HW249890   8.077   3.453   3.337  0.2282 -0.5264  0.0888
15582SOL     OW49891   5.789   7.377   7.145 -0.2703 -0.2512 -0.0555
15582SOL    HW149892   5.813   7.288   7.168  1.3715  0.1644 -0.0458
15582SOL    HW249893   5.750   7.412   7.225  1.4873 -0.1695  0.8154
15583SOL     OW49894   2.000   4.990   5.064 -0.2767  0.3065  0.5026
15583SOL    HW149895   1.982   5.052   5.135  0.7327 -0.6434  1.6210
15583SOL    HW249896   2.094   4.975   5.069 -0.2164  0.1069 -0.9625
15584SOL     OW49897   6.795   2.876   5.996 -0.2869 -0.1795  0.1977
15584SOL    HW149898   6.830   2.808   6.054 -1.1993 -1.0471 -0.2465
15584SOL    HW249899   6.770   2.829   5.916  1.5264  1.0693 -1.1889
15585SOL     OW49900   0.991   3.593   4.683  0.1682  0.1159  0.2894
15585SOL    HW149901   0.925   3.524   4.690  1.6309 -1.8636 -3.1871
15585SOL    HW249902   0.951   3.658   4.625 -0.4435  1.4004  2.0276
15586SOL     OW49903   3.847   7.456   1.739 -0.5088  0.3002  0.0253
15586SOL    HW149904   3.899   7.425   1.665  0.4255 -1.6816  1.4386
15586SOL    HW249905   3.770   7.496   1.698  1.0852  1.4826 -2.0598
15587SOL     OW49906   6.150   7.047   0.720 -0.0245  0.2404  0.5069
15587SOL    HW149907   6.081   6.991   0.686 -0.4556  0.6167  0.7480
15587SOL    HW249908   6.105   7.106   0.781  0.4908  0.5521  0.5906
15588SOL     OW49909   1.324   4.279   5.216 -0.5869 -0.8078 -0.5502
15588SOL    HW149910   1.324   4.329   5.134 -1.0683  1.0026  0.4781
15588SOL    HW249911   1.396   4.316   5.266 -0.6390 -1.5096  0.0540
15589SOL     OW49912   8.033   7.971   1.984 -0.2077  0.8318 -0.0924
15589SOL    HW149913   8.122   8.002   1.967 -0.4570  0.8956 -1.4098
15589SOL    HW249914   7.994   8.040   2.038  0.8966  0.2313  1.5345
15590SOL     OW49915   6.822   0.877   7.248 -0.9712 -0.2264  0.8602
15590SOL    HW149916   6.835   0.798   7.196 -2.0067 -1.0412  1.7970
15590SOL    HW249917   6.767   0.849   7.321  0.7739  0.7751  2.6488
15591SOL     OW49918   2.976   0.767   7.575 -0.7789 -0.3266 -0.5802
15591SOL    HW149919   3.009   0.686   7.537  0.1093 -0.2206 -0.0645
15591SOL    HW249920   2.977   0.829   7.502 -3.6743 -1.3141 -1.5972
15592SOL     OW49921   7.414   1.282   5.961  0.2599 -0.0618  0.4403
15592SOL    HW149922   7.375   1.369   5.969 -0.1090 -0.3241  1.6921
15592SOL    HW249923   7.443   1.260   6.049 -0.1781 -1.4509  0.2699
15593SOL     OW49924   7.938   1.152   6.366  0.0308  0.1406  0.0847
15593SOL    HW149925   7.902   1.175   6.280 -1.5038  0.4280  0.7634
15593SOL    HW249926   7.987   1.230   6.393  0.0959  0.2405 -0.3200
15594SOL     OW49927   6.922   7.856   6.406 -0.0085  0.2542  0.0272
15594SOL    HW149928   6.883   7.921   6.464 -0.3484  0.5305 -0.5025
15594SOL    HW249929   6.862   7.851   6.332  1.5894  1.5915 -1.4226
15595SOL     OW49930   4.173   2.234   6.771  0.1657  0.1151 -0.1108
15595SOL    HW149931   4.166   2.173   6.845  0.7619  1.2789  0.9423
15595SOL    HW249932   4.265   2.262   6.772  0.3641 -0.3824 -1.7574
15596SOL     OW49933   0.883   6.231   1.549  0.6083  0.1682 -0.1884
15596SOL    HW149934   0.861   6.140   1.529 -1.8124  0.3528  1.3419
15596SOL    HW249935   0.942   6.225   1.624  1.1530 -0.1385 -0.6289
15597SOL     OW49936   4.649   3.882   0.228  0.1991 -0.4558 -0.1068
15597SOL    HW149937   4.743   3.877   0.214  0.8591  1.3222  2.8785
15597SOL    HW249938   4.622   3.960   0.178  0.8548  0.5950  1.1221
15598SOL     OW49939   2.667   7.517   2.981  0.4413  0.1141 -0.5691
15598SOL    HW149940   2.625   7.596   3.015 -0.4133 -0.9721  1.0621
15598SOL    HW249941   2.594   7.461   2.955  1.0030 -0.4817 -0.8890
15599SOL     OW49942   0.546   7.831   4.651 -0.1532 -0.1240  0.2145
15599SOL    HW149943   0.552   7.927   4.652  2.2008 -0.2069  1.0270
15599SOL    HW249944   0.525   7.810   4.560  1.4784  1.1394 -0.5146
15600SOL     OW49945   5.784   2.574   0.610 -0.0007 -0.6804  0.4381
15600SOL    HW149946   5.743   2.614   0.534  3.2519  1.4023 -0.4186
15600SOL    HW249947   5.767   2.634   0.682 -0.6971 -1.2131  0.7301
15601SOL     OW49948   1.313   6.324   4.616  0.1620 -0.1732 -0.0452
15601SOL    HW149949   1.328   6.347   4.707  0.3425  2.7822 -0.7142
15601SOL    HW249950   1.393   6.278   4.590  0.5344 -0.1578  1.0228
15602SOL     OW49951   6.200   7.432   3.702  0.7500 -0.4816  0.0811
15602SOL    HW149952   6.115   7.387   3.706  1.4073 -1.7147  0.8902
15602SOL    HW249953   6.192   7.491   3.628 -0.6604 -0.9166 -0.1498
15603SOL     OW49954   0.974   6.280   7.999 -0.5016  0.1343  0.4671
15603SOL    HW149955   0.929   6.199   8.023 -0.1107 -0.1885  0.1322
15603SOL    HW249956   1.011   6.262   7.913  1.8660 -0.2923  1.4965
15604SOL     OW49957   1.296   2.061   2.989 -0.2655 -0.2299  0.1415
15604SOL    HW149958   1.202   2.075   2.979 -0.1781 -0.2987 -0.9052
15604SOL    HW249959   1.303   1.977   3.034 -0.7130 -0.1260  0.4035
15605SOL     OW49960   6.141   0.945   3.733  0.3906 -0.3586 -0.2381
15605SOL    HW149961   6.224   0.910   3.698  2.0629  1.8999  1.1891
15605SOL    HW249962   6.134   0.906   3.820  1.0336  0.9609  0.4259
15606SOL     OW49963   1.094   1.184   5.674 -0.4374 -0.3091  0.5910
15606SOL    HW149964   1.034   1.110   5.677 -2.5725  1.3351  0.9836
15606SOL    HW249965   1.180   1.145   5.657 -1.5125 -2.8091  0.4963
15607SOL     OW49966   3.076   0.540   6.560 -0.3553 -0.4188 -0.4296
15607SOL    HW149967   3.055   0.628   6.591  2.3454  0.2038 -0.1490
15607SOL    HW249968   3.059   0.483   6.635  1.5725  0.4368  0.7131
15608SOL     OW49969   5.175   2.653   7.817 -0.1094 -0.2473  0.7680
15608SOL    HW149970   5.205   2.744   7.811  1.2404 -0.7459 -3.2976
15608SOL    HW249971   5.100   2.648   7.758  0.7046 -1.9900 -0.2023
15609SOL     OW49972   0.475   4.770   1.144  0.3066 -0.1449 -0.2812
15609SOL    HW149973   0.505   4.858   1.121 -0.2917 -0.1598 -1.1697
15609SOL    HW249974   0.390   4.784   1.185 -0.4445 -0.3783 -1.6888
15610SOL     OW49975   4.867   1.285   6.213 -0.1472 -0.2967 -0.3011
15610SOL    HW149976   4.946   1.328   6.245 -0.5278 -0.5701  1.0848
15610SOL    HW249977   4.895   1.196   6.193  0.0497 -0.1923 -0.4896
15611SOL     OW49978   3.094   1.205   6.888  0.7071 -0.6932 -0.5900
15611SOL    HW149979   3.088   1.223   6.982 -0.6964 -0.2878 -0.7287
15611SOL    HW249980   3.175   1.247   6.860 -1.2067  3.6520 -0.4555
15612SOL     OW49981   5.300   1.020   0.106  0.2122 -0.0797 -0.2112
15612SOL    HW149982   5.334   1.100   0.147 -0.3928 -0.0637  0.2693
15612SOL    HW249983   5.377   0.966   0.092  0.7600  0.9604 -1.3863
15613SOL     OW49984   1.021   4.082   1.309 -0.2439  0.0407  0.4147
15613SOL    HW149985   1.070   4.086   1.227 -2.0088  1.3298 -0.6437
15613SOL    HW249986   1.087   4.062   1.376  1.3855 -0.1273 -1.1818
15614SOL     OW49987   5.869   7.972   2.560 -0.0580 -0.3400 -0.0239
15614SOL    HW149988   5.793   8.019   2.525  0.7163 -0.1260 -1.4495
15614SOL    HW249989   5.839   7.941   2.646 -1.9281 -0.6620 -0.7317
15615SOL     OW49990   1.130   1.452   7.441  0.3527  0.1240 -0.7873
15615SOL    HW149991   1.127   1.379   7.379  0.8610  0.7760 -1.6004
15615SOL    HW249992   1.216   1.444   7.483  0.7027  0.6653 -1.3934
15616SOL     OW49993   0.750   3.793   5.812 -0.3789 -0.1992  0.3053
15616SOL    HW149994   0.762   3.854   5.884  1.0158 -0.8755  0.6907
15616SOL    HW249995   0.766   3.707   5.851  0.3209 -0.5812 -0.7763
15617SOL     OW49996   4.433   4.178   6.104 -0.2756 -0.5577  0.0829
15617SOL    HW149997   4.444   4.120   6.029 -1.2825 -1.5367  0.6713
15617SOL    HW249998   4.487   4.255   6.083 -0.5941 -0.7799 -1.6633
15618SOL     OW49999   2.187   0.384   0.107  0.0247  0.0713  0.7576
15618SOL    HW150000   2.178   0.399   0.013  2.0553 -0.1642  0.4645
15618SOL    HW250001   2.278   0.354   0.117 -0.2406 -0.1841  2.7607
15619SOL     OW50002   8.066   3.905   0.196  0.1574  0.5704 -0.1158
15619SOL    HW150003   8.018   3.986   0.176 -2.5592 -0.7919  0.3848
15619SOL    HW250004   8.064   3.855   0.115  1.2092  0.6894 -0.2246
15620SOL     OW50005   6.214   2.937   3.213 -0.2428  0.9627 -0.3981
15620SOL    HW150006   6.190   3.015   3.163  0.6267  0.4717 -1.6324
15620SOL    HW250007   6.294   2.905   3.171 -0.6729 -0.6917 -0.0489
15621SOL     OW50008   3.813   2.005   2.749 -0.0228  0.0011  0.4658
15621SOL    HW150009   3.823   2.025   2.656  2.6785  2.3245  1.1366
15621SOL    HW250010   3.840   1.913   2.756  1.3315  0.2530 -0.8537
15622SOL     OW50011   8.051   1.861   0.074  0.2993  0.1501 -0.3654
15622SOL    HW150012   8.013   1.947   0.055  0.0394  0.1038 -0.0640
15622SOL    HW250013   7.976   1.804   0.085  0.4787 -0.2840 -1.2956
15623SOL     OW50014   3.792   3.454   1.138  0.1005 -0.0633  0.0561
15623SOL    HW150015   3.763   3.372   1.098  1.4523 -0.0741 -0.9615
15623SOL    HW250016   3.772   3.521   1.073  1.2124  0.0784 -0.1552
15624SOL     OW50017   5.343   6.757   7.239 -0.0482  0.4891  0.9250
15624SOL    HW150018   5.347   6.662   7.228 -0.3914  0.6403 -0.6794
15624SOL    HW250019   5.369   6.771   7.330  2.2491 -0.9740  0.5673
15625SOL     OW50020   4.230   1.030   2.013 -0.1397  0.0108  0.7689
15625SOL    HW150021   4.175   0.952   2.021 -1.1074  0.7243  1.2902
15625SOL    HW250022   4.319   0.999   2.029 -0.4408 -1.0735  0.4433
15626SOL     OW50023   4.780   4.570   0.773 -0.0488 -0.2009  0.0805
15626SOL    HW150024   4.859   4.623   0.780  0.1937 -0.3839 -1.0269
15626SOL    HW250025   4.770   4.555   0.679 -0.8280 -1.0378  0.2854
15627SOL     OW50026   2.925   6.258   2.679  0.2671  0.8409 -0.3884
15627SOL    HW150027   2.968   6.181   2.643 -1.8257 -1.2335  1.2323
15627SOL    HW250028   2.837   6.256   2.640  0.2993  2.7115 -0.6428
15628SOL     OW50029   0.900   3.077   2.614  0.3319  0.3568  0.2270
15628SOL    HW150030   0.843   3.043   2.684  1.3042 -2.0328 -0.0261
15628SOL    HW250031   0.985   3.089   2.656  0.8114 -0.6827 -0.3972
15629SOL     OW50032   5.544   6.147   3.386 -0.1969 -0.1106 -0.1807
15629SOL    HW150033   5.509   6.125   3.473 -0.8951 -1.9686 -0.8692
15629SOL    HW250034   5.636   6.169   3.402 -0.3730 -0.1638  1.0555
15630SOL     OW50035   1.769   5.882   0.226  0.2234  0.2070  0.1956
15630SOL    HW150036   1.697   5.822   0.206 -0.6113  1.1423  0.3146
15630SOL    HW250037   1.737   5.968   0.199  1.5082  0.5757 -0.2381
15631SOL     OW50038   0.539   7.955   3.261  0.0430  0.4538 -0.2737
15631SOL    HW150039   0.605   7.918   3.319  0.3846  1.9336  0.3338
15631SOL    HW250040   0.456   7.921   3.294  0.4080 -0.7330 -0.5116
15632SOL     OW50041   5.814   6.205   2.109  0.7418 -0.2430 -0.4731
15632SOL    HW150042   5.833   6.148   2.035 -0.9345 -1.9954  0.3798
15632SOL    HW250043   5.809   6.293   2.071  2.0711 -0.8006 -2.0277
15633SOL     OW50044   3.578   1.495   5.040 -0.0500  0.0279 -0.3578
15633SOL    HW150045   3.564   1.476   5.132  2.2594 -0.6121 -0.0751
15633SOL    HW250046   3.667   1.464   5.022  0.0282  1.2675 -2.4896
15634SOL     OW50047   7.215   3.663   0.719  0.2435  0.3878 -0.5813
15634SOL    HW150048   7.208   3.605   0.795 -2.3946  3.8240  2.1051
15634SOL    HW250049   7.138   3.642   0.666  0.3201  0.1918 -0.6166
15635SOL     OW50050   6.951   5.079   4.764 -0.1369  0.1577 -0.5012
15635SOL    HW150051   6.925   5.083   4.856 -0.6269  1.0059 -0.6745
15635SOL    HW250052   7.028   5.136   4.758  1.3661 -1.7176 -0.1546
15636SOL     OW50053   4.598   4.193   1.401  0.5227  0.0658  0.3913
15636SOL    HW150054   4.657   4.261   1.370  3.1234 -2.6916 -1.2167
15636SOL    HW250055   4.515   4.210   1.357  1.3947  1.6036 -0.7211
15637SOL     OW50056   5.936   7.509   2.892  0.1439 -0.2933  0.2148
15637SOL    HW150057   5.878   7.468   2.828  1.3688  2.4477 -2.9648
15637SOL    HW250058   6.017   7.459   2.887 -0.2699 -1.0432  0.8563
15638SOL     OW50059   1.754   6.508   0.341  0.0947 -0.2476  0.3824
15638SOL    HW150060   1.776   6.427   0.295  0.3622 -0.4118  0.8034
15638SOL    HW250061   1.661   6.498   0.363 -0.4560  0.4412 -1.3823
15639SOL     OW50062   7.794   6.324   7.621  0.0451 -0.4145 -0.5118
15639SOL    HW150063   7.830   6.342   7.534  0.8287  0.0145 -0.1137
15639SOL    HW250064   7.705   6.359   7.619  0.0174 -0.5226 -1.1818
15640SOL     OW50065   3.475   7.826   7.901 -0.1124 -0.7313  0.1104
15640SOL    HW150066   3.565   7.814   7.871 -0.5452  0.1665 -1.6818
15640SOL    HW250067   3.474   7.789   7.989  2.4885  0.8730  0.9371
15641SOL     OW50068   4.450   1.559   6.760 -0.3500  0.1963  0.1365
15641SOL    HW150069   4.360   1.574   6.730  0.3740  1.7420 -1.4282
15641SOL    HW250070   4.468   1.468   6.735 -1.1674  0.1687 -0.4105
15642SOL     OW50071   0.762   2.929   6.298  0.1249  0.1740  0.0071
15642SOL    HW150072   0.722   2.996   6.243  0.7904 -0.4855 -1.3449
15642SOL    HW250073   0.738   2.846   6.257  3.6163 -0.2606 -1.5654
15643SOL     OW50074   0.384   7.382   3.869 -0.0650  0.2771 -0.0022
15643SOL    HW150075   0.438   7.306   3.847  2.1568  1.3772  1.2671
15643SOL    HW250076   0.321   7.348   3.933  1.8945 -0.2638  1.7610
15644SOL     OW50077   4.012   1.909   1.928  0.2452  0.5767 -0.0647
15644SOL    HW150078   4.028   1.815   1.935  0.6251  0.4905 -1.7634
15644SOL    HW250079   3.992   1.923   1.836  0.1746  2.1635  0.1725
15645SOL     OW50080   6.016   7.859   5.538  0.1369 -0.3136  0.1309
15645SOL    HW150081   6.025   7.953   5.556  0.4682 -0.5928  1.5249
15645SOL    HW250082   6.085   7.818   5.590 -1.7745 -1.5540  1.8467
15646SOL     OW50083   5.300   0.480   4.439  0.1001 -0.8265 -0.1909
15646SOL    HW150084   5.335   0.394   4.463 -0.0027 -0.5422  1.0426
15646SOL    HW250085   5.358   0.511   4.369  1.5603 -0.9152  0.9398
15647SOL     OW50086   7.571   7.507   1.890  0.1676 -0.1471  0.1603
15647SOL    HW150087   7.566   7.422   1.846  1.2175 -0.1855  0.0892
15647SOL    HW250088   7.653   7.503   1.940 -0.5264  0.2583  1.3529
15648SOL     OW50089   2.178   3.099   2.216 -0.4325  0.2115  0.1569
15648SOL    HW150090   2.255   3.151   2.194  0.4566 -0.8319  0.7399
15648SOL    HW250091   2.111   3.128   2.154 -0.2942  2.7516  1.0846
15649SOL     OW50092   6.165   3.300   5.078 -0.4628 -0.1787 -0.5859
15649SOL    HW150093   6.082   3.291   5.125 -0.3886  1.2561 -0.1250
15649SOL    HW250094   6.169   3.393   5.053  0.8062 -0.3120 -0.9755
15650SOL     OW50095   4.137   7.596   3.007  0.2706 -0.3903 -0.0269
15650SOL    HW150096   4.090   7.544   2.942 -0.3604  2.3703 -1.9774
15650SOL    HW250097   4.071   7.618   3.073  0.2771 -1.0905  0.2261
15651SOL     OW50098   7.757   3.554   2.536 -0.5344  0.0988  0.6576
15651SOL    HW150099   7.787   3.573   2.625 -0.1801 -0.8351  0.7409
15651SOL    HW250100   7.837   3.537   2.486 -0.8064 -0.5949  0.4529
15652SOL     OW50101   3.353   2.739   0.706 -0.0573  0.2789  0.7007
15652SOL    HW150102   3.308   2.803   0.651  0.6068 -0.6695 -1.0290
15652SOL    HW250103   3.440   2.777   0.719 -0.1136  0.3613  0.8374
15653SOL     OW50104   3.508   0.540   0.242  0.2227  0.7710 -0.6807
15653SOL    HW150105   3.482   0.622   0.201  0.0713  2.1503  1.9329
15653SOL    HW250106   3.426   0.496   0.263  0.2002  1.1986  0.1838
15654SOL     OW50107   3.359   6.372   7.664  0.2019 -0.0052  0.1240
15654SOL    HW150108   3.320   6.411   7.586 -2.1481 -0.5193  0.9253
15654SOL    HW250109   3.376   6.445   7.723  2.0379  0.3897 -0.8346
15655SOL     OW50110   2.899   7.263   0.466 -0.1581 -0.0328 -0.1403
15655SOL    HW150111   2.888   7.195   0.401 -0.4139  0.6925 -0.8726
15655SOL    HW250112   2.817   7.263   0.516 -0.7007  0.6167 -1.0025
15656SOL     OW50113   2.334   3.323   7.295  0.1663  0.2777 -0.1825
15656SOL    HW150114   2.251   3.292   7.331 -0.6266  0.3484 -1.8256
15656SOL    HW250115   2.395   3.320   7.368 -0.6587 -2.1438  0.5085
15657SOL     OW50116   4.543   0.500   4.849  0.1736  0.3676 -0.2857
15657SOL    HW150117   4.484   0.483   4.922  0.4288 -0.9801 -0.3698
15657SOL    HW250118   4.529   0.592   4.827 -0.3060  0.6370  1.0923
15658SOL     OW50119   4.777   1.289   7.810 -0.3808 -0.8184  0.1998
15658SOL    HW150120   4.708   1.262   7.749 -0.5523 -2.5781  1.0950
15658SOL    HW250121   4.824   1.208   7.830  0.7134  0.0154  1.1365
15659SOL     OW50122   6.352   6.839   5.119 -0.0284 -0.5075  0.1261
15659SOL    HW150123   6.393   6.816   5.202  1.2399 -1.2566 -0.6760
15659SOL    HW250124   6.425   6.851   5.058 -0.9649 -1.8273 -1.3472
15660SOL     OW50125   7.377   2.137   1.854 -0.0147 -0.4316  0.0539
15660SOL    HW150126   7.359   2.226   1.824  0.8615 -0.6939 -1.3376
15660SOL    HW250127   7.442   2.148   1.923  0.7067 -0.0316 -0.6741
15661SOL     OW50128   6.814   2.768   3.435 -0.0058 -0.1949 -0.4095
15661SOL    HW150129   6.742   2.721   3.478 -1.2335 -0.1241 -2.2896
15661SOL    HW250130   6.819   2.729   3.348  0.6207  1.4576 -1.1431
15662SOL     OW50131   7.463   5.839   6.340 -0.0153  0.1186 -0.3106
15662SOL    HW150132   7.550   5.879   6.341 -1.2201  3.0297 -0.5539
15662SOL    HW250133   7.444   5.826   6.247 -0.6426  1.5626 -0.4115
15663SOL     OW50134   7.333   1.684   2.338  0.0810 -0.4239 -0.1293
15663SOL    HW150135   7.305   1.717   2.253 -0.4585 -0.2815  0.0967
15663SOL    HW250136   7.272   1.612   2.357 -0.4688  0.2199  0.5994
15664SOL     OW50137   0.018   0.881   5.080  0.5501  0.3654 -0.2931
15664SOL    HW150138   0.013   0.956   5.021  0.5455 -0.2297 -1.0620
15664SOL    HW250139   0.075   0.910   5.151  0.0725  1.2962 -0.2751
15665SOL     OW50140   6.574   0.298   7.161  0.2095  0.0171 -0.0037
15665SOL    HW150141   6.598   0.244   7.086 -0.5963 -0.0694 -0.2148
15665SOL    HW250142   6.582   0.388   7.130 -0.7829 -0.0243 -0.4297
15666SOL     OW50143   6.420   5.798   2.507  0.3878  0.0171  0.1657
15666SOL    HW150144   6.337   5.828   2.471  0.6022  0.4745  0.0477
15666SOL    HW250145   6.450   5.732   2.444  0.4209  0.3094 -0.1269
15667SOL     OW50146   5.604   0.233   0.341 -0.0637 -0.6091 -0.0925
15667SOL    HW150147   5.695   0.228   0.370  0.3769 -3.2245 -1.5615
15667SOL    HW250148   5.610   0.253   0.248 -1.0588  0.0978 -0.0173
15668SOL     OW50149   6.601   0.487   0.524  0.1953 -0.0619 -0.1077
15668SOL    HW150150   6.576   0.455   0.438 -1.2009  1.3168 -0.2649
15668SOL    HW250151   6.696   0.488   0.523  0.2052  1.0477 -2.0837
15669SOL     OW50152   3.684   4.063   7.224 -0.4187  0.0973  0.6419
15669SOL    HW150153   3.771   4.028   7.204 -0.2428  0.9532 -0.1761
15669SOL    HW250154   3.649   4.005   7.292  0.1646 -1.1954 -0.1198
15670SOL     OW50155   7.914   2.271   0.167 -0.1746 -0.1086  0.2785
15670SOL    HW150156   7.866   2.285   0.249 -2.0927  0.5926 -0.8998
15670SOL    HW250157   7.999   2.312   0.182 -0.0457 -0.9744  2.2845
15671SOL     OW50158   7.954   4.931   6.558  0.0476  0.0801 -0.0073
15671SOL    HW150159   7.982   4.872   6.489 -0.9159 -0.6972  0.2527
15671SOL    HW250160   8.035   4.953   6.605  0.7060  0.5828 -1.3174
15672SOL     OW50161   3.005   1.345   1.956  0.0477  0.8250  0.4722
15672SOL    HW150162   3.050   1.355   2.040 -0.8673 -0.4907  1.1537
15672SOL    HW250163   3.057   1.281   1.908  0.1795  1.0553  0.3008
15673SOL     OW50164   5.764   3.248   6.440 -0.0097  0.2498  0.1131
15673SOL    HW150165   5.788   3.218   6.528 -1.5153 -1.8217 -0.1173
15673SOL    HW250166   5.847   3.276   6.401  0.8951 -0.0795  1.7163
15674SOL     OW50167   4.579   2.513   4.194 -0.0543 -0.4863 -0.0505
15674SOL    HW150168   4.641   2.570   4.240  0.2863 -0.1471 -0.8973
15674SOL    HW250169   4.614   2.425   4.205 -1.9895 -0.9847  3.5678
15675SOL     OW50170   3.366   0.172   5.444 -0.4461  0.0667 -0.2309
15675SOL    HW150171   3.419   0.251   5.437 -1.5852  0.8826  0.0531
15675SOL    HW250172   3.375   0.145   5.536  0.8952 -0.8428 -0.6067
15676SOL     OW50173   6.192   5.251   2.801 -0.5221 -0.5555 -0.3056
15676SOL    HW150174   6.181   5.237   2.895 -1.7821  0.2695 -0.3045
15676SOL    HW250175   6.103   5.266   2.768  0.0713  1.1823 -1.2623
15677SOL     OW50176   1.159   2.222   2.025  0.1762  0.6269  0.2661
15677SOL    HW150177   1.113   2.273   1.958  1.0268  1.9742  0.6511
15677SOL    HW250178   1.188   2.143   1.980  0.5202  1.3928 -0.8962
15678SOL     OW50179   4.037   5.677   2.418 -0.1916  0.2084  0.5706
15678SOL    HW150180   4.017   5.602   2.362 -0.7468  0.4587  0.4167
15678SOL    HW250181   4.039   5.751   2.358  0.8871  0.2481  0.6416
15679SOL     OW50182   7.871   3.725   6.206  0.2467 -0.4353 -0.2752
15679SOL    HW150183   7.942   3.780   6.240 -1.3742  0.8671  1.1611
15679SOL    HW250184   7.851   3.762   6.120  1.0874 -0.6275 -0.5630
15680SOL     OW50185   3.376   1.664   6.345  0.4271 -0.3340 -0.2893
15680SOL    HW150186   3.289   1.705   6.337  1.2643  1.3687 -1.4035
15680SOL    HW250187   3.365   1.597   6.412 -1.7566 -0.1819 -0.4195
15681SOL     OW50188   3.921   4.400   3.729  0.3651 -0.2743  0.0943
15681SOL    HW150189   3.980   4.460   3.683 -1.3802  0.4999 -1.2650
15681SOL    HW250190   3.853   4.380   3.665 -0.3233 -1.9344  1.2759
15682SOL     OW50191   7.576   3.350   0.353 -0.3160  0.3679  0.3700
15682SOL    HW150192   7.515   3.424   0.350 -1.7268 -0.7901 -0.9218
15682SOL    HW250193   7.537   3.290   0.417  0.2326  0.2282  0.5778
15683SOL     OW50194   4.115   7.116   6.649  0.2502 -0.5107 -0.7085
15683SOL    HW150195   4.066   7.045   6.690 -0.2492 -0.5181 -1.2922
15683SOL    HW250196   4.182   7.140   6.713 -1.4472  0.5290  0.7733
15684SOL     OW50197   6.626   2.608   2.178 -0.2098 -0.5965  0.6888
15684SOL    HW150198   6.587   2.622   2.091 -1.8787  1.4930  1.6744
15684SOL    HW250199   6.716   2.580   2.160 -0.1397  0.8875 -1.7320
15685SOL     OW50200   5.743   0.078   7.978  0.2241 -0.0573 -0.3196
15685SOL    HW150201   5.661   0.089   7.930 -1.5972 -1.2724  2.2826
15685SOL    HW250202   5.730   0.125   8.060  1.9991 -0.5661  0.3072
15686SOL     OW50203   4.554   3.166   6.172  0.0474  0.1802 -0.1757
15686SOL    HW150204   4.478   3.189   6.225 -1.1205 -0.1552 -1.6285
15686SOL    HW250205   4.566   3.072   6.184 -1.1041 -0.1764 -1.5338
15687SOL     OW50206   4.828   2.765   1.298  0.1982 -0.2034  0.2033
15687SOL    HW150207   4.900   2.825   1.313 -1.0688  1.9768 -1.7682
15687SOL    HW250208   4.791   2.792   1.214 -1.1414 -3.0806 -0.2635
15688SOL     OW50209   0.119   4.644   6.013 -0.2026 -0.0445  0.0365
15688SOL    HW150210   0.061   4.706   5.971 -0.0402 -1.1427 -1.9082
15688SOL    HW250211   0.115   4.566   5.959  2.9491 -0.2348 -0.1380
15689SOL     OW50212   2.362   1.792   4.700  0.0933  0.4066  0.7719
15689SOL    HW150213   2.343   1.817   4.610  1.9406 -1.4033 -0.1981
15689SOL    HW250214   2.437   1.846   4.725 -0.0992  0.5499  1.0401
15690SOL     OW50215   3.766   7.164   1.085 -0.5065 -0.7349 -0.5701
15690SOL    HW150216   3.840   7.186   1.030  0.4542  0.5082  1.1269
15690SOL    HW250217   3.795   7.089   1.137  0.0189  0.4048  0.8516
15691SOL     OW50218   1.674   4.833   7.830  0.1500  0.1634 -0.2692
15691SOL    HW150219   1.667   4.898   7.899  3.0272 -1.1547  1.4215
15691SOL    HW250220   1.700   4.882   7.753 -1.9746  1.4989 -0.2302
15692SOL     OW50221   1.463   4.628   6.229 -0.1398  0.0041  0.2079
15692SOL    HW150222   1.416   4.549   6.256  0.1722 -0.6831 -1.1944
15692SOL    HW250223   1.494   4.609   6.141  0.8985  1.2798  0.2680
15693SOL     OW50224   2.788   2.243   1.322  0.2673 -0.4516  0.1698
15693SOL    HW150225   2.729   2.313   1.297  1.7066  1.3376  1.4801
15693SOL    HW250226   2.731   2.172   1.353 -1.2740  1.8341  3.0743
15694SOL     OW50227   3.944   2.795   6.923 -0.3161 -0.0495 -0.6317
15694SOL    HW150228   3.983   2.709   6.907  0.6574  0.2540  0.0257
15694SOL    HW250229   4.017   2.850   6.950 -1.3675  0.1095  2.3177
15695SOL     OW50230   7.855   4.329   5.752 -0.1697  0.1868  0.7111
15695SOL    HW150231   7.817   4.258   5.804  0.7064 -0.4502  0.5055
15695SOL    HW250232   7.945   4.302   5.737 -0.7219 -0.3038 -2.3278
15696SOL     OW50233   2.296   0.840   6.167 -0.2993 -0.0034  0.2559
15696SOL    HW150234   2.211   0.818   6.206 -0.3846  1.2469  0.8623
15696SOL    HW250235   2.360   0.799   6.224 -0.3999  2.3155  2.2146
15697SOL     OW50236   3.230   0.093   6.329 -0.3608  0.4185  0.0387
15697SOL    HW150237   3.175   0.066   6.256  0.2416 -0.4491 -0.1195
15697SOL    HW250238   3.169   0.108   6.401 -0.8064 -0.6820 -0.0852
15698SOL     OW50239   2.440   0.469   6.065  0.1601  0.0415 -0.6346
15698SOL    HW150240   2.493   0.390   6.073  0.4208  0.2214 -0.5240
15698SOL    HW250241   2.435   0.503   6.155  2.0494  1.4140 -0.9640
15699SOL     OW50242   1.746   1.614   1.777  0.4289  0.2275 -0.0197
15699SOL    HW150243   1.699   1.698   1.781 -0.2250 -0.0030 -1.8953
15699SOL    HW250244   1.816   1.623   1.841  0.3455  2.1957 -0.1377
15700SOL     OW50245   3.457   0.668   5.238 -0.2404  0.4699 -0.3727
15700SOL    HW150246   3.487   0.672   5.147 -0.2711  1.9130 -0.3370
15700SOL    HW250247   3.363   0.688   5.234 -0.6674 -1.3441 -0.1988
15701SOL     OW50248   5.496   2.351   8.041  0.3810 -0.0009  0.1152
15701SOL    HW150249   5.478   2.398   8.122 -0.4224  0.5189 -0.3450
15701SOL    HW250250   5.420   2.294   8.029  0.6122 -0.2565 -0.1342
15702SOL     OW50251   3.599   4.151   2.481 -0.3244 -0.2107 -0.4687
15702SOL    HW150252   3.693   4.162   2.497 -0.5442  0.5582  0.4113
15702SOL    HW250253   3.566   4.240   2.470 -0.5989 -0.5655 -3.1942
15703SOL     OW50254   8.049   7.836   2.806  0.2464 -0.1469 -0.4581
15703SOL    HW150255   8.082   7.864   2.721  0.8225  0.0257 -0.1881
15703SOL    HW250256   8.011   7.915   2.844  2.5059  0.5386  0.6015
15704SOL     OW50257   0.405   6.896   6.236  0.1895 -0.0458 -0.3107
15704SOL    HW150258   0.393   6.988   6.211 -0.4628 -0.1995 -0.5887
15704SOL    HW250259   0.500   6.885   6.241  0.2654  0.7752  0.2423
15705SOL     OW50260   3.027   3.472   0.902  0.6087 -0.1582  0.2292
15705SOL    HW150261   2.971   3.548   0.888 -1.6813 -1.9723 -1.0739
15705SOL    HW250262   3.005   3.412   0.831  3.2530 -1.5605  0.4736
15706SOL     OW50263   5.320   1.886   5.131  0.0087  0.0193  0.1189
15706SOL    HW150264   5.385   1.844   5.187  0.7788  1.0858  0.0506
15706SOL    HW250265   5.236   1.853   5.163  0.4797 -0.0462  1.3578
15707SOL     OW50266   4.208   5.715   6.109 -0.0929 -0.4785  0.0019
15707SOL    HW150267   4.246   5.796   6.145 -2.1355  0.5777 -0.0662
15707SOL    HW250268   4.114   5.723   6.126 -0.2778 -3.2162  0.6351
15708SOL     OW50269   0.600   1.999   1.721 -0.3209 -0.2817  0.0617
15708SOL    HW150270   0.509   1.985   1.749 -0.8195  0.0042 -1.3101
15708SOL    HW250271   0.631   1.913   1.696  0.4874 -0.7335  2.3518
15709SOL     OW50272   3.842   1.294   2.879  0.0638  0.1792  0.5664
15709SOL    HW150273   3.838   1.203   2.910 -0.7228  0.4292  1.2109
15709SOL    HW250274   3.751   1.318   2.862  0.3566  0.5286 -0.5535
15710SOL     OW50275   4.408   0.955   7.550 -0.1140  0.3312  0.2803
15710SOL    HW150276   4.413   0.860   7.547  0.5451  0.3754 -0.9786
15710SOL    HW250277   4.375   0.980   7.464  0.4827  1.2617  0.2971
15711SOL     OW50278   6.885   3.969   1.174 -0.3113  0.3256 -0.3129
15711SOL    HW150279   6.894   4.050   1.224  1.6534 -1.0397  1.6808
15711SOL    HW250280   6.838   3.909   1.232 -0.7596 -0.3414 -1.3320
15712SOL     OW50281   6.207   3.365   6.631  0.2592  0.3976  0.0229
15712SOL    HW150282   6.237   3.300   6.567 -0.1591  0.5570 -0.3414
15712SOL    HW250283   6.125   3.329   6.666  0.6466  0.1615  0.7068
15713SOL     OW50284   1.891   3.051   1.292  0.0209  0.1996  0.9089
15713SOL    HW150285   1.883   3.005   1.375 -1.4131 -0.2087  0.5832
15713SOL    HW250286   1.879   2.983   1.226 -0.4659  0.7696  0.3995
15714SOL     OW50287   5.918   1.884   5.446 -0.0959 -0.0672  0.2254
15714SOL    HW150288   5.886   1.960   5.494  0.3075  0.5241 -0.4221
15714SOL    HW250289   6.003   1.912   5.412  0.4864 -1.1367  0.7725
15715SOL     OW50290   0.379   4.302   2.679 -0.3694 -0.4701  0.0349
15715SOL    HW150291   0.384   4.260   2.765 -1.2497  0.1454  0.4003
15715SOL    HW250292   0.445   4.256   2.627  1.4373  0.2951  1.5246
15716SOL     OW50293   0.659   2.988   0.448  0.0375 -0.4364 -0.1705
15716SOL    HW150294   0.567   3.008   0.431  0.0746 -0.1289 -0.0154
15716SOL    HW250295   0.708   3.054   0.398  0.2478 -2.1201 -2.3479
15717SOL     OW50296   5.060   5.567   2.455  0.2335  0.3110  0.3947
15717SOL    HW150297   5.118   5.641   2.473  0.3923  0.1745  0.4516
15717SOL    HW250298   5.110   5.511   2.396  0.3359 -0.0268  0.7956
15718SOL     OW50299   4.187   1.692   5.103 -0.4544  0.2474  0.2369
15718SOL    HW150300   4.092   1.685   5.103 -0.5404  0.5580  2.4684
15718SOL    HW250301   4.218   1.603   5.090 -1.0198  0.1878 -0.8017
15719SOL     OW50302   6.655   6.533   1.705 -0.1635 -0.3195  0.3402
15719SOL    HW150303   6.692   6.595   1.641 -2.3160  0.2584 -0.4295
15719SOL    HW250304   6.604   6.588   1.765 -0.9800 -1.1934  0.4730
15720SOL     OW50305   2.979   7.806   4.592 -0.0059 -0.5539 -0.4556
15720SOL    HW150306   2.918   7.743   4.552  1.0418 -0.3399 -2.4997
15720SOL    HW250307   2.979   7.782   4.685 -0.5313 -2.8268 -0.9623
15721SOL     OW50308   5.627   5.774   2.329  0.1637 -0.1442 -0.3822
15721SOL    HW150309   5.637   5.752   2.237 -1.5959  1.8406 -1.1426
15721SOL    HW250310   5.536   5.753   2.349  1.0583 -2.5951  1.5921
15722SOL     OW50311   7.906   7.649   3.311 -0.0177 -0.4601  0.1871
15722SOL    HW150312   7.884   7.659   3.219  0.7874 -1.4663 -0.1328
15722SOL    HW250313   7.956   7.728   3.332  0.5444 -0.6341 -0.4758
15723SOL     OW50314   0.931   1.783   3.092 -0.8234 -0.2410  0.1719
15723SOL    HW150315   1.004   1.837   3.124  0.5587 -1.6203 -0.5134
15723SOL    HW250316   0.882   1.841   3.034  0.0183  0.5807  0.2501
15724SOL     OW50317   1.914   6.433   7.427  0.0197  0.3463  0.6797
15724SOL    HW150318   1.885   6.367   7.364  1.9873 -1.0875  1.1671
15724SOL    HW250319   1.867   6.513   7.402 -0.8031 -0.6855 -1.2819
15725SOL     OW50320   3.282   8.011   8.020  0.7181  0.6788  0.3771
15725SOL    HW150321   3.370   7.997   7.986  0.1410 -0.1419 -0.8330
15725SOL    HW250322   3.287   7.983   8.111  1.4303 -0.4003  0.0186
15726SOL     OW50323   1.698   0.146   7.165  1.1560  0.2606  0.2275
15726SOL    HW150324   1.723   0.055   7.146  1.3564  0.1822  0.8541
15726SOL    HW250325   1.781   0.189   7.185  1.1239  0.7115 -0.5728
15727SOL     OW50326   5.730   2.445   5.974  0.0257  0.0834 -0.8226
15727SOL    HW150327   5.665   2.402   5.919  1.2498 -0.3845 -1.9725
15727SOL    HW250328   5.814   2.410   5.943  0.8940  1.4420 -0.0888
15728SOL     OW50329   6.354   0.314   4.764  0.0772 -0.6877  0.1989
15728SOL    HW150330   6.372   0.408   4.760 -0.8692 -0.4891  0.2242
15728SOL    HW250331   6.274   0.308   4.818 -1.7539 -1.2205 -2.4001
15729SOL     OW50332   2.335   1.581   4.469 -0.2887 -0.1513 -0.6846
15729SOL    HW150333   2.339   1.566   4.564 -0.4831  2.2436 -0.2434
15729SOL    HW250334   2.253   1.540   4.442 -0.3014 -0.7377  0.2019
15730SOL     OW50335   7.861   4.261   1.771  0.0472  0.4045 -0.0086
15730SOL    HW150336   7.952   4.289   1.769 -0.3831  1.8214 -0.8492
15730SOL    HW250337   7.841   4.249   1.864  0.9901  0.3606  0.1979
15731SOL     OW50338   1.359   4.469   7.644 -0.9516  0.1795 -0.6161
15731SOL    HW150339   1.269   4.447   7.621 -0.5978  0.3340 -2.3575
15731SOL    HW250340   1.380   4.545   7.589  0.1348  0.3510 -0.0005
15732SOL     OW50341   5.765   7.484   2.646 -0.0306  0.5690 -0.0507
15732SOL    HW150342   5.795   7.501   2.558  1.5464 -0.3809  0.2677
15732SOL    HW250343   5.711   7.405   2.638  1.3967 -0.4440  0.0362
15733SOL     OW50344   7.157   7.355   1.183 -0.0172 -0.3707  0.2912
15733SOL    HW150345   7.175   7.262   1.172  0.2588 -0.5034  1.6921
15733SOL    HW250346   7.067   7.366   1.154  0.3770 -0.8109 -1.1578
15734SOL     OW50347   1.082   7.167   5.488  0.0694 -0.2046 -0.4662
15734SOL    HW150348   1.113   7.256   5.502 -1.1734  0.0329  0.9386
15734SOL    HW250349   1.118   7.142   5.403  2.2438  0.8358  0.0805
15735SOL     OW50350   1.204   3.141   7.037 -0.1473  0.2142  0.0122
15735SOL    HW150351   1.132   3.170   6.981 -0.0758 -0.0651 -0.2227
15735SOL    HW250352   1.178   3.170   7.125  0.3823  1.8698 -0.3417
15736SOL     OW50353   4.823   6.200   7.642  0.3247  0.6174 -0.3477
15736SOL    HW150354   4.812   6.105   7.647  1.7914  0.1646 -3.3458
15736SOL    HW250355   4.848   6.225   7.731 -1.3377 -1.5530  0.8447
15737SOL     OW50356   0.305   4.373   7.129  0.4659  0.2278 -0.2561
15737SOL    HW150357   0.368   4.337   7.192  0.4436 -0.5919 -0.7035
15737SOL    HW250358   0.328   4.333   7.046  1.6734  2.6854 -1.1993
15738SOL     OW50359   2.649   0.084   4.645  0.9261 -0.5226 -0.5463
15738SOL    HW150360   2.705   0.124   4.711  0.3612  2.0255 -1.4705
15738SOL    HW250361   2.709   0.054   4.577  1.2922  1.2234 -1.0424
15739SOL     OW50362   1.478   0.189   0.545  0.3599 -0.2888  0.0917
15739SOL    HW150363   1.569   0.216   0.534  0.0405  1.4924  1.3831
15739SOL    HW250364   1.482   0.120   0.612  0.8443 -1.0451 -0.6931
15740SOL     OW50365   1.053   5.548   0.525 -0.0146 -0.1338 -0.0023
15740SOL    HW150366   1.036   5.604   0.601 -2.9637 -1.1507  0.2066
15740SOL    HW250367   1.052   5.459   0.561 -1.5876 -0.6406 -1.1825
15741SOL     OW50368   2.311   0.080   2.088  0.4638  0.2194  0.2032
15741SOL    HW150369   2.316   0.091   1.993  0.7977  0.5072  0.2549
15741SOL    HW250370   2.400   0.093   2.119  0.0472  2.0051  0.7595
15742SOL     OW50371   7.931   0.938   5.672 -0.5377 -0.3404  0.3642
15742SOL    HW150372   8.001   0.989   5.711 -2.0483  0.6160  1.9577
15742SOL    HW250373   7.920   0.974   5.584 -0.1949  0.6882  0.7378
15743SOL     OW50374   6.309   2.530   4.858  0.2626  0.1113  0.0179
15743SOL    HW150375   6.241   2.593   4.883  0.9946  0.9312 -0.0269
15743SOL    HW250376   6.310   2.533   4.763  0.0661 -0.2163  0.0064
15744SOL     OW50377   6.319   3.241   6.418  0.1035 -0.0958 -0.9039
15744SOL    HW150378   6.413   3.259   6.416 -0.3402  2.5637 -1.0472
15744SOL    HW250379   6.294   3.236   6.326 -0.1554  0.8815 -0.8944
15745SOL     OW50380   6.161   7.565   0.591  0.0075  0.2374 -0.4529
15745SOL    HW150381   6.092   7.517   0.546  0.2793 -0.7959  0.2091
15745SOL    HW250382   6.193   7.627   0.526 -0.0557 -0.7620 -1.4668
15746SOL     OW50383   6.784   3.608   0.890  0.1474 -0.1210  0.5905
15746SOL    HW150384   6.706   3.565   0.925 -1.5069  0.9889 -1.5097
15746SOL    HW250385   6.790   3.690   0.939 -0.3537  0.0651  0.3372
15747SOL     OW50386   7.734   1.423   0.834 -0.0930  0.4762  0.1123
15747SOL    HW150387   7.813   1.398   0.787 -0.5835  1.1214 -1.0895
15747SOL    HW250388   7.758   1.501   0.883  0.1802  0.3143  0.2371
15748SOL     OW50389   2.114   5.751   2.285  0.2174 -0.1428 -0.0886
15748SOL    HW150390   2.097   5.817   2.352 -0.6286 -0.2354 -0.2053
15748SOL    HW250391   2.047   5.684   2.299 -0.7962  0.4455 -1.7970
15749SOL     OW50392   4.472   4.125   1.885  0.1903 -0.0421  0.0454
15749SOL    HW150393   4.391   4.172   1.908  0.5308  0.3884  0.3765
15749SOL    HW250394   4.454   4.089   1.798  0.5846  2.3329 -1.1135
15750SOL     OW50395   1.983   0.165   1.194 -0.4463  0.2550  0.1063
15750SOL    HW150396   2.035   0.139   1.270 -0.5926  0.4556  0.2749
15750SOL    HW250397   1.893   0.166   1.226 -0.5880 -0.3266 -0.2465
15751SOL     OW50398   0.758   6.280   7.064  0.0312  0.1630 -0.2212
15751SOL    HW150399   0.737   6.219   7.135  1.9098  1.1472  1.2672
15751SOL    HW250400   0.743   6.366   7.102  2.1190  0.7401 -0.6251
15752SOL     OW50401   2.669   0.552   4.500  0.2567  0.2737  0.0454
15752SOL    HW150402   2.669   0.478   4.561 -2.6953 -0.0672 -0.2008
15752SOL    HW250403   2.599   0.609   4.531  0.3692  1.3743 -1.5929
15753SOL     OW50404   2.971   6.110   7.925 -0.6627 -0.8121  0.4321
15753SOL    HW150405   2.942   6.033   7.877  0.5542 -0.7286 -0.4754
15753SOL    HW250406   3.062   6.123   7.898 -1.0046  1.2710  0.1059
15754SOL     OW50407   4.902   7.026   7.274  0.3455  0.0469 -0.1297
15754SOL    HW150408   4.970   6.965   7.302 -1.3287 -1.7475  0.2689
15754SOL    HW250409   4.882   6.999   7.184 -1.0193 -0.6307  0.3495
15755SOL     OW50410   3.920   3.340   4.311 -0.1247 -0.0162  0.1927
15755SOL    HW150411   3.886   3.321   4.223  0.9617  3.5724 -1.2023
15755SOL    HW250412   3.970   3.262   4.335 -0.4988 -1.1394 -2.3797
15756SOL     OW50413   4.644   5.616   2.273 -0.4225  0.0470  0.1497
15756SOL    HW150414   4.690   5.576   2.347 -2.9181 -0.8605  1.3529
15756SOL    HW250415   4.581   5.549   2.245 -2.1797  1.7646 -0.2420
15757SOL     OW50416   5.600   0.196   2.238  0.3543 -0.0805 -0.9743
15757SOL    HW150417   5.614   0.102   2.225 -1.6357 -0.8993  1.8995
15757SOL    HW250418   5.519   0.216   2.192 -1.2147 -0.7112  1.3295
15758SOL     OW50419   7.293   0.352   4.846  0.2156  0.1960 -0.2122
15758SOL    HW150420   7.261   0.421   4.788 -1.3205 -0.7022 -0.4807
15758SOL    HW250421   7.335   0.289   4.787  1.1143  0.5918 -0.0236
15759SOL     OW50422   5.319   4.492   6.227 -0.0792  0.2274 -0.0121
15759SOL    HW150423   5.305   4.426   6.295  1.1189  0.9470  0.9723
15759SOL    HW250424   5.292   4.574   6.267 -0.4720  0.5093 -0.8307
15760SOL     OW50425   4.339   1.052   6.366 -0.2219  0.1855  0.1285
15760SOL    HW150426   4.369   1.136   6.331 -1.1197  1.7329  2.7579
15760SOL    HW250427   4.303   1.006   6.291  0.9517  1.8451 -1.5356
15761SOL     OW50428   1.056   2.939   5.715  0.0265  0.1725  0.1777
15761SOL    HW150429   1.012   2.957   5.632 -0.8386 -0.5480  0.4581
15761SOL    HW250430   0.986   2.947   5.780  0.1592 -1.5883  0.5773
15762SOL     OW50431   1.580   5.469   1.410  0.3606 -0.1715 -0.1674
15762SOL    HW150432   1.628   5.479   1.327  0.4548  0.4836 -0.0386
15762SOL    HW250433   1.571   5.558   1.443 -0.9133 -0.2942 -0.1582
15763SOL     OW50434   5.248   1.527   5.178  0.5687 -0.8716 -0.7531
15763SOL    HW150435   5.322   1.497   5.125 -0.1394 -1.3089 -1.5203
15763SOL    HW250436   5.176   1.468   5.155 -0.3158  0.1853 -0.7949
15764SOL     OW50437   7.089   0.239   6.866  0.8228 -0.2459 -0.1510
15764SOL    HW150438   7.068   0.146   6.859 -2.6136  0.3290  0.7227
15764SOL    HW250439   7.162   0.251   6.806  1.1823 -3.4266 -0.5419
15765SOL     OW50440   1.725   0.975   1.716 -0.4356  0.0531 -0.3031
15765SOL    HW150441   1.743   0.903   1.776 -0.7360  0.4748  0.3091
15765SOL    HW250442   1.778   1.048   1.749 -1.7016  0.7161  0.3380
15766SOL     OW50443   1.789   3.918   5.867  0.6427  0.5767 -0.4005
15766SOL    HW150444   1.853   3.886   5.804 -0.5931 -0.4917 -1.1721
15766SOL    HW250445   1.773   4.008   5.841  2.8609  1.3601  0.7042
15767SOL     OW50446   6.427   3.100   1.442  0.3399 -0.1659  0.4568
15767SOL    HW150447   6.464   3.034   1.500 -1.8935 -1.1365  0.8681
15767SOL    HW250448   6.369   3.152   1.499 -0.2429  0.2270 -0.4778
15768SOL     OW50449   7.990   4.599   0.328  0.1233 -0.1212 -0.1496
15768SOL    HW150450   7.923   4.581   0.263  0.3309 -2.2993  0.1553
15768SOL    HW250451   7.955   4.672   0.380 -1.6657 -0.7229 -0.4601
15769SOL     OW50452   7.038   6.645   3.998 -0.2409 -0.1143  0.0029
15769SOL    HW150453   6.993   6.570   3.959 -2.5552  1.1472  0.1313
15769SOL    HW250454   7.020   6.638   4.091  0.7099 -0.1276  0.2004
15770SOL     OW50455   1.103   1.290   6.405 -0.4707  0.4540  0.5762
15770SOL    HW150456   1.169   1.333   6.350 -0.3761 -1.1486 -0.6208
15770SOL    HW250457   1.020   1.318   6.366 -0.4623  0.9513  0.9051
15771SOL     OW50458   2.046   7.480   4.890  0.3392  0.2864 -0.0549
15771SOL    HW150459   2.052   7.468   4.795  0.4876  1.9714 -0.2851
15771SOL    HW250460   2.000   7.401   4.921  0.5795 -0.4425 -1.4725
15772SOL     OW50461   1.959   3.970   0.126 -0.5142  0.6306  0.5290
15772SOL    HW150462   1.874   3.987   0.084  0.0468  3.2419  0.2972
15772SOL    HW250463   1.942   3.897   0.186 -2.6174  0.3067 -0.3707
15773SOL     OW50464   4.760   5.721   7.055  0.3878 -0.1253 -0.2333
15773SOL    HW150465   4.672   5.701   7.086  0.4225 -0.2671 -0.2285
15773SOL    HW250466   4.747   5.762   6.970  0.2038  1.3853  0.4662
15774SOL     OW50467   0.335   0.765   1.184  0.5186  0.1094  0.0302
15774SOL    HW150468   0.301   0.695   1.128 -0.1399 -0.7087  1.3950
15774SOL    HW250469   0.321   0.733   1.273  3.2540  0.5132  0.7088
15775SOL     OW50470   6.799   2.224   4.677  0.5745 -0.6133  0.1527
15775SOL    HW150471   6.764   2.312   4.666  0.0276 -0.9030 -0.5161
15775SOL    HW250472   6.746   2.187   4.748  0.4259 -0.5917  0.0536
15776SOL     OW50473   3.071   1.517   3.111  0.2942  0.0830  0.0807
15776SOL    HW150474   3.107   1.499   3.024  2.6953 -0.1912  1.0523
15776SOL    HW250475   2.979   1.536   3.095  0.5856 -0.2596 -2.4794
15777SOL     OW50476   7.401   0.082   2.609  0.6024  0.2216 -0.3030
15777SOL    HW150477   7.320   0.032   2.603  0.6440 -0.0198  0.9647
15777SOL    HW250478   7.372   0.172   2.623  0.5193 -0.1617  2.3581
15778SOL     OW50479   0.822   3.566   1.588 -0.6275 -0.5758 -0.0987
15778SOL    HW150480   0.843   3.513   1.665 -0.6095 -1.3817 -0.6443
15778SOL    HW250481   0.726   3.567   1.586 -0.7420  1.9614  1.6125
15779SOL     OW50482   7.365   7.777   7.527 -0.8666  0.0505  0.1822
15779SOL    HW150483   7.389   7.859   7.483 -0.3955 -0.3066 -0.2473
15779SOL    HW250484   7.349   7.715   7.455  0.3684 -0.6748  0.4954
15780SOL     OW50485   3.027   5.155   7.450  0.2571  0.0164  0.0123
15780SOL    HW150486   3.042   5.240   7.411  2.2090  0.6989  2.0160
15780SOL    HW250487   2.937   5.159   7.484 -0.4162  0.4374 -1.7197
15781SOL     OW50488   6.610   1.030   1.835 -0.2110 -0.0318 -0.0390
15781SOL    HW150489   6.676   0.980   1.882  1.4009  0.1437 -2.0020
15781SOL    HW250490   6.559   0.964   1.787  1.0355  0.0445 -1.5384
15782SOL     OW50491   1.084   2.405   2.286 -0.3721 -0.2033 -0.2881
15782SOL    HW150492   1.133   2.344   2.341 -0.4623 -0.5970 -0.6458
15782SOL    HW250493   1.006   2.357   2.261 -0.6727  0.2272 -0.1842
15783SOL     OW50494   2.214   4.347   6.934 -0.3869 -0.1570 -0.6718
15783SOL    HW150495   2.255   4.296   7.004 -1.3797 -1.0992 -0.7394
15783SOL    HW250496   2.167   4.417   6.981 -1.3228 -0.9795 -0.3380
15784SOL     OW50497   3.094   7.482   1.492 -0.4748 -0.5153 -0.5270
15784SOL    HW150498   3.146   7.478   1.573  0.6908  0.2495 -1.2064
15784SOL    HW250499   3.007   7.453   1.518  0.3830 -2.2806  0.5756
15785SOL     OW50500   7.839   1.886   0.623  0.8251  0.0212 -0.3103
15785SOL    HW150501   7.803   1.811   0.574 -2.2297  0.4097  1.1221
15785SOL    HW250502   7.835   1.959   0.561  1.1193 -0.4017 -0.8332
15786SOL     OW50503   6.899   7.155   3.648  0.2863  0.0856 -0.2139
15786SOL    HW150504   6.868   7.193   3.730 -0.0024  2.6154 -1.3762
15786SOL    HW250505   6.900   7.061   3.663 -1.6173  0.3438  2.0406
15787SOL     OW50506   6.666   4.150   1.848  0.4919 -0.0774  0.2726
15787SOL    HW150507   6.740   4.111   1.804  1.2633  0.3712  1.1306
15787SOL    HW250508   6.634   4.217   1.788 -0.0643 -1.1671 -0.6672
15788SOL     OW50509   1.057   3.441   0.134 -0.3102  0.0965  0.3380
15788SOL    HW150510   1.018   3.520   0.094  0.4157  0.4520  0.3243
15788SOL    HW250511   1.115   3.475   0.201  2.2791 -0.2422 -1.5825
15789SOL     OW50512   0.931   4.131   6.396  0.2723  0.1600 -0.1406
15789SOL    HW150513   0.953   4.059   6.337  2.4315  0.6141  0.0271
15789SOL    HW250514   0.917   4.089   6.481 -1.0944 -0.2975 -0.5568
15790SOL     OW50515   3.160   3.308   5.166 -0.0047  0.0272 -0.5272
15790SOL    HW150516   3.251   3.332   5.184  0.0996  0.0749 -1.0896
15790SOL    HW250517   3.108   3.360   5.228  0.1786  2.0844 -1.9937
15791SOL     OW50518   2.297   0.148   4.056  0.4585 -0.2029 -0.6366
15791SOL    HW150519   2.301   0.153   4.152  1.2239 -2.9338 -0.4536
15791SOL    HW250520   2.243   0.223   4.031 -1.0648 -0.2619  2.0501
15792SOL     OW50521   2.285   4.127   0.324  0.3616  0.0685  0.3374
15792SOL    HW150522   2.323   4.050   0.366  1.1535  0.2105 -0.1062
15792SOL    HW250523   2.303   4.199   0.385 -0.3906 -0.0920  0.7582
15793SOL     OW50524   7.416   7.462   6.143  0.0692 -0.1484 -0.3713
15793SOL    HW150525   7.489   7.509   6.183  0.0834  0.0644 -0.6432
15793SOL    HW250526   7.338   7.511   6.168 -0.0192 -0.5460  0.1734
15794SOL     OW50527   1.453   3.602   4.198  0.0048 -0.2106 -0.3832
15794SOL    HW150528   1.360   3.621   4.211  0.0800  0.3832 -0.6659
15794SOL    HW250529   1.454   3.538   4.127 -0.1675  0.1976 -0.7617
15795SOL     OW50530   6.636   7.996   3.514  0.4754 -0.4103 -0.2522
15795SOL    HW150531   6.653   7.903   3.505 -0.3692 -0.3875 -2.8049
15795SOL    HW250532   6.567   8.015   3.451 -0.6896  1.6383  1.4775
15796SOL     OW50533   1.330   6.744   1.313  0.1182  0.6003  0.0610
15796SOL    HW150534   1.281   6.792   1.379 -0.3230 -1.0880  1.0272
15796SOL    HW250535   1.415   6.728   1.354  0.0345  0.0138  0.0094
15797SOL     OW50536   3.488   7.328   3.304 -0.1858 -0.3890  0.2825
15797SOL    HW150537   3.486   7.272   3.381 -2.4070  0.1588  0.6989
15797SOL    HW250538   3.409   7.381   3.311  0.0036  0.2948 -1.9343
15798SOL     OW50539   5.317   3.525   1.523 -0.3122  0.1983 -0.4977
15798SOL    HW150540   5.330   3.590   1.455 -0.9778 -0.5398 -1.3564
15798SOL    HW250541   5.278   3.450   1.478  0.4191 -0.7950  0.4679
15799SOL     OW50542   7.004   1.611   0.287 -0.2816  0.8002 -0.3762
15799SOL    HW150543   6.959   1.600   0.203  0.3466  1.4739 -0.8208
15799SOL    HW250544   6.939   1.586   0.352 -0.1862 -1.6085 -1.1058
15800SOL     OW50545   5.988   1.431   5.401 -0.2056 -0.3929 -0.6257
15800SOL    HW150546   5.962   1.440   5.492 -0.4157 -0.5507 -0.6698
15800SOL    HW250547   6.075   1.391   5.405  0.3079  0.6933 -0.4600
15801SOL     OW50548   0.194   1.520   2.902 -0.4908 -0.5654 -0.0543
15801SOL    HW150549   0.113   1.567   2.882  0.2628  1.2230  0.8823
15801SOL    HW250550   0.175   1.470   2.981 -0.5847  0.1738  0.3975
15802SOL     OW50551   4.770   6.961   3.945 -0.0158 -0.4863 -0.3016
15802SOL    HW150552   4.852   6.990   3.905  0.7348 -1.8583  0.1802
15802SOL    HW250553   4.716   7.040   3.949  1.4316  0.5382 -0.2475
15803SOL     OW50554   2.082   4.014   1.430  0.1200 -0.0365 -0.1272
15803SOL    HW150555   2.155   4.040   1.486 -0.5806  2.1180 -0.1117
15803SOL    HW250556   2.100   3.922   1.408  1.1343 -0.5714  2.4816
15804SOL     OW50557   7.787   0.593   7.776 -0.6510  0.3513 -0.2565
15804SOL    HW150558   7.814   0.679   7.744 -1.6834  0.3810 -1.1216
15804SOL    HW250559   7.710   0.610   7.830 -0.8079 -0.0086 -0.3615
15805SOL     OW50560   7.155   5.968   5.710  0.1970  0.4891 -0.1048
15805SOL    HW150561   7.130   5.900   5.773 -1.4116  1.6516  0.5825
15805SOL    HW250562   7.118   5.938   5.627  2.2360 -0.9991 -0.5651
15806SOL     OW50563   3.471   0.667   4.953  0.2525  0.0502  0.0298
15806SOL    HW150564   3.393   0.715   4.924  0.2244 -0.4811 -0.8209
15806SOL    HW250565   3.539   0.694   4.892  0.4403 -0.3808  0.0492
15807SOL     OW50566   2.024   8.042   3.898  0.5040  0.1975 -0.3309
15807SOL    HW150567   2.024   7.978   3.970  1.1209  1.1211  0.5301
15807SOL    HW250568   1.970   8.114   3.930  1.3678  0.9361 -0.4795
15808SOL     OW50569   0.516   3.757   3.138  0.3120  0.4449 -0.1853
15808SOL    HW150570   0.470   3.747   3.221  1.0907 -0.4125  0.1502
15808SOL    HW250571   0.460   3.711   3.074 -0.2676  1.0753 -0.1432
15809SOL     OW50572   1.128   2.526   5.102  0.4525  0.1309  0.1949
15809SOL    HW150573   1.104   2.441   5.140 -0.3758 -0.5937 -1.8073
15809SOL    HW250574   1.049   2.579   5.110  0.7404  0.4719  0.7903
15810SOL     OW50575   6.153   0.245   0.036 -0.8515 -0.2988  0.0428
15810SOL    HW150576   6.243   0.216   0.029 -0.2830  1.5477 -1.0121
15810SOL    HW250577   6.107   0.202  -0.036 -0.5604 -0.3724 -0.0979
15811SOL     OW50578   3.928   0.382   6.818  0.0650  0.2318  0.4023
15811SOL    HW150579   4.012   0.391   6.773  1.0030 -2.4240  1.4033
15811SOL    HW250580   3.937   0.437   6.896  0.0581  1.5181 -0.4741
15812SOL     OW50581   0.130   1.354   3.604 -0.3815  0.0660  0.1599
15812SOL    HW150582   0.199   1.304   3.649 -1.6505 -0.5922  1.4721
15812SOL    HW250583   0.172   1.388   3.526  0.8269 -2.2420 -0.2825
15813SOL     OW50584   7.255   1.694   1.802  0.2155  0.1489  0.3057
15813SOL    HW150585   7.296   1.781   1.798  0.3152  0.2416  2.1587
15813SOL    HW250586   7.162   1.710   1.789  0.0397  0.7695  2.0904
15814SOL     OW50587   0.983   0.759   2.036  0.0642  0.0065 -0.0475
15814SOL    HW150588   0.891   0.762   2.010 -0.0864 -1.3332  0.3126
15814SOL    HW250589   0.999   0.669   2.061  1.4982  0.2075 -0.1358
15815SOL     OW50590   1.665   5.665   7.734  0.0617 -0.3626  0.0364
15815SOL    HW150591   1.635   5.721   7.806  0.6081  0.0168 -0.0248
15815SOL    HW250592   1.591   5.664   7.672 -0.7197 -1.3318  0.9527
15816SOL     OW50593   0.731   7.432   2.349  0.0671  0.3919 -0.1245
15816SOL    HW150594   0.648   7.428   2.397  0.0401  1.7912 -0.0110
15816SOL    HW250595   0.789   7.372   2.396 -0.5618  0.2130  0.4387
15817SOL     OW50596   5.830   6.554   5.257  0.4012  0.0770 -0.2509
15817SOL    HW150597   5.865   6.492   5.321  1.9868 -0.3574 -1.4625
15817SOL    HW250598   5.737   6.558   5.276  0.3739 -2.1053  0.3912
15818SOL     OW50599   3.141   2.235   3.454  0.0346 -0.2337 -0.3107
15818SOL    HW150600   3.154   2.324   3.487 -0.4255 -0.1911 -0.2416
15818SOL    HW250601   3.073   2.244   3.388  0.1955 -0.4919 -0.5105
15819SOL     OW50602   4.500   2.927   1.391 -0.1785 -0.5283 -0.6950
15819SOL    HW150603   4.593   2.929   1.411 -0.3220 -1.9085  0.2757
15819SOL    HW250604   4.492   2.866   1.318 -0.4185 -1.3051 -0.0355
15820SOL     OW50605   6.876   1.658   3.804 -0.0742  0.1135  0.3485
15820SOL    HW150606   6.879   1.734   3.745 -3.3509 -0.3950 -0.6883
15820SOL    HW250607   6.827   1.592   3.755  1.1459 -2.0612  1.9164
15821SOL     OW50608   3.303   1.863   7.613  0.4068  0.1394 -0.0384
15821SOL    HW150609   3.286   1.937   7.555  2.1793  0.3171 -0.4055
15821SOL    HW250610   3.397   1.847   7.603  0.8608  0.3968  3.0905
15822SOL     OW50611   1.153   3.792   7.414 -0.6808 -0.4592 -0.0927
15822SOL    HW150612   1.239   3.832   7.405 -0.4014 -0.7667  0.9895
15822SOL    HW250613   1.092   3.856   7.377 -0.1452  0.5251  0.6895
15823SOL     OW50614   4.116   7.476   6.842 -0.2469  0.0216 -0.6706
15823SOL    HW150615   4.134   7.503   6.932 -0.8172  0.5470 -0.7043
15823SOL    HW250616   4.188   7.418   6.819  0.4087  0.6353 -0.2023
15824SOL     OW50617   0.042   0.915   0.742  0.2445 -0.3032  0.2843
15824SOL    HW150618   0.022   0.858   0.668 -0.0472 -0.3446  0.3955
15824SOL    HW250619   0.137   0.928   0.737  0.1901 -0.0726 -0.2651
15825SOL     OW50620   2.510   2.186   7.526  0.2421 -0.0556 -0.1251
15825SOL    HW150621   2.571   2.112   7.531  1.7889  1.1377 -0.3956
15825SOL    HW250622   2.549   2.245   7.462 -1.1473  0.8451 -0.1856
15826SOL     OW50623   0.243   6.859   0.701 -0.3461 -0.2933 -0.3043
15826SOL    HW150624   0.154   6.890   0.714  0.6146  1.8186  2.1484
15826SOL    HW250625   0.269   6.824   0.787  1.8585  1.1493 -0.3081
15827SOL     OW50626   7.370   1.858   2.593  0.1788  0.0875 -0.0921
15827SOL    HW150627   7.348   1.791   2.528 -0.6976  2.1934 -2.0906
15827SOL    HW250628   7.448   1.901   2.558 -0.5396  1.5251  0.0080
15828SOL     OW50629   1.727   4.196   1.355 -0.5177  0.2931 -0.1855
15828SOL    HW150630   1.760   4.114   1.394 -0.3970  0.0112 -0.8630
15828SOL    HW250631   1.672   4.167   1.282 -1.3434  0.7963  0.2339
15829SOL     OW50632   3.534   4.427   6.820 -0.1542 -0.2281 -0.1949
15829SOL    HW150633   3.607   4.489   6.820  1.4832 -1.9735  2.2203
15829SOL    HW250634   3.555   4.364   6.750  0.4664 -0.4904  0.2231
15830SOL     OW50635   1.777   5.200   1.753  0.1120  0.5016 -0.9391
15830SOL    HW150636   1.758   5.116   1.796  1.0457  0.1254 -1.2460
15830SOL    HW250637   1.767   5.182   1.660  1.7416  0.3393 -1.0991
15831SOL     OW50638   5.587   3.883   5.192 -0.6920  0.4210  0.0561
15831SOL    HW150639   5.525   3.831   5.141  0.3803 -1.3601  0.4680
15831SOL    HW250640   5.593   3.838   5.276 -0.7493  2.0415  0.9742
15832SOL     OW50641   6.879   8.052   5.117  0.0888  0.3067  0.3284
15832SOL    HW150642   6.893   7.976   5.173 -0.6096 -0.1262 -0.0636
15832SOL    HW250643   6.919   8.124   5.164 -0.3860 -0.0632  1.3364
15833SOL     OW50644   6.651   3.143   1.759 -0.5458  0.3344  0.6647
15833SOL    HW150645   6.601   3.221   1.738 -1.6212 -0.4485  0.1896
15833SOL    HW250646   6.721   3.140   1.693 -1.8679 -0.2912 -0.7751
15834SOL     OW50647   3.615   6.401   6.406 -0.4730  0.1365 -0.0546
15834SOL    HW150648   3.666   6.481   6.395 -1.4231  0.7305 -0.3081
15834SOL    HW250649   3.528   6.432   6.432 -0.3334 -0.8941  1.8276
15835SOL     OW50650   2.820   2.879   0.473  0.2559 -0.5451  0.1865
15835SOL    HW150651   2.759   2.887   0.400 -1.4849 -1.0655  1.5037
15835SOL    HW250652   2.860   2.965   0.481 -1.3006  0.2049  0.0958
15836SOL     OW50653   3.180   0.997   6.527 -0.3254 -0.1518  0.6336
15836SOL    HW150654   3.242   1.017   6.457 -0.7572 -1.0370 -0.0142
15836SOL    HW250655   3.133   1.079   6.541  2.5977  1.3310  2.8531
15837SOL     OW50656   4.020   4.189   1.750  0.8565  0.1018  0.1915
15837SOL    HW150657   3.995   4.098   1.741  2.4137 -0.1721 -2.5723
15837SOL    HW250658   3.938   4.238   1.747  0.1691 -1.0911 -0.7976
15838SOL     OW50659   3.981   4.133   5.117  0.4048 -0.1483  0.1318
15838SOL    HW150660   4.017   4.074   5.183 -0.8914 -0.5324  0.5229
15838SOL    HW250661   4.051   4.196   5.101  1.0862 -0.6061  1.1860
15839SOL     OW50662   3.762   3.321   4.576 -0.3327  0.1377  0.3759
15839SOL    HW150663   3.832   3.304   4.512 -0.6424  1.4651 -0.3355
15839SOL    HW250664   3.696   3.255   4.557 -0.6214  0.7947 -0.9923
15840SOL     OW50665   6.846   4.223   5.732 -0.0129 -0.0805  0.0247
15840SOL    HW150666   6.874   4.310   5.703 -0.6349  0.4491  0.9555
15840SOL    HW250667   6.760   4.211   5.692 -0.7174  0.5049  1.2966
15841SOL     OW50668   6.179   2.433   5.280  0.3303 -0.0922  0.1244
15841SOL    HW150669   6.128   2.388   5.213  0.4030  1.0619 -0.7441
15841SOL    HW250670   6.269   2.403   5.265  0.1035 -1.2411  0.9162
15842SOL     OW50671   6.727   1.694   4.166 -0.0969  0.7215 -0.3710
15842SOL    HW150672   6.690   1.612   4.132 -0.5284  0.1596  1.3342
15842SOL    HW250673   6.774   1.732   4.091 -3.0161  0.8331 -2.3265
15843SOL     OW50674   0.338   6.575   4.145 -0.2388  0.4698 -0.3105
15843SOL    HW150675   0.245   6.555   4.132 -0.0596 -0.1879 -0.5899
15843SOL    HW250676   0.370   6.504   4.200  0.0586  0.7999 -0.0590
15844SOL     OW50677   5.182   1.860   2.246 -0.4709  0.4414  0.2482
15844SOL    HW150678   5.260   1.831   2.294 -2.2417 -0.4215  2.8014
15844SOL    HW250679   5.195   1.954   2.233  0.2328  0.6667  2.2480
15845SOL     OW50680   4.026   2.261   5.636 -0.4321  0.4807  0.0246
15845SOL    HW150681   4.087   2.216   5.578 -0.2733  0.6590  0.0530
15845SOL    HW250682   3.967   2.308   5.577 -1.1144 -0.4222 -0.0308
15846SOL     OW50683   5.325   4.929   2.268 -1.0681  0.1948  0.1516
15846SOL    HW150684   5.291   4.846   2.235 -0.5111 -0.0675  0.2171
15846SOL    HW250685   5.365   4.970   2.192  2.2859 -1.4525  0.8521
15847SOL     OW50686   5.210   0.028   0.269 -0.2387  0.4093 -0.1702
15847SOL    HW150687   5.131   0.019   0.322 -1.0845  2.4437 -0.9924
15847SOL    HW250688   5.191  -0.020   0.189  0.7702 -2.0561  0.9451
15848SOL     OW50689   0.062   4.195   6.375 -0.4491 -0.3572 -0.0565
15848SOL    HW150690   0.107   4.279   6.382 -1.4088  0.1411  0.3199
15848SOL    HW250691   0.131   4.130   6.389  0.4757  0.3236 -1.2279
15849SOL     OW50692   2.268   4.912   7.674  0.3358  0.1111  0.1605
15849SOL    HW150693   2.311   4.831   7.702 -1.3898 -0.1464  2.3040
15849SOL    HW250694   2.340   4.970   7.650  1.6247 -2.2682 -2.2800
15850SOL     OW50695   0.268   4.130   7.371  0.0436 -0.2169  0.2359
15850SOL    HW150696   0.270   4.076   7.292  0.8789 -0.0387  0.1241
15850SOL    HW250697   0.319   4.081   7.435  3.4224  1.7101 -0.7457
15851SOL     OW50698   1.765   3.673   6.860  0.1570 -0.2142  0.7167
15851SOL    HW150699   1.728   3.760   6.875  0.0992 -0.4950  2.4002
15851SOL    HW250700   1.859   3.687   6.858  0.1101  0.0260 -0.1262
15852SOL     OW50701   2.077   1.273   7.479  0.0214 -0.1777  0.1474
15852SOL    HW150702   2.091   1.210   7.408  1.2070  0.6728 -0.4116
15852SOL    HW250703   2.159   1.321   7.485 -0.8864  1.4155  0.4537
15853SOL     OW50704   3.633   7.106   5.089  0.2677  0.0393  0.2983
15853SOL    HW150705   3.722   7.139   5.103  0.0802  2.2170 -2.7221
15853SOL    HW250706   3.577   7.183   5.094 -0.8396 -0.5039 -2.1248
15854SOL     OW50707   7.843   3.566   5.422  0.4960 -0.4532  0.3127
15854SOL    HW150708   7.859   3.472   5.411 -0.9572 -0.7763  0.7489
15854SOL    HW250709   7.919   3.597   5.473  1.8892 -1.0083 -1.3210
15855SOL     OW50710   1.022   6.252   6.020 -0.5720  0.6198  0.3432
15855SOL    HW150711   0.998   6.178   5.964 -1.6646  2.1282 -1.2665
15855SOL    HW250712   1.037   6.212   6.106 -0.6334 -1.5305 -0.5757
15856SOL     OW50713   2.637   3.171   2.014  0.2211  0.0521  0.1944
15856SOL    HW150714   2.600   3.084   2.027 -1.9606  0.8465 -0.3938
15856SOL    HW250715   2.649   3.205   2.103  1.1912 -0.8491  0.4336
15857SOL     OW50716   6.104   6.436   1.281 -0.1175 -0.3341  0.2555
15857SOL    HW150717   6.020   6.421   1.237  1.0212 -1.6259 -1.5999
15857SOL    HW250718   6.139   6.515   1.241  0.9394 -1.5343 -1.3153
15858SOL     OW50719   0.231   7.151   7.627  0.1799  0.5942  0.2454
15858SOL    HW150720   0.211   7.165   7.720  0.0855  1.8272  0.0577
15858SOL    HW250721   0.286   7.073   7.626 -1.0033 -0.2921  1.1984
15859SOL     OW50722   4.386   0.040   7.797  0.4949  0.3201 -0.9282
15859SOL    HW150723   4.455   0.104   7.814 -0.3589  0.5991  2.0345
15859SOL    HW250724   4.431  -0.044   7.796  1.0535  0.5948 -0.0810
15860SOL     OW50725   5.461   0.473   2.495  0.3053  0.3037  0.5913
15860SOL    HW150726   5.411   0.489   2.575  0.4651 -2.6610  1.3926
15860SOL    HW250727   5.395   0.465   2.426  0.1373  2.3759  0.4483
15861SOL     OW50728   3.605   4.760   0.825  0.2407  0.2821 -0.0501
15861SOL    HW150729   3.585   4.785   0.734  0.0562 -0.8367 -0.3238
15861SOL    HW250730   3.701   4.758   0.828  0.2623  0.9800 -0.0265
15862SOL     OW50731   2.873   4.615   6.023 -0.5120 -0.4713 -0.0322
15862SOL    HW150732   2.778   4.627   6.026 -0.2066  3.1426  4.3343
15862SOL    HW250733   2.893   4.559   6.098  0.8698  0.4824  0.3629
15863SOL     OW50734   1.186   3.285   8.001 -0.0087  0.6307 -0.4503
15863SOL    HW150735   1.123   3.297   8.072  1.3841  0.8649  0.7964
15863SOL    HW250736   1.257   3.345   8.023  0.3092  0.9469 -2.2368
15864SOL     OW50737   0.491   1.136   2.974 -0.8164 -0.3175 -0.5387
15864SOL    HW150738   0.398   1.133   2.995 -0.6336  1.5502  0.7381
15864SOL    HW250739   0.515   1.228   2.981  1.1238 -0.7516 -0.8664
15865SOL     OW50740   6.748   3.414   2.884  0.8519  0.3116  0.0707
15865SOL    HW150741   6.750   3.382   2.974  1.8266 -3.4757 -1.1157
15865SOL    HW250742   6.658   3.444   2.872 -0.0560 -1.5555  1.5981
15866SOL     OW50743   3.810   7.912   1.519  0.1173 -0.0195 -0.1625
15866SOL    HW150744   3.885   7.868   1.560 -0.3239 -0.2255  0.4452
15866SOL    HW250745   3.759   7.841   1.479  0.7622  0.2224 -1.4624
15867SOL     OW50746   3.195   4.766   3.914 -0.1095 -0.3647 -0.2193
15867SOL    HW150747   3.158   4.703   3.853 -0.8912 -1.0853  0.9410
15867SOL    HW250748   3.280   4.729   3.939 -0.3055 -0.6744  0.0025
15868SOL     OW50749   7.360   7.401   3.332 -0.2710 -0.3026  0.6385
15868SOL    HW150750   7.377   7.335   3.264  0.7556  1.4894 -0.9449
15868SOL    HW250751   7.424   7.470   3.315 -0.7922  0.7693  2.7169
15869SOL     OW50752   5.248   0.500   7.888  0.7476 -0.0623  0.4493
15869SOL    HW150753   5.284   0.508   7.799  0.4398  0.3783  0.3608
15869SOL    HW250754   5.156   0.526   7.879  0.5804 -0.5139  0.8039
15870SOL     OW50755   1.686   7.744   7.542  0.3876  0.5687 -0.1848
15870SOL    HW150756   1.688   7.694   7.461  2.7735 -0.1829  0.2655
15870SOL    HW250757   1.711   7.833   7.518  0.7070  0.4381 -0.3346
15871SOL     OW50758   6.313   1.049   3.088 -0.2016  0.5097  0.1817
15871SOL    HW150759   6.358   1.120   3.042 -1.0772 -0.7486 -2.8633
15871SOL    HW250760   6.221   1.075   3.087 -0.4578 -0.3894 -0.4794
15872SOL     OW50761   5.431   1.725   5.389 -0.0059 -0.5226 -0.1085
15872SOL    HW150762   5.496   1.775   5.439  1.3212 -1.7914 -0.5111
15872SOL    HW250763   5.352   1.779   5.393  0.9911  0.9675  0.5785
15873SOL     OW50764   5.645   0.436   3.736  0.3130 -0.2955  0.5575
15873SOL    HW150765   5.723   0.492   3.737 -1.0704  1.7694 -0.0259
15873SOL    HW250766   5.677   0.349   3.714  2.3235  0.7205 -0.7320
15874SOL     OW50767   7.570   0.706   1.135 -0.3364 -0.2186  0.4651
15874SOL    HW150768   7.521   0.664   1.064 -1.1203 -0.0949  0.9318
15874SOL    HW250769   7.541   0.797   1.135 -0.1931 -0.1720  0.8280
15875SOL     OW50770   4.152   4.119   1.076 -0.4034  0.2310  0.1498
15875SOL    HW150771   4.067   4.108   1.032 -1.1862 -0.6334  1.7845
15875SOL    HW250772   4.193   4.032   1.070 -0.4172  0.1675  0.8799
15876SOL     OW50773   5.244   5.832   1.607  0.4835  0.1346  0.0129
15876SOL    HW150774   5.330   5.867   1.631  0.1596  1.2037 -0.3532
15876SOL    HW250775   5.254   5.737   1.616  1.3896  0.3039  1.0051
15877SOL     OW50776   4.904   7.407   0.418 -0.2968  0.4926  0.3551
15877SOL    HW150777   4.865   7.362   0.493  0.9384 -1.8955 -0.3359
15877SOL    HW250778   4.831   7.422   0.359 -0.9805  0.7457  1.2327
15878SOL     OW50779   5.478   0.440   8.058 -0.2762  0.1472 -0.0898
15878SOL    HW150780   5.558   0.452   8.008  0.3534  1.6160  1.1961
15878SOL    HW250781   5.408   0.460   7.996  0.4485  1.0975 -0.6281
15879SOL     OW50782   2.976   0.494   4.053  0.0768 -0.5732 -0.3994
15879SOL    HW150783   2.922   0.467   3.979  1.7095 -3.0166 -0.8264
15879SOL    HW250784   2.928   0.464   4.130 -0.1202 -0.9674 -0.6690
15880SOL     OW50785   1.735   6.583   3.265 -0.1646 -0.2017 -0.0276
15880SOL    HW150786   1.674   6.569   3.338  0.4204 -0.5035  0.4049
15880SOL    HW250787   1.756   6.495   3.234  2.8290 -0.3691  2.1254
15881SOL     OW50788   4.937   0.172   6.995 -0.1591  0.7886  0.0134
15881SOL    HW150789   4.905   0.126   6.918 -0.8594  0.8464  0.2589
15881SOL    HW250790   4.965   0.258   6.962  0.8109  0.3265 -0.3860
15882SOL     OW50791   3.482   3.779   3.662  0.3999  0.7311 -0.1147
15882SOL    HW150792   3.397   3.819   3.643 -0.5378 -1.3741 -0.6748
15882SOL    HW250793   3.530   3.784   3.580  0.3736  0.8918 -0.1203
15883SOL     OW50794   1.267   3.709   6.149  0.1304  0.1904 -0.8616
15883SOL    HW150795   1.324   3.690   6.223  0.2682  2.9022 -0.1586
15883SOL    HW250796   1.319   3.686   6.072  1.7359  1.4646 -0.1967
15884SOL     OW50797   2.739   1.513   3.673 -0.6054  0.7071 -0.0065
15884SOL    HW150798   2.793   1.592   3.678  1.7286 -0.7421 -0.8106
15884SOL    HW250799   2.672   1.533   3.608 -1.0276  2.5324  0.9354
15885SOL     OW50800   8.055   4.565   1.607 -0.1938  0.0296 -0.4831
15885SOL    HW150801   7.985   4.580   1.544 -0.2145 -1.2650 -0.8028
15885SOL    HW250802   8.022   4.602   1.689 -0.7969  0.3889 -0.8828
15886SOL     OW50803   1.960   6.655   0.452 -0.0124  0.3693 -0.0182
15886SOL    HW150804   2.016   6.579   0.463 -0.2899  0.2413  0.5757
15886SOL    HW250805   1.877   6.619   0.421 -0.4850  0.2966  1.2653
15887SOL     OW50806   4.299   5.687   2.729  0.2524 -0.2602  0.2511
15887SOL    HW150807   4.369   5.729   2.679 -0.1369 -1.1948 -1.1247
15887SOL    HW250808   4.218   5.725   2.695  0.0017 -0.6593  0.3912
15888SOL     OW50809   6.754   7.220   7.040  0.5049  0.1283  0.3225
15888SOL    HW150810   6.764   7.282   6.968  0.4724 -1.0724 -0.7481
15888SOL    HW250811   6.780   7.269   7.118 -0.8780  1.9214 -0.2735
15889SOL     OW50812   1.481   3.840   0.585 -0.1475  0.0899  0.1294
15889SOL    HW150813   1.439   3.889   0.655 -1.2362 -1.4802  0.6296
15889SOL    HW250814   1.507   3.907   0.521 -0.2603  1.4264  1.4172
15890SOL     OW50815   6.411   3.700   7.715 -0.4064 -0.6843 -0.1088
15890SOL    HW150816   6.479   3.752   7.758  1.2447 -1.1430 -2.0206
15890SOL    HW250817   6.370   3.762   7.654 -0.0889 -0.9962 -0.6440
15891SOL     OW50818   1.540   6.648   2.785  0.1483  0.1753 -0.0489
15891SOL    HW150819   1.528   6.569   2.733  0.9049  0.2518 -0.3438
15891SOL    HW250820   1.635   6.653   2.800  0.1403  1.1696 -0.2640
15892SOL     OW50821   5.479   4.591   4.383 -0.0087  0.0215 -0.0478
15892SOL    HW150822   5.561   4.615   4.428  1.2123 -0.8143 -1.7234
15892SOL    HW250823   5.417   4.659   4.410  1.2021  0.6522  1.3293
15893SOL     OW50824   3.730   3.109   4.922 -0.0084 -0.1664 -0.7049
15893SOL    HW150825   3.643   3.073   4.933 -0.5372  1.5459  1.6644
15893SOL    HW250826   3.788   3.045   4.963 -0.5213  0.0522  0.3859
15894SOL     OW50827   5.462   3.746   2.590 -0.1102  0.3112 -0.7604
15894SOL    HW150828   5.411   3.822   2.560  1.5810  0.8399 -2.5308
15894SOL    HW250829   5.404   3.700   2.650 -2.4780  1.1400 -2.2834
15895SOL     OW50830   0.784   3.751   7.902 -0.2284 -0.0484 -0.2716
15895SOL    HW150831   0.772   3.846   7.908 -1.6148 -0.1151 -1.5269
15895SOL    HW250832   0.863   3.741   7.848 -0.9309  0.4119 -1.4187
15896SOL     OW50833   5.612   4.587   7.634  0.3968  0.4163 -0.4795
15896SOL    HW150834   5.703   4.589   7.603  0.4040 -0.6710 -0.5743
15896SOL    HW250835   5.584   4.496   7.621 -0.6312  0.6789 -0.2249
15897SOL     OW50836   2.164   7.437   8.088 -0.6473  0.0131  0.7693
15897SOL    HW150837   2.198   7.463   8.174 -2.5465  0.1040  1.5454
15897SOL    HW250838   2.071   7.421   8.103 -0.3177 -4.0262 -0.3724
15898SOL     OW50839   4.633   7.850   6.463  0.0382 -0.2682  0.5109
15898SOL    HW150840   4.595   7.937   6.463  0.5346 -0.0461  1.0110
15898SOL    HW250841   4.707   7.856   6.403 -1.8500 -1.2332 -2.0734
15899SOL     OW50842   4.751   1.391   8.048 -0.0476  0.1814  0.5964
15899SOL    HW150843   4.843   1.393   8.073  0.2863  1.3485 -0.6389
15899SOL    HW250844   4.752   1.381   7.953 -1.1738  1.2399  0.4528
15900SOL     OW50845   5.381   4.357   2.162 -0.0468 -0.3070  0.8066
15900SOL    HW150846   5.468   4.366   2.122 -0.1777 -1.6866  0.1540
15900SOL    HW250847   5.337   4.291   2.108 -1.9040  1.1372  0.4514
15901SOL     OW50848   5.500   3.255   5.687  0.7808 -0.1749 -0.0091
15901SOL    HW150849   5.437   3.325   5.705  0.0656 -1.0712  1.1326
15901SOL    HW250850   5.454   3.197   5.627  0.5528 -0.7406  0.6922
15902SOL     OW50851   7.766   6.926   8.041 -0.6799 -0.2956  0.1394
15902SOL    HW150852   7.689   6.958   7.993 -1.2503  1.0833  1.8694
15902SOL    HW250853   7.823   7.003   8.048 -1.0394 -0.1661  2.4004
15903SOL     OW50854   2.103   7.171   6.826 -0.2716  0.0587  0.2952
15903SOL    HW150855   2.080   7.093   6.775  0.8121 -0.4566  0.5567
15903SOL    HW250856   2.025   7.226   6.823 -0.2016  0.1260 -2.0580
15904SOL     OW50857   6.152   3.582   1.472  0.0301 -0.2631 -0.4751
15904SOL    HW150858   6.151   3.615   1.562 -0.4153 -2.4118  0.3741
15904SOL    HW250859   6.162   3.487   1.482  0.5983 -0.4960 -2.7301
15905SOL     OW50860   3.203   0.603   4.962  0.0192  0.2108 -0.0671
15905SOL    HW150861   3.199   0.609   4.867 -1.9427 -0.2311 -0.0490
15905SOL    HW250862   3.144   0.530   4.984  0.4349  0.3022  1.4878
15906SOL     OW50863   0.456   7.147   3.437 -0.2979  0.6041 -0.0613
15906SOL    HW150864   0.525   7.080   3.435 -0.2682  0.6277 -2.4525
15906SOL    HW250865   0.379   7.102   3.472  0.2221 -0.1511  0.1322
15907SOL     OW50866   0.920   6.963   4.491 -0.0778  0.2332  0.0537
15907SOL    HW150867   0.898   7.024   4.562 -0.6654  1.0177 -0.7826
15907SOL    HW250868   1.014   6.975   4.477 -0.0684  0.4775  0.3232
15908SOL     OW50869   7.805   7.459   1.117  0.3466 -0.4763 -0.2947
15908SOL    HW150870   7.829   7.452   1.210  0.2766 -2.3399 -0.3837
15908SOL    HW250871   7.861   7.529   1.083 -0.6426  1.2495  1.4436
15909SOL     OW50872   0.936   6.126   5.582  0.4280 -0.2233  0.6187
15909SOL    HW150873   0.960   6.076   5.504  0.9923  0.9267  0.0271
15909SOL    HW250874   0.874   6.070   5.628 -0.3194 -0.7189 -0.9090
15910SOL     OW50875   2.700   1.784   5.568  0.9286  0.4255  0.6618
15910SOL    HW150876   2.650   1.741   5.637 -0.1004  1.2164  0.4470
15910SOL    HW250877   2.721   1.871   5.604  1.1032  0.5346  0.3029
15911SOL     OW50878   4.152   0.211   7.896  0.1393 -0.5993 -0.1467
15911SOL    HW150879   4.077   0.152   7.889  0.0735 -0.9018  2.3633
15911SOL    HW250880   4.224   0.164   7.854 -0.6986 -0.9370 -1.2505
15912SOL     OW50881   1.871   7.888   5.438 -0.4161  0.1277  0.2493
15912SOL    HW150882   1.925   7.881   5.359 -0.9151 -1.0361 -0.0114
15912SOL    HW250883   1.782   7.868   5.408 -0.6493 -0.0686  1.0491
15913SOL     OW50884   7.475   7.998   7.366 -0.5568  0.2827 -0.0686
15913SOL    HW150885   7.565   8.027   7.350  0.0116 -0.5711  1.3478
15913SOL    HW250886   7.444   7.970   7.280  0.4010  0.9234 -0.6493
15914SOL     OW50887   7.326   2.429   3.437  0.1585  0.2934  0.7067
15914SOL    HW150888   7.235   2.456   3.453 -0.4719  0.0709 -2.0130
15914SOL    HW250889   7.338   2.353   3.495 -1.0544  0.9032  1.8172
15915SOL     OW50890   0.507   5.581   7.914  0.3880 -0.3212 -0.4445
15915SOL    HW150891   0.550   5.576   7.828  0.5576  1.5158 -0.5092
15915SOL    HW250892   0.448   5.506   7.916  0.6626 -0.6157 -2.0162
15916SOL     OW50893   3.693   7.939   4.803  0.5617 -0.6918 -0.5440
15916SOL    HW150894   3.673   7.971   4.891 -1.3318  1.8396 -1.7614
15916SOL    HW250895   3.719   8.017   4.754 -1.7678 -1.3273 -3.0604
15917SOL     OW50896   5.285   2.328   1.549  0.2217 -0.0882  0.4713
15917SOL    HW150897   5.379   2.336   1.559  0.1591  0.3449  0.7425
15917SOL    HW250898   5.250   2.411   1.581 -0.2204 -0.0680 -0.0466
15918SOL     OW50899   3.613   1.706   4.242 -0.4505  0.0200 -0.6774
15918SOL    HW150900   3.694   1.737   4.202  0.0771  0.3855  0.6202
15918SOL    HW250901   3.553   1.779   4.234  0.5960  1.2710  1.8179
15919SOL     OW50902   6.460   2.039   3.736 -0.0120  0.0222  0.2175
15919SOL    HW150903   6.453   2.043   3.832  0.7137  1.2651  0.2313
15919SOL    HW250904   6.499   1.953   3.719 -0.8995 -0.5539  0.9778
15920SOL     OW50905   5.890   4.594   7.598  0.3429  0.1327 -0.5281
15920SOL    HW150906   5.985   4.586   7.584  1.2890  1.0074  3.8676
15920SOL    HW250907   5.882   4.647   7.677 -3.9021  0.4438 -0.9600
15921SOL     OW50908   2.457   4.625   0.114 -0.6388  0.4109  0.7640
15921SOL    HW150909   2.414   4.562   0.056  0.2936 -0.1896  0.6944
15921SOL    HW250910   2.437   4.710   0.077 -0.1066  0.0384 -0.4278
15922SOL     OW50911   3.191   4.018   7.535 -0.4987 -0.3526  0.1567
15922SOL    HW150912   3.259   4.018   7.602 -0.4824  1.4828  0.1730
15922SOL    HW250913   3.162   4.109   7.529 -1.6921 -0.7759 -1.1347
15923SOL     OW50914   8.087   2.957   2.283 -0.0065  0.1797 -0.1859
15923SOL    HW150915   8.164   2.909   2.316  1.9328  2.2881 -1.3505
15923SOL    HW250916   8.041   2.985   2.362  1.2547  0.1307  0.6036
15924SOL     OW50917   2.706   5.964   0.748  1.2191  0.6995 -0.2460
15924SOL    HW150918   2.739   6.023   0.816  0.0221  0.5304  0.5088
15924SOL    HW250919   2.640   5.910   0.792  2.6562 -1.6346 -0.7591
15925SOL     OW50920   2.724   7.339   2.200 -0.6299 -0.3017  0.4435
15925SOL    HW150921   2.788   7.391   2.152 -0.2226 -0.1964  1.0943
15925SOL    HW250922   2.711   7.387   2.282  1.5411 -2.3976  2.1519
15926SOL     OW50923   6.839   7.259   3.904  0.2681  0.1567 -0.2625
15926SOL    HW150924   6.811   7.343   3.941  0.4955  0.1359 -0.0382
15926SOL    HW250925   6.934   7.267   3.897  0.2128  0.2081 -0.9680
15927SOL     OW50926   6.542   6.008   6.976  0.2017 -0.3193  0.1192
15927SOL    HW150927   6.565   5.998   7.068  0.0948 -0.9184  0.0871
15927SOL    HW250928   6.584   6.090   6.949 -0.2717  0.1707  0.8538
15928SOL     OW50929   0.623   5.811   4.978 -0.0565  0.1592 -0.2448
15928SOL    HW150930   0.717   5.805   4.994 -0.0712  1.4085  0.4991
15928SOL    HW250931   0.597   5.892   5.022 -1.3324  0.2659 -1.1496
15929SOL     OW50932   6.831   2.862   2.017 -0.4616  0.2499  0.5515
15929SOL    HW150933   6.844   2.771   2.041 -3.3392  0.3143  2.7619
15929SOL    HW250934   6.907   2.883   1.961  0.8800 -3.0893  0.9197
15930SOL     OW50935   1.322   8.067   3.421  0.2054  0.0199 -0.2629
15930SOL    HW150936   1.240   8.110   3.398 -0.7095 -2.3223 -1.7865
15930SOL    HW250937   1.386   8.138   3.424 -1.0856  1.4873 -3.1622
15931SOL     OW50938   0.189   2.208   5.501 -0.1193 -0.2312  0.1469
15931SOL    HW150939   0.137   2.278   5.540  1.9320  2.5623 -1.8193
15931SOL    HW250940   0.279   2.226   5.528  0.5867 -1.5413 -1.1646
15932SOL     OW50941   7.676   0.579   3.853  0.3753 -0.3877  0.1034
15932SOL    HW150942   7.675   0.657   3.908 -0.2932 -0.3890  0.1022
15932SOL    HW250943   7.717   0.512   3.908 -0.6509 -0.4965  0.7594
15933SOL     OW50944   7.636   1.000   6.980  0.0280  0.3275 -0.8762
15933SOL    HW150945   7.629   0.908   6.956 -0.2086  0.1949 -0.3328
15933SOL    HW250946   7.666   1.044   6.901 -1.0356 -0.0365 -1.5032
15934SOL     OW50947   7.544   0.351   5.297  0.1368  0.4810 -0.1246
15934SOL    HW150948   7.555   0.437   5.338 -2.7267  0.0860  1.7910
15934SOL    HW250949   7.488   0.368   5.221  0.3422  0.4075 -0.2942
15935SOL     OW50950   6.190   8.082   4.576 -0.2283  0.4548 -0.3280
15935SOL    HW150951   6.192   8.104   4.669  0.6707  1.5281 -0.5832
15935SOL    HW250952   6.196   8.166   4.531 -0.9385 -0.0272 -1.3667
15936SOL     OW50953   2.426   0.284   0.275  0.0751  0.4064  0.0458
15936SOL    HW150954   2.430   0.332   0.358 -1.3436  0.2209  0.2465
15936SOL    HW250955   2.488   0.330   0.218 -1.5289  2.7954  0.0881
15937SOL     OW50956   5.697   3.245   7.841 -1.0380  0.2156 -0.2851
15937SOL    HW150957   5.720   3.321   7.788 -1.6998  0.5038 -0.1657
15937SOL    HW250958   5.707   3.171   7.780 -2.4912  0.6111 -1.0575
15938SOL     OW50959   3.385   0.459   2.923  0.0404  0.7460 -0.3886
15938SOL    HW150960   3.432   0.519   2.866  0.2225  0.6236 -0.3689
15938SOL    HW250961   3.429   0.375   2.911 -0.6638  0.4489 -0.9567
15939SOL     OW50962   2.419   1.261   5.044  0.5781 -0.5001 -0.1060
15939SOL    HW150963   2.326   1.238   5.051 -0.1483  1.6377 -1.5603
15939SOL    HW250964   2.460   1.184   5.004 -0.3080 -1.8909  1.5089
15940SOL     OW50965   7.505   5.251   7.427  0.3098 -0.3140 -0.9492
15940SOL    HW150966   7.438   5.187   7.454 -0.0448  0.4095 -0.0619
15940SOL    HW250967   7.585   5.217   7.466  0.1923 -0.4235 -0.7975
15941SOL     OW50968   4.048   0.842   7.221  0.9862 -0.1038  0.4045
15941SOL    HW150969   4.080   0.847   7.131  0.6179 -0.9638  0.2213
15941SOL    HW250970   4.015   0.930   7.239  1.1930  0.1163 -0.2466
15942SOL     OW50971   2.684   6.753   7.701 -0.2782  0.2494 -0.1658
15942SOL    HW150972   2.687   6.662   7.673 -2.0457  0.4945 -1.2940
15942SOL    HW250973   2.723   6.802   7.628  2.4224  0.3267  1.1985
15943SOL     OW50974   6.215   5.900   2.371  0.4960  0.0760  0.0510
15943SOL    HW150975   6.141   5.896   2.311  0.4508  0.9861  0.0393
15943SOL    HW250976   6.258   5.983   2.352 -0.9546  1.6722  2.8795
15944SOL     OW50977   7.110   5.579   6.718 -0.4698  0.2616  0.0091
15944SOL    HW150978   7.192   5.548   6.755  0.3163  0.5724 -1.3996
15944SOL    HW250979   7.062   5.617   6.791 -0.7332 -2.6428  1.5088
15945SOL     OW50980   7.490   1.346   0.184 -0.2240  0.3037  0.1744
15945SOL    HW150981   7.396   1.339   0.202 -0.0324  0.8034  1.4617
15945SOL    HW250982   7.523   1.257   0.200 -0.5195  0.0161 -0.7074
15946SOL     OW50983   4.340   7.206   1.610 -0.5690  0.0614 -0.2999
15946SOL    HW150984   4.343   7.136   1.677  2.6486  0.1798 -0.1451
15946SOL    HW250985   4.257   7.192   1.565 -0.9788 -2.6227  1.0429
15947SOL     OW50986   7.237   0.494   3.410  0.1284 -0.3542  0.0402
15947SOL    HW150987   7.305   0.439   3.446  1.8753  1.0644 -0.9299
15947SOL    HW250988   7.225   0.564   3.474 -1.4229 -1.3135  0.8407
15948SOL     OW50989   0.393   8.023   4.887  0.8581 -0.0109  0.6049
15948SOL    HW150990   0.475   7.986   4.921  0.7851  0.3133  1.1459
15948SOL    HW250991   0.389   8.110   4.926  1.0555  0.6016 -0.6803
15949SOL     OW50992   0.778   0.295   2.956  0.1811  0.7447 -0.1576
15949SOL    HW150993   0.772   0.202   2.977  1.0181  0.9020  0.8504
15949SOL    HW250994   0.693   0.331   2.979  0.6203  0.6489  1.7586
15950SOL     OW50995   3.178   6.154   0.200  0.1552 -0.0290 -0.5635
15950SOL    HW150996   3.141   6.230   0.154 -3.3527 -1.6048 -0.6613
15950SOL    HW250997   3.206   6.095   0.130  0.3901  0.0475 -0.5356
15951SOL     OW50998   0.672   2.263   5.214 -0.6268 -0.1797  0.3452
15951SOL    HW150999   0.708   2.316   5.143  0.7043 -2.5800 -0.9115
15951SOL    HW251000   0.709   2.300   5.294  2.4481 -0.7756 -0.6976
15952SOL     OW51001   1.515   4.848   4.513 -0.4266  0.7482  0.0592
15952SOL    HW151002   1.546   4.761   4.488  0.0012  1.0387 -0.4459
15952SOL    HW251003   1.467   4.834   4.595 -0.3932  0.0357 -0.0364
15953SOL     OW51004   7.170   0.819   6.030 -0.1894 -0.1751  0.0555
15953SOL    HW151005   7.083   0.788   6.004 -0.1821  0.5910 -0.9411
15953SOL    HW251006   7.153   0.902   6.074  0.0921  0.4310 -0.9525
15954SOL     OW51007   4.578   5.699   6.040 -0.4907 -0.4257 -0.2697
15954SOL    HW151008   4.633   5.759   5.990 -0.0296  0.6869  1.4814
15954SOL    HW251009   4.605   5.712   6.131 -1.4045 -2.2459  0.3019
15955SOL     OW51010   0.008   4.109   4.030  0.1283  0.1937 -0.6255
15955SOL    HW151011   0.081   4.059   4.066  1.6757  2.7046 -0.0827
15955SOL    HW251012  -0.070   4.066   4.066  1.4011 -1.2174  0.5813
15956SOL     OW51013   6.079   3.079   1.131 -0.0973  0.1871 -0.2926
15956SOL    HW151014   6.146   3.038   1.185  0.2571  1.3435  0.1708
15956SOL    HW251015   6.125   3.105   1.051 -0.3284 -0.3166 -0.5981
15957SOL     OW51016   3.117   7.946   0.431  0.1366  0.7671 -0.6339
15957SOL    HW151017   3.087   7.892   0.504 -0.0394  3.0160  1.0630
15957SOL    HW251018   3.186   8.000   0.467  1.5504  0.4793 -2.7436
15958SOL     OW51019   7.770   6.407   4.373 -0.4601 -0.0027 -0.2834
15958SOL    HW151020   7.857   6.380   4.400 -0.2599  0.3922 -0.5179
15958SOL    HW251021   7.728   6.439   4.452 -0.7119 -1.0190  0.0041
15959SOL     OW51022   6.670   6.901   7.924  0.2893 -0.3859 -0.1315
15959SOL    HW151023   6.623   6.902   8.007  0.6690 -1.0922  0.0950
15959SOL    HW251024   6.626   6.832   7.873 -0.2045  0.3102 -0.6804
15960SOL     OW51025   1.033   0.153   7.514 -0.4505 -0.0326  0.1080
15960SOL    HW151026   0.947   0.154   7.472 -0.3215 -1.3323 -0.2325
15960SOL    HW251027   1.094   0.178   7.445 -0.6262  1.8809  0.6015
15961SOL     OW51028   6.271   7.539   6.674 -0.1663 -0.0267  0.4780
15961SOL    HW151029   6.336   7.523   6.743  0.8928  0.7456 -0.3103
15961SOL    HW251030   6.192   7.497   6.706  0.5706 -0.5276  1.7226
15962SOL     OW51031   4.932   5.855   5.174  0.0469  0.2881 -0.3109
15962SOL    HW151032   5.011   5.841   5.227 -1.6894 -0.6030  2.2599
15962SOL    HW251033   4.865   5.882   5.238 -1.6003  1.7061 -2.4685
15963SOL     OW51034   0.604   1.203   4.682  0.2342  0.0018 -0.1790
15963SOL    HW151035   0.576   1.223   4.593 -0.7774 -1.5304 -0.2451
15963SOL    HW251036   0.538   1.141   4.715  1.6371 -0.9681  0.9433
15964SOL     OW51037   0.004   7.197   1.494 -0.4060 -0.0826  0.0556
15964SOL    HW151038  -0.088   7.218   1.482 -0.5746 -1.0383 -0.4282
15964SOL    HW251039   0.009   7.157   1.581 -0.6237 -0.9365 -0.3170
15965SOL     OW51040   7.973   6.209   4.993 -0.1915 -0.0071 -0.7613
15965SOL    HW151041   7.929   6.147   5.051  0.5416  0.7411  0.6801
15965SOL    HW251042   7.926   6.203   4.910 -2.8659  0.6101  0.6073
15966SOL     OW51043   2.989   4.792   7.020 -0.6820 -0.0926  0.1265
15966SOL    HW151044   2.980   4.697   7.014 -0.4756 -0.0841 -0.3713
15966SOL    HW251045   2.904   4.827   6.991 -0.9751 -0.1341  0.9122
15967SOL     OW51046   3.157   7.841   2.540 -0.2787  0.3671 -0.3221
15967SOL    HW151047   3.134   7.919   2.490  0.1948 -0.5447 -2.0465
15967SOL    HW251048   3.118   7.769   2.491  0.6697 -0.6141  0.3348
15968SOL     OW51049   2.220   5.938   2.767  0.2656  0.3075 -0.2502
15968SOL    HW151050   2.173   5.899   2.693 -1.0162 -0.9643  1.1740
15968SOL    HW251051   2.189   5.889   2.843  4.1144 -0.8199  0.7976
15969SOL     OW51052   5.593   6.546   6.636  0.5205  0.7162 -0.0285
15969SOL    HW151053   5.513   6.508   6.672  1.2895 -1.3038 -0.3178
15969SOL    HW251054   5.593   6.519   6.544  1.9618 -0.1444  0.1891
15970SOL     OW51055   4.911   2.471   1.677 -0.3936  0.3518  0.1978
15970SOL    HW151056   5.000   2.459   1.709 -0.2837 -0.9887 -0.5226
15970SOL    HW251057   4.919   2.477   1.582 -1.0865 -0.2170  0.0866
15971SOL     OW51058   6.562   2.302   2.245  0.1794 -0.3447  0.6602
15971SOL    HW151059   6.590   2.358   2.174 -1.9961 -0.7463 -0.6041
15971SOL    HW251060   6.628   2.232   2.249  1.3114  0.6707  0.3184
15972SOL     OW51061   4.928   3.683   4.435  0.2936  0.0076  0.0799
15972SOL    HW151062   5.017   3.686   4.401 -0.0354  1.1614 -0.7421
15972SOL    HW251063   4.892   3.770   4.415 -0.0946  0.5991  2.9013
15973SOL     OW51064   7.419   5.421   0.713  0.2915 -0.4307 -0.1060
15973SOL    HW151065   7.329   5.434   0.681  0.7569  0.8459 -0.9845
15973SOL    HW251066   7.460   5.364   0.648 -0.0177 -1.4255  0.5615
15974SOL     OW51067   4.821   7.846   3.187  0.7763 -0.6253  0.2615
15974SOL    HW151068   4.810   7.907   3.114 -1.0010  0.0646  1.0409
15974SOL    HW251069   4.907   7.868   3.224  1.4025 -0.5296 -1.1735
15975SOL     OW51070   1.971   6.028   0.335 -0.2855  0.0313 -0.4455
15975SOL    HW151071   1.900   5.970   0.309  0.9834 -0.9479 -1.8789
15975SOL    HW251072   2.043   5.969   0.360  0.3425  0.9801  0.0575
15976SOL     OW51073   2.894   0.136   2.633 -0.1913  0.1292 -0.4699
15976SOL    HW151074   2.839   0.158   2.708  1.3761 -1.1672  1.1630
15976SOL    HW251075   2.903   0.041   2.636  3.2281  0.3400  0.2694
15977SOL     OW51076   2.138   1.859   0.675 -0.6105 -0.3374 -0.0317
15977SOL    HW151077   2.107   1.863   0.765 -0.1785  3.5443  0.0774
15977SOL    HW251078   2.065   1.821   0.626 -1.0178 -2.0685  1.8031
15978SOL     OW51079   2.526   6.484   6.024  0.0705  0.6137  0.3603
15978SOL    HW151080   2.436   6.456   6.043  0.5656 -0.0499  1.8468
15978SOL    HW251081   2.571   6.403   6.001  0.9305  0.4840  2.3289
15979SOL     OW51082   6.477   0.374   0.042  0.1689 -0.1814  0.4154
15979SOL    HW151083   6.485   0.387   0.136 -0.2575  2.6873  0.1497
15979SOL    HW251084   6.461   0.462   0.007 -0.7454 -1.3029 -2.2326
15980SOL     OW51085   8.064   3.909   6.327  0.0018 -0.5800  0.3497
15980SOL    HW151086   8.028   3.902   6.415 -1.4534  0.1967 -0.1536
15980SOL    HW251087   8.152   3.945   6.340  0.2447 -1.5232  1.5323
15981SOL     OW51088   5.247   8.082   1.683 -0.5281 -0.0052 -0.0201
15981SOL    HW151089   5.228   8.134   1.762  1.2753  1.0359 -0.2080
15981SOL    HW251090   5.294   8.005   1.715  0.9290  0.8119 -0.0812
15982SOL     OW51091   2.445   3.050   0.881  0.2036 -0.2029 -0.0131
15982SOL    HW151092   2.413   3.090   0.800  1.3980 -0.5564 -0.6922
15982SOL    HW251093   2.391   2.973   0.893  0.5466 -0.6142 -0.9555
15983SOL     OW51094   2.054   4.162   6.120 -0.0431  0.2332  0.1640
15983SOL    HW151095   2.107   4.230   6.160 -0.5214  1.5034 -1.2876
15983SOL    HW251096   2.108   4.129   6.048  1.4921 -3.1445  2.5844
15984SOL     OW51097   7.858   4.097   7.462 -0.2076  0.4532 -0.1442
15984SOL    HW151098   7.863   4.110   7.557 -0.2490  0.1087 -0.0942
15984SOL    HW251099   7.947   4.075   7.436 -0.1524  0.7541 -0.2194
15985SOL     OW51100   2.397   2.583   2.428 -0.0909 -0.1252 -0.1013
15985SOL    HW151101   2.427   2.497   2.400  1.2012  0.5981 -1.0154
15985SOL    HW251102   2.451   2.605   2.504  1.2154  0.8327 -1.2616
15986SOL     OW51103   7.511   7.905   5.114 -0.0180  0.2673 -0.2952
15986SOL    HW151104   7.502   7.859   5.030  1.2305 -1.3096  0.3837
15986SOL    HW251105   7.423   7.903   5.152 -0.8497  1.9050 -1.9623
15987SOL     OW51106   1.425   3.282   6.694  0.2549 -0.1052 -0.2386
15987SOL    HW151107   1.511   3.258   6.660 -0.1249 -0.8433 -0.7096
15987SOL    HW251108   1.391   3.345   6.631  0.6647  0.6119  0.2402
15988SOL     OW51109   6.015   4.558   3.410 -0.4398  0.0676  0.0152
15988SOL    HW151110   6.044   4.628   3.469  2.7048 -1.1347  0.0851
15988SOL    HW251111   5.989   4.603   3.330  0.2569  1.4036  0.5120
15989SOL     OW51112   0.355   7.122   7.233  0.3371 -0.4874  0.1945
15989SOL    HW151113   0.278   7.066   7.244 -0.0133 -0.4232 -1.6370
15989SOL    HW251114   0.330   7.205   7.276 -1.6348  0.3785 -2.3680
15990SOL     OW51115   4.072   2.355   7.515  0.3632  0.0137  0.2145
15990SOL    HW151116   4.162   2.326   7.529  0.2111 -0.0510  1.1590
15990SOL    HW251117   4.024   2.275   7.495  0.4782  0.0166 -0.0699
15991SOL     OW51118   2.250   2.832   0.202  0.0964  0.3852 -0.3001
15991SOL    HW151119   2.183   2.817   0.135 -1.6405 -2.1415  1.8301
15991SOL    HW251120   2.271   2.745   0.235  1.2294  1.4925  2.1125
15992SOL     OW51121   7.842   7.152   5.300 -0.2906 -0.2154  0.6567
15992SOL    HW151122   7.864   7.244   5.319 -2.3835  0.4429  0.1268
15992SOL    HW251123   7.799   7.121   5.379  2.8448 -1.7124  1.9529
15993SOL     OW51124   2.703   1.714   4.486  0.2791  0.5014  0.0433
15993SOL    HW151125   2.661   1.781   4.541  1.5518  2.0791 -0.8161
15993SOL    HW251126   2.647   1.709   4.408  0.7346  1.3637 -0.3540
15994SOL     OW51127   2.915   1.288   3.740 -0.2123 -0.3142 -0.2586
15994SOL    HW151128   2.994   1.341   3.731  0.7421 -1.5309  0.6407
15994SOL    HW251129   2.849   1.349   3.774  1.2327  0.0459  2.1330
15995SOL     OW51130   0.855   2.947   7.961  0.5323 -0.6123  0.3091
15995SOL    HW151131   0.843   2.973   8.052  0.1844  0.4346 -0.0240
15995SOL    HW251132   0.947   2.919   7.955  0.7889  0.1159  0.7883
15996SOL     OW51133   5.566   7.507   7.045  0.4425 -0.1555  0.1423
15996SOL    HW151134   5.644   7.458   7.069 -0.6541 -1.5308  1.0647
15996SOL    HW251135   5.519   7.451   6.984 -0.0731  0.4258 -0.0112
15997SOL     OW51136   0.986   3.997   7.302  0.2353 -0.2129 -0.1257
15997SOL    HW151137   1.015   4.087   7.282  0.4678 -0.2190  0.1682
15997SOL    HW251138   0.907   4.009   7.354  1.1334 -0.1299  1.2808
15998SOL     OW51139   2.611   4.659   3.921  0.0523 -0.3786  0.1741
15998SOL    HW151140   2.566   4.581   3.889  0.3118 -0.6109  0.3709
15998SOL    HW251141   2.678   4.626   3.981  1.2021 -0.1079 -0.9258
15999SOL     OW51142   2.433   5.817   2.028  0.2688 -0.2170  0.1184
15999SOL    HW151143   2.355   5.856   1.988  1.5528  1.6074 -0.7480
15999SOL    HW251144   2.398   5.749   2.087 -1.9215  0.2004 -0.5923
16000SOL     OW51145   0.798   6.300   6.295 -0.2350 -0.1076 -0.2927
16000SOL    HW151146   0.851   6.224   6.272  0.8426 -0.0556  1.8044
16000SOL    HW251147   0.728   6.264   6.350  0.6467  0.4368  1.2455
16001SOL     OW51148   3.766   7.944   5.537  0.1318  0.4660  0.0254
16001SOL    HW151149   3.786   7.942   5.631 -0.9648 -1.8444  0.2821
16001SOL    HW251150   3.671   7.932   5.532  0.3944 -1.4954 -1.3838
16002SOL     OW51151   5.190   6.943   0.171 -0.7279  0.2174  0.0533
16002SOL    HW151152   5.107   6.906   0.142 -1.3624  1.5020  0.1520
16002SOL    HW251153   5.173   7.037   0.178  1.5422  1.0073 -2.8959
16003SOL     OW51154   3.145   5.110   6.491 -0.5142 -0.1048  0.0604
16003SOL    HW151155   3.117   5.194   6.527 -0.5848 -0.1780  0.1771
16003SOL    HW251156   3.158   5.127   6.398 -1.5785 -0.2141 -0.1277
16004SOL     OW51157   6.108   7.955   4.070 -0.1944  0.1374  0.3741
16004SOL    HW151158   6.187   7.948   4.125 -0.9380 -0.7469  1.3594
16004SOL    HW251159   6.079   8.045   4.083 -0.9542 -0.3350  2.3234
16005SOL     OW51160   1.749   5.950   2.253 -0.3436  0.3742  0.0979
16005SOL    HW151161   1.656   5.928   2.261  0.0884 -1.2129  1.2224
16005SOL    HW251162   1.785   5.936   2.341  0.7217  2.3079  0.0428
16006SOL     OW51163   2.127   1.643   0.180 -0.5486  0.1383  0.3433
16006SOL    HW151164   2.095   1.594   0.104 -0.1044  1.1130 -0.5058
16006SOL    HW251165   2.067   1.717   0.189 -0.7474 -0.1078  1.1107
16007SOL     OW51166   3.916   6.704   6.562 -0.1258  0.3687 -0.5303
16007SOL    HW151167   3.901   6.625   6.614  0.4169 -0.7849 -2.0486
16007SOL    HW251168   3.841   6.709   6.503  0.4863  0.2390 -1.3297
16008SOL     OW51169   6.742   6.133   3.198  0.1684 -0.0014  0.5755
16008SOL    HW151170   6.662   6.185   3.203 -0.0344  0.2696 -2.8814
16008SOL    HW251171   6.711   6.042   3.196  0.0517  0.0341  0.7840
16009SOL     OW51172   2.718   6.871   7.048 -0.1598  0.1497 -0.4564
16009SOL    HW151173   2.813   6.881   7.056 -0.1742 -0.4671  0.7006
16009SOL    HW251174   2.707   6.795   6.990  0.0766 -0.2721  0.0402
16010SOL     OW51175   7.045   6.706   1.561  0.0955  0.2513 -0.1717
16010SOL    HW151176   7.011   6.764   1.629 -0.5852  0.8721 -1.0264
16010SOL    HW251177   7.140   6.705   1.576  0.1314  1.6040 -0.1446
16011SOL     OW51178   1.486   1.205   3.131 -0.1293  0.1607 -0.6379
16011SOL    HW151179   1.393   1.190   3.111 -0.3348 -0.3766  0.6510
16011SOL    HW251180   1.490   1.298   3.153  0.2085  0.9386 -3.5388
16012SOL     OW51181   2.781   7.074   0.709  0.1719  0.6635  0.3026
16012SOL    HW151182   2.719   7.134   0.667 -0.7804 -0.3981  0.1381
16012SOL    HW251183   2.727   7.001   0.739  1.1389  0.4324  1.5459
16013SOL     OW51184   2.981   5.625   4.966 -0.5003 -0.2671  0.4614
16013SOL    HW151185   3.039   5.604   4.893 -0.8836 -0.4185  0.1944
16013SOL    HW251186   3.029   5.599   5.044  0.0216  0.1305  0.2803
16014SOL     OW51187   4.420   5.994   3.089 -0.2499  0.1398 -0.1222
16014SOL    HW151188   4.373   5.968   3.169  0.3982  0.4378  0.3609
16014SOL    HW251189   4.389   5.933   3.023  1.2610 -1.9556  0.9836
16015SOL     OW51190   2.547   6.597   5.782 -0.3456 -0.1085  0.0010
16015SOL    HW151191   2.533   6.555   5.867 -2.2320 -1.2042 -0.7926
16015SOL    HW251192   2.522   6.689   5.796 -3.8436 -0.9177 -0.0599
16016SOL     OW51193   2.450   3.708   6.844 -0.2570  0.0283  0.4731
16016SOL    HW151194   2.410   3.720   6.758 -1.2036 -0.3464  0.8451
16016SOL    HW251195   2.524   3.649   6.828 -0.5454 -0.1971 -0.0603
16017SOL     OW51196   6.236   5.238   7.994  0.1408  0.2098 -0.3994
16017SOL    HW151197   6.246   5.143   7.990  0.1700  0.1202  1.0041
16017SOL    HW251198   6.313   5.268   8.044 -0.8871  0.7184  0.9542
16018SOL     OW51199   1.686   2.045   6.800  0.6611  0.2614 -0.3030
16018SOL    HW151200   1.617   1.979   6.809  0.7084  0.1902 -0.4505
16018SOL    HW251201   1.719   2.033   6.710 -0.8529  1.9517 -1.1450
16019SOL     OW51202   0.267   7.761   4.866  0.3722 -0.1735 -0.0366
16019SOL    HW151203   0.285   7.837   4.810 -1.0459 -0.4125 -0.8817
16019SOL    HW251204   0.349   7.713   4.869  0.6037  0.0551 -1.6340
16020SOL     OW51205   0.436   2.993   3.466 -0.3768 -0.3913  0.5019
16020SOL    HW151206   0.506   2.967   3.405  0.3891 -1.0278  1.6220
16020SOL    HW251207   0.355   2.965   3.423 -0.0353  0.8802 -1.1011
16021SOL     OW51208   1.583   5.208   2.493  1.0369 -0.1559  0.0638
16021SOL    HW151209   1.522   5.210   2.566  0.7005  0.3438 -0.2254
16021SOL    HW251210   1.622   5.120   2.496  1.0759 -0.1205  0.8770
16022SOL     OW51211   0.462   4.822   7.873 -0.0608 -0.4552 -0.1488
16022SOL    HW151212   0.498   4.862   7.794 -3.6704  3.3763 -0.2038
16022SOL    HW251213   0.494   4.877   7.945  1.0945 -2.3408  0.8742
16023SOL     OW51214   3.506   3.286   0.376  0.0331  0.0359  0.4609
16023SOL    HW151215   3.596   3.267   0.402  0.3321  1.1310  0.2705
16023SOL    HW251216   3.508   3.287   0.280  0.0929  1.2740  0.4669
16024SOL     OW51217   2.819   2.343   1.785 -0.1871  0.5226 -0.1494
16024SOL    HW151218   2.743   2.296   1.750  0.8627 -0.6876 -0.8791
16024SOL    HW251219   2.884   2.340   1.716  0.1636  2.5723  0.0159
16025SOL     OW51220   5.082   4.521   5.251  0.0186 -0.3990 -0.1117
16025SOL    HW151221   5.007   4.470   5.220 -0.5955  0.0657  0.5792
16025SOL    HW251222   5.133   4.459   5.304  0.3701 -0.8325 -0.9319
16026SOL     OW51223   5.340   4.130   3.554 -0.5916 -0.0641  0.2355
16026SOL    HW151224   5.253   4.139   3.514 -0.5178  1.0220  0.2990
16026SOL    HW251225   5.362   4.218   3.583 -0.0867 -0.5869  1.5250
16027SOL     OW51226   6.604   5.491   4.098 -0.4721 -0.3770 -0.2269
16027SOL    HW151227   6.519   5.515   4.135 -0.3612 -0.9060  0.3943
16027SOL    HW251228   6.655   5.571   4.101 -0.9384 -0.0574 -0.5860
16028SOL     OW51229   4.617   4.446   2.969  0.3900  0.1533 -0.0936
16028SOL    HW151230   4.605   4.528   2.920 -0.1476  0.3563  0.3745
16028SOL    HW251231   4.554   4.451   3.040  1.2413 -0.0780  0.7063
16029SOL     OW51232   5.722   5.485   3.063  0.1622 -0.1513  0.6457
16029SOL    HW151233   5.734   5.524   2.976  0.4920 -0.7444  0.4212
16029SOL    HW251234   5.629   5.464   3.067  0.4791 -1.9293 -0.3558
16030SOL     OW51235   3.400   7.183   5.334 -0.5364  0.0692 -0.3570
16030SOL    HW151236   3.408   7.255   5.397 -1.2113 -0.4398  0.3502
16030SOL    HW251237   3.314   7.145   5.354 -0.6783 -0.2250 -1.4768
16031SOL     OW51238   1.795   6.916   8.022  0.2858 -0.3804 -0.5951
16031SOL    HW151239   1.799   6.907   7.927  0.1567 -1.6595 -0.5008
16031SOL    HW251240   1.864   6.858   8.055 -0.7842 -1.2973  0.1215
16032SOL     OW51241   5.113   4.073   6.752 -0.1415 -0.4548  0.4132
16032SOL    HW151242   5.105   3.978   6.739  0.5945 -0.3860 -0.6253
16032SOL    HW251243   5.053   4.092   6.824  0.0044 -1.7726  0.9146
16033SOL     OW51244   3.148   5.239   4.945 -0.0840  0.7074  0.1415
16033SOL    HW151245   3.183   5.319   4.905  0.1372  0.4368 -0.2179
16033SOL    HW251246   3.071   5.218   4.893  1.2517 -0.6950 -1.4039
16034SOL     OW51247   3.926   7.304   0.288  0.3684  0.5728  0.5770
16034SOL    HW151248   3.974   7.222   0.291  0.6702  0.6986 -0.5564
16034SOL    HW251249   3.834   7.278   0.296  0.5442  0.2472  1.6376
16035SOL     OW51250   6.430   0.494   1.962 -0.5542 -0.0553 -0.5466
16035SOL    HW151251   6.335   0.503   1.975 -0.2831  0.1074  1.8264
16035SOL    HW251252   6.450   0.408   2.001  0.0834 -0.8531 -2.5169
16036SOL     OW51253   6.991   2.844   0.742 -0.0144  0.0937 -0.3142
16036SOL    HW151254   6.922   2.793   0.700  0.6904  0.0331 -1.4708
16036SOL    HW251255   6.950   2.881   0.820 -1.4235  0.2364 -1.0729
16037SOL     OW51256   1.961   2.071   2.753  0.3918  0.2248 -0.1757
16037SOL    HW151257   2.009   2.032   2.680  0.4711 -0.4478  0.2260
16037SOL    HW251258   1.884   2.015   2.764  0.1330  0.6005 -0.0483
16038SOL     OW51259   5.897   0.717   6.841  0.1699  0.1500 -0.3383
16038SOL    HW151260   5.818   0.665   6.821 -0.5013  1.9844 -2.9836
16038SOL    HW251261   5.863   0.804   6.863  1.4155  0.6863 -0.4860
16039SOL     OW51262   7.426   0.782   7.087  0.2810  0.0086  0.2414
16039SOL    HW151263   7.430   0.859   7.144 -1.5422  1.6545 -1.6789
16039SOL    HW251264   7.353   0.800   7.028  1.0624 -2.3155 -1.5707
16040SOL     OW51265   0.764   0.007   4.026  0.5403 -0.2155 -0.3822
16040SOL    HW151266   0.823  -0.026   4.094  0.2779  0.5279  0.2205
16040SOL    HW251267   0.770  -0.058   3.955  0.5653 -1.1811  0.4803
16041SOL     OW51268   5.297   5.838   3.692  0.1385  0.4855 -0.4847
16041SOL    HW151269   5.234   5.870   3.757  0.7226 -0.9619  0.8560
16041SOL    HW251270   5.247   5.835   3.611 -2.7039 -3.6050  1.0581
16042SOL     OW51271   2.282   0.313   1.163 -0.5728 -0.7075  0.3122
16042SOL    HW151272   2.209   0.281   1.110 -0.3620  2.9829 -2.6251
16042SOL    HW251273   2.242   0.378   1.221  0.2014  0.8426 -0.8360
16043SOL     OW51274   5.930   5.225   1.316 -0.3225  0.6381  0.1172
16043SOL    HW151275   5.942   5.219   1.411 -2.5336  0.4804  0.4315
16043SOL    HW251276   5.879   5.304   1.303 -1.9272 -0.4728 -0.7043
16044SOL     OW51277   1.592   0.443   7.442  0.2344  0.2785 -0.6214
16044SOL    HW151278   1.627   0.380   7.505 -2.4183  0.7255  1.5063
16044SOL    HW251279   1.589   0.526   7.491 -2.2973  0.5562 -1.0771
16045SOL     OW51280   3.171   3.962   5.910  0.9697 -0.0783  0.3013
16045SOL    HW151281   3.211   3.889   5.862  0.5643 -0.9607  1.2627
16045SOL    HW251282   3.115   4.005   5.846  1.7497 -0.1910 -0.4698
16046SOL     OW51283   0.065   4.354   0.776 -0.7830 -0.9034 -0.2785
16046SOL    HW151284   0.133   4.301   0.818 -1.1788 -1.8862 -0.8289
16046SOL    HW251285  -0.018   4.319   0.810 -1.1716 -2.4875 -2.6124
16047SOL     OW51286   7.062   7.933   3.695 -0.3186 -0.8335 -0.3763
16047SOL    HW151287   7.150   7.933   3.733 -0.8274 -0.7580  0.8664
16047SOL    HW251288   7.032   8.023   3.706 -0.7947 -1.0119 -0.1828
16048SOL     OW51289   3.046   3.981   3.784 -0.5645 -0.6576  0.1796
16048SOL    HW151290   2.966   4.004   3.735 -1.1861  2.2075  2.2493
16048SOL    HW251291   3.115   3.979   3.718 -1.4242  2.6388 -1.0033
16049SOL     OW51292   5.163   2.679   2.553 -1.0754  0.1467 -0.0897
16049SOL    HW151293   5.193   2.742   2.488  0.2613 -0.9529 -0.6029
16049SOL    HW251294   5.162   2.728   2.636  1.4688  0.5106 -0.1825
16050SOL     OW51295   5.464   6.179   2.938  0.2237  0.3273 -0.0842
16050SOL    HW151296   5.434   6.093   2.907  0.4580  0.5656 -1.0114
16050SOL    HW251297   5.423   6.190   3.023  0.1296 -0.6777  0.0125
16051SOL     OW51298   6.481   1.599   3.553  0.0782 -0.8973 -0.6217
16051SOL    HW151299   6.417   1.552   3.606 -0.1175 -0.2985 -0.3100
16051SOL    HW251300   6.452   1.587   3.463 -0.7692 -0.2291 -0.4582
16052SOL     OW51301   4.096   0.027   0.687  0.1053 -0.8823  0.5847
16052SOL    HW151302   4.117  -0.062   0.715  2.6013 -0.6435 -0.2968
16052SOL    HW251303   4.036   0.059   0.755 -1.0108 -3.2380  0.8247
16053SOL     OW51304   2.206   6.719   6.340  0.3921  0.1784  0.1914
16053SOL    HW151305   2.264   6.643   6.338  0.4844  0.1547  2.0040
16053SOL    HW251306   2.167   6.722   6.253  3.2071  0.2836 -1.1866
16054SOL     OW51307   0.708   1.724   4.406  0.4565  0.1744 -0.2141
16054SOL    HW151308   0.752   1.640   4.392  1.7441  0.8463 -0.3764
16054SOL    HW251309   0.649   1.734   4.331  1.0389 -0.1356 -0.7234
16055SOL     OW51310   1.007   0.716   5.114  0.0157  0.1901  0.3755
16055SOL    HW151311   0.986   0.646   5.052 -0.0291  1.0426 -0.6001
16055SOL    HW251312   0.926   0.729   5.163  0.2747 -1.0018  1.1547
16056SOL     OW51313   1.163   0.578   5.443 -0.1994 -0.3740  0.4660
16056SOL    HW151314   1.167   0.673   5.435 -1.5475 -0.3991 -0.9758
16056SOL    HW251315   1.072   0.556   5.421  0.4512 -2.1229 -0.6417
16057SOL     OW51316   2.748   0.441   1.590 -0.3646  0.5480  0.6977
16057SOL    HW151317   2.689   0.511   1.566 -1.1006  0.1457  1.2918
16057SOL    HW251318   2.707   0.362   1.556  0.6743  0.4379 -0.3492
16058SOL     OW51319   2.351   7.598   7.428 -0.3835  0.0971 -0.0629
16058SOL    HW151320   2.445   7.614   7.427 -0.5084  0.9675 -1.5509
16058SOL    HW251321   2.340   7.515   7.382 -0.2293 -1.1225  1.9688
16059SOL     OW51322   1.645   4.881   5.700  0.5672 -0.3975  0.1084
16059SOL    HW151323   1.739   4.895   5.706  0.2520  1.3001  2.0901
16059SOL    HW251324   1.626   4.887   5.606  2.2412  0.5993 -0.2000
16060SOL     OW51325   8.084   3.518   2.300 -0.2474  0.1164  0.5288
16060SOL    HW151326   8.072   3.574   2.224  2.1487  0.7760  0.5485
16060SOL    HW251327   8.067   3.430   2.267 -2.8646  0.6801  0.1977
16061SOL     OW51328   1.536   7.742   1.343 -0.3039 -0.0581  0.0212
16061SOL    HW151329   1.627   7.772   1.332 -0.5386  0.4618 -0.5807
16061SOL    HW251330   1.485   7.823   1.343 -1.2035 -0.4463 -3.8998
16062SOL     OW51331   4.300   0.597   3.494  0.0350  0.1157 -0.0648
16062SOL    HW151332   4.222   0.627   3.540  0.7992  0.2932  1.1407
16062SOL    HW251333   4.275   0.598   3.401 -0.8869  1.7013  0.1735
16063SOL     OW51334   7.857   2.103   3.235 -0.2244 -0.1552 -0.3494
16063SOL    HW151335   7.878   2.056   3.154  0.6048 -0.4290  0.0094
16063SOL    HW251336   7.859   2.035   3.303  0.0615  0.2340  0.0393
16064SOL     OW51337   1.910   2.860   6.042 -0.0623 -0.0682 -0.2434
16064SOL    HW151338   1.984   2.799   6.038 -0.5015 -0.6176 -0.1268
16064SOL    HW251339   1.835   2.805   6.064 -0.3317  0.6288  0.6610
16065SOL     OW51340   7.784   6.558   7.924  0.1174 -0.1223 -0.3416
16065SOL    HW151341   7.876   6.534   7.914 -0.1556 -1.8781  0.8381
16065SOL    HW251342   7.758   6.591   7.838  1.8578  0.5317 -0.6634
16066SOL     OW51343   2.602   3.364   0.653  0.1525 -0.0122  0.2271
16066SOL    HW151344   2.510   3.392   0.651  0.8444  2.6208  0.9659
16066SOL    HW251345   2.645   3.428   0.710  2.5059 -1.0077 -0.3233
16067SOL     OW51346   7.181   4.566   5.210  0.0445 -0.7094 -0.3479
16067SOL    HW151347   7.166   4.624   5.135 -2.2997  1.9415  1.9535
16067SOL    HW251348   7.270   4.586   5.238 -0.0540  0.3918 -0.7520
16068SOL     OW51349   7.504   6.831   6.404  0.1538  0.0976  0.7282
16068SOL    HW151350   7.588   6.837   6.359  0.2086  2.6188  1.0311
16068SOL    HW251351   7.443   6.799   6.337  0.9588  0.1356 -0.0346
16069SOL     OW51352   2.841   6.614   3.392  0.4493  0.1619 -0.3218
16069SOL    HW151353   2.774   6.545   3.388  0.0450  0.4485  0.9884
16069SOL    HW251354   2.792   6.696   3.380  0.6228  0.3446  0.1819
16070SOL     OW51355   7.349   6.406   6.678  0.4440 -0.0663  0.4644
16070SOL    HW151356   7.325   6.313   6.676  0.2832 -0.0179 -0.4220
16070SOL    HW251357   7.432   6.410   6.631  0.4071  0.2494  0.4271
16071SOL     OW51358   0.889   5.422   5.232 -0.1023  0.1207 -0.2375
16071SOL    HW151359   0.891   5.327   5.220  1.7641 -0.1855  1.7486
16071SOL    HW251360   0.945   5.457   5.163  2.2480 -0.6290  1.1911
16072SOL     OW51361   1.009   1.651   4.053  0.1612  0.1451 -0.2820
16072SOL    HW151362   1.051   1.722   4.101  1.3594 -1.0655  0.5512
16072SOL    HW251363   1.075   1.582   4.050 -1.5176 -1.6189  0.5063
16073SOL     OW51364   2.588   7.322   7.678 -0.2375  0.1515 -0.5721
16073SOL    HW151365   2.648   7.348   7.608 -0.7808  0.9592 -0.7588
16073SOL    HW251366   2.525   7.264   7.635 -1.6548  2.0724 -1.2237
16074SOL     OW51367   5.133   7.318   2.266 -0.1067 -0.2839 -0.2771
16074SOL    HW151368   5.058   7.261   2.249 -0.2856 -0.6678  1.5837
16074SOL    HW251369   5.101   7.382   2.330  0.6585  0.6583 -0.8157
16075SOL     OW51370   7.549   7.534   3.677 -0.2324 -0.5131  0.3772
16075SOL    HW151371   7.469   7.586   3.674 -0.4021 -0.5319  2.8189
16075SOL    HW251372   7.614   7.589   3.632 -0.8584  0.9570  1.1933
16076SOL     OW51373   1.065   7.230   1.528 -0.2778 -0.0014 -0.4118
16076SOL    HW151374   0.978   7.264   1.550 -0.1612  0.1411 -0.1678
16076SOL    HW251375   1.085   7.267   1.443 -0.3330  0.1985 -0.3377
16077SOL     OW51376   1.947   5.466   4.609  0.3317 -0.5559 -0.2689
16077SOL    HW151377   1.916   5.556   4.614  2.8690  0.5728 -2.5088
16077SOL    HW251378   2.029   5.465   4.659  0.9676 -1.2661 -1.2811
16078SOL     OW51379   3.679   1.461   2.062 -0.4251  0.2224  0.1092
16078SOL    HW151380   3.654   1.406   2.136  0.1354  0.4928  0.5102
16078SOL    HW251381   3.631   1.425   1.987 -0.3150 -0.5972  0.4280
16079SOL     OW51382   3.540   6.552   7.149 -0.2616 -0.5358 -0.2939
16079SOL    HW151383   3.593   6.472   7.149  0.2058 -0.3066 -2.4918
16079SOL    HW251384   3.524   6.571   7.241  2.4501 -1.3076  0.4103
16080SOL     OW51385   4.366   3.242   1.759 -0.2499  0.3771  0.2377
16080SOL    HW151386   4.456   3.210   1.750 -0.5879 -1.1278  1.7122
16080SOL    HW251387   4.323   3.177   1.814 -2.4149  0.7904 -0.8755
16081SOL     OW51388   0.065   3.356   5.642 -0.2511 -0.4100  0.0142
16081SOL    HW151389   0.017   3.274   5.628 -2.0770  0.6978 -0.5028
16081SOL    HW251390   0.153   3.338   5.610 -0.7254 -2.0453 -0.4545
16082SOL     OW51391   2.511   7.098   6.440  0.4360 -0.3969  0.0617
16082SOL    HW151392   2.471   7.012   6.421  1.0126 -0.3980 -1.2338
16082SOL    HW251393   2.456   7.160   6.394 -1.1040  0.1995  2.5038
16083SOL     OW51394   0.355   7.974   4.000 -0.5353 -0.0363  0.0690
16083SOL    HW151395   0.358   7.879   4.010 -0.8298 -0.2844 -1.7604
16083SOL    HW251396   0.292   7.988   3.929  0.7631  1.3880 -0.8743
16084SOL     OW51397   7.219   1.368   2.664 -0.4544 -0.1182  0.0721
16084SOL    HW151398   7.162   1.306   2.708 -0.7417 -0.2422 -0.4705
16084SOL    HW251399   7.307   1.332   2.675 -0.5613 -0.3283  0.2414
16085SOL     OW51400   5.281   3.559   2.155 -0.0985  0.1626 -0.0830
16085SOL    HW151401   5.200   3.583   2.202  0.1879 -0.9473  1.0221
16085SOL    HW251402   5.281   3.464   2.155  2.0960  0.0911  1.5619
16086SOL     OW51403   2.228   6.335   7.274  0.1623 -0.2113  0.1836
16086SOL    HW151404   2.260   6.270   7.212 -0.9562 -0.0410 -0.6121
16086SOL    HW251405   2.133   6.337   7.260 -0.2764 -0.7799  2.4943
16087SOL     OW51406   1.220   6.031   5.074 -0.0179  0.0037 -0.5576
16087SOL    HW151407   1.219   6.113   5.124 -1.2732 -0.0284 -0.4980
16087SOL    HW251408   1.290   5.979   5.115 -1.7620 -0.5209  2.0093
16088SOL     OW51409   6.929   0.042   5.474 -0.1074  0.5281 -0.1374
16088SOL    HW151410   6.987   0.041   5.398  0.7637 -0.2704  0.5074
16088SOL    HW251411   6.988   0.036   5.549 -0.8910  2.0854  0.6572
16089SOL     OW51412   4.159   7.909   4.227 -0.3035  0.1746  0.3613
16089SOL    HW151413   4.157   8.004   4.217  0.3488  0.3429  1.6173
16089SOL    HW251414   4.111   7.893   4.308 -2.6421 -0.8113 -1.1247
16090SOL     OW51415   7.461   0.603   4.257  0.9688  0.2561 -0.0654
16090SOL    HW151416   7.510   0.639   4.182  1.5058  1.6323  0.9108
16090SOL    HW251417   7.518   0.619   4.332 -0.8458  1.6409  1.0732
16091SOL     OW51418   1.359   7.194   6.813  0.0627  0.3306 -0.2952
16091SOL    HW151419   1.329   7.281   6.841 -0.5162  0.0784 -0.1355
16091SOL    HW251420   1.402   7.158   6.890 -0.1965  0.2474 -0.1894
16092SOL     OW51421   2.899   7.727   4.213 -0.1459 -0.3646 -0.5172
16092SOL    HW151422   2.916   7.821   4.201  0.2730 -0.1036  1.6662
16092SOL    HW251423   2.819   7.711   4.162 -1.8437  1.8373  1.2195
16093SOL     OW51424   4.757   0.247   0.048 -0.2290  0.5902  0.9749
16093SOL    HW151425   4.794   0.175  -0.003  0.1245  0.8804  0.8194
16093SOL    HW251426   4.796   0.236   0.135  0.0021  0.7299  0.8883
16094SOL     OW51427   6.974   7.568   3.583  0.1681  0.3375  0.5510
16094SOL    HW151428   7.045   7.603   3.528 -0.2288 -0.3349 -0.4224
16094SOL    HW251429   6.999   7.591   3.672  0.8750  1.4059  0.1014
16095SOL     OW51430   1.280   6.759   7.142 -0.2149 -0.4057 -0.0653
16095SOL    HW151431   1.195   6.746   7.099 -1.1575 -2.5190  2.1620
16095SOL    HW251432   1.266   6.834   7.199 -0.0036  0.3242 -0.9498
16096SOL     OW51433   6.051   2.457   3.192  0.0563  0.1985 -0.0180
16096SOL    HW151434   6.085   2.380   3.237 -0.1774  0.1308  0.0426
16096SOL    HW251435   5.958   2.458   3.213 -0.2310 -0.3330 -1.1994
16097SOL     OW51436   4.333   6.956   2.439 -0.3623 -0.2297  0.1751
16097SOL    HW151437   4.353   6.870   2.476  1.7085  0.8157  1.6670
16097SOL    HW251438   4.319   6.939   2.346  1.9828 -1.9718  0.0508
16098SOL     OW51439   0.257   3.163   0.349 -0.2801 -0.0482 -0.4948
16098SOL    HW151440   0.235   3.073   0.373  0.8698 -0.0940  0.4769
16098SOL    HW251441   0.201   3.182   0.274 -2.9889 -0.4289  1.2904
16099SOL     OW51442   0.536   6.115   5.587 -0.1593  0.0498 -0.1940
16099SOL    HW151443   0.599   6.046   5.610  0.7634  1.0952  0.5191
16099SOL    HW251444   0.511   6.153   5.672  1.1808  2.1587 -0.6814
16100SOL     OW51445   1.023   1.874   7.783  0.1964 -0.2247 -0.1397
16100SOL    HW151446   0.984   1.952   7.744 -1.9478 -1.5628 -0.8788
16100SOL    HW251447   1.036   1.815   7.709  1.0185 -0.8675  0.5105
16101SOL     OW51448   0.923   3.517   5.295  0.4335  0.9036  0.1577
16101SOL    HW151449   0.960   3.580   5.356  0.4658 -0.2575  1.3599
16101SOL    HW251450   0.901   3.441   5.348  1.9918 -0.8092 -1.5106
16102SOL     OW51451   0.881   5.146   5.704  0.3384  0.1650 -0.8835
16102SOL    HW151452   0.975   5.149   5.690  0.4524  0.9176 -0.0412
16102SOL    HW251453   0.871   5.124   5.796 -0.3061  0.3155 -0.9113
16103SOL     OW51454   1.632   5.598   7.225  0.1454  0.2143 -0.0399
16103SOL    HW151455   1.610   5.557   7.142 -0.7020  1.7536 -0.6140
16103SOL    HW251456   1.547   5.617   7.266  0.2945  3.7706 -1.0405
16104SOL     OW51457   0.298   4.470   4.657  0.0480 -0.4944 -0.3898
16104SOL    HW151458   0.260   4.541   4.708 -0.0124 -0.7862 -0.0270
16104SOL    HW251459   0.223   4.423   4.621  0.0507 -1.0549  0.3061
16105SOL     OW51460   6.432   5.464   8.066  0.4723  0.3832  0.0063
16105SOL    HW151461   6.435   5.508   7.981  1.9127  1.6116  0.6295
16105SOL    HW251462   6.406   5.532   8.128  1.1343 -0.0345  0.7750
16106SOL     OW51463   5.579   2.475   5.011 -0.0224 -0.4485  0.3441
16106SOL    HW151464   5.590   2.570   5.006 -1.3700 -0.0997  2.6227
16106SOL    HW251465   5.617   2.450   5.095  2.3301 -2.3446 -1.1430
16107SOL     OW51466   0.476   1.516   2.003 -0.1549  0.1061  0.3031
16107SOL    HW151467   0.507   1.440   2.053  1.8490 -0.9049 -2.2593
16107SOL    HW251468   0.506   1.592   2.054  2.3145 -0.8703  0.4468
16108SOL     OW51469   7.851   6.311   1.644 -0.1804 -0.1195 -0.5296
16108SOL    HW151470   7.854   6.259   1.725  0.8147  0.8221  0.0638
16108SOL    HW251471   7.943   6.321   1.620  0.1046  4.5959  1.5095
16109SOL     OW51472   0.522   8.039   1.370  0.5327  0.5798 -0.6636
16109SOL    HW151473   0.444   7.992   1.401  0.7065 -0.1498 -1.3064
16109SOL    HW251474   0.508   8.049   1.276  0.8527  1.1468 -0.6523
16110SOL     OW51475   5.015   1.200   4.372  0.5753  0.0808  0.0765
16110SOL    HW151476   5.025   1.180   4.465 -2.2663  1.2318  0.7434
16110SOL    HW251477   4.982   1.120   4.333  0.3962  0.0124  0.3663
16111SOL     OW51478   2.436   2.144   3.748  0.5989 -0.1453 -0.3615
16111SOL    HW151479   2.409   2.148   3.656  1.9405 -0.7499 -0.8117
16111SOL    HW251480   2.531   2.158   3.745  0.5163  0.8196  1.0394
16112SOL     OW51481   6.004   1.199   0.933 -0.6048 -0.3522  0.1848
16112SOL    HW151482   6.005   1.137   0.860  0.3701 -0.0948 -0.0467
16112SOL    HW251483   5.960   1.277   0.899  0.2517 -0.0641 -0.2932
16113SOL     OW51484   1.218   7.935   1.926  0.2462 -0.0703  0.0381
16113SOL    HW151485   1.202   7.921   1.833  1.2300  1.8226 -0.4726
16113SOL    HW251486   1.312   7.952   1.932  0.0235  0.9156  1.2158
16114SOL     OW51487   6.728   6.480   1.287  0.1748 -0.8275  0.0033
16114SOL    HW151488   6.788   6.415   1.324  0.0518 -1.0052 -0.1073
16114SOL    HW251489   6.784   6.553   1.261  0.0649  0.3397  2.6955
16115SOL     OW51490   0.357   6.599   2.430 -1.0165  0.1701 -0.1598
16115SOL    HW151491   0.345   6.688   2.399 -2.1406  0.5236  1.1683
16115SOL    HW251492   0.417   6.606   2.504 -1.6372 -0.0652  0.3796
16116SOL     OW51493   4.317   6.574   5.530 -0.6553 -0.1390 -0.0719
16116SOL    HW151494   4.382   6.616   5.474 -0.3181  0.5983  0.8589
16116SOL    HW251495   4.358   6.569   5.616 -1.5142 -0.4208  0.3324
16117SOL     OW51496   0.920   5.116   2.518  0.2052 -0.1927  0.2432
16117SOL    HW151497   0.946   5.199   2.479 -1.2244  0.3592  0.4245
16117SOL    HW251498   0.852   5.139   2.581  0.8072 -1.3389  1.3596
16118SOL     OW51499   3.052   4.573   6.335 -0.3553  0.6362  0.3855
16118SOL    HW151500   2.960   4.600   6.330 -0.1037  1.3773 -0.4247
16118SOL    HW251501   3.097   4.650   6.370 -0.2637 -0.2886  2.4505
16119SOL     OW51502   4.906   6.996   4.872 -0.2694  0.0092 -0.2780
16119SOL    HW151503   4.992   6.989   4.831  0.1435 -0.8350  0.7192
16119SOL    HW251504   4.846   6.961   4.806  0.1926  0.1672 -0.7945
16120SOL     OW51505   2.075   3.732   5.021  0.5011 -0.0890 -0.6213
16120SOL    HW151506   1.981   3.715   5.029  0.4367 -0.1898 -1.5020
16120SOL    HW251507   2.082   3.801   4.956  0.9975  0.5773  0.1104
16121SOL     OW51508   2.711   2.967   0.874 -0.3018  0.0501 -0.1736
16121SOL    HW151509   2.725   2.907   0.800 -0.6550 -0.2009 -0.0385
16121SOL    HW251510   2.616   2.978   0.878 -0.4097 -1.1278  1.1773
16122SOL     OW51511   6.330   3.956   0.352 -0.3919  0.6102 -0.0769
16122SOL    HW151512   6.364   3.871   0.381 -2.0932 -0.6245 -1.4945
16122SOL    HW251513   6.298   3.940   0.263 -2.2321  2.3135  0.2061
16123SOL     OW51514   7.036   7.004   1.662 -0.0352 -0.0460  0.4578
16123SOL    HW151515   7.029   7.075   1.599  0.6739  1.2791  1.8118
16123SOL    HW251516   6.954   7.006   1.710 -0.7413 -1.3128 -0.6312
16124SOL     OW51517   3.939   0.121   0.897 -0.1214  0.2824  0.3500
16124SOL    HW151518   3.879   0.052   0.922 -1.0517  0.5854 -0.9691
16124SOL    HW251519   3.883   0.197   0.882  0.6623  0.7499 -0.2638
16125SOL     OW51520   2.542   2.420   5.008  0.2743  0.0524  0.2305
16125SOL    HW151521   2.614   2.388   5.063  1.0965 -1.2545 -1.5296
16125SOL    HW251522   2.577   2.417   4.919 -2.0877 -1.0125 -0.7209
16126SOL     OW51523   0.889   4.576   5.345 -0.0073  0.0406 -0.7241
16126SOL    HW151524   0.885   4.482   5.360  1.1023 -0.0948 -1.2460
16126SOL    HW251525   0.981   4.595   5.331 -0.2100  1.2189 -0.5740
16127SOL     OW51526   1.331   0.109   6.166 -0.1399 -0.3022 -0.1658
16127SOL    HW151527   1.384   0.063   6.231 -0.2109 -0.2354 -0.0623
16127SOL    HW251528   1.387   0.112   6.088  0.5852  1.0469  0.3725
16128SOL     OW51529   6.958   3.423   1.738 -0.0479  0.1159 -0.2977
16128SOL    HW151530   6.982   3.434   1.646 -0.4916 -0.5577 -0.5013
16128SOL    HW251531   6.868   3.455   1.744 -0.3511 -0.7300 -0.3017
16129SOL     OW51532   5.068   5.845   2.367  0.8933 -0.5867 -0.0189
16129SOL    HW151533   5.048   5.824   2.276  0.7609 -0.0206 -0.1264
16129SOL    HW251534   5.158   5.815   2.379  1.2067  0.0949 -0.5912
16130SOL     OW51535   4.375   5.171   7.527 -0.2039  0.1604  0.6199
16130SOL    HW151536   4.460   5.202   7.558 -0.0731 -0.9158  1.4011
16130SOL    HW251537   4.319   5.249   7.528  0.8421  0.9503 -0.2184
16131SOL     OW51538   7.848   4.877   2.551  0.6886 -0.2371 -0.0384
16131SOL    HW151539   7.768   4.906   2.595  0.7142  1.1080 -0.8393
16131SOL    HW251540   7.821   4.864   2.460  1.5580  1.0229 -0.4839
16132SOL     OW51541   3.199   1.988   4.511 -0.2868 -0.5065 -0.2374
16132SOL    HW151542   3.208   2.074   4.468 -0.5022  0.6810  1.9323
16132SOL    HW251543   3.105   1.970   4.508 -0.5562  0.4725  1.2665
16133SOL     OW51544   2.956   2.032   0.118 -0.0007  0.1169  0.4521
16133SOL    HW151545   2.883   2.090   0.098 -3.1299 -2.4759  3.1236
16133SOL    HW251546   2.963   1.974   0.042 -2.7801 -1.3335  1.1707
16134SOL     OW51547   5.884   1.722   0.778  0.3835 -0.3735  0.3743
16134SOL    HW151548   5.882   1.816   0.797 -1.4949 -0.5509  1.3024
16134SOL    HW251549   5.834   1.712   0.698 -0.3829 -0.6819  0.8822
16135SOL     OW51550   7.984   3.262   7.315 -0.4419  0.0627 -0.4373
16135SOL    HW151551   7.971   3.298   7.403 -1.6364 -2.4121  0.5173
16135SOL    HW251552   8.076   3.236   7.314 -0.8155 -1.5217  0.8440
16136SOL     OW51553   5.664   4.807   1.368  0.1788 -0.0584 -0.1424
16136SOL    HW151554   5.713   4.779   1.445 -0.5861  1.4263  0.9377
16136SOL    HW251555   5.728   4.852   1.313  0.2965  0.8036  0.6861
16137SOL     OW51556   7.454   7.061   0.571  0.0408  0.3617 -0.0500
16137SOL    HW151557   7.399   7.018   0.637 -0.7080  1.9916  0.4491
16137SOL    HW251558   7.532   7.088   0.620  1.1590 -1.5752 -0.6650
16138SOL     OW51559   4.368   3.001   0.411  0.2193 -0.1818 -0.4270
16138SOL    HW151560   4.314   2.943   0.357 -0.5030 -0.3187  0.4146
16138SOL    HW251561   4.430   3.039   0.350 -2.2474  1.7582 -1.9408
16139SOL     OW51562   4.369   6.686   3.729  0.2282  0.3193  0.1629
16139SOL    HW151563   4.435   6.649   3.669 -1.2448 -0.0622 -1.2974
16139SOL    HW251564   4.336   6.610   3.777  0.9001  0.5270  0.9750
16140SOL     OW51565   6.013   3.308   1.899  0.3881  0.3555 -0.0798
16140SOL    HW151566   6.007   3.241   1.967 -0.3427  0.1956 -0.2840
16140SOL    HW251567   5.986   3.263   1.818 -2.7490  1.4568  0.1989
16141SOL     OW51568   4.713   3.690   1.927  0.4895  0.1825  0.3442
16141SOL    HW151569   4.790   3.737   1.960  2.4907 -1.9200 -1.0242
16141SOL    HW251570   4.724   3.692   1.832 -0.7185 -0.8971  0.1633
16142SOL     OW51571   5.852   5.379   7.813  0.1638 -0.1175 -0.1221
16142SOL    HW151572   5.767   5.336   7.815  0.4810 -0.7484  0.4455
16142SOL    HW251573   5.875   5.383   7.720 -0.3422 -0.2273 -0.2525
16143SOL     OW51574   1.419   3.329   1.812  0.0526  0.1594  0.2331
16143SOL    HW151575   1.380   3.283   1.737 -0.3320  0.2112  0.3964
16143SOL    HW251576   1.362   3.405   1.825 -0.1741 -0.1200  0.8908
16144SOL     OW51577   0.361   5.305   7.922 -0.6325 -0.0107  0.0556
16144SOL    HW151578   0.301   5.231   7.929 -0.3831 -0.3290 -0.8999
16144SOL    HW251579   0.430   5.273   7.863  0.4092  0.3843  1.0227
16145SOL     OW51580   0.186   1.754   6.170  0.1033 -0.9288  0.1000
16145SOL    HW151581   0.221   1.681   6.119  1.0526  0.3380 -1.1369
16145SOL    HW251582   0.156   1.817   6.105  1.4940  0.8150  1.0603
16146SOL     OW51583   5.539   4.472   0.605 -0.0937  0.3639  0.1812
16146SOL    HW151584   5.505   4.384   0.591 -1.4734  1.0124 -0.8265
16146SOL    HW251585   5.632   4.459   0.624 -0.3024 -1.3071  0.2261
16147SOL     OW51586   3.214   7.801   2.132  0.0147  0.3186  0.0383
16147SOL    HW151587   3.221   7.884   2.086 -0.7473 -0.7898 -2.2099
16147SOL    HW251588   3.131   7.805   2.178 -0.7047  0.2817 -1.2238
16148SOL     OW51589   3.055   6.459   2.798 -0.0611 -0.1837 -0.2215
16148SOL    HW151590   2.994   6.395   2.762 -1.0241  0.3911  0.3535
16148SOL    HW251591   3.042   6.455   2.893 -0.5231  1.2270 -0.1986
16149SOL     OW51592   0.443   5.372   2.279  0.0233 -0.1425  1.1294
16149SOL    HW151593   0.349   5.385   2.289  0.1726  1.4733  0.7714
16149SOL    HW251594   0.451   5.309   2.207 -0.7795 -0.2078  1.0877
16150SOL     OW51595   0.370   0.334   3.919 -0.1178 -0.2346 -0.8083
16150SOL    HW151596   0.301   0.279   3.955 -1.8238  2.8645  1.1034
16150SOL    HW251597   0.391   0.395   3.990  0.0739  2.8857 -3.3271
16151SOL     OW51598   4.948   5.124   3.518  0.6641 -0.3580  0.1393
16151SOL    HW151599   4.973   5.122   3.610  0.8814  3.0524  0.2852
16151SOL    HW251600   4.891   5.201   3.510 -1.6056 -2.0871 -2.1253
16152SOL     OW51601   2.990   7.626   7.328  0.3225 -0.0555 -0.0956
16152SOL    HW151602   3.035   7.620   7.412  2.8692 -1.7148 -1.4386
16152SOL    HW251603   3.012   7.544   7.284 -1.8307  0.3026 -1.9794
16153SOL     OW51604   6.226   2.755   4.503  0.0000 -0.0196  0.4901
16153SOL    HW151605   6.265   2.670   4.519 -1.3936 -0.4926  1.5323
16153SOL    HW251606   6.180   2.777   4.584  0.7069  1.9498  0.4228
16154SOL     OW51607   5.190   5.110   0.394  0.9870  0.4417 -0.2191
16154SOL    HW151608   5.195   5.076   0.304 -0.0477  1.8117 -0.8412
16154SOL    HW251609   5.263   5.069   0.439 -0.2802 -2.8454 -0.7878
16155SOL     OW51610   5.891   4.987   1.955 -0.5036  0.1969  0.0230
16155SOL    HW151611   5.818   4.956   1.900  0.0823 -0.1696 -0.5591
16155SOL    HW251612   5.958   5.014   1.892  0.7792 -1.6420  0.5290
16156SOL     OW51613   4.941   1.761   4.855  0.1867  0.0750  0.2431
16156SOL    HW151614   5.013   1.814   4.890  2.5395 -1.6024 -1.6839
16156SOL    HW251615   4.928   1.693   4.921  1.7705 -0.7230 -0.2159
16157SOL     OW51616   4.155   0.604   5.526 -0.2528 -0.1874 -0.6117
16157SOL    HW151617   4.197   0.603   5.612  0.0121  0.6079 -0.7231
16157SOL    HW251618   4.083   0.667   5.535 -1.1138 -1.1519 -0.5735
16158SOL     OW51619   7.569   2.959   5.459  0.2042  0.4777  0.1476
16158SOL    HW151620   7.656   2.928   5.433  0.5910  1.4317  0.2607
16158SOL    HW251621   7.557   2.927   5.548 -0.2867 -1.0993 -0.4463
16159SOL     OW51622   4.336   5.817   7.839  0.1023 -0.1814  0.2069
16159SOL    HW151623   4.372   5.900   7.871  0.7843 -0.3123 -0.2053
16159SOL    HW251624   4.306   5.837   7.750  0.4301 -0.4209  0.0427
16160SOL     OW51625   3.426   1.517   6.001 -0.1921  0.9896 -0.4395
16160SOL    HW151626   3.508   1.547   6.040  0.6458  0.2826 -1.5960
16160SOL    HW251627   3.391   1.593   5.955 -0.1729  1.2750  0.0122
16161SOL     OW51628   2.291   1.991   2.801 -0.6013  0.8894 -0.0615
16161SOL    HW151629   2.338   2.062   2.845 -0.3378  0.6961 -0.0296
16161SOL    HW251630   2.360   1.941   2.757 -0.7116  0.2592  0.4692
16162SOL     OW51631   1.144   6.301   5.480  0.4162 -0.1436 -0.1827
16162SOL    HW151632   1.112   6.361   5.547  1.7519  0.4584 -0.0593
16162SOL    HW251633   1.084   6.226   5.485 -1.6053  1.3498 -0.6994
16163SOL     OW51634   4.947   4.902   4.440 -0.2692 -0.2841 -0.1534
16163SOL    HW151635   4.972   4.821   4.395 -0.9917  0.5152 -2.1112
16163SOL    HW251636   4.960   4.970   4.375 -3.9620  0.6370 -0.1749
16164SOL     OW51637   3.388   6.301   2.088 -0.0312  0.3324 -0.5890
16164SOL    HW151638   3.463   6.344   2.046 -0.4907  1.6373 -0.1219
16164SOL    HW251639   3.316   6.312   2.025 -0.2985  0.7802 -0.2073
16165SOL     OW51640   2.199   5.361   1.469 -0.6845 -0.0916  0.5145
16165SOL    HW151641   2.249   5.423   1.417 -0.1979 -1.6982 -1.0218
16165SOL    HW251642   2.119   5.346   1.419 -0.5876 -1.0296  0.6222
16166SOL     OW51643   4.610   2.507   6.695  0.1283 -0.2597  0.3631
16166SOL    HW151644   4.578   2.579   6.640 -1.6611 -1.4453 -0.2745
16166SOL    HW251645   4.600   2.539   6.784  1.2079  0.9819  0.0648
16167SOL     OW51646   0.608   3.064   7.893 -0.0509 -0.0273 -0.7442
16167SOL    HW151647   0.702   3.044   7.889 -0.1299 -1.5501  2.0345
16167SOL    HW251648   0.568   3.002   7.832  0.6066 -1.0264 -0.1927
16168SOL     OW51649   4.611   5.318   7.612  0.0095  0.0963  0.3394
16168SOL    HW151650   4.684   5.331   7.552  0.1526  1.3803  0.7646
16168SOL    HW251651   4.611   5.396   7.668 -0.0584 -1.0756  2.0720
16169SOL     OW51652   1.229   7.561   0.549  0.1780  0.2017 -0.4993
16169SOL    HW151653   1.218   7.498   0.478  3.3272 -0.2698 -0.6888
16169SOL    HW251654   1.262   7.510   0.623  0.6603  1.2645  0.0477
16170SOL     OW51655   5.077   6.845   7.363 -0.2858 -0.7298 -0.1665
16170SOL    HW151656   5.164   6.832   7.325 -0.4239 -0.0183 -0.7363
16170SOL    HW251657   5.092   6.899   7.441 -0.3850  0.8937 -1.2267
16171SOL     OW51658   7.817   4.002   6.586  0.0956  0.3440  0.2124
16171SOL    HW151659   7.853   3.966   6.667  0.7927 -0.5134 -0.4611
16171SOL    HW251660   7.726   3.975   6.586 -0.3630  1.7509  1.4923
16172SOL     OW51661   1.086   0.013   2.914  0.0946 -0.3231 -0.4466
16172SOL    HW151662   1.148  -0.059   2.924  0.4123 -0.5013 -3.0582
16172SOL    HW251663   1.002  -0.029   2.897  0.2284 -0.1328 -1.7102
16173SOL     OW51664   6.852   3.347   4.751  0.2213  0.0431 -0.0177
16173SOL    HW151665   6.799   3.302   4.817  1.1388  1.1461  1.5268
16173SOL    HW251666   6.790   3.405   4.706 -0.4360 -0.8128 -0.2640
16174SOL     OW51667   0.843   6.638   7.836  0.0232 -0.5669 -0.4029
16174SOL    HW151668   0.923   6.635   7.888  0.2518 -0.5133 -0.7474
16174SOL    HW251669   0.837   6.551   7.796 -1.3007 -1.3644  1.4020
16175SOL     OW51670   5.737   0.836   7.933  0.5112 -0.0429  0.5677
16175SOL    HW151671   5.784   0.760   7.900 -1.4416 -1.3069  0.5119
16175SOL    HW251672   5.747   0.902   7.865 -1.2532 -1.7184 -1.4622
16176SOL     OW51673   2.389   7.040   3.581  0.1266  0.1787  0.0919
16176SOL    HW151674   2.430   7.034   3.495  0.1619  1.1555  0.0336
16176SOL    HW251675   2.296   7.025   3.565  0.4785 -2.8660  0.3295
16177SOL     OW51676   2.046   2.011   6.301  0.0485  0.9662 -0.1209
16177SOL    HW151677   1.997   1.979   6.225 -1.8288  0.9078  1.0629
16177SOL    HW251678   2.028   2.105   6.303 -0.8502  0.7851  0.8780
16178SOL     OW51679   6.530   1.392   2.742  0.0684 -0.3650 -0.0765
16178SOL    HW151680   6.488   1.333   2.678 -0.0135 -0.3508 -0.0364
16178SOL    HW251681   6.530   1.343   2.824 -0.8231  0.0325  0.1776
16179SOL     OW51682   3.616   6.851   5.240 -0.1857 -0.0963 -0.8555
16179SOL    HW151683   3.700   6.868   5.282 -0.3847  0.0928 -0.5233
16179SOL    HW251684   3.596   6.931   5.192  0.1056 -0.3620 -1.4327
16180SOL     OW51685   1.671   1.720   0.016 -0.6533  0.2850  0.0468
16180SOL    HW151686   1.691   1.733   0.109  1.0804  0.5343 -0.3359
16180SOL    HW251687   1.646   1.628   0.009 -1.2339  0.3774  0.8259
16181SOL     OW51688   5.884   3.710   5.257 -0.4588  0.2746 -0.1778
16181SOL    HW151689   5.810   3.739   5.309  0.1674  0.1096  0.8280
16181SOL    HW251690   5.860   3.623   5.227 -0.3805 -0.0686  0.7366
16182SOL     OW51691   1.630   4.018   5.306  0.0368  0.0548  0.0836
16182SOL    HW151692   1.571   4.055   5.372 -0.1297 -0.3781  0.1793
16182SOL    HW251693   1.575   3.959   5.255  0.1664  0.3883 -0.4465
16183SOL     OW51694   1.457   1.580   3.235  0.2811 -0.2660 -0.2499
16183SOL    HW151695   1.368   1.611   3.250  1.2267  2.1591  0.8893
16183SOL    HW251696   1.460   1.559   3.142 -1.1099  0.9106 -0.5899
16184SOL     OW51697   4.758   1.478   6.818 -0.4677 -0.3822 -0.5737
16184SOL    HW151698   4.759   1.510   6.728 -0.1407  3.5537  0.6518
16184SOL    HW251699   4.694   1.407   6.817 -0.0769 -0.8483 -3.9644
16185SOL     OW51700   6.157   1.884   7.405 -0.3899 -0.4470 -0.8935
16185SOL    HW151701   6.191   1.906   7.492 -1.4301  0.4315 -0.6888
16185SOL    HW251702   6.235   1.862   7.353  0.6139  2.1620 -0.6330
16186SOL     OW51703   0.781   4.660   8.087  0.0309 -0.7785  0.5563
16186SOL    HW151704   0.691   4.635   8.107  0.1212 -1.0295  0.6455
16186SOL    HW251705   0.832   4.632   8.163  0.2179 -0.8243  0.4139
16187SOL     OW51706   0.664   5.551   4.349 -0.3364 -0.1145  0.4061
16187SOL    HW151707   0.610   5.478   4.378  0.2867 -1.2288 -1.0909
16187SOL    HW251708   0.629   5.627   4.394 -2.0937 -1.0681  0.7175
16188SOL     OW51709   2.409   2.933   7.544  0.2363  0.0416 -0.4355
16188SOL    HW151710   2.342   2.876   7.507  0.3104 -0.1641 -0.2519
16188SOL    HW251711   2.390   2.937   7.637  0.1915  0.3727 -0.4564
16189SOL     OW51712   6.815   0.998   6.069 -0.2486  0.2849  0.0528
16189SOL    HW151713   6.844   0.907   6.064 -0.1412  0.2923  0.4946
16189SOL    HW251714   6.748   0.998   6.137 -0.3079  0.5242 -0.0043
16190SOL     OW51715   0.256   3.916   2.333  0.3156  0.0217  0.3211
16190SOL    HW151716   0.295   3.977   2.270 -0.8530  0.2313 -0.2230
16190SOL    HW251717   0.163   3.917   2.313  0.4167 -3.2321 -0.8468
16191SOL     OW51718   1.598   4.876   0.114  0.3822 -0.2743 -0.2145
16191SOL    HW151719   1.508   4.897   0.088  0.8008  0.8969 -0.7989
16191SOL    HW251720   1.643   4.961   0.117  1.5593 -0.8683 -0.2738
16192SOL     OW51721   4.189   2.641   5.465 -0.4159  0.1834  0.2727
16192SOL    HW151722   4.282   2.642   5.487 -0.1762 -0.7603 -0.5823
16192SOL    HW251723   4.186   2.665   5.372 -1.0977  0.9585  0.4876
16193SOL     OW51724   3.210   4.344   3.779 -0.0206 -0.3774  0.0204
16193SOL    HW151725   3.288   4.327   3.831 -0.6304 -0.9820  0.7724
16193SOL    HW251726   3.224   4.431   3.742  0.7230 -0.2193  0.6537
16194SOL     OW51727   2.404   1.000   4.224  0.1222 -0.5699 -0.6152
16194SOL    HW151728   2.433   1.006   4.133 -0.7351  0.4131 -0.8470
16194SOL    HW251729   2.311   1.022   4.220  0.0255 -0.7524  0.4760
16195SOL     OW51730   4.315   0.654   2.006 -0.4749 -0.4700  0.2780
16195SOL    HW151731   4.354   0.690   2.085  1.0044  0.3531 -0.7905
16195SOL    HW251732   4.246   0.716   1.983  0.5343  0.4749 -0.2675
16196SOL     OW51733   1.791   2.918   1.081  0.8257 -0.4225  0.3618
16196SOL    HW151734   1.792   2.958   0.994 -0.1911 -0.2661  0.4033
16196SOL    HW251735   1.747   2.834   1.068 -1.9076  0.7495  1.1338
16197SOL     OW51736   2.980   6.173   0.378  0.1137  0.1463 -0.0868
16197SOL    HW151737   2.930   6.212   0.306  0.7352  1.0010 -0.0764
16197SOL    HW251738   3.071   6.177   0.348  0.4752  1.3191  1.0878
16198SOL     OW51739   4.635   3.747   6.958 -0.2745 -0.7273  0.1952
16198SOL    HW151740   4.573   3.786   6.896  1.0565  0.6384 -0.3596
16198SOL    HW251741   4.611   3.784   7.043  0.9798  1.4790 -0.3270
16199SOL     OW51742   4.759   4.669   5.439 -0.3116  0.0734  0.2304
16199SOL    HW151743   4.811   4.716   5.374 -0.9002  0.6416  0.1558
16199SOL    HW251744   4.726   4.592   5.393  1.2552 -0.8315  0.5591
16200SOL     OW51745   5.857   0.098   7.494 -0.1077 -0.4566 -0.4855
16200SOL    HW151746   5.936   0.070   7.540 -0.9340 -0.2820  1.1046
16200SOL    HW251747   5.850   0.191   7.513 -0.6500 -0.4578 -0.6761
16201SOL     OW51748   3.818   3.813   4.578 -0.1690 -0.1642  0.1313
16201SOL    HW151749   3.813   3.858   4.494 -0.1368  0.6454  0.5557
16201SOL    HW251750   3.885   3.745   4.565 -1.0576 -0.8753 -0.8632
16202SOL     OW51751   8.088   6.260   2.292  0.1056 -0.3147 -0.1925
16202SOL    HW151752   8.019   6.326   2.295  1.3106  0.9594  0.6502
16202SOL    HW251753   8.045   6.180   2.323 -1.1652  0.2740 -0.3687
16203SOL     OW51754   4.210   7.230   5.741  0.0013  0.7740  0.1207
16203SOL    HW151755   4.240   7.197   5.657 -0.0497  0.9109  0.0493
16203SOL    HW251756   4.118   7.202   5.747  0.2589 -0.0204  0.5285
16204SOL     OW51757   5.226   0.755   3.594  0.3891 -0.3220  0.0658
16204SOL    HW151758   5.268   0.741   3.510 -0.9355 -1.0796 -0.4940
16204SOL    HW251759   5.143   0.799   3.573  0.1158 -0.3722  0.9766
16205SOL     OW51760   3.869   0.852   1.224  0.1510  0.0429 -0.3769
16205SOL    HW151761   3.858   0.902   1.305  1.9034  0.8393 -0.5879
16205SOL    HW251762   3.829   0.767   1.243  2.1850 -0.5111  2.0732
16206SOL     OW51763   3.162   1.579   0.369 -0.6960 -0.1828  0.5898
16206SOL    HW151764   3.102   1.654   0.372 -1.9762 -1.1705  0.6949
16206SOL    HW251765   3.173   1.561   0.276  0.8704  1.0635  0.4921
16207SOL     OW51766   1.757   4.299   2.059  0.1010 -0.3480 -0.0957
16207SOL    HW151767   1.675   4.313   2.012  0.8595 -0.6755 -1.6019
16207SOL    HW251768   1.824   4.305   1.991  1.2020 -1.7182  0.8204
16208SOL     OW51769   1.422   7.716   5.961  0.7194 -0.0837  0.5103
16208SOL    HW151770   1.355   7.781   5.985 -1.2243 -1.6239 -0.4683
16208SOL    HW251771   1.443   7.737   5.870  0.4610 -0.5160  0.3510
16209SOL     OW51772   1.675   6.989   0.553  0.4101  0.2950 -0.3693
16209SOL    HW151773   1.695   7.051   0.483  1.3864  0.5170  0.0919
16209SOL    HW251774   1.619   7.038   0.613 -1.1936 -0.1820 -1.4351
16210SOL     OW51775   2.497   2.738   3.051 -0.2452  0.6769 -0.4028
16210SOL    HW151776   2.564   2.805   3.066 -0.3309  0.3603  1.6117
16210SOL    HW251777   2.544   2.655   3.051 -0.6744  0.3595  2.0471
16211SOL     OW51778   2.271   2.078   1.822 -0.2138  0.5483 -0.3739
16211SOL    HW151779   2.192   2.028   1.842 -1.0658  1.1016 -2.1472
16211SOL    HW251780   2.249   2.169   1.843  0.1923  0.6145 -0.2176
16212SOL     OW51781   1.116   3.526   7.344 -1.0884 -0.2786  0.4942
16212SOL    HW151782   1.192   3.523   7.285 -0.5731 -2.3995  1.1713
16212SOL    HW251783   1.122   3.612   7.386 -0.5960  0.6583 -1.3599
16213SOL     OW51784   8.021   3.472   4.284 -0.5086 -0.3617 -0.1072
16213SOL    HW151785   8.057   3.545   4.233 -0.5805  1.0997  1.8075
16213SOL    HW251786   7.929   3.496   4.297 -0.3341 -0.3832  1.2269
16214SOL     OW51787   0.898   5.241   0.380 -0.4709  0.2069  0.0773
16214SOL    HW151788   0.878   5.148   0.373  1.8531 -0.2633 -1.2815
16214SOL    HW251789   0.963   5.246   0.450  2.3946  0.1483 -2.3845
16215SOL     OW51790   0.716   2.001   7.425 -0.1284  0.1226  0.6642
16215SOL    HW151791   0.709   1.915   7.385  0.1682  0.4954 -0.2031
16215SOL    HW251792   0.643   2.005   7.487  0.6977 -1.3120  1.8120
16216SOL     OW51793   5.774   2.385   6.655  0.1714 -0.7032 -0.3191
16216SOL    HW151794   5.774   2.447   6.583 -2.0472 -1.9673 -1.5051
16216SOL    HW251795   5.785   2.439   6.733 -2.6397  1.3746 -1.2104
16217SOL     OW51796   2.833   4.214   4.312  0.0998  0.0214 -0.3727
16217SOL    HW151797   2.920   4.181   4.333 -0.0865  1.1142  2.5961
16217SOL    HW251798   2.813   4.175   4.227  3.0169 -1.1168 -0.6666
16218SOL     OW51799   2.206   1.432   2.704 -0.1015  0.2442 -0.2221
16218SOL    HW151800   2.207   1.402   2.613  1.4010  1.1776 -0.5486
16218SOL    HW251801   2.285   1.486   2.712 -1.4389  2.1261  0.9750
16219SOL     OW51802   6.791   5.328   4.203 -0.1707  0.2350 -0.0548
16219SOL    HW151803   6.715   5.362   4.155 -0.3506  0.8217  0.6351
16219SOL    HW251804   6.762   5.245   4.239 -0.5310  0.5065  0.2964
16220SOL     OW51805   6.971   2.649   3.764  0.4437  0.3411 -0.4581
16220SOL    HW151806   6.986   2.725   3.707  3.1077  0.5873  0.4330
16220SOL    HW251807   6.892   2.671   3.812  1.4158  2.8555  0.1616
16221SOL     OW51808   0.254   5.625   4.104  0.1803 -0.3959 -0.3996
16221SOL    HW151809   0.242   5.685   4.178  0.8883 -1.2889  0.4512
16221SOL    HW251810   0.166   5.593   4.085 -0.0957  0.3219 -0.3634
16222SOL     OW51811   0.262   2.782   6.909 -0.3944 -0.3519  0.1436
16222SOL    HW151812   0.304   2.842   6.848 -0.3981  1.2121  1.5988
16222SOL    HW251813   0.169   2.783   6.884 -0.3469  0.0560 -0.0239
16223SOL     OW51814   6.662   4.808   4.228  0.1759 -0.4088 -0.0038
16223SOL    HW151815   6.662   4.790   4.135 -0.7167  0.1492 -0.1279
16223SOL    HW251816   6.612   4.737   4.267  0.9181 -0.8777  0.1105
16224SOL     OW51817   4.257   4.490   5.073  0.5107  0.2701 -0.4718
16224SOL    HW151818   4.320   4.476   5.144  1.0109  0.0569 -0.9565
16224SOL    HW251819   4.274   4.419   5.011  1.0664  1.2955 -1.5139
16225SOL     OW51820   7.418   5.773   3.689 -0.2773  0.4717  0.1455
16225SOL    HW151821   7.477   5.744   3.619 -1.6161 -0.4182 -0.6485
16225SOL    HW251822   7.438   5.715   3.762  0.0945  0.4314  0.0134
16226SOL     OW51823   0.379   2.089   4.660  0.0922 -0.5136 -0.1980
16226SOL    HW151824   0.356   2.096   4.753  3.3746 -2.0557  0.8897
16226SOL    HW251825   0.324   2.019   4.627 -0.2309 -0.8259  0.9505
16227SOL     OW51826   1.358   7.912   0.853  0.4756  0.1955  0.0771
16227SOL    HW151827   1.295   7.865   0.907  0.7697 -0.9939 -0.5665
16227SOL    HW251828   1.335   8.004   0.863 -0.8434 -0.1546  0.4890
16228SOL     OW51829   7.773   5.144   1.207 -0.2131  0.1736 -0.2839
16228SOL    HW151830   7.792   5.053   1.230 -1.1495  0.5256  2.1673
16228SOL    HW251831   7.815   5.156   1.122  3.7849 -1.2829  1.2176
16229SOL     OW51832   3.405   7.384   0.989  0.0014 -0.5959 -0.6668
16229SOL    HW151833   3.367   7.332   0.918 -0.8540  0.2721 -0.8685
16229SOL    HW251834   3.384   7.475   0.966  0.8302 -0.2058  0.0500
16230SOL     OW51835   6.105   0.315   2.117 -0.3915  0.3848  0.1885
16230SOL    HW151836   6.127   0.400   2.078 -0.4228 -0.1958 -1.1806
16230SOL    HW251837   6.023   0.290   2.075 -0.0234 -0.6361  0.0326
16231SOL     OW51838   0.143   4.538   5.638  0.0729  0.2566  0.0460
16231SOL    HW151839   0.114   4.447   5.631  1.2674 -0.1207 -0.3019
16231SOL    HW251840   0.236   4.531   5.660  0.9823  1.3047 -2.8971
16232SOL     OW51841   3.676   4.651   2.558  0.0415 -0.5727  0.1172
16232SOL    HW151842   3.620   4.728   2.571 -2.4986 -2.3522  0.5932
16232SOL    HW251843   3.703   4.657   2.466  0.1156  0.9794  0.2049
16233SOL     OW51844   4.403   6.706   7.270  0.2691  0.5394  1.0540
16233SOL    HW151845   4.457   6.783   7.287 -1.2914  1.8271  0.4490
16233SOL    HW251846   4.325   6.720   7.322 -0.2859 -0.3551  0.4849
16234SOL     OW51847   3.960   1.640   0.813  0.3683  0.4098 -0.2785
16234SOL    HW151848   4.043   1.592   0.818  0.8960  1.0634 -2.1486
16234SOL    HW251849   3.894   1.572   0.802  1.0600 -0.0061 -2.3923
16235SOL     OW51850   1.133   6.239   7.766 -0.3206  0.4300 -0.4727
16235SOL    HW151851   1.203   6.216   7.826 -0.6159  0.5300 -0.0854
16235SOL    HW251852   1.159   6.322   7.727  0.4231 -0.2013 -1.3566
16236SOL     OW51853   2.693   1.119   6.626 -0.2184 -0.0925  0.1343
16236SOL    HW151854   2.705   1.198   6.574  0.7462  0.7238  1.5481
16236SOL    HW251855   2.650   1.148   6.706  0.6043 -0.9007  0.8994
16237SOL     OW51856   0.950   7.355   2.754 -0.1041  0.1537  0.8400
16237SOL    HW151857   0.886   7.295   2.794 -0.6571 -0.5924 -1.0557
16237SOL    HW251858   0.922   7.362   2.663  2.6359 -0.3814 -0.1286
16238SOL     OW51859   5.816   3.238   3.880 -0.2682  0.0275 -0.0832
16238SOL    HW151860   5.772   3.238   3.965  3.1840 -0.2139  1.8980
16238SOL    HW251861   5.874   3.162   3.883  0.9433  0.7919 -2.1076
16239SOL     OW51862   2.260   4.619   2.937  0.2281  0.7986 -0.1415
16239SOL    HW151863   2.317   4.546   2.962  0.1573  0.4332 -1.0070
16239SOL    HW251864   2.294   4.648   2.853  0.2072  1.7293  0.1585
16240SOL     OW51865   1.811   6.646   7.286  0.0715  0.0382 -0.3127
16240SOL    HW151866   1.758   6.718   7.320  1.1524  1.3834 -1.3295
16240SOL    HW251867   1.755   6.606   7.219 -0.2122  0.5095 -0.3670
16241SOL     OW51868   4.420   1.098   2.699 -0.7420  0.2163 -0.2061
16241SOL    HW151869   4.350   1.045   2.738 -0.3445 -1.0288 -1.1254
16241SOL    HW251870   4.493   1.091   2.761 -0.6628 -0.3931 -0.3637
16242SOL     OW51871   1.827   6.480   4.297  0.3120 -0.6390 -0.7870
16242SOL    HW151872   1.808   6.492   4.390  1.1053 -1.7742 -0.4616
16242SOL    HW251873   1.805   6.565   4.257  1.5978  0.4575  0.7111
16243SOL     OW51874   0.819   6.963   7.187  0.0709  0.8300  0.4326
16243SOL    HW151875   0.726   6.966   7.165  0.0584  1.0149  0.5099
16243SOL    HW251876   0.824   7.002   7.275  0.3860  2.0583 -0.1093
16244SOL     OW51877   0.701   3.949   1.595 -0.4119  0.1656 -0.3389
16244SOL    HW151878   0.718   4.002   1.673 -0.8449  1.1996 -0.9266
16244SOL    HW251879   0.751   3.869   1.610  2.1372  1.6255 -0.4400
16245SOL     OW51880   5.300   3.413   3.047  0.4154 -0.5822  0.2667
16245SOL    HW151881   5.232   3.345   3.051  0.9167 -1.3208 -2.0468
16245SOL    HW251882   5.363   3.379   2.984  0.6845  2.0482 -1.0134
16246SOL     OW51883   7.451   5.741   1.711 -0.3945 -0.3742  0.0317
16246SOL    HW151884   7.460   5.761   1.618 -0.9586 -0.0169  0.0528
16246SOL    HW251885   7.485   5.652   1.720 -0.9081 -0.6439 -0.6273
16247SOL     OW51886   2.759   2.074   6.919 -0.1585  0.0875 -0.1103
16247SOL    HW151887   2.730   2.064   6.829  1.8243 -0.5098 -0.7362
16247SOL    HW251888   2.703   2.014   6.969  0.2725 -1.4070 -1.3216
16248SOL     OW51889   2.703   2.827   5.855  0.1568 -0.3253  0.0688
16248SOL    HW151890   2.783   2.824   5.802  1.0028  0.5948  1.2176
16248SOL    HW251891   2.689   2.737   5.882  1.1421 -0.4256  0.3022
16249SOL     OW51892   3.589   4.096   0.209 -0.0225 -0.4975 -0.5554
16249SOL    HW151893   3.608   4.011   0.170 -1.3540 -0.7901 -0.6061
16249SOL    HW251894   3.544   4.145   0.139  0.5684  0.1881 -0.4709
16250SOL     OW51895   2.137   7.612   4.635  0.1152 -0.2855  0.2596
16250SOL    HW151896   2.113   7.702   4.661  0.4311 -0.2201  0.3198
16250SOL    HW251897   2.184   7.622   4.552  2.3954 -0.1519  1.4964
16251SOL     OW51898   0.592   4.185   2.000 -0.8130  0.6147  0.2051
16251SOL    HW151899   0.652   4.251   2.035 -0.0784 -0.4768  1.0867
16251SOL    HW251900   0.535   4.233   1.940  0.2094  1.8891  0.2191
16252SOL     OW51901   5.854   8.004   1.664 -0.2183 -0.6940  0.0776
16252SOL    HW151902   5.916   8.021   1.593 -1.1420  0.8951 -0.3913
16252SOL    HW251903   5.908   7.970   1.735  0.7390 -2.3071 -1.3444
16253SOL     OW51904   3.318   4.234   3.454 -0.2745 -0.0766  0.2688
16253SOL    HW151905   3.370   4.275   3.523 -0.7135  0.1999  0.4421
16253SOL    HW251906   3.276   4.308   3.410 -1.2403 -0.3510  0.7126
16254SOL     OW51907   6.846   2.589   6.654 -0.0514 -0.2691  0.1772
16254SOL    HW151908   6.769   2.646   6.661  0.3183  0.2449  0.1562
16254SOL    HW251909   6.908   2.625   6.718  0.3114 -0.4478 -0.0699
16255SOL     OW51910   1.199   5.300   2.422  0.1383  0.8572 -0.1552
16255SOL    HW151911   1.248   5.229   2.379  0.9681  0.1550  1.8384
16255SOL    HW251912   1.248   5.379   2.402 -0.7620  0.9288 -2.3577
16256SOL     OW51913   4.392   1.195   5.482  0.1629  0.5349 -0.2895
16256SOL    HW151914   4.438   1.124   5.527  0.2573  0.1219 -1.0154
16256SOL    HW251915   4.364   1.254   5.552  0.4908  0.0215  0.2854
16257SOL     OW51916   2.299   5.845   3.868 -0.1934 -0.0534 -0.2348
16257SOL    HW151917   2.363   5.832   3.938 -0.7908  2.0017  0.7860
16257SOL    HW251918   2.246   5.766   3.868 -0.2203 -0.0762  1.7236
16258SOL     OW51919   7.583   4.290   4.342 -0.5349  0.9065 -0.1812
16258SOL    HW151920   7.620   4.240   4.414 -1.2158 -0.7963 -0.9618
16258SOL    HW251921   7.644   4.363   4.330  1.7782 -0.9201 -0.4105
16259SOL     OW51922   1.538   2.636   4.793 -0.0357 -0.4825 -0.7220
16259SOL    HW151923   1.597   2.701   4.833 -1.0386 -0.0767  0.1575
16259SOL    HW251924   1.596   2.571   4.755  0.9912  0.4197 -0.7483
16260SOL     OW51925   1.991   3.051   2.634  0.4241 -0.1272  0.0604
16260SOL    HW151926   1.991   3.137   2.592  2.1203  0.0097  0.2669
16260SOL    HW251927   1.980   3.070   2.727 -0.3048 -0.2285  0.0035
16261SOL     OW51928   2.099   2.702   3.867  0.0467 -0.0755 -0.0073
16261SOL    HW151929   2.187   2.710   3.831  0.0545  0.3846  0.1127
16261SOL    HW251930   2.074   2.791   3.892  0.5582 -0.5233  2.3729
16262SOL     OW51931   6.023   2.362   1.345 -0.3594 -0.2243 -0.4352
16262SOL    HW151932   5.941   2.351   1.297 -0.1251 -0.0146 -0.8920
16262SOL    HW251933   6.008   2.319   1.429 -1.6893  1.6954  0.3509
16263SOL     OW51934   3.921   2.855   3.212 -0.1056  0.2977  0.5050
16263SOL    HW151935   3.861   2.784   3.188 -0.6317  0.9466 -0.1612
16263SOL    HW251936   3.873   2.906   3.277  0.0629  0.3452  0.5935
16264SOL     OW51937   3.684   4.091   3.572  0.7682 -0.2712 -0.0629
16264SOL    HW151938   3.673   4.069   3.665 -2.6380  0.4177 -0.1679
16264SOL    HW251939   3.665   4.185   3.567  1.3351 -0.2048 -1.4284
16265SOL     OW51940   2.409   3.398   3.187 -0.0885  0.2708  0.7126
16265SOL    HW151941   2.353   3.383   3.263 -1.2526 -0.7813 -0.3097
16265SOL    HW251942   2.488   3.347   3.205 -0.2813  0.1715  1.2941
16266SOL     OW51943   5.671   5.153   7.797  0.6605  0.0772  0.3158
16266SOL    HW151944   5.632   5.073   7.760  1.0509 -0.2186  0.5371
16266SOL    HW251945   5.650   5.149   7.890  0.7933  0.1692  0.3504
16267SOL     OW51946   1.004   7.674   5.512  0.3190 -0.6063 -0.0513
16267SOL    HW151947   1.020   7.689   5.419  1.5113  0.9814  0.3758
16267SOL    HW251948   0.954   7.592   5.514 -1.4476  0.3047 -2.1941
16268SOL     OW51949   0.254   6.532   0.786 -0.0439 -0.4824  0.3332
16268SOL    HW151950   0.209   6.587   0.851 -0.3620  0.4208 -0.6309
16268SOL    HW251951   0.185   6.503   0.727  0.5119  0.3316 -0.7423
16269SOL     OW51952   3.949   6.276   6.881  0.6078 -0.3603  0.0925
16269SOL    HW151953   3.914   6.272   6.970  0.9809  0.7085  0.2978
16269SOL    HW251954   4.019   6.211   6.879  0.0465 -0.9835  0.3195
16270SOL     OW51955   4.625   3.154   1.681  0.4976  0.8265 -0.4376
16270SOL    HW151956   4.603   3.068   1.645  0.2148  0.4046  0.7201
16270SOL    HW251957   4.678   3.195   1.612 -0.9853  0.5142 -1.8360
16271SOL     OW51958   1.255   1.235   3.627 -0.1593  0.0774 -0.2434
16271SOL    HW151959   1.266   1.243   3.722  1.4004 -1.3037 -0.2695
16271SOL    HW251960   1.338   1.201   3.595 -0.5552  0.7575 -2.1743
16272SOL     OW51961   4.481   1.082   7.915 -0.1782 -0.6638 -0.0258
16272SOL    HW151962   4.556   1.027   7.938  0.2118  0.0160  0.3560
16272SOL    HW251963   4.506   1.123   7.832 -0.5030 -1.1152 -0.3526
16273SOL     OW51964   7.117   5.316   4.736 -0.5361  0.3307  0.3568
16273SOL    HW151965   7.149   5.383   4.797 -0.2889  0.1372  0.4383
16273SOL    HW251966   7.029   5.346   4.712 -0.0729  1.1944 -0.3455
16274SOL     OW51967   1.688   4.964   2.508  0.0773  0.1387 -0.2953
16274SOL    HW151968   1.648   4.885   2.546  1.6203 -0.1743  0.7407
16274SOL    HW251969   1.782   4.948   2.511  0.3671  1.4551 -1.3681
16275SOL     OW51970   1.102   1.676   1.336  0.0404  0.1101  0.1316
16275SOL    HW151971   1.015   1.716   1.348  0.4786  1.4360 -0.8827
16275SOL    HW251972   1.092   1.587   1.369 -2.2113 -0.3425 -1.5131
16276SOL     OW51973   0.341   1.468   4.684 -0.1408  0.3847  0.3639
16276SOL    HW151974   0.337   1.548   4.632 -0.0762  0.5932  0.6817
16276SOL    HW251975   0.366   1.496   4.771 -1.0594  0.1260  0.7194
16277SOL     OW51976   3.630   1.806   3.468 -0.7267 -0.2945  0.2218
16277SOL    HW151977   3.689   1.877   3.445 -1.7079  1.0577  1.6578
16277SOL    HW251978   3.542   1.842   3.455 -1.2550 -0.9561  1.7148
16278SOL     OW51979   2.108   5.706   6.881  0.1259  0.1796  0.2343
16278SOL    HW151980   2.142   5.635   6.827 -1.5637  0.5891 -1.4590
16278SOL    HW251981   2.040   5.747   6.828  1.1514  3.2073  1.0677
16279SOL     OW51982   2.788   4.267   3.410 -0.2994  0.3329  0.1952
16279SOL    HW151983   2.804   4.263   3.504 -1.0010  0.4451  0.3265
16279SOL    HW251984   2.694   4.249   3.401  0.1858 -2.1628 -0.6842
16280SOL     OW51985   7.926   5.938   5.357 -0.3554 -0.5999  0.0230
16280SOL    HW151986   7.955   5.881   5.428 -0.3984  2.0985  2.3920
16280SOL    HW251987   7.875   6.006   5.401 -0.1382  1.3778 -2.5847
16281SOL     OW51988   0.477   2.813   6.578  0.0070  0.3906 -0.3746
16281SOL    HW151989   0.448   2.799   6.668  1.0225  2.8785  0.4046
16281SOL    HW251990   0.445   2.900   6.555 -0.7810 -0.4137 -2.6989
16282SOL     OW51991   2.218   0.113   0.268 -0.2093  0.4197  0.2559
16282SOL    HW151992   2.220   0.097   0.174  2.1084 -1.5809  0.5609
16282SOL    HW251993   2.301   0.156   0.288 -0.3236  0.1024  1.5107
16283SOL     OW51994   7.847   4.541   0.890  0.1022  0.2057 -0.4583
16283SOL    HW151995   7.784   4.612   0.875 -0.2815  0.4011  1.7683
16283SOL    HW251996   7.931   4.586   0.901 -0.0374  0.2889  0.3376
16284SOL     OW51997   6.679   1.207   2.976  0.5903  0.3569  0.0007
16284SOL    HW151998   6.694   1.302   2.972 -0.2199  0.6582  2.3845
16284SOL    HW251999   6.729   1.178   3.052  1.1032 -1.2159 -0.8958
16285SOL     OW52000   3.982   6.500   0.523 -0.4711  0.0680  0.3082
16285SOL    HW152001   4.073   6.491   0.551 -0.8059  0.5685  1.6520
16285SOL    HW252002   3.977   6.586   0.482 -0.4640  0.3422  0.8620
16286SOL     OW52003   2.372   0.549   4.548  0.2732  0.3324  0.2656
16286SOL    HW152004   2.326   0.516   4.625  0.5263  0.5507  0.5115
16286SOL    HW252005   2.402   0.636   4.574  1.3189 -0.0303  0.3107
16287SOL     OW52006   7.802   4.785   3.270 -0.2563  0.0758 -0.1302
16287SOL    HW152007   7.793   4.877   3.248 -0.4818 -0.3549 -2.0580
16287SOL    HW252008   7.733   4.768   3.335 -1.1226  0.9551 -0.8032
16288SOL     OW52009   4.736   4.826   8.084 -0.6532  0.3195 -0.5264
16288SOL    HW152010   4.760   4.916   8.106  1.1574 -0.0581 -0.7358
16288SOL    HW252011   4.644   4.830   8.059 -1.2225  1.7380  1.5181
16289SOL     OW52012   1.447   7.482   4.878  0.0074 -0.6333 -0.1317
16289SOL    HW152013   1.430   7.394   4.843  1.1377 -0.4106 -1.3107
16289SOL    HW252014   1.438   7.539   4.802 -1.7613  0.4444  0.8203
16290SOL     OW52015   6.726   2.204   1.021  0.1862 -0.3334 -0.4361
16290SOL    HW152016   6.718   2.263   1.096  2.3447 -1.1363  0.4954
16290SOL    HW252017   6.800   2.239   0.971  1.3797 -2.1092  0.0294
16291SOL     OW52018   1.029   6.656   7.427 -0.4567 -0.2760 -0.4729
16291SOL    HW152019   1.042   6.744   7.462 -1.0941 -0.2989 -0.1750
16291SOL    HW252020   0.937   6.654   7.402 -0.7732 -1.2816  0.7111
16292SOL     OW52021   3.473   1.384   1.882 -0.0388 -0.3820  0.1581
16292SOL    HW152022   3.407   1.316   1.873 -0.1023 -0.3293  0.2299
16292SOL    HW252023   3.433   1.462   1.844  0.0231 -0.3779  0.1014
16293SOL     OW52024   0.170   1.232   7.319 -0.1082 -0.5029 -0.3563
16293SOL    HW152025   0.140   1.309   7.271 -2.0814 -1.2875 -0.4664
16293SOL    HW252026   0.100   1.214   7.382  0.2793 -2.2475 -0.3709
16294SOL     OW52027   7.389   3.734   7.867  0.0979 -0.1086  0.4908
16294SOL    HW152028   7.391   3.678   7.944 -0.1783 -1.5304 -0.5036
16294SOL    HW252029   7.430   3.816   7.896 -0.7319 -0.2995  2.3494
16295SOL     OW52030   3.152   6.448   7.072  0.2090 -0.3598  0.7482
16295SOL    HW152031   3.107   6.530   7.053  0.3148 -0.4656 -0.0030
16295SOL    HW252032   3.097   6.404   7.137 -1.3336 -0.9385 -0.8742
16296SOL     OW52033   7.129   5.512   0.875 -0.0659 -0.0007 -0.2589
16296SOL    HW152034   7.161   5.475   0.793 -0.9871 -2.3726  0.3425
16296SOL    HW252035   7.200   5.498   0.937  0.0153  0.3063 -0.2804
16297SOL     OW52036   0.481   2.496   3.528 -0.5518 -0.0410  0.1807
16297SOL    HW152037   0.498   2.427   3.463 -1.3438 -1.5213  1.4930
16297SOL    HW252038   0.567   2.516   3.565 -0.1759  0.4023 -0.8758
16298SOL     OW52039   0.750   0.093   3.203  0.0362  0.1416 -0.4397
16298SOL    HW152040   0.778   0.170   3.253 -0.0614 -0.6995  0.9582
16298SOL    HW252041   0.658   0.080   3.229  0.8329 -2.0930  1.5675
16299SOL     OW52042   4.406   4.255   6.877 -0.2904  0.0928  0.2033
16299SOL    HW152043   4.329   4.217   6.835 -0.8181  0.8459  0.4500
16299SOL    HW252044   4.374   4.338   6.913  0.7526  0.6290 -0.0827
16300SOL     OW52045   4.065   2.987   3.670  0.2566 -0.0112 -0.1860
16300SOL    HW152046   4.062   3.074   3.630 -1.9266  0.6161  1.1659
16300SOL    HW252047   4.156   2.959   3.661  0.5540  1.4536 -2.6169
16301SOL     OW52048   6.091   4.121   1.222  0.6784  0.0098  0.1224
16301SOL    HW152049   6.032   4.050   1.198  0.9669  0.2377 -1.3496
16301SOL    HW252050   6.140   4.139   1.142  1.0571  1.4317  0.6530
16302SOL     OW52051   6.356   0.653   0.573  0.4750  0.5810  0.0067
16302SOL    HW152052   6.354   0.607   0.657  0.6997  0.5871  0.0160
16302SOL    HW252053   6.436   0.623   0.531 -0.1475 -0.1809 -0.6463
16303SOL     OW52054   6.635   6.453   2.509  0.4028 -0.0870 -0.3238
16303SOL    HW152055   6.626   6.547   2.525 -0.5872 -0.0736 -0.8918
16303SOL    HW252056   6.725   6.443   2.476 -0.3517  1.1069 -3.0607
16304SOL     OW52057   1.358   4.963   1.553 -0.0893  0.3843 -0.3542
16304SOL    HW152058   1.406   4.982   1.472  0.3009  0.1416 -0.1836
16304SOL    HW252059   1.425   4.962   1.621 -0.4868  1.1110  0.0630
16305SOL     OW52060   3.144   1.635   7.356  0.0751 -0.5419 -0.3007
16305SOL    HW152061   3.237   1.656   7.367  0.2161 -0.9278 -0.7515
16305SOL    HW252062   3.130   1.634   7.261 -0.8943  1.7007 -0.2662
16306SOL     OW52063   3.539   6.838   3.687 -0.5273 -0.5251 -0.5316
16306SOL    HW152064   3.616   6.818   3.740 -0.7403 -1.0808 -0.4241
16306SOL    HW252065   3.574   6.885   3.611 -0.2199  0.2694  0.0865
16307SOL     OW52066   1.354   0.216   6.487 -0.9201  0.2228  0.0503
16307SOL    HW152067   1.378   0.296   6.440  0.1043 -0.5938 -0.8685
16307SOL    HW252068   1.435   0.167   6.494 -1.3852 -0.3992  1.2971
16308SOL     OW52069   3.680   0.885   0.421  0.0328 -0.2053 -0.3505
16308SOL    HW152070   3.697   0.922   0.508 -0.0112  1.0870 -0.8712
16308SOL    HW252071   3.694   0.791   0.432  1.7550  0.1267  0.6417
16309SOL     OW52072   0.481   2.790   7.824  0.0855  0.2633  0.7813
16309SOL    HW152073   0.432   2.840   7.889 -1.2525 -1.1246  0.8865
16309SOL    HW252074   0.459   2.699   7.842  3.0625 -0.4923  1.0845
16310SOL     OW52075   0.788   8.048   1.436  0.1528  0.3273 -0.4094
16310SOL    HW152076   0.771   8.021   1.526 -1.1363  1.2982 -0.3437
16310SOL    HW252077   0.717   8.010   1.385  1.1200 -0.6030 -1.1279
16311SOL     OW52078   5.805   1.367   3.094  0.1190 -0.5066 -0.0958
16311SOL    HW152079   5.892   1.335   3.117  0.4494  0.5423  0.1258
16311SOL    HW252080   5.746   1.296   3.122  0.8608 -1.0791  0.0521
16312SOL     OW52081   0.369   5.904   2.712  0.0047 -0.1114  0.0702
16312SOL    HW152082   0.375   5.844   2.787  1.2958 -0.4238 -0.2618
16312SOL    HW252083   0.349   5.847   2.638  0.3717 -0.0263 -0.0970
16313SOL     OW52084   5.646   5.073   5.794 -0.2240 -0.0127 -0.0371
16313SOL    HW152085   5.575   5.035   5.846 -0.3104 -1.4433 -1.1382
16313SOL    HW252086   5.671   5.003   5.733  3.6340 -0.3912  1.6967
16314SOL     OW52087   2.519   8.060   4.279  0.2913  0.0294 -0.5006
16314SOL    HW152088   2.450   8.125   4.295  0.3434 -0.2159  0.8535
16314SOL    HW252089   2.597   8.112   4.259  0.1141  0.3566 -0.3454
16315SOL     OW52090   1.641   5.969   7.777 -0.4136  0.1405 -0.0219
16315SOL    HW152091   1.685   6.006   7.701 -1.5653  0.2632 -0.6649
16315SOL    HW252092   1.548   5.967   7.752 -1.0072  1.3986  1.8677
16316SOL     OW52093   0.548   1.993   3.519 -0.3517 -0.0553  0.7433
16316SOL    HW152094   0.607   1.946   3.461 -0.3269  0.2728  0.4981
16316SOL    HW252095   0.597   2.004   3.600 -0.1851 -0.0496  0.6428
16317SOL     OW52096   3.486   0.325   7.448  0.3105  0.4362  0.0336
16317SOL    HW152097   3.495   0.274   7.368 -1.4130 -0.0822  0.1251
16317SOL    HW252098   3.460   0.413   7.419 -1.2909 -0.0043 -0.0027
16318SOL     OW52099   3.622   4.664   0.250 -0.2520 -0.0630 -0.5239
16318SOL    HW152100   3.675   4.742   0.235 -0.7836  0.2461 -0.8059
16318SOL    HW252101   3.678   4.591   0.223  1.1180  0.0107  1.8451
16319SOL     OW52102   3.017   7.469   2.835  0.3547  0.5764  0.2017
16319SOL    HW152103   3.073   7.416   2.778 -3.3777 -3.0952 -0.5398
16319SOL    HW252104   3.029   7.559   2.804  2.0273 -0.6609 -3.2482
16320SOL     OW52105   6.496   0.039   1.920 -0.2957  0.6490 -0.4239
16320SOL    HW152106   6.489   0.058   1.827 -0.0435 -1.6128 -0.9691
16320SOL    HW252107   6.573  -0.018   1.928  0.3367  1.6444  1.3417
16321SOL     OW52108   7.297   4.761   7.925 -1.0434  0.0174  0.2851
16321SOL    HW152109   7.220   4.703   7.921 -2.2304  1.4632  1.1189
16321SOL    HW252110   7.285   4.822   7.852 -0.2246 -0.2731 -0.0990
16322SOL     OW52111   5.623   0.577   2.169 -0.0399 -0.4407 -0.1670
16322SOL    HW152112   5.667   0.614   2.093 -0.2563 -2.5326 -1.3825
16322SOL    HW252113   5.691   0.528   2.215 -0.3162 -0.7505 -0.0821
16323SOL     OW52114   1.805   2.000   1.974  0.4499 -0.2332  0.0794
16323SOL    HW152115   1.756   2.004   2.056 -0.6847 -1.9596 -0.4611
16323SOL    HW252116   1.860   2.079   1.975  0.3920 -0.1436  2.4275
16324SOL     OW52117   6.161   6.750   0.817 -0.3681 -0.1660  0.1004
16324SOL    HW152118   6.136   6.659   0.799 -1.5470  0.4723 -1.8272
16324SOL    HW252119   6.130   6.798   0.741 -0.9423  2.0720  1.6745
16325SOL     OW52120   6.361   7.298   4.692  0.1472 -0.0018  0.5323
16325SOL    HW152121   6.296   7.368   4.689  0.7517  0.5526 -1.9252
16325SOL    HW252122   6.354   7.263   4.781 -2.6508  0.8130  0.7433
16326SOL     OW52123   5.399   6.553   4.187 -0.1356 -0.4685 -0.1814
16326SOL    HW152124   5.475   6.518   4.140  0.7241 -0.0148  0.8254
16326SOL    HW252125   5.435   6.623   4.242 -1.4639  0.4807 -0.4779
16327SOL     OW52126   7.791   3.027   5.719 -0.2943 -0.0799  0.1417
16327SOL    HW152127   7.734   2.957   5.688 -0.7766  0.5822 -0.4629
16327SOL    HW252128   7.804   3.007   5.812  0.6526 -1.7131 -0.2904
16328SOL     OW52129   7.411   5.885   1.429 -0.0538 -0.2706  0.1713
16328SOL    HW152130   7.450   5.963   1.390 -1.2122 -0.1386 -0.7702
16328SOL    HW252131   7.446   5.812   1.378 -0.8111 -0.1686 -0.5215
16329SOL     OW52132   5.580   2.539   2.088  0.5591  0.4024  0.0480
16329SOL    HW152133   5.669   2.517   2.059  0.5188  0.3582 -0.0434
16329SOL    HW252134   5.588   2.627   2.126  0.5107  0.6899 -0.5911
16330SOL     OW52135   7.613   4.350   3.282  0.1842  0.1402 -0.5688
16330SOL    HW152136   7.652   4.426   3.326  0.2017  0.2839 -0.8266
16330SOL    HW252137   7.524   4.378   3.260 -0.6518 -0.7649  1.4901
16331SOL     OW52138   6.691   1.586   2.610  0.1902 -0.2630  0.3859
16331SOL    HW152139   6.666   1.579   2.518 -1.5974  1.7307  0.6324
16331SOL    HW252140   6.636   1.521   2.655  0.1344 -0.3466  0.1978
16332SOL     OW52141   5.058   5.489   5.218 -0.7263 -0.5851  0.1866
16332SOL    HW152142   5.136   5.434   5.208 -0.6123 -0.2819 -0.6294
16332SOL    HW252143   5.070   5.531   5.304  1.1622  1.2111 -0.8438
16333SOL     OW52144   2.679   2.935   2.799 -0.0792  0.4752  0.4686
16333SOL    HW152145   2.700   3.018   2.756  2.2695 -0.8397 -1.1991
16333SOL    HW252146   2.585   2.922   2.785 -0.0001  1.6931 -1.4065
16334SOL     OW52147   1.099   4.478   2.365 -0.4017 -0.2319 -0.0661
16334SOL    HW152148   1.043   4.511   2.435 -0.5387  0.8668 -0.6686
16334SOL    HW252149   1.185   4.517   2.383 -0.8585  1.6207 -1.4961
16335SOL     OW52150   1.217   4.374   3.072 -0.0234 -0.0970 -0.3201
16335SOL    HW152151   1.144   4.416   3.117 -0.4937  0.5598 -1.6440
16335SOL    HW252152   1.265   4.328   3.141 -1.4973 -0.2722  0.6170
16336SOL     OW52153   7.220   4.430   6.098 -0.0404 -0.4928  0.2656
16336SOL    HW152154   7.214   4.462   6.009 -1.1487 -0.7269  0.2468
16336SOL    HW252155   7.304   4.464   6.130 -0.5456  1.2858 -0.1905
16337SOL     OW52156   2.030   6.690   3.479  0.6448  0.1035 -0.0279
16337SOL    HW152157   2.099   6.640   3.522  1.8861  0.8252 -1.0942
16337SOL    HW252158   1.971   6.716   3.550  0.8968 -1.3735  0.7737
16338SOL     OW52159   6.484   6.051   0.061 -0.0188  0.2353  0.5765
16338SOL    HW152160   6.519   6.137   0.037  1.1302 -0.7099 -1.4298
16338SOL    HW252161   6.452   6.015  -0.022  0.2353 -1.5745  1.2280
16339SOL     OW52162   3.510   3.285   7.238 -0.3627 -0.0193  0.6613
16339SOL    HW152163   3.478   3.371   7.266 -0.4612 -0.1569  0.9733
16339SOL    HW252164   3.606   3.292   7.245 -0.2509  0.6919 -1.1360
16340SOL     OW52165   5.331   3.557   2.731 -0.3106  0.2592  0.5929
16340SOL    HW152166   5.277   3.559   2.810 -3.4950 -1.4639 -1.3410
16340SOL    HW252167   5.326   3.467   2.700 -1.3554  1.3406 -2.8689
16341SOL     OW52168   1.391   3.538   3.465  0.7902 -0.4906  0.1356
16341SOL    HW152169   1.345   3.519   3.383 -2.8880  2.9708  1.0988
16341SOL    HW252170   1.333   3.507   3.534  1.5859  0.7768  1.4428
16342SOL     OW52171   2.069   6.570   6.758 -0.1505  0.0090  0.2570
16342SOL    HW152172   1.992   6.616   6.792 -0.4192 -0.9431  0.9967
16342SOL    HW252173   2.142   6.606   6.808 -0.1918  0.5062 -0.0372
16343SOL     OW52174   6.541   0.069   6.755  0.0452  0.2716  0.0630
16343SOL    HW152175   6.555   0.078   6.660  0.7555  1.0345  0.2261
16343SOL    HW252176   6.447   0.056   6.764  0.0109 -0.1443 -0.7733
16344SOL     OW52177   5.935   2.695   3.486 -0.4490  0.2195 -0.3411
16344SOL    HW152178   5.964   2.605   3.477  1.1946  0.3536  2.4267
16344SOL    HW252179   5.930   2.728   3.396  0.0098 -2.2454 -1.3509
16345SOL     OW52180   3.801   5.835   2.532  0.0256 -0.2538 -0.8058
16345SOL    HW152181   3.789   5.849   2.438 -0.3998 -1.9241 -1.0292
16345SOL    HW252182   3.714   5.849   2.570 -0.1065 -0.8776 -0.8590
16346SOL     OW52183   2.712   5.136   4.229 -0.1443  0.4131  0.3173
16346SOL    HW152184   2.629   5.093   4.207 -0.4367  0.8433  0.5524
16346SOL    HW252185   2.722   5.121   4.323  1.0847 -1.3973 -0.0468
16347SOL     OW52186   2.443   0.317   3.094  0.2833  0.1502 -0.5748
16347SOL    HW152187   2.381   0.379   3.055 -0.3129 -0.8576 -1.2619
16347SOL    HW252188   2.447   0.244   3.032  0.9339 -0.5305  0.2446
16348SOL     OW52189   6.509   1.233   7.402  0.2397  0.0901  0.1262
16348SOL    HW152190   6.515   1.296   7.473  1.0705 -0.4477  0.5573
16348SOL    HW252191   6.444   1.169   7.431  1.3629 -0.7344  0.9247
16349SOL     OW52192   2.200   4.388   4.903  0.0216  0.2678  0.7660
16349SOL    HW152193   2.171   4.438   4.826 -0.5596 -0.8612  0.2338
16349SOL    HW252194   2.143   4.418   4.974 -0.7206 -0.0651  0.3154
16350SOL     OW52195   1.524   6.034   6.197 -0.1739 -0.6888  0.2320
16350SOL    HW152196   1.501   6.080   6.278  1.1974 -1.1098  0.8908
16350SOL    HW252197   1.619   6.024   6.201 -0.0843 -0.8016 -1.3994
16351SOL     OW52198   0.060   3.687   2.022 -0.1660  0.2061 -0.5058
16351SOL    HW152199  -0.023   3.705   1.979  0.8783  1.1251 -2.2788
16351SOL    HW252200   0.118   3.757   1.992  1.4332 -0.8026  0.0999
16352SOL     OW52201   7.230   7.568   6.527  0.8828 -0.4982 -0.2949
16352SOL    HW152202   7.172   7.493   6.543 -0.2794  0.2003 -1.0599
16352SOL    HW252203   7.188   7.641   6.572  1.2953 -0.0326 -0.6489
16353SOL     OW52204   6.374   3.857   4.155  0.2788  0.0515  0.2483
16353SOL    HW152205   6.337   3.851   4.243  0.1958  0.7078  0.2641
16353SOL    HW252206   6.456   3.906   4.167 -0.7063  1.8967 -0.3070
16354SOL     OW52207   2.486   2.351   1.744  0.1996  0.3418  0.0860
16354SOL    HW152208   2.494   2.297   1.666 -1.7623 -0.8018  0.6243
16354SOL    HW252209   2.441   2.430   1.713  0.0651  0.2010 -0.0852
16355SOL     OW52210   3.566   7.552   6.973 -0.2082  0.3726 -0.1631
16355SOL    HW152211   3.499   7.523   7.035 -0.0367  0.4916  0.0823
16355SOL    HW252212   3.560   7.648   6.975 -0.7332  0.3573 -0.9252
16356SOL     OW52213   2.012   7.055   0.026  0.5517  0.4129 -0.4762
16356SOL    HW152214   1.935   6.998   0.028  0.1323  0.9790  0.0279
16356SOL    HW252215   2.025   7.082   0.117  1.7199 -0.1486 -0.4593
16357SOL     OW52216   0.466   4.196   4.756  0.3179 -0.1057 -0.1014
16357SOL    HW152217   0.428   4.277   4.789  1.2632  1.2114 -2.0824
16357SOL    HW252218   0.450   4.198   4.662 -2.0003 -3.5625  0.0645
16358SOL     OW52219   2.856   2.838   6.706  0.5876 -0.2702  0.3191
16358SOL    HW152220   2.778   2.845   6.761 -0.3424 -1.5580 -0.7834
16358SOL    HW252221   2.901   2.759   6.737  1.4307  0.4133  0.8869
16359SOL     OW52222   0.610   0.719   6.885  0.2245 -0.0948  0.4949
16359SOL    HW152223   0.567   0.635   6.899  1.3575 -0.5350  1.4684
16359SOL    HW252224   0.681   0.721   6.949  1.4110  0.7815 -0.7834
16360SOL     OW52225   5.751   5.802   6.769  0.6307 -0.5454  0.3490
16360SOL    HW152226   5.758   5.829   6.677 -0.0309 -1.0398  0.1471
16360SOL    HW252227   5.675   5.745   6.772 -0.4195  0.8420  1.5315
16361SOL     OW52228   6.566   2.562   0.417  0.0204  0.2355  0.4896
16361SOL    HW152229   6.499   2.605   0.364  1.3797  1.2440 -0.4722
16361SOL    HW252230   6.649   2.589   0.378  0.9992 -1.6827  1.0936
16362SOL     OW52231   3.940   6.108   5.012 -0.3915 -0.4055  0.0953
16362SOL    HW152232   3.857   6.107   4.964 -1.5135  1.1952  1.8803
16362SOL    HW252233   3.956   6.017   5.035 -1.8164 -0.7042 -0.0166
16363SOL     OW52234   5.839   2.473   2.011 -0.0547  0.0727  0.9702
16363SOL    HW152235   5.926   2.433   2.010  0.9659  2.0755  2.0981
16363SOL    HW252236   5.824   2.498   1.919  1.0962  0.6791  0.9170
16364SOL     OW52237   2.754   0.117   5.559 -0.4691  0.2764  0.0053
16364SOL    HW152238   2.742   0.117   5.464 -0.0378 -0.5977 -0.0644
16364SOL    HW252239   2.669   0.140   5.594 -0.7816  0.0522 -0.5897
16365SOL     OW52240   6.278   5.865   5.014  0.2807  0.5342 -0.0487
16365SOL    HW152241   6.352   5.804   5.022 -0.5319 -0.5648 -0.7206
16365SOL    HW252242   6.217   5.822   4.955 -1.4164  0.9285  1.3237
16366SOL     OW52243   6.946   4.729   0.991 -0.2876  0.2077 -0.4379
16366SOL    HW152244   6.985   4.705   0.907  0.6267 -0.3692  0.1264
16366SOL    HW252245   6.968   4.822   1.002 -1.3527  0.5721 -1.3247
16367SOL     OW52246   2.277   0.813   2.594  0.0845 -0.4174  0.0744
16367SOL    HW152247   2.364   0.801   2.634 -0.7132 -0.1460  2.0018
16367SOL    HW252248   2.277   0.904   2.564  0.2360 -0.2075  0.6904
16368SOL     OW52249   8.035   5.702   1.324  0.2824  0.4470 -0.1126
16368SOL    HW152250   8.045   5.784   1.372 -0.1663 -0.9036  2.4617
16368SOL    HW252251   8.118   5.657   1.336  0.6186  0.5839 -1.7221
16369SOL     OW52252   0.368   0.872   3.029  0.0091  0.0646 -0.3225
16369SOL    HW152253   0.448   0.908   2.993 -0.6876  1.1549 -0.8201
16369SOL    HW252254   0.397   0.814   3.100  1.1476  1.9552  0.8355
16370SOL     OW52255   0.677   7.958   1.681 -0.0156  0.5864 -0.1201
16370SOL    HW152256   0.586   7.936   1.704  0.4544 -0.6829  0.6799
16370SOL    HW252257   0.723   7.874   1.688  1.0273  1.0234 -1.5334
16371SOL     OW52258   4.042   5.206   5.451  0.0769  0.3827  0.2691
16371SOL    HW152259   4.043   5.142   5.522 -1.3428  0.8868  0.7876
16371SOL    HW252260   4.071   5.287   5.492  3.0644 -0.1115 -0.6596
16372SOL     OW52261   3.814   2.107   2.039 -0.1983  0.1160 -0.3812
16372SOL    HW152262   3.865   2.027   2.055  1.4896  1.3472  0.6849
16372SOL    HW252263   3.812   2.114   1.944 -0.0274 -0.9809 -0.4869
16373SOL     OW52264   1.327   1.980   6.059 -0.0162  0.0380 -0.1143
16373SOL    HW152265   1.314   2.053   5.999 -1.1722 -0.2238 -0.2079
16373SOL    HW252266   1.329   1.903   6.002 -0.2363 -0.1298  0.1002
16374SOL     OW52267   7.406   3.899   5.901 -0.4030 -0.0019  0.2474
16374SOL    HW152268   7.417   3.993   5.918  0.5740  0.0874 -0.7828
16374SOL    HW252269   7.312   3.885   5.906 -0.9311  1.6729 -2.6484
16375SOL     OW52270   0.323   5.477   0.597  0.1959  0.3080  0.1180
16375SOL    HW152271   0.412   5.466   0.564  0.5745  0.3061  1.0894
16375SOL    HW252272   0.294   5.562   0.564  0.1024 -0.2149 -1.1835
16376SOL     OW52273   3.705   4.195   5.825 -0.4219  0.3810  0.0580
16376SOL    HW152274   3.715   4.269   5.885  1.2671 -1.1311  1.7950
16376SOL    HW252275   3.633   4.144   5.861 -0.1024  0.0205  0.1937
16377SOL     OW52276   6.326   5.966   0.268 -0.0955 -0.3012 -0.0602
16377SOL    HW152277   6.361   6.005   0.188 -0.5544 -0.5157 -0.3657
16377SOL    HW252278   6.279   5.888   0.239 -0.6159 -0.1579  0.3716
16378SOL     OW52279   7.942   7.476   0.043 -0.7134 -0.7609 -0.3303
16378SOL    HW152280   7.894   7.441   0.118 -1.9234  1.0346 -0.2053
16378SOL    HW252281   7.944   7.571   0.058  0.7891 -0.5541 -1.5722
16379SOL     OW52282   0.320   0.884   2.393  0.1083 -0.1148  0.7622
16379SOL    HW152283   0.246   0.851   2.342 -0.6987  1.8688  0.5519
16379SOL    HW252284   0.385   0.814   2.390 -0.8683 -1.0002 -0.9842
16380SOL     OW52285   1.440   3.563   0.589  0.2444 -0.3637  0.4661
16380SOL    HW152286   1.512   3.518   0.545 -0.1633  0.7284 -1.4246
16380SOL    HW252287   1.468   3.654   0.593 -0.1165 -0.2921  1.7464
16381SOL     OW52288   5.093   5.343   0.691 -0.6040  0.4658 -0.1278
16381SOL    HW152289   5.084   5.362   0.598  1.1794  2.0345 -0.0597
16381SOL    HW252290   5.033   5.404   0.734  0.4200  1.5447 -0.1812
16382SOL     OW52291   4.405   2.477   3.815 -0.3072  0.5073  0.0262
16382SOL    HW152292   4.491   2.493   3.852  0.5591 -2.1906 -0.5620
16382SOL    HW252293   4.344   2.490   3.888  0.8208  0.3514  1.0197
16383SOL     OW52294   5.026   5.471   3.313 -0.3356  0.1353 -0.1125
16383SOL    HW152295   4.982   5.442   3.393 -1.8085  3.3735  0.4186
16383SOL    HW252296   5.003   5.405   3.248 -3.7983  0.1569  0.8448
16384SOL     OW52297   3.488   3.805   6.197  0.1180 -0.6916  0.5851
16384SOL    HW152298   3.433   3.878   6.170  0.8012 -0.0495  0.8980
16384SOL    HW252299   3.494   3.749   6.120 -0.3129 -0.3551  0.3041
16385SOL     OW52300   1.797   4.158   6.865 -0.0296 -0.1125  0.2709
16385SOL    HW152301   1.810   4.229   6.928 -0.9609  1.1953 -0.9606
16385SOL    HW252302   1.879   4.155   6.816 -0.9105  2.0567 -1.5124
16386SOL     OW52303   1.732   2.892   2.672  0.0557 -0.0335 -0.1893
16386SOL    HW152304   1.749   2.847   2.755  1.0361 -0.3679 -0.5603
16386SOL    HW252305   1.816   2.931   2.648  0.3138 -1.4954 -1.9375
16387SOL     OW52306   6.039   5.948   5.738 -0.6246 -1.1747  0.0740
16387SOL    HW152307   6.124   5.968   5.778 -1.0328 -0.1598  0.4650
16387SOL    HW252308   6.048   5.975   5.647 -0.3126 -1.7233 -0.0668
16388SOL     OW52309   5.356   2.731   5.230 -0.0798  0.9329  0.2878
16388SOL    HW152310   5.435   2.690   5.267 -0.5799  0.3872  0.7701
16388SOL    HW252311   5.306   2.760   5.306 -1.1388 -0.2406  0.0690
16389SOL     OW52312   2.540   2.342   2.417  0.5233 -0.1516  0.5620
16389SOL    HW152313   2.611   2.291   2.458  1.0042 -1.9247 -2.2187
16389SOL    HW252314   2.576   2.369   2.333 -1.2739  1.1125  0.1604
16390SOL     OW52315   2.832   7.647   6.337 -0.2140  0.1310 -0.4497
16390SOL    HW152316   2.841   7.722   6.279 -1.5671 -0.3355 -1.3381
16390SOL    HW252317   2.834   7.571   6.278 -2.5664 -0.3095 -0.0622
16391SOL     OW52318   3.271   2.283   2.818  0.2052 -0.4363 -0.5816
16391SOL    HW152319   3.252   2.222   2.890  2.9652 -2.3064 -1.2564
16391SOL    HW252320   3.190   2.333   2.807 -0.6486 -0.7208  3.1361
16392SOL     OW52321   7.139   4.218   5.524  0.3154 -0.0346  0.2233
16392SOL    HW152322   7.144   4.156   5.451  0.4614 -0.8279  0.8929
16392SOL    HW252323   7.058   4.266   5.509  1.1294  0.9321 -1.3234
16393SOL     OW52324   3.293   4.970   2.565 -0.4250  0.2229  0.5546
16393SOL    HW152325   3.241   5.001   2.639 -0.4974  1.6080 -0.0470
16393SOL    HW252326   3.256   4.884   2.545 -1.5807  0.5850  1.0162
16394SOL     OW52327   1.198   0.926   1.093 -0.4897  0.1454 -0.3496
16394SOL    HW152328   1.223   0.838   1.118 -0.8705  0.0801 -0.1924
16394SOL    HW252329   1.122   0.946   1.147 -2.1561 -0.4850 -2.3043
16395SOL     OW52330   3.357   0.584   7.618  0.0001  0.2705  0.5393
16395SOL    HW152331   3.293   0.574   7.548  1.2621  0.0154 -0.6102
16395SOL    HW252332   3.305   0.605   7.696 -1.3820  1.2556 -0.6101
16396SOL     OW52333   2.087   0.276   7.704  0.0785  0.0122 -0.2094
16396SOL    HW152334   2.085   0.362   7.662 -0.9328 -0.2250 -0.6728
16396SOL    HW252335   2.114   0.216   7.634  0.8134 -0.0603  0.1191
16397SOL     OW52336   7.683   7.743   7.279 -0.0109  0.0990 -0.1472
16397SOL    HW152337   7.632   7.823   7.271  0.3415  0.4102  0.5776
16397SOL    HW252338   7.687   7.726   7.373  1.2476  0.1120 -0.1696
16398SOL     OW52339   4.072   5.736   4.908  0.0376  0.0648 -0.5452
16398SOL    HW152340   4.044   5.771   4.993  0.2498  0.9143 -0.8165
16398SOL    HW252341   3.999   5.681   4.879 -1.6621  2.6452 -1.4860
16399SOL     OW52342   7.106   6.432   5.705  0.2124 -0.2113 -0.2830
16399SOL    HW152343   7.156   6.440   5.624  0.5565 -1.4021 -0.2084
16399SOL    HW252344   7.025   6.480   5.688  0.3756 -0.2563 -1.2409
16400SOL     OW52345   4.422   0.684   0.803  0.1573  0.2666  0.0919
16400SOL    HW152346   4.501   0.706   0.753 -1.0424  0.0529 -2.0403
16400SOL    HW252347   4.411   0.590   0.789 -0.8129  0.4136 -0.2117
16401SOL     OW52348   1.115   6.762   1.767 -0.2277 -0.7324 -0.1310
16401SOL    HW152349   1.126   6.751   1.862 -0.8171  1.6602  0.2824
16401SOL    HW252350   1.023   6.786   1.756  0.0791  0.0556 -1.1744
16402SOL     OW52351   2.962   6.621   0.234  0.1274 -0.0157 -0.2846
16402SOL    HW152352   2.905   6.570   0.292  2.0826 -0.6130  1.2644
16402SOL    HW252353   2.951   6.581   0.148  0.3030 -1.9747  0.5449
16403SOL     OW52354   5.301   4.370   1.821  0.1733 -0.5858 -0.3442
16403SOL    HW152355   5.326   4.310   1.892  3.2505  1.2719  0.2907
16403SOL    HW252356   5.217   4.405   1.848  0.1191 -1.7552  1.1360
16404SOL     OW52357   2.471   5.071   5.260  0.2285 -0.4372 -0.4374
16404SOL    HW152358   2.558   5.048   5.292  1.0011 -0.5545 -2.4911
16404SOL    HW252359   2.450   5.003   5.195 -0.4225  0.8029 -1.5818
16405SOL     OW52360   6.775   0.113   5.983 -0.0185  0.4887 -0.2680
16405SOL    HW152361   6.840   0.183   5.988  0.7160 -0.1629 -0.3964
16405SOL    HW252362   6.825   0.033   6.003 -0.8644  0.0190  0.0179
16406SOL     OW52363   4.045   4.897   4.179 -0.2647  0.2836 -0.4766
16406SOL    HW152364   4.053   4.859   4.091 -2.6999 -2.4031  0.3070
16406SOL    HW252365   4.082   4.832   4.237 -0.6236  1.0676  0.6614
16407SOL     OW52366   5.855   1.582   3.417 -0.1092  0.8347  0.3386
16407SOL    HW152367   5.937   1.533   3.426 -0.3623  0.2073 -0.5704
16407SOL    HW252368   5.855   1.611   3.325 -0.2980  1.9430  0.6739
16408SOL     OW52369   0.964   0.097   6.307  0.3510 -0.7300  0.2093
16408SOL    HW152370   0.874   0.071   6.288 -0.0499 -0.2340  1.3737
16408SOL    HW252371   0.963   0.124   6.399  0.6494  3.6410 -0.8389
16409SOL     OW52372   0.655   1.724   2.456 -0.1758 -0.2711 -0.3072
16409SOL    HW152373   0.666   1.702   2.364 -2.5005  0.9176 -0.9604
16409SOL    HW252374   0.578   1.674   2.484 -0.2888  0.3674  0.5901
16410SOL     OW52375   3.972   5.666   5.831 -0.0960  0.2929 -0.2523
16410SOL    HW152376   3.969   5.669   5.735  1.8597  1.1345 -0.3384
16410SOL    HW252377   4.039   5.730   5.854  2.3059 -2.6141  1.4803
16411SOL     OW52378   3.450   7.569   0.558 -0.0055  0.0890 -0.1027
16411SOL    HW152379   3.508   7.644   0.570 -0.5424  0.6301 -0.7474
16411SOL    HW252380   3.501   7.493   0.586  0.5474  0.6953  0.5594
16412SOL     OW52381   5.168   4.150   7.989 -0.0210 -0.2104  0.0978
16412SOL    HW152382   5.211   4.177   8.070 -1.4560  1.0337  0.4848
16412SOL    HW252383   5.157   4.230   7.939 -1.1244 -0.6107 -0.3468
16413SOL     OW52384   4.007   4.182   4.751  0.4542 -0.6722 -1.1199
16413SOL    HW152385   4.075   4.188   4.818  1.3298  0.2287 -2.0537
16413SOL    HW252386   4.055   4.169   4.669 -0.4929  0.0633 -1.8064
16414SOL     OW52387   4.824   1.121   5.636 -0.0510  0.7064  0.3084
16414SOL    HW152388   4.874   1.176   5.696  0.6370 -0.1409  0.5297
16414SOL    HW252389   4.736   1.120   5.673  0.2258  0.6577  0.9823
16415SOL     OW52390   0.299   7.316   2.031 -0.1203 -0.3346 -0.4803
16415SOL    HW152391   0.212   7.322   1.991 -0.4708 -1.2709  0.0910
16415SOL    HW252392   0.282   7.293   2.123  0.7177 -0.1584 -0.2716
16416SOL     OW52393   4.327   0.727   0.410  0.5073  0.5153  0.2948
16416SOL    HW152394   4.293   0.744   0.322  0.1589 -0.7404  0.1685
16416SOL    HW252395   4.390   0.656   0.398 -0.9620 -1.0354  1.2895
16417SOL     OW52396   0.052   5.449   7.083  0.3386 -0.2634  0.4925
16417SOL    HW152397   0.072   5.378   7.144  4.0725 -0.1060 -0.3240
16417SOL    HW252398   0.080   5.528   7.129  0.6597  0.1484 -0.3976
16418SOL     OW52399   4.277   2.836   2.327 -1.0050 -0.1608 -0.1013
16418SOL    HW152400   4.210   2.774   2.355 -0.5094  0.4303  2.6626
16418SOL    HW252401   4.345   2.830   2.394 -0.4914  2.6425 -0.2542
16419SOL     OW52402   5.214   2.151   7.472  0.1092  0.2248  0.2450
16419SOL    HW152403   5.119   2.158   7.482  0.1443 -0.6504  1.4710
16419SOL    HW252404   5.233   2.059   7.493  1.1615  0.2348 -0.5893
16420SOL     OW52405   1.158   2.930   1.300 -0.7191 -0.1496 -0.4194
16420SOL    HW152406   1.133   2.973   1.382  0.0769 -2.4202  1.0956
16420SOL    HW252407   1.117   2.844   1.304 -1.2420 -0.0703 -2.7764
16421SOL     OW52408   6.937   6.277   1.319  0.2046  0.2101  0.5136
16421SOL    HW152409   6.983   6.280   1.234  0.5719 -0.3145  0.6864
16421SOL    HW252410   7.005   6.253   1.382  0.3202  2.2666  1.2537
16422SOL     OW52411   2.932   3.892   4.022  0.3149 -0.6881  0.6120
16422SOL    HW152412   2.965   3.932   3.941 -0.7449 -0.6903  0.1644
16422SOL    HW252413   2.984   3.932   4.091 -0.2028  0.9151  0.1100
16423SOL     OW52414   0.410   0.237   7.565 -0.8796  0.5083 -0.0936
16423SOL    HW152415   0.463   0.316   7.555 -2.2600  1.2394 -2.6972
16423SOL    HW252416   0.406   0.199   7.477 -1.3271 -1.7787  0.8341
16424SOL     OW52417   0.265   3.467   4.556 -0.7835  0.0958  0.2095
16424SOL    HW152418   0.299   3.553   4.531 -0.5943 -0.5059 -1.7932
16424SOL    HW252419   0.330   3.432   4.616 -1.5213  1.8498  2.1377
16425SOL     OW52420   4.294   3.154   7.005 -0.2350 -0.3420  0.7366
16425SOL    HW152421   4.342   3.236   7.012 -0.2331 -0.2321 -0.3361
16425SOL    HW252422   4.259   3.139   7.093 -0.2344  0.8033  0.9535
16426SOL     OW52423   0.242   3.351   2.701 -0.1954 -0.2478  0.1634
16426SOL    HW152424   0.278   3.354   2.613 -1.4492  1.1793 -0.3262
16426SOL    HW252425   0.148   3.359   2.690 -0.3029  1.3083  1.6769
16427SOL     OW52426   6.079   7.403   1.578  0.0277  0.4745  0.0322
16427SOL    HW152427   6.122   7.338   1.522  0.9605  0.0882  1.1342
16427SOL    HW252428   6.066   7.479   1.522  0.8757  0.0794 -0.7278
16428SOL     OW52429   4.015   0.237   2.759  0.2867  0.6384  0.7217
16428SOL    HW152430   4.058   0.316   2.727  0.1014  0.5961  0.3574
16428SOL    HW252431   3.950   0.216   2.691  0.6099 -0.0531  0.6110
16429SOL     OW52432   5.931   3.746   3.053 -0.7114 -0.2477 -0.0832
16429SOL    HW152433   5.858   3.794   3.015  0.5658  0.9174 -1.1933
16429SOL    HW252434   5.956   3.683   2.986 -0.9384 -0.9401  0.4650
16430SOL     OW52435   2.489   0.734   0.841 -0.4151  0.4550  0.1070
16430SOL    HW152436   2.425   0.689   0.897  1.0599  0.3743  1.8193
16430SOL    HW252437   2.478   0.827   0.862  0.2414  0.4121  0.6529
16431SOL     OW52438   2.803   5.360   7.119  0.3288  0.3797 -0.2618
16431SOL    HW152439   2.836   5.366   7.029 -0.1812 -1.7400 -0.6547
16431SOL    HW252440   2.717   5.401   7.116 -0.2265 -0.7758 -1.0911
16432SOL     OW52441   0.955   0.822   0.937 -0.1762  0.3589  0.8307
16432SOL    HW152442   0.904   0.902   0.950 -0.0653  0.6215 -0.2394
16432SOL    HW252443   0.990   0.831   0.848 -1.5990 -1.6554 -0.0058
16433SOL     OW52444   0.210   3.285   1.127  0.7727  0.0771  0.0468
16433SOL    HW152445   0.205   3.306   1.034 -1.7993  0.1262  0.1309
16433SOL    HW252446   0.124   3.248   1.149  2.1373 -2.3742  1.8568
16434SOL     OW52447   0.309   0.589   2.906  0.0856 -0.8150 -0.1450
16434SOL    HW152448   0.303   0.518   2.970 -2.9981  1.1862  2.0607
16434SOL    HW252449   0.250   0.656   2.939  2.2641  2.5549 -2.4752
16435SOL     OW52450   6.882   3.363   6.065  0.2195 -0.0685 -0.0618
16435SOL    HW152451   6.894   3.436   6.125 -1.1510 -0.3772  0.6410
16435SOL    HW252452   6.885   3.285   6.121  0.8101 -0.4960 -0.6760
16436SOL     OW52453   0.733   2.458   5.969  0.2175 -0.2788  0.5076
16436SOL    HW152454   0.755   2.398   6.040  2.0013 -0.7506 -0.3662
16436SOL    HW252455   0.816   2.501   5.947 -0.3052 -0.0276 -1.1621
16437SOL     OW52456   2.653   7.853   7.059 -0.0353  0.6290  1.1028
16437SOL    HW152457   2.738   7.829   7.094  0.1804 -0.5160 -0.1282
16437SOL    HW252458   2.659   7.947   7.043  1.2863  0.4186  0.2756
16438SOL     OW52459   0.468   7.103   1.016  0.2582 -0.2953  0.1567
16438SOL    HW152460   0.501   7.185   1.053 -1.8754  0.3507  0.7721
16438SOL    HW252461   0.487   7.037   1.083 -0.8962  0.3296  1.1450
16439SOL     OW52462   7.581   7.282   1.756 -0.1565  0.4827  0.1839
16439SOL    HW152463   7.674   7.285   1.733  0.2055  0.6310  1.5941
16439SOL    HW252464   7.542   7.225   1.689  0.8023  0.9930 -0.8473
16440SOL     OW52465   3.809   3.579   3.886  0.3268 -0.1057 -0.1328
16440SOL    HW152466   3.808   3.547   3.796  0.3989 -0.8601  0.1281
16440SOL    HW252467   3.748   3.653   3.886  1.6140  0.9780 -1.1819
16441SOL     OW52468   1.077   0.116   1.151  0.1019 -0.1936  0.1612
16441SOL    HW152469   1.045   0.170   1.223  0.9910 -2.0826  2.0778
16441SOL    HW252470   1.169   0.141   1.141 -0.0334  0.1095 -0.4005
16442SOL     OW52471   4.742   2.641   2.436  0.2730 -0.4374 -0.5641
16442SOL    HW152472   4.770   2.712   2.494  0.9603 -0.9731 -0.2322
16442SOL    HW252473   4.819   2.622   2.383  0.3550 -1.4845 -0.0844
16443SOL     OW52474   1.471   1.757   3.602  0.5349  0.5566  0.6043
16443SOL    HW152475   1.519   1.675   3.609  0.1212  0.3321  0.8485
16443SOL    HW252476   1.451   1.780   3.693  2.4880  2.0341  0.7358
16444SOL     OW52477   2.219   7.983   7.485  0.3852 -0.2464 -0.2530
16444SOL    HW152478   2.189   8.073   7.467  0.0423 -0.2140  0.4498
16444SOL    HW252479   2.309   7.994   7.516 -0.2549  0.0450  1.6261
16445SOL     OW52480   0.950   2.845   4.333 -0.1567 -0.2314 -0.2812
16445SOL    HW152481   0.957   2.902   4.409  0.4650 -3.3980  2.2821
16445SOL    HW252482   1.010   2.883   4.268 -2.1462  3.6419 -0.1041
16446SOL     OW52483   7.291   2.650   4.874  0.4197 -0.2363  0.1768
16446SOL    HW152484   7.196   2.651   4.859  0.0237  1.5374  2.2878
16446SOL    HW252485   7.305   2.577   4.933  0.7909 -1.9805 -1.9318
16447SOL     OW52486   3.558   0.235   8.075  0.2627  0.7160  0.1615
16447SOL    HW152487   3.472   0.222   8.114  1.0022 -0.6352  1.4351
16447SOL    HW252488   3.571   0.159   8.019  0.7446  0.7399  0.2355
16448SOL     OW52489   2.897   7.108   0.983 -0.3531 -0.1807  0.5518
16448SOL    HW152490   2.922   7.018   1.002 -1.0665 -0.6391 -0.5596
16448SOL    HW252491   2.860   7.104   0.894  0.2830  1.3257  0.1883
16449SOL     OW52492   2.330   5.182   2.256 -0.6141 -0.2759 -0.3267
16449SOL    HW152493   2.247   5.183   2.303 -0.9885 -0.4703 -0.9789
16449SOL    HW252494   2.385   5.121   2.306 -0.6383  0.3424  0.4682
16450SOL     OW52495   6.828   6.831   1.994 -0.3867 -0.3073 -0.0366
16450SOL    HW152496   6.818   6.867   1.906  1.7508  1.2426  0.2741
16450SOL    HW252497   6.738   6.813   2.023 -1.2289  0.4722 -1.9770
16451SOL     OW52498   3.552   2.238   0.387 -0.3077  0.2396 -0.0950
16451SOL    HW152499   3.526   2.193   0.467  1.7973 -1.2799 -0.1812
16451SOL    HW252500   3.473   2.239   0.333 -1.1562 -0.8018  1.0761
16452SOL     OW52501   2.346   1.649   5.197  0.0847  0.3138  0.0460
16452SOL    HW152502   2.405   1.710   5.242  1.1122  0.1057 -0.9780
16452SOL    HW252503   2.259   1.686   5.211  0.6123  1.5765  0.1454
16453SOL     OW52504   3.764   4.024   0.414 -0.0641  0.2301 -0.6943
16453SOL    HW152505   3.730   4.084   0.480  0.6421  0.1550 -0.2521
16453SOL    HW252506   3.713   4.043   0.335  0.4893  1.7580 -0.7066
16454SOL     OW52507   4.836   2.569   7.134  0.4290  1.0479 -0.1352
16454SOL    HW152508   4.911   2.576   7.075  0.5044 -0.2564 -0.2250
16454SOL    HW252509   4.858   2.497   7.192 -1.5819 -0.7452 -1.4286
16455SOL     OW52510   3.397   1.735   1.154 -0.2177 -0.0724  0.2961
16455SOL    HW152511   3.303   1.748   1.147 -0.0056  1.2631 -0.4369
16455SOL    HW252512   3.431   1.763   1.069  1.1374  2.7537  1.6289
16456SOL     OW52513   3.577   0.687   7.470 -0.0116  0.3278  0.2122
16456SOL    HW152514   3.635   0.623   7.512 -1.0973 -1.3133 -0.6832
16456SOL    HW252515   3.504   0.697   7.531 -0.9757 -1.1077 -0.6425
16457SOL     OW52516   1.157   1.832   2.282  0.4013 -0.5145 -0.1766
16457SOL    HW152517   1.139   1.745   2.317 -1.7007  0.0523  0.3033
16457SOL    HW252518   1.139   1.825   2.189  1.6521 -0.9090 -0.4162
16458SOL     OW52519   2.398   5.284   3.710 -0.7896  0.3870 -0.3723
16458SOL    HW152520   2.367   5.365   3.670 -2.1411 -0.3082 -0.8034
16458SOL    HW252521   2.393   5.300   3.804 -3.4787  0.0219 -0.3622
16459SOL     OW52522   1.047   6.680   1.244 -0.2495  0.3181 -0.4023
16459SOL    HW152523   1.131   6.656   1.282 -1.8918 -0.4768  3.1508
16459SOL    HW252524   1.058   6.771   1.216  1.6948  0.3095  0.2434
16460SOL     OW52525   6.302   5.326   0.501  0.2475 -0.5684 -0.3421
16460SOL    HW152526   6.303   5.412   0.459  2.3731 -0.1905  0.3648
16460SOL    HW252527   6.394   5.304   0.512 -0.2532 -2.9497 -0.4859
16461SOL     OW52528   2.391   3.160   5.886  0.3036 -0.2679 -0.3756
16461SOL    HW152529   2.305   3.126   5.861 -0.3296  1.1568 -0.1993
16461SOL    HW252530   2.395   3.146   5.981 -0.7541  1.7944  0.0186
16462SOL     OW52531   1.864   2.217   7.191 -0.2725 -0.0717 -0.2876
16462SOL    HW152532   1.811   2.145   7.224  0.1121 -0.2192  0.0125
16462SOL    HW252533   1.907   2.253   7.268 -3.1619  2.7804  0.1866
16463SOL     OW52534   4.883   1.710   5.264 -0.1977 -0.1977 -0.6514
16463SOL    HW152535   4.840   1.673   5.187  1.3155 -1.2743 -1.0174
16463SOL    HW252536   4.819   1.773   5.299 -1.0275  0.1122 -2.5946
16464SOL     OW52537   7.139   6.669   7.918  0.0880  0.2644  0.0359
16464SOL    HW152538   7.153   6.578   7.945 -0.4802 -0.1514 -0.9933
16464SOL    HW252539   7.224   6.697   7.883  0.5635  0.4984  1.3427
16465SOL     OW52540   6.167   4.032   4.950 -0.1488  0.1608 -0.2196
16465SOL    HW152541   6.226   4.085   4.897  2.4501 -0.4415  1.8417
16465SOL    HW252542   6.171   3.945   4.911  0.2268  0.1463 -0.1458
16466SOL     OW52543   3.980   7.537   6.413 -0.2236  0.5948 -0.4044
16466SOL    HW152544   3.987   7.462   6.471  1.0027 -1.0361 -2.5165
16466SOL    HW252545   3.886   7.544   6.393 -0.3047 -0.6451 -0.5013
16467SOL     OW52546   1.152   6.760   2.443  0.3592  0.0539  0.2850
16467SOL    HW152547   1.104   6.750   2.525 -0.8600  3.2086  0.0940
16467SOL    HW252548   1.233   6.805   2.468  1.1008 -1.0757  0.0006
16468SOL     OW52549   0.443   6.545   1.529  0.2314 -0.1895  0.1646
16468SOL    HW152550   0.427   6.638   1.541 -1.2490 -0.4252  0.0975
16468SOL    HW252551   0.385   6.502   1.591  2.9908 -1.0541  2.3668
16469SOL     OW52552   7.170   5.373   5.348 -0.2848  0.3084 -0.2135
16469SOL    HW152553   7.122   5.321   5.413 -0.7884 -0.0958 -0.8910
16469SOL    HW252554   7.103   5.401   5.286 -0.2413  2.8220  0.7755
16470SOL     OW52555   4.778   0.413   4.946 -0.1954 -0.5287  0.1643
16470SOL    HW152556   4.819   0.499   4.953 -1.3179  0.0617 -0.1859
16470SOL    HW252557   4.691   0.431   4.910 -0.6999 -1.7449  0.7117
16471SOL     OW52558   1.644   6.195   1.118 -0.0594 -0.2970 -0.3063
16471SOL    HW152559   1.567   6.226   1.069 -0.5795 -1.2299 -0.0942
16471SOL    HW252560   1.626   6.219   1.209  0.2155  0.0788 -0.3468
16472SOL     OW52561   6.194   7.068   5.189  0.1131  0.0379 -0.1220
16472SOL    HW152562   6.226   7.086   5.278 -0.1834 -0.2694  0.0505
16472SOL    HW252563   6.230   6.982   5.168 -0.2048 -0.0964 -0.1167
16473SOL     OW52564   6.965   4.270   7.410  0.1993 -0.0901  0.0449
16473SOL    HW152565   7.048   4.316   7.422  0.0885 -0.3145  2.0491
16473SOL    HW252566   6.990   4.182   7.384  0.4538  0.6159 -2.3260
16474SOL     OW52567   0.992   6.102   0.682 -0.0513 -0.1644 -0.3513
16474SOL    HW152568   1.069   6.143   0.721 -1.0259  1.0603  0.3734
16474SOL    HW252569   1.011   6.099   0.588  0.9397 -0.0343 -0.1619
16475SOL     OW52570   0.941   2.390   6.558  0.0409 -0.5230  0.1595
16475SOL    HW152571   0.915   2.422   6.471 -0.6162 -0.3375  0.4103
16475SOL    HW252572   0.925   2.296   6.555  1.3280 -0.7450 -0.3591
16476SOL     OW52573   0.799   0.665   1.187  0.5195 -0.0674  0.0833
16476SOL    HW152574   0.858   0.646   1.260  1.0463 -0.4951 -0.4439
16476SOL    HW252575   0.848   0.726   1.131  0.6581 -0.7754 -0.5880
16477SOL     OW52576   7.649   1.664   6.759  0.1154 -0.1490  0.1296
16477SOL    HW152577   7.584   1.611   6.807  1.8086 -1.8187  0.7182
16477SOL    HW252578   7.699   1.600   6.709  1.7919  0.9853  0.2831
16478SOL     OW52579   0.819   0.324   3.922  0.4426 -0.1971  0.5226
16478SOL    HW152580   0.808   0.229   3.930  0.0420 -0.6406 -3.2029
16478SOL    HW252581   0.914   0.338   3.925  0.6742 -1.1073 -1.0225
16479SOL     OW52582   7.979   8.039   7.917  0.2763  0.1857  0.0829
16479SOL    HW152583   7.988   7.960   7.970  0.3708  0.3426  0.3000
16479SOL    HW252584   8.068   8.057   7.885 -0.0307 -0.7829 -1.3957
16480SOL     OW52585   5.075   3.373   0.240  0.1787  0.2944 -0.1542
16480SOL    HW152586   5.122   3.291   0.228  1.5770  1.1152 -0.5405
16480SOL    HW252587   5.037   3.367   0.328  0.1625 -0.7986 -0.2272
16481SOL     OW52588   1.751   2.990   3.895 -0.1532 -0.5136 -0.2480
16481SOL    HW152589   1.659   3.010   3.909 -0.1316 -0.4881 -0.1373
16481SOL    HW252590   1.766   2.910   3.945 -0.0336 -0.3255  0.0217
16482SOL     OW52591   0.308   6.506   4.980  0.1016  0.0966  0.2964
16482SOL    HW152592   0.216   6.528   4.964  0.4965  0.2994 -2.0480
16482SOL    HW252593   0.305   6.416   5.013 -0.9383  0.2728  0.7334
16483SOL     OW52594   6.505   0.235   6.266  0.1528 -0.2988  0.0614
16483SOL    HW152595   6.590   0.194   6.248  2.1281  1.7717  3.4988
16483SOL    HW252596   6.457   0.170   6.317  0.4015 -0.8170 -0.3549
16484SOL     OW52597   0.434   2.816   5.385  0.2458  0.9280  0.4557
16484SOL    HW152598   0.387   2.754   5.329  1.4133  0.0915  0.3573
16484SOL    HW252599   0.390   2.900   5.370 -0.7655  0.3140 -0.1357
16485SOL     OW52600   4.708   7.243   1.569  0.2630  0.1320 -0.0510
16485SOL    HW152601   4.771   7.179   1.537 -0.4624  0.3929 -2.1612
16485SOL    HW252602   4.688   7.215   1.658  0.6455 -2.0432 -0.6004
16486SOL     OW52603   3.785   2.013   3.396 -0.1348 -0.6671  0.0651
16486SOL    HW152604   3.782   2.088   3.336 -1.9668  0.6193  1.6600
16486SOL    HW252605   3.873   2.015   3.432 -0.1289  0.7355  0.0433
16487SOL     OW52606   5.620   1.122   5.070  0.2028 -0.5937  0.0928
16487SOL    HW152607   5.633   1.031   5.043 -0.4939 -0.8636  0.6121
16487SOL    HW252608   5.548   1.117   5.134  1.0692  0.1458  1.1551
16488SOL     OW52609   4.655   1.810   1.918  0.2859  0.2768 -0.2383
16488SOL    HW152610   4.652   1.839   1.827  1.8480  3.1981  0.5065
16488SOL    HW252611   4.624   1.886   1.968 -1.0158 -1.4068  1.6913
16489SOL     OW52612   4.733   3.200   1.926 -0.1611  0.1246 -0.2066
16489SOL    HW152613   4.736   3.113   1.966  0.3965  0.6400  0.9150
16489SOL    HW252614   4.700   3.184   1.838  0.5390 -1.3101 -0.2492
16490SOL     OW52615   3.507   0.453   5.934  0.1431 -0.3298  0.1639
16490SOL    HW152616   3.480   0.463   5.843  2.8211 -1.4102 -0.8313
16490SOL    HW252617   3.489   0.539   5.974  0.7376  0.8133 -1.8881
16491SOL     OW52618   0.488   1.765   4.178 -0.3883  0.0358  0.4193
16491SOL    HW152619   0.507   1.771   4.084 -0.3304  1.3532  0.4987
16491SOL    HW252620   0.427   1.691   4.185 -2.7902  1.7380 -1.0689
16492SOL     OW52621   4.032   0.659   4.799 -0.1234 -0.0177 -0.1934
16492SOL    HW152622   4.029   0.686   4.890  0.8243 -0.3991 -0.0363
16492SOL    HW252623   4.068   0.735   4.752 -1.9234  0.6928 -0.4777
16493SOL     OW52624   1.582   2.157   1.750 -0.6850  0.0883 -0.0466
16493SOL    HW152625   1.657   2.120   1.703 -0.6860 -1.0391  0.7986
16493SOL    HW252626   1.620   2.226   1.805 -0.5177  0.6030 -0.7893
16494SOL     OW52627   0.523   5.372   5.760  0.0521 -0.0846  0.2121
16494SOL    HW152628   0.508   5.403   5.671  1.8406 -1.6694 -0.7174
16494SOL    HW252629   0.554   5.449   5.807 -0.6674  0.7184 -0.5881
16495SOL     OW52630   4.310   6.162   3.576  0.9550  0.0859 -0.3963
16495SOL    HW152631   4.388   6.111   3.599  0.2067 -0.5101  0.9553
16495SOL    HW252632   4.288   6.210   3.656  0.9942  1.7193 -1.3181
16496SOL     OW52633   2.321   5.014   4.983 -0.4014  0.3568 -0.4786
16496SOL    HW152634   2.323   4.941   5.046 -0.0720  0.4217 -0.4098
16496SOL    HW252635   2.410   5.016   4.946 -0.7334  0.0144 -1.3011
16497SOL     OW52636   0.500   3.355   6.330 -0.6063 -0.1734  0.0404
16497SOL    HW152637   0.548   3.388   6.406  0.9567 -0.9998 -0.5384
16497SOL    HW252638   0.440   3.426   6.306 -1.8678 -0.2665  2.6197
16498SOL     OW52639   7.291   2.212   4.810 -0.2525  0.2350 -0.1698
16498SOL    HW152640   7.229   2.282   4.787  0.0719  0.2161 -1.1636
16498SOL    HW252641   7.247   2.132   4.781  0.4563  0.2696 -1.4503
16499SOL     OW52642   5.888   4.926   0.943 -0.2427 -0.0896  0.1699
16499SOL    HW152643   5.837   4.907   0.865  0.8549  0.0669 -0.5969
16499SOL    HW252644   5.953   4.856   0.948  1.8187  1.6556 -0.9374
16500SOL     OW52645   5.862   6.989   3.352  0.0143 -0.6698 -0.1945
16500SOL    HW152646   5.947   7.027   3.332 -0.7697  0.3974 -1.6922
16500SOL    HW252647   5.833   7.033   3.432 -0.1884  0.7533 -1.0355
16501SOL     OW52648   7.544   6.323   2.494  0.0817 -0.1492 -0.8540
16501SOL    HW152649   7.463   6.290   2.533  0.1884  2.4167  1.9576
16501SOL    HW252650   7.528   6.416   2.480  2.3606  0.3410 -0.6599
16502SOL     OW52651   4.643   1.345   5.907  0.6569  0.6074  0.6190
16502SOL    HW152652   4.605   1.267   5.947  0.9718  1.0162  1.7722
16502SOL    HW252653   4.738   1.334   5.918  0.7671  0.6114 -0.2676
16503SOL     OW52654   4.766   5.978   2.812 -0.8167  0.0123  0.0441
16503SOL    HW152655   4.776   5.884   2.796  3.6162 -0.1406  2.0168
16503SOL    HW252656   4.747   5.984   2.906  1.1004  0.9752  0.4372
16504SOL     OW52657   3.455   3.271   6.743 -0.2481 -0.3401 -0.1746
16504SOL    HW152658   3.429   3.266   6.835 -2.9657 -0.0191 -0.8517
16504SOL    HW252659   3.507   3.351   6.737 -1.4380  0.5366  0.8026
16505SOL     OW52660   2.332   7.311   3.559 -0.1001  0.8564 -0.0680
16505SOL    HW152661   2.419   7.272   3.564  0.6396  2.3429 -0.7275
16505SOL    HW252662   2.330   7.356   3.475 -1.6416  0.5653 -0.2126
16506SOL     OW52663   7.329   6.337   6.148  0.7155  0.0484  0.5772
16506SOL    HW152664   7.264   6.354   6.216  2.2028  2.0356  1.6323
16506SOL    HW252665   7.279   6.329   6.067 -1.0583 -1.7337  1.7772
16507SOL     OW52666   3.589   6.854   3.409  0.0666 -0.6116  0.0101
16507SOL    HW152667   3.514   6.872   3.352 -1.3329 -1.1245  1.6010
16507SOL    HW252668   3.653   6.921   3.386 -1.6497  1.1013 -0.0702
16508SOL     OW52669   1.495   1.214   7.017 -0.0630  0.1918  0.0670
16508SOL    HW152670   1.458   1.149   7.077  2.1394 -0.8108  0.4591
16508SOL    HW252671   1.427   1.228   6.952 -0.1128 -3.8248 -0.9938
16509SOL     OW52672   1.200   0.187   3.140 -0.0046 -0.1246 -0.5316
16509SOL    HW152673   1.294   0.171   3.147  0.1313  0.5856 -0.6407
16509SOL    HW252674   1.182   0.189   3.046  0.3227  2.0990 -0.6055
16510SOL     OW52675   0.937   7.054   2.257  0.1736  0.3122 -0.0572
16510SOL    HW152676   1.010   7.111   2.235 -1.1412  2.2989  0.4031
16510SOL    HW252677   0.864   7.088   2.206 -1.2963  0.7840  2.1898
16511SOL     OW52678   0.166   3.097   6.451 -0.5069 -0.0748  0.6688
16511SOL    HW152679   0.170   3.192   6.461 -1.4165  0.5385 -3.1830
16511SOL    HW252680   0.253   3.072   6.420 -0.0731 -0.6643  2.2651
16512NA      NA52681   7.379   6.919   6.566  0.0274  0.5103  0.5826
16513NA      NA52682   1.692   7.465   1.661 -0.8050 -0.2089 -0.4909
16514NA      NA52683   6.339   0.313   0.850 -0.2227  0.0017  0.2145
16515NA      NA52684   0.104   3.416   4.433  0.9348 -0.4378  0.2350
16516NA      NA52685   2.048   2.730   3.007  0.3719 -0.8089  0.0320
16517NA      NA52686   3.183   0.144   5.295 -0.1794  0.0406 -0.3107
16518NA      NA52687   1.033   7.725   2.920  0.0926 -0.2368 -0.4271
16519NA      NA52688   6.464   1.989   0.801 -0.2720 -0.0630  0.1408
16520NA      NA52689   2.296   7.519   7.936  0.3751 -0.0498 -0.4309
16521NA      NA52690   1.651   5.529   0.997 -0.2639 -0.1143  0.1017
16522NA      NA52691   7.775   2.333   4.790 -0.4667  0.5791  0.1787
16523NA      NA52692   1.459   4.855   3.273 -0.1953  0.8034 -0.0534
16524NA      NA52693   2.539   6.427   4.381 -0.0537  0.2482 -0.3068
16525NA      NA52694   3.353   3.309   6.257  0.0585  0.3544 -0.8883
16526NA      NA52695   2.733   2.297   0.525  0.0775 -0.0765 -0.2721
16527NA      NA52696   7.274   0.456   4.248  0.3151 -0.4836 -0.1763
16528NA      NA52697   2.295   4.731   1.701  0.1137  0.5569 -0.2626
16529NA      NA52698   7.885   7.467   5.555 -0.0707  0.3227  0.0266
16530NA      NA52699   2.276   2.763   2.365 -0.0812 -0.4141 -0.2358
16531NA      NA52700   5.833   1.042   2.697 -0.4688 -0.0398  0.2140
16532NA      NA52701   1.959   2.205   5.116  0.1616 -0.2441 -0.1432
16533NA      NA52702   2.311   4.608   1.020 -0.0410  0.1105 -0.1510
16534NA      NA52703   8.048   6.316   6.049 -0.2142 -0.3642 -0.2974
16535NA      NA52704   2.865   7.416   2.988 -0.2701 -0.0217 -0.5855
16536NA      NA52705   5.195   3.253   7.045 -0.6213 -0.1881  0.1498
16537NA      NA52706   7.414   0.110   1.362  0.0418 -0.0832  0.4079
16538NA      NA52707   1.113   2.642   3.508  0.6146 -0.0133 -0.4605
16539NA      NA52708   7.510   7.698   1.832  0.3471 -0.3483 -0.8318
16540NA      NA52709   7.550   1.299   0.814  0.1749  0.6515 -0.2210
16541NA      NA52710   3.176   5.000   7.449  0.6740 -0.1020  0.1266
16542NA      NA52711   0.620   5.350   2.397  0.4216 -0.9280  0.3630
16543NA      NA52712   8.087   5.134   1.821 -0.0101 -0.1841  0.2150
16544NA      NA52713   3.063   3.442   0.167 -0.0038  0.4928  0.0452
16545NA      NA52714   7.543   1.776   7.810 -0.3654 -0.3572  0.5981
16546NA      NA52715   3.127   7.424   7.018 -0.2059 -0.3417  0.5597
16547NA      NA52716   1.333   5.018   4.123  0.5450  0.1758  0.4270
16548NA      NA52717   6.505   1.420   5.236  0.2369 -0.1077 -0.1351
16549NA      NA52718   7.182   3.221   2.049 -0.2112  0.2014  0.0508
16550NA      NA52719   0.512   7.922   5.570  0.7041  0.5708  0.2921
16551NA      NA52720   6.523   1.582   6.713  0.4028  0.1974  0.0373
16552NA      NA52721   3.936   1.674   2.484  0.7144  0.5463 -0.3083
16553NA      NA52722   5.601   1.545   1.078  0.1138 -0.1154  0.4875
16554NA      NA52723   1.097   6.680   1.565  0.2966 -0.3313 -0.4942
16555NA      NA52724   0.263   2.164   6.229 -0.1034  0.0406  0.1167
16556NA      NA52725   7.203   1.251   3.604  0.1318  0.6924 -0.3151
16557NA      NA52726   0.788   0.678   3.106  0.1679 -0.6726 -0.1789
16558NA      NA52727   1.619   3.296   7.538 -0.0500  0.7124 -0.8383
16559NA      NA52728   4.867   3.407   8.021  0.5645  0.2779 -0.0296
16560NA      NA52729   7.155   2.646   7.399 -0.5129  0.3117  0.5491
16561CL      CL52730   1.766   0.293   1.740  0.1836 -0.2558 -0.0017
16562CL      CL52731   5.927   5.795   1.902 -0.3468 -0.1188 -0.2125
16563CL      CL52732   0.134   7.041   2.428  0.3411 -0.1998 -0.4677
16564CL      CL52733   4.138   5.578   3.815  0.0067  0.5583  0.0551
16565CL      CL52734   1.097   3.051   3.200  0.1236 -0.2453 -0.3549
16566CL      CL52735   4.751   6.822   4.650 -0.1696 -0.3067  0.2051
16567CL      CL52736   5.372   4.425   5.417 -0.0261  0.5986  0.3455
16568CL      CL52737   4.362   6.658   2.528 -0.3232 -0.0157  0.6147
16569CL      CL52738   5.134   7.114   4.667 -0.1848 -0.0396 -0.0873
16570CL      CL52739   4.842   7.310   1.053  0.1782  0.0885 -0.3541
16571CL      CL52740   1.664   0.140   1.017 -0.0204  0.2480  0.0970
16572CL      CL52741   6.010   6.185   4.868 -0.4304 -0.6428  0.0794
16573CL      CL52742   6.495   1.186   4.237 -0.2577  0.0711 -0.0378
16574CL      CL52743   3.845   3.422   5.861 -0.2992 -0.2118  0.1300
16575CL      CL52744   3.990   4.732   6.675  0.1034 -0.1376 -0.1977
16576CL      CL52745   7.359   7.198   3.071  0.2796  0.2967  0.3414
16577CL      CL52746   1.670   6.287   1.460 -0.2116 -0.3011  0.0310
16578CL      CL52747   3.504   7.234   3.640  0.0537 -0.2914  0.0263
16579CL      CL52748   5.845   7.437   3.957 -0.1051 -0.3318  0.2264
16580CL      CL52749   3.160   3.293   7.539  0.1708  0.6561 -0.2861
16581CL      CL52750   3.300   7.246   6.404  0.2096  0.1385 -0.1556
16582CL      CL52751   5.027   3.259   0.534  0.2098  0.1337  0.0521
16583CL      CL52752   3.935   5.783   5.215  0.2348 -0.2861 -0.1827
16584CL      CL52753   7.712   4.093   4.563 -0.0048 -0.3621  0.0347
16585CL      CL52754   3.583   0.230   2.829  0.9165 -0.1539 -0.0135
16586CL      CL52755   5.109   2.963   3.684 -0.2390  0.5422 -0.0158
16587CL      CL52756   8.036   6.981   0.573 -0.0008  0.1181  0.0889
16588CL      CL52757   6.905   3.622   2.231 -0.0498 -0.0614 -0.0189
16589CL      CL52758   5.091   2.701   7.008 -0.1858 -0.0803  0.6106
16590CL      CL52759   1.680   2.623   4.446  0.1551  0.1119 -0.0988
16591CL      CL52760   1.975   5.267   0.949 -0.0698  0.2954  0.2499
16592CL      CL52761   0.870   2.499   6.265 -0.1888 -0.3337  0.0578
16593CL      CL52762   7.303   4.340   3.508  0.3874 -0.0091 -0.2912
16594CL      CL52763   4.363   7.120   1.003  0.1403  0.3906 -0.3591
16595CL      CL52764   2.107   0.419   4.134  0.3043  0.3732  0.1165
16596CL      CL52765   5.719   6.745   7.605  0.1425  0.3024  0.4102
16597CL      CL52766   7.361   0.110   3.099  0.2181  0.3116  0.0357
16598CL      CL52767   0.057   2.491   0.257 -0.0169  0.0225 -0.5087
16599CL      CL52768   5.450   5.477   1.981  0.2354  0.1431  0.0812
16600CL      CL52769   1.267   0.578   3.931 -0.1367  0.4513 -0.0048
16601CL      CL52770   0.669   0.057   5.235  0.5039  0.0486  0.1382
16602CL      CL52771   3.664   6.732   2.976 -0.4993 -0.2639 -0.1539
16603CL      CL52772   3.403   3.176   2.413 -0.1771  0.1376  0.1080
16604CL      CL52773   6.712   6.810   5.822  0.2052  0.2369 -0.1714
16605CL      CL52774   0.977   4.764   2.729  0.0740 -0.2457 -0.0150
16606CL      CL52775   2.546   2.141   1.483  0.0536  0.1352  0.3379
16607CL      CL52776   6.030   7.742   1.932 -0.1209 -0.0018  0.1464
16608CL      CL52777   7.752   7.993   3.613  0.2939 -0.4560  0.4207
16609CL      CL52778   5.265   3.490   6.927  0.2439  0.1416 -0.0596
16610CL      CL52779   5.434   5.504   4.951  0.0758  0.1607 -0.1773
16611CL      CL52780   0.698   5.697   6.482  0.0832 -0.0008  0.3425
16612CL      CL52781   3.832   5.579   4.755 -0.0746 -0.0178  0.3038
16613CL      CL52782   5.725   2.374   5.264 -0.3983  0.2789 -0.2225
16614CL      CL52783   5.064   3.185   5.657 -0.3811 -0.1396 -0.1336
16615CL      CL52784   5.085   7.935   3.295 -0.0119  0.3896  0.1113
16616CL      CL52785   4.382   6.391   1.771 -0.0502 -0.0068  0.0901
16617CL      CL52786   4.350   2.046   7.669 -0.1941  0.0818 -0.3244
16618CL      CL52787   4.309   4.202   4.864 -0.2221 -0.3061  0.0011
16619CL      CL52788   4.506   7.054   2.006  0.1446 -0.1376 -0.1060
16620CL      CL52789   7.772   2.143   0.421 -0.1561  0.0118 -0.0941
16621CL      CL52790   4.276   5.633   3.211  0.1097 -0.2258  0.4076
16622CL      CL52791   4.499   7.534   0.233  0.2482  0.0469 -0.2197
16623CL      CL52792   6.155   6.494   1.760 -0.1415  0.1863 -0.0707
16624CL      CL52793   3.913   6.265   3.680 -0.1458 -0.0078 -0.0799
16625CL      CL52794   3.548   4.777   5.299 -0.3623 -0.5424  0.0002
16626CL      CL52795   7.296   8.088   4.221 -0.1541 -0.2020  0.1212
16627CL      CL52796   5.415   1.571   0.922 -0.2211  0.0629  0.0470
16628CL      CL52797   2.679   4.893   6.963  0.0202 -0.2682 -0.3557
16629CL      CL52798   1.466   6.448   0.428  0.4802  0.0224 -0.3289
16630CL      CL52799   0.819   5.378   2.280  0.0800  0.1460 -0.0163
16631CL      CL52800   4.020   5.002   2.956  0.4797 -0.2735 -0.1284
16632CL      CL52801   5.115   5.009   6.038 -0.0495 -0.1120 -0.0689
16633CL      CL52802   4.836   2.680   4.248  0.4460  0.0972 -0.2239
16634CL      CL52803   7.667   2.999   4.756 -0.0245 -0.0866 -0.2173
16635CL      CL52804   2.306   5.620   3.248 -0.5166 -0.1537 -0.0749
16636CL      CL52805   4.717   5.977   5.400 -0.1051  0.1422  0.2231
16637CL      CL52806   3.024   2.574   3.876  0.0099 -0.1301  0.0273
16638CL      CL52807   7.050   4.770   3.007  0.1260 -0.1919  0.3849
16639CL      CL52808   7.141   4.018   5.203 -0.3962  0.0331  0.0832
16640CL      CL52809   4.781   2.866   2.653  0.1828  0.3044  0.0762
16641CL      CL52810   3.913   0.008   7.791  0.2263 -0.0283 -0.2872
16642CL      CL52811   4.562   2.025   3.227 -0.0294  0.4538  0.3604
16643CL      CL52812   5.737   4.633   4.581  0.2274  0.1641  0.3568
16644CL      CL52813   3.078   5.603   5.906 -0.1265 -0.1666  0.1700
16645CL      CL52814   2.611   4.108   3.817 -0.0372 -0.1357  0.2988
16646CL      CL52815   3.931   6.554   6.150  0.0231 -0.1131 -0.1586
16647CL      CL52816   3.821   6.417   2.076  0.0860 -0.0104  0.1334
16648CL      CL52817   2.037   4.581   4.754 -0.3159  0.1788 -0.0903
16649CL      CL52818   4.709   0.614   6.517 -0.0747  0.1428 -0.2749
16650CL      CL52819   6.760   6.011   4.851 -0.1650 -0.0081  0.2526
16651CL      CL52820   6.995   0.576   2.362 -0.1118 -0.1031  0.2367
16652CL      CL52821   6.630   6.714   2.652  0.1324 -0.5484 -0.1197
16653CL      CL52822   0.704   5.880   5.680 -0.2342 -0.2782 -0.2194
16654CL      CL52823   6.367   6.502   5.296 -0.0335 -0.1235 -0.0629
16655CL      CL52824   6.616   1.182   1.086 -0.1333 -0.0369 -0.1360
16656CL      CL52825   3.009   4.839   7.569  0.1835  0.0471  0.1357
16657CL      CL52826   6.599   7.856   6.222 -0.2785  0.3995  0.4353
16658CL      CL52827   6.449   7.591   1.131 -0.2073  0.1018  0.0504
16659CL      CL52828   3.214   5.500   4.775  0.0467 -0.0835 -0.0244
16660CL      CL52829   5.079   7.320   2.835 -0.0833  0.0062  0.0278
16661CL      CL52830   2.727   1.928   3.118 -0.4256  0.2468  0.3396
16662CL      CL52831   2.565   6.142   5.673 -0.2385  0.5430  0.0176
16663CL      CL52832   6.391   4.455   4.578  0.3597  0.1753 -0.4287
16664CL      CL52833   4.219   7.221   5.219 -0.1012 -0.0623 -0.4204
16665CL      CL52834   6.074   3.399   2.309  0.1398 -0.0735 -0.4635
16666CL      CL52835   7.386   2.864   6.393  0.0361 -0.2361 -0.1455
16667CL      CL52836   5.733   7.106   3.609  0.3974  0.0784  0.3290
16668CL      CL52837   4.230   6.040   4.134  0.0535 -0.2204  0.4039
16669CL      CL52838   1.632   6.870   4.782  0.0410  0.0185  0.1286
16670CL      CL52839   5.104   7.967   4.787 -0.1564 -0.4379 -0.1039
16671CL      CL52840   4.422   5.539   6.660  0.0746 -0.2225 -0.0207
16672CL      CL52841   6.651   1.391   7.655 -0.1219  0.4122 -0.2316
16673CL      CL52842   5.057   4.644   4.263  0.2398 -0.1364 -0.0062
16674CL      CL52843   2.833   7.050   4.431  0.0460  0.4089  0.0007
16675CL      CL52844   2.910   5.268   5.386  0.3218  0.4763  0.0929
16676CL      CL52845   4.242   4.841   5.501  0.2214 -0.2040 -0.1824
16677CL      CL52846   5.614   6.254   1.021 -0.1220 -0.2502  0.4248
16678CL      CL52847   5.035   4.919   3.839  0.0376 -0.1305  0.3084
16679CL      CL52848   3.229   6.759   7.653 -0.0799 -0.1784  0.5066
16680CL      CL52849   5.589   7.172   2.321 -0.7357  0.1822  0.1764
16681CL      CL52850   7.721   6.798   5.824 -0.0372  0.5993  0.3856
16682CL      CL52851   6.133   5.051   3.647 -0.2186 -0.4519 -0.0579
16683CL      CL52852   7.285   7.430   4.444 -0.1214  0.2338  0.3367
16684CL      CL52853   4.328   3.883   3.300  0.1083  0.4392  0.3260
16685CL      CL52854   4.007   5.178   1.765 -0.1275 -0.0925  0.2048
16686CL      CL52855   3.061   7.162   5.707  0.0873  0.3771  0.3374
16687CL      CL52856   0.855   2.695   5.175 -0.2972 -0.5187 -0.0983
16688CL      CL52857   4.083   4.014   2.214  0.2752  0.1466  0.0161
16689CL      CL52858   0.417   0.561   6.512 -0.1322  0.0867 -0.0768
16690CL      CL52859   0.869   3.493   6.734 -0.1515 -0.0402 -0.5318
16691CL      CL52860   1.678   3.901   7.753 -0.1157 -0.0271 -0.0076
16692CL      CL52861   6.698   0.710   5.202 -0.3932 -0.2666 -0.0547
16693CL      CL52862   4.851   4.372   5.162 -0.2890  0.0710  0.0433
16694CL      CL52863   5.713   3.923   7.893  0.2579 -0.0538 -0.2514
16695CL      CL52864   6.028   6.921   8.048 -0.3314 -0.1550  0.1080
16696CL      CL52865   6.166   4.784   0.197 -0.0008  0.2383  0.1370
16697CL      CL52866   7.439   4.606   1.632  0.1636 -0.0512 -0.4013
16698CL      CL52867   3.240   7.477   3.392 -0.1777 -0.2534 -0.1852
16699CL      CL52868   5.046   3.822   2.642 -0.0022 -0.1327 -0.1420
16700CL      CL52869   6.391   8.021   3.330  0.3420 -0.0056  0.1388
16701CL      CL52870   4.141   0.228   4.590 -0.2412  0.0868  0.3023
16702CL      CL52871   4.874   3.789   3.782  0.0004 -0.2956 -0.3415
16703CL      CL52872   7.668   4.594   0.116  0.2915  0.0976  0.0842
16704CL      CL52873   6.142   5.035   1.797  0.4132  0.0890  0.2377
16705CL      CL52874   4.538   5.151   1.023 -0.1475 -0.3507  0.0070
16706CL      CL52875   0.739   2.994   2.886  0.5870  0.3262  0.1655
16707CL      CL52876   7.771   5.944   4.221 -0.2716 -0.1422 -0.0286
16708CL      CL52877   4.963   6.607   6.087  0.0779  0.0504  0.2651
16709CL      CL52878   6.223   0.185   5.372 -0.2806 -0.0453 -0.2343
16710CL      CL52879   7.048   6.369   3.632 -0.2466  0.4128  0.1167
16711CL      CL52880   5.518   1.518   1.305  0.2272 -0.2282 -0.0514
16712CL      CL52881   7.287   6.184   2.603  0.0335 -0.2878  0.0681
16713CL      CL52882   3.696   5.944   1.504 -0.3405  0.1089 -0.0054
16714CL      CL52883   7.230   2.382   2.320 -0.4538  0.3525 -0.0658
16715CL      CL52884   0.627   6.102   4.380 -0.0337 -0.6064 -0.1806
16716CL      CL52885   0.860   1.311   3.810 -0.1920 -0.0792 -0.2345
16717CL      CL52886   5.292   3.253   2.165 -0.0323  0.3987  0.1649
16718CL      CL52887   5.394   3.518   0.586 -0.1268  0.1165  0.3974
16719CL      CL52888   2.791   5.176   2.536  0.0022  0.0402  0.2933
16720CL      CL52889   0.435   4.475   3.024  0.3885  0.1742  0.0410
16721CL      CL52890   0.217   0.932   3.998  0.2039  0.1005 -0.2617
16722CL      CL52891   0.538   5.480   2.576 -0.2226 -0.1578 -0.1749
16723CL      CL52892   0.036   4.243   5.679 -0.2649  0.1743  0.2514
16724CL      CL52893   3.858   6.833   3.718 -0.1671  0.0666  0.0646
16725CL      CL52894   2.887   6.488   1.389 -0.4677 -0.1882 -0.2698
16726CL      CL52895   6.012   1.129   3.077  0.1060  0.3072  0.1193
16727CL      CL52896   2.492   6.970   3.297  0.0484 -0.1977  0.4289
16728CL      CL52897   1.979   1.443   1.347  0.0939  0.0110 -0.3256
16729CL      CL52898   2.444   4.922   5.735  0.1046  0.0568 -0.1885
16730CL      CL52899   4.779   5.857   3.846 -0.0560  0.3104  0.1648
16731CL      CL52900   6.321   4.683   3.899 -0.3312  0.0152  0.0126
16732CL      CL52901   0.987   4.396   3.944  0.0777 -0.2950 -0.0119
16733CL      CL52902   4.796   5.386   3.509 -0.1655  0.4081  0.0106
16734CL      CL52903   4.513   6.907   5.378 -0.0255  0.0553  0.2898
16735CL      CL52904   7.175   1.669   1.335 -0.5226  0.1555  0.0062
   8.09606   8.09606   8.09606
