G3.5-PAMAM in water
79241
    1aaa     C1    1   0.048   4.946   7.893  0.8531 -0.3947  0.2129
    1aaa     H1    2   0.083   5.046   7.865 -0.1411  0.4391  1.7731
    1aaa     H2    3   0.089   4.933   7.994 -1.4313  0.4426  1.3206
    1aaa     C2    4   0.103   4.837   7.805 -0.1864  0.4994  0.5448
    1aaa     H3    5   0.048   4.743   7.821  2.0187 -0.9420  0.1395
    1aaa     H4    6   0.087   4.865   7.701  0.8822  1.9392  0.7397
    1aaa     N1    7   0.241   4.798   7.843  0.1257 -0.6150 -0.1500
    1aaa     N2    8  -0.101   4.947   7.901 -0.0864 -0.1111  0.1435
    1aaa     C3    9  -0.167   4.961   7.771  0.2847 -0.1818  0.1633
    1aaa     H5   10  -0.104   4.992   7.686 -0.6221  0.1825 -0.3899
    1aaa     H6   11  -0.240   5.042   7.772  0.3665 -0.1096  1.5272
    1aaa     C4   12  -0.138   5.044   8.004  0.4686  0.1939 -0.1821
    1aaa     H7   13  -0.086   5.015   8.097 -0.8774  1.6160  1.0698
    1aaa     H8   14  -0.107   5.146   7.976  0.3983  0.8310  1.8261
    1aaa     C5   15   0.337   4.911   7.853  0.4039 -0.1250  0.2274
    1aaa     H9   16   0.296   4.990   7.917 -2.8559  0.4252 -2.2105
    1aaa    H10   17   0.429   4.875   7.899  1.3769  2.0254  0.0695
    1aaa     C6   18   0.243   4.715   7.966  0.1035 -0.6904  0.5205
    1aaa    H11   19   0.156   4.750   8.023  2.1624  1.4276  2.5818
    1aaa    H12   20   0.336   4.733   8.022  0.6766  0.9469 -0.8538
    1aaa     C7   21   0.367   4.989   7.724 -0.0641  0.9777  0.0190
    1aaa    H13   22   0.403   4.917   7.650 -1.0201 -1.0753  1.4342
    1aaa    H14   23   0.269   5.029   7.697  0.5226  1.8850 -0.8003
    1aaa     C8   24   0.234   4.567   7.938 -0.3467  0.2431  0.5712
    1aaa    H15   25   0.140   4.546   7.885  1.2712 -0.0870 -2.3749
    1aaa    H16   26   0.314   4.543   7.867 -2.1883  1.4915 -2.0646
    1aaa     C9   27  -0.287   5.042   8.040 -0.0079 -0.0399 -0.1082
    1aaa    H17   28  -0.352   5.075   7.958 -2.4253  0.3287  1.8384
    1aaa    H18   29  -0.303   4.936   8.065 -1.3429  0.2423  0.2969
    1aaa    C10   30  -0.241   4.837   7.737 -0.4335  0.2177  0.0235
    1aaa    H19   31  -0.170   4.754   7.744  0.0674  0.2982 -2.8506
    1aaa    H20   32  -0.323   4.813   7.806  0.8089  0.5886  1.6931
    1aaa    C11   33  -0.321   5.121   8.163 -0.4779  0.6822  0.0105
    1aaa    C12   34  -0.313   4.843   7.603 -0.1908 -0.1261 -0.6473
    1aaa    C13   35   0.478   5.090   7.755  0.1545  0.1771 -0.2766
    1aaa    C14   36   0.239   4.495   8.074  0.2432  0.3399 -0.1010
    1aaa     O1   37  -0.280   5.098   8.275  0.4049 -0.0708 -0.2347
    1aaa     O2   38   0.591   5.056   7.777  0.2093  0.0208  0.0643
    1aaa     O3   39   0.176   4.518   8.173 -0.0910 -0.2665 -0.3790
    1aaa     O4   40  -0.340   4.952   7.553 -0.7434 -0.0408 -0.3148
    2bbb     C1   41  -0.568   5.417   8.181 -0.1011 -0.0952 -0.1642
    2bbb     H1   42  -0.509   5.480   8.113  1.1568 -2.0189 -0.9795
    2bbb     H2   43  -0.597   5.479   8.266 -0.0344 -0.3199  0.0257
    2bbb     C2   44  -0.473   5.307   8.236  0.1430  0.0373  0.4405
    2bbb     H3   45  -0.392   5.346   8.299  1.1733  0.0374 -0.8234
    2bbb     H4   46  -0.524   5.234   8.300  1.3896 -0.7722  0.5390
    2bbb     N1   47  -0.679   5.366   8.110  0.6602 -0.0817  0.1527
    2bbb     C3   48  -0.762   5.471   8.042 -0.4886  0.6848  0.3826
    2bbb     H5   49  -0.831   5.530   8.104 -2.6295 -0.9854 -0.2633
    2bbb     H6   50  -0.815   5.412   7.966  0.1574  0.3040  0.2284
    2bbb     C4   51  -0.766   5.268   8.179  0.1180 -0.7323 -0.9461
    2bbb     H7   52  -0.855   5.238   8.123 -0.6013  1.0677 -0.8317
    2bbb     H8   53  -0.708   5.175   8.189 -0.5980 -1.1233 -0.2958
    2bbb     C5   54  -0.797   5.308   8.329  0.5863  0.7291 -0.5063
    2bbb     H9   55  -0.707   5.302   8.392  0.8100 -1.6183 -0.9353
    2bbb    H10   56  -0.841   5.408   8.327 -0.3084  0.3383 -1.2272
    2bbb     C6   57  -0.674   5.557   7.951  0.3417 -0.1190  0.2154
    2bbb    H11   58  -0.613   5.630   8.006  0.1317  0.8211 -0.7631
    2bbb    H12   59  -0.595   5.505   7.894  1.0489 -0.2487  1.2822
    2bbb     C7   60  -0.896   5.197   8.394 -0.0164 -0.5375  0.5421
    2bbb     C8   61  -0.760   5.631   7.850  0.3451 -0.1559 -0.3056
    2bbb     O1   62  -0.912   5.087   8.346  0.7789 -0.0995 -0.1511
    2bbb     O2   63  -0.880   5.618   7.847  0.1467 -0.3556  0.0356
    2bbb     N4   64  -0.402   5.231   8.131  0.3217 -0.3749 -0.0625
    2bbb    H21   65  -0.432   5.243   8.035  1.1390 -1.7982 -0.5218
    3bbb     C1   66  -0.497   4.595   7.379  0.2866 -0.1603  0.1446
    3bbb     H1   67  -0.518   4.587   7.272 -2.2968 -2.3699  0.7129
    3bbb     H2   68  -0.591   4.603   7.434  2.1277 -0.3813  3.6307
    3bbb     C2   69  -0.417   4.721   7.411  0.5477 -0.2263  0.0113
    3bbb     H3   70  -0.338   4.738   7.337  0.2838 -0.5120 -0.3362
    3bbb     H4   71  -0.488   4.804   7.416 -1.2575 -1.6987 -0.3225
    3bbb     N1   72  -0.433   4.472   7.429  0.1604  0.4001  0.7129
    3bbb     C3   73  -0.326   4.441   7.337 -0.0169  0.0383 -0.0505
    3bbb     H5   74  -0.268   4.534   7.343 -0.6608  0.4667 -0.3586
    3bbb     H6   75  -0.359   4.421   7.234 -0.0653  1.3735 -0.3094
    3bbb     C4   76  -0.528   4.353   7.451  0.7431  0.1066  0.4292
    3bbb     H7   77  -0.595   4.345   7.364  0.9007  3.3260 -0.1264
    3bbb     H8   78  -0.469   4.261   7.461  0.2215 -0.0835  2.0085
    3bbb     C5   79  -0.609   4.384   7.577  0.1222 -0.5301 -0.2069
    3bbb     H9   80  -0.538   4.371   7.659  1.4429  1.9224 -0.8786
    3bbb    H10   81  -0.640   4.490   7.581 -0.4818 -0.4781 -3.3983
    3bbb     C6   82  -0.236   4.323   7.377 -0.3289 -0.3888  0.0226
    3bbb    H11   83  -0.206   4.314   7.482 -3.1171 -1.2762  0.8525
    3bbb    H12   84  -0.291   4.229   7.363  0.1643 -0.6850  0.0441
    3bbb     C7   85  -0.723   4.298   7.600 -0.3469 -0.4378 -0.0231
    3bbb     C8   86  -0.126   4.322   7.273 -0.0447  0.3526 -0.2076
    3bbb     O1   87  -0.715   4.182   7.630  0.2845 -0.0653 -0.0430
    3bbb     O2   88  -0.132   4.252   7.176  0.4274  0.2840  0.0354
    3bbb     N4   89  -0.353   4.724   7.548 -0.2821  1.0630 -0.1814
    3bbb    H21   90  -0.336   4.640   7.603 -0.6497 -0.3741 -2.1672
    4bbb     C1   91   0.513   5.442   7.672  0.1394  0.4212  0.2797
    4bbb     H1   92   0.416   5.421   7.624  0.8491  1.2916 -1.6257
    4bbb     H2   93   0.592   5.437   7.596  0.6101 -1.1745  0.8264
    4bbb     C2   94   0.542   5.334   7.766  0.3225 -0.2377 -0.5263
    4bbb     H3   95   0.644   5.296   7.751  0.4782 -0.1148  0.1611
    4bbb     H4   96   0.548   5.357   7.873 -0.3661 -2.1728 -0.0315
    4bbb     N1   97   0.509   5.574   7.747 -0.3336 -0.6303 -0.0361
    4bbb     C3   98   0.382   5.591   7.814  0.1608 -0.2203 -0.4980
    4bbb     H5   99   0.315   5.505   7.804 -0.6511  0.2060  0.9124
    4bbb     H6  100   0.325   5.678   7.778  1.4958  0.6297 -0.6096
    4bbb     C4  101   0.552   5.685   7.657  0.3615  0.6413 -0.5104
    4bbb     H7  102   0.642   5.665   7.597  1.4044 -0.5289  1.3516
    4bbb     H8  103   0.470   5.708   7.587 -0.5683 -1.4014 -0.1799
    4bbb     C5  104   0.571   5.812   7.736 -0.1155  0.6127  0.1452
    4bbb     H9  105   0.481   5.841   7.793 -0.2766 -1.0560  0.7991
    4bbb    H10  106   0.660   5.796   7.799 -0.2343 -2.4781 -0.3519
    4bbb     C6  107   0.396   5.607   7.967 -0.1204 -0.3459  0.2467
    4bbb    H11  108   0.419   5.508   8.008  2.6805  0.2233  0.2577
    4bbb    H12  109   0.466   5.683   8.003 -0.5856 -0.7319  2.0550
    4bbb     C7  110   0.597   5.914   7.631 -0.0567 -0.1224  0.6335
    4bbb     C8  111   0.259   5.646   8.021 -0.0714  0.2248  0.6529
    4bbb     O1  112   0.505   5.969   7.577 -0.2903 -0.1238 -0.1009
    4bbb     O2  113   0.160   5.574   8.017  0.5959  0.1785 -0.1748
    4bbb     N4  114   0.445   5.222   7.754 -0.2444 -0.0690 -0.3399
    4bbb    H21  115   0.348   5.240   7.732  0.0456 -0.6411 -2.3007
    5bbb     C1  116   0.556   4.344   8.202 -0.4102 -0.3078 -0.3451
    5bbb     H1  117   0.587   4.244   8.169  0.8092  0.3508 -1.2847
    5bbb     H2  118   0.588   4.359   8.306  2.2817  1.2017 -1.2833
    5bbb     C2  119   0.407   4.338   8.181  0.4593  0.0934 -0.4916
    5bbb     H3  120   0.387   4.230   8.180  2.2457 -0.2843 -0.1461
    5bbb     H4  121   0.360   4.384   8.269  1.5490 -0.3443  0.3522
    5bbb     N1  122   0.616   4.448   8.121  0.9088  0.3308 -0.8274
    5bbb     C3  123   0.613   4.575   8.190 -0.0260  0.6276  0.0899
    5bbb     H5  124   0.698   4.590   8.258 -0.4084  0.6338  0.5772
    5bbb     H6  125   0.522   4.578   8.251 -0.5720 -0.1341 -0.6776
    5bbb     C4  126   0.759   4.423   8.088  0.1178  0.3891  0.6467
    5bbb     H7  127   0.809   4.512   8.046 -1.5341  1.4312  0.7603
    5bbb     H8  128   0.817   4.389   8.175  0.0391 -1.2255  0.0890
    5bbb     C5  129   0.765   4.318   7.982  0.3319  0.1692  0.5898
    5bbb     H9  130   0.764   4.217   8.023  0.5184  0.0867  0.3961
    5bbb    H10  131   0.681   4.323   7.912  0.5904  0.1963  0.2802
    5bbb     C6  132   0.614   4.682   8.087 -1.0474 -0.2281 -0.0694
    5bbb    H11  133   0.706   4.705   8.032 -1.6969  1.2330 -0.6056
    5bbb    H12  134   0.552   4.647   8.004  0.2227 -0.6241 -0.8840
    5bbb     C7  135   0.885   4.338   7.895 -0.7499 -0.1142  0.0351
    5bbb     C8  136   0.560   4.813   8.143  0.6982 -0.0563 -0.1019
    5bbb     O1  137   0.885   4.369   7.777  0.2457 -0.7925  0.7981
    5bbb     O2  138   0.472   4.815   8.226  0.1643 -0.7566  0.1539
    5bbb     N4  139   0.333   4.399   8.067  0.3371  0.7369 -0.5272
    5bbb    H21  140   0.362   4.376   7.972  0.0359  0.5939 -0.5846
    6bbb     C1  141  -1.101   5.187   8.714 -0.1182 -0.4325 -0.5125
    6bbb     H1  142  -1.005   5.184   8.767 -1.1971 -0.0133  1.5553
    6bbb     H2  143  -1.181   5.123   8.752  0.6747 -1.1456 -0.0131
    6bbb     C2  144  -1.068   5.149   8.567  0.1444  0.0117  0.0040
    6bbb     H3  145  -1.026   5.048   8.561  1.0038  0.3436  0.2422
    6bbb     H4  146  -1.163   5.146   8.512 -0.2997 -0.8662  0.7915
    6bbb     N1  147  -1.147   5.324   8.737 -0.3394  0.5017  0.2199
    6bbb     C3  148  -1.145   5.364   8.884 -0.1078 -0.2645 -0.0972
    6bbb     H5  149  -1.174   5.281   8.951  2.8280 -0.1205  1.5296
    6bbb     H6  150  -1.204   5.453   8.908  1.1313  0.9098 -1.2648
    6bbb     C4  151  -1.280   5.336   8.683 -0.1838  0.4416 -0.1723
    6bbb     H7  152  -1.284   5.322   8.575 -0.3010  2.9661 -0.5383
    6bbb     H8  153  -1.347   5.260   8.727  0.4041  0.7374  1.3158
    6bbb     C5  154  -1.340   5.473   8.687  0.9605 -0.3108 -1.2949
    6bbb     H9  155  -1.258   5.545   8.694  1.4214 -0.5148 -3.5550
    6bbb    H10  156  -1.391   5.494   8.592  2.4635  1.2000 -1.8158
    6bbb     C6  157  -1.001   5.408   8.918  0.2576  0.1579  0.2068
    6bbb    H11  158  -0.936   5.320   8.908  1.2829  0.8674  0.4173
    6bbb    H12  159  -0.971   5.492   8.855 -1.4168  0.4519 -0.2446
    6bbb     C7  160  -1.438   5.487   8.801  0.0696 -0.4105  1.0170
    6bbb     C8  161  -0.983   5.455   9.058  0.2053 -0.1712 -0.1684
    6bbb     O1  162  -1.492   5.393   8.854  0.0748 -0.0210  0.4382
    6bbb     O2  163  -1.069   5.464   9.142 -0.6773 -0.8906  0.3649
    6bbb     N4  164  -0.973   5.236   8.499 -0.1048 -0.2918  0.0188
    6bbb    H21  165  -0.937   5.323   8.537 -0.1952  0.8133 -2.1893
    7bbb     C1  166  -0.775   5.905   7.631 -0.0477 -0.1758  0.6331
    7bbb     H1  167  -0.848   5.937   7.707 -0.9773  3.8245 -1.6941
    7bbb     H2  168  -0.820   5.922   7.533  0.0950 -2.2066  0.1677
    7bbb     C2  169  -0.734   5.759   7.632 -0.8261  0.1502 -0.7824
    7bbb     H3  170  -0.819   5.703   7.592 -1.5609  1.7385 -1.5295
    7bbb     H4  171  -0.649   5.748   7.564  1.3603  1.1402  1.6099
    7bbb     N1  172  -0.665   6.003   7.641  0.1049  0.1840 -0.0929
    7bbb     C3  173  -0.616   6.036   7.779  0.4875 -0.0955 -0.4417
    7bbb     H5  174  -0.515   6.077   7.768 -0.3916  2.4041  0.0674
    7bbb     H6  175  -0.599   5.947   7.840  0.4834 -0.9764 -1.6888
    7bbb     C4  176  -0.560   5.973   7.542  0.0859  0.2584  0.0041
    7bbb     H7  177  -0.484   5.911   7.590  1.0172  0.3175 -1.3449
    7bbb     H8  178  -0.599   5.915   7.458 -1.1342 -0.0784  0.7782
    7bbb     C5  179  -0.503   6.098   7.485 -0.4022  0.1347  0.4146
    7bbb     H9  180  -0.590   6.163   7.467 -0.7618 -0.0818  1.3058
    7bbb    H10  181  -0.451   6.147   7.568  1.8768  1.6803 -1.7684
    7bbb     C6  182  -0.713   6.129   7.852 -0.3547  0.6292  0.6429
    7bbb    H11  183  -0.751   6.196   7.775 -0.4507 -0.9023 -0.6820
    7bbb    H12  184  -0.802   6.074   7.886 -0.6172  1.4731  1.3623
    7bbb     C7  185  -0.429   6.084   7.357  0.8074 -0.2333  0.3696
    7bbb     C8  186  -0.645   6.201   7.970 -0.3667 -0.7680  0.3824
    7bbb     O1  187  -0.486   6.088   7.250 -0.2238  0.6548 -0.1300
    7bbb     O2  188  -0.542   6.163   8.026 -0.1436 -0.0969 -0.1737
    7bbb     N4  189  -0.685   5.712   7.768 -0.6104  0.1726  0.9983
    7bbb    H21  190  -0.585   5.703   7.781 -0.5098 -2.8179 -0.7993
    8bbb     C1  191  -1.091   4.387   7.515 -0.6000 -0.9152 -1.0814
    8bbb     H1  192  -1.190   4.341   7.518 -0.0593 -2.0687  0.8551
    8bbb     H2  193  -1.067   4.384   7.408 -0.3640 -0.7496 -1.0341
    8bbb     C2  194  -0.981   4.305   7.577 -0.9613  0.1613  0.2267
    8bbb     H3  195  -1.008   4.281   7.680  0.6822 -0.2058  0.5984
    8bbb     H4  196  -0.968   4.216   7.514  0.2303  0.7286 -0.3726
    8bbb     N1  197  -1.084   4.528   7.564 -0.3097 -0.3759  0.4275
    8bbb     C3  198  -1.133   4.529   7.701  0.3186  0.2173 -0.0494
    8bbb     H5  199  -1.092   4.444   7.758  1.4851 -1.0178 -2.5832
    8bbb     H6  200  -1.243   4.524   7.703  0.2649  0.6042 -1.2682
    8bbb     C4  201  -1.150   4.614   7.470 -0.1291 -0.3519  0.2526
    8bbb     H7  202  -1.233   4.564   7.419 -0.6520  0.3080  0.4417
    8bbb     H8  203  -1.191   4.707   7.512 -0.5233 -0.1169 -0.6237
    8bbb     C5  204  -1.051   4.655   7.352  0.1335  0.2268  0.3792
    8bbb     H9  205  -0.963   4.707   7.390  2.3947 -1.6065 -1.9580
    8bbb    H10  206  -1.023   4.566   7.294 -0.2681  0.6209 -0.4429
    8bbb     C6  207  -1.088   4.657   7.767 -0.7869 -0.3221  0.0665
    8bbb    H11  208  -1.128   4.745   7.715  0.2071 -0.4354 -0.9411
    8bbb    H12  209  -1.125   4.660   7.870 -0.5138 -1.7807  0.2303
    8bbb     C7  210  -1.119   4.756   7.264 -0.3074 -0.2887 -0.6165
    8bbb     C8  211  -0.937   4.670   7.766  0.1764 -0.2220  0.7750
    8bbb     O1  212  -1.139   4.867   7.310  0.0680 -0.0529  0.5145
    8bbb     O2  213  -0.868   4.579   7.809  0.4332  0.2862 -0.0702
    8bbb     N4  214  -0.845   4.364   7.576  0.2741  0.5299 -0.5314
    8bbb    H21  215  -0.839   4.465   7.571  2.2407  0.5609  1.2235
    9bbb     C1  216   0.226   4.454   7.317  0.4775  0.5989 -0.3159
    9bbb     H1  217   0.243   4.361   7.374  0.1797  0.0299 -1.1425
    9bbb     H2  218   0.212   4.532   7.393  0.9206  1.6194 -1.2704
    9bbb     C2  219   0.100   4.431   7.229 -0.1054 -0.0235 -0.3724
    9bbb     H3  220   0.079   4.518   7.165 -0.4090  0.3736  0.2534
    9bbb     H4  221   0.113   4.344   7.163  2.6196  0.1434 -0.1840
    9bbb     N1  222   0.335   4.481   7.229 -0.3525  0.2163 -0.0009
    9bbb     C3  223   0.381   4.355   7.157 -0.4216 -0.5767 -0.8809
    9bbb     H5  224   0.291   4.300   7.127 -0.9835 -0.3544  0.3128
    9bbb     H6  225   0.455   4.297   7.215 -0.6040 -1.8249 -1.8572
    9bbb     C4  226   0.445   4.535   7.305  0.0959 -0.4245  0.4780
    9bbb     H7  227   0.442   4.494   7.407  0.1570  1.0728  1.1065
    9bbb     H8  228   0.544   4.522   7.259  0.1159 -2.9297  1.0687
    9bbb     C5  229   0.418   4.686   7.316 -0.2659  1.3917  0.1333
    9bbb     H9  230   0.410   4.722   7.213 -3.1458  1.2800  0.2245
    9bbb    H10  231   0.323   4.716   7.363 -1.2531 -0.8726 -0.2848
    9bbb     C6  232   0.447   4.389   7.032 -0.4270 -0.3781  0.2407
    9bbb    H11  233   0.377   4.443   6.966  1.5428  0.3819 -1.3316
    9bbb    H12  234   0.539   4.447   7.046  1.2647 -3.2789  1.9488
    9bbb     C7  235   0.523   4.758   7.390 -0.8920  0.5688  0.5784
    9bbb     C8  236   0.500   4.262   6.957  0.1901 -0.3921  0.2376
    9bbb     O1  237   0.620   4.707   7.436 -0.7217  0.1190 -0.0132
    9bbb     O2  238   0.522   4.158   7.014 -0.1743  0.0641  0.0954
    9bbb     N4  239  -0.021   4.405   7.309 -0.0494  0.4180 -0.0592
    9bbb    H21  240  -0.025   4.464   7.392 -1.3107  2.4193 -1.4318
   10bbb     C1  241   0.920   6.021   7.455 -0.4710 -0.1699 -0.3209
   10bbb     H1  242   0.949   5.917   7.441 -0.7517 -0.0670 -1.8930
   10bbb     H2  243   0.985   6.049   7.538 -0.2956 -0.5243 -0.3397
   10bbb     C2  244   0.779   6.044   7.504 -0.2778  0.7420  0.4480
   10bbb     H3  245   0.782   6.138   7.560 -0.3966 -0.5071  2.6422
   10bbb     H4  246   0.717   6.054   7.414  1.0336 -0.8611 -0.6968
   10bbb     N1  247   0.961   6.107   7.342  0.4376  0.1380 -0.3688
   10bbb     C3  248   0.910   6.069   7.214 -0.2802 -0.2764 -0.0773
   10bbb     H5  249   0.812   6.019   7.220 -0.9660  0.6516 -2.5025
   10bbb     H6  250   0.974   5.998   7.161  0.4607  0.8903 -0.7689
   10bbb     C4  251   1.112   6.103   7.333  0.5429  0.9686  0.3506
   10bbb     H7  252   1.151   6.000   7.327 -0.8324  0.4662 -0.6538
   10bbb     H8  253   1.134   6.145   7.234 -0.4115  0.8825  0.0905
   10bbb     C5  254   1.161   6.211   7.431  0.3680  0.2686 -0.1536
   10bbb     H9  255   1.124   6.193   7.532  1.5038  1.0101  0.4236
   10bbb    H10  256   1.270   6.223   7.429  0.5681 -1.3531  0.1629
   10bbb     C6  257   0.883   6.190   7.128 -0.0300  0.5956  0.1745
   10bbb    H11  258   0.837   6.279   7.173  2.0039  1.0870  1.4486
   10bbb    H12  259   0.983   6.226   7.099  1.5346 -2.4884  1.2710
   10bbb     C7  260   1.113   6.349   7.381  0.7803  0.5444 -0.0068
   10bbb     C8  261   0.805   6.146   7.010 -0.4009  0.5112  0.1619
   10bbb     O1  262   1.116   6.381   7.266  0.6386 -0.4213 -0.1326
   10bbb     O2  263   0.842   6.056   6.940 -0.4662  0.3780  0.2022
   10bbb     N4  264   0.726   5.927   7.587  0.0200  0.0435 -0.5409
   10bbb    H21  265   0.788   5.860   7.631 -0.0674 -0.2008 -0.7849
   11bbb     C1  266   0.163   5.992   8.147  0.0429  0.1702  0.2758
   11bbb     H1  267   0.068   6.029   8.187 -0.0712 -0.6097  0.7346
   11bbb     H2  268   0.200   6.066   8.074 -0.9664  0.8908  0.4727
   11bbb     C2  269   0.136   5.855   8.080 -0.0562 -0.5397 -0.0721
   11bbb     H3  270   0.063   5.794   8.136 -1.6707 -2.5800 -4.0147
   11bbb     H4  271   0.089   5.872   7.982  0.4995  0.3075 -0.1917
   11bbb     N1  272   0.249   5.992   8.269  0.0314  0.2841  0.6757
   11bbb     C3  273   0.255   6.130   8.317 -0.1612 -0.4775 -0.5277
   11bbb     H5  274   0.275   6.127   8.425 -1.6840 -0.5493 -0.2217
   11bbb     H6  275   0.154   6.171   8.311 -0.5526 -0.8711  1.9101
   11bbb     C4  276   0.207   5.897   8.374 -0.5110 -0.6713 -0.0710
   11bbb     H7  277   0.209   5.792   8.339  0.4044 -0.6151 -0.2340
   11bbb     H8  278   0.276   5.911   8.458 -0.3099  2.1207 -0.6223
   11bbb     C5  279   0.070   5.937   8.427 -0.1927 -0.6085 -0.0742
   11bbb     H9  280   0.064   6.043   8.456 -0.5577 -0.4417 -0.7446
   11bbb    H10  281  -0.003   5.926   8.346 -0.3740 -0.3157  0.0457
   11bbb     C6  282   0.354   6.207   8.242  0.0633  0.6804  0.2291
   11bbb    H11  283   0.452   6.162   8.263 -0.5061 -0.4243  0.6021
   11bbb    H12  284   0.343   6.215   8.133  1.5201 -2.8056 -0.3284
   11bbb     C7  285   0.036   5.844   8.540  0.4656  0.5479 -0.3383
   11bbb     C8  286   0.377   6.339   8.298  0.3938  0.1718 -0.1579
   11bbb     O1  287   0.105   5.762   8.596  0.1887  0.4944  0.0547
   11bbb     O2  288   0.466   6.352   8.383  0.6494  0.2150 -0.6127
   11bbb     N4  289   0.262   5.772   8.063 -0.0222 -0.3663 -0.9351
   11bbb    H21  290   0.343   5.829   8.038  0.2424  0.0804  0.7831
   12bbb     C1  291   1.241   4.389   7.935 -0.0155  0.1663 -0.5741
   12bbb     H1  292   1.339   4.365   7.894 -0.4695 -1.6634 -0.6377
   12bbb     H2  293   1.256   4.367   8.042 -0.3187 -0.6921 -0.7013
   12bbb     C2  294   1.138   4.289   7.886 -0.4094  1.0394 -0.4321
   12bbb     H3  295   1.108   4.289   7.780  0.2595 -1.3611 -0.6724
   12bbb     H4  296   1.176   4.189   7.907  0.5885  1.7160  1.1444
   12bbb     N1  297   1.206   4.528   7.900  0.7114  0.3492  0.2665
   12bbb     C3  298   1.288   4.590   7.798  0.2692 -0.0713  0.3396
   12bbb     H5  299   1.392   4.584   7.835  0.7189  0.0442 -0.8546
   12bbb     H6  300   1.256   4.692   7.773  0.5997 -0.4412 -1.8207
   12bbb     C4  301   1.205   4.610   8.021 -0.0849  0.8823 -0.1115
   12bbb     H7  302   1.289   4.593   8.090 -1.3621  2.8457  2.0783
   12bbb     H8  303   1.214   4.715   7.989 -0.5100  0.3968 -1.8675
   12bbb     C5  304   1.077   4.584   8.095  0.2462 -0.2676  0.2614
   12bbb     H9  305   0.992   4.599   8.028 -0.1560  1.1653  1.0374
   12bbb    H10  306   1.072   4.482   8.136 -0.0753  0.0013  0.9133
   12bbb     C6  307   1.296   4.522   7.660  0.0718 -0.3341 -0.2695
   12bbb    H11  308   1.339   4.421   7.666  2.2415  0.3570 -2.6417
   12bbb    H12  309   1.189   4.509   7.639 -0.6465  1.8006  1.6375
   12bbb     C7  310   1.060   4.671   8.213  0.8687 -0.3021  0.0404
   12bbb     C8  311   1.371   4.604   7.557 -0.2530 -0.1974 -0.2680
   12bbb     O1  312   0.988   4.769   8.195 -0.7792  0.1031  0.2090
   12bbb     O2  313   1.468   4.673   7.569  0.3301 -0.1126 -0.3181
   12bbb     N4  314   1.004   4.301   7.954  0.1732 -0.3578  0.3188
   12bbb    H21  315   0.999   4.272   8.051  3.4234  0.5355  0.8819
   13bbb     C1  316   0.583   5.161   8.087 -0.8126 -0.3676  0.2761
   13bbb     H1  317   0.519   5.113   8.012  0.6220 -0.4530 -0.9538
   13bbb     H2  318   0.669   5.183   8.023 -1.0302  1.5733  0.6022
   13bbb     C2  319   0.612   5.049   8.192 -0.3171 -0.8619  0.4647
   13bbb     H3  320   0.706   5.069   8.245  2.1742 -1.9916 -3.1068
   13bbb     H4  321   0.529   5.034   8.261  1.0530  0.1648  2.4300
   13bbb     N1  322   0.530   5.291   8.136  0.6836  1.0768  0.0314
   13bbb     C3  323   0.628   5.353   8.227 -0.7809  0.6438 -0.3481
   13bbb     H5  324   0.728   5.353   8.181  1.1388  0.0261  3.4444
   13bbb     H6  325   0.634   5.300   8.322 -2.5022  0.6643 -0.2052
   13bbb     C4  326   0.398   5.264   8.192  0.5008  0.2195 -0.6902
   13bbb     H7  327   0.403   5.182   8.264 -0.8532  1.1470  0.5165
   13bbb     H8  328   0.362   5.356   8.240  2.0470 -0.1249  1.2455
   13bbb     C5  329   0.289   5.227   8.097 -0.2213  0.6686 -0.1623
   13bbb     H9  330   0.279   5.287   8.006  1.4298  0.7723 -0.3096
   13bbb    H10  331   0.316   5.124   8.069 -1.2728  0.3862 -0.1530
   13bbb     C6  332   0.596   5.499   8.255 -0.0563 -0.1629 -0.1173
   13bbb    H11  333   0.606   5.560   8.164  0.3501  0.4602  0.3381
   13bbb    H12  334   0.502   5.516   8.309  0.9174  1.5138  1.0987
   13bbb     C7  335   0.166   5.221   8.174  0.6751 -0.9312 -0.6630
   13bbb     C8  336   0.696   5.531   8.360 -0.3633  0.2371 -0.5339
   13bbb     O1  337   0.147   5.141   8.263  0.2387 -0.2915  0.2980
   13bbb     O2  338   0.686   5.487   8.470  0.0081 -0.5075 -0.0329
   13bbb     N4  339   0.638   4.921   8.119  0.0399  0.3997 -0.4441
   13bbb    H21  340   0.721   4.901   8.065  2.2250  0.2777  2.6878
   14bbb     C1  341  -1.489   5.675   9.098 -0.0954  0.2757 -0.3843
   14bbb     H1  342  -1.445   5.576   9.115  0.7676  0.6027 -0.6774
   14bbb     H2  343  -1.572   5.685   9.170 -1.0775 -2.1367 -1.0984
   14bbb     C2  344  -1.542   5.669   8.955 -0.1240 -0.5349 -0.3154
   14bbb     H3  345  -1.635   5.611   8.945 -0.8482  0.8225 -2.2083
   14bbb     H4  346  -1.573   5.771   8.927  0.8774 -0.1104  0.0898
   14bbb     N1  347  -1.403   5.794   9.131  0.4019  0.5694  0.3670
   14bbb     C3  348  -1.479   5.917   9.145  0.2941  0.6033  0.0553
   14bbb     H5  349  -1.519   5.924   9.247 -0.6404 -0.5011 -0.2208
   14bbb     H6  350  -1.574   5.909   9.090 -1.3076  2.1873  2.4019
   14bbb     C4  351  -1.328   5.773   9.254  0.5660 -0.7061 -0.0198
   14bbb     H7  352  -1.356   5.837   9.339  2.2702 -0.5931  0.4914
   14bbb     H8  353  -1.352   5.673   9.291 -0.1660  0.3227  2.5567
   14bbb     C5  354  -1.178   5.774   9.213  0.4874 -0.6167  0.1698
   14bbb     H9  355  -1.156   5.684   9.155 -2.2865 -1.0718 -0.3050
   14bbb    H10  356  -1.156   5.861   9.150 -0.9899 -0.5243 -0.2672
   14bbb     C6  357  -1.400   6.036   9.102  0.1678 -0.3508  0.7703
   14bbb    H11  358  -1.310   6.049   9.164  2.1824  0.3366 -2.0740
   14bbb    H12  359  -1.364   6.035   8.998  2.3224 -2.8740  1.4325
   14bbb     C7  360  -1.091   5.777   9.333  0.4553 -0.1314 -0.3947
   14bbb     C8  361  -1.484   6.164   9.118 -0.3279  0.2802 -0.7689
   14bbb     O1  362  -1.131   5.730   9.440  0.3598 -0.0226  0.8293
   14bbb     O2  363  -1.600   6.171   9.151  0.0493  0.1687  0.0542
   14bbb     N4  364  -1.453   5.620   8.844 -0.1469 -0.3843  0.1958
   14bbb    H21  365  -1.436   5.692   8.775  2.1292 -0.1801  0.8893
   15bbb     C1  366  -0.666   5.482   9.238 -0.2663 -0.2888  0.1618
   15bbb     H1  367  -0.602   5.490   9.149  0.3543 -2.7656  0.3170
   15bbb     H2  368  -0.682   5.374   9.240  1.1457 -0.7015 -3.3464
   15bbb     C2  369  -0.793   5.552   9.200  0.4956  0.1176 -0.6598
   15bbb     H3  370  -0.871   5.553   9.278  0.7674  2.6111 -0.3562
   15bbb     H4  371  -0.775   5.660   9.196 -1.9141  0.6879  1.2611
   15bbb     N1  372  -0.617   5.535   9.359  0.2158  0.4785 -0.8069
   15bbb     C3  373  -0.681   5.455   9.466 -0.7487  0.5571  0.1637
   15bbb     H5  374  -0.633   5.357   9.477  0.1785  0.9809 -0.0339
   15bbb     H6  375  -0.787   5.445   9.437 -0.8840  1.1637  0.4345
   15bbb     C4  376  -0.469   5.517   9.357  0.5643 -0.0012  0.1267
   15bbb     H7  377  -0.421   5.511   9.456  3.1082 -0.8593 -1.0669
   15bbb     H8  378  -0.438   5.427   9.303 -0.7306 -0.2124 -0.2950
   15bbb     C5  379  -0.403   5.633   9.288  0.0594 -0.4618  0.1089
   15bbb     H9  380  -0.457   5.659   9.196 -0.5875  1.7204  1.0392
   15bbb    H10  381  -0.410   5.727   9.346  0.9346  0.4050 -1.1407
   15bbb     C6  382  -0.667   5.533   9.593  0.7867 -0.0329 -0.4762
   15bbb    H11  383  -0.565   5.572   9.607  0.4743  1.0638 -1.1748
   15bbb    H12  384  -0.741   5.613   9.602  0.9730  0.0244  0.6819
   15bbb     C7  385  -0.263   5.598   9.254  0.3459 -0.7345  0.0091
   15bbb     C8  386  -0.702   5.434   9.702 -0.3493 -0.1688 -0.1682
   15bbb     O1  387  -0.236   5.565   9.141  0.1548  0.2045 -0.2521
   15bbb     O2  388  -0.626   5.384   9.775  0.2025 -0.0366 -0.2554
   15bbb     N4  389  -0.850   5.504   9.078  0.3499  0.7526  0.3487
   15bbb    H21  390  -0.791   5.495   8.996  0.4075  0.2740  0.4416
   16bbb     C1  391  -0.068   6.012   7.247  0.8089 -0.0323 -0.1480
   16bbb     H1  392  -0.045   5.974   7.348  1.7051 -0.0447 -0.3449
   16bbb     H2  393  -0.034   6.116   7.236  2.9807 -0.7761 -1.1161
   16bbb     C2  394  -0.218   6.013   7.240  0.4104  0.4464 -0.0536
   16bbb     H3  395  -0.228   6.091   7.162  2.7356 -0.2881 -1.1605
   16bbb     H4  396  -0.255   5.913   7.214 -0.1190  0.0769  2.0130
   16bbb     N1  397  -0.002   5.931   7.145  0.1304 -1.0931  0.2520
   16bbb     C3  398   0.142   5.934   7.148 -0.3234 -0.0378 -0.1174
   16bbb     H5  399   0.168   6.038   7.127  2.6012 -0.1506  2.2875
   16bbb     H6  400   0.192   5.867   7.077 -0.1259 -0.5249  0.4689
   16bbb     C4  401  -0.054   5.948   7.010 -0.5926 -0.1478  0.1454
   16bbb     H7  402  -0.160   5.973   7.004 -1.2239 -2.6130 -0.0520
   16bbb     H8  403   0.010   6.023   6.961  1.3243 -0.6068  1.8111
   16bbb     C5  404  -0.028   5.826   6.928  0.5580 -0.1539  0.5402
   16bbb     H9  405   0.077   5.821   6.895 -0.3130  0.1414 -2.6098
   16bbb    H10  406  -0.054   5.739   6.989  1.1778 -0.6778  0.0801
   16bbb     C6  407   0.208   5.918   7.283 -0.1298  0.4891 -0.7197
   16bbb    H11  408   0.187   5.993   7.361 -0.3438 -0.7747  0.4966
   16bbb    H12  409   0.190   5.818   7.326 -0.1159  1.2983  1.2837
   16bbb     C7  410  -0.118   5.816   6.805 -0.5430 -0.8027 -0.4147
   16bbb     C8  411   0.355   5.927   7.258  0.9809  0.3175 -0.5723
   16bbb     O1  412  -0.164   5.917   6.752  0.2637 -0.6454  0.4253
   16bbb     O2  413   0.412   6.036   7.237 -0.2367 -0.6752  0.8638
   16bbb     N4  414  -0.290   6.067   7.364  0.0528  0.0278  0.4762
   16bbb    H21  415  -0.242   6.086   7.451  0.4968  0.3501  0.1669
   17bbb     C1  416  -0.713   6.578   8.035  0.0800 -0.0978  0.5865
   17bbb     H1  417  -0.820   6.573   8.010  0.6541 -1.5224 -1.9524
   17bbb     H2  418  -0.651   6.605   7.949  1.4155 -1.6026  1.0280
   17bbb     C2  419  -0.661   6.435   8.084 -0.0056  0.4908 -0.3428
   17bbb     H3  420  -0.552   6.437   8.075 -0.1693  2.0313 -3.0421
   17bbb     H4  421  -0.697   6.420   8.187  0.8604  2.3984  0.2792
   17bbb     N1  422  -0.686   6.678   8.141 -0.2498  0.1533 -0.0575
   17bbb     C3  423  -0.758   6.804   8.132 -0.0468  0.6976  0.3086
   17bbb     H5  424  -0.766   6.837   8.028  4.2007  0.3762 -0.3010
   17bbb     H6  425  -0.702   6.881   8.187  1.0587  1.3570 -1.6421
   17bbb     C4  426  -0.540   6.716   8.133 -0.4125 -0.0473 -0.4556
   17bbb     H7  427  -0.478   6.634   8.095  1.7541  1.0876  0.4471
   17bbb     H8  428  -0.525   6.805   8.071 -2.3601  1.1537  0.6812
   17bbb     C5  429  -0.484   6.738   8.274  0.1109 -0.6940 -0.0994
   17bbb     H9  430  -0.510   6.838   8.311  1.4354 -0.3363 -0.1008
   17bbb    H10  431  -0.524   6.663   8.344 -2.4097 -1.1329 -1.8483
   17bbb     C6  432  -0.900   6.792   8.196 -0.6324 -0.3702 -0.4416
   17bbb    H11  433  -0.950   6.709   8.145 -0.8099 -0.7633  0.3482
   17bbb    H12  434  -0.913   6.776   8.304  0.2642 -0.2262 -0.2976
   17bbb     C7  435  -0.331   6.728   8.262  0.4573 -0.4065 -0.7911
   17bbb     C8  436  -0.977   6.921   8.172  0.2954 -0.5740 -0.1148
   17bbb     O1  437  -0.280   6.782   8.165 -0.0086 -0.1925 -0.2415
   17bbb     O2  438  -1.061   6.911   8.084  0.0639 -0.2665  0.2320
   17bbb     N4  439  -0.701   6.320   8.002  0.1897 -0.5679 -0.0922
   17bbb    H21  440  -0.780   6.336   7.940 -0.6048 -1.4093  0.6789
   18bbb     C1  441  -1.350   4.803   6.989 -0.0321 -0.3864  0.1354
   18bbb     H1  442  -1.409   4.875   7.047 -2.1136 -0.3385 -1.8807
   18bbb     H2  443  -1.398   4.706   7.007  0.6494 -0.8151 -0.2976
   18bbb     C2  444  -1.201   4.803   7.028  0.0904 -0.3231 -0.0727
   18bbb     H3  445  -1.139   4.775   6.942 -1.0224  0.6740 -1.2424
   18bbb     H4  446  -1.173   4.907   7.052 -0.0916  0.2941 -2.3294
   18bbb     N1  447  -1.358   4.835   6.843  0.1170 -0.3260  0.3055
   18bbb     C3  448  -1.460   4.935   6.800 -0.5778 -0.0822  0.4544
   18bbb     H5  449  -1.560   4.902   6.829  0.5384 -2.0940  2.3020
   18bbb     H6  450  -1.448   4.960   6.694  0.1985 -0.3123  0.4767
   18bbb     C4  451  -1.361   4.708   6.760  0.1612 -0.3322  0.6825
   18bbb     H7  452  -1.297   4.627   6.796 -1.7747 -2.4611 -0.3888
   18bbb     H8  453  -1.466   4.679   6.753  0.1256 -0.0311 -0.0919
   18bbb     C5  454  -1.308   4.746   6.621 -0.5437 -0.2236 -0.7388
   18bbb     H9  455  -1.321   4.654   6.563  0.4237 -0.2119 -0.9776
   18bbb    H10  456  -1.364   4.824   6.567 -1.0026  0.6246  0.8893
   18bbb     C6  457  -1.450   5.058   6.878 -0.7301  0.0209  0.1461
   18bbb    H11  458  -1.356   5.078   6.931 -1.0666  2.6351 -0.1215
   18bbb    H12  459  -1.452   5.137   6.802  0.3506  0.5511  0.6378
   18bbb     C7  460  -1.156   4.766   6.621  0.5375 -0.7255  0.0441
   18bbb     C8  461  -1.572   5.095   6.953 -0.3221  0.1226 -0.2804
   18bbb     O1  462  -1.080   4.683   6.659 -0.7961  0.3977  0.2391
   18bbb     O2  463  -1.666   5.140   6.896  0.0096 -0.5924  0.4890
   18bbb     N4  464  -1.155   4.713   7.141  0.5198 -0.2799 -0.4589
   18bbb    H21  465  -1.120   4.621   7.118  0.6405 -0.5398  0.6978
   19bbb     C1  466  -0.662   4.879   7.813  0.4792 -0.4121 -0.5289
   19bbb     H1  467  -0.560   4.885   7.774  0.3744 -0.0810 -0.7619
   19bbb     H2  468  -0.666   4.824   7.908 -0.5591 -0.0620 -0.3515
   19bbb     C2  469  -0.733   4.801   7.711 -0.2850 -0.8982 -0.2566
   19bbb     H3  470  -0.698   4.843   7.615  0.4398 -0.3656  0.2244
   19bbb     H4  471  -0.685   4.703   7.707 -1.4303 -1.4560 -3.4979
   19bbb     N1  472  -0.730   5.014   7.826  0.4470 -0.1451  0.5370
   19bbb     C3  473  -0.636   5.121   7.852 -0.4247  0.4719  0.8276
   19bbb     H5  474  -0.561   5.085   7.923 -0.3952 -1.7164 -0.2187
   19bbb     H6  475  -0.695   5.205   7.892 -0.0832  0.5480  1.1786
   19bbb     C4  476  -0.840   5.011   7.925  0.4058 -0.3395 -0.5211
   19bbb     H7  477  -0.865   4.907   7.949  3.4371 -1.1892 -0.6595
   19bbb     H8  478  -0.825   5.072   8.015 -1.5355 -2.0528  1.0637
   19bbb     C5  479  -0.953   5.081   7.852 -0.6128  0.1367 -0.6047
   19bbb     H9  480  -0.922   5.186   7.857 -0.2876  0.0261 -0.2159
   19bbb    H10  481  -0.962   5.045   7.748 -0.8344  0.7655 -0.8074
   19bbb     C6  482  -0.560   5.155   7.722 -0.5718  0.2340  0.3510
   19bbb    H11  483  -0.474   5.090   7.704  0.2106  1.1733  0.5903
   19bbb    H12  484  -0.630   5.159   7.637  0.1050  1.1211 -0.1949
   19bbb     C7  485  -1.078   5.066   7.929 -0.1287 -0.2668 -0.6129
   19bbb     C8  486  -0.491   5.286   7.742 -0.3372 -0.3322  1.0742
   19bbb     O1  487  -1.083   5.101   8.048 -0.2731 -0.3371 -0.1617
   19bbb     O2  488  -0.419   5.299   7.839 -0.3216 -0.0871  0.8522
   19bbb     N4  489  -0.880   4.785   7.720 -0.2806  0.1394  0.3003
   19bbb    H21  490  -0.940   4.859   7.686  1.5447  1.0299 -1.1650
   20bbb     C1  491   0.509   5.132   7.433  0.4443  0.3933  0.0337
   20bbb     H1  492   0.582   5.197   7.482  1.9324 -1.2227  0.0505
   20bbb     H2  493   0.416   5.126   7.491  0.5624  0.7675  0.2654
   20bbb     C2  494   0.580   4.995   7.439  0.5848 -0.1229 -0.2688
   20bbb     H3  495   0.669   4.986   7.377 -0.0867 -0.5905 -1.1926
   20bbb     H4  496   0.603   4.967   7.543 -1.3150 -0.2795  0.1544
   20bbb     N1  497   0.477   5.179   7.292 -0.5901 -0.2234  0.6498
   20bbb     C3  498   0.595   5.175   7.210 -0.2576 -0.3005  0.5780
   20bbb     H5  499   0.683   5.140   7.265 -0.4185 -0.6563  0.6091
   20bbb     H6  500   0.614   5.272   7.162 -1.9799 -0.4052 -0.4140
   20bbb     C4  501   0.411   5.308   7.288 -0.4150 -0.5237 -0.1871
   20bbb     H7  502   0.473   5.374   7.349 -0.7807 -0.8282  0.5295
   20bbb     H8  503   0.404   5.348   7.186  3.4267 -0.5541 -0.6002
   20bbb     C5  504   0.266   5.328   7.342 -0.2113 -0.1364  0.3045
   20bbb     H9  505   0.191   5.282   7.276  1.7494 -0.4580 -1.7977
   20bbb    H10  506   0.257   5.282   7.441 -1.6417  0.7357  0.6079
   20bbb     C6  507   0.558   5.092   7.088  0.2030 -0.3889  0.0373
   20bbb    H11  508   0.548   4.992   7.131  1.8305  0.4703  2.6197
   20bbb    H12  509   0.460   5.126   7.052  0.6866 -0.4221 -1.3696
   20bbb     C7  510   0.225   5.472   7.348 -0.2422  0.4755  0.3855
   20bbb     C8  511   0.668   5.092   6.992  0.1272 -0.6350  0.7218
   20bbb     O1  512   0.284   5.567   7.304 -0.3679  0.2964  0.2452
   20bbb     O2  513   0.767   5.017   7.008  0.2159  0.1271 -0.0124
   20bbb     N4  514   0.494   4.889   7.393  0.7195 -0.5703  0.7715
   20bbb    H21  515   0.405   4.917   7.352  0.9679  1.1571  1.3624
   21bbb     C1  516   0.598   4.213   6.587  0.4024 -0.2145 -0.2017
   21bbb     H1  517   0.647   4.133   6.530 -0.7914 -0.2095 -1.2881
   21bbb     H2  518   0.677   4.286   6.609 -0.2723 -0.1297  2.1794
   21bbb     C2  519   0.552   4.161   6.729  0.0460 -0.2902 -0.1851
   21bbb     H3  520   0.456   4.108   6.723  0.9551 -1.8594 -1.4268
   21bbb     H4  521   0.624   4.088   6.768 -0.9375 -1.0414  0.2847
   21bbb     N1  522   0.489   4.269   6.507  0.0669 -0.4704 -0.0428
   21bbb     C3  523   0.533   4.349   6.390  0.1856 -0.1633 -0.2536
   21bbb     H5  524   0.442   4.393   6.347 -0.4001  1.2263  2.1887
   21bbb     H6  525   0.581   4.286   6.314  1.9200 -2.8954  2.8332
   21bbb     C4  526   0.395   4.164   6.473  0.3624 -0.3184 -0.6249
   21bbb     H7  527   0.437   4.098   6.396  2.3041  0.3483 -0.1993
   21bbb     H8  528   0.379   4.100   6.560  0.7334 -1.2797 -1.2501
   21bbb     C5  529   0.263   4.212   6.427 -0.0284  0.7291 -0.9457
   21bbb     H9  530   0.237   4.290   6.499  1.3820  1.4806 -1.2085
   21bbb    H10  531   0.267   4.273   6.336  0.2242  0.7388 -0.9269
   21bbb     C6  532   0.634   4.467   6.419 -0.2478  0.1742  0.1043
   21bbb    H11  533   0.586   4.541   6.484 -1.4494  0.4129 -1.0013
   21bbb    H12  534   0.735   4.440   6.452 -0.2956 -1.5919 -1.0397
   21bbb     C7  535   0.161   4.094   6.432 -0.2254 -0.2857 -0.3170
   21bbb     C8  536   0.661   4.538   6.287  0.8540 -0.1598 -0.7974
   21bbb     O1  537   0.171   3.991   6.368  0.8356  0.1041  0.4600
   21bbb     O2  538   0.575   4.618   6.247  0.4475  0.0513 -0.0191
   21bbb     N4  539   0.524   4.276   6.820 -0.6580 -0.4708 -0.5202
   21bbb    H21  540   0.498   4.364   6.778  0.1164  0.2001  0.3629
   22bbb     C1  541   0.817   6.454   7.455  0.2925  0.3325 -0.1884
   22bbb     H1  542   0.783   6.394   7.539 -2.6251  1.1769 -0.6526
   22bbb     H2  543   0.822   6.402   7.358  1.2042  1.2389 -0.6487
   22bbb     C2  544   0.957   6.525   7.474  0.3267 -0.1474 -0.1615
   22bbb     H3  545   0.973   6.583   7.383 -1.8376  2.0802  0.7698
   22bbb     H4  546   0.948   6.587   7.564  0.3956  0.6690 -0.7076
   22bbb     N1  547   0.709   6.558   7.442 -0.2807 -0.3815 -0.7413
   22bbb     C3  548   0.675   6.613   7.569  0.1815 -0.2048 -0.1607
   22bbb     H5  549   0.765   6.629   7.630 -0.9706 -0.0811  1.5948
   22bbb     H6  550   0.606   6.551   7.627  2.0807 -1.5086  0.8133
   22bbb     C4  551   0.596   6.519   7.363 -0.0525  0.8568 -0.2842
   22bbb     H7  552   0.569   6.414   7.379  0.4732  0.1754 -3.2538
   22bbb     H8  553   0.510   6.585   7.380 -0.6916  0.5684 -2.1002
   22bbb     C5  554   0.630   6.535   7.217 -0.1132  0.6312  0.3772
   22bbb     H9  555   0.653   6.641   7.203  0.7284  0.3465 -0.5399
   22bbb    H10  556   0.725   6.488   7.187 -0.3842  0.5013 -0.2845
   22bbb     C6  557   0.617   6.752   7.543  0.1337 -0.1386 -0.1451
   22bbb    H11  558   0.689   6.812   7.487 -0.9718  1.3982  0.0238
   22bbb    H12  559   0.519   6.747   7.495  0.5746 -0.5843 -1.0145
   22bbb     C7  560   0.513   6.484   7.131  0.2234  0.1168  0.6002
   22bbb     C8  561   0.591   6.813   7.675 -0.5657  0.4109  0.0085
   22bbb     O1  562   0.454   6.384   7.158  0.8084  0.0751 -0.2083
   22bbb     O2  563   0.559   6.753   7.777  0.2044 -0.1759  0.8007
   22bbb     N4  564   1.051   6.417   7.481 -0.7792 -0.4922 -0.1191
   22bbb    H21  565   1.045   6.369   7.570 -0.6037  0.5733  0.4958
   23bbb     C1  566   0.510   6.079   6.891  0.3255  0.3011 -0.6256
   23bbb     H1  567   0.465   6.086   6.990  1.7023 -2.6349  0.3087
   23bbb     H2  568   0.582   5.996   6.894  0.5049  0.4210 -1.3347
   23bbb     C2  569   0.596   6.201   6.866  0.6005 -0.0180  0.5529
   23bbb     H3  570   0.647   6.176   6.772  0.0244  0.5250  0.0861
   23bbb     H4  571   0.539   6.294   6.852  0.9573  0.0484 -0.5558
   23bbb     N1  572   0.418   6.052   6.782 -0.1754 -0.1000  0.1306
   23bbb     C3  573   0.314   6.157   6.771  0.7847 -0.0406  0.8240
   23bbb     H5  574   0.339   6.258   6.805 -2.0900  0.2335  2.4456
   23bbb     H6  575   0.231   6.118   6.830 -0.9029 -0.4290 -1.6703
   23bbb     C4  576   0.347   5.922   6.803 -0.1689 -0.0228 -0.3458
   23bbb     H7  577   0.315   5.907   6.907  0.5142  0.4195 -0.0611
   23bbb     H8  578   0.253   5.917   6.747 -0.7821 -0.8662  0.7292
   23bbb     C5  579   0.431   5.801   6.772 -0.0509 -0.4909  0.3150
   23bbb     H9  580   0.487   5.822   6.680  2.0492 -1.9221  1.1816
   23bbb    H10  581   0.498   5.779   6.856 -2.1114 -0.7905  1.9396
   23bbb     C6  582   0.273   6.163   6.625 -0.4660  0.1082  0.5584
   23bbb    H11  583   0.261   6.062   6.586  1.5209 -0.0503  0.2626
   23bbb    H12  584   0.172   6.206   6.632  0.3448  2.0012  1.5180
   23bbb     C7  585   0.344   5.684   6.749  0.8591 -0.1951  0.2090
   23bbb     C8  586   0.354   6.256   6.545 -0.2219 -0.7337  0.1891
   23bbb     O1  587   0.318   5.607   6.841  0.3324 -0.0262 -0.4056
   23bbb     O2  588   0.305   6.365   6.506  0.4190  0.5135 -0.0497
   23bbb     N4  589   0.687   6.210   6.981 -0.3019 -0.2177 -0.3552
   23bbb    H21  590   0.677   6.285   7.049 -0.2663 -0.0007 -0.5860
   24bbb     C1  591  -0.298   5.907   8.735 -0.5788  0.0130  0.1291
   24bbb     H1  592  -0.370   5.919   8.653  0.7064 -0.7954 -1.1753
   24bbb     H2  593  -0.273   6.009   8.765 -2.0874  0.5974 -0.4834
   24bbb     C2  594  -0.170   5.817   8.692  0.2976 -0.2112 -0.1630
   24bbb     H3  595  -0.106   5.817   8.781  0.2038 -1.0269 -0.0890
   24bbb     H4  596  -0.188   5.710   8.676  0.1025 -0.2124  0.0648
   24bbb     N1  597  -0.363   5.839   8.843  0.1993 -0.0707  0.2775
   24bbb     C3  598  -0.446   5.733   8.783  0.1643  1.0183 -0.2396
   24bbb     H5  599  -0.389   5.682   8.704  1.7241  1.4662  0.5475
   24bbb     H6  600  -0.533   5.780   8.737 -2.0105 -0.8135  1.7076
   24bbb     C4  601  -0.430   5.928   8.937  0.5911 -0.2791 -0.7357
   24bbb     H7  602  -0.469   6.019   8.890 -0.3077  0.6209  1.6268
   24bbb     H8  603  -0.495   5.870   9.003  2.2089  0.5087  1.6837
   24bbb     C5  604  -0.318   5.966   9.037 -0.2702 -0.1874 -0.3994
   24bbb     H9  605  -0.261   5.873   9.051 -2.3717 -1.8343 -2.0888
   24bbb    H10  606  -0.259   6.043   8.984 -2.8859  3.2701  1.3102
   24bbb     C6  607  -0.488   5.631   8.896 -0.4768 -0.6666 -0.2973
   24bbb    H11  608  -0.395   5.601   8.946 -0.9043 -0.7088  0.4849
   24bbb    H12  609  -0.555   5.669   8.973  1.8075  1.9421  0.5831
   24bbb     C7  610  -0.363   6.017   9.171  0.6827 -0.1600 -0.1727
   24bbb     C8  611  -0.569   5.510   8.845 -0.1946  0.8499  0.4286
   24bbb     O1  612  -0.479   6.052   9.185  0.2869 -0.3947  0.0646
   24bbb     O2  613  -0.689   5.519   8.849 -0.3753  0.2157  0.1120
   24bbb     N4  614  -0.094   5.883   8.582  0.5244  0.5612  0.5929
   24bbb    H21  615  -0.147   5.948   8.525 -1.4754 -1.2927  0.2025
   25bbb     C1  616   0.240   6.676   8.171  0.4735 -0.3430 -0.6035
   25bbb     H1  617   0.143   6.671   8.223  0.5004 -0.8712 -0.5930
   25bbb     H2  618   0.226   6.645   8.066 -1.1077 -1.7774 -0.0213
   25bbb     C2  619   0.340   6.585   8.246 -0.0645 -0.5099  0.2767
   25bbb     H3  620   0.442   6.597   8.208 -0.4144  0.5971 -0.3647
   25bbb     H4  621   0.352   6.627   8.347  1.1055  4.5172 -1.6641
   25bbb     N1  622   0.294   6.813   8.156  0.4048  0.3668 -0.0457
   25bbb     C3  623   0.306   6.878   8.291  0.1598  0.7468  0.3450
   25bbb     H5  624   0.305   6.818   8.382  0.5040 -1.6086 -1.1279
   25bbb     H6  625   0.223   6.949   8.299 -2.7126 -2.3681 -0.1451
   25bbb     C4  626   0.220   6.903   8.072 -0.3826 -0.2529  0.2356
   25bbb     H7  627   0.111   6.903   8.080 -0.5327  0.7359 -1.2799
   25bbb     H8  628   0.247   7.007   8.095 -2.4411  0.2831  0.4078
   25bbb     C5  629   0.257   6.884   7.925 -0.2696 -0.2219 -0.4425
   25bbb     H9  630   0.233   6.977   7.872 -1.0754  0.2007  0.6318
   25bbb    H10  631   0.366   6.872   7.915 -0.0522  1.6881 -0.7666
   25bbb     C6  632   0.432   6.960   8.288  0.3773  0.4612  0.0582
   25bbb    H11  633   0.507   6.889   8.250 -0.9335 -0.4594 -0.9297
   25bbb    H12  634   0.418   7.046   8.221  2.6288  2.1133  1.5421
   25bbb     C7  635   0.182   6.775   7.862  0.8086 -0.0473 -0.0502
   25bbb     C8  636   0.474   7.011   8.424 -0.7297  0.4599  0.1594
   25bbb     O1  637   0.062   6.773   7.854  0.3050 -0.1587  0.4097
   25bbb     O2  638   0.529   6.934   8.507  0.0477 -0.6083  0.8134
   25bbb     N4  639   0.312   6.443   8.238  0.1800  0.4771  0.1864
   25bbb    H21  640   0.237   6.415   8.176 -1.8330  3.8840  0.7915
   26bbb     C1  641   0.957   4.677   8.519  0.4275 -0.2819 -0.8385
   26bbb     H1  642   0.966   4.586   8.579 -0.0170 -1.6110 -2.7115
   26bbb     H2  643   0.893   4.648   8.435 -0.5753 -1.5303  0.3108
   26bbb     C2  644   1.091   4.712   8.457 -0.5132 -0.1929  0.1055
   26bbb     H3  645   1.093   4.818   8.428  0.1716 -0.5064 -1.0483
   26bbb     H4  646   1.180   4.709   8.521 -0.2150 -0.5094 -0.3173
   26bbb     N1  647   0.909   4.795   8.595  0.2121  0.0297 -0.5618
   26bbb     C3  648   0.971   4.799   8.728 -0.4045  0.5152  0.3926
   26bbb     H5  649   1.080   4.784   8.728 -0.2561  1.5289  0.2279
   26bbb     H6  650   0.919   4.732   8.797 -0.6671  0.3415  0.0292
   26bbb     C4  651   0.764   4.795   8.610 -0.3217 -0.2579  0.2960
   26bbb     H7  652   0.723   4.695   8.627 -2.4383  0.6577  0.8886
   26bbb     H8  653   0.731   4.835   8.706 -1.4222 -2.4328  0.8916
   26bbb     C5  654   0.715   4.872   8.488 -0.2080  0.9337 -0.5980
   26bbb     H9  655   0.777   4.850   8.401  1.7530 -0.0104  0.9503
   26bbb    H10  656   0.608   4.852   8.472  0.2864 -2.6355 -0.1458
   26bbb     C6  657   0.968   4.942   8.782 -0.0083 -0.3771  0.0570
   26bbb    H11  658   1.039   5.006   8.729 -1.1514  1.2009  0.3338
   26bbb    H12  659   0.874   4.999   8.775 -0.0692 -0.2787  1.3267
   26bbb     C7  660   0.725   5.014   8.520  0.4854  0.0570 -0.4388
   26bbb     C8  661   1.014   4.934   8.927 -0.2111 -0.1526  0.4043
   26bbb     O1  662   0.642   5.069   8.594  0.4075 -0.1064 -0.0754
   26bbb     O2  663   1.104   4.861   8.955  0.0461 -0.4256  0.0768
   26bbb     N4  664   1.109   4.629   8.332 -0.3683 -0.5581 -0.5082
   26bbb    H21  665   1.148   4.536   8.333 -1.7573 -1.1779  0.1597
   27bbb     C1  666   1.359   4.463   7.193  0.3371  0.6166 -0.1253
   27bbb     H1  667   1.417   4.489   7.103  0.4081  0.4973 -0.1145
   27bbb     H2  668   1.252   4.472   7.173 -0.4701 -2.7923  1.7989
   27bbb     C2  669   1.404   4.568   7.307 -0.7298 -0.0124  0.7713
   27bbb     H3  670   1.512   4.563   7.329 -0.2537  0.0643 -1.3125
   27bbb     H4  671   1.373   4.665   7.266 -0.1423  0.3672  1.2021
   27bbb     N1  672   1.376   4.320   7.240 -0.0987 -0.5408 -0.0955
   27bbb     C3  673   1.523   4.283   7.223 -0.1655 -0.3367 -0.3384
   27bbb     H5  674   1.579   4.375   7.205  1.7657 -0.7126  3.0210
   27bbb     H6  675   1.552   4.210   7.148  1.8761  0.2075 -0.1226
   27bbb     C4  676   1.292   4.238   7.161  0.7777  0.0750  1.1757
   27bbb     H7  677   1.187   4.259   7.184 -0.2952 -2.7090 -0.6585
   27bbb     H8  678   1.306   4.248   7.052  2.2318 -2.7239  1.0138
   27bbb     C5  679   1.321   4.089   7.197  0.0374 -0.0237 -0.3648
   27bbb     H9  680   1.403   4.042   7.141  1.6621  0.1484  1.7231
   27bbb    H10  681   1.329   4.078   7.305 -0.3993  3.0658  0.0845
   27bbb     C6  682   1.569   4.232   7.358  0.7780  0.0500 -0.3797
   27bbb    H11  683   1.545   4.300   7.441  2.0193  0.5088 -0.3727
   27bbb    H12  684   1.523   4.134   7.380  1.5834 -0.0263  1.1304
   27bbb     C7  685   1.196   4.015   7.153 -0.2952 -0.0444  0.1727
   27bbb     C8  686   1.719   4.213   7.352 -0.0746 -0.2413 -0.8486
   27bbb     O1  687   1.202   3.939   7.057 -0.0740 -0.1374 -0.0162
   27bbb     O2  688   1.769   4.109   7.312 -0.2125  0.1692  0.2235
   27bbb     N4  689   1.328   4.562   7.432 -0.5005 -0.0163 -0.1853
   27bbb    H21  690   1.243   4.507   7.431 -0.5561  0.0327  0.6694
   28bbb     C1  691  -0.016   5.485   8.340  0.2609  0.8859 -0.3407
   28bbb     H1  692   0.029   5.566   8.281  0.6208 -0.0783 -1.4496
   28bbb     H2  693   0.056   5.454   8.416 -1.5633  0.4219  1.2715
   28bbb     C2  694  -0.038   5.362   8.238  0.7398 -0.1394 -0.5309
   28bbb     H3  695  -0.049   5.270   8.297  1.7098  0.3081  0.3634
   28bbb     H4  696  -0.133   5.374   8.183 -1.6324 -3.4005  2.3532
   28bbb     N1  697  -0.147   5.531   8.403 -0.1443 -0.2315  0.9265
   28bbb     C3  698  -0.210   5.432   8.490  0.3177 -0.0995 -0.3599
   28bbb     H5  699  -0.246   5.345   8.433 -1.3465 -0.2061  0.7889
   28bbb     H6  700  -0.299   5.472   8.540  1.4912 -0.8535  2.5386
   28bbb     C4  701  -0.232   5.594   8.298 -0.3446  0.0674 -0.4268
   28bbb     H7  702  -0.164   5.655   8.238  2.0436 -0.6598  1.3852
   28bbb     H8  703  -0.271   5.520   8.227  0.5954  0.3857 -1.3000
   28bbb     C5  704  -0.338   5.675   8.362 -0.0811 -0.4132  0.6921
   28bbb     H9  705  -0.427   5.619   8.394  1.5289 -2.3814  1.9549
   28bbb    H10  706  -0.300   5.745   8.438 -0.3246 -0.0264  0.4605
   28bbb     C6  707  -0.117   5.393   8.598 -0.5825 -0.6879 -0.0023
   28bbb    H11  708  -0.031   5.334   8.565  0.8782  2.2259 -1.8304
   28bbb    H12  709  -0.076   5.491   8.623 -4.0345  1.8541 -3.0473
   28bbb     C7  710  -0.390   5.770   8.255  0.2007 -0.5950 -0.0898
   28bbb     C8  711  -0.176   5.331   8.722  0.2942 -0.4307  0.4617
   28bbb     O1  712  -0.327   5.804   8.154  0.1581  1.1477  0.5944
   28bbb     O2  713  -0.217   5.398   8.811  0.3749 -0.1845 -0.1270
   28bbb     N4  714   0.074   5.326   8.150  0.3478 -0.0830  1.0404
   28bbb    H21  715   0.105   5.395   8.082  0.7899 -1.9127 -0.7057
   29bbb     C1  716   0.985   5.784   8.378 -0.7919 -0.1333  0.4711
   29bbb     H1  717   0.913   5.865   8.357  0.5617  0.3922 -2.7679
   29bbb     H2  718   1.045   5.770   8.287  2.1640  0.9668  2.1124
   29bbb     C2  719   0.921   5.647   8.413 -0.1810  0.4945 -0.4837
   29bbb     H3  720   1.003   5.574   8.417  0.5189  1.1433 -1.9553
   29bbb     H4  721   0.877   5.655   8.513  0.1316 -0.4525 -0.2576
   29bbb     N1  722   1.068   5.836   8.488 -0.6042  0.8204 -0.1744
   29bbb     C3  723   1.032   5.963   8.532 -0.7142 -0.0660  0.1257
   29bbb     H5  724   1.035   6.037   8.451 -1.3954 -0.7757 -0.5569
   29bbb     H6  725   1.106   5.990   8.608  0.1619 -0.8737 -0.4251
   29bbb     C4  726   1.209   5.838   8.455 -0.0066 -0.0705 -0.8522
   29bbb     H7  727   1.234   5.900   8.368  0.6640  0.4487 -0.2978
   29bbb     H8  728   1.254   5.876   8.547 -1.2300  0.9481 -0.6494
   29bbb     C5  729   1.261   5.695   8.441  0.1677  0.3118 -0.4420
   29bbb     H9  730   1.202   5.636   8.513 -1.6342  2.2821 -0.2296
   29bbb    H10  731   1.230   5.666   8.340 -2.7242  2.8637 -0.4321
   29bbb     C6  732   0.899   5.947   8.606  0.9078 -1.0281 -0.8365
   29bbb    H11  733   0.813   5.923   8.543  1.4282 -0.4568 -1.7792
   29bbb    H12  734   0.913   5.868   8.682 -1.2909 -0.3367  0.3600
   29bbb     C7  735   1.412   5.693   8.458  0.7431  0.3487 -0.3360
   29bbb     C8  736   0.868   6.079   8.671  0.3187 -0.2191 -0.3739
   29bbb     O1  737   1.486   5.783   8.419  0.0678  0.3441 -0.7438
   29bbb     O2  738   0.794   6.160   8.620 -0.3468 -0.0718 -0.5461
   29bbb     N4  739   0.800   5.617   8.325 -0.5343 -0.7335 -0.3497
   29bbb    H21  740   0.806   5.632   8.225 -0.7057 -2.4718 -0.6517
   30ccc     N1  741  -0.970   5.838   9.309 -0.1792  0.4534 -0.0057
   30ccc     H4  742  -0.958   5.883   9.220 -2.5076  2.5485  0.6325
   30ccc     C3  743  -0.865   5.851   9.412 -0.2829 -0.1707 -0.7270
   30ccc     H5  744  -0.908   5.863   9.512 -1.1090  1.2203 -1.2183
   30ccc     C4  745  -0.773   5.970   9.394 -0.9131 -0.2279 -0.1493
   30ccc     H6  746  -0.801   5.762   9.420  1.4678  1.1334  0.4398
   30ccc     H7  747  -0.828   6.064   9.374  0.5219  0.9245  1.0835
   30ccc     H8  748  -0.702   5.958   9.311 -0.5707  0.0070  0.1068
   30ccc     N2  749  -0.686   5.987   9.512 -0.0279 -0.2623 -0.0087
   30ccc     C5  750  -0.641   6.133   9.520  0.2623  0.3739 -0.8546
   30ccc     C6  751  -0.573   5.890   9.520  0.1950  0.0905  1.3298
   30ccc     H9  752  -0.600   5.791   9.481 -1.4372  0.1506  2.2086
   30ccc     C7  753  -0.526   5.880   9.665 -0.0878  0.0374  0.1646
   30ccc    H10  754  -0.489   5.922   9.458  0.4194 -1.7131  0.6500
   30ccc    H11  755  -0.606   5.838   9.726  0.3823  1.1756  1.6260
   30ccc    H12  756  -0.507   5.984   9.697  1.2698 -0.4572  1.0434
   30ccc     C8  757  -0.406   5.787   9.671 -0.1327 -0.3835  0.2391
   30ccc     O2  758  -0.338   5.751   9.576  0.2345  0.6211  0.2818
   30ccc    H13  759  -0.622   6.181   9.424 -3.0216 -1.8730 -2.8231
   30ccc    H14  760  -0.557   6.141   9.590  0.5945 -1.5965 -0.9720
   30ccc     C9  761  -0.758   6.206   9.583  0.5390 -0.7070  0.7817
   30ccc    H15  762  -0.765   6.172   9.687  1.6439  0.5033  1.2727
   30ccc    H16  763  -0.849   6.192   9.525  0.7837 -1.8227  0.6396
   30ccc    C10  764  -0.733   6.358   9.580 -0.5743  0.0319  0.0662
   30ccc     O4  765  -0.776   6.431   9.496 -0.2909 -0.0641  0.0073
   30ccc    C11  766   0.022   5.593   9.845 -0.0224  0.5585  0.3039
   30ccc    C12  767   0.003   5.742   9.890 -0.2235 -0.1783  0.3769
   30ccc    H17  768   0.046   5.590   9.738  0.6469 -2.6784  0.4610
   30ccc    C13  769  -0.128   5.796   9.825  0.4104  0.2445  0.4529
   30ccc    C14  770  -0.247   5.700   9.847 -0.9708 -0.0889 -0.2461
   30ccc    C15  771  -0.203   5.563   9.783  0.1689 -0.5482 -0.6643
   30ccc    H18  772  -0.256   5.689   9.956  1.6298 -1.4818 -0.1007
   30ccc    H19  773  -0.112   5.807   9.717  1.7325  1.3280  0.7355
   30ccc    H20  774  -0.180   5.569   9.676 -0.0294  1.1118 -0.6500
   30ccc     O1  775  -0.307   5.469   9.809  0.5546 -0.1695 -0.2354
   30ccc     O6  776  -0.149   5.929   9.878 -0.3328 -0.2336 -0.2921
   30ccc    C16  777   0.138   5.514   9.914 -0.0356 -0.6638  0.5477
   30ccc    H21  778  -0.066   5.979   9.866  0.0698 -1.2222 -1.9190
   30ccc    H22  779  -0.437   5.805   9.861  0.7682  0.8319  0.0677
   30ccc    H23  780   0.138   5.541  10.020  0.8303  0.4245  0.2884
   30ccc    H24  781   0.236   5.546   9.875 -0.1997 -0.4319  0.3183
   30ccc     O7  782   0.124   5.372   9.899  0.3667  0.0487 -0.0824
   30ccc    H25  783   0.030   5.359   9.875 -0.1456  0.4141  1.5782
   30ccc     O8  784  -0.095   5.510   9.853  0.2069 -0.0523 -0.3888
   30ccc    H26  785  -0.287   5.393   9.753  2.1272 -0.5169  0.7331
   30ccc    H27  786   0.008   5.761   9.998  1.4139  1.3086  0.0878
   30ccc     O9  787   0.113   5.813   9.835  0.6665 -0.2968  0.0425
   30ccc    H28  788   0.085   5.906   9.827 -0.2728 -0.5835 -0.1365
   30ccc     N3  789  -0.377   5.755   9.796  0.1154  0.0565  0.0411
   30ccc    C17  790  -0.707   6.833   9.743 -0.3364  0.9349  0.0565
   30ccc    C18  791  -0.778   6.725   9.828  0.1897 -0.1266 -0.2160
   30ccc    H29  792  -0.766   6.852   9.653  0.2353 -0.7944 -0.7331
   30ccc    C19  793  -0.796   6.588   9.755 -0.0614  0.0771 -0.7904
   30ccc    C20  794  -0.655   6.538   9.720 -0.5926 -0.2199 -0.4363
   30ccc    C21  795  -0.584   6.641   9.633 -0.2014 -0.2429 -0.0350
   30ccc    H30  796  -0.595   6.537   9.812 -1.5672  1.7062  0.2904
   30ccc    H31  797  -0.845   6.608   9.658  1.1498 -2.3148 -1.9790
   30ccc    H32  798  -0.640   6.647   9.539  1.2873  0.0030 -0.9244
   30ccc    O10  799  -0.452   6.605   9.596  0.9888  0.1413 -0.2642
   30ccc    O11  800  -0.857   6.484   9.833  0.8860  0.5032 -0.3307
   30ccc    C22  801  -0.668   6.971   9.815 -0.1753 -0.1391 -0.7582
   30ccc    H33  802  -0.796   6.448   9.900 -0.5801  0.2745  0.9358
   30ccc    H34  803  -0.639   6.340   9.753  0.0902 -4.1360 -2.7875
   30ccc    H35  804  -0.585   6.957   9.886 -0.5457 -2.2886 -0.6931
   30ccc    H36  805  -0.755   6.993   9.879  1.3996  3.0699  0.5215
   30ccc    O12  806  -0.651   7.081   9.731  0.5512  0.1164 -0.2734
   30ccc    H37  807  -0.575   7.057   9.675  0.8194 -1.5113  0.7259
   30ccc    O13  808  -0.579   6.773   9.701  0.2196  0.0950 -0.1787
   30ccc    H38  809  -0.407   6.591   9.681  0.8192 -2.6941 -0.5406
   30ccc    H39  810  -0.723   6.707   9.922  1.6186  0.4252 -0.9166
   30ccc     O5  811  -0.914   6.769   9.848 -0.1018  0.3849  0.2104
   30ccc    H40  812  -0.958   6.694   9.891 -1.9338  1.0116 -0.4580
   30ccc     N4  813  -0.650   6.404   9.674 -0.0085 -0.2408  0.0387
   31ccc     N1  814  -1.420   6.271   9.075 -0.2729 -0.8446  0.2152
   31ccc     H4  815  -1.333   6.251   9.027 -2.0864 -1.8839 -2.9495
   31ccc     C3  816  -1.477   6.401   9.047 -0.3129  0.6890 -0.0366
   31ccc     H5  817  -1.546   6.386   8.963  2.5909  3.3748 -3.1642
   31ccc     C4  818  -1.385   6.520   9.021  0.2353  0.3037  0.2649
   31ccc     H6  819  -1.534   6.431   9.136  0.3662  1.9006  0.0141
   31ccc     H7  820  -1.451   6.607   9.013 -0.7715 -0.4267  0.4928
   31ccc     H8  821  -1.345   6.507   8.920 -1.3050  1.8959 -0.5941
   31ccc     N2  822  -1.276   6.540   9.115 -0.3570  0.2801 -0.1950
   31ccc     C5  823  -1.193   6.648   9.063 -0.1629 -0.3170  0.1336
   31ccc     C6  824  -1.313   6.541   9.254 -0.4057 -0.6143 -0.6779
   31ccc     H9  825  -1.366   6.635   9.274 -2.2435 -1.5479 -0.9604
   31ccc     C7  826  -1.194   6.522   9.350 -0.5212  0.5700  0.3018
   31ccc    H10  827  -1.380   6.461   9.289 -2.1727  1.4249  0.8745
   31ccc    H11  828  -1.120   6.603   9.346  1.1112 -0.8084  1.1312
   31ccc    H12  829  -1.146   6.427   9.325 -2.2491 -0.0074 -1.0959
   31ccc     C8  830  -1.241   6.520   9.496  0.1763  0.4291 -0.2781
   31ccc     O2  831  -1.359   6.530   9.516  0.2239 -0.2530 -0.0685
   31ccc    H13  832  -1.122   6.689   9.136  0.8255  1.5729 -1.7820
   31ccc    H14  833  -1.253   6.729   9.020  0.7607 -1.2740 -3.2169
   31ccc     C9  834  -1.109   6.591   8.947 -0.7340  0.1315 -0.1429
   31ccc    H15  835  -1.169   6.575   8.857  2.0386  1.1504 -2.2992
   31ccc    H16  836  -1.060   6.498   8.976 -0.5233 -0.4553 -2.2424
   31ccc    C10  837  -1.007   6.688   8.900 -0.7117 -0.1964  0.1769
   31ccc     O4  838  -0.977   6.791   8.949  0.6350 -0.9160 -0.8033
   31ccc    C11  839  -1.303   6.430   9.979 -0.0259 -0.0575  0.2010
   31ccc    C12  840  -1.188   6.336   9.924  0.3801 -0.0255 -0.0754
   31ccc    H17  841  -1.397   6.386   9.946  0.6952 -2.3249  0.9483
   31ccc    C13  842  -1.178   6.354   9.772  0.2623  0.5951  0.8953
   31ccc    C14  843  -1.175   6.505   9.731  0.3614 -0.3473 -0.7592
   31ccc    C15  844  -1.287   6.596   9.796 -0.2479 -0.1486  0.2972
   31ccc    H18  845  -1.089   6.548   9.783 -0.4008  0.9511 -0.5393
   31ccc    H19  846  -1.260   6.296   9.729 -0.8008  0.4916  2.9299
   31ccc    H20  847  -1.383   6.580   9.746  1.2768 -2.2003 -2.2328
   31ccc     O1  848  -1.262   6.734   9.778  0.0655  1.1639 -0.3379
   31ccc     O6  849  -1.046   6.295   9.734 -0.6268  0.3096 -0.0673
   31ccc    C16  850  -1.299   6.434  10.136  0.8373  0.6981 -0.5784
   31ccc    H21  851  -0.985   6.362   9.769 -0.9458  0.7760 -0.4006
   31ccc    H22  852  -1.054   6.487   9.566 -0.3167 -1.2905 -0.3275
   31ccc    H23  853  -1.208   6.486  10.169 -1.4856  3.6398  1.8228
   31ccc    H24  854  -1.291   6.328  10.160  2.4011  0.8465 -0.3694
   31ccc     O7  855  -1.412   6.501  10.193 -0.3221  0.2255  0.2492
   31ccc    H25  856  -1.374   6.578  10.237 -0.4805 -1.1272  2.9788
   31ccc     O8  857  -1.285   6.568   9.932 -0.5620  0.2556  0.3702
   31ccc    H26  858  -1.345   6.776   9.806 -1.1408 -1.9214  1.1778
   31ccc    H27  859  -1.098   6.373   9.975  0.0637 -0.7345  1.0605
   31ccc     O9  860  -1.212   6.203   9.965 -0.2158  0.6191 -0.1732
   31ccc    H28  861  -1.151   6.143   9.919 -1.7932 -0.5069 -0.9032
   31ccc     N3  862  -1.147   6.520   9.590 -0.0859 -0.1863 -0.8781
   31ccc    C17  863  -0.920   6.454   8.420 -0.5453  0.9458  0.8337
   31ccc    C18  864  -0.848   6.388   8.536  0.0063  0.1417  1.1858
   31ccc    H29  865  -0.857   6.526   8.365  2.7141 -1.7642  0.6823
   31ccc    C19  866  -0.830   6.491   8.648 -1.6963 -0.4757 -0.0500
   31ccc    C20  867  -0.958   6.554   8.686 -0.7224  0.0812  0.3944
   31ccc    C21  868  -1.024   6.624   8.559 -0.2649 -0.2050  0.3869
   31ccc    H30  869  -1.019   6.471   8.725 -0.3293 -1.1836 -1.5710
   31ccc    H31  870  -0.772   6.576   8.612 -0.8745 -1.3354 -0.8120
   31ccc    H32  871  -0.965   6.700   8.507 -1.8984  1.6002  1.0779
   31ccc    O10  872  -1.142   6.689   8.583 -0.4366 -0.0265  0.2916
   31ccc    O11  873  -0.772   6.423   8.758 -0.0294 -0.2046 -0.5838
   31ccc    C22  874  -0.963   6.348   8.313 -0.5368  0.2273  0.1194
   31ccc    H33  875  -0.686   6.385   8.732  0.5733 -0.8955  2.1283
   31ccc    H34  876  -0.882   6.740   8.760 -1.4815  0.4299  0.2776
   31ccc    H35  877  -1.047   6.284   8.344  0.3736 -1.8407 -1.4424
   31ccc    H36  878  -0.873   6.289   8.292 -0.4392  1.4834 -3.9710
   31ccc    O12  879  -0.985   6.413   8.185  0.0082  1.0361 -0.4333
   31ccc    H37  880  -1.004   6.342   8.121  1.3179 -1.8290  2.0568
   31ccc    O13  881  -1.043   6.514   8.465  0.5300 -0.2520 -0.3144
   31ccc    H38  882  -1.119   6.784   8.582  1.1812 -0.3776  0.5480
   31ccc    H39  883  -0.910   6.310   8.583 -0.5132  0.7677  1.5582
   31ccc     O5  884  -0.730   6.339   8.487  0.0536  0.2959  0.6679
   31ccc    H40  885  -0.681   6.296   8.559  2.0682 -0.4200 -1.0281
   31ccc     N4  886  -0.937   6.659   8.788  0.3443 -0.6770  0.8224
   32ccc     N1  887  -0.170   5.623   9.347  0.0603 -0.3188 -0.6230
   32ccc     H4  888  -0.204   5.684   9.420  3.2039  0.0642  0.6795
   32ccc     C3  889  -0.023   5.625   9.319 -0.1806  0.0435  0.1666
   32ccc     H5  890   0.007   5.521   9.303 -1.5397 -0.2826 -0.3918
   32ccc     C4  891   0.066   5.686   9.430 -0.0593  0.5425  0.6448
   32ccc     H6  892  -0.001   5.678   9.226  2.1330  0.7805  1.0653
   32ccc     H7  893   0.090   5.616   9.511  0.7463  0.7544  0.6003
   32ccc     H8  894   0.003   5.764   9.474 -2.3845 -1.1321  0.4814
   32ccc     N2  895   0.190   5.744   9.369  0.2736 -0.2608  0.1496
   32ccc     C5  896   0.269   5.814   9.475  0.2375 -0.3800  0.3282
   32ccc     C6  897   0.267   5.639   9.307  0.0845 -0.1262  0.0080
   32ccc     H9  898   0.311   5.574   9.384  1.0349  1.4466  0.8466
   32ccc     C7  899   0.376   5.695   9.228  0.0546  0.2389 -0.0316
   32ccc    H10  900   0.200   5.579   9.245  0.7785 -0.4736 -0.4278
   32ccc    H11  901   0.467   5.718   9.285  1.4673  0.1176 -2.1389
   32ccc    H12  902   0.342   5.789   9.182  0.6185  0.2736 -0.3894
   32ccc     C8  903   0.429   5.600   9.129  0.9265  0.4471  0.5797
   32ccc     O2  904   0.513   5.516   9.153 -0.5404 -0.2411  0.1566
   32ccc    H13  905   0.374   5.833   9.451 -0.0189 -0.1385 -0.6450
   32ccc    H14  906   0.266   5.762   9.572 -0.2863  1.2775  1.2377
   32ccc     C9  907   0.208   5.948   9.481 -0.1413  0.2336  1.3128
   32ccc    H15  908   0.104   5.944   9.517 -0.7116  0.9170 -0.1528
   32ccc    H16  909   0.192   5.996   9.384  0.7213 -0.8475  0.6059
   32ccc    C10  910   0.287   6.049   9.550 -0.3193 -0.4898 -0.1761
   32ccc     O4  911   0.253   6.100   9.653  0.0191 -0.0252  1.0187
   32ccc    C11  912   0.367   5.355   8.664 -0.5633 -1.3027  0.2668
   32ccc    C12  913   0.343   5.509   8.643 -0.0581  0.8131 -0.2055
   32ccc    H17  914   0.282   5.325   8.727  0.5486 -1.5242  1.6828
   32ccc    C13  915   0.310   5.576   8.777  0.2267  0.5386 -0.7657
   32ccc    C14  916   0.423   5.552   8.879  0.0012 -0.3811 -0.0794
   32ccc    C15  917   0.464   5.399   8.879  0.6019 -0.6260 -0.2026
   32ccc    H18  918   0.511   5.611   8.851  0.7962 -1.8430 -0.7783
   32ccc    H19  919   0.222   5.531   8.825  1.3723  0.2931  1.2545
   32ccc    H20  920   0.377   5.351   8.925 -0.9127  0.4622 -1.7923
   32ccc     O1  921   0.590   5.382   8.938  0.3542 -0.1801 -0.6903
   32ccc     O6  922   0.295   5.713   8.765  0.0606 -0.1508  0.4820
   32ccc    C16  923   0.378   5.272   8.537  0.7976  0.1322  0.7085
   32ccc    H21  924   0.201   5.728   8.746  0.5435  0.3178 -1.7534
   32ccc    H22  925   0.297   5.679   8.996  0.0995 -0.6970 -2.8541
   32ccc    H23  926   0.461   5.298   8.470 -2.2332  1.4824 -2.8419
   32ccc    H24  927   0.285   5.288   8.482  0.0379  1.4990  2.2798
   32ccc     O7  928   0.378   5.137   8.571 -0.0395 -0.3820 -0.2085
   32ccc    H25  929   0.471   5.115   8.592 -0.3780  0.3300  2.3619
   32ccc     O8  930   0.486   5.349   8.747 -0.1773  0.0135 -0.4064
   32ccc    H26  931   0.590   5.440   9.016  2.8236 -0.9203 -0.0692
   32ccc    H27  932   0.443   5.538   8.611  1.6090 -3.3237  0.6291
   32ccc     O9  933   0.236   5.535   8.557 -0.1609 -0.4709  0.0377
   32ccc    H28  934   0.204   5.626   8.570 -0.2454 -0.6400  1.0807
   32ccc     N3  935   0.375   5.614   9.008  0.2250 -0.1634 -0.4235
   32ccc    C17  936   0.827   6.074   9.599 -0.0003  1.1134 -0.2364
   32ccc    C18  937   0.759   6.213   9.580 -0.0882 -0.4920  0.2372
   32ccc    H29  938   0.846   6.023   9.503 -0.9822  1.4816 -0.6366
   32ccc    C19  939   0.623   6.200   9.509  1.2729  0.1383  1.1077
   32ccc    C20  940   0.521   6.101   9.578  0.2162 -0.7908  0.3878
   32ccc    C21  941   0.592   5.970   9.616 -0.8738  0.5723  0.0841
   32ccc    H30  942   0.490   6.152   9.670  0.8110  0.5814 -0.1346
   32ccc    H31  943   0.646   6.148   9.415 -0.8810  1.6204 -0.3465
   32ccc    H32  944   0.608   5.916   9.522  1.1219  1.9504 -0.4324
   32ccc    O10  945   0.509   5.906   9.709 -0.2206  0.5364 -0.6467
   32ccc    O11  946   0.562   6.323   9.473 -0.0027 -0.4926 -0.2990
   32ccc    C22  947   0.953   6.068   9.676  0.1341 -0.4445 -0.1631
   32ccc    H33  948   0.493   6.334   9.541  0.3169  1.7476 -0.2351
   32ccc    H34  949   0.427   6.045   9.403  0.5243 -2.3387  0.2037
   32ccc    H35  950   0.929   6.082   9.782 -0.5230 -0.3699 -0.3173
   32ccc    H36  951   1.021   6.146   9.641 -3.2657  1.7663 -2.5244
   32ccc    O12  952   1.025   5.948   9.651 -0.1135 -0.2296  0.1227
   32ccc    H37  953   0.967   5.877   9.682  0.9807 -1.3119 -0.2408
   32ccc    O13  954   0.725   6.002   9.676 -0.0803  0.2820  0.3622
   32ccc    H38  955   0.499   5.966   9.785 -0.8488 -0.2237 -0.1126
   32ccc    H39  956   0.748   6.268   9.674  1.0753  1.7993 -0.8940
   32ccc     O5  957   0.850   6.295   9.506  0.4172 -0.4534 -0.3142
   32ccc    H40  958   0.804   6.380   9.498 -2.7623 -1.9949 -0.1621
   32ccc     N4  959   0.400   6.083   9.494  0.1956  0.0979 -0.8335
   33ccc     N1  960  -0.841   5.415   9.716 -0.3845 -0.0007 -0.1718
   33ccc     H4  961  -0.897   5.440   9.636  1.0551 -2.4745 -2.1113
   33ccc     C3  962  -0.908   5.377   9.845  0.0328  0.0812 -0.0018
   33ccc     H5  963  -0.997   5.323   9.811 -0.6904  1.3764 -0.1939
   33ccc     C4  964  -0.958   5.500   9.929  0.2779  0.0496  0.0129
   33ccc     H6  965  -0.848   5.303   9.901 -0.4907 -1.1476 -1.0094
   33ccc     H7  966  -0.979   5.462  10.030 -2.8399 -2.3510 -1.3694
   33ccc     H8  967  -1.051   5.537   9.884  0.3980  2.1551  1.3339
   33ccc     N2  968  -0.854   5.606   9.931  0.0642 -0.0783 -0.2211
   33ccc     C5  969  -0.913   5.737   9.931  0.4546 -0.2966 -0.3196
   33ccc     C6  970  -0.755   5.577  10.038 -0.2366  0.7331  0.0020
   33ccc     H9  971  -0.785   5.612  10.137  1.2479  2.3415 -0.0771
   33ccc     C7  972  -0.620   5.643  10.005 -0.0530  1.0371 -0.1984
   33ccc    H10  973  -0.737   5.469  10.032 -2.6702  0.3076 -1.4849
   33ccc    H11  974  -0.622   5.753  10.007  1.9366  1.1402 -0.9599
   33ccc    H12  975  -0.583   5.612   9.906  1.6619  0.5594  0.5504
   33ccc     C8  976  -0.521   5.594  10.110  0.3731  0.0324 -0.7447
   33ccc     O2  977  -0.529   5.643  10.221 -0.0231 -0.0289  0.0584
   33ccc    H13  978  -0.840   5.816   9.954  0.0514 -0.0990  0.2741
   33ccc    H14  979  -0.997   5.751   9.999 -1.0887  0.2320 -2.2266
   33ccc     C9  980  -0.959   5.780   9.787  0.0400  0.6811 -0.1595
   33ccc    H15  981  -0.990   5.693   9.728  1.6008 -0.1044  0.1316
   33ccc    H16  982  -0.870   5.816   9.733  0.8953 -0.9438  0.0846
   33ccc    C10  983  -1.069   5.888   9.788 -0.5985  0.3452  0.1987
   33ccc     O4  984  -1.069   5.961   9.879  0.1973 -0.6260  0.1209
   33ccc    C11  985  -0.064   5.313  10.191 -0.3840 -0.1731  0.4234
   33ccc    C12  986  -0.106   5.445  10.277 -0.3029  0.0841  0.0198
   33ccc    H17  987  -0.026   5.350  10.095  1.1949  0.9182  1.4027
   33ccc    C13  988  -0.223   5.518  10.214  0.2712 -0.0530 -0.2415
   33ccc    C14  989  -0.339   5.425  10.166 -0.0874  0.3586 -0.2080
   33ccc    C15  990  -0.300   5.293  10.094 -0.0740  0.5729 -0.0285
   33ccc    H18  991  -0.383   5.398  10.262 -1.0634  1.6160 -0.2687
   33ccc    H19  992  -0.189   5.565  10.121 -2.1248  3.2908  0.3532
   33ccc    H20  993  -0.259   5.304   9.993 -1.3279 -0.3252 -0.6648
   33ccc     O1  994  -0.408   5.195  10.093 -0.0904  0.1381 -0.4211
   33ccc     O6  995  -0.256   5.622  10.307  0.0186 -0.0200  0.2264
   33ccc    C16  996   0.054   5.233  10.252 -0.6212  0.0349 -1.0122
   33ccc    H21  997  -0.340   5.654  10.269  0.2215 -1.5797 -1.6462
   33ccc    H22  998  -0.460   5.454   9.989 -1.2764  0.6779  0.4483
   33ccc    H23  999   0.040   5.197  10.354  4.8319 -2.8508 -0.9272
   33ccc    H24 1000   0.135   5.308  10.250  0.8271 -1.4149  0.3110
   33ccc     O7 1001   0.087   5.113  10.175  0.3396  0.2917  0.2637
   33ccc    H25 1002   0.168   5.122  10.122  0.2580  0.8731  0.2214
   33ccc     O8 1003  -0.183   5.236  10.165  0.1341  0.3309  0.3255
   33ccc    H26 1004  -0.429   5.189   9.999 -1.7583 -1.6044 -0.0047
   33ccc    H27 1005  -0.128   5.411  10.379  0.9838  0.4507  0.4317
   33ccc     O9 1006   0.003   5.534  10.294  0.1298 -0.2228  0.2805
   33ccc    H28 1007  -0.023   5.612  10.347 -1.2356  0.1279 -0.8456
   33ccc     N3 1008  -0.444   5.495  10.080 -0.4005  0.1134  0.5689
   33ccc    C17 1009  -1.461   6.137   9.506  0.6035 -0.9314  0.7072
   33ccc    C18 1010  -1.508   6.048   9.626  0.0611 -0.1145 -0.2397
   33ccc    H29 1011  -1.485   6.085   9.413 -0.3896  2.8402 -1.3599
   33ccc    C19 1012  -1.402   5.946   9.677 -0.0578  0.0423  0.7702
   33ccc    C20 1013  -1.255   5.989   9.659 -0.1061  0.2571 -0.4015
   33ccc    C21 1014  -1.229   6.056   9.522  0.0017 -0.0653 -0.4836
   33ccc    H30 1015  -1.243   6.069   9.734  0.8371  0.4249 -0.7138
   33ccc    H31 1016  -1.409   5.858   9.612  0.0230  1.1004 -0.7001
   33ccc    H32 1017  -1.243   5.982   9.442 -2.2940  0.6531 -0.8017
   33ccc    O10 1018  -1.104   6.115   9.521 -0.4311  0.0436  0.2982
   33ccc    O11 1019  -1.427   5.908   9.817  0.4532 -0.4224 -0.3814
   33ccc    C22 1020  -1.552   6.266   9.493 -0.4651  0.0061 -0.1956
   33ccc    H33 1021  -1.368   5.837   9.849  2.0749  0.7737 -0.5632
   33ccc    H34 1022  -1.149   5.816   9.611  0.2477  0.0939 -0.2537
   33ccc    H35 1023  -1.658   6.240   9.495 -0.5880  0.5311  0.3811
   33ccc    H36 1024  -1.538   6.314   9.395 -0.1839 -2.3631 -1.4006
   33ccc    O12 1025  -1.527   6.363   9.597  0.3247  0.2322 -0.5538
   33ccc    H37 1026  -1.466   6.429   9.559  1.5728 -0.1910  0.5902
   33ccc    O13 1027  -1.320   6.169   9.515  0.4007  0.0646 -0.2336
   33ccc    H38 1028  -1.077   6.130   9.613  2.7145  1.6620 -0.7231
   33ccc    H39 1029  -1.542   6.112   9.709  0.6334 -0.0223 -0.0696
   33ccc     O5 1030  -1.618   5.964   9.589 -0.3590  0.0625 -0.3471
   33ccc    H40 1031  -1.641   5.917   9.671 -0.5677  0.9820  0.1265
   33ccc     N4 1032  -1.159   5.883   9.687  0.4995  0.3213 -0.4172
   34ccc     N1 1033  -0.139   5.691   6.755 -0.3694 -0.1925 -0.1752
   34ccc     H4 1034  -0.112   5.612   6.813 -0.2364 -0.4748 -0.6182
   34ccc     C3 1035  -0.191   5.659   6.619 -0.1058 -0.1215 -0.2466
   34ccc     H5 1036  -0.285   5.714   6.609  0.3615  0.8587  0.6460
   34ccc     C4 1037  -0.210   5.504   6.602 -0.5532 -0.1981  0.2018
   34ccc     H6 1038  -0.125   5.690   6.537  0.6666 -0.0886  0.3760
   34ccc     H7 1039  -0.233   5.463   6.701  1.3315  2.2850  1.8155
   34ccc     H8 1040  -0.113   5.459   6.578 -1.0104 -0.5212 -1.1299
   34ccc     N2 1041  -0.310   5.474   6.499 -0.1304 -0.2099  0.4821
   34ccc     C5 1042  -0.445   5.457   6.557 -0.0458  0.1637  0.4534
   34ccc     C6 1043  -0.277   5.366   6.410 -0.0849 -0.3216 -0.1330
   34ccc     H9 1044  -0.347   5.362   6.325  0.4308 -2.8288 -0.5184
   34ccc     C7 1045  -0.259   5.230   6.474  0.6500  0.4572 -0.7726
   34ccc    H10 1046  -0.186   5.389   6.353  0.0318 -0.7354 -0.1111
   34ccc    H11 1047  -0.350   5.212   6.532  0.0722  2.3521 -1.0106
   34ccc    H12 1048  -0.177   5.237   6.546  0.0938  0.9478 -0.1729
   34ccc     C8 1049  -0.241   5.120   6.372  0.3438 -0.2168  0.1790
   34ccc     O2 1050  -0.207   5.141   6.255 -0.1605 -0.2341 -0.2928
   34ccc    H13 1051  -0.450   5.531   6.638 -0.3683  1.8793 -1.0634
   34ccc    H14 1052  -0.477   5.362   6.602 -0.0657  0.1231  0.3538
   34ccc     C9 1053  -0.556   5.504   6.454  0.4948  0.4183 -0.2540
   34ccc    H15 1054  -0.555   5.449   6.359  1.4550 -0.3209  0.1626
   34ccc    H16 1055  -0.534   5.611   6.443 -2.0189  0.9708 -0.5106
   34ccc    C10 1056  -0.691   5.504   6.528 -0.2755 -0.8886  0.2276
   34ccc     O4 1057  -0.707   5.484   6.647 -0.3369  0.3336  0.3349
   34ccc    C11 1058  -0.162   4.582   6.388  0.4770  0.5032  1.1148
   34ccc    C12 1059  -0.301   4.621   6.343  0.3659 -1.0255  0.0367
   34ccc    H17 1060  -0.150   4.574   6.497 -0.9418 -2.4455  1.1680
   34ccc    C13 1061  -0.352   4.765   6.380  0.3512  0.0051 -0.1874
   34ccc    C14 1062  -0.239   4.869   6.354 -0.1417 -0.5839  0.0608
   34ccc    C15 1063  -0.100   4.817   6.396 -0.5358  0.2020  0.2311
   34ccc    H18 1064  -0.241   4.888   6.246  1.3018 -0.2157  0.0856
   34ccc    H19 1065  -0.370   4.766   6.489  1.7699 -2.3695  0.1483
   34ccc    H20 1066  -0.091   4.818   6.505  2.5765 -0.8539  0.0898
   34ccc     O1 1067   0.009   4.898   6.351  0.0407  0.6316 -0.2971
   34ccc     O6 1068  -0.471   4.803   6.311 -0.6694 -0.2251  0.1295
   34ccc    C16 1069  -0.126   4.444   6.327  0.6587 -0.5895 -0.5223
   34ccc    H21 1070  -0.547   4.789   6.371 -0.6082 -0.5295  0.1366
   34ccc    H22 1071  -0.293   4.994   6.519 -0.8811  1.5147 -1.1275
   34ccc    H23 1072  -0.151   4.442   6.220 -1.2278 -1.1992 -0.1187
   34ccc    H24 1073  -0.192   4.370   6.375  0.5696 -0.7739 -0.9240
   34ccc     O7 1074   0.005   4.405   6.352 -0.3285 -0.1641  0.5739
   34ccc    H25 1075   0.034   4.345   6.282  0.2188  0.3426  0.3546
   34ccc     O8 1076  -0.080   4.686   6.339 -0.0840 -0.2256 -0.4086
   34ccc    H26 1077   0.081   4.833   6.352 -1.0392 -0.6237 -1.2487
   34ccc    H27 1078  -0.311   4.627   6.234  0.5490  0.7986  0.0913
   34ccc     O9 1079  -0.392   4.533   6.401  0.3289 -0.1925  0.1031
   34ccc    H28 1080  -0.462   4.527   6.334 -0.9404  0.3766  1.3177
   34ccc     N3 1081  -0.267   5.001   6.421  0.1925  0.1996 -0.9624
   34ccc    C17 1082  -1.211   5.485   6.437  0.5688 -0.6150  0.3654
   34ccc    C18 1083  -1.150   5.434   6.566 -0.3602  0.0875  0.1592
   34ccc    H29 1084  -1.190   5.408   6.362  2.0611  0.2444 -0.1404
   34ccc    C19 1085  -0.993   5.432   6.564  1.0133  0.0633  0.9020
   34ccc    C20 1086  -0.934   5.554   6.492 -0.1070 -1.2192 -0.2778
   34ccc    C21 1087  -1.017   5.615   6.372 -0.0904 -0.4483  0.2393
   34ccc    H30 1088  -0.929   5.631   6.570  0.3361  0.7752 -2.1779
   34ccc    H31 1089  -0.963   5.347   6.502  0.8826  1.8692 -1.8196
   34ccc    H32 1090  -0.997   5.556   6.282  0.4615 -0.7303  0.5402
   34ccc    O10 1091  -0.967   5.751   6.365 -0.0454  0.5259  0.2271
   34ccc    O11 1092  -0.959   5.422   6.699  0.9128  0.3579  0.0066
   34ccc    C22 1093  -1.362   5.492   6.449  0.9463  0.0032 -0.8191
   34ccc    H33 1094  -0.862   5.424   6.689  0.8008  0.2488 -1.3011
   34ccc    H34 1095  -0.774   5.540   6.346  0.6877 -1.2341  0.4742
   34ccc    H35 1096  -1.400   5.390   6.465 -0.0456 -0.0946 -3.2625
   34ccc    H36 1097  -1.416   5.517   6.357 -1.5470  1.1784  0.8582
   34ccc    O12 1098  -1.413   5.569   6.561  0.0183  0.3592  0.3185
   34ccc    H37 1099  -1.506   5.543   6.564  0.0141  0.1195 -1.3158
   34ccc    O13 1100  -1.155   5.613   6.407 -0.2992  0.1462 -0.1753
   34ccc    H38 1101  -1.033   5.800   6.311  2.1477  2.4430 -0.9082
   34ccc    H39 1102  -1.185   5.507   6.641  0.1526  0.9133 -0.3973
   34ccc     O5 1103  -1.188   5.300   6.591 -0.4509 -0.2553  0.0202
   34ccc    H40 1104  -1.137   5.279   6.671  0.5338 -0.7412 -0.7190
   34ccc     N4 1105  -0.791   5.527   6.445 -0.5587 -0.1168  0.4210
   35ccc     N1 1106   0.425   5.805   7.269  0.0592  0.1314 -0.3485
   35ccc     H4 1107   0.369   5.726   7.297 -1.4256  0.3450 -2.4846
   35ccc     C3 1108   0.564   5.790   7.221 -0.1885  0.1647  0.0979
   35ccc     H5 1109   0.560   5.823   7.116 -1.6204  0.8733  0.3415
   35ccc     C4 1110   0.614   5.654   7.227  0.1533  0.2510 -0.2521
   35ccc     H6 1111   0.632   5.857   7.275 -0.8624 -0.5323  1.8707
   35ccc     H7 1112   0.531   5.594   7.188 -0.3382  1.8770 -1.8594
   35ccc     H8 1113   0.632   5.632   7.333  1.4040 -1.0413 -0.6985
   35ccc     N2 1114   0.726   5.644   7.138 -0.4184  0.7579 -0.6580
   35ccc     C5 1115   0.843   5.591   7.210  0.4387  0.2981 -0.6543
   35ccc     C6 1116   0.697   5.577   7.013 -0.4907  0.5673 -0.3833
   35ccc     H9 1117   0.695   5.468   7.021 -0.8009  0.4370 -1.8734
   35ccc     C7 1118   0.799   5.628   6.910 -0.1621 -0.0010  0.0923
   35ccc    H10 1119   0.604   5.615   6.969 -0.1501  0.9733 -0.7681
   35ccc    H11 1120   0.901   5.598   6.939  0.8798  1.3019 -1.9984
   35ccc    H12 1121   0.797   5.737   6.901  1.9656 -0.0425 -1.5130
   35ccc     C8 1122   0.762   5.576   6.778  0.5477 -0.8471  0.0540
   35ccc     O2 1123   0.647   5.561   6.747 -0.1878  0.6565 -0.2857
   35ccc    H13 1124   0.925   5.575   7.139 -0.0211  2.0447 -1.6144
   35ccc    H14 1125   0.826   5.495   7.261  0.3240  0.5181 -0.2762
   35ccc     C9 1126   0.888   5.694   7.307 -0.8926  0.2125 -0.4172
   35ccc    H15 1127   0.818   5.720   7.389  0.0279  0.7268  0.2251
   35ccc    H16 1128   0.909   5.782   7.244  0.6164  0.0185 -0.2194
   35ccc    C10 1129   1.026   5.658   7.353  0.1360  0.2679  0.1799
   35ccc     O4 1130   1.123   5.695   7.288 -0.3611  0.2742  0.2083
   35ccc    C11 1131   0.954   5.474   6.282  0.3272 -0.4033 -0.0571
   35ccc    C12 1132   0.989   5.365   6.390 -0.0172 -0.3594 -0.1201
   35ccc    H17 1133   1.034   5.548   6.269 -0.0299  0.0370  0.2210
   35ccc    C13 1134   0.986   5.420   6.534 -0.4527  0.0051 -0.0371
   35ccc    C14 1135   0.851   5.497   6.557 -0.1222  0.3446 -0.5785
   35ccc    C15 1136   0.832   5.610   6.445  0.2070  0.0157  0.2133
   35ccc    H18 1137   0.777   5.415   6.553  2.5731 -2.2667 -0.5537
   35ccc    H19 1138   1.070   5.490   6.541  0.1730 -0.4013 -2.6377
   35ccc    H20 1139   0.905   5.692   6.436 -1.8939  1.8338 -1.3079
   35ccc     O1 1140   0.707   5.676   6.460  0.1992 -0.0551 -0.1311
   35ccc     O6 1141   1.000   5.307   6.625 -0.3028 -0.2132 -0.0729
   35ccc    C16 1142   0.939   5.415   6.137 -0.4690  0.2663 -0.6070
   35ccc    H21 1143   1.016   5.349   6.712 -0.2985  0.9290 -0.6012
   35ccc    H22 1144   0.947   5.589   6.722 -0.3728 -0.9104  2.7414
   35ccc    H23 1145   0.874   5.326   6.134 -2.4861  1.6563 -0.6729
   35ccc    H24 1146   1.033   5.368   6.106 -0.7080 -0.6443 -0.0047
   35ccc     O7 1147   0.900   5.510   6.047 -0.3508 -0.2080 -0.4311
   35ccc    H25 1148   0.974   5.573   6.043  0.7536 -1.4204  0.3482
   35ccc     O8 1149   0.827   5.542   6.317 -0.2360  0.7087  0.1788
   35ccc    H26 1150   0.650   5.598   6.448  1.3869 -0.8855 -0.5483
   35ccc    H27 1151   0.913   5.286   6.380  1.6674 -1.9312 -1.1229
   35ccc     O9 1152   1.124   5.308   6.367 -0.2975 -0.0630  0.7851
   35ccc    H28 1153   1.107   5.223   6.323  0.7929 -1.1745  2.3893
   35ccc     N3 1154   0.857   5.549   6.694  0.2014 -0.4721 -0.0797
   35ccc    C17 1155   0.932   5.428   7.828  0.3672 -0.1526  0.4306
   35ccc    C18 1156   0.904   5.580   7.805  0.4548 -0.4456 -0.4937
   35ccc    H29 1157   1.037   5.400   7.839  0.6971  1.4907  1.9175
   35ccc    C19 1158   0.988   5.633   7.692  0.2786 -0.7073 -0.0071
   35ccc    C20 1159   0.945   5.552   7.567  0.1758 -0.7200  0.6959
   35ccc    C21 1160   0.941   5.399   7.583 -0.7937 -0.2257  0.5785
   35ccc    H30 1161   0.842   5.587   7.551  0.0956  0.0534  2.5620
   35ccc    H31 1162   1.091   5.601   7.713 -0.3987 -1.0094  3.5721
   35ccc    H32 1163   1.043   5.360   7.590  0.0154  1.7452  0.4217
   35ccc    O10 1164   0.870   5.333   7.479 -0.3543  0.2578 -0.4199
   35ccc    O11 1165   0.960   5.771   7.671 -1.0203  0.0050 -0.3731
   35ccc    C22 1166   0.862   5.375   7.953 -0.0131  0.5783  0.1012
   35ccc    H33 1167   1.037   5.806   7.623 -0.9138 -0.5244 -0.5912
   35ccc    H34 1168   1.138   5.569   7.496  0.0776  1.0093 -1.5236
   35ccc    H35 1169   0.754   5.396   7.955 -0.2358 -0.4428 -0.7158
   35ccc    H36 1170   0.896   5.428   8.042  1.6792 -0.0946 -0.1155
   35ccc    O12 1171   0.900   5.243   7.985 -0.0179  0.0735 -0.5073
   35ccc    H37 1172   0.907   5.199   7.898 -0.0612 -2.6143  0.7523
   35ccc    O13 1173   0.874   5.365   7.706  0.5895  0.4033 -0.2516
   35ccc    H38 1174   0.906   5.243   7.486  3.1137  1.4996  0.2335
   35ccc    H39 1175   0.798   5.602   7.789  0.4720  1.1180  1.2709
   35ccc     O5 1176   0.947   5.650   7.917 -0.3362  0.2047  0.3908
   35ccc    H40 1177   0.874   5.702   7.954 -0.8354  0.9142 -1.4760
   35ccc     N4 1178   1.042   5.582   7.464 -0.6035  0.2338  0.1244
   36ccc     N1 1179  -0.260   6.660   8.362 -0.3089 -0.4430  0.0684
   36ccc     H4 1180  -0.314   6.634   8.444 -1.1306 -0.7713 -0.5674
   36ccc     C3 1181  -0.120   6.607   8.362 -0.0680  0.4054 -0.2870
   36ccc     H5 1182  -0.122   6.498   8.374  0.2616  0.3018 -1.1020
   36ccc     C4 1183  -0.026   6.669   8.464  0.2256 -0.7630 -0.3635
   36ccc     H6 1184  -0.085   6.637   8.262  0.2075  0.2870 -0.2264
   36ccc     H7 1185  -0.042   6.778   8.468 -1.4726 -1.0232  0.9995
   36ccc     H8 1186   0.077   6.647   8.433 -0.1992 -0.2788 -2.1861
   36ccc     N2 1187  -0.035   6.615   8.598 -0.1158  0.0723 -0.7050
   36ccc     C5 1188  -0.146   6.669   8.683 -0.2228  0.3723  0.1796
   36ccc     C6 1189   0.093   6.615   8.664 -0.5754  0.1666 -0.7193
   36ccc     H9 1190   0.152   6.706   8.648  1.6695 -1.4775 -2.4002
   36ccc     C7 1191   0.164   6.485   8.628 -0.1699  0.2082 -0.4761
   36ccc    H10 1192   0.074   6.615   8.773 -0.3652  3.7468 -0.5631
   36ccc    H11 1193   0.194   6.487   8.522 -1.7775  0.8937 -0.9460
   36ccc    H12 1194   0.091   6.403   8.635  0.9038 -0.6495  1.2441
   36ccc     C8 1195   0.282   6.468   8.715 -0.0213 -0.6387  0.0138
   36ccc     O2 1196   0.274   6.490   8.828 -0.0058 -0.1834 -0.4990
   36ccc    H13 1197  -0.230   6.672   8.612  0.9287 -0.4784 -1.2574
   36ccc    H14 1198  -0.119   6.766   8.728 -0.7216  1.5704 -1.9951
   36ccc     C9 1199  -0.185   6.557   8.784 -0.6840  0.7916  0.5023
   36ccc    H15 1200  -0.115   6.559   8.868  0.0935  0.5403 -0.1365
   36ccc    H16 1201  -0.193   6.462   8.731 -0.7433 -0.0301  1.9377
   36ccc    C10 1202  -0.324   6.567   8.821  0.8580 -0.1498  0.5584
   36ccc     O4 1203  -0.414   6.589   8.741 -0.1669  0.1610  0.2891
   36ccc    C11 1204   0.688   6.671   8.871 -0.3335 -0.5675 -0.0638
   36ccc    C12 1205   0.695   6.521   8.891 -0.5310 -0.0366  0.5966
   36ccc    H17 1206   0.614   6.720   8.935  0.8843  3.5183 -1.4530
   36ccc    C13 1207   0.562   6.458   8.845  0.7370 -0.1030 -0.2189
   36ccc    C14 1208   0.530   6.490   8.696  0.7975 -0.2149  0.2427
   36ccc    C15 1209   0.525   6.647   8.683 -0.0684  0.1137  0.6084
   36ccc    H18 1210   0.601   6.442   8.628  0.6287 -1.9005  1.2167
   36ccc    H19 1211   0.488   6.497   8.916  1.2469 -0.2553  0.4068
   36ccc    H20 1212   0.435   6.675   8.739 -1.8090  0.2777 -2.0897
   36ccc     O1 1213   0.505   6.679   8.551 -0.3640  0.2577 -0.0053
   36ccc     O6 1214   0.555   6.318   8.867  0.4238  0.6572  0.6569
   36ccc    C16 1215   0.836   6.727   8.881 -0.3362  1.0907 -0.1566
   36ccc    H21 1216   0.559   6.285   8.776  0.0464 -0.4297  1.0228
   36ccc    H22 1217   0.383   6.436   8.557 -1.0437 -1.6123  0.3810
   36ccc    H23 1218   0.879   6.705   8.782 -0.0042  0.3215  0.1478
   36ccc    H24 1219   0.889   6.674   8.961 -0.8106  0.9801  0.0914
   36ccc     O7 1220   0.838   6.862   8.917  0.1329 -0.2875  0.1771
   36ccc    H25 1221   0.799   6.896   8.834  2.3009 -0.7731 -1.1379
   36ccc     O8 1222   0.646   6.702   8.728  0.2845 -0.1217 -0.1639
   36ccc    H26 1223   0.535   6.770   8.535 -1.5848  0.5226 -1.0049
   36ccc    H27 1224   0.774   6.479   8.827 -0.9489 -1.4391  0.9458
   36ccc     O9 1225   0.729   6.481   9.024  0.1014 -0.7649 -0.3678
   36ccc    H28 1226   0.689   6.393   9.036  0.1465 -0.7602 -0.1803
   36ccc     N3 1227   0.398   6.435   8.658 -0.6453 -0.6556  0.3407
   36ccc    C17 1228  -0.744   6.553   9.115 -0.0565 -0.6260  0.2360
   36ccc    C18 1229  -0.643   6.445   9.167 -0.1886 -0.1654  0.7703
   36ccc    H29 1230  -0.792   6.513   9.025  0.3481  1.3918 -0.9378
   36ccc    C19 1231  -0.527   6.432   9.057  0.7040 -0.4876 -0.1181
   36ccc    C20 1232  -0.468   6.570   9.031  0.3679  0.4619 -0.4615
   36ccc    C21 1233  -0.576   6.661   8.976 -0.1824 -0.3240  0.3588
   36ccc    H30 1234  -0.448   6.606   9.133  1.6419 -0.4619 -0.3597
   36ccc    H31 1235  -0.579   6.402   8.965 -1.8628  4.0408 -0.4318
   36ccc    H32 1236  -0.620   6.617   8.886  0.0924 -1.2095  0.6502
   36ccc    O10 1237  -0.537   6.793   8.938 -0.0288 -0.3446  0.4288
   36ccc    O11 1238  -0.435   6.334   9.109  0.2330 -0.1904  0.1298
   36ccc    C22 1239  -0.859   6.594   9.218  0.2972  0.9145 -0.5400
   36ccc    H33 1240  -0.489   6.260   9.142 -0.1812  0.0406 -0.0235
   36ccc    H34 1241  -0.265   6.524   9.010  0.6166  1.6640 -0.9125
   36ccc    H35 1242  -0.929   6.512   9.239  0.2893  1.1491  0.4065
   36ccc    H36 1243  -0.918   6.672   9.167  0.3729  0.6567 -1.0220
   36ccc    O12 1244  -0.810   6.645   9.339 -0.1939  0.5101 -0.0636
   36ccc    H37 1245  -0.805   6.570   9.402  1.2615 -0.1210 -0.8856
   36ccc    O13 1246  -0.678   6.672   9.076 -0.8065 -0.4256  0.0240
   36ccc    H38 1247  -0.620   6.842   8.931  0.0700 -0.4061 -2.2456
   36ccc    H39 1248  -0.593   6.482   9.257 -1.3402  0.7670  1.0511
   36ccc     O5 1249  -0.706   6.312   9.178  0.0391  0.3345  0.0190
   36ccc    H40 1250  -0.793   6.313   9.222 -0.4246 -0.8895 -0.8357
   36ccc     N4 1251  -0.344   6.558   8.956 -0.7405  0.3228  0.1563
   37ccc     N1 1252  -0.955   7.037   8.239 -0.4219  0.3624  0.3777
   37ccc     H4 1253  -0.901   7.023   8.324  0.1783  1.2536  0.1569
   37ccc     C3 1254  -0.993   7.172   8.196  0.1324  0.0144  0.7156
   37ccc     H5 1255  -0.943   7.196   8.102 -0.9404 -1.4178 -0.2604
   37ccc     C4 1256  -0.935   7.266   8.304 -0.9905 -0.0413  0.2344
   37ccc     H6 1257  -1.102   7.184   8.191  0.1089  1.9141  3.6143
   37ccc     H7 1258  -0.989   7.252   8.399 -0.5197  0.8652  0.6436
   37ccc     H8 1259  -0.975   7.362   8.271 -0.5767 -0.4568 -1.6269
   37ccc     N2 1260  -0.784   7.269   8.308 -0.5903  0.6042  0.1736
   37ccc     C5 1261  -0.734   7.404   8.281 -0.1079 -0.0719 -0.2672
   37ccc     C6 1262  -0.736   7.220   8.438 -0.7293  0.3839  0.1096
   37ccc     H9 1263  -0.764   7.296   8.512 -0.2022  0.4255  0.2711
   37ccc     C7 1264  -0.586   7.183   8.440  0.1778  0.6031 -0.4579
   37ccc    H10 1265  -0.790   7.125   8.452 -1.8683  1.0053  0.0442
   37ccc    H11 1266  -0.535   7.224   8.352  0.6863  0.4017 -0.2572
   37ccc    H12 1267  -0.571   7.074   8.438 -0.1555  0.5401  0.2958
   37ccc     C8 1268  -0.523   7.237   8.566  0.4106  0.4479  0.0127
   37ccc     O2 1269  -0.487   7.353   8.568  0.3190  0.1557 -0.3520
   37ccc    H13 1270  -0.630   7.419   8.314 -0.0017 -1.7557  0.2619
   37ccc    H14 1271  -0.800   7.477   8.329 -0.3110  0.0155 -0.6744
   37ccc     C9 1272  -0.744   7.429   8.133  0.6541 -0.0676  0.2637
   37ccc    H15 1273  -0.741   7.535   8.105 -0.9628 -0.4095 -1.3961
   37ccc    H16 1274  -0.839   7.391   8.092  0.0594  2.8248 -1.2697
   37ccc    C10 1275  -0.623   7.375   8.060  0.5322 -0.4778 -0.3762
   37ccc     O4 1276  -0.545   7.450   8.001 -0.0429  0.0847  0.2332
   37ccc    C11 1277  -0.366   7.360   9.031 -0.1330 -0.8925  0.5577
   37ccc    C12 1278  -0.513   7.370   9.015 -0.0388 -0.3035  0.3688
   37ccc    H17 1279  -0.330   7.454   8.987 -1.9246  0.4426  1.7961
   37ccc    C13 1280  -0.557   7.334   8.865 -0.5662  0.7317  0.7830
   37ccc    C14 1281  -0.480   7.205   8.813 -0.1960 -0.0694  0.1737
   37ccc    C15 1282  -0.330   7.228   8.827  0.3035  0.7470 -0.1447
   37ccc    H18 1283  -0.496   7.117   8.875 -1.7813 -0.3937 -0.6563
   37ccc    H19 1284  -0.536   7.424   8.807 -0.5837  1.4632  1.8828
   37ccc    H20 1285  -0.296   7.316   8.772 -2.4605  0.5244 -2.4624
   37ccc     O1 1286  -0.254   7.118   8.782  0.9083 -0.2523 -0.3788
   37ccc     O6 1287  -0.701   7.312   8.873 -0.5475  0.3060  0.0998
   37ccc    C16 1288  -0.316   7.368   9.179 -0.1048 -0.0591 -0.8908
   37ccc    H21 1289  -0.715   7.216   8.872  2.0985 -0.1524 -0.7583
   37ccc    H22 1290  -0.586   7.078   8.673  0.1123  0.7745 -2.4755
   37ccc    H23 1291  -0.332   7.468   9.221  0.7061 -0.2997  0.0149
   37ccc    H24 1292  -0.208   7.350   9.185 -0.1091  0.4698  1.6668
   37ccc     O7 1293  -0.376   7.267   9.267  0.3490  0.1491  0.1989
   37ccc    H25 1294  -0.379   7.179   9.224 -0.1818  0.7804 -1.0926
   37ccc     O8 1295  -0.316   7.237   8.971  0.1359 -0.9243  0.1928
   37ccc    H26 1296  -0.278   7.061   8.857 -0.7315  0.5053 -0.2698
   37ccc    H27 1297  -0.552   7.300   9.091 -1.9565  1.4270  1.0810
   37ccc     O9 1298  -0.562   7.503   9.048  0.2186 -0.1020  0.1219
   37ccc    H28 1299  -0.657   7.488   9.061  0.3325 -0.2354  0.8250
   37ccc     N3 1300  -0.530   7.163   8.680  0.4624  0.4290 -0.5135
   37ccc    C17 1301  -0.279   7.094   7.828  0.2693 -0.1447 -0.0624
   37ccc    C18 1302  -0.314   7.042   7.971 -0.2662  0.0278 -0.2260
   37ccc    H29 1303  -0.212   7.179   7.843 -0.3654 -0.0746  3.0050
   37ccc    C19 1304  -0.413   7.131   8.048 -0.1231  0.6240 -0.4022
   37ccc    C20 1305  -0.532   7.163   7.955 -0.1994  0.0804 -0.8730
   37ccc    C21 1306  -0.487   7.222   7.824 -0.5877  0.1775  0.0445
   37ccc    H30 1307  -0.572   7.065   7.928  1.4353 -0.3847 -1.7435
   37ccc    H31 1308  -0.365   7.229   8.057  1.2059  0.1219 -1.6492
   37ccc    H32 1309  -0.450   7.325   7.834 -1.7272  0.8450 -1.9576
   37ccc    O10 1310  -0.600   7.228   7.733 -0.2748 -1.1404  0.2190
   37ccc    O11 1311  -0.452   7.070   8.169  0.1529  0.6229 -0.4070
   37ccc    C22 1312  -0.197   6.988   7.747  0.6609  0.8293 -0.0870
   37ccc    H33 1313  -0.388   7.086   8.241 -0.3187  0.0561  0.1540
   37ccc    H34 1314  -0.671   7.187   8.114  0.6985 -0.0202  0.9918
   37ccc    H35 1315  -0.266   6.903   7.734 -0.7331  1.8376  0.4951
   37ccc    H36 1316  -0.108   6.948   7.798 -0.2835  0.4341  1.3047
   37ccc    O12 1317  -0.162   7.037   7.620 -0.0012 -0.3800 -0.6007
   37ccc    H37 1318  -0.171   6.968   7.551 -0.7548 -1.2765  0.3526
   37ccc    O13 1319  -0.391   7.137   7.756 -0.0440 -0.7023 -0.5637
   37ccc    H38 1320  -0.557   7.247   7.648  0.0206  2.0600  0.9726
   37ccc    H39 1321  -0.367   6.947   7.953 -3.1013  1.8236 -2.1142
   37ccc     O5 1322  -0.196   7.032   8.058 -0.4571 -0.6411  0.0652
   37ccc    H40 1323  -0.215   6.962   8.123 -0.3587  0.3086  1.1557
   37ccc     N4 1324  -0.632   7.245   8.040  0.1180 -0.6656  0.1578
   38ccc     N1 1325  -1.107   4.884   6.562 -0.2409 -0.1381 -0.3978
   38ccc     H4 1326  -1.179   4.942   6.521 -0.2424 -0.3950 -0.7642
   38ccc     C3 1327  -0.962   4.924   6.543 -0.4924 -0.2849 -0.2362
   38ccc     H5 1328  -0.903   4.839   6.578  0.7343  0.3654 -0.6823
   38ccc     C4 1329  -0.918   5.049   6.625  0.2161 -0.2346  0.3915
   38ccc     H6 1330  -0.930   4.951   6.442  3.0138 -0.6468  0.6636
   38ccc     H7 1331  -0.944   5.027   6.729  1.7737 -1.9720  0.4724
   38ccc     H8 1332  -0.977   5.137   6.597 -0.8602 -0.8639  0.6158
   38ccc     N2 1333  -0.780   5.070   6.596 -0.4763  0.1858 -0.6743
   38ccc     C5 1334  -0.753   5.144   6.480 -0.2014 -0.4229  0.6883
   38ccc     C6 1335  -0.708   5.119   6.712 -0.0318 -0.0709 -0.2840
   38ccc     H9 1336  -0.611   5.166   6.696  0.2804 -0.0087  1.5104
   38ccc     C7 1337  -0.697   5.008   6.821 -0.5531  0.0033 -0.3371
   38ccc    H10 1338  -0.762   5.204   6.755  0.6160  0.1085  0.1907
   38ccc    H11 1339  -0.644   4.930   6.764 -1.4087 -1.4344  0.7515
   38ccc    H12 1340  -0.795   4.967   6.848  0.5761 -1.2328  2.2832
   38ccc     C8 1341  -0.619   5.061   6.936 -0.1514 -0.3231 -0.1531
   38ccc     O2 1342  -0.658   5.151   7.011  0.1830  0.6862  0.1251
   38ccc    H13 1343  -0.745   5.251   6.503  2.7976 -0.5277  0.5983
   38ccc    H14 1344  -0.839   5.135   6.413 -0.2706  1.7615  0.4073
   38ccc     C9 1345  -0.615   5.119   6.416 -0.0781 -0.1384 -0.1303
   38ccc    H15 1346  -0.581   5.017   6.442  0.6235 -0.2802 -1.5042
   38ccc    H16 1347  -0.540   5.188   6.456 -0.6833 -0.2096  1.1968
   38ccc    C10 1348  -0.621   5.144   6.263  0.1709 -0.1073  0.0819
   38ccc     O4 1349  -0.701   5.217   6.203  0.3586 -0.0843  0.5219
   38ccc    C11 1350  -0.283   5.296   7.179 -0.2257 -0.2666  0.4656
   38ccc    C12 1351  -0.291   5.162   7.244  0.2465  0.5320 -0.3973
   38ccc    H17 1352  -0.375   5.355   7.182  0.1802  0.8409 -3.2733
   38ccc    C13 1353  -0.402   5.082   7.178  0.8870 -0.0660  0.1827
   38ccc    C14 1354  -0.393   5.078   7.026 -0.3501 -0.1685  0.2897
   38ccc    C15 1355  -0.365   5.216   6.962 -0.2274  0.8814 -0.5782
   38ccc    H18 1356  -0.300   5.022   7.014  1.6695  2.4435  2.4546
   38ccc    H19 1357  -0.492   5.137   7.210 -0.7838 -3.3308  1.6416
   38ccc    H20 1358  -0.445   5.291   6.965 -1.0462 -0.0056  0.6141
   38ccc     O1 1359  -0.314   5.198   6.833  0.3588  0.1140  0.7009
   38ccc     O6 1360  -0.393   4.947   7.221 -0.1491  0.3770  0.3178
   38ccc    C16 1361  -0.172   5.386   7.236  0.4501 -0.7507 -0.3811
   38ccc    H21 1362  -0.476   4.899   7.207 -0.8020  1.1915  1.2520
   38ccc    H22 1363  -0.488   4.903   6.961  1.3305  0.3515  0.4633
   38ccc    H23 1364  -0.074   5.369   7.189  1.3938  2.3000  0.2053
   38ccc    H24 1365  -0.170   5.374   7.345 -0.5062  0.2827 -0.2382
   38ccc     O7 1366  -0.195   5.522   7.199 -0.4673 -0.0107  0.2542
   38ccc    H25 1367  -0.150   5.518   7.113  0.0958  4.1849  0.1688
   38ccc     O8 1368  -0.255   5.271   7.038  0.0263 -0.2398  0.5151
   38ccc    H26 1369  -0.220   5.220   6.825  1.0120 -1.5941  2.7917
   38ccc    H27 1370  -0.198   5.103   7.234 -0.4180 -0.5940 -0.1004
   38ccc     O9 1371  -0.323   5.171   7.388 -0.3531 -0.6132  0.0829
   38ccc    H28 1372  -0.332   5.089   7.439 -1.5132 -0.2235  0.5628
   38ccc     N3 1373  -0.502   5.004   6.958  0.2681  0.2035  0.0150
   38ccc    C17 1374  -0.411   5.069   5.793 -0.2591  0.2482  0.0593
   38ccc    C18 1375  -0.492   4.950   5.853 -0.1831  0.2363  0.0577
   38ccc    H29 1376  -0.303   5.049   5.803 -0.7002 -2.1198  0.7689
   38ccc    C19 1377  -0.474   4.944   6.006  0.0430 -0.3059  0.0027
   38ccc    C20 1378  -0.511   5.081   6.058  1.0693 -0.3399 -0.4145
   38ccc    C21 1379  -0.408   5.191   6.000  0.1063  0.5731  1.0606
   38ccc    H30 1380  -0.609   5.103   6.015  0.2920 -0.2733  1.3308
   38ccc    H31 1381  -0.367   4.936   6.030 -0.0238  3.0470  2.1594
   38ccc    H32 1382  -0.303   5.173   6.025  0.2394 -0.3405 -0.0593
   38ccc    O10 1383  -0.428   5.328   6.032  0.0028  0.0267 -0.2045
   38ccc    O11 1384  -0.565   4.842   6.058 -0.0953  0.3989 -0.3182
   38ccc    C22 1385  -0.437   5.091   5.641  0.2585  0.3992 -0.1246
   38ccc    H33 1386  -0.558   4.859   6.154  0.9289  1.5156 -0.5651
   38ccc    H34 1387  -0.459   5.017   6.248 -0.1040 -0.8775 -0.0049
   38ccc    H35 1388  -0.365   5.031   5.583  0.9832  0.6463  0.5074
   38ccc    H36 1389  -0.410   5.195   5.617 -0.8614  0.6135 -0.4909
   38ccc    O12 1390  -0.575   5.066   5.609  0.0251 -0.2289 -0.4799
   38ccc    H37 1391  -0.581   4.979   5.565 -2.9144  0.3022 -1.3109
   38ccc    O13 1392  -0.434   5.189   5.862  0.0132  0.0534  0.1785
   38ccc    H38 1393  -0.408   5.372   5.948  2.2062  2.1194  1.2551
   38ccc    H39 1394  -0.600   4.957   5.835 -0.1411  2.4649  0.3019
   38ccc     O5 1395  -0.443   4.839   5.781  0.5859  0.2578 -0.4701
   38ccc    H40 1396  -0.515   4.822   5.717 -0.9753  0.4182  1.1642
   38ccc     N4 1397  -0.525   5.079   6.201  0.4779 -0.5481 -0.3997
   39ccc     N1 1398  -1.562   5.077   7.092 -0.1264  0.7061  0.3457
   39ccc     H4 1399  -1.475   5.036   7.125 -1.8334 -0.9181  3.2473
   39ccc     C3 1400  -1.655   5.125   7.194 -0.0820  0.0554  0.3987
   39ccc     H5 1401  -1.601   5.208   7.242  0.3808  0.1366 -0.2558
   39ccc     C4 1402  -1.697   5.028   7.298  0.0045  0.2518 -0.0112
   39ccc     H6 1403  -1.746   5.170   7.153  0.8871  1.0142 -0.7642
   39ccc     H7 1404  -1.721   4.937   7.242  0.5926  1.1677 -1.8354
   39ccc     H8 1405  -1.786   5.062   7.351 -2.1881  0.1945 -3.3500
   39ccc     N2 1406  -1.591   5.013   7.396  0.0152 -0.1380 -0.3389
   39ccc     C5 1407  -1.586   4.886   7.460 -0.6724  0.3086 -0.1088
   39ccc     C6 1408  -1.594   5.117   7.496 -0.2418  0.4731  0.7519
   39ccc     H9 1409  -1.617   5.211   7.445  3.6849 -0.0608 -2.4855
   39ccc     C7 1410  -1.462   5.136   7.572  0.3901  0.0809  0.6268
   39ccc    H10 1411  -1.676   5.092   7.564 -0.6224 -1.4761 -0.3421
   39ccc    H11 1412  -1.394   5.178   7.496 -1.5933  2.5408  0.0725
   39ccc    H12 1413  -1.418   5.050   7.623  1.2061  0.7563  1.1016
   39ccc     C8 1414  -1.477   5.246   7.673 -0.2034 -0.3415 -0.1194
   39ccc     O2 1415  -1.577   5.269   7.739  0.6958 -0.3092  0.5862
   39ccc    H13 1416  -1.685   4.850   7.492  0.1353 -1.2427  0.8054
   39ccc    H14 1417  -1.517   4.892   7.545 -0.6305 -0.9350 -0.0371
   39ccc     C9 1418  -1.519   4.785   7.365  0.6627  0.5589  0.9155
   39ccc    H15 1419  -1.417   4.804   7.329  0.8040 -0.6203  0.6573
   39ccc    H16 1420  -1.563   4.775   7.265  1.2908 -0.2380  0.7100
   39ccc    C10 1421  -1.521   4.651   7.433 -0.6392 -0.1557  0.5556
   39ccc     O4 1422  -1.521   4.630   7.550 -0.2714 -0.2951 -0.1998
   39ccc    C11 1423  -1.256   5.711   7.824  0.3635 -0.5320  0.5088
   39ccc    C12 1424  -1.404   5.684   7.834 -0.3505  0.3594 -0.6426
   39ccc    H17 1425  -1.229   5.733   7.720 -0.8035 -3.6965 -0.5971
   39ccc    C13 1426  -1.447   5.556   7.765  0.5599  0.0047 -0.3215
   39ccc    C14 1427  -1.353   5.433   7.780  0.1156  0.1964 -0.4717
   39ccc    C15 1428  -1.208   5.480   7.775 -0.2059 -0.2939 -0.2707
   39ccc    H18 1429  -1.365   5.399   7.883 -1.9707 -2.4402 -1.4876
   39ccc    H19 1430  -1.451   5.572   7.656 -2.0191  3.9358  0.1375
   39ccc    H20 1431  -1.177   5.510   7.674  2.5426 -1.3714  0.1583
   39ccc     O1 1432  -1.126   5.376   7.829 -0.1444  0.2825  0.3297
   39ccc     O6 1433  -1.580   5.515   7.818 -0.5960 -0.6821  0.0669
   39ccc    C16 1434  -1.206   5.825   7.918 -0.1948 -0.5751 -0.5340
   39ccc    H21 1435  -1.582   5.418   7.806 -2.5280 -0.6392 -0.2104
   39ccc    H22 1436  -1.288   5.298   7.625 -0.8460  0.8221 -1.5484
   39ccc    H23 1437  -1.236   5.810   8.023  2.3435 -0.4797  0.2821
   39ccc    H24 1438  -1.260   5.916   7.890  1.1863 -0.1344 -1.9040
   39ccc     O7 1439  -1.066   5.859   7.904 -0.4969 -0.0032  0.1550
   39ccc    H25 1440  -1.016   5.775   7.905 -1.0621 -0.3674 -0.6683
   39ccc     O8 1441  -1.179   5.593   7.861  0.0331 -0.1563 -0.2698
   39ccc    H26 1442  -1.086   5.432   7.898 -0.7952  1.4756 -0.2144
   39ccc    H27 1443  -1.424   5.674   7.941 -0.3929  0.4333 -0.6437
   39ccc     O9 1444  -1.470   5.793   7.762  0.6284  0.0004 -0.6379
   39ccc    H28 1445  -1.564   5.777   7.782  1.3529 -2.1349  1.4542
   39ccc     N3 1446  -1.366   5.316   7.688  0.4591  0.2624  0.2991
   39ccc    C17 1447  -1.562   4.124   7.336 -0.1200 -0.5887  0.0929
   39ccc    C18 1448  -1.441   4.189   7.260 -0.3217  0.6124 -0.6670
   39ccc    H29 1449  -1.656   4.132   7.281 -1.3099 -0.1399  2.0769
   39ccc    C19 1450  -1.457   4.339   7.242 -0.5153  0.5703  0.0491
   39ccc    C20 1451  -1.482   4.406   7.373  0.5916  0.1363 -0.2849
   39ccc    C21 1452  -1.606   4.336   7.441  0.1336 -0.1042  1.0616
   39ccc    H30 1453  -1.393   4.393   7.435  0.7694 -1.0977 -0.7695
   39ccc    H31 1454  -1.549   4.349   7.183 -2.9529 -0.8379  3.2868
   39ccc    H32 1455  -1.703   4.349   7.390  1.0527 -0.2570 -0.8111
   39ccc    O10 1456  -1.619   4.388   7.573  0.2097  0.5247 -0.0303
   39ccc    O11 1457  -1.340   4.388   7.172  0.4637 -0.2818 -0.5978
   39ccc    C22 1458  -1.530   3.981   7.383 -0.9215  0.1851 -0.5207
   39ccc    H33 1459  -1.359   4.402   7.077 -0.7781 -0.8443 -0.4424
   39ccc    H34 1460  -1.494   4.575   7.245 -0.2618  0.0742 -0.0412
   39ccc    H35 1461  -1.486   3.919   7.304 -0.1398 -0.5610  0.4864
   39ccc    H36 1462  -1.616   3.924   7.420 -0.2523 -0.9899 -0.7287
   39ccc    O12 1463  -1.431   3.976   7.491  0.0967  0.0834 -0.0867
   39ccc    H37 1464  -1.453   4.051   7.548 -1.8461 -0.8531  0.4926
   39ccc    O13 1465  -1.583   4.200   7.459 -0.1257 -0.2512  0.3376
   39ccc    H38 1466  -1.598   4.482   7.563 -3.2397  1.5019  0.8249
   39ccc    H39 1467  -1.360   4.165   7.330 -2.0912 -0.1579  1.1893
   39ccc     O5 1468  -1.415   4.116   7.138  0.4428  0.1501 -0.0017
   39ccc    H40 1469  -1.322   4.140   7.122  0.7434  0.5008  2.0106
   39ccc     N4 1470  -1.505   4.558   7.345 -0.5638  0.0508 -0.0776
   40ccc     N1 1471  -1.190   5.039   7.861  0.0717 -1.3427  0.5040
   40ccc     H4 1472  -1.180   5.012   7.764 -0.1677  0.0391  0.0611
   40ccc     C3 1473  -1.315   4.999   7.930  0.8318 -0.0126  0.2704
   40ccc     H5 1474  -1.292   4.976   8.035 -0.1036  1.9961  0.9573
   40ccc     C4 1475  -1.387   4.877   7.866 -0.2686  0.6541 -0.1740
   40ccc     H6 1476  -1.383   5.084   7.933  2.2500  1.1422  0.5532
   40ccc     H7 1477  -1.320   4.794   7.893 -0.2906 -0.2632 -2.6727
   40ccc     H8 1478  -1.371   4.892   7.759 -0.5702  1.0522 -0.1665
   40ccc     N2 1479  -1.526   4.846   7.909 -0.2201 -0.5292 -0.3251
   40ccc     C5 1480  -1.556   4.704   7.880  0.6979 -0.1927 -0.4113
   40ccc     C6 1481  -1.617   4.946   7.853 -0.3338 -0.6147 -0.2534
   40ccc     H9 1482  -1.580   5.047   7.875 -0.7032 -0.5627  0.1432
   40ccc     C7 1483  -1.757   4.933   7.912  0.9595  0.7933 -0.9307
   40ccc    H10 1484  -1.621   4.940   7.743  0.0936 -0.5755 -0.2700
   40ccc    H11 1485  -1.753   4.953   8.020 -0.4375 -2.2596 -0.1910
   40ccc    H12 1486  -1.796   4.831   7.904  0.0029  0.9696  0.8581
   40ccc     C8 1487  -1.851   5.039   7.869 -0.1364 -0.0031 -0.2689
   40ccc     O2 1488  -1.901   5.123   7.940  0.2286  0.1097  0.1040
   40ccc    H13 1489  -1.554   4.687   7.771 -0.0597 -2.2928 -0.1572
   40ccc    H14 1490  -1.659   4.697   7.917  0.8897  0.4853  0.2696
   40ccc     C9 1491  -1.476   4.603   7.964  0.0195 -0.4736  0.1989
   40ccc    H15 1492  -1.472   4.626   8.071  1.3841  1.1581 -0.1551
   40ccc    H16 1493  -1.375   4.597   7.920  0.8002 -1.1936  2.0175
   40ccc    C10 1494  -1.530   4.464   7.959  1.3032 -0.3451 -0.0689
   40ccc     O4 1495  -1.470   4.369   7.914 -0.1116 -0.0171  0.1116
   40ccc    C11 1496  -2.206   5.301   7.634 -0.7176 -0.1225 -0.1116
   40ccc    C12 1497  -2.066   5.352   7.606 -0.3463 -0.1614 -0.1071
   40ccc    H17 1498  -2.228   5.321   7.740  1.5422  0.8776  0.2148
   40ccc    C13 1499  -1.957   5.274   7.684 -0.1504 -0.9937 -0.2799
   40ccc    C14 1500  -1.970   5.122   7.670  0.1915 -0.0534  0.0167
   40ccc    C15 1501  -2.121   5.092   7.713  0.1812  0.2212 -0.4735
   40ccc    H18 1502  -1.966   5.099   7.563  0.0612 -3.5493  0.6460
   40ccc    H19 1503  -1.960   5.299   7.791 -2.1535 -1.5773 -0.1644
   40ccc    H20 1504  -2.151   5.114   7.816 -0.4456 -1.2755 -0.3169
   40ccc     O1 1505  -2.142   4.956   7.706  0.3795 -0.5652  0.0351
   40ccc     O6 1506  -1.831   5.313   7.628  0.1734 -0.2491 -0.2489
   40ccc    C16 1507  -2.317   5.359   7.541  0.0367  0.1624  0.5818
   40ccc    H21 1508  -1.763   5.255   7.667  2.3408  2.8470  0.9908
   40ccc    H22 1509  -1.866   4.945   7.703  1.1194 -1.3418  3.1856
   40ccc    H23 1510  -2.333   5.467   7.553  1.7328  0.4603  0.3722
   40ccc    H24 1511  -2.414   5.314   7.565 -0.7895  0.3930 -1.9528
   40ccc     O7 1512  -2.293   5.329   7.401  0.6114  0.4857 -0.2660
   40ccc    H25 1513  -2.224   5.260   7.400 -0.4944 -0.6838 -2.1706
   40ccc     O8 1514  -2.209   5.158   7.620 -0.2161 -0.1076 -0.3227
   40ccc    H26 1515  -2.085   4.911   7.771  1.4463 -0.2922 -0.7050
   40ccc    H27 1516  -2.050   5.338   7.499 -1.4133 -0.1717 -0.2794
   40ccc     O9 1517  -2.069   5.494   7.639  0.0520 -0.1367  0.5955
   40ccc    H28 1518  -1.983   5.534   7.620 -0.0414 -0.5009 -0.6394
   40ccc     N3 1519  -1.870   5.041   7.739 -0.4339 -0.0714  0.0159
   40ccc    C17 1520  -1.818   4.096   7.864  0.1221  0.8073  0.3617
   40ccc    C18 1521  -1.790   4.092   8.015  0.5626  0.2820  0.2556
   40ccc    H29 1522  -1.725   4.091   7.806 -0.3633  0.4976 -0.4044
   40ccc    C19 1523  -1.702   4.207   8.063 -0.1817  0.6716  0.3823
   40ccc    C20 1524  -1.745   4.347   8.012 -0.4056  0.5039 -0.3809
   40ccc    C21 1525  -1.798   4.347   7.868 -0.0637  0.0814 -0.1650
   40ccc    H30 1526  -1.827   4.364   8.083 -0.1991 -0.9503  0.2329
   40ccc    H31 1527  -1.606   4.201   8.010 -2.4953  2.9395 -4.6842
   40ccc    H32 1528  -1.715   4.347   7.796  1.2067  3.5595  1.0670
   40ccc    O10 1529  -1.872   4.457   7.850  0.1911 -1.0662 -0.2642
   40ccc    O11 1530  -1.684   4.191   8.209 -0.2422  0.1784  0.2631
   40ccc    C22 1531  -1.913   3.988   7.804  0.2105  0.6032 -0.3766
   40ccc    H33 1532  -1.715   4.275   8.247 -0.6384 -0.7078  2.0252
   40ccc    H34 1533  -1.702   4.536   8.045  0.6561 -0.7551  3.1299
   40ccc    H35 1534  -1.859   3.894   7.818 -1.5504 -0.5939 -1.2911
   40ccc    H36 1535  -1.921   4.025   7.701 -1.0620 -0.2748 -0.6024
   40ccc    O12 1536  -2.038   3.980   7.870  0.6915  0.3956  0.4126
   40ccc    H37 1537  -2.083   4.064   7.854 -0.6824 -0.4102 -0.0503
   40ccc    O13 1538  -1.877   4.231   7.843 -0.2874  0.4963  0.0754
   40ccc    H38 1539  -1.967   4.436   7.839 -0.6823  2.2972 -0.3397
   40ccc    H39 1540  -1.889   4.110   8.060  0.4447  0.7834 -0.1883
   40ccc     O5 1541  -1.731   3.965   8.051 -0.5868  0.6075  0.3757
   40ccc    H40 1542  -1.670   3.978   8.126  0.3652 -0.4857 -0.1663
   40ccc     N4 1543  -1.645   4.452   8.035  0.1792 -0.8633  0.5302
   41ccc     N1 1544  -0.503   5.380   7.640 -0.0937 -0.4622  0.3087
   41ccc     H4 1545  -0.566   5.351   7.566 -0.2686 -2.4453  1.1540
   41ccc     C3 1546  -0.423   5.512   7.622 -0.0867  0.1009 -0.2335
   41ccc     H5 1547  -0.458   5.605   7.667  2.1996  0.7536  0.3554
   41ccc     C4 1548  -0.400   5.550   7.469 -0.5836  0.2412  0.4347
   41ccc     H6 1549  -0.319   5.501   7.657 -0.0498 -0.5480 -0.5266
   41ccc     H7 1550  -0.355   5.465   7.415 -0.1476 -0.4792  1.8943
   41ccc     H8 1551  -0.318   5.623   7.471 -0.5763  0.2148  2.0703
   41ccc     N2 1552  -0.515   5.605   7.396  0.3621 -0.2860  0.3654
   41ccc     C5 1553  -0.637   5.526   7.394  0.2959  0.3153 -0.2177
   41ccc     C6 1554  -0.479   5.669   7.265  1.1388  0.4034 -0.9448
   41ccc     H9 1555  -0.399   5.741   7.286  0.3878  0.7139  1.1315
   41ccc     C7 1556  -0.596   5.740   7.202 -0.0056 -0.1630  0.9974
   41ccc    H10 1557  -0.445   5.591   7.196  1.9429 -0.4884  0.4138
   41ccc    H11 1558  -0.637   5.810   7.276 -2.4592  1.7949 -1.9807
   41ccc    H12 1559  -0.675   5.671   7.169  0.9087 -1.4077  1.3326
   41ccc     C8 1560  -0.550   5.818   7.079  1.0529  0.4346 -0.3193
   41ccc     O2 1561  -0.433   5.816   7.041  0.6263 -0.1867  0.2421
   41ccc    H13 1562  -0.720   5.581   7.349  1.2412  2.2731  0.3082
   41ccc    H14 1563  -0.666   5.510   7.498 -0.0671 -0.1032 -0.3785
   41ccc     C9 1564  -0.621   5.401   7.302 -0.2634  0.2367 -0.0520
   41ccc    H15 1565  -0.544   5.334   7.343 -0.5129  0.0169  0.0604
   41ccc    H16 1566  -0.595   5.429   7.199 -0.0014 -2.7032 -0.8936
   41ccc    C10 1567  -0.759   5.334   7.297 -0.3214  0.8095 -0.4309
   41ccc     O4 1568  -0.809   5.272   7.392  0.0479 -0.1734 -0.0329
   41ccc    C11 1569  -0.518   6.048   6.623 -0.8618  0.5965  0.5580
   41ccc    C12 1570  -0.633   5.946   6.635  0.8906 -0.6938  0.4183
   41ccc    H17 1571  -0.425   5.992   6.609 -1.2379 -0.0655  0.6845
   41ccc    C13 1572  -0.642   5.877   6.774  0.2375 -0.5331 -0.3831
   41ccc    C14 1573  -0.633   5.977   6.892  0.3776  0.3904  0.0850
   41ccc    C15 1574  -0.509   6.067   6.868 -0.6517  0.7295  0.7510
   41ccc    H18 1575  -0.725   6.036   6.883 -0.5902 -0.8379  1.4976
   41ccc    H19 1576  -0.562   5.802   6.783  0.4651 -0.1669  0.8253
   41ccc    H20 1577  -0.417   6.008   6.858 -0.6531  1.0709 -1.9566
   41ccc     O1 1578  -0.494   6.156   6.978 -0.2673 -0.4167  0.0076
   41ccc     O6 1579  -0.764   5.804   6.779 -0.0166 -0.0267  0.2562
   41ccc    C16 1580  -0.527   6.135   6.495  0.0517 -0.5359 -0.2939
   41ccc    H21 1581  -0.762   5.759   6.692  1.8658  0.4434  0.0143
   41ccc    H22 1582  -0.739   5.879   7.047  0.8048 -3.8719 -0.6936
   41ccc    H23 1583  -0.621   6.191   6.497 -0.1352 -0.8551  1.3871
   41ccc    H24 1584  -0.539   6.064   6.412 -0.5326 -2.3422  1.2773
   41ccc     O7 1585  -0.420   6.221   6.463 -0.1451  0.5055 -0.1384
   41ccc    H25 1586  -0.346   6.184   6.515  0.3817 -1.2409 -2.0203
   41ccc     O8 1587  -0.518   6.133   6.740  0.1724  0.5435 -0.3237
   41ccc    H26 1588  -0.479   6.100   7.056  0.5988 -0.0322  0.1344
   41ccc    H27 1589  -0.721   6.007   6.614  2.4375  1.9138  1.0357
   41ccc     O9 1590  -0.620   5.837   6.539 -0.9038 -0.5658 -0.1217
   41ccc    H28 1591  -0.635   5.862   6.445  0.1009  0.2457 -0.0814
   41ccc     N3 1592  -0.643   5.903   7.026  0.2147 -0.1849  0.0646
   41ccc    C17 1593  -1.170   5.374   6.962 -0.1138 -0.3575 -0.2003
   41ccc    C18 1594  -1.118   5.237   6.966 -0.1715  0.2704 -0.0283
   41ccc    H29 1595  -1.103   5.434   6.899  1.6961 -1.7119  0.3363
   41ccc    C19 1596  -0.974   5.239   7.015  0.2270 -0.1747 -0.4151
   41ccc    C20 1597  -0.954   5.323   7.147  0.2233  0.0194 -0.1617
   41ccc    C21 1598  -1.038   5.456   7.149 -0.2954  0.0056  0.6275
   41ccc    H30 1599  -0.993   5.272   7.236 -0.6840  1.1758  0.1237
   41ccc    H31 1600  -0.908   5.282   6.938 -0.1787  2.4676  0.5938
   41ccc    H32 1601  -0.992   5.528   7.081 -0.2711 -3.9855 -4.2232
   41ccc    O10 1602  -1.059   5.501   7.282  0.1426 -0.5208 -0.0153
   41ccc    O11 1603  -0.929   5.102   7.031 -0.0067  0.8809 -0.0299
   41ccc    C22 1604  -1.313   5.370   6.906 -0.4601 -0.6543 -0.2050
   41ccc    H33 1605  -0.834   5.123   7.040  0.3809 -1.1529  1.2820
   41ccc    H34 1606  -0.770   5.394   7.094 -1.2549  0.0852 -0.4279
   41ccc    H35 1607  -1.375   5.298   6.961  0.0881 -0.8281  0.1942
   41ccc    H36 1608  -1.314   5.353   6.798 -2.9118  2.3042 -0.8106
   41ccc    O12 1609  -1.383   5.497   6.919 -0.0747  0.2092 -0.3886
   41ccc    H37 1610  -1.346   5.546   6.994 -1.7063 -0.2562  0.7783
   41ccc    O13 1611  -1.167   5.443   7.087 -0.1224  0.8003  0.2610
   41ccc    H38 1612  -1.059   5.598   7.271  1.0036 -0.6591 -1.6263
   41ccc    H39 1613  -1.175   5.187   7.045  4.2119 -0.6130  2.9496
   41ccc     O5 1614  -1.138   5.172   6.840  0.3102 -0.7034  0.5943
   41ccc    H40 1615  -1.124   5.078   6.863 -0.6343 -1.3726 -1.3570
   41ccc     N4 1616  -0.812   5.345   7.173 -0.1515 -0.4215 -0.1276
   42ccc     N1 1617   0.117   5.489   7.429  0.2057 -0.1709  0.2983
   42ccc     H4 1618   0.079   5.397   7.449  0.1656 -0.6897 -1.8883
   42ccc     C3 1619   0.046   5.612   7.460  0.1578 -0.4661 -0.3541
   42ccc     H5 1620   0.049   5.684   7.378  0.1141  1.4609  1.2484
   42ccc     C4 1621   0.106   5.683   7.584 -0.4455  0.5458  0.4615
   42ccc     H6 1622  -0.057   5.587   7.485  0.3693  0.1421  1.3313
   42ccc     H7 1623   0.205   5.726   7.561 -1.1152  0.7763 -2.2304
   42ccc     H8 1624   0.140   5.607   7.656  1.2726 -0.3648 -1.1957
   42ccc     N2 1625   0.022   5.788   7.636 -0.1749  0.6198 -0.2443
   42ccc     C5 1626  -0.106   5.752   7.704  0.4320  0.6769  0.1034
   42ccc     C6 1627   0.101   5.880   7.727  0.0297 -0.0690 -0.6734
   42ccc     H9 1628   0.029   5.933   7.791 -0.6901 -0.2585 -1.3123
   42ccc     C7 1629   0.167   5.993   7.654 -0.0332 -0.7356 -0.0975
   42ccc    H10 1630   0.171   5.822   7.788 -0.2833  0.9759  0.7404
   42ccc    H11 1631   0.091   6.051   7.600 -1.3552  0.4870  2.8656
   42ccc    H12 1632   0.246   5.951   7.591 -0.4135 -0.7243 -0.5903
   42ccc     C8 1633   0.222   6.097   7.758 -0.1720  0.5812 -0.1705
   42ccc     O2 1634   0.153   6.152   7.837  0.5482  0.2037  0.8103
   42ccc    H13 1635  -0.082   5.714   7.805  1.8644 -0.5789 -0.6654
   42ccc    H14 1636  -0.153   5.667   7.653  1.5460  0.4949 -0.6565
   42ccc     C9 1637  -0.198   5.872   7.697  0.1430  0.2793 -0.0610
   42ccc    H15 1638  -0.259   5.842   7.611 -0.9424  0.9579  0.4488
   42ccc    H16 1639  -0.147   5.967   7.677 -0.9317  0.6168 -1.3412
   42ccc    C10 1640  -0.305   5.875   7.802 -0.1077  0.0832  0.0731
   42ccc     O4 1641  -0.386   5.789   7.809  0.2016 -0.2989 -0.6147
   42ccc    C11 1642   0.687   6.257   8.008  0.2303  0.7119  0.4677
   42ccc    C12 1643   0.611   6.357   7.907  0.0977  0.3742 -0.5656
   42ccc    H17 1644   0.762   6.214   7.942 -0.7107  0.2582 -0.3373
   42ccc    C13 1645   0.538   6.274   7.802 -0.4875  0.1224 -0.1726
   42ccc    C14 1646   0.437   6.181   7.869  0.1990  0.7443 -0.6169
   42ccc    C15 1647   0.526   6.081   7.956 -0.4190 -0.1381 -0.2963
   42ccc    H18 1648   0.375   6.237   7.940 -0.0134 -2.5327  2.0794
   42ccc    H19 1649   0.609   6.209   7.749 -0.6111  0.2178 -0.4561
   42ccc    H20 1650   0.607   6.044   7.892 -0.4863  0.4841 -0.7541
   42ccc     O1 1651   0.452   5.985   8.015  0.2002 -0.0011  0.2916
   42ccc     O6 1652   0.477   6.359   7.705 -0.0023 -0.1183 -0.2783
   42ccc    C16 1653   0.749   6.339   8.128  0.2584  0.0888  0.5040
   42ccc    H21 1654   0.471   6.301   7.628  0.8389 -0.8681  0.1968
   42ccc    H22 1655   0.401   6.045   7.702  0.2662  0.3830 -0.4804
   42ccc    H23 1656   0.666   6.367   8.194  0.0645 -0.7148  0.6112
   42ccc    H24 1657   0.789   6.435   8.095 -0.3979  0.4839  0.8415
   42ccc     O7 1658   0.839   6.250   8.189  0.3826 -0.4498 -0.4084
   42ccc    H25 1659   0.779   6.202   8.249  0.8453 -0.2608  0.2116
   42ccc     O8 1660   0.592   6.164   8.056  0.1594  0.0740  0.8469
   42ccc    H26 1661   0.484   5.978   8.106 -1.3516  0.7793  0.9219
   42ccc    H27 1662   0.534   6.419   7.954 -0.9628 -1.4951  0.2808
   42ccc     O9 1663   0.703   6.442   7.835  0.2809  0.5900 -0.0251
   42ccc    H28 1664   0.656   6.492   7.766 -0.0363 -0.6286 -0.7287
   42ccc     N3 1665   0.354   6.110   7.765  0.2706 -0.1809  0.1172
   42ccc    C17 1666  -0.121   6.345   7.988  0.0851 -0.3281 -0.3671
   42ccc    C18 1667  -0.121   6.236   8.103  0.2222 -0.2763 -0.1521
   42ccc    H29 1668  -0.219   6.396   7.991  0.1803 -0.1979  1.2403
   42ccc    C19 1669  -0.214   6.115   8.076 -0.1842  0.3169 -0.1922
   42ccc    C20 1670  -0.217   6.072   7.922  0.0953  0.7883 -0.1894
   42ccc    C21 1671  -0.236   6.204   7.840  0.4167  0.1076 -0.1860
   42ccc    H30 1672  -0.118   6.029   7.901 -1.0468 -0.9999 -2.2678
   42ccc    H31 1673  -0.316   6.153   8.090  0.1843  1.3818 -0.3125
   42ccc    H32 1674  -0.316   6.270   7.875 -0.3313 -0.8386 -0.0854
   42ccc    O10 1675  -0.245   6.186   7.704  0.2554  0.3094 -0.0804
   42ccc    O11 1676  -0.176   6.016   8.175  0.0646  1.0684  0.0061
   42ccc    C22 1677  -0.004   6.443   7.997 -0.3141  0.1664 -0.7476
   42ccc    H33 1678  -0.222   5.938   8.139 -2.0618  2.2541  0.0070
   42ccc    H34 1679  -0.406   5.976   7.949 -1.7822  1.0540 -1.2012
   42ccc    H35 1680   0.000   6.493   8.095  0.1741  2.0198 -1.6652
   42ccc    H36 1681  -0.005   6.520   7.919 -2.4860  0.2708 -0.6904
   42ccc    O12 1682   0.119   6.375   7.991 -0.1457 -0.1662 -0.4429
   42ccc    H37 1683   0.118   6.311   7.918  0.0302  0.1410 -0.7219
   42ccc    O13 1684  -0.116   6.278   7.855  0.2069  0.1174 -0.3382
   42ccc    H38 1685  -0.150   6.190   7.685  0.7047 -0.4093  1.8061
   42ccc    H39 1686  -0.019   6.196   8.109  1.0748  1.6007 -1.0251
   42ccc     O5 1687  -0.156   6.307   8.218 -0.4005 -0.0855  0.4276
   42ccc    H40 1688  -0.147   6.249   8.296 -1.2541 -1.3416 -0.3531
   42ccc     N4 1689  -0.318   5.967   7.897 -0.7542 -0.4330  0.6756
   43ccc     N1 1690   0.656   5.177   6.884  0.0373 -0.2399  0.3156
   43ccc     H4 1691   0.572   5.234   6.886 -1.8067 -2.8195  0.8934
   43ccc     C3 1692   0.760   5.185   6.780  0.0465  0.0460 -0.3857
   43ccc     H5 1693   0.759   5.285   6.735 -2.1793  0.6874  0.9510
   43ccc     C4 1694   0.738   5.086   6.668 -0.9092 -0.1538 -0.3074
   43ccc     H6 1695   0.859   5.160   6.821  0.0152  0.0814 -0.2876
   43ccc     H7 1696   0.755   4.986   6.710  0.1696 -0.7540 -2.0949
   43ccc     H8 1697   0.808   5.103   6.586 -2.4482 -0.2503 -1.6955
   43ccc     N2 1698   0.605   5.075   6.607  0.2429  0.1028  0.3554
   43ccc     C5 1699   0.559   5.195   6.534 -0.0620  0.5467 -0.2937
   43ccc     C6 1700   0.499   5.031   6.694  0.2262  0.9414  0.5973
   43ccc     H9 1701   0.539   4.972   6.777  1.2938  0.5932 -0.1370
   43ccc     C7 1702   0.423   4.934   6.605  0.6740  0.2488  0.1982
   43ccc    H10 1703   0.425   5.108   6.720 -1.0341 -0.1496  0.3462
   43ccc    H11 1704   0.488   4.863   6.553  0.0469 -2.5754  2.9535
   43ccc    H12 1705   0.361   4.984   6.530 -1.1342 -1.1759  0.6787
   43ccc     C8 1706   0.330   4.848   6.683  1.2520 -0.1229  0.0389
   43ccc     O2 1707   0.307   4.856   6.802 -0.1785 -0.1054 -0.3492
   43ccc    H13 1708   0.580   5.282   6.598 -0.1747 -0.5662  1.3248
   43ccc    H14 1709   0.450   5.191   6.526 -0.3394 -0.8935  2.7824
   43ccc     C9 1710   0.617   5.218   6.393 -0.6626  0.4189  0.4728
   43ccc    H15 1711   0.576   5.140   6.328 -1.1099 -0.1999  1.4746
   43ccc    H16 1712   0.726   5.209   6.381 -0.8787  0.4020 -2.0333
   43ccc    C10 1713   0.573   5.350   6.328 -0.5157 -0.0539  0.1036
   43ccc     O4 1714   0.552   5.447   6.395  0.1825  0.3253 -0.1908
   43ccc    C11 1715   0.138   4.429   6.837 -0.3920 -0.6035  0.1040
   43ccc    C12 1716   0.022   4.525   6.805 -0.0282  0.0985 -0.1349
   43ccc    H17 1717   0.173   4.470   6.932 -3.9932  1.2207  0.8274
   43ccc    C13 1718   0.087   4.664   6.761  0.2584  0.2878 -0.0928
   43ccc    C14 1719   0.183   4.643   6.642 -0.1370 -0.3716 -0.2496
   43ccc    C15 1720   0.295   4.543   6.694  0.1617  0.1065 -0.6969
   43ccc    H18 1721   0.129   4.605   6.555 -3.1331  3.0103 -0.1007
   43ccc    H19 1722   0.140   4.708   6.845 -0.8544  0.0724  0.7478
   43ccc    H20 1723   0.334   4.580   6.790 -2.9467  3.5486 -0.5331
   43ccc     O1 1724   0.386   4.529   6.596 -0.0506  0.2746 -0.1968
   43ccc     O6 1725  -0.018   4.754   6.723  0.1588  0.0838  0.0433
   43ccc    C16 1726   0.090   4.285   6.869 -0.1947  0.1358 -0.0787
   43ccc    H21 1727  -0.091   4.732   6.783  0.8152  0.8774  1.1820
   43ccc    H22 1728   0.292   4.763   6.506  0.4271  2.8410 -0.3779
   43ccc    H23 1729   0.057   4.215   6.791 -1.3980 -2.5113  2.5988
   43ccc    H24 1730   0.007   4.286   6.940 -0.8417  0.9361 -0.8320
   43ccc     O7 1731   0.195   4.203   6.934 -0.8081 -0.1573  0.1174
   43ccc    H25 1732   0.242   4.139   6.879  0.3051  2.0047 -1.6057
   43ccc     O8 1733   0.238   4.424   6.731 -0.3015  0.5445  0.2279
   43ccc    H26 1734   0.365   4.436   6.574  0.9038  0.3494 -1.5003
   43ccc    H27 1735  -0.034   4.476   6.724  0.7249  0.2784 -0.7792
   43ccc     O9 1736  -0.047   4.546   6.927 -0.2237  0.1927  0.3351
   43ccc    H28 1737  -0.127   4.491   6.932 -0.5515  0.6498  0.2240
   43ccc     N3 1738   0.256   4.773   6.600 -0.6366 -0.1352 -0.3511
   43ccc    C17 1739   0.581   5.646   5.884 -0.3254 -0.0229 -0.4357
   43ccc    C18 1740   0.522   5.503   5.853  0.0904  0.8251  0.7429
   43ccc    H29 1741   0.690   5.640   5.876 -0.3491 -1.9748  0.2963
   43ccc    C19 1742   0.553   5.399   5.960 -0.0917  0.1995 -0.1305
   43ccc    C20 1743   0.512   5.457   6.099 -0.3397  0.3181 -0.6322
   43ccc    C21 1744   0.571   5.592   6.124  0.1318  0.1593 -0.3126
   43ccc    H30 1745   0.402   5.460   6.093 -0.4557 -2.5200 -1.6104
   43ccc    H31 1746   0.661   5.384   5.950 -0.2052 -0.7462 -0.0117
   43ccc    H32 1747   0.680   5.592   6.133  0.2043 -1.3331 -0.8459
   43ccc    O10 1748   0.505   5.659   6.232 -0.1251 -0.1559  0.3720
   43ccc    O11 1749   0.481   5.273   5.939 -0.5729 -0.3220  0.3318
   43ccc    C22 1750   0.523   5.739   5.779  0.0327 -0.5798 -0.1441
   43ccc    H33 1751   0.397   5.291   5.984 -1.0640  1.7998 -1.2408
   43ccc    H34 1752   0.579   5.264   6.139  2.1916  1.3952 -2.1608
   43ccc    H35 1753   0.414   5.724   5.771 -0.2161 -1.2368  2.9304
   43ccc    H36 1754   0.574   5.709   5.687  0.0534  0.0371 -0.3412
   43ccc    O12 1755   0.559   5.877   5.813 -0.1262 -0.2501 -0.2489
   43ccc    H37 1756   0.561   5.880   5.910 -2.0383 -1.5375 -0.1017
   43ccc    O13 1757   0.539   5.688   6.018 -0.2217 -0.4501 -0.0350
   43ccc    H38 1758   0.498   5.593   6.304  1.9369 -0.3027  0.4974
   43ccc    H39 1759   0.413   5.509   5.841  0.3093  3.8143 -0.7929
   43ccc     O5 1760   0.573   5.464   5.723 -0.7583  0.0895  0.2996
   43ccc    H40 1761   0.504   5.404   5.688 -0.6315  0.3543 -0.4170
   43ccc     N4 1762   0.564   5.350   6.191  0.0293  0.0181 -0.3243
   44ccc     N1 1763   0.052   4.112   6.510 -0.5878 -0.1676 -0.2098
   44ccc     H4 1764   0.048   4.196   6.566  1.3138 -1.3833  1.9319
   44ccc     C3 1765  -0.073   4.024   6.495  0.5674 -0.4748  0.0240
   44ccc     H5 1766  -0.109   4.040   6.393  1.6862 -0.5918 -0.3930
   44ccc     C4 1767  -0.186   4.079   6.578 -0.0615 -0.6418 -0.1528
   44ccc     H6 1768  -0.055   3.917   6.514  0.6504 -0.2742  1.1468
   44ccc     H7 1769  -0.275   4.021   6.551  0.1145 -1.2191  0.4604
   44ccc     H8 1770  -0.205   4.182   6.548 -0.8035 -0.7884 -0.2048
   44ccc     N2 1771  -0.154   4.074   6.721  0.8393 -0.2772  0.0583
   44ccc     C5 1772  -0.147   3.933   6.769  0.3598 -0.0178  0.4296
   44ccc     C6 1773  -0.268   4.141   6.790  0.1761 -0.2882  0.1427
   44ccc     H9 1774  -0.363   4.092   6.769 -0.3256  0.8875 -0.4141
   44ccc     C7 1775  -0.271   4.287   6.757  0.0525  0.1465 -0.6075
   44ccc    H10 1776  -0.253   4.137   6.899 -1.9675  2.3134  0.6325
   44ccc    H11 1777  -0.318   4.323   6.665 -0.2900  2.6031  0.4543
   44ccc    H12 1778  -0.169   4.326   6.746  0.7740 -1.6641 -0.7201
   44ccc     C8 1779  -0.336   4.367   6.863 -0.0662 -0.0740 -0.1558
   44ccc     O2 1780  -0.269   4.421   6.949 -0.1644 -0.6260  0.4513
   44ccc    H13 1781  -0.071   3.873   6.718 -1.2653 -1.1261 -0.7864
   44ccc    H14 1782  -0.248   3.890   6.760  0.2144 -0.0729  2.1473
   44ccc     C9 1783  -0.090   3.936   6.913  0.2691  0.5281  0.4979
   44ccc    H15 1784  -0.160   3.950   6.996  0.3876 -0.8659  0.8559
   44ccc    H16 1785  -0.011   4.011   6.918  1.0095 -0.1786 -0.2393
   44ccc    C10 1786  -0.034   3.802   6.938  0.0261 -0.0188  0.3446
   44ccc     O4 1787  -0.054   3.699   6.879  0.5219 -0.0723  0.3403
   44ccc    C11 1788  -0.715   4.693   7.028 -0.3082  0.4741 -0.6536
   44ccc    C12 1789  -0.743   4.542   7.075 -0.8363 -0.4663 -0.1111
   44ccc    H17 1790  -0.758   4.715   6.930 -2.6566 -0.7696  0.0306
   44ccc    C13 1791  -0.682   4.433   6.982 -0.2913  0.4690  0.8182
   44ccc    C14 1792  -0.534   4.474   6.962  0.0475 -0.0532  0.1148
   44ccc    C15 1793  -0.527   4.618   6.909  0.0587  0.0689 -0.7137
   44ccc    H18 1794  -0.484   4.465   7.059  0.9767  0.1700 -0.3229
   44ccc    H19 1795  -0.739   4.441   6.889  1.5072  0.2764 -0.3586
   44ccc    H20 1796  -0.587   4.627   6.819 -1.2221 -1.7212 -0.0911
   44ccc     O1 1797  -0.395   4.665   6.880  0.0242  0.0029  0.5616
   44ccc     O6 1798  -0.689   4.304   7.046 -0.1485  0.5318  0.5689
   44ccc    C16 1799  -0.758   4.794   7.127  0.0264  0.5402 -0.3343
   44ccc    H21 1800  -0.706   4.236   6.979 -0.3791 -0.0877  1.2454
   44ccc    H22 1801  -0.532   4.342   6.793  0.1035 -0.9529  0.5685
   44ccc    H23 1802  -0.867   4.796   7.130  0.0076  0.5892 -1.0529
   44ccc    H24 1803  -0.717   4.890   7.095 -0.9277  0.6129 -1.3969
   44ccc     O7 1804  -0.716   4.767   7.264 -0.0536 -0.1789 -0.1787
   44ccc    H25 1805  -0.752   4.837   7.321 -0.8732 -0.5299 -0.2591
   44ccc     O8 1806  -0.571   4.704   7.015  0.4640 -0.0607  0.0393
   44ccc    H26 1807  -0.350   4.646   6.964  0.6783 -1.3391 -0.0670
   44ccc    H27 1808  -0.693   4.524   7.171 -1.4112 -0.1506  0.2525
   44ccc     O9 1809  -0.880   4.523   7.091  0.3496  0.7497 -0.2504
   44ccc    H28 1810  -0.900   4.444   7.144 -3.4415  1.7613  0.1199
   44ccc     N3 1811  -0.469   4.377   6.866 -0.1516 -0.2688  0.4648
   44ccc    C17 1812   0.206   3.410   7.050 -0.6580 -0.3748  0.1206
   44ccc    C18 1813   0.315   3.522   7.031 -0.7757 -0.3732  0.0890
   44ccc    H29 1814   0.141   3.413   6.962 -1.8879  1.2558  1.0221
   44ccc    C19 1815   0.241   3.658   6.992 -0.7666 -0.5150 -0.0772
   44ccc    C20 1816   0.134   3.696   7.097  0.6042  0.6087  0.3701
   44ccc    C21 1817   0.051   3.568   7.138 -0.0927  0.1347  0.3883
   44ccc    H30 1818   0.185   3.734   7.187  0.6366  1.0325  0.1750
   44ccc    H31 1819   0.197   3.647   6.892  1.3860  0.2029 -1.1858
   44ccc    H32 1820  -0.022   3.545   7.059 -1.5129  0.4801  1.5385
   44ccc    O10 1821  -0.021   3.583   7.257 -0.1967 -0.8366  0.0744
   44ccc    O11 1822   0.339   3.762   6.990  0.0555  0.2988  0.2991
   44ccc    C22 1823   0.269   3.268   7.077 -0.0214  0.2412 -0.2109
   44ccc    H33 1824   0.406   3.750   6.920 -1.1011 -0.2178 -0.7579
   44ccc    H34 1825   0.068   3.900   7.075  0.6326 -0.2221  1.1446
   44ccc    H35 1826   0.338   3.268   7.162  0.6014 -1.4535 -0.6872
   44ccc    H36 1827   0.328   3.245   6.987 -1.4193 -0.9239 -0.8721
   44ccc    O12 1828   0.165   3.171   7.098  0.1387  0.2855  0.0279
   44ccc    H37 1829   0.149   3.199   7.189 -0.4555 -0.1958  0.0814
   44ccc    O13 1830   0.134   3.459   7.164  0.0596  0.1626  0.4277
   44ccc    H38 1831   0.049   3.542   7.310  1.7852  2.2742  0.1457
   44ccc    H39 1832   0.357   3.539   7.131 -2.5338  1.0792  0.6339
   44ccc     O5 1833   0.413   3.474   6.933 -0.0143  0.2543  0.4271
   44ccc    H40 1834   0.498   3.520   6.942  0.7036 -1.0855  0.7767
   44ccc     N4 1835   0.045   3.806   7.044  0.5040  0.0223  0.4650
   45ccc     N1 1836   0.785   4.521   6.230  0.1709 -0.5881  0.6383
   45ccc     H4 1837   0.849   4.454   6.272  3.0354  0.4761 -1.6444
   45ccc     C3 1838   0.832   4.576   6.099  0.0641 -0.3586  1.1081
   45ccc     H5 1839   0.777   4.669   6.082 -1.2531 -1.4377 -0.8563
   45ccc     C4 1840   0.819   4.473   5.988  0.0055  0.4254 -0.3296
   45ccc     H6 1841   0.940   4.596   6.103 -0.0016  0.2191  0.1166
   45ccc     H7 1842   0.842   4.370   6.020  0.1880  0.4687 -0.3151
   45ccc     H8 1843   0.901   4.501   5.920  0.0648 -0.6911 -0.7553
   45ccc     N2 1844   0.683   4.477   5.920 -0.4355  0.2696 -0.1666
   45ccc     C5 1845   0.579   4.392   5.980 -0.2187  0.4844 -0.4444
   45ccc     C6 1846   0.684   4.459   5.772 -0.1380  0.5270 -0.3467
   45ccc     H9 1847   0.725   4.359   5.752 -2.3556 -0.2700 -1.2261
   45ccc     C7 1848   0.753   4.564   5.702 -0.2035 -0.4974 -0.1098
   45ccc    H10 1849   0.583   4.462   5.730  0.3461  0.6937 -1.5238
   45ccc    H11 1850   0.862   4.556   5.701 -0.1327  0.2485  0.8053
   45ccc    H12 1851   0.729   4.663   5.741 -1.0515 -0.5526 -0.4636
   45ccc     C8 1852   0.714   4.555   5.554 -0.7576  0.0643 -0.3473
   45ccc     O2 1853   0.768   4.480   5.473  0.0084 -0.2157  0.1033
   45ccc    H13 1854   0.595   4.367   6.086 -0.3905 -0.8393 -0.7196
   45ccc    H14 1855   0.572   4.298   5.924 -3.5696  1.7381 -2.4497
   45ccc     C9 1856   0.440   4.461   5.960  0.2310 -0.1244  0.2330
   45ccc    H15 1857   0.409   4.474   5.856 -1.3357 -0.9568  0.5568
   45ccc    H16 1858   0.439   4.558   6.011 -2.5119 -0.9135  1.8640
   45ccc    C10 1859   0.341   4.374   6.034  0.6276  0.3847 -0.4426
   45ccc     O4 1860   0.368   4.281   6.107  0.6245  0.5200  1.0888
   45ccc    C11 1861   0.287   4.598   5.228  1.0038 -0.3049  0.4740
   45ccc    C12 1862   0.409   4.698   5.196  0.1556  0.2976 -0.6857
   45ccc    H17 1863   0.204   4.640   5.287 -0.0861  0.5301 -1.5414
   45ccc    C13 1864   0.499   4.730   5.321  0.6842 -0.1702 -0.4797
   45ccc    C14 1865   0.525   4.603   5.402  0.3263  0.3701 -0.7224
   45ccc    C15 1866   0.398   4.515   5.424  0.3252 -0.6046 -0.6506
   45ccc    H18 1867   0.582   4.544   5.330  0.5859  0.6999 -0.7904
   45ccc    H19 1868   0.443   4.804   5.378  0.9636 -2.1701  2.6350
   45ccc    H20 1869   0.332   4.565   5.495  0.7923 -0.6173 -0.2002
   45ccc     O1 1870   0.437   4.382   5.472  0.3090 -0.5129  0.4932
   45ccc     O6 1871   0.624   4.789   5.292 -0.0828  0.3258 -0.2818
   45ccc    C16 1872   0.226   4.530   5.101 -0.2734 -0.0051  0.3689
   45ccc    H21 1873   0.683   4.780   5.369 -1.1372  2.1530  0.8099
   45ccc    H22 1874   0.570   4.700   5.590 -0.1234  0.0331 -0.4669
   45ccc    H23 1875   0.298   4.459   5.060  0.3763  0.3525  0.8686
   45ccc    H24 1876   0.213   4.610   5.027 -0.4710 -0.3944 -0.0192
   45ccc     O7 1877   0.100   4.475   5.135 -0.0495  0.2696  0.2981
   45ccc    H25 1878   0.122   4.412   5.206 -0.0611  1.7364  1.6579
   45ccc     O8 1879   0.337   4.488   5.293  0.3893  0.0418 -0.0390
   45ccc    H26 1880   0.356   4.331   5.454  1.3195 -1.6363 -1.1511
   45ccc    H27 1881   0.469   4.638   5.126  0.5600  0.4788 -0.4952
   45ccc     O9 1882   0.359   4.820   5.135  0.0710 -0.8713 -0.1387
   45ccc    H28 1883   0.416   4.847   5.061 -1.2390  1.0040 -0.5408
   45ccc     N3 1884   0.610   4.633   5.524 -0.1477 -0.0564 -0.3914
   45ccc    C17 1885  -0.052   4.665   5.795  0.5154  0.2929  0.1035
   45ccc    C18 1886  -0.021   4.703   5.940  0.5987 -0.1830 -0.1387
   45ccc    H29 1887  -0.125   4.583   5.797  1.2263 -0.3949 -0.8862
   45ccc    C19 1888   0.056   4.595   6.021 -0.0735 -0.1331  0.4839
   45ccc    C20 1889   0.159   4.511   5.943 -0.2174 -0.2856  0.6476
   45ccc    C21 1890   0.099   4.477   5.803  0.6961  0.3254 -0.0511
   45ccc    H30 1891   0.236   4.586   5.922 -2.4341  1.6493 -1.2112
   45ccc    H31 1892  -0.018   4.519   6.051 -0.1493 -0.1574  0.2365
   45ccc    H32 1893   0.013   4.411   5.816  0.7351  0.5143  1.3308
   45ccc    O10 1894   0.205   4.419   5.727 -0.0948  0.2122 -0.3716
   45ccc    O11 1895   0.106   4.654   6.141 -0.2446 -0.7952 -0.3189
   45ccc    C22 1896  -0.092   4.793   5.708  0.1485 -0.4698 -0.4038
   45ccc    H33 1897   0.040   4.648   6.212 -1.4095  3.1421 -0.8219
   45ccc    H34 1898   0.149   4.343   6.074  0.5701  0.2607  0.8087
   45ccc    H35 1899  -0.007   4.829   5.650 -0.8561  0.6685 -1.2207
   45ccc    H36 1900  -0.129   4.875   5.772 -0.9622 -0.3661 -1.1585
   45ccc    O12 1901  -0.210   4.760   5.622 -0.2646 -0.0657 -0.3142
   45ccc    H37 1902  -0.294   4.787   5.661 -0.8495 -1.6709 -0.3771
   45ccc    O13 1903   0.068   4.604   5.740 -0.0107 -0.2047  0.9129
   45ccc    H38 1904   0.164   4.415   5.638 -3.0641  0.1428  0.8772
   45ccc    H39 1905   0.047   4.788   5.930  0.6285 -0.1679  0.1710
   45ccc     O5 1906  -0.144   4.729   6.008 -0.6691  0.0692  0.2950
   45ccc    H40 1907  -0.125   4.814   6.053  5.3972  0.9842 -2.9894
   45ccc     N4 1908   0.214   4.395   6.014 -0.1845  0.3177  0.0105
   46ccc     N1 1909   0.466   6.570   7.040  0.0417  0.1411  0.4044
   46ccc     H4 1910   0.530   6.648   7.029  0.4713 -0.5171 -2.5436
   46ccc     C3 1911   0.385   6.529   6.921  0.6370 -0.3906  0.2491
   46ccc     H5 1912   0.446   6.478   6.845 -1.6465  1.2069 -2.8688
   46ccc     C4 1913   0.306   6.650   6.855  0.0767 -0.5545  0.8371
   46ccc     H6 1914   0.319   6.449   6.957  2.5123 -2.0226  0.2497
   46ccc     H7 1915   0.222   6.684   6.917 -0.0089  0.7832  0.0118
   46ccc     H8 1916   0.250   6.625   6.764  0.9937  1.6369 -0.4047
   46ccc     N2 1917   0.400   6.761   6.816  0.6905  0.4058  0.3226
   46ccc     C5 1918   0.493   6.728   6.708 -0.3097  0.2684 -0.8185
   46ccc     C6 1919   0.339   6.894   6.814 -0.5066  0.2504  0.3370
   46ccc     H9 1920   0.393   6.970   6.756  1.5020 -0.2489  1.4668
   46ccc     C7 1921   0.337   6.965   6.955  1.1006  0.7401 -0.1098
   46ccc    H10 1922   0.235   6.892   6.777 -1.0599  0.5152  1.8007
   46ccc    H11 1923   0.283   6.891   7.016 -1.2938  0.7051 -2.1208
   46ccc    H12 1924   0.285   7.061   6.963  1.6907  1.3984 -2.9865
   46ccc     C8 1925   0.480   6.998   6.986 -0.1780 -0.0420 -0.1321
   46ccc     O2 1926   0.545   7.089   6.938  0.4447  0.7897  0.7663
   46ccc    H13 1927   0.455   6.753   6.607  0.5893  1.5886 -0.8600
   46ccc    H14 1928   0.525   6.624   6.720 -0.7501  0.0707 -1.2796
   46ccc     C9 1929   0.618   6.813   6.734  0.1075  0.2484  0.1252
   46ccc    H15 1930   0.631   6.803   6.843 -1.0390  1.6302  0.4152
   46ccc    H16 1931   0.608   6.918   6.705  0.1004  0.3577  0.5212
   46ccc    C10 1932   0.736   6.762   6.660  0.2328  0.0952 -0.1848
   46ccc     O4 1933   0.734   6.708   6.553  0.2680 -0.3094  0.3407
   46ccc    C11 1934   0.866   7.142   7.224 -0.7111  0.4255 -0.2978
   46ccc    C12 1935   0.754   7.120   7.330 -0.4447  0.0823 -0.8381
   46ccc    H17 1936   0.847   7.222   7.152 -2.5035  0.9129  0.6457
   46ccc    C13 1937   0.630   7.071   7.258 -0.2251 -0.1607 -0.1262
   46ccc    C14 1938   0.653   6.953   7.163 -0.2092  0.3111 -0.5357
   46ccc    C15 1939   0.789   6.969   7.074  0.2593  0.1334 -0.0759
   46ccc    H18 1940   0.664   6.870   7.234 -1.4927  1.7531  1.4543
   46ccc    H19 1941   0.586   7.153   7.200 -0.0226  0.5111  0.6516
   46ccc    H20 1942   0.783   7.045   6.996  2.7717  1.4500  0.9140
   46ccc     O1 1943   0.828   6.842   7.021 -0.4071 -0.2460  0.3463
   46ccc     O6 1944   0.535   7.030   7.355 -0.5155  0.2388 -0.1181
   46ccc    C16 1945   1.002   7.190   7.289 -0.2026  0.2260  0.0788
   46ccc    H21 1946   0.462   6.983   7.311  0.0805  0.6770 -1.6426
   46ccc    H22 1947   0.469   6.862   7.133 -0.7616  0.8547 -0.2655
   46ccc    H23 1948   1.032   7.108   7.356 -0.0406 -0.5400 -0.8969
   46ccc    H24 1949   0.990   7.283   7.346  2.0916 -0.0221  1.0931
   46ccc     O7 1950   1.101   7.202   7.188  0.0405 -0.2410  0.0090
   46ccc    H25 1951   1.184   7.196   7.238  0.8077  2.4513 -0.7675
   46ccc     O8 1952   0.892   7.011   7.161  0.3311  0.4602 -0.4735
   46ccc    H26 1953   0.917   6.821   7.056 -0.6146 -0.9354  0.4728
   46ccc    H27 1954   0.799   7.038   7.387  0.3288  0.1602 -1.3204
   46ccc     O9 1955   0.729   7.232   7.411  0.5253 -0.0337  0.1094
   46ccc    H28 1956   0.687   7.293   7.348 -2.4683 -1.9800  0.0285
   46ccc     N3 1957   0.531   6.923   7.080  0.0586  0.2199 -0.0487
   46ccc    C17 1958   1.090   6.422   6.693 -0.5852 -0.5064  0.8927
   46ccc    C18 1959   1.142   6.555   6.653 -1.0188  0.1646  0.3291
   46ccc    H29 1960   1.041   6.376   6.607  1.4337 -0.6148 -0.2693
   46ccc    C19 1961   1.037   6.660   6.628  0.3800 -0.0113  0.1482
   46ccc    C20 1962   0.949   6.667   6.758  0.5051  0.1161  0.1896
   46ccc    C21 1963   0.892   6.528   6.794  0.2703 -0.7082  0.4372
   46ccc    H30 1964   1.019   6.697   6.837  1.9237 -0.9232 -0.6267
   46ccc    H31 1965   0.971   6.627   6.547  1.9394 -2.1520 -0.3314
   46ccc    H32 1966   0.825   6.491   6.716  0.1427 -0.2906  0.3466
   46ccc    O10 1967   0.809   6.518   6.914 -0.5730  0.1768  0.2876
   46ccc    O11 1968   1.100   6.792   6.600 -0.0428  0.0526 -0.2212
   46ccc    C22 1969   1.209   6.332   6.730 -0.2463  1.0346 -0.4838
   46ccc    H33 1970   1.035   6.846   6.551 -0.1192 -0.2281 -0.4331
   46ccc    H34 1971   0.828   6.804   6.834  2.9706  2.7400 -0.2054
   46ccc    H35 1972   1.283   6.338   6.649  0.4718  0.0601  0.0913
   46ccc    H36 1973   1.168   6.231   6.735 -3.2894  2.2184  1.6291
   46ccc    O12 1974   1.287   6.365   6.852  0.3789 -0.0843 -0.1584
   46ccc    H37 1975   1.219   6.385   6.919 -1.2098 -0.1897 -1.6760
   46ccc    O13 1976   0.997   6.427   6.806 -0.1089 -0.1091 -0.6608
   46ccc    H38 1977   0.883   6.510   6.977 -0.2014 -0.0975 -0.1766
   46ccc    H39 1978   1.210   6.592   6.731 -0.0487  1.0765 -0.9020
   46ccc     O5 1979   1.209   6.536   6.527  0.2763 -0.0821 -0.4944
   46ccc    H40 1980   1.252   6.622   6.511 -1.4382  0.9582  0.2031
   46ccc     N4 1981   0.844   6.772   6.739  0.4341  0.2959  0.0420
   47ccc     N1 1982   0.598   6.949   7.661  0.3554 -0.0952 -0.3318
   47ccc     H4 1983   0.604   6.994   7.571  1.6134  0.7878  0.1560
   47ccc     C3 1984   0.623   7.036   7.772  0.5862 -0.8663  0.5983
   47ccc     H5 1985   0.569   6.999   7.860 -1.1548  0.3747  0.1082
   47ccc     C4 1986   0.591   7.187   7.739 -0.5052  0.9826  0.1724
   47ccc     H6 1987   0.730   7.026   7.794  0.6457 -1.7338 -0.0583
   47ccc     H7 1988   0.488   7.209   7.707 -0.4533  0.1702 -0.5955
   47ccc     H8 1989   0.649   7.212   7.649  1.1164 -0.9657  0.6155
   47ccc     N2 1990   0.626   7.267   7.857 -0.2573  0.4189 -0.6389
   47ccc     C5 1991   0.510   7.333   7.920 -0.0666 -0.6544  0.3387
   47ccc     C6 1992   0.729   7.362   7.820 -0.3710 -0.4659 -0.9516
   47ccc     H9 1993   0.793   7.320   7.742 -2.8423 -2.5435 -2.0218
   47ccc     C7 1994   0.802   7.374   7.958  0.7539 -0.1308  0.3378
   47ccc    H10 1995   0.692   7.456   7.778  1.3793  0.7634  0.1366
   47ccc    H11 1996   0.744   7.418   8.040  2.2359 -1.3479  2.1521
   47ccc    H12 1997   0.892   7.432   7.936 -0.0224 -0.0757 -3.3553
   47ccc     C8 1998   0.872   7.245   7.993  0.2233  0.1848 -0.8693
   47ccc     O2 1999   0.930   7.171   7.914 -0.1569  0.5064  0.5578
   47ccc    H13 2000   0.461   7.410   7.859 -0.4577  0.1695  1.6544
   47ccc    H14 2001   0.544   7.397   8.002 -0.4531 -1.3252  1.0281
   47ccc     C9 2002   0.418   7.227   7.976  0.2957  0.1516  0.3146
   47ccc    H15 2003   0.490   7.166   8.033  1.5170 -0.1528 -1.4859
   47ccc    H16 2004   0.371   7.155   7.909 -1.1818  0.0035  1.4416
   47ccc    C10 2005   0.330   7.290   8.085 -0.1348  0.2687  0.0969
   47ccc     O4 2006   0.352   7.278   8.203 -0.3780  0.2520 -0.3560
   47ccc    C11 2007   0.868   6.886   8.416 -1.0965  0.4179  0.3106
   47ccc    C12 2008   0.858   6.845   8.264  0.0943  0.2654  0.3449
   47ccc    H17 2009   0.766   6.907   8.449 -1.8181  0.5548 -1.8410
   47ccc    C13 2010   0.828   6.964   8.167 -0.2962  0.6403  0.3138
   47ccc    C14 2011   0.909   7.088   8.191 -0.2578 -0.4818  0.5353
   47ccc    C15 2012   0.922   7.117   8.343  0.1827 -0.0145 -0.1402
   47ccc    H18 2013   1.012   7.071   8.159  0.0745  2.4061 -0.2418
   47ccc    H19 2014   0.721   6.985   8.176 -0.0330  1.7748  1.0463
   47ccc    H20 2015   0.833   7.167   8.383 -0.2248 -0.0158 -1.0167
   47ccc     O1 2016   1.037   7.186   8.373  0.0895 -0.4962  1.3441
   47ccc     O6 2017   0.850   6.921   8.031 -0.0334  0.8048 -0.2062
   47ccc    C16 2018   0.924   6.770   8.500 -0.3465  0.5193  0.5069
   47ccc    H21 2019   0.862   7.005   7.982 -0.3820  0.5946 -0.6638
   47ccc    H22 2020   0.791   7.261   8.179 -0.9179 -0.6229 -0.9622
   47ccc    H23 2021   0.847   6.692   8.492 -1.9593  2.1155 -0.3136
   47ccc    H24 2022   0.918   6.801   8.605 -0.1945  1.5679  0.2169
   47ccc     O7 2023   1.050   6.714   8.456 -0.1250  0.2060  0.1489
   47ccc    H25 2024   1.114   6.783   8.482  0.4672 -0.2546 -0.0659
   47ccc     O8 2025   0.953   7.002   8.421 -0.3323  0.0676 -0.5350
   47ccc    H26 2026   1.100   7.115   8.356 -1.9850 -2.3025  0.8049
   47ccc    H27 2027   0.953   6.801   8.231  0.6182  0.6236  1.3363
   47ccc     O9 2028   0.737   6.761   8.243  0.1124 -0.6809 -0.2134
   47ccc    H28 2029   0.733   6.720   8.155  1.2050  0.1804 -0.6915
   47ccc     N3 2030   0.855   7.208   8.119  0.1817 -0.3359 -0.0936
   47ccc    C17 2031  -0.061   7.421   7.735  0.1491 -0.1122 -0.3276
   47ccc    C18 2032   0.058   7.521   7.744  0.3607  0.2654 -0.0453
   47ccc    H29 2033  -0.145   7.441   7.803 -1.0570 -1.0215 -1.5077
   47ccc    C19 2034   0.132   7.523   7.878  0.0212  0.8758  0.1673
   47ccc    C20 2035   0.162   7.375   7.920  0.8250 -0.8008  0.5249
   47ccc    C21 2036   0.031   7.299   7.916  0.0348  0.3601 -0.1831
   47ccc    H30 2037   0.232   7.341   7.843 -0.3482 -0.2432 -0.8282
   47ccc    H31 2038   0.065   7.578   7.944  0.3166  2.3176 -0.6797
   47ccc    H32 2039  -0.044   7.341   7.983 -0.4253  0.1857 -0.5883
   47ccc    O10 2040   0.057   7.166   7.963  0.3825 -0.4120 -0.1656
   47ccc    O11 2041   0.266   7.588   7.874 -0.3369  0.3035  0.5009
   47ccc    C22 2042  -0.108   7.413   7.586 -0.0505  0.1997 -0.7900
   47ccc    H33 2043   0.295   7.604   7.965 -0.4019  3.1968  0.0917
   47ccc    H34 2044   0.177   7.415   8.125 -1.3467 -2.1059 -0.0471
   47ccc    H35 2045  -0.029   7.357   7.534 -0.0965  0.3034 -0.9708
   47ccc    H36 2046  -0.135   7.509   7.540 -0.6981  0.7023  0.5696
   47ccc    O12 2047  -0.225   7.328   7.574 -0.2389 -0.1388 -1.1307
   47ccc    H37 2048  -0.198   7.236   7.584 -1.4196 -0.4586 -0.7135
   47ccc    O13 2049  -0.017   7.296   7.778 -0.1766 -0.4397 -0.3018
   47ccc    H38 2050  -0.034   7.135   7.975 -0.3139  1.8858  1.0923
   47ccc    H39 2051   0.130   7.488   7.669  2.8909 -0.4205  2.5102
   47ccc     O5 2052   0.019   7.657   7.711 -0.0501 -0.2335  0.0759
   47ccc    H40 2053   0.069   7.697   7.638 -0.7154  0.6951  0.1072
   47ccc     N4 2054   0.238   7.382   8.050 -0.0904 -0.1255  0.0347
   48ccc     N1 2055   0.288   5.673   6.627 -0.7802 -0.5210  0.3305
   48ccc     H4 2056   0.312   5.752   6.569  1.6329 -1.1037  0.4444
   48ccc     C3 2057   0.186   5.580   6.585 -0.4146  0.3417  0.1523
   48ccc     H5 2058   0.133   5.536   6.670  2.5804 -0.7768  1.5531
   48ccc     C4 2059   0.252   5.469   6.505  0.0718 -0.7645 -0.3258
   48ccc     H6 2060   0.112   5.616   6.511 -2.4043 -2.5827  0.5603
   48ccc     H7 2061   0.348   5.445   6.554  1.0296 -0.9895 -2.2476
   48ccc     H8 2062   0.269   5.508   6.404  0.6104 -0.0858  0.0177
   48ccc     N2 2063   0.172   5.347   6.502  0.1603 -0.4305 -0.1185
   48ccc     C5 2064   0.216   5.264   6.386  0.2671 -0.6602  0.7165
   48ccc     C6 2065   0.188   5.273   6.625  0.0975 -0.1793 -0.5056
   48ccc     H9 2066   0.291   5.236   6.633 -0.6512 -2.2795 -0.0165
   48ccc     C7 2067   0.088   5.156   6.630 -0.2705 -0.4202  0.7552
   48ccc    H10 2068   0.175   5.344   6.708  0.3271  0.6834 -1.1988
   48ccc    H11 2069   0.149   5.067   6.608  0.5245 -0.0550  1.3867
   48ccc    H12 2070   0.009   5.155   6.554  0.3469  0.5801  0.0651
   48ccc     C8 2071   0.030   5.146   6.770 -0.1384  0.0504 -0.4994
   48ccc     O2 2072  -0.037   5.241   6.813  0.2856  0.1467 -0.4523
   48ccc    H13 2073   0.208   5.159   6.415 -1.4060 -0.8332 -0.2202
   48ccc    H14 2074   0.313   5.294   6.344  0.3911 -0.7685  0.9267
   48ccc     C9 2075   0.112   5.293   6.276  0.2737 -0.2837 -1.3529
   48ccc    H15 2076   0.110   5.403   6.266  0.8869  0.1603  1.9984
   48ccc    H16 2077   0.013   5.255   6.304 -0.5894  2.1282 -0.8869
   48ccc    C10 2078   0.164   5.237   6.151 -0.9230 -0.3602 -0.1139
   48ccc     O4 2079   0.245   5.293   6.077 -0.5034 -0.2904  0.1607
   48ccc    C11 2080   0.047   4.884   7.247 -0.5024 -0.2902  0.9003
   48ccc    C12 2081   0.130   5.017   7.219  0.2979  0.5790 -0.3259
   48ccc    H17 2082   0.109   4.795   7.231 -1.0895 -0.3196 -1.7259
   48ccc    C13 2083   0.160   5.026   7.070 -0.6469  0.1046  0.2220
   48ccc    C14 2084   0.035   5.013   6.982 -0.0181  0.6534  0.3049
   48ccc    C15 2085  -0.029   4.882   7.014  0.4605 -0.0341 -0.3026
   48ccc    H18 2086  -0.026   5.094   7.025  0.1978  1.4843 -0.9054
   48ccc    H19 2087   0.220   4.937   7.048  0.0792  0.8754 -1.0141
   48ccc    H20 2088   0.047   4.804   7.007 -0.3712 -0.9374  0.2916
   48ccc     O1 2089  -0.144   4.850   6.940 -0.2895  0.2151 -0.6266
   48ccc     O6 2090   0.231   5.143   7.032 -0.1545 -0.2794 -0.5249
   48ccc    C16 2091  -0.009   4.875   7.387  0.7088  0.4716 -0.0540
   48ccc    H21 2092   0.185   5.195   6.965 -0.0535 -1.3733 -1.4738
   48ccc    H22 2093   0.109   4.954   6.795 -2.7877 -0.4724 -1.6552
   48ccc    H23 2094   0.068   4.832   7.452 -0.4617  1.0452  1.7600
   48ccc    H24 2095  -0.092   4.803   7.385  2.8211 -2.1114  0.1814
   48ccc     O7 2096  -0.077   4.989   7.438 -0.4905  0.2934  0.2690
   48ccc    H25 2097  -0.162   4.993   7.390  0.0369 -1.0820 -0.8516
   48ccc     O8 2098  -0.060   4.882   7.153  0.2906  0.1816  0.7468
   48ccc    H26 2099  -0.206   4.820   7.010  1.2153  1.2930  1.2544
   48ccc    H27 2100   0.075   5.108   7.247 -0.5413 -0.3771  1.2529
   48ccc     O9 2101   0.257   5.008   7.288 -0.2434 -0.0861 -0.0816
   48ccc    H28 2102   0.312   5.083   7.261 -0.6961  0.9975  1.8075
   48ccc     N3 2103   0.070   5.036   6.841  0.6066  0.5940 -0.3088
   48ccc    C17 2104   0.410   4.911   5.886 -0.7971  0.1289  0.1351
   48ccc    C18 2105   0.411   4.880   6.035  0.3158  0.5092  0.2464
   48ccc    H29 2106   0.471   5.002   5.874 -0.8488  0.3762  1.5815
   48ccc    C19 2107   0.345   4.989   6.120 -0.2144 -0.0848 -0.1119
   48ccc    C20 2108   0.198   5.014   6.065 -0.1472  0.4424  0.3705
   48ccc    C21 2109   0.208   5.035   5.911 -0.0037  0.1167  0.1600
   48ccc    H30 2110   0.140   4.921   6.074  1.0185 -0.4140 -0.5794
   48ccc    H31 2111   0.401   5.080   6.095  0.6310 -0.3831  0.6487
   48ccc    H32 2112   0.272   5.120   5.883 -0.0146 -0.5349 -2.0818
   48ccc    O10 2113   0.074   5.060   5.868  0.1608 -0.0729  0.6909
   48ccc    O11 2114   0.343   4.967   6.260  0.1599 -0.1395 -0.1172
   48ccc    C22 2115   0.465   4.801   5.793 -0.0289  0.2539  0.2610
   48ccc    H33 2116   0.348   4.871   6.277  0.4447 -0.5115 -1.9948
   48ccc    H34 2117   0.062   5.078   6.213 -0.5397  1.1110 -0.2484
   48ccc    H35 2118   0.380   4.737   5.765  0.1855  0.0794  0.0172
   48ccc    H36 2119   0.542   4.751   5.853 -0.3252  0.4025  0.7762
   48ccc    O12 2120   0.521   4.858   5.676 -0.1508 -0.0455 -0.4327
   48ccc    H37 2121   0.551   4.946   5.704  0.3531 -0.6107  0.8729
   48ccc    O13 2122   0.275   4.927   5.842 -0.0299 -0.2608  0.1499
   48ccc    H38 2123   0.086   5.053   5.772 -2.2252 -1.7924  0.4246
   48ccc    H39 2124   0.362   4.782   6.046  0.4786  0.2865 -0.8152
   48ccc     O5 2125   0.550   4.864   6.065 -0.8752  0.1370 -0.2063
   48ccc    H40 2126   0.556   4.798   6.136  0.1585  1.3946  0.9278
   48ccc     N4 2127   0.121   5.117   6.140 -0.0913 -0.0171 -0.5016
   49ccc     N1 2128   0.487   6.217   6.537 -0.3592 -0.3487  0.3389
   49ccc     H4 2129   0.510   6.137   6.594 -0.9811 -1.5766 -1.0858
   49ccc     C3 2130   0.596   6.299   6.463 -0.1623  0.4960 -0.4215
   49ccc     H5 2131   0.574   6.276   6.358 -0.7510  2.3573 -0.7271
   49ccc     C4 2132   0.746   6.260   6.497  0.5652  0.1560 -0.8067
   49ccc     H6 2133   0.584   6.406   6.484  0.9781  0.2860  1.6078
   49ccc     H7 2134   0.781   6.303   6.591  1.6118  2.6083 -2.2473
   49ccc     H8 2135   0.810   6.286   6.412  3.4993  0.3293  1.3171
   49ccc     N2 2136   0.756   6.110   6.510 -0.1506 -0.3175  0.5610
   49ccc     C5 2137   0.869   6.075   6.590 -0.2472 -0.1290 -0.1991
   49ccc     C6 2138   0.749   6.038   6.380 -0.4793  0.1561  1.1963
   49ccc     H9 2139   0.731   5.933   6.405 -1.6001  0.3023  1.0227
   49ccc     C7 2140   0.875   6.052   6.302 -0.5367 -0.2451 -0.2823
   49ccc    H10 2141   0.665   6.073   6.318  1.2479  2.1619 -0.1846
   49ccc    H11 2142   0.966   6.013   6.351  0.6319  1.2310 -1.1830
   49ccc    H12 2143   0.899   6.157   6.285 -0.6761 -0.1620  0.0378
   49ccc     C8 2144   0.870   5.981   6.165  0.4512  0.4975  0.1713
   49ccc     O2 2145   0.771   5.974   6.097 -0.0334  0.6629 -0.1421
   49ccc    H13 2146   0.878   6.132   6.684  0.6826  1.3428 -1.1385
   49ccc    H14 2147   0.959   6.105   6.535 -0.2263 -0.3534 -0.2888
   49ccc     C9 2148   0.881   5.932   6.631  0.6024 -0.1707  0.0843
   49ccc    H15 2149   0.851   5.864   6.551  1.0307 -0.5799  0.2644
   49ccc    H16 2150   0.816   5.903   6.714 -1.6209  1.3198 -1.0313
   49ccc    C10 2151   1.025   5.893   6.658  0.5554  0.4655 -0.1612
   49ccc     O4 2152   1.117   5.883   6.575 -0.1238 -0.4232  0.3907
   49ccc    C11 2153   1.185   5.842   5.750 -0.2223  0.2219  0.0488
   49ccc    C12 2154   1.179   5.733   5.857 -0.4298 -0.1098  0.9727
   49ccc    H17 2155   1.270   5.908   5.774 -0.4486 -0.0966  1.8687
   49ccc    C13 2156   1.145   5.798   5.992  0.0462  0.2391  0.6751
   49ccc    C14 2157   1.015   5.876   5.984  0.7392  0.2870 -0.3618
   49ccc    C15 2158   1.026   5.983   5.871  0.1323 -0.5200 -0.3419
   49ccc    H18 2159   0.929   5.814   5.954 -0.0364  0.5772  1.1599
   49ccc    H19 2160   1.228   5.868   6.007  2.1332 -0.9431 -3.8423
   49ccc    H20 2161   1.100   6.061   5.893 -2.4964  1.8064  0.7697
   49ccc     O1 2162   0.898   6.046   5.850  0.4276  0.3904 -0.2758
   49ccc     O6 2163   1.143   5.694   6.090  0.6390 -0.3244 -0.2752
   49ccc    C16 2164   1.201   5.787   5.608  0.6679  0.4121  0.2425
   49ccc    H21 2165   1.148   5.734   6.179 -0.7706 -0.1275 -0.2665
   49ccc    H22 2166   1.066   5.981   6.158  0.6679 -2.5434  1.6878
   49ccc    H23 2167   1.104   5.743   5.583  0.5409  1.0841 -0.4883
   49ccc    H24 2168   1.282   5.713   5.614  1.2815  1.0914  0.5535
   49ccc     O7 2169   1.241   5.893   5.515  0.4195  0.2307 -0.9238
   49ccc    H25 2170   1.337   5.891   5.526  0.5528 -0.9616 -2.0147
   49ccc     O8 2171   1.055   5.915   5.752 -0.4905  0.3719  0.4896
   49ccc    H26 2172   0.846   6.029   5.930 -0.8657  0.8359 -0.9980
   49ccc    H27 2173   1.104   5.659   5.828  1.0322  0.0140 -4.0564
   49ccc     O9 2174   1.300   5.659   5.877  0.1982  0.2120  0.3090
   49ccc    H28 2175   1.270   5.602   5.950 -0.2763  1.5378  1.1869
   49ccc     N3 2176   0.985   5.933   6.120  0.0051 -0.0543 -0.3255
   49ccc    C17 2177   1.463   5.872   6.888 -0.3103  0.4194  1.0785
   49ccc    C18 2178   1.368   5.978   6.952  0.2365  0.1851  0.6280
   49ccc    H29 2179   1.498   5.915   6.794  1.0653 -2.5379  0.1205
   49ccc    C19 2180   1.243   5.989   6.867  0.0563  0.1371 -0.2848
   49ccc    C20 2181   1.176   5.848   6.856 -0.0088 -0.2965 -0.1004
   49ccc    C21 2182   1.278   5.741   6.797 -0.6323 -0.7175 -0.2225
   49ccc    H30 2183   1.150   5.817   6.958 -2.0765 -0.9609 -0.7695
   49ccc    H31 2184   1.275   6.024   6.768  2.2050  1.3987  0.7909
   49ccc    H32 2185   1.306   5.770   6.695  1.2239 -0.2027  0.3925
   49ccc    O10 2186   1.210   5.613   6.802  0.1483 -0.2028  0.1479
   49ccc    O11 2187   1.149   6.075   6.934 -0.3278  0.6102  0.1466
   49ccc    C22 2188   1.589   5.861   6.980  0.0078 -0.5499 -0.6398
   49ccc    H33 2189   1.064   6.067   6.887 -0.1069  0.8842 -0.3036
   49ccc    H34 2190   0.975   5.903   6.853  0.8420 -0.2525  1.4849
   49ccc    H35 2191   1.557   5.812   7.073  1.8455  0.7549  0.7658
   49ccc    H36 2192   1.632   5.960   7.000  1.0540 -0.6097 -2.3404
   49ccc    O12 2193   1.690   5.786   6.916  0.3447  0.0659  0.3255
   49ccc    H37 2194   1.661   5.706   6.868  1.8082  0.3649 -1.1631
   49ccc    O13 2195   1.390   5.747   6.888 -0.2708 -0.2849  0.1983
   49ccc    H38 2196   1.221   5.590   6.896  0.8309  1.1396  0.4170
   49ccc    H39 2197   1.337   5.951   7.054 -0.4706 -2.2553 -0.1773
   49ccc     O5 2198   1.425   6.112   6.939 -0.0277 -0.4832  0.4305
   49ccc    H40 2199   1.347   6.170   6.950 -0.6948 -0.8316 -1.9430
   49ccc     N4 2200   1.043   5.864   6.788 -0.8733 -0.1181 -0.4822
   50ccc     N1 2201  -0.269   6.032   9.269 -0.1259 -0.2052  0.0146
   50ccc     H4 2202  -0.181   5.995   9.233 -0.7666  0.7070 -2.7123
   50ccc     C3 2203  -0.275   6.127   9.384  1.0806 -0.0220 -0.0015
   50ccc     H5 2204  -0.281   6.228   9.344 -1.4758  0.5498  1.6059
   50ccc     C4 2205  -0.149   6.112   9.480  0.4706 -0.5680 -0.1299
   50ccc     H6 2206  -0.366   6.114   9.444  1.3343  0.5869  0.5197
   50ccc     H7 2207  -0.057   6.110   9.420 -0.0874 -3.0449 -0.9950
   50ccc     H8 2208  -0.157   6.012   9.524 -2.0425 -0.2240  0.3384
   50ccc     N2 2209  -0.152   6.217   9.584 -0.6782 -0.2804 -0.7816
   50ccc     C5 2210  -0.271   6.204   9.667  0.6488  0.2057  0.1011
   50ccc     C6 2211  -0.123   6.352   9.534 -0.9550 -0.3634  0.1980
   50ccc     H9 2212  -0.201   6.385   9.465  1.4439  2.6703 -1.3745
   50ccc     C7 2213   0.009   6.357   9.464  0.1059 -0.1588  0.3604
   50ccc    H10 2214  -0.132   6.420   9.620  1.1885  0.2570  0.0014
   50ccc    H11 2215   0.009   6.306   9.367  0.0906 -0.9752  0.7775
   50ccc    H12 2216   0.090   6.314   9.525  1.2708 -2.0763 -2.3255
   50ccc     C8 2217   0.057   6.494   9.428  1.2310  0.6875  0.2686
   50ccc     O2 2218   0.016   6.592   9.481  0.1999 -0.4667 -0.3554
   50ccc    H13 2219  -0.295   6.097   9.675 -2.3355  0.7461 -0.6821
   50ccc    H14 2220  -0.358   6.249   9.618  0.1776 -0.8599 -0.0692
   50ccc     C9 2221  -0.254   6.273   9.791  0.2693 -0.2571 -0.6253
   50ccc    H15 2222  -0.267   6.380   9.774 -0.6925 -0.1720  0.4904
   50ccc    H16 2223  -0.152   6.261   9.829 -0.4274  0.6881  1.7497
   50ccc    C10 2224  -0.359   6.236   9.894 -0.0679  0.0641  0.3449
   50ccc     O4 2225  -0.468   6.188   9.860  0.6159  0.0031  0.7497
   50ccc    C11 2226   0.468   6.763   9.198  0.4507  0.1706  0.3213
   50ccc    C12 2227   0.337   6.757   9.119  0.0932  0.1498  0.4779
   50ccc    H17 2228   0.530   6.678   9.168  0.4690 -0.7176  2.6944
   50ccc    C13 2229   0.265   6.623   9.143  0.0629 -0.4727  0.8550
   50ccc    C14 2230   0.238   6.615   9.293 -0.0522  0.3632 -0.5409
   50ccc    C15 2231   0.375   6.609   9.366 -0.4468  0.2216  0.3687
   50ccc    H18 2232   0.189   6.712   9.312 -1.3511  0.2286 -2.7516
   50ccc    H19 2233   0.325   6.538   9.107  0.0154  0.1703 -0.8277
   50ccc    H20 2234   0.433   6.520   9.339 -1.1679  0.2314 -1.3276
   50ccc     O1 2235   0.357   6.614   9.506 -0.0883  0.2632 -0.1444
   50ccc     O6 2236   0.144   6.627   9.066  0.1433 -0.0694 -0.5736
   50ccc    C16 2237   0.544   6.891   9.191  0.0474  0.2780 -0.2420
   50ccc    H21 2238   0.180   6.599   8.979  0.6273 -0.6277 -0.2058
   50ccc    H22 2239   0.190   6.414   9.287  3.2234  0.8965  0.5328
   50ccc    H23 2240   0.499   6.957   9.265 -0.5615  0.0117 -0.3645
   50ccc    H24 2241   0.530   6.950   9.099 -0.6788  1.4605  0.5988
   50ccc     O7 2242   0.678   6.867   9.232  0.1853  0.2376  0.0257
   50ccc    H25 2243   0.675   6.816   9.315  1.1926  0.1976  0.0518
   50ccc     O8 2244   0.445   6.730   9.338 -0.1944 -0.1023 -0.4412
   50ccc    H26 2245   0.351   6.523   9.539  1.0750  0.7800  1.6468
   50ccc    H27 2246   0.263   6.831   9.151 -1.6551 -1.1189 -0.4543
   50ccc     O9 2247   0.341   6.776   8.981  0.2247  0.5913  0.0418
   50ccc    H28 2248   0.277   6.846   8.962  0.1352  0.1123 -1.5259
   50ccc     N3 2249   0.150   6.499   9.329  0.1503  0.0997 -0.4747
   50ccc    C17 2250  -0.413   5.996  10.372  0.1339 -0.2266 -0.4653
   50ccc    C18 2251  -0.415   6.150  10.390  0.3712  0.3238 -0.1141
   50ccc    H29 2252  -0.311   5.957  10.389  0.2867  0.4117  0.0997
   50ccc    C19 2253  -0.359   6.226  10.268  0.9525 -0.5065  0.4664
   50ccc    C20 2254  -0.405   6.170  10.129 -0.2020  0.6215 -0.2230
   50ccc    C21 2255  -0.395   6.017  10.122  0.2013 -0.1135 -0.0704
   50ccc    H30 2256  -0.509   6.201  10.128 -0.7924 -1.0994  1.1824
   50ccc    H31 2257  -0.250   6.218  10.268  0.9700 -0.7339 -1.3383
   50ccc    H32 2258  -0.290   5.986  10.112 -0.0622 -0.3495 -2.6895
   50ccc    O10 2259  -0.467   5.963  10.010 -0.6747 -0.3047  0.5790
   50ccc    O11 2260  -0.400   6.367  10.275 -0.0227  0.3118 -0.3365
   50ccc    C22 2261  -0.506   5.928  10.471 -0.2101  0.2614 -0.7926
   50ccc    H33 2262  -0.497   6.364  10.264 -0.3838  0.1472  2.2522
   50ccc    H34 2263  -0.231   6.262  10.042 -0.4633  1.5067 -0.6749
   50ccc    H35 2264  -0.604   5.970  10.446  0.1650  2.0818  0.5784
   50ccc    H36 2265  -0.487   5.958  10.575  0.1447 -0.4549 -0.6481
   50ccc    O12 2266  -0.515   5.784  10.456 -0.2665 -0.4223  0.2667
   50ccc    H37 2267  -0.537   5.767  10.362  0.6317  3.4064 -0.8218
   50ccc    O13 2268  -0.460   5.964  10.236 -0.8992  0.1074  0.2709
   50ccc    H38 2269  -0.466   6.034   9.944 -1.3733  0.7221  1.6354
   50ccc    H39 2270  -0.522   6.174  10.392  0.8339  2.5460  0.4870
   50ccc     O5 2271  -0.353   6.191  10.513  0.2798 -0.1021  0.0280
   50ccc    H40 2272  -0.357   6.288  10.511 -0.7665 -0.1401 -1.4522
   50ccc     N4 2273  -0.329   6.240  10.022 -0.3721 -0.5759  0.8924
   51ccc     N1 2274  -0.510   5.397   8.785 -0.0633  0.0830 -0.8737
   51ccc     H4 2275  -0.413   5.380   8.808 -0.2127  0.1438 -0.1836
   51ccc     C3 2276  -0.595   5.294   8.719 -1.2966 -0.0712  0.5445
   51ccc     H5 2277  -0.684   5.279   8.780 -0.9792 -0.2467  0.9707
   51ccc     C4 2278  -0.529   5.156   8.691  0.1619  0.3711 -0.0505
   51ccc     H6 2279  -0.630   5.347   8.630 -0.1739  1.5270  1.0142
   51ccc     H7 2280  -0.479   5.125   8.784  1.1047 -2.2063 -1.3110
   51ccc     H8 2281  -0.444   5.175   8.624 -1.3307 -0.0413 -2.1348
   51ccc     N2 2282  -0.617   5.051   8.630  0.2711 -0.6351 -0.5540
   51ccc     C5 2283  -0.543   4.952   8.555  0.2089 -0.1323  0.5186
   51ccc     C6 2284  -0.734   5.013   8.712  0.7891 -0.0494 -0.0523
   51ccc     H9 2285  -0.788   5.106   8.735  2.2550  0.7479  0.3240
   51ccc     C7 2286  -0.689   4.951   8.842 -0.7199  0.3454 -0.4433
   51ccc    H10 2287  -0.800   4.951   8.650  1.2583  1.6795 -2.4247
   51ccc    H11 2288  -0.635   5.034   8.888 -2.2717  2.0826 -1.5782
   51ccc    H12 2289  -0.629   4.861   8.826  0.3651  0.8980  0.3833
   51ccc     C8 2290  -0.806   4.907   8.931  0.7179 -0.3890  0.2551
   51ccc     O2 2291  -0.920   4.879   8.890  0.2366  0.2895  0.5745
   51ccc    H13 2292  -0.466   4.899   8.613 -2.1582 -2.5445  1.6709
   51ccc    H14 2293  -0.495   4.998   8.467 -0.2680 -1.7261 -0.6230
   51ccc     C9 2294  -0.634   4.845   8.501 -0.0355  0.0184  0.1301
   51ccc    H15 2295  -0.714   4.894   8.445  1.6292 -0.5155 -2.9266
   51ccc    H16 2296  -0.665   4.789   8.590 -0.3230 -0.2140 -0.1180
   51ccc    C10 2297  -0.562   4.749   8.408 -0.2712  0.2624 -0.6328
   51ccc     O4 2298  -0.443   4.759   8.372  0.1538  0.1544 -0.4554
   51ccc    C11 2299  -0.959   5.028   9.418  0.2370  0.2506 -0.0735
   51ccc    C12 2300  -0.977   5.124   9.297 -0.3489 -0.3160  0.0262
   51ccc    H17 2301  -0.860   5.043   9.462  0.7007 -1.1753 -0.5739
   51ccc    C13 2302  -0.866   5.082   9.199 -0.4614  0.0617 -0.7336
   51ccc    C14 2303  -0.875   4.935   9.162 -0.3263 -0.3795  0.1477
   51ccc    C15 2304  -0.870   4.853   9.290  0.3598 -0.1959 -0.5175
   51ccc    H18 2305  -0.974   4.909   9.123 -0.3284 -2.1232  1.2265
   51ccc    H19 2306  -0.774   5.091   9.259 -1.8006  1.1785  1.2541
   51ccc    H20 2307  -0.775   4.866   9.343  0.5298  0.5422 -0.9796
   51ccc     O1 2308  -0.897   4.723   9.257 -0.2668  0.3249 -0.0304
   51ccc     O6 2309  -0.855   5.170   9.088 -0.4841  0.1835 -0.1004
   51ccc    C16 2310  -1.060   5.050   9.533 -0.1830 -0.5251  0.1594
   51ccc    H21 2311  -0.761   5.164   9.064 -0.6028 -0.4880 -0.4348
   51ccc    H22 2312  -0.679   4.922   9.087 -0.5908  0.2425  1.1801
   51ccc    H23 2313  -1.163   5.034   9.501 -0.6409  0.6935  0.9516
   51ccc    H24 2314  -1.055   5.158   9.551 -0.0902  0.0686 -2.9034
   51ccc     O7 2315  -1.018   4.995   9.655 -0.0519 -0.4716  0.0103
   51ccc    H25 2316  -0.983   4.908   9.627 -2.3873 -0.5941 -2.9999
   51ccc     O8 2317  -0.975   4.894   9.373  0.4822 -0.3617  0.3106
   51ccc    H26 2318  -0.993   4.710   9.243 -0.2207 -0.3547  0.2704
   51ccc    H27 2319  -1.073   5.103   9.248 -0.9876  2.5310 -0.1346
   51ccc     O9 2320  -0.966   5.261   9.323 -0.5590 -0.5936  0.2130
   51ccc    H28 2321  -0.942   5.300   9.237 -2.2960 -3.3218 -1.6692
   51ccc     N3 2322  -0.775   4.903   9.059 -0.2984  0.4484 -0.0274
   51ccc    C17 2323  -1.014   4.604   8.176  0.2884  0.3148  0.4959
   51ccc    C18 2324  -0.983   4.511   8.295  0.0973  0.0288 -0.0960
   51ccc    H29 2325  -0.981   4.553   8.085  2.1293 -0.6290  1.6250
   51ccc    C19 2326  -0.838   4.510   8.334  0.0999  1.0120 -0.1828
   51ccc    C20 2327  -0.778   4.654   8.332 -0.8383 -0.0447  0.0440
   51ccc    C21 2328  -0.801   4.718   8.189 -0.0450  0.0968  0.0110
   51ccc    H30 2329  -0.826   4.718   8.407  3.2040 -0.0505  2.9429
   51ccc    H31 2330  -0.795   4.440   8.262  1.7732 -0.7002  2.3211
   51ccc    H32 2331  -0.758   4.668   8.102 -1.7943  0.3033 -1.0275
   51ccc    O10 2332  -0.767   4.857   8.185 -0.7563  0.1153  0.8011
   51ccc    O11 2333  -0.829   4.452   8.463  0.3667  0.1356 -0.3851
   51ccc    C22 2334  -1.163   4.618   8.144 -0.0851 -0.3492 -1.3795
   51ccc    H33 2335  -0.848   4.356   8.460  1.9067 -0.1758 -1.8141
   51ccc    H34 2336  -0.588   4.577   8.297 -0.1371 -1.2911  1.1177
   51ccc    H35 2337  -1.226   4.528   8.141 -3.1449  1.5760  0.0698
   51ccc    H36 2338  -1.176   4.671   8.049 -1.2344  0.3858 -0.8435
   51ccc    O12 2339  -1.219   4.708   8.233  0.4715  0.3222  0.1574
   51ccc    H37 2340  -1.153   4.779   8.238  0.5742  0.2800 -0.5621
   51ccc    O13 2341  -0.945   4.727   8.171  0.6626  0.5941 -0.3272
   51ccc    H38 2342  -0.836   4.902   8.237 -1.3470 -0.5959  0.6565
   51ccc    H39 2343  -1.034   4.552   8.383  0.5768  1.1495 -0.3292
   51ccc     O5 2344  -1.029   4.375   8.267  0.5182 -0.1632  0.0776
   51ccc    H40 2345  -0.972   4.316   8.320 -0.6514 -2.4201 -1.0164
   51ccc     N4 2346  -0.634   4.645   8.357 -0.1606 -0.0990 -0.2103
   52ccc     N1 2347   0.264   6.674   7.801  0.3456 -0.2268  0.3486
   52ccc     H4 2348   0.363   6.689   7.817  0.1242  2.1231 -0.1311
   52ccc     C3 2349   0.221   6.585   7.692  0.1063 -0.2949 -0.2704
   52ccc     H5 2350   0.234   6.479   7.716 -1.8498 -0.1233  1.8159
   52ccc     C4 2351   0.271   6.619   7.554  0.5342 -0.1196  0.5766
   52ccc     H6 2352   0.113   6.598   7.686 -0.0104 -1.0930 -0.1066
   52ccc     H7 2353   0.376   6.593   7.534  0.8112  1.9265 -1.0168
   52ccc     H8 2354   0.266   6.729   7.553  0.4533 -0.1236  0.4233
   52ccc     N2 2355   0.191   6.568   7.443  0.0817  1.2398 -0.4263
   52ccc     C5 2356   0.228   6.621   7.315  0.4822 -0.3836  0.0402
   52ccc     C6 2357   0.207   6.418   7.434 -0.5558 -1.1660  0.2838
   52ccc     H9 2358   0.312   6.398   7.409 -0.6367 -0.4088 -0.7131
   52ccc     C7 2359   0.095   6.344   7.365  0.5394 -0.1818 -0.1745
   52ccc    H10 2360   0.207   6.385   7.539  1.1990 -0.4933  0.5369
   52ccc    H11 2361   0.125   6.239   7.350 -1.2536 -0.4454 -2.5432
   52ccc    H12 2362   0.079   6.384   7.264 -1.4099  0.9033  0.5192
   52ccc     C8 2363  -0.043   6.348   7.432 -0.0426 -0.0055 -0.2238
   52ccc     O2 2364  -0.089   6.254   7.492 -0.5466  0.7540 -0.1482
   52ccc    H13 2365   0.215   6.551   7.231 -0.2254  1.2548 -1.2790
   52ccc    H14 2366   0.333   6.649   7.302  1.2504 -3.7116 -2.2421
   52ccc     C9 2367   0.128   6.732   7.289 -0.4228  0.6541 -0.0656
   52ccc    H15 2368   0.035   6.714   7.344 -1.7375 -0.7056 -2.5625
   52ccc    H16 2369   0.107   6.740   7.182 -0.5946 -1.2725 -0.2153
   52ccc    C10 2370   0.196   6.864   7.332 -0.8985  0.0853 -0.3438
   52ccc     O4 2371   0.315   6.888   7.314 -0.2304  0.1678 -0.4493
   52ccc    C11 2372  -0.480   6.486   7.600 -0.5810 -0.3114 -0.0826
   52ccc    C12 2373  -0.367   6.567   7.670  0.3448 -0.0766  0.4835
   52ccc    H17 2374  -0.467   6.380   7.627  0.0222 -0.2935 -0.2795
   52ccc    C13 2375  -0.227   6.532   7.619 -0.6594  0.0722  0.6766
   52ccc    C14 2376  -0.230   6.515   7.468 -0.2511  0.1165  0.6701
   52ccc    C15 2377  -0.341   6.423   7.409  0.8325 -0.3880 -0.0573
   52ccc    H18 2378  -0.254   6.605   7.409 -1.0212 -2.2371 -2.9066
   52ccc    H19 2379  -0.196   6.436   7.663  3.5698  0.7303 -0.5152
   52ccc    H20 2380  -0.344   6.324   7.455 -2.4608 -1.7818 -2.8888
   52ccc     O1 2381  -0.338   6.396   7.272  0.1353 -0.6720 -0.5506
   52ccc     O6 2382  -0.134   6.636   7.644 -0.1482 -0.5094 -0.2064
   52ccc    C16 2383  -0.619   6.532   7.635 -0.0956 -0.2734  0.2977
   52ccc    H21 2384  -0.119   6.658   7.738 -1.7294  1.3117 -0.3357
   52ccc    H22 2385  -0.032   6.542   7.452  1.1593 -1.5129  2.8660
   52ccc    H23 2386  -0.625   6.641   7.618 -2.9264 -0.2804  0.8363
   52ccc    H24 2387  -0.634   6.517   7.742 -1.0199  0.0312  0.2177
   52ccc     O7 2388  -0.724   6.473   7.556 -0.5100  0.6079 -0.5733
   52ccc    H25 2389  -0.687   6.464   7.467  0.6825  2.3575 -0.3104
   52ccc     O8 2390  -0.465   6.488   7.456 -0.1056  0.1624  0.2331
   52ccc    H26 2391  -0.432   6.394   7.246 -0.4291 -0.6186  1.3662
   52ccc    H27 2392  -0.379   6.675   7.651  3.2861  0.3985  0.8188
   52ccc     O9 2393  -0.369   6.545   7.821  0.1830  0.1246  0.2345
   52ccc    H28 2394  -0.307   6.605   7.867 -1.0373 -0.2824  2.5274
   52ccc     N3 2395  -0.099   6.471   7.423 -0.4538  0.8234  0.3313
   52ccc    C17 2396   0.360   7.307   7.455 -0.3976 -0.3446 -0.1744
   52ccc    C18 2397   0.278   7.311   7.327  0.5066 -0.3458  0.5447
   52ccc    H29 2398   0.456   7.256   7.445 -0.9501 -1.0707 -2.2131
   52ccc    C19 2399   0.211   7.179   7.289  0.3021 -0.1390  0.1528
   52ccc    C20 2400   0.151   7.099   7.412  0.4065 -0.4700  0.4062
   52ccc    C21 2401   0.250   7.102   7.537 -0.1455 -0.0566  0.1082
   52ccc    H30 2402   0.068   7.159   7.451 -0.0899 -0.4875 -0.5822
   52ccc    H31 2403   0.298   7.123   7.254  0.0198 -1.1652  1.0312
   52ccc    H32 2404   0.337   7.039   7.518  0.9800  1.3439  0.5077
   52ccc    O10 2405   0.187   7.057   7.651  0.4926 -0.6901  0.2152
   52ccc    O11 2406   0.111   7.204   7.186  0.4050  0.7877  0.5381
   52ccc    C22 2407   0.378   7.456   7.501 -0.3516  0.4323  0.0984
   52ccc    H33 2408   0.082   7.117   7.154  0.3880  1.0848 -0.2803
   52ccc    H34 2409   0.022   6.932   7.420 -0.7977 -1.7793 -2.6350
   52ccc    H35 2410   0.278   7.499   7.504 -1.5612 -2.1031 -0.7825
   52ccc    H36 2411   0.436   7.500   7.419  1.1015 -0.2019  0.7456
   52ccc    O12 2412   0.448   7.457   7.628  0.5356  0.2131 -0.1446
   52ccc    H37 2413   0.389   7.412   7.691  1.0983 -3.8183 -2.2376
   52ccc    O13 2414   0.286   7.236   7.564  0.0316  0.4517  0.2356
   52ccc    H38 2415   0.152   7.141   7.685  1.4720 -0.9008  1.8532
   52ccc    H39 2416   0.189   7.370   7.352  1.0581  0.8532 -0.2469
   52ccc     O5 2417   0.351   7.370   7.215 -0.2681  0.2654 -0.1282
   52ccc    H40 2418   0.295   7.369   7.135 -0.9290  0.5399  0.3187
   52ccc     N4 2419   0.115   6.955   7.386  0.1739 -0.6473  0.4219
   53ccc     N1 2420   0.455   7.145   8.445  0.2346 -0.5092  0.0339
   53ccc     H4 2421   0.409   7.179   8.361  1.1269 -2.0017 -1.0964
   53ccc     C3 2422   0.396   7.195   8.572 -0.4407 -0.2399  0.1648
   53ccc     H5 2423   0.404   7.137   8.665 -1.4696  0.1113  0.4895
   53ccc     C4 2424   0.250   7.243   8.564  0.0409  0.0539  0.5278
   53ccc     H6 2425   0.463   7.280   8.582 -0.9906  0.5350 -2.0796
   53ccc     H7 2426   0.248   7.303   8.472  2.3668 -0.1190  0.3139
   53ccc     H8 2427   0.231   7.302   8.655  1.9609 -0.0869  1.0658
   53ccc     N2 2428   0.150   7.133   8.561 -0.4813  0.2113 -0.0130
   53ccc     C5 2429   0.139   7.062   8.689 -0.1915 -0.2187  0.3663
   53ccc     C6 2430   0.019   7.187   8.524 -0.1624  0.1086 -0.9223
   53ccc     H9 2431  -0.062   7.128   8.568  0.3163  1.0908  1.4195
   53ccc     C7 2432   0.011   7.169   8.376 -0.5697  0.0107  0.8723
   53ccc    H10 2433  -0.001   7.291   8.553 -1.5467 -0.4080  0.0827
   53ccc    H11 2434   0.023   7.065   8.344 -0.7342  0.3868 -0.4544
   53ccc    H12 2435   0.098   7.214   8.326  0.8645 -0.3853  2.8493
   53ccc     C8 2436  -0.115   7.225   8.318  0.7114  0.3622  0.0324
   53ccc     O2 2437  -0.220   7.160   8.327  0.3584  0.0588  0.1121
   53ccc    H13 2438   0.235   7.022   8.723 -0.7762 -1.2538  0.8421
   53ccc    H14 2439   0.068   6.981   8.666 -0.7909  0.2489  0.5410
   53ccc     C9 2440   0.086   7.137   8.803  0.4810  0.0168  0.1368
   53ccc    H15 2441  -0.013   7.181   8.785 -0.3192 -1.3356  1.0566
   53ccc    H16 2442   0.163   7.207   8.838  0.4271  0.6431 -0.9497
   53ccc    C10 2443   0.068   7.045   8.920  0.0363  0.3998 -0.1413
   53ccc     O4 2444   0.139   6.954   8.957 -0.2741 -0.0679  0.1091
   53ccc    C11 2445  -0.328   7.710   8.297  0.6380 -0.1800 -0.1810
   53ccc    C12 2446  -0.348   7.640   8.161 -0.0136  0.6296  0.3683
   53ccc    H17 2447  -0.230   7.758   8.286  1.2956 -1.8070 -1.9641
   53ccc    C13 2448  -0.240   7.533   8.140  0.6549  0.0376 -0.4986
   53ccc    C14 2449  -0.233   7.437   8.263 -0.5080 -0.2434  0.8256
   53ccc    C15 2450  -0.217   7.524   8.390 -0.0122  0.5954 -0.1297
   53ccc    H18 2451  -0.328   7.383   8.265  0.1851 -1.5129  1.0834
   53ccc    H19 2452  -0.144   7.585   8.131  0.9051  0.5588  3.4724
   53ccc    H20 2453  -0.123   7.578   8.401  0.5603 -0.5793  0.8841
   53ccc     O1 2454  -0.231   7.449   8.505  0.2492 -0.1129  0.5299
   53ccc     O6 2455  -0.275   7.458   8.025  0.1110  0.1191  0.0754
   53ccc    C16 2456  -0.446   7.810   8.322 -0.0635 -0.9384 -0.1609
   53ccc    H21 2457  -0.368   7.476   8.001  0.2123 -0.4554 -0.8066
   53ccc    H22 2458  -0.027   7.391   8.243 -0.0268  0.4693  1.8850
   53ccc    H23 2459  -0.444   7.899   8.257  1.5863  0.4656  1.6915
   53ccc    H24 2460  -0.437   7.859   8.419  0.7579  0.5134 -0.9363
   53ccc     O7 2461  -0.574   7.742   8.310  0.7520  0.0191 -0.1809
   53ccc    H25 2462  -0.579   7.679   8.384 -0.6391  0.8053  0.4201
   53ccc     O8 2463  -0.320   7.619   8.406  0.1325  0.0572  0.2312
   53ccc    H26 2464  -0.324   7.436   8.529  0.1793  0.9398  0.9082
   53ccc    H27 2465  -0.451   7.601   8.153  0.0121  0.4653  0.7628
   53ccc     O9 2466  -0.337   7.740   8.063  0.0282  0.0323  0.4233
   53ccc    H28 2467  -0.259   7.798   8.073 -0.7828  1.3861 -0.7668
   53ccc     N3 2468  -0.114   7.340   8.256 -0.0907  0.1065  0.2633
   53ccc    C17 2469  -0.164   6.759   9.252  0.0616 -0.1687  0.2329
   53ccc    C18 2470  -0.108   6.879   9.322  0.3866  0.0611 -0.2394
   53ccc    H29 2471  -0.082   6.687   9.243 -0.3736 -0.5234 -1.1415
   53ccc    C19 2472  -0.027   6.960   9.221 -0.2140  0.0765 -0.1406
   53ccc    C20 2473  -0.110   6.994   9.090 -0.0376  0.3299  0.6512
   53ccc    C21 2474  -0.147   6.863   9.020  1.1091  0.4691 -0.6833
   53ccc    H30 2475  -0.203   7.044   9.117 -1.3843 -0.7737 -1.6398
   53ccc    H31 2476   0.059   6.897   9.196  0.2991  1.3167 -1.7314
   53ccc    H32 2477  -0.060   6.804   8.988  1.2633  0.4593 -0.2482
   53ccc    O10 2478  -0.242   6.871   8.920  0.0742 -0.0255  0.2606
   53ccc    O11 2479   0.015   7.079   9.284  0.5879  0.2998  0.0498
   53ccc    C22 2480  -0.276   6.690   9.337 -0.0812  0.5382 -0.0257
   53ccc    H33 2481   0.085   7.053   9.347  0.9117  1.9512  0.4063
   53ccc    H34 2482  -0.098   7.151   8.950 -0.3288 -0.2632 -0.9685
   53ccc    H35 2483  -0.240   6.663   9.437  0.5923 -2.0948 -0.8972
   53ccc    H36 2484  -0.285   6.597   9.280  1.5136  1.6441 -2.2708
   53ccc    O12 2485  -0.402   6.758   9.342  0.7513  0.1330  0.3230
   53ccc    H37 2486  -0.445   6.715   9.418  1.3127  0.0375  0.5958
   53ccc    O13 2487  -0.226   6.788   9.121 -1.1810 -0.2095  0.3512
   53ccc    H38 2488  -0.318   6.838   8.971 -1.6835  1.4503 -1.2458
   53ccc    H39 2489  -0.194   6.943   9.347  1.6969  2.3181 -1.2311
   53ccc     O5 2490  -0.025   6.843   9.436 -0.2219 -0.0090 -0.3973
   53ccc    H40 2491  -0.011   6.747   9.445  0.8816  0.3550  3.5418
   53ccc     N4 2492  -0.039   7.082   8.996 -0.4668  0.0213 -0.3547
   54ccc     N1 2493   0.837   5.075   8.471  0.3399 -0.1754  0.1830
   54ccc     H4 2494   0.905   5.005   8.444 -0.8704 -1.9216  1.4645
   54ccc     C3 2495   0.867   5.214   8.481 -0.9111 -0.0743 -0.7886
   54ccc     H5 2496   0.787   5.284   8.453  0.0644  0.9053 -1.2312
   54ccc     C4 2497   0.992   5.244   8.392  0.4690  0.1569  0.0882
   54ccc     H6 2498   0.889   5.233   8.586  1.7396 -0.5836 -1.1958
   54ccc     H7 2499   1.005   5.353   8.390 -0.6467  0.3098  0.5008
   54ccc     H8 2500   0.961   5.227   8.289 -1.4184 -0.9068  0.7813
   54ccc     N2 2501   1.113   5.174   8.423  0.2217  0.2495  0.0265
   54ccc     C5 2502   1.203   5.187   8.304  0.2094  0.4444  0.4996
   54ccc     C6 2503   1.164   5.246   8.540 -0.0058  0.0180  0.0607
   54ccc     H9 2504   1.193   5.350   8.524  0.5633 -0.2557 -0.7773
   54ccc     C7 2505   1.260   5.146   8.613 -0.4331  0.0225 -1.2839
   54ccc    H10 2506   1.080   5.239   8.611  0.0602 -2.2367  0.0023
   54ccc    H11 2507   1.362   5.158   8.575  0.9521  0.0311  2.0792
   54ccc    H12 2508   1.223   5.043   8.601 -1.6101  0.2535  0.0827
   54ccc     C8 2509   1.264   5.180   8.757 -0.5235 -0.9300  0.0809
   54ccc     O2 2510   1.191   5.265   8.807  0.1965 -0.2974  0.3085
   54ccc    H13 2511   1.310   5.178   8.324 -0.0189  0.9662  2.0815
   54ccc    H14 2512   1.186   5.279   8.247 -1.7504  0.8315  1.6241
   54ccc     C9 2513   1.168   5.079   8.205  0.8311  0.6167 -0.4274
   54ccc    H15 2514   1.066   5.082   8.164  0.7848 -1.4801 -0.5502
   54ccc    H16 2515   1.179   4.987   8.264 -2.7569  0.3429  0.0685
   54ccc    C10 2516   1.267   5.069   8.095 -0.0987  0.9855  0.5899
   54ccc     O4 2517   1.388   5.047   8.109 -0.0602  0.1282  0.0015
   54ccc    C11 2518   1.465   5.364   9.164 -0.2019 -0.3957  0.4304
   54ccc    C12 2519   1.398   5.232   9.197 -0.1046  0.1482  0.3977
   54ccc    H17 2520   1.394   5.441   9.130  2.2302  1.9981  0.3618
   54ccc    C13 2521   1.339   5.171   9.071 -0.2601  0.5503  0.2582
   54ccc    C14 2522   1.429   5.172   8.947 -0.1051  0.1941 -0.5218
   54ccc    C15 2523   1.506   5.309   8.924 -0.5937  0.3562  0.7001
   54ccc    H18 2524   1.511   5.114   8.992 -1.5976  0.6320  3.1338
   54ccc    H19 2525   1.250   5.233   9.052  0.6534  1.9132  0.3154
   54ccc    H20 2526   1.436   5.380   8.878  0.7245  1.7911  0.8120
   54ccc     O1 2527   1.609   5.298   8.832 -0.3315  0.1152 -0.6468
   54ccc     O6 2528   1.304   5.032   9.085  0.7393  0.0247 -0.1750
   54ccc    C16 2529   1.549   5.422   9.281  0.2648 -0.1190 -0.2097
   54ccc    H21 2530   1.250   5.010   9.007  1.6173  0.6941 -0.9931
   54ccc    H22 2531   1.415   5.041   8.785 -0.6806 -0.0844 -0.4122
   54ccc    H23 2532   1.486   5.442   9.368  3.5786 -0.4792  2.5044
   54ccc    H24 2533   1.588   5.523   9.259 -2.0314  0.5517 -1.4604
   54ccc     O7 2534   1.667   5.339   9.315  0.1693 -0.2374 -0.2803
   54ccc    H25 2535   1.720   5.352   9.235 -2.5119  2.5665 -1.8054
   54ccc     O8 2536   1.554   5.352   9.047 -0.3620 -0.1923 -0.1668
   54ccc    H26 2537   1.594   5.214   8.785 -0.9460 -0.6393  0.8433
   54ccc    H27 2538   1.476   5.169   9.242 -0.7113 -0.3462  0.7828
   54ccc     O9 2539   1.299   5.244   9.301  0.3154  0.1406 -0.1517
   54ccc    H28 2540   1.265   5.156   9.326  1.1811  0.4434  2.3874
   54ccc     N3 2541   1.365   5.121   8.823 -0.5424 -0.1317 -0.1293
   54ccc    C17 2542   1.399   5.010   7.578  0.3740 -0.4518 -0.1199
   54ccc    C18 2543   1.342   5.160   7.609 -0.3192  0.5614 -0.0935
   54ccc    H29 2544   1.318   4.947   7.540  0.0182  0.3606 -0.7325
   54ccc    C19 2545   1.253   5.151   7.736 -0.4942 -0.1228  0.1403
   54ccc    C20 2546   1.315   5.075   7.855 -0.0205  0.0233 -0.3220
   54ccc    C21 2547   1.359   4.939   7.803 -0.3352 -0.1129 -0.6309
   54ccc    H30 2548   1.407   5.132   7.875  0.9928 -1.7086  0.0956
   54ccc    H31 2549   1.150   5.115   7.723 -0.6271 -0.4183  1.8119
   54ccc    H32 2550   1.275   4.872   7.783 -0.2819 -0.9008  1.5415
   54ccc    O10 2551   1.436   4.877   7.898  0.5262  0.6730 -0.6777
   54ccc    O11 2552   1.246   5.292   7.780 -0.0497  0.9911 -0.0588
   54ccc    C22 2553   1.504   5.011   7.472  0.1874  0.1547 -0.1083
   54ccc    H33 2554   1.234   5.283   7.876  1.1379  0.4060  0.0565
   54ccc    H34 2555   1.125   5.043   7.945 -0.3438  0.2192  1.0685
   54ccc    H35 2556   1.598   5.037   7.521 -0.6773  0.2289  1.5993
   54ccc    H36 2557   1.486   5.089   7.397  2.4438 -1.1198 -2.1049
   54ccc    O12 2558   1.507   4.888   7.407 -0.2118  0.4807 -0.1689
   54ccc    H37 2559   1.497   4.816   7.472  0.4378  0.8546  0.3603
   54ccc    O13 2560   1.450   4.954   7.700  0.4130 -0.3858 -0.0461
   54ccc    H38 2561   1.388   4.907   7.977  0.5483  3.3964 -1.5889
   54ccc    H39 2562   1.428   5.225   7.631  0.2054 -0.6181  1.6105
   54ccc     O5 2563   1.259   5.213   7.501  0.4028 -0.1620 -0.0493
   54ccc    H40 2564   1.280   5.307   7.488 -1.2869 -0.1164 -3.9883
   54ccc     N4 2565   1.222   5.062   7.969 -0.0216 -0.3565  0.2617
   55ccc     N1 2566   0.948   5.010   9.024 -0.4724 -0.2764  0.8737
   55ccc     H4 2567   0.882   5.078   8.988  0.7243  0.9230  0.8860
   55ccc     C3 2568   0.966   4.996   9.167 -0.0581  0.1306 -0.3940
   55ccc     H5 2569   0.964   4.888   9.186 -2.1945  0.4934  1.9863
   55ccc     C4 2570   0.852   5.067   9.255 -0.8043  0.3831  0.1273
   55ccc     H6 2571   1.066   5.035   9.192  0.0609 -0.9582  0.9794
   55ccc     H7 2572   0.893   5.078   9.356  1.7748 -1.3648 -0.6028
   55ccc     H8 2573   0.763   5.005   9.241 -0.3958  0.1350 -1.6090
   55ccc     N2 2574   0.815   5.188   9.195  0.1879 -0.1390 -0.2785
   55ccc     C5 2575   0.693   5.242   9.258 -0.4824  0.1653  0.1003
   55ccc     C6 2576   0.918   5.288   9.188  0.4771  0.8927  0.2053
   55ccc     H9 2577   0.909   5.352   9.277  0.9642 -0.5121  1.3161
   55ccc     C7 2578   0.902   5.364   9.057 -0.5039 -0.4111  0.4995
   55ccc    H10 2579   1.019   5.245   9.194  0.4847  0.9490  0.5067
   55ccc    H11 2580   0.809   5.421   9.057 -0.2559  0.0035  0.4689
   55ccc    H12 2581   0.887   5.304   8.967 -1.4534 -0.9190  0.9877
   55ccc     C8 2582   1.011   5.462   9.034  0.9727 -0.9463  0.5637
   55ccc     O2 2583   1.084   5.508   9.114  0.7462 -0.6070  0.5374
   55ccc    H13 2584   0.687   5.346   9.225 -0.0693 -0.6607 -2.8747
   55ccc    H14 2585   0.693   5.239   9.368 -0.9462 -1.1403  0.0881
   55ccc     C9 2586   0.567   5.174   9.207 -0.5340  0.6288  0.1253
   55ccc    H15 2587   0.571   5.069   9.236 -1.3959 -0.0903 -2.1501
   55ccc    H16 2588   0.567   5.181   9.098 -1.8513  1.4518  0.1476
   55ccc    C10 2589   0.450   5.245   9.257  0.1128  0.7585 -0.1434
   55ccc     O4 2590   0.440   5.309   9.362 -0.0600  0.6160 -0.1892
   55ccc    C11 2591   1.265   5.867   8.907 -0.4307 -0.4656  0.3992
   55ccc    C12 2592   1.320   5.747   8.833 -0.1455  0.6131 -0.0641
   55ccc    H17 2593   1.289   5.865   9.014 -1.5485  1.0204  0.7097
   55ccc    C13 2594   1.240   5.617   8.856 -0.0210 -0.0907 -0.0706
   55ccc    C14 2595   1.086   5.636   8.857  0.5393  0.5371  0.0585
   55ccc    C15 2596   1.045   5.771   8.939 -0.3115 -0.0793  0.6443
   55ccc    H18 2597   1.049   5.658   8.756  0.8207 -1.7571 -0.5832
   55ccc    H19 2598   1.277   5.573   8.950  0.0339  0.1470  0.0183
   55ccc    H20 2599   1.069   5.765   9.046  1.8196  2.6837  0.4554
   55ccc     O1 2600   0.908   5.817   8.924 -0.5066 -0.4942 -0.7412
   55ccc     O6 2601   1.260   5.516   8.752 -0.2248 -0.4000 -0.4529
   55ccc    C16 2602   1.325   5.997   8.865  0.6401 -0.1534  0.3530
   55ccc    H21 2603   1.223   5.432   8.784 -0.6954  0.0310  0.1435
   55ccc    H22 2604   0.939   5.484   8.841 -0.6075  2.4428 -0.8157
   55ccc    H23 2605   1.431   5.970   8.857  0.3231 -1.0909 -0.9731
   55ccc    H24 2606   1.305   6.073   8.942 -1.5180  0.0890 -0.3749
   55ccc     O7 2607   1.286   6.045   8.732 -0.2211  0.4147 -0.1928
   55ccc    H25 2608   1.365   6.029   8.678  0.8837  2.8624  0.5440
   55ccc     O8 2609   1.125   5.881   8.894  0.1824 -0.9028 -0.4548
   55ccc    H26 2610   0.892   5.875   9.000  1.6917 -0.0671 -0.5456
   55ccc    H27 2611   1.311   5.768   8.725 -1.5846 -0.9630 -0.2806
   55ccc     O9 2612   1.455   5.720   8.867  0.1301  0.1489 -0.5112
   55ccc    H28 2613   1.456   5.718   8.964  3.2260  0.2635 -0.4418
   55ccc     N3 2614   1.004   5.520   8.910  0.1381 -0.3647  0.0714
   55ccc    C17 2615  -0.093   5.194   9.197 -0.0650 -0.1568 -0.0114
   55ccc    C18 2616  -0.015   5.157   9.319  0.0023 -0.6264 -0.1588
   55ccc    H29 2617  -0.099   5.113   9.122 -0.5994  1.1046 -1.3883
   55ccc    C19 2618   0.137   5.140   9.301  0.0513 -0.1568  0.5139
   55ccc    C20 2619   0.198   5.260   9.216  0.6948  0.6946 -0.4484
   55ccc    C21 2620   0.101   5.276   9.092 -0.1792  0.1911 -0.3448
   55ccc    H30 2621   0.188   5.361   9.258  2.0426  0.4144  0.5971
   55ccc    H31 2622   0.146   5.044   9.248 -0.2829 -0.8087  1.5933
   55ccc    H32 2623   0.109   5.191   9.024 -0.5718  0.1691 -0.3654
   55ccc    O10 2624   0.140   5.386   9.015 -0.2214 -0.1057 -0.3486
   55ccc    O11 2625   0.203   5.136   9.425 -0.1708 -0.4275  0.1325
   55ccc    C22 2626  -0.236   5.235   9.238 -0.5956 -0.5130 -0.1769
   55ccc    H33 2627   0.287   5.088   9.415  0.6636  0.5600  1.8410
   55ccc    H34 2628   0.345   5.158   9.102 -1.2614  0.3985  0.4432
   55ccc    H35 2629  -0.225   5.308   9.319  1.6806  0.7967 -1.5470
   55ccc    H36 2630  -0.293   5.155   9.286  0.7221 -0.4992  1.5180
   55ccc    O12 2631  -0.300   5.298   9.130  0.6596  0.6118  0.1794
   55ccc    H37 2632  -0.261   5.387   9.119  0.9057  0.5536  0.5672
   55ccc    O13 2633  -0.037   5.303   9.132 -0.4186  0.5432  0.0013
   55ccc    H38 2634   0.060   5.439   9.002  0.0517 -0.1207 -2.4190
   55ccc    H39 2635  -0.030   5.236   9.394 -0.4009 -0.1350 -0.7572
   55ccc     O5 2636  -0.060   5.030   9.363 -0.0490 -0.0920 -0.0221
   55ccc    H40 2637  -0.034   5.026   9.457 -0.4510 -1.1431  0.0543
   55ccc     N4 2638   0.343   5.222   9.181  0.7429  0.3118  0.6209
   56ccc     N1 2639   1.087   4.041   7.229 -0.0754  0.2920 -0.5875
   56ccc     H4 2640   1.112   4.125   7.279  1.7705  0.2978 -1.4583
   56ccc     C3 2641   0.947   3.994   7.223  1.0834  0.1491  0.1357
   56ccc     H5 2642   0.916   3.986   7.118  0.9065  0.1182  0.1912
   56ccc     C4 2643   0.842   4.092   7.273 -0.8998 -0.6027 -0.5857
   56ccc     H6 2644   0.938   3.897   7.273  1.4382  0.1222  0.1516
   56ccc     H7 2645   0.853   4.079   7.381 -3.0353 -2.9928 -0.5652
   56ccc     H8 2646   0.742   4.053   7.253 -0.1533 -2.6456 -0.5301
   56ccc     N2 2647   0.854   4.234   7.226  0.1455  0.1627  0.2785
   56ccc     C5 2648   0.767   4.315   7.310 -0.2568 -0.1174  0.2615
   56ccc     C6 2649   0.842   4.243   7.082  0.7447  0.4333  0.2582
   56ccc     H9 2650   0.920   4.176   7.044  1.7451 -0.7531  3.9659
   56ccc     C7 2651   0.871   4.386   7.036 -0.3799 -1.0067 -0.0680
   56ccc    H10 2652   0.753   4.204   7.032  1.5705 -0.0374 -0.9059
   56ccc    H11 2653   0.966   4.410   7.086  0.1139 -2.1998 -0.4156
   56ccc    H12 2654   0.794   4.452   7.077  0.2224  0.1902 -0.8023
   56ccc     C8 2655   0.906   4.396   6.893 -0.4554  0.3063 -0.5147
   56ccc     O2 2656   0.941   4.300   6.826 -0.1388  0.3128 -0.2358
   56ccc    H13 2657   0.683   4.256   7.348 -0.3794  0.3217  0.6826
   56ccc    H14 2658   0.725   4.397   7.250  0.3681 -0.7540 -1.0733
   56ccc     C9 2659   0.847   4.368   7.424  0.7316  0.0012 -0.4606
   56ccc    H15 2660   0.908   4.287   7.465  1.6685  1.0072  0.1900
   56ccc    H16 2661   0.774   4.401   7.499 -0.4248 -0.2532 -1.4427
   56ccc    C10 2662   0.948   4.470   7.392 -0.8024  0.1931 -0.8173
   56ccc     O4 2663   1.063   4.445   7.355  0.8706  0.0724  0.2045
   56ccc    C11 2664   0.927   4.767   6.506  0.2961  0.9950 -0.1280
   56ccc    C12 2665   0.999   4.637   6.503  0.4888  0.3721 -0.8752
   56ccc    H17 2666   0.988   4.832   6.571  3.1393 -1.5895  0.0260
   56ccc    C13 2667   1.011   4.569   6.650  0.3052 -0.4438 -0.3001
   56ccc    C14 2668   0.866   4.560   6.709  1.0900 -0.5212  0.1429
   56ccc    C15 2669   0.807   4.707   6.704  0.0493  0.3097 -0.4284
   56ccc    H18 2670   0.803   4.497   6.645 -0.8952  1.3217  0.1687
   56ccc    H19 2671   1.077   4.635   6.707  0.5005  0.2066 -1.2446
   56ccc    H20 2672   0.873   4.769   6.765  2.4183 -0.6267 -1.8961
   56ccc     O1 2673   0.675   4.720   6.745 -0.0647  0.2483  0.2987
   56ccc     O6 2674   1.081   4.442   6.636  0.1934  0.0219 -0.8878
   56ccc    C16 2675   0.895   4.818   6.363  1.4003  0.1262 -0.5130
   56ccc    H21 2676   1.040   4.383   6.702 -0.5636  1.6503  0.1427
   56ccc    H22 2677   0.815   4.586   6.906 -0.5402  0.6904 -0.2605
   56ccc    H23 2678   0.854   4.740   6.298 -1.3437  0.7773  0.3002
   56ccc    H24 2679   0.988   4.850   6.312 -0.0616  1.5058 -2.4959
   56ccc     O7 2680   0.804   4.928   6.360  0.1560 -0.3172  0.1125
   56ccc    H25 2681   0.743   4.912   6.434 -3.4984 -0.6265 -2.6935
   56ccc     O8 2682   0.804   4.741   6.569 -0.5240 -0.4344 -0.4693
   56ccc    H26 2683   0.629   4.697   6.663  0.5253 -0.8288  0.2567
   56ccc    H27 2684   0.944   4.566   6.439 -0.9607  3.3814 -3.2130
   56ccc     O9 2685   1.129   4.657   6.463  0.4290  0.2355  0.4800
   56ccc    H28 2686   1.182   4.575   6.466 -0.0622 -0.1980 -1.5424
   56ccc     N3 2687   0.857   4.514   6.847 -0.4024  0.8202 -0.3226
   56ccc    C17 2688   0.957   5.004   7.250  0.6935  0.1037 -0.4608
   56ccc    C18 2689   0.984   4.987   7.403  0.3508 -0.4666  0.6996
   56ccc    H29 2690   0.851   5.021   7.228  0.6031  0.3496  0.1517
   56ccc    C19 2691   0.950   4.847   7.460 -0.1513  0.2708  0.2159
   56ccc    C20 2692   0.985   4.725   7.364  0.5272 -0.3328 -1.0416
   56ccc    C21 2693   0.967   4.766   7.218 -0.3195 -0.4191  0.5564
   56ccc    H30 2694   1.091   4.703   7.382  0.8228  2.4846  1.4157
   56ccc    H31 2695   0.842   4.832   7.471  0.0825 -1.3039  0.6836
   56ccc    H32 2696   0.864   4.758   7.180  0.4107  0.7931 -1.9276
   56ccc    O10 2697   1.042   4.677   7.136 -0.2358 -0.0631 -0.0511
   56ccc    O11 2698   1.011   4.836   7.586 -0.0814  0.6963 -0.3011
   56ccc    C22 2699   1.031   5.135   7.204  0.5943  0.1099 -0.1677
   56ccc    H33 2700   0.972   4.762   7.636  1.5586  0.2716  0.4418
   56ccc    H34 2701   0.807   4.616   7.423  0.3536 -0.0823  0.8892
   56ccc    H35 2702   1.130   5.092   7.183  1.1063  1.3364 -0.3660
   56ccc    H36 2703   1.032   5.211   7.282 -0.0643 -0.7263  0.6804
   56ccc    O12 2704   0.961   5.180   7.082  0.4242 -0.3030 -0.0148
   56ccc    H37 2705   0.899   5.109   7.058  0.7958 -1.0981  1.2835
   56ccc    O13 2706   1.015   4.897   7.178  0.3929  0.1601  0.0712
   56ccc    H38 2707   1.136   4.703   7.135 -0.1003 -0.5264  0.0785
   56ccc    H39 2708   1.092   5.001   7.412  0.3969 -0.9773  0.9810
   56ccc     O5 2709   0.927   5.090   7.488 -0.1642 -0.1479 -0.1306
   56ccc    H40 2710   0.917   5.044   7.573 -1.1151  0.2591 -0.0016
   56ccc     N4 2711   0.907   4.601   7.408  0.3328  0.6001  0.0307
   57ccc     N1 2712   1.785   4.320   7.402 -0.2294  0.0423  0.2672
   57ccc     H4 2713   1.725   4.391   7.442 -0.5193 -1.7564  3.3697
   57ccc     C3 2714   1.906   4.366   7.333 -0.6093  0.1549 -0.0398
   57ccc     H5 2715   1.974   4.406   7.409 -0.2864  0.0666 -0.2792
   57ccc     C4 2716   1.881   4.468   7.224  0.4012  0.0935  0.2395
   57ccc     H6 2717   1.961   4.280   7.293  0.2670 -0.1399  1.6940
   57ccc     H7 2718   1.845   4.401   7.145 -0.6216 -0.8625  1.4684
   57ccc     H8 2719   1.982   4.503   7.198  1.7610 -2.6956  1.3417
   57ccc     N2 2720   1.794   4.579   7.268 -0.5461  0.5275  0.4047
   57ccc     C5 2721   1.813   4.636   7.407 -0.0447  0.4745 -0.2334
   57ccc     C6 2722   1.763   4.674   7.162 -0.1642 -0.2059  0.2448
   57ccc     H9 2723   1.687   4.743   7.200  1.1914  0.8221  1.2122
   57ccc     C7 2724   1.731   4.614   7.021 -0.7146  0.0164  0.0956
   57ccc    H10 2725   1.852   4.736   7.145  1.8565 -3.0856 -0.2513
   57ccc    H11 2726   1.671   4.522   7.027 -0.4075 -0.1204  1.2741
   57ccc    H12 2727   1.819   4.584   6.963 -0.7584 -1.6644  0.8334
   57ccc     C8 2728   1.675   4.719   6.937  0.8307  0.1886 -0.6692
   57ccc     O2 2729   1.741   4.814   6.891 -0.5392  0.6597 -0.0897
   57ccc    H13 2730   1.806   4.555   7.480  1.2890  1.6905  1.3168
   57ccc    H14 2731   1.733   4.704   7.439 -1.5344 -1.0996 -0.4937
   57ccc     C9 2732   1.950   4.697   7.425 -0.7794  0.2068  1.0055
   57ccc    H15 2733   1.997   4.743   7.338 -1.3875  0.0876  0.6144
   57ccc    H16 2734   2.025   4.619   7.446 -2.2351 -1.9219 -1.1785
   57ccc    C10 2735   1.954   4.809   7.525 -0.3351  0.0076 -0.1586
   57ccc     O4 2736   1.953   4.926   7.492 -0.2469 -0.7084 -0.2176
   57ccc    C11 2737   1.233   4.911   6.690 -0.1175  0.8503  0.2549
   57ccc    C12 2738   1.210   4.877   6.840  0.0385  0.1918 -0.2571
   57ccc    H17 2739   1.198   4.825   6.632 -1.8057  2.7027 -1.6269
   57ccc    C13 2740   1.311   4.774   6.891  0.1857  0.0506 -0.4356
   57ccc    C14 2741   1.454   4.809   6.857  0.1116  0.6865 -0.6026
   57ccc    C15 2742   1.472   4.840   6.706  0.0228 -0.1750  0.1840
   57ccc    H18 2743   1.483   4.904   6.904  0.8510  0.6746 -1.0223
   57ccc    H19 2744   1.295   4.683   6.831 -1.6828  2.1396 -3.3364
   57ccc    H20 2745   1.455   4.742   6.661 -1.6015 -0.6085  1.6684
   57ccc     O1 2746   1.599   4.889   6.679 -0.4693  0.3554 -0.1200
   57ccc     O6 2747   1.292   4.754   7.033 -0.3153 -0.2228  0.0771
   57ccc    C16 2748   1.129   5.024   6.649 -0.2215  0.0035  0.1724
   57ccc    H21 2749   1.347   4.824   7.073 -0.7133  1.3531 -1.9231
   57ccc    H22 2750   1.498   4.621   6.953 -1.0006  1.1282  0.5958
   57ccc    H23 2751   1.160   5.114   6.703  0.9501  0.1395 -0.7099
   57ccc    H24 2752   1.025   5.000   6.676 -1.1755  0.5829 -2.6072
   57ccc     O7 2753   1.134   5.056   6.509  0.1430  0.2177  0.1839
   57ccc    H25 2754   1.115   5.151   6.500  3.1294  0.8249 -0.8499
   57ccc     O8 2755   1.373   4.943   6.661 -0.5215  0.2687  0.1696
   57ccc    H26 2756   1.647   4.866   6.760 -0.4100 -1.3446 -0.5994
   57ccc    H27 2757   1.216   4.968   6.901 -0.7355  0.3337 -0.3844
   57ccc     O9 2758   1.076   4.822   6.870 -0.3765 -0.3889 -0.8265
   57ccc    H28 2759   1.059   4.819   6.965 -0.4849  0.2709 -0.8176
   57ccc     N3 2760   1.543   4.705   6.916  0.5685 -0.2082 -0.6898
   57ccc    C17 2761   1.911   5.111   7.918  0.3999 -0.1189  0.5516
   57ccc    C18 2762   1.803   4.997   7.919 -0.0353 -0.0972  0.7895
   57ccc    H29 2763   1.881   5.182   7.840  0.8693  0.2106  0.6619
   57ccc    C19 2764   1.809   4.902   7.796  0.5125  0.4829  0.5518
   57ccc    C20 2765   1.956   4.851   7.770  0.3017 -0.0365 -0.1391
   57ccc    C21 2766   2.052   4.972   7.769  0.5583  0.3064  0.9361
   57ccc    H30 2767   1.978   4.781   7.851  0.8131  0.3851  0.0943
   57ccc    H31 2768   1.781   4.955   7.704  2.3975 -1.0583 -1.0086
   57ccc    H32 2769   2.031   5.032   7.680  0.7768  0.5869  1.0706
   57ccc    O10 2770   2.193   4.928   7.774  1.0185 -0.2048 -0.5876
   57ccc    O11 2771   1.730   4.780   7.803  0.1652 -0.0255  0.2663
   57ccc    C22 2772   1.920   5.199   8.040  0.3481 -0.0631 -0.2106
   57ccc    H33 2773   1.635   4.803   7.794  0.5191  1.9215  1.0923
   57ccc    H34 2774   1.957   4.671   7.672  1.1970  0.3191  1.9639
   57ccc    H35 2775   1.840   5.274   8.037  0.4864  0.1176  0.3855
   57ccc    H36 2776   2.015   5.253   8.046  0.7564 -0.8883  2.9161
   57ccc    O12 2777   1.897   5.128   8.162  0.4385  0.0766 -0.3741
   57ccc    H37 2778   1.984   5.131   8.206  0.1479  2.1906  0.1678
   57ccc    O13 2779   2.040   5.053   7.886 -0.2629 -0.1699  0.2967
   57ccc    H38 2780   2.207   4.886   7.687  0.5630  0.2839 -0.9064
   57ccc    H39 2781   1.822   4.947   8.014  1.9293  0.5712  0.7959
   57ccc     O5 2782   1.674   5.057   7.914 -0.4630 -0.2596  0.2242
   57ccc    H40 2783   1.609   4.984   7.911  0.4890 -1.1965  1.3769
   57ccc     N4 2784   1.969   4.770   7.648 -0.2698  0.0603 -0.1356
   58ccc     N1 2785  -0.522   5.812   8.274  0.2313 -0.1937 -0.4144
   58ccc     H4 2786  -0.562   5.790   8.364  1.7419  0.2704  0.4026
   58ccc     C3 2787  -0.596   5.918   8.203  0.4062  0.7188  0.5080
   58ccc     H5 2788  -0.573   6.013   8.252 -1.7585  1.2218  0.6249
   58ccc     C4 2789  -0.744   5.886   8.208  0.0215  0.2072  0.2596
   58ccc     H6 2790  -0.566   5.916   8.097 -0.2596  0.5015  0.3182
   58ccc     H7 2791  -0.756   5.788   8.158  4.6903 -1.1670  1.3913
   58ccc     H8 2792  -0.795   5.972   8.162 -1.6674 -0.7434  0.2505
   58ccc     N2 2793  -0.793   5.864   8.348 -0.6330  0.1987  1.2055
   58ccc     C5 2794  -0.763   5.971   8.442 -0.2625  0.5768 -0.3765
   58ccc     C6 2795  -0.938   5.846   8.346 -0.3579  0.3587  0.4308
   58ccc     H9 2796  -0.989   5.846   8.443  0.2868 -2.7298  0.8989
   58ccc     C7 2797  -0.975   5.714   8.289 -0.0272 -0.2642  0.2748
   58ccc    H10 2798  -0.981   5.925   8.283  0.6417 -0.1535 -0.9404
   58ccc    H11 2799  -0.914   5.630   8.327  1.5181  0.7832  0.2046
   58ccc    H12 2800  -0.965   5.718   8.180 -1.3314 -0.8112  0.1189
   58ccc     C8 2801  -1.116   5.668   8.308 -0.3646  0.0325  0.0913
   58ccc     O2 2802  -1.168   5.646   8.416 -0.2600  0.2519 -0.3797
   58ccc    H13 2803  -0.852   6.024   8.478 -1.1113 -1.7890  1.1937
   58ccc    H14 2804  -0.695   6.040   8.390 -1.2123  0.1518 -2.2788
   58ccc     C9 2805  -0.688   5.899   8.557  0.5392 -0.5456 -0.8931
   58ccc    H15 2806  -0.583   5.926   8.539  0.9561 -1.0677  0.6648
   58ccc    H16 2807  -0.697   5.790   8.555 -0.5516 -0.6023  2.0667
   58ccc    C10 2808  -0.734   5.960   8.688 -0.1749  0.3297  0.1365
   58ccc     O4 2809  -0.689   6.067   8.724 -0.0446 -0.6517 -0.2296
   58ccc    C11 2810  -1.430   5.295   8.268 -0.6505  0.3937 -0.4238
   58ccc    C12 2811  -1.490   5.433   8.240 -0.2250  0.2912  0.4311
   58ccc    H17 2812  -1.407   5.285   8.375  4.1726 -1.4516 -1.3450
   58ccc    C13 2813  -1.401   5.551   8.262 -0.5524  0.3434  0.0321
   58ccc    C14 2814  -1.272   5.531   8.183 -0.2322 -0.1763 -1.0911
   58ccc    C15 2815  -1.206   5.391   8.210 -0.4182  0.4347 -0.1067
   58ccc    H18 2816  -1.305   5.524   8.078 -2.3655  0.4811 -0.5101
   58ccc    H19 2817  -1.377   5.547   8.369  1.0050 -3.0702 -0.3064
   58ccc    H20 2818  -1.163   5.394   8.310  0.7421  0.5759 -0.5836
   58ccc     O1 2819  -1.097   5.366   8.114  0.6468 -0.8301  0.0085
   58ccc     O6 2820  -1.462   5.674   8.227 -0.2507  0.3337 -0.3313
   58ccc    C16 2821  -1.517   5.176   8.214 -0.2153 -0.2527  0.2560
   58ccc    H21 2822  -1.415   5.745   8.275  0.6195  0.2510 -1.0209
   58ccc    H22 2823  -1.108   5.629   8.105  1.6936 -2.1638  1.3247
   58ccc    H23 2824  -1.538   5.170   8.107  0.1814 -0.1108  0.1671
   58ccc    H24 2825  -1.617   5.194   8.256  0.2096  2.4906  0.3201
   58ccc     O7 2826  -1.466   5.048   8.256  0.1685 -0.2214  0.1972
   58ccc    H25 2827  -1.371   5.042   8.236  0.3166 -0.3513  0.9035
   58ccc     O8 2828  -1.305   5.282   8.190  0.2230 -0.6085  0.4433
   58ccc    H26 2829  -1.104   5.274   8.082  1.1424 -0.6969 -0.4889
   58ccc    H27 2830  -1.516   5.431   8.134 -2.0414  1.7572  0.8055
   58ccc     O9 2831  -1.617   5.458   8.300  0.4700 -0.0364 -0.2925
   58ccc    H28 2832  -1.675   5.387   8.268  3.0776 -2.4237 -0.1459
   58ccc     N3 2833  -1.167   5.635   8.188  0.3338 -0.1429  0.2988
   58ccc    C17 2834  -0.978   6.177   9.056  0.4133 -0.1171  0.3822
   58ccc    C18 2835  -1.073   6.125   8.937  0.3409 -0.6275 -0.0133
   58ccc    H29 2836  -0.908   6.249   9.013  1.5898 -2.1575 -1.3543
   58ccc    C19 2837  -0.989   6.071   8.820  0.0017 -0.4102 -0.0254
   58ccc    C20 2838  -0.894   5.960   8.869  0.5752 -0.2434 -0.0972
   58ccc    C21 2839  -0.810   6.014   8.987  0.0488 -0.8283  0.1053
   58ccc    H30 2840  -0.966   5.891   8.913  0.4482  0.6698  1.1816
   58ccc    H31 2841  -0.928   6.150   8.775 -2.8976  1.1234 -1.6082
   58ccc    H32 2842  -0.745   6.093   8.948 -0.4121 -0.2608  0.4630
   58ccc    O10 2843  -0.733   5.919   9.055 -0.3622  0.3904 -0.6696
   58ccc    O11 2844  -1.081   6.017   8.721 -0.1343  0.0594 -0.2081
   58ccc    C22 2845  -1.064   6.222   9.175 -0.0649 -0.1896 -0.6467
   58ccc    H33 2846  -1.091   5.920   8.728  0.9671 -0.0637 -0.1305
   58ccc    H34 2847  -0.881   5.830   8.707  0.4852 -1.1082  0.3507
   58ccc    H35 2848  -1.126   6.139   9.209 -2.2131  0.8979 -1.7050
   58ccc    H36 2849  -1.135   6.297   9.137 -1.1451 -2.4195 -3.3622
   58ccc    O12 2850  -0.979   6.268   9.273 -0.6232  0.3042 -0.0559
   58ccc    H37 2851  -0.980   6.201   9.344  0.2639 -1.1483 -1.3679
   58ccc    O13 2852  -0.899   6.063   9.094  0.2880 -0.2445 -0.4271
   58ccc    H38 2853  -0.668   5.969   9.107  1.5671 -1.6438 -0.9829
   58ccc    H39 2854  -1.129   6.040   8.976 -1.4223  0.7201  0.5253
   58ccc     O5 2855  -1.181   6.219   8.908 -0.2733  0.0210 -0.0860
   58ccc    H40 2856  -1.210   6.206   8.816  2.8856 -1.7108 -0.9807
   58ccc     N4 2857  -0.824   5.896   8.759  0.1785 -0.4743 -0.1024
   59ccc     N1 2858  -0.180   5.190   8.723  0.0135  0.6753 -0.1064
   59ccc     H4 2859  -0.148   5.144   8.638  3.8132  0.4664  1.2833
   59ccc     C3 2860  -0.210   5.116   8.847 -0.3319  0.4417  0.0248
   59ccc     H5 2861  -0.136   5.128   8.927 -0.4357  0.4852  0.1164
   59ccc     C4 2862  -0.220   4.963   8.830  0.2589 -0.4331 -0.0455
   59ccc     H6 2863  -0.311   5.146   8.879 -1.0311 -2.3103  0.6765
   59ccc     H7 2864  -0.133   4.932   8.772  0.9634 -0.2620  0.9095
   59ccc     H8 2865  -0.313   4.944   8.773 -0.1000  1.6261 -0.2259
   59ccc     N2 2866  -0.231   4.895   8.961  0.1921  0.1778 -0.2956
   59ccc     C5 2867  -0.351   4.923   9.043  0.3600  0.0176 -0.3221
   59ccc     C6 2868  -0.174   4.759   8.974  0.1637 -0.1131  0.0648
   59ccc     H9 2869  -0.247   4.698   9.028  0.1571  0.5691  0.8405
   59ccc     C7 2870  -0.048   4.774   9.060  0.4661  0.0739 -0.4752
   59ccc    H10 2871  -0.141   4.726   8.874 -0.7060 -1.5132  0.2211
   59ccc    H11 2872  -0.083   4.821   9.152 -1.1297  0.7530 -1.3813
   59ccc    H12 2873   0.022   4.847   9.018  1.2463 -0.6626 -0.4814
   59ccc     C8 2874   0.008   4.639   9.087  0.3885  0.1826  0.7079
   59ccc     O2 2875  -0.043   4.535   9.047 -0.1587  0.3547 -0.2006
   59ccc    H13 2876  -0.432   4.875   8.987 -0.9646  3.1889 -1.3594
   59ccc    H14 2877  -0.375   5.030   9.043  1.0869  0.1964  0.4127
   59ccc     C9 2878  -0.339   4.882   9.189 -0.3469  0.0281 -0.3235
   59ccc    H15 2879  -0.247   4.923   9.233 -1.5575  0.6998  1.7122
   59ccc    H16 2880  -0.340   4.773   9.206 -4.0516  0.2411  1.6396
   59ccc    C10 2881  -0.450   4.929   9.275 -0.1923 -0.0061  0.1089
   59ccc     O4 2882  -0.556   4.972   9.231 -0.1876 -0.2752  0.5981
   59ccc    C11 2883   0.445   4.802   9.388  0.1117  0.5148  0.5107
   59ccc    C12 2884   0.446   4.808   9.229 -0.3888  0.1163  0.4773
   59ccc    H17 2885   0.478   4.707   9.431 -1.7475  0.2865  1.5213
   59ccc    C13 2886   0.337   4.716   9.163 -0.1541 -0.6162 -0.2529
   59ccc    C14 2887   0.199   4.732   9.236  0.4086 -0.1655 -0.4558
   59ccc    C15 2888   0.219   4.713   9.390  0.0035 -0.4440 -0.3825
   59ccc    H18 2889   0.154   4.829   9.214  0.4580  0.4635  1.8660
   59ccc    H19 2890   0.369   4.612   9.175  0.3292 -0.4131  0.2696
   59ccc    H20 2891   0.255   4.613   9.415 -1.2423 -0.4735  1.5191
   59ccc     O1 2892   0.105   4.740   9.468  0.4565  0.2521  0.4866
   59ccc     O6 2893   0.318   4.754   9.026 -0.4298 -0.1148 -0.6161
   59ccc    C16 2894   0.525   4.906   9.457  0.3546 -0.1676 -0.7150
   59ccc    H21 2895   0.253   4.690   8.991 -0.6901 -1.9144  2.7185
   59ccc    H22 2896   0.149   4.534   9.190  0.7204 -0.8522 -0.5009
   59ccc    H23 2897   0.621   4.926   9.408 -0.2121  1.8523 -1.0955
   59ccc    H24 2898   0.555   4.887   9.561  2.6267  1.7131 -0.9517
   59ccc     O7 2899   0.454   5.028   9.461 -0.4157 -0.5618  0.6236
   59ccc    H25 2900   0.520   5.095   9.486  0.0287 -1.1275  0.9659
   59ccc     O8 2901   0.305   4.821   9.432 -0.0959  0.5800 -0.1659
   59ccc    H26 2902   0.138   4.731   9.560  0.6659  0.7179  0.4644
   59ccc    H27 2903   0.430   4.912   9.197 -0.3227  0.7391  2.3219
   59ccc     O9 2904   0.575   4.762   9.185 -1.0851 -0.6000  0.0954
   59ccc    H28 2905   0.582   4.772   9.089  0.8368 -1.0729  0.1399
   59ccc     N3 2906   0.117   4.628   9.165  1.0501 -0.4873  0.4149
   59ccc    C17 2907  -0.607   4.950   9.793  0.5105  1.0679  0.1472
   59ccc    C18 2908  -0.559   5.080   9.729 -0.2065 -0.0605 -0.4999
   59ccc    H29 2909  -0.523   4.899   9.841  1.5792  2.0760 -0.6037
   59ccc    C19 2910  -0.465   5.050   9.611 -0.2069 -0.3397 -0.6774
   59ccc    C20 2911  -0.526   4.949   9.514  0.1365 -0.3688 -0.5527
   59ccc    C21 2912  -0.573   4.821   9.590  0.5815  0.2760  0.0783
   59ccc    H30 2913  -0.619   4.993   9.475 -0.8629 -0.9746  1.0556
   59ccc    H31 2914  -0.376   5.008   9.660  0.9929  1.7980 -0.9190
   59ccc    H32 2915  -0.490   4.773   9.643 -0.6487 -0.1928  1.6524
   59ccc    O10 2916  -0.647   4.734   9.507 -0.3693 -0.5642  0.4003
   59ccc    O11 2917  -0.428   5.174   9.544  0.0641 -0.1364 -0.1086
   59ccc    C22 2918  -0.712   4.969   9.908 -0.7929  0.6276  1.0772
   59ccc    H33 2919  -0.350   5.213   9.586 -0.2783 -0.1467  0.5549
   59ccc    H34 2920  -0.342   4.869   9.427 -0.7184 -1.0068 -0.8655
   59ccc    H35 2921  -0.672   5.022   9.995 -0.5457 -0.0398  1.3785
   59ccc    H36 2922  -0.749   4.870   9.938  1.3992 -0.5085  0.2512
   59ccc    O12 2923  -0.819   5.047   9.857 -0.1527  0.3392  0.2649
   59ccc    H37 2924  -0.865   5.006   9.781  0.6153  2.6851 -1.5808
   59ccc    O13 2925  -0.668   4.856   9.697 -0.2182  0.4430  0.4052
   59ccc    H38 2926  -0.607   4.645   9.504 -0.2901 -0.5863 -3.6244
   59ccc    H39 2927  -0.644   5.132   9.683 -0.1267 -0.6809 -1.3752
   59ccc     O5 2928  -0.482   5.170   9.812 -0.4759 -0.3800 -0.2221
   59ccc    H40 2929  -0.528   5.255   9.803  0.7813  0.3962  0.2906
   59ccc     N4 2930  -0.429   4.917   9.404  0.1217  0.7361 -0.5931
   60ccc     N1 2931   1.451   5.585   8.531  0.1202  0.1565  0.3299
   60ccc     H4 2932   1.375   5.527   8.566 -0.8105  1.5231  0.6447
   60ccc     C3 2933   1.594   5.559   8.572 -0.2544 -0.1617 -0.0444
   60ccc     H5 2934   1.641   5.651   8.609 -1.4097  0.5354 -0.2566
   60ccc     C4 2935   1.679   5.504   8.457 -0.4545  0.1666  1.1310
   60ccc     H6 2936   1.594   5.493   8.659  0.2129 -0.2897 -0.1358
   60ccc     H7 2937   1.769   5.455   8.495  0.4465  1.3327  0.5538
   60ccc     H8 2938   1.709   5.578   8.382 -0.3561 -1.6870 -0.7537
   60ccc     N2 2939   1.611   5.395   8.382 -0.2643  0.5136 -0.2193
   60ccc     C5 2940   1.576   5.271   8.457 -0.7853  0.0786 -0.4645
   60ccc     C6 2941   1.506   5.444   8.285  0.6644  0.1632  0.5210
   60ccc     H9 2942   1.410   5.429   8.337  1.7116  0.7086  2.6983
   60ccc     C7 2943   1.511   5.374   8.157  1.0345 -0.0468  0.4977
   60ccc    H10 2944   1.527   5.550   8.266  3.4156 -0.6359 -1.4909
   60ccc    H11 2945   1.468   5.274   8.169  0.4199  0.2655  0.8970
   60ccc    H12 2946   1.608   5.371   8.105 -0.8151  3.1445 -3.6916
   60ccc     C8 2947   1.414   5.428   8.059  0.5982  0.2811 -0.7025
   60ccc     O2 2948   1.309   5.378   8.031 -0.6441 -0.6322 -0.5343
   60ccc    H13 2949   1.539   5.196   8.385 -1.2334  0.8414 -1.0398
   60ccc    H14 2950   1.496   5.287   8.530 -1.3874 -0.9013 -0.8862
   60ccc     C9 2951   1.702   5.212   8.521 -0.2396  0.1854  0.1826
   60ccc    H15 2952   1.745   5.280   8.597 -0.0800 -0.4368  0.6598
   60ccc    H16 2953   1.780   5.192   8.447  0.5509  0.8691  0.8099
   60ccc    C10 2954   1.660   5.083   8.586 -0.3227 -0.4476  0.2923
   60ccc     O4 2955   1.631   5.077   8.705  0.5168  0.3036  0.2506
   60ccc    C11 2956   1.334   5.851   7.749 -0.3077  0.6308  0.9915
   60ccc    C12 2957   1.389   5.727   7.669  0.0927 -0.0909 -0.4508
   60ccc    H17 2958   1.409   5.898   7.814  0.1079 -1.7623  2.3977
   60ccc    C13 2959   1.460   5.630   7.771  0.2519 -0.2941 -0.7879
   60ccc    C14 2960   1.372   5.595   7.887 -0.7804  0.7189 -0.9308
   60ccc    C15 2961   1.303   5.727   7.953  0.1596  0.1654  0.2335
   60ccc    H18 2962   1.296   5.533   7.839 -0.1881 -0.1066 -0.8344
   60ccc    H19 2963   1.556   5.674   7.800  1.1155 -2.4285 -0.2412
   60ccc    H20 2964   1.381   5.791   7.997  2.1237 -0.6992 -1.8420
   60ccc     O1 2965   1.187   5.697   8.038  0.0215  0.3431  0.9543
   60ccc     O6 2966   1.485   5.506   7.706 -0.5074 -0.1303  0.1068
   60ccc    C16 2967   1.259   5.955   7.654  0.4001  0.1583 -0.2795
   60ccc    H21 2968   1.535   5.453   7.771  1.6869  1.7236  0.0864
   60ccc    H22 2969   1.555   5.560   8.006  0.4297  0.0389  0.5561
   60ccc    H23 2970   1.337   6.013   7.603  0.1843  0.5250 -0.1960
   60ccc    H24 2971   1.199   6.009   7.727  0.9916 -3.4829  3.2541
   60ccc     O7 2972   1.196   5.878   7.548 -0.2022  0.0162 -0.2020
   60ccc    H25 2973   1.250   5.798   7.544  0.6121  0.5855 -0.9493
   60ccc     O8 2974   1.239   5.800   7.844  0.6385  0.0921 -0.1549
   60ccc    H26 2975   1.114   5.668   7.979  1.5415 -0.1101 -0.8045
   60ccc    H27 2976   1.302   5.679   7.622 -1.1186  3.2716 -1.9368
   60ccc     O9 2977   1.501   5.773   7.584 -0.1734  0.0096  0.7688
   60ccc    H28 2978   1.541   5.694   7.543 -1.4261 -0.6820  0.8150
   60ccc     N3 2979   1.458   5.533   7.989  0.6436 -0.2929 -0.1855
   60ccc    C17 2980   1.532   4.581   8.475  0.1317  0.4876  0.1139
   60ccc    C18 2981   1.679   4.595   8.449 -0.0191 -0.1683 -0.2462
   60ccc    H29 2982   1.469   4.598   8.386 -2.1673  2.6173  1.9959
   60ccc    C19 2983   1.721   4.743   8.434 -0.7151 -0.1593  0.0277
   60ccc    C20 2984   1.649   4.839   8.535  0.1292  0.3410 -0.0591
   60ccc    C21 2985   1.497   4.813   8.540 -0.1737 -0.2743  0.6747
   60ccc    H30 2986   1.691   4.814   8.634 -2.1637  0.0686  0.9170
   60ccc    H31 2987   1.701   4.779   8.333 -1.4610 -1.2036 -0.2038
   60ccc    H32 2988   1.462   4.844   8.441 -0.0602  1.3250  1.1092
   60ccc    O10 2989   1.430   4.872   8.641  0.1571 -0.1720 -0.7170
   60ccc    O11 2990   1.861   4.757   8.455  0.3006  0.2606 -0.0366
   60ccc    C22 2991   1.491   4.436   8.531 -0.1315  0.1659  0.1299
   60ccc    H33 2992   1.868   4.826   8.523 -0.8019  1.2198 -0.8484
   60ccc    H34 2993   1.659   5.006   8.411 -1.0787  3.0658  1.2496
   60ccc    H35 2994   1.534   4.373   8.453 -1.0105  2.3118 -2.2137
   60ccc    H36 2995   1.382   4.428   8.523 -0.1203  0.1457 -0.0060
   60ccc    O12 2996   1.552   4.396   8.655  0.0360 -0.1966 -0.0021
   60ccc    H37 2997   1.481   4.416   8.719  0.6519  1.1656  0.2979
   60ccc    O13 2998   1.484   4.677   8.576  0.0361  0.4589  0.6461
   60ccc    H38 2999   1.412   4.795   8.697 -1.4407 -0.8382 -2.0522
   60ccc    H39 3000   1.731   4.549   8.534  0.8956  1.9992  0.4613
   60ccc     O5 3001   1.728   4.526   8.333 -0.4374  0.0770 -0.1038
   60ccc    H40 3002   1.824   4.536   8.315 -0.5689  0.0765 -0.8284
   60ccc     N4 3003   1.681   4.979   8.506  0.8899 -0.6127 -0.0497
   61ccc     N1 3004   0.928   6.094   8.794  0.0006  0.1185 -0.6478
   61ccc     H4 3005   0.981   6.015   8.827 -0.3675  0.2834  0.3862
   61ccc     C3 3006   0.906   6.200   8.888  0.6236 -0.1389  0.3022
   61ccc     H5 3007   0.964   6.288   8.858 -1.0893  0.2543 -2.1942
   61ccc     C4 3008   0.942   6.161   9.032 -0.3864 -0.1449 -0.6116
   61ccc     H6 3009   0.803   6.238   8.879  0.6648 -0.0371  0.2498
   61ccc     H7 3010   0.935   6.247   9.099 -2.4612 -0.0035 -0.9628
   61ccc     H8 3011   1.050   6.142   9.017 -0.5837 -0.5894 -1.5380
   61ccc     N2 3012   0.865   6.045   9.091 -0.4631 -0.8567  0.1493
   61ccc     C5 3013   0.930   5.998   9.215 -0.5417 -0.3563 -0.3997
   61ccc     C6 3014   0.728   6.090   9.121  0.0402 -0.6231  0.3004
   61ccc     H9 3015   0.712   6.093   9.230 -2.1658 -2.2554  0.0774
   61ccc     C7 3016   0.632   5.986   9.065  0.0149 -0.3605 -0.4614
   61ccc    H10 3017   0.698   6.186   9.077 -2.2880 -1.7734 -0.7758
   61ccc    H11 3018   0.654   5.889   9.113  0.0411 -0.3887 -0.5302
   61ccc    H12 3019   0.648   5.968   8.958 -0.5849 -1.7042 -0.3520
   61ccc     C8 3020   0.494   6.023   9.112 -0.0004  0.6499  0.0735
   61ccc     O2 3021   0.457   6.008   9.229  0.0267 -0.1636 -0.3109
   61ccc    H13 3022   0.928   6.074   9.294 -0.2465  0.6858 -1.3683
   61ccc    H14 3023   1.035   6.002   9.185 -0.6496 -0.3758 -0.7850
   61ccc     C9 3024   0.878   5.862   9.276  0.6477 -0.2449  0.2617
   61ccc    H15 3025   0.870   5.795   9.190 -0.2375  1.0524 -0.7185
   61ccc    H16 3026   0.785   5.868   9.333  0.3824  1.2190 -0.2869
   61ccc    C10 3027   0.984   5.790   9.356 -0.8043 -0.4414 -0.0818
   61ccc     O4 3028   1.101   5.790   9.320 -0.4676  0.6879 -0.3573
   61ccc    C11 3029   0.036   6.279   9.001 -0.6842 -0.5655  0.3472
   61ccc    C12 3030   0.046   6.140   8.926 -0.3741  0.5074 -0.5087
   61ccc    H17 3031   0.066   6.360   8.934 -1.8478  0.2070  0.7402
   61ccc    C13 3032   0.201   6.118   8.895 -0.4801 -0.2298 -0.1862
   61ccc    C14 3033   0.279   6.117   9.030 -0.6772  0.0003 -0.1613
   61ccc    C15 3034   0.271   6.261   9.093  0.1939 -0.4686 -0.0810
   61ccc    H18 3035   0.232   6.053   9.105 -0.5761 -0.5502 -0.5569
   61ccc    H19 3036   0.233   6.202   8.832 -0.0646  1.2211  1.8643
   61ccc    H20 3037   0.322   6.330   9.026 -0.3573 -0.3152 -0.3501
   61ccc     O1 3038   0.336   6.270   9.223 -0.4247  0.3516  0.1388
   61ccc     O6 3039   0.205   5.984   8.825  0.0418  0.0454  0.0582
   61ccc    C16 3040  -0.111   6.313   9.047 -0.7983  0.3303 -0.4983
   61ccc    H21 3041   0.256   5.985   8.743  0.1458  1.0072  0.1268
   61ccc    H22 3042   0.443   6.064   8.918  1.3379 -2.5129  1.0777
   61ccc    H23 3043  -0.148   6.234   9.114 -1.9217  1.1561 -0.1323
   61ccc    H24 3044  -0.184   6.315   8.966  1.1349 -0.7609 -2.3752
   61ccc     O7 3045  -0.106   6.437   9.108  0.2649 -0.2459 -0.1539
   61ccc    H25 3046  -0.013   6.464   9.117 -0.3230  1.9862 -0.0348
   61ccc     O8 3047   0.128   6.286   9.112  0.1911 -0.3252  0.1807
   61ccc    H26 3048   0.372   6.181   9.236  0.0719  0.7318  1.4658
   61ccc    H27 3049   0.024   6.059   8.996  0.7474  1.4453  0.9993
   61ccc     O9 3050  -0.037   6.135   8.811 -0.4522 -0.0572  0.4708
   61ccc    H28 3051  -0.028   6.040   8.791 -1.2160 -0.6304  2.5440
   61ccc     N3 3052   0.414   6.069   9.015  0.0212 -0.0106  0.6609
   61ccc    C17 3053   0.596   5.515   9.620  0.3598  0.0020  0.3950
   61ccc    C18 3054   0.694   5.601   9.711 -0.2997 -0.1454  0.5130
   61ccc    H29 3055   0.622   5.408   9.622  1.1789  0.1509 -0.8782
   61ccc    C19 3056   0.839   5.628   9.661  0.6602  0.5963  0.0493
   61ccc    C20 3057   0.826   5.672   9.511  0.3444 -0.4441  0.6652
   61ccc    C21 3058   0.749   5.565   9.431 -0.2400 -0.3580 -0.4085
   61ccc    H30 3059   0.754   5.754   9.521  0.0461 -0.7911  1.5299
   61ccc    H31 3060   0.900   5.538   9.672  0.2340 -0.0334 -2.1102
   61ccc    H32 3061   0.795   5.466   9.445 -3.8674 -1.9059  2.1543
   61ccc    O10 3062   0.734   5.600   9.294 -0.1811 -0.0728  0.2184
   61ccc    O11 3063   0.893   5.731   9.745 -0.1967  0.2489 -0.0288
   61ccc    C22 3064   0.448   5.537   9.662 -0.4228 -0.7200  0.1691
   61ccc    H33 3065   0.983   5.701   9.766  0.1399  1.3087  0.0878
   61ccc    H34 3066   1.032   5.650   9.490 -1.7659 -1.3885  0.9528
   61ccc    H35 3067   0.411   5.630   9.618  1.4412 -0.0360 -0.0306
   61ccc    H36 3068   0.434   5.534   9.770  1.1060  0.5737  0.4406
   61ccc    O12 3069   0.373   5.420   9.612 -0.7429 -0.4754 -0.0101
   61ccc    H37 3070   0.398   5.404   9.519 -0.2520 -1.2979  0.2515
   61ccc    O13 3071   0.616   5.571   9.480 -0.3056  0.5599  0.5943
   61ccc    H38 3072   0.649   5.565   9.261 -0.3898  0.9354 -0.3389
   61ccc    H39 3073   0.647   5.699   9.724  1.1447  0.8122 -1.0625
   61ccc     O5 3074   0.702   5.537   9.841 -0.2316  0.3254  0.2881
   61ccc    H40 3075   0.746   5.605   9.895  0.7762  1.0075 -1.3041
   61ccc     N4 3076   0.960   5.716   9.462  0.1157  0.1724 -0.5154
   62SOL     OW 3077   3.957   1.932   7.361 -0.0107  0.3221 -0.3155
   62SOL    HW1 3078   3.943   1.855   7.416 -0.1684 -0.7272 -1.7490
   62SOL    HW2 3079   4.052   1.945   7.363 -0.1187  1.1170  1.2122
   63SOL     OW 3080   5.137   6.742   1.691  0.5754 -0.3426 -0.4897
   63SOL    HW1 3081   5.107   6.653   1.670 -2.0258  0.2972  0.1458
   63SOL    HW2 3082   5.103   6.796   1.620 -3.3595  0.9681  2.0946
   64SOL     OW 3083   4.852   4.507   1.589 -0.6283 -0.1348  0.0180
   64SOL    HW1 3084   4.775   4.525   1.642 -1.3617 -0.0022 -1.0507
   64SOL    HW2 3085   4.819   4.453   1.517  0.4016 -0.6097 -0.1167
   65SOL     OW 3086   6.786   7.904   1.237 -0.1780  0.8382  0.1544
   65SOL    HW1 3087   6.875   7.924   1.209 -1.0184  2.4430 -1.6281
   65SOL    HW2 3088   6.797   7.848   1.314  2.3299 -0.3766 -0.9722
   66SOL     OW 3089   4.352   3.810   6.609 -0.2238  0.3268 -0.3496
   66SOL    HW1 3090   4.275   3.780   6.657 -0.7558 -0.1040 -1.4233
   66SOL    HW2 3091   4.426   3.766   6.651 -0.4332  1.4952  1.3092
   67SOL     OW 3092   6.230   0.496   3.639  0.1662  0.4718  0.1893
   67SOL    HW1 3093   6.203   0.531   3.554  0.7989 -1.0464 -0.6878
   67SOL    HW2 3094   6.324   0.511   3.643  0.0050  1.3638  1.0609
   68SOL     OW 3095   8.040   5.756   1.782 -0.0059 -0.5022  0.0437
   68SOL    HW1 3096   8.012   5.841   1.816 -2.0461 -0.8791 -0.5720
   68SOL    HW2 3097   8.030   5.763   1.687 -0.6338 -1.5443  0.0163
   69SOL     OW 3098   0.813   1.839   2.320 -0.5871 -0.0630  0.0299
   69SOL    HW1 3099   0.853   1.924   2.341 -0.3576 -0.1799  0.0675
   69SOL    HW2 3100   0.887   1.784   2.293 -0.3402 -0.9976  2.3232
   70SOL     OW 3101   4.220   5.206   2.923 -0.2168  0.1594 -0.1174
   70SOL    HW1 3102   4.245   5.164   2.841 -2.0692  1.0220 -1.1989
   70SOL    HW2 3103   4.245   5.298   2.911  2.9540 -0.3096  1.8523
   71SOL     OW 3104   2.488   4.875   8.405  0.4109 -0.2473 -0.9945
   71SOL    HW1 3105   2.510   4.895   8.496 -1.3713  0.4159 -0.6678
   71SOL    HW2 3106   2.495   4.779   8.399 -0.4887 -0.4051  0.1502
   72SOL     OW 3107   3.042   5.389   0.151  0.3708  0.3396 -0.8728
   72SOL    HW1 3108   3.080   5.391   0.239 -0.7421  1.5168 -0.3892
   72SOL    HW2 3109   3.007   5.300   0.142  0.6879  0.1397 -0.2168
   73SOL     OW 3110   4.913   4.262   3.066 -0.3458 -0.1609  1.0716
   73SOL    HW1 3111   4.997   4.304   3.085 -0.6529  0.5340  0.9210
   73SOL    HW2 3112   4.868   4.324   3.009  0.0479 -1.6463 -0.9244
   74SOL     OW 3113   9.147   2.296   4.553  0.3949 -0.4403 -0.2029
   74SOL    HW1 3114   9.117   2.365   4.611  1.9916 -0.7715  1.1003
   74SOL    HW2 3115   9.110   2.318   4.468  0.0939  1.4722  0.3795
   75SOL     OW 3116   3.600   6.112   3.828  0.1843 -0.1021  0.3386
   75SOL    HW1 3117   3.620   6.204   3.843 -0.2104  0.0514 -0.0509
   75SOL    HW2 3118   3.650   6.090   3.749 -1.1359  0.2780 -0.6290
   76SOL     OW 3119   6.669   8.175   4.903 -0.1023 -0.1781  0.2898
   76SOL    HW1 3120   6.649   8.089   4.939  0.7205 -0.5571 -0.1296
   76SOL    HW2 3121   6.590   8.200   4.854 -0.4504 -0.5626  0.6499
   77SOL     OW 3122   2.248   5.631   2.104 -0.1138 -0.6716  0.4228
   77SOL    HW1 3123   2.327   5.586   2.131 -0.5478 -2.0750 -0.5553
   77SOL    HW2 3124   2.182   5.562   2.097 -0.7423  0.0556 -1.3711
   78SOL     OW 3125   1.470   7.731   0.699 -0.0296  0.0057 -0.4404
   78SOL    HW1 3126   1.523   7.726   0.779 -0.6625  1.0553  0.0603
   78SOL    HW2 3127   1.504   7.660   0.644  1.6908  0.4461 -0.0106
   79SOL     OW 3128   0.374   2.462   1.888 -0.4268 -0.2253  0.4812
   79SOL    HW1 3129   0.296   2.412   1.863 -0.3141 -1.2987  2.1437
   79SOL    HW2 3130   0.365   2.545   1.841 -1.5547 -1.0897 -0.9060
   80SOL     OW 3131   8.588   0.070   7.066  0.1746 -0.8063 -0.1461
   80SOL    HW1 3132   8.653   0.085   6.997 -0.5097 -1.4632 -0.9437
   80SOL    HW2 3133   8.504   0.077   7.022 -0.3169 -0.0396  0.8743
   81SOL     OW 3134   8.833   9.223   2.278  0.0058  0.0528  0.5421
   81SOL    HW1 3135   8.791   9.138   2.277  1.6326 -0.7788 -0.6402
   81SOL    HW2 3136   8.764   9.285   2.253 -0.4049 -1.3405 -2.1055
   82SOL     OW 3137   0.195   0.525   8.102  0.0067  0.6500  0.2460
   82SOL    HW1 3138   0.181   0.468   8.026 -0.1502  1.1148 -0.0816
   82SOL    HW2 3139   0.108   0.560   8.122  0.2102  1.2883  0.0245
   83SOL     OW 3140   7.675   5.921   3.535 -0.1282 -0.1354  0.1160
   83SOL    HW1 3141   7.690   5.842   3.586 -1.1567 -1.3129 -1.3209
   83SOL    HW2 3142   7.580   5.935   3.540 -0.2695 -0.3445 -1.5081
   84SOL     OW 3143   2.155   1.996   8.606  0.1416  0.6406  0.6579
   84SOL    HW1 3144   2.103   1.982   8.685  0.4480  0.9304  0.9137
   84SOL    HW2 3145   2.222   1.927   8.609 -1.5406 -1.1881 -0.8259
   85SOL     OW 3146   1.541   0.701   5.071 -0.0383  0.2781  0.6524
   85SOL    HW1 3147   1.490   0.633   5.027  0.9697  0.1972 -0.4336
   85SOL    HW2 3148   1.623   0.657   5.096 -0.1515  0.6097  1.6580
   86SOL     OW 3149   7.441   2.048   7.858 -0.3566 -0.6826 -0.0819
   86SOL    HW1 3150   7.476   2.084   7.776 -0.7840 -1.7685 -0.7691
   86SOL    HW2 3151   7.368   1.992   7.830  1.5314 -3.7662  0.6508
   87SOL     OW 3152   5.597   7.817   3.518  0.0693 -0.7776 -0.0041
   87SOL    HW1 3153   5.563   7.738   3.561  2.2267 -2.4017 -1.1180
   87SOL    HW2 3154   5.612   7.791   3.428 -2.5893  2.0331 -1.4433
   88SOL     OW 3155   4.665   4.499   3.251 -0.2142  0.2459 -0.1880
   88SOL    HW1 3156   4.591   4.557   3.267  2.5042  3.2954  2.7014
   88SOL    HW2 3157   4.675   4.449   3.332  1.1831  0.3223 -0.2807
   89SOL     OW 3158   0.603   5.917   8.238  0.9420 -0.3986 -0.4881
   89SOL    HW1 3159   0.617   6.010   8.256 -0.3144 -0.3061  0.1713
   89SOL    HW2 3160   0.582   5.879   8.324 -0.7222 -0.8474 -1.0421
   90SOL     OW 3161   0.767   2.419   2.149  0.0464 -0.6826 -0.3099
   90SOL    HW1 3162   0.714   2.470   2.211 -0.2867 -1.3451 -0.0441
   90SOL    HW2 3163   0.702   2.376   2.093  0.3409 -0.3260 -0.9311
   91SOL     OW 3164   0.652   3.351   7.134 -0.1650  0.0495  0.1516
   91SOL    HW1 3165   0.679   3.292   7.064  0.8960 -0.8835  1.3132
   91SOL    HW2 3166   0.627   3.432   7.089  0.9199 -0.3774 -1.2645
   92SOL     OW 3167   7.108   8.449   1.822 -0.0505 -0.1633 -0.1995
   92SOL    HW1 3168   7.030   8.493   1.857  0.2465  1.0423 -0.9803
   92SOL    HW2 3169   7.178   8.513   1.834  0.4723 -0.5595 -1.0579
   93SOL     OW 3170   8.126   1.395   2.527  0.1622 -0.0708 -0.0965
   93SOL    HW1 3171   8.164   1.479   2.553 -0.8097 -0.1229  1.6351
   93SOL    HW2 3172   8.129   1.396   2.431  1.6964  1.2063 -0.0738
   94SOL     OW 3173   5.830   5.830   3.443  0.1920 -0.0028 -0.0662
   94SOL    HW1 3174   5.809   5.749   3.489 -0.6210 -0.0095 -0.4245
   94SOL    HW2 3175   5.865   5.801   3.358  0.7743  0.0185  0.1622
   95SOL     OW 3176   4.290   7.078   5.463  0.1334  0.9125 -0.1513
   95SOL    HW1 3177   4.199   7.054   5.442  0.3810  0.5722 -0.8672
   95SOL    HW2 3178   4.304   7.044   5.551 -0.3938  0.8505 -0.0877
   96SOL     OW 3179   4.536   6.492   7.176  0.5823  0.0759 -0.3600
   96SOL    HW1 3180   4.575   6.415   7.137  1.5834  0.2036  0.3476
   96SOL    HW2 3181   4.610   6.543   7.208 -0.0824  1.1318 -0.4468
   97SOL     OW 3182   8.851   7.943   1.313 -0.3399 -0.1960  0.7439
   97SOL    HW1 3183   8.901   8.013   1.271  1.8305 -1.0563  1.7458
   97SOL    HW2 3184   8.768   7.985   1.338  0.2760  1.5890 -0.0370
   98SOL     OW 3185   8.978   8.086   2.184  0.7534 -0.1752  0.0446
   98SOL    HW1 3186   8.971   8.139   2.105  0.6058 -0.4864 -0.1538
   98SOL    HW2 3187   8.890   8.051   2.198  0.4352  0.9665  1.1226
   99SOL     OW 3188   4.232   7.082   4.364  0.0620  0.1710  0.4504
   99SOL    HW1 3189   4.273   7.128   4.436  0.6318  1.4764 -0.6593
   99SOL    HW2 3190   4.263   7.127   4.285 -0.6954 -1.0633 -0.6105
  100SOL     OW 3191   9.032   0.542   1.195 -0.7836  0.2436 -0.5445
  100SOL    HW1 3192   9.047   0.633   1.167 -2.8080  0.8283  0.0461
  100SOL    HW2 3193   9.087   0.531   1.272 -0.4883  0.9758 -0.6385
  101SOL     OW 3194   2.124   5.143   4.950 -0.0809  0.6440 -0.1620
  101SOL    HW1 3195   2.204   5.141   4.896  0.1098 -0.5878  0.1401
  101SOL    HW2 3196   2.098   5.235   4.951  0.0539  0.7536 -2.1608
  102SOL     OW 3197   8.946   2.719   3.157 -0.3717  0.0183  0.4296
  102SOL    HW1 3198   8.931   2.754   3.245 -0.9772  1.7232 -0.3023
  102SOL    HW2 3199   9.020   2.769   3.124  0.3278 -1.1317  0.2136
  103SOL     OW 3200   1.162   3.611   6.251 -0.0267 -0.1075 -0.2694
  103SOL    HW1 3201   1.124   3.636   6.167  1.4611  0.8563 -0.7074
  103SOL    HW2 3202   1.110   3.659   6.316  0.8238  1.7635 -0.8962
  104SOL     OW 3203   0.492   0.249   0.235 -0.1946 -0.4528 -0.2286
  104SOL    HW1 3204   0.500   0.161   0.272 -0.7569  0.5032  2.4159
  104SOL    HW2 3205   0.398   0.267   0.235 -0.0789  0.1840 -0.6294
  105SOL     OW 3206   2.655   9.053   0.545 -0.4893  0.4454 -0.0040
  105SOL    HW1 3207   2.677   8.962   0.565  0.0102  0.2034 -1.5968
  105SOL    HW2 3208   2.600   9.048   0.467  0.2710  1.5578 -0.6326
  106SOL     OW 3209   3.541   0.748   5.315  0.2512  0.6901  0.0023
  106SOL    HW1 3210   3.581   0.731   5.400 -0.2510 -1.3459 -0.1091
  106SOL    HW2 3211   3.609   0.729   5.251 -0.7812 -3.2303 -0.2097
  107SOL     OW 3212   8.774   2.728   6.826  0.1764 -0.1331  0.0251
  107SOL    HW1 3213   8.806   2.640   6.804  2.7455  1.0744 -1.5558
  107SOL    HW2 3214   8.823   2.751   6.905 -0.2302  0.0066  0.2349
  108SOL     OW 3215   6.385   9.129   0.544 -0.8256  0.0514 -1.0832
  108SOL    HW1 3216   6.386   9.194   0.474 -0.2496  0.6847 -0.4977
  108SOL    HW2 3217   6.433   9.054   0.509  1.0710  1.0591 -0.7198
  109SOL     OW 3218   6.704   2.830   6.466  0.4770  0.2703 -0.9625
  109SOL    HW1 3219   6.621   2.863   6.500  0.7173 -1.0621  1.0711
  109SOL    HW2 3220   6.769   2.893   6.496  0.3459  0.8680 -1.8602
  110SOL     OW 3221   5.882   7.720   7.800  0.4118 -0.2148  0.1064
  110SOL    HW1 3222   5.953   7.713   7.864  0.7863  0.4001 -0.2291
  110SOL    HW2 3223   5.902   7.800   7.751 -0.6714  0.1375  0.2002
  111SOL     OW 3224   9.018   2.255   5.212 -0.1683 -0.0188  0.1099
  111SOL    HW1 3225   8.991   2.306   5.288  0.0241 -0.2202  0.3152
  111SOL    HW2 3226   8.937   2.244   5.161 -0.1839  0.5966 -0.0060
  112SOL     OW 3227   5.889   2.098   8.695 -0.2103  0.3653 -0.2416
  112SOL    HW1 3228   5.948   2.029   8.664  0.1531  0.9351 -0.8253
  112SOL    HW2 3229   5.855   2.139   8.616 -0.8095  0.5369  0.1010
  113SOL     OW 3230   7.479   3.958   1.904 -0.2131  0.0904 -0.1458
  113SOL    HW1 3231   7.425   3.881   1.919  0.9963 -0.4367  1.9584
  113SOL    HW2 3232   7.531   3.936   1.826 -0.3224 -0.9628  0.0673
  114SOL     OW 3233   0.986   7.785   0.777 -0.4452  0.4116 -0.0306
  114SOL    HW1 3234   1.080   7.799   0.790  0.0762 -1.4691 -1.4205
  114SOL    HW2 3235   0.945   7.837   0.846  1.6145  0.9862  0.8483
  115SOL     OW 3236   3.078   1.431   8.672  0.2232  0.5756  0.6627
  115SOL    HW1 3237   3.058   1.386   8.591 -0.5934 -1.8038  2.0768
  115SOL    HW2 3238   2.997   1.476   8.696 -0.1770 -0.3918  1.1505
  116SOL     OW 3239   8.400   4.647   3.331  0.0318 -0.1399 -0.1483
  116SOL    HW1 3240   8.425   4.556   3.316  0.8626  0.1966 -0.9295
  116SOL    HW2 3241   8.483   4.691   3.348 -0.5930 -0.1773  4.2569
  117SOL     OW 3242   1.924   2.931   4.915  0.3141 -0.4517  0.0104
  117SOL    HW1 3243   1.841   2.885   4.926 -0.5159  0.8486 -0.6156
  117SOL    HW2 3244   1.912   3.014   4.962  1.7189 -0.7490  0.9819
  118SOL     OW 3245   0.187   6.468   3.584  0.3981  0.1889 -0.0668
  118SOL    HW1 3246   0.218   6.407   3.516 -1.0372 -0.5735 -0.0609
  118SOL    HW2 3247   0.207   6.424   3.666 -0.6257 -0.2829 -0.0623
  119SOL     OW 3248   9.043   1.986   3.148  0.2993 -0.6050 -0.3340
  119SOL    HW1 3249   9.004   2.070   3.126  0.1480 -0.9642 -1.5071
  119SOL    HW2 3250   9.114   2.008   3.208 -1.4031  0.0924  1.5330
  120SOL     OW 3251   5.451   0.634   6.735  0.4440  0.5040  0.3069
  120SOL    HW1 3252   5.467   0.550   6.777  0.5731  0.1511 -0.4228
  120SOL    HW2 3253   5.536   0.678   6.734  0.9485 -0.3989 -1.4913
  121SOL     OW 3254   5.070   1.853   0.222  0.1959  0.2217 -0.1498
  121SOL    HW1 3255   5.079   1.759   0.210 -1.1735 -0.0908  1.0663
  121SOL    HW2 3256   5.112   1.891   0.144  0.8858 -1.3620 -0.5887
  122SOL     OW 3257   8.234   4.304   2.709  0.0998 -0.0859  0.2090
  122SOL    HW1 3258   8.198   4.375   2.654 -3.3095 -0.6477  1.4483
  122SOL    HW2 3259   8.249   4.232   2.648 -0.8404  0.2346 -0.4268
  123SOL     OW 3260   5.709   7.033   2.928  0.2352 -0.1168  0.0201
  123SOL    HW1 3261   5.663   6.956   2.895  0.0526  0.0153 -0.0380
  123SOL    HW2 3262   5.692   7.033   3.022 -0.6771  0.4480 -0.1267
  124SOL     OW 3263   0.755   7.684   0.576 -0.0383 -0.1956 -0.2418
  124SOL    HW1 3264   0.678   7.713   0.526  0.4625  0.1349 -0.8263
  124SOL    HW2 3265   0.829   7.725   0.533  0.5106 -0.8195  0.0896
  125SOL     OW 3266   6.686   2.311   7.381 -0.7185  0.4917  0.2940
  125SOL    HW1 3267   6.600   2.308   7.339 -0.8416  0.3707  0.5527
  125SOL    HW2 3268   6.674   2.263   7.463 -0.1197 -0.5204 -0.1897
  126SOL     OW 3269   5.548   0.241   8.306 -0.2457 -0.2816  0.2856
  126SOL    HW1 3270   5.467   0.207   8.270 -1.2940 -0.4847  2.6393
  126SOL    HW2 3271   5.521   0.319   8.355  1.0608 -0.0399  0.6603
  127SOL     OW 3272   4.170   1.464   7.929  0.0802 -0.0509  0.2583
  127SOL    HW1 3273   4.129   1.521   7.863  1.5204  1.0840  0.2980
  127SOL    HW2 3274   4.105   1.395   7.944 -0.1661 -0.5874 -2.6264
  128SOL     OW 3275   0.223   6.430   1.955 -0.5845  0.4164 -0.0409
  128SOL    HW1 3276   0.296   6.464   1.903 -0.4282 -2.2873 -1.7610
  128SOL    HW2 3277   0.146   6.449   1.902 -0.5635 -1.1461 -0.6770
  129SOL     OW 3278   0.204   4.191   8.886 -1.2676 -0.6343  0.9443
  129SOL    HW1 3279   0.193   4.242   8.805  0.9874 -1.2771  0.1597
  129SOL    HW2 3280   0.156   4.110   8.869 -0.5788 -0.8845  0.0999
  130SOL     OW 3281   5.581   6.388   6.608  0.6438 -0.0432  0.1053
  130SOL    HW1 3282   5.617   6.315   6.659 -0.0151  0.3451  1.1516
  130SOL    HW2 3283   5.618   6.466   6.649 -0.4031  0.3063  0.3994
  131SOL     OW 3284   9.170   6.243   5.511  0.1964 -0.1428 -0.8624
  131SOL    HW1 3285   9.155   6.321   5.458  0.2562 -0.4850 -1.3901
  131SOL    HW2 3286   9.236   6.270   5.574 -0.4999  0.5221 -0.3938
  132SOL     OW 3287   3.126   1.166   4.065 -0.0338 -0.2946  0.4218
  132SOL    HW1 3288   3.102   1.259   4.069 -1.4426 -0.6698  1.2766
  132SOL    HW2 3289   3.168   1.148   4.149  1.4879 -0.1421 -0.2675
  133SOL     OW 3290   1.213   8.615   6.529 -0.2436 -0.4148  0.0531
  133SOL    HW1 3291   1.301   8.579   6.515 -0.5223 -0.7993 -0.7670
  133SOL    HW2 3292   1.177   8.624   6.441 -0.0213  2.3108  0.1335
  134SOL     OW 3293   3.557   2.036   1.731 -0.1331  0.2533  0.1180
  134SOL    HW1 3294   3.494   1.968   1.749 -0.7622  1.0091  0.8689
  134SOL    HW2 3295   3.631   1.991   1.690 -0.0378 -1.0605  1.6345
  135SOL     OW 3296   0.193   7.075   6.530 -0.7115  0.9148 -0.2599
  135SOL    HW1 3297   0.247   7.106   6.603 -0.6307 -1.2955  0.7069
  135SOL    HW2 3298   0.105   7.107   6.551 -0.4469  1.4557  0.0700
  136SOL     OW 3299   8.880   2.802   4.383 -0.0138 -0.2007 -0.0818
  136SOL    HW1 3300   8.912   2.780   4.470 -1.1161  0.0560  0.3949
  136SOL    HW2 3301   8.819   2.732   4.361  2.6634 -2.1511 -2.0774
  137SOL     OW 3302   4.914   6.279   3.747 -0.3713 -0.3164 -0.1143
  137SOL    HW1 3303   5.009   6.271   3.758 -0.4995 -0.7994  0.6710
  137SOL    HW2 3304   4.903   6.361   3.697  0.4103  0.1861  0.5110
  138SOL     OW 3305   5.786   2.585   0.395 -0.0661 -0.0330  0.8667
  138SOL    HW1 3306   5.860   2.603   0.453  0.9469  0.6365 -0.5612
  138SOL    HW2 3307   5.826   2.563   0.311 -1.4819 -1.2217  0.4575
  139SOL     OW 3308   1.673   1.241   4.615  0.5070 -0.3530  0.0882
  139SOL    HW1 3309   1.601   1.180   4.599 -1.6105  2.6069 -3.0354
  139SOL    HW2 3310   1.739   1.220   4.549  0.7324 -0.5154  0.3591
  140SOL     OW 3311   4.344   4.783   4.683 -0.3391  0.2473  0.1272
  140SOL    HW1 3312   4.428   4.737   4.682 -0.7710 -0.5548 -0.1518
  140SOL    HW2 3313   4.331   4.811   4.593 -0.3505  0.4123  0.1797
  141SOL     OW 3314   8.196   0.774   5.049  0.1600 -0.0895 -0.0397
  141SOL    HW1 3315   8.174   0.785   4.957  0.7654  1.2885 -0.0443
  141SOL    HW2 3316   8.195   0.863   5.085  3.4036 -0.1279  0.4649
  142SOL     OW 3317   6.808   5.640   6.004  0.0678  0.0459  0.5298
  142SOL    HW1 3318   6.714   5.656   6.011 -0.2359 -1.0487 -0.7185
  142SOL    HW2 3319   6.828   5.653   5.911  0.1928 -4.2921 -0.2491
  143SOL     OW 3320   3.893   7.425   7.512  0.4211 -0.0857 -0.3297
  143SOL    HW1 3321   3.931   7.474   7.586  2.1679 -1.2063 -0.4211
  143SOL    HW2 3322   3.873   7.492   7.447  1.6739  0.6490  0.0035
  144SOL     OW 3323   1.582   6.528   9.016  0.2242 -0.0675 -0.2106
  144SOL    HW1 3324   1.630   6.446   9.008  1.0697  0.3542  0.4111
  144SOL    HW2 3325   1.498   6.503   9.055  0.8500 -0.5199  0.8796
  145SOL     OW 3326   7.664   5.094   0.517  0.0148  0.0776 -0.1958
  145SOL    HW1 3327   7.758   5.100   0.531  0.3092 -0.2226 -1.8389
  145SOL    HW2 3328   7.641   5.177   0.474 -0.7510  0.7759  1.4885
  146SOL     OW 3329   6.000   2.353   6.958 -0.0532  0.1430 -0.6895
  146SOL    HW1 3330   5.924   2.358   7.016  0.2516 -1.6868 -0.0766
  146SOL    HW2 3331   6.032   2.443   6.952 -1.4570  0.7215  0.1166
  147SOL     OW 3332   6.976   5.585   4.273 -0.2597 -0.1042  0.1682
  147SOL    HW1 3333   7.037   5.515   4.297  0.7201  0.8355  0.4915
  147SOL    HW2 3334   6.899   5.570   4.327 -0.0189 -0.8682  0.3051
  148SOL     OW 3335   8.300   6.202   5.898  0.2720  0.5915 -0.2710
  148SOL    HW1 3336   8.298   6.281   5.845  0.9061  1.5098  1.0255
  148SOL    HW2 3337   8.308   6.131   5.834 -1.5889  1.4395 -1.5404
  149SOL     OW 3338   1.902   2.140   2.835  0.0139 -0.1519 -0.2060
  149SOL    HW1 3339   1.935   2.203   2.771  0.3637  0.6554  0.7272
  149SOL    HW2 3340   1.977   2.086   2.857  0.3151  0.6005  0.6771
  150SOL     OW 3341   3.645   5.988   3.187 -0.0109  0.1169 -0.4864
  150SOL    HW1 3342   3.706   6.028   3.125 -0.8490 -0.0507 -1.4475
  150SOL    HW2 3343   3.617   5.907   3.144  0.9052 -1.0402  0.9928
  151SOL     OW 3344   3.497   4.514   3.519 -0.2590 -0.1415 -0.1647
  151SOL    HW1 3345   3.402   4.507   3.528 -0.0970 -0.7578  1.3440
  151SOL    HW2 3346   3.512   4.603   3.487 -1.3655 -0.2406 -1.0173
  152SOL     OW 3347   1.230   0.658   3.856  0.5346 -0.2991 -0.1693
  152SOL    HW1 3348   1.287   0.582   3.865 -0.2392 -0.8270  0.3939
  152SOL    HW2 3349   1.235   0.680   3.763  1.1173 -0.7614 -0.2557
  153SOL     OW 3350   4.756   8.507   2.848  0.0902  0.0944  0.0562
  153SOL    HW1 3351   4.774   8.595   2.814 -0.8785  0.7360  1.1385
  153SOL    HW2 3352   4.797   8.506   2.934  1.0147 -0.9066 -0.3746
  154SOL     OW 3353   5.836   1.494   3.372  0.4068  0.2306  1.1201
  154SOL    HW1 3354   5.896   1.468   3.442  0.9220 -0.5258  0.4122
  154SOL    HW2 3355   5.845   1.589   3.367  4.4476 -0.0655 -1.4732
  155SOL     OW 3356   7.189   3.389   6.823 -0.0759  0.2829  0.1256
  155SOL    HW1 3357   7.105   3.361   6.860 -0.8213 -1.8647 -2.8208
  155SOL    HW2 3358   7.255   3.341   6.874 -0.8252 -0.0007  0.8398
  156SOL     OW 3359   7.411   5.665   2.382  0.5502 -0.0671 -0.9087
  156SOL    HW1 3360   7.456   5.671   2.298 -0.0807 -1.1631 -1.3439
  156SOL    HW2 3361   7.451   5.734   2.435  2.9484 -1.1672 -1.1561
  157SOL     OW 3362   5.375   0.738   7.912  0.4723 -0.6977 -0.1855
  157SOL    HW1 3363   5.370   0.657   7.860 -1.4581 -0.5415 -0.3261
  157SOL    HW2 3364   5.336   0.715   7.996 -1.1311  0.3173 -0.6008
  158SOL     OW 3365   3.773   3.576   4.849  0.0966  0.0979  0.3447
  158SOL    HW1 3366   3.750   3.555   4.939  0.9172 -0.8767  0.3385
  158SOL    HW2 3367   3.864   3.546   4.839  0.5236  1.5404 -0.3736
  159SOL     OW 3368   0.659   6.338   3.829 -0.0167 -0.3315  0.3282
  159SOL    HW1 3369   0.653   6.427   3.795  2.2188 -0.2765 -0.0922
  159SOL    HW2 3370   0.635   6.346   3.922 -0.9150  0.4884  0.0343
  160SOL     OW 3371   5.584   8.069   0.417  0.3897 -0.6039  0.1559
  160SOL    HW1 3372   5.642   8.011   0.466  0.0164 -0.3965  0.8622
  160SOL    HW2 3373   5.516   8.011   0.382 -0.0791 -0.5815  1.0059
  161SOL     OW 3374   4.595   2.048   8.143  0.0842 -0.3834 -0.0780
  161SOL    HW1 3375   4.552   2.104   8.080 -0.6870 -1.7029 -0.7741
  161SOL    HW2 3376   4.550   2.064   8.226  0.2714  0.4360 -0.1317
  162SOL     OW 3377   5.163   1.567   3.296 -0.3529  0.3893 -0.3704
  162SOL    HW1 3378   5.252   1.536   3.278 -0.0479  1.1783 -0.2485
  162SOL    HW2 3379   5.107   1.511   3.243  0.2324  0.0300 -0.6216
  163SOL     OW 3380   8.639   4.770   3.298  0.0590 -0.7233  0.6514
  163SOL    HW1 3381   8.605   4.846   3.344 -0.5900 -1.2945  1.1381
  163SOL    HW2 3382   8.721   4.799   3.260 -0.0969  0.1637  0.9875
  164SOL     OW 3383   8.093   5.496   5.668  0.9862 -0.1874  0.0889
  164SOL    HW1 3384   8.028   5.499   5.737  0.7332 -1.1882 -0.0812
  164SOL    HW2 3385   8.118   5.403   5.663 -0.0643 -0.4083 -2.1177
  165SOL     OW 3386   8.451   2.620   0.957 -0.2108  0.1796 -0.1233
  165SOL    HW1 3387   8.487   2.681   0.893 -1.0592 -0.4466 -1.2406
  165SOL    HW2 3388   8.518   2.613   1.024  0.1861  1.8168 -0.3106
  166SOL     OW 3389   2.464   2.866   1.608  0.0764  0.2748  0.0508
  166SOL    HW1 3390   2.449   2.905   1.694 -0.8723 -0.1229  0.0890
  166SOL    HW2 3391   2.499   2.779   1.627  0.0969  0.2791  0.0328
  167SOL     OW 3392   8.522   7.988   0.681 -0.3424 -0.4541  0.3396
  167SOL    HW1 3393   8.582   7.948   0.618 -0.8399  0.1308 -0.5177
  167SOL    HW2 3394   8.538   8.082   0.673 -0.7480 -0.3467  0.7417
  168SOL     OW 3395   5.391   0.580   3.640 -0.3966  0.2606 -0.0154
  168SOL    HW1 3396   5.374   0.607   3.731 -0.1593 -0.5595  0.2742
  168SOL    HW2 3397   5.384   0.662   3.590 -0.9226  0.6600  0.6817
  169SOL     OW 3398   4.678   4.714   0.240 -0.1947  0.7919  0.6335
  169SOL    HW1 3399   4.755   4.757   0.277  0.3353  0.1949  0.2374
  169SOL    HW2 3400   4.705   4.623   0.226 -1.5319  0.1015  2.1721
  170SOL     OW 3401   3.638   8.820   8.710 -0.3028  0.0193 -0.1868
  170SOL    HW1 3402   3.723   8.811   8.752 -0.4304 -1.7881 -0.2583
  170SOL    HW2 3403   3.649   8.780   8.624 -1.3089 -0.5433 -0.0689
  171SOL     OW 3404   5.964   6.889   3.642  0.2350  0.1750 -0.0785
  171SOL    HW1 3405   6.021   6.837   3.585  0.2626  1.1519 -0.9886
  171SOL    HW2 3406   5.930   6.827   3.706  0.0234 -1.0292 -1.3037
  172SOL     OW 3407   8.273   7.379   6.510  0.0692  0.2199  0.6315
  172SOL    HW1 3408   8.341   7.321   6.476  1.7419  0.6495  2.9736
  172SOL    HW2 3409   8.245   7.431   6.435  1.0482 -1.1920 -0.7679
  173SOL     OW 3410   6.277   2.383   5.290 -0.8620 -0.5914  0.2430
  173SOL    HW1 3411   6.214   2.313   5.274 -1.5570  0.5540 -2.5246
  173SOL    HW2 3412   6.224   2.459   5.313 -0.1571 -0.6622  2.3672
  174SOL     OW 3413   7.238   5.714   1.217  0.7327  0.0115 -0.2945
  174SOL    HW1 3414   7.251   5.671   1.133  0.3115 -1.2596  0.2574
  174SOL    HW2 3415   7.148   5.745   1.214 -0.2302 -2.4079  0.6388
  175SOL     OW 3416   4.501   0.439   7.982 -0.2203 -0.2910 -1.1493
  175SOL    HW1 3417   4.535   0.422   8.070 -2.0088  0.4769 -0.2577
  175SOL    HW2 3418   4.568   0.493   7.940  1.6838 -2.4899 -1.0876
  176SOL     OW 3419   6.116   6.363   0.088  0.0478 -0.2568 -0.1780
  176SOL    HW1 3420   6.092   6.450   0.057 -0.9469 -1.0837 -1.8853
  176SOL    HW2 3421   6.059   6.303   0.038 -0.7595 -1.7892  2.4062
  177SOL     OW 3422   3.172   6.278   0.987  0.2647  0.5741  0.0112
  177SOL    HW1 3423   3.179   6.370   0.961  0.5273  0.4861 -0.2381
  177SOL    HW2 3424   3.096   6.275   1.045  0.6511  1.0704  0.5634
  178SOL     OW 3425   9.131   4.170   3.979  0.1719  0.2952 -0.0004
  178SOL    HW1 3426   9.156   4.253   3.939 -0.5499  0.2191 -0.6334
  178SOL    HW2 3427   9.048   4.188   4.022  1.0158  0.4192  1.6568
  179SOL     OW 3428   5.193   7.633   1.457 -0.1036  0.3606  0.0374
  179SOL    HW1 3429   5.281   7.654   1.488 -0.2407 -0.5733  1.1459
  179SOL    HW2 3430   5.207   7.592   1.371  0.7794 -1.8419  1.1585
  180SOL     OW 3431   5.474   1.786   5.556 -0.1005 -0.9206  0.2394
  180SOL    HW1 3432   5.400   1.829   5.513 -2.0216 -4.2064 -0.0723
  180SOL    HW2 3433   5.524   1.748   5.484  1.3463  0.3525  0.5255
  181SOL     OW 3434   6.571   7.206   3.120  0.2894  0.8194 -0.8313
  181SOL    HW1 3435   6.651   7.183   3.073 -0.1799  0.0216 -1.2624
  181SOL    HW2 3436   6.602   7.242   3.203  1.0909 -0.4083 -0.5733
  182SOL     OW 3437   1.414   3.500   1.645 -0.4989  0.2939 -0.0262
  182SOL    HW1 3438   1.425   3.588   1.609  0.0838  0.0241 -0.5435
  182SOL    HW2 3439   1.439   3.442   1.573 -1.5051 -0.3109  0.0948
  183SOL     OW 3440   3.676   0.088   6.956 -0.1408  0.4894  0.2160
  183SOL    HW1 3441   3.716   0.140   6.886  0.6303  1.4221  1.3049
  183SOL    HW2 3442   3.633   0.153   7.012  0.1847 -0.1109  1.1938
  184SOL     OW 3443   5.957   8.281   5.892 -0.0430  0.6491  0.1286
  184SOL    HW1 3444   6.026   8.240   5.945 -0.5365 -0.3764 -0.0003
  184SOL    HW2 3445   5.991   8.368   5.873  1.4925 -0.0160 -0.4151
  185SOL     OW 3446   7.636   8.459   0.988  0.4871  0.2157  0.1880
  185SOL    HW1 3447   7.591   8.542   1.002 -1.2148 -0.5767 -0.3907
  185SOL    HW2 3448   7.727   8.477   1.012  0.1991  2.2867 -0.1000
  186SOL     OW 3449   2.304   3.393   1.880  0.1268 -0.6457 -1.2211
  186SOL    HW1 3450   2.239   3.353   1.822 -1.7235  0.4291 -0.0157
  186SOL    HW2 3451   2.274   3.372   1.968  0.9617  0.5753 -0.6090
  187SOL     OW 3452   1.855   7.244   2.243  0.1187 -0.1687 -0.2029
  187SOL    HW1 3453   1.871   7.335   2.218  0.4432 -0.3159 -0.5355
  187SOL    HW2 3454   1.767   7.246   2.283 -0.5526  0.0187 -1.6358
  188SOL     OW 3455   8.460   9.101   8.703  0.3563 -0.1820  0.5601
  188SOL    HW1 3456   8.366   9.112   8.688  0.3435  0.2358  0.9268
  188SOL    HW2 3457   8.501   9.150   8.631  0.3053 -1.2728 -0.2362
  189SOL     OW 3458   2.911   9.053   1.877  0.1543  0.1206  0.3042
  189SOL    HW1 3459   2.827   9.094   1.895 -1.6088 -3.2155  0.4349
  189SOL    HW2 3460   2.976   9.122   1.894 -2.3090  1.9283  3.3998
  190SOL     OW 3461   8.069   0.670   1.019 -0.4985  0.3900 -0.0436
  190SOL    HW1 3462   8.016   0.679   0.940 -0.8708  2.2941  0.3820
  190SOL    HW2 3463   8.160   0.672   0.989 -0.6353  0.0133 -0.4966
  191SOL     OW 3464   8.168   7.186   1.790 -0.0474 -0.1757 -0.1913
  191SOL    HW1 3465   8.145   7.093   1.789 -1.6918  0.1518 -2.4823
  191SOL    HW2 3466   8.264   7.187   1.793  0.0614 -2.0236 -1.2638
  192SOL     OW 3467   6.420   8.038   6.103 -0.3375  0.0958 -0.4329
  192SOL    HW1 3468   6.467   8.085   6.034 -1.9504 -0.3763 -1.9280
  192SOL    HW2 3469   6.369   8.106   6.147 -1.5269  0.0144 -1.6275
  193SOL     OW 3470   4.880   1.951   4.088 -0.0375 -0.1985  0.0760
  193SOL    HW1 3471   4.870   1.963   4.183  3.4759  0.8042  0.4552
  193SOL    HW2 3472   4.915   1.862   4.079 -2.8723 -1.3516 -0.6349
  194SOL     OW 3473   8.174   0.312   0.925 -0.0999 -0.2162  0.2558
  194SOL    HW1 3474   8.226   0.385   0.893 -0.6507  0.7487  1.5042
  194SOL    HW2 3475   8.228   0.235   0.907  1.0181  0.5997  0.0174
  195SOL     OW 3476   4.959   5.284   3.973  0.3066 -0.2198  0.4306
  195SOL    HW1 3477   4.874   5.301   4.014  0.7506 -1.2540  1.8663
  195SOL    HW2 3478   4.938   5.251   3.886 -0.7144  0.6864  0.3140
  196SOL     OW 3479   0.974   2.174   6.010 -0.3545  0.8003 -0.5871
  196SOL    HW1 3480   0.998   2.085   5.984 -0.1986  0.6424  0.0922
  196SOL    HW2 3481   1.028   2.192   6.087 -3.1658 -0.0055  1.7361
  197SOL     OW 3482   8.666   0.502   6.849 -0.5045 -0.1083  0.2294
  197SOL    HW1 3483   8.750   0.457   6.843 -0.1153  0.6212  0.0613
  197SOL    HW2 3484   8.609   0.454   6.789 -0.4037 -1.0071  0.8322
  198SOL     OW 3485   1.726   3.286   8.628  0.6862 -0.6116 -0.2146
  198SOL    HW1 3486   1.773   3.348   8.573  1.1185 -1.0056 -0.2915
  198SOL    HW2 3487   1.788   3.261   8.696 -0.1785  0.6560  1.0764
  199SOL     OW 3488   3.025   2.551   1.970 -0.1428 -0.4026  0.3665
  199SOL    HW1 3489   2.948   2.604   1.949  0.3698  0.4272  0.5676
  199SOL    HW2 3490   2.994   2.491   2.038 -0.2593  0.8766  1.4794
  200SOL     OW 3491   6.681   5.854   7.545  0.1187 -0.5895  0.6418
  200SOL    HW1 3492   6.712   5.908   7.472 -0.5736  0.1502  0.8748
  200SOL    HW2 3493   6.644   5.917   7.606 -0.4794 -1.3192  1.0405
  201SOL     OW 3494   2.378   9.197   2.048 -0.4410 -0.3658 -0.1067
  201SOL    HW1 3495   2.304   9.136   2.050 -0.7197 -0.0002  1.2338
  201SOL    HW2 3496   2.452   9.144   2.078 -0.4989 -0.2845  0.1787
  202SOL     OW 3497   4.328   0.696   2.255  0.7116 -0.5332 -0.3861
  202SOL    HW1 3498   4.349   0.698   2.161  3.1538  0.4232  0.1057
  202SOL    HW2 3499   4.406   0.659   2.296 -1.8533 -5.1702  1.0348
  203SOL     OW 3500   1.027   1.077   8.134  0.4459 -0.0370 -0.0195
  203SOL    HW1 3501   1.023   1.026   8.215  1.1877 -1.6146 -0.9084
  203SOL    HW2 3502   0.944   1.123   8.130 -0.0907 -0.8646  1.0642
  204SOL     OW 3503   1.378   2.966   5.788 -0.3498 -0.3087  0.0221
  204SOL    HW1 3504   1.400   3.005   5.872 -0.9490  3.0471 -1.2094
  204SOL    HW2 3505   1.462   2.943   5.749 -0.1001 -2.8978  1.8338
  205SOL     OW 3506   6.753   0.615   5.527 -0.2123  0.7252 -0.0685
  205SOL    HW1 3507   6.846   0.630   5.544  0.4742 -0.6943 -2.1537
  205SOL    HW2 3508   6.724   0.693   5.479  0.3692  0.4101 -0.9402
  206SOL     OW 3509   0.319   7.746   3.265  0.2459 -0.6969  0.0100
  206SOL    HW1 3510   0.345   7.771   3.354  0.2988  0.2095 -0.2468
  206SOL    HW2 3511   0.336   7.652   3.261 -0.6649 -0.9487  1.2683
  207SOL     OW 3512   6.046   3.595   3.645 -0.0506 -0.2381 -0.1995
  207SOL    HW1 3513   6.137   3.583   3.672 -0.4054 -1.0922  0.6593
  207SOL    HW2 3514   5.995   3.543   3.708 -1.1405  0.3389 -0.5843
  208SOL     OW 3515   1.149   4.906   5.423 -0.1135  0.3920  0.5456
  208SOL    HW1 3516   1.059   4.902   5.394  0.1094 -0.7140 -0.0461
  208SOL    HW2 3517   1.152   4.849   5.500  0.6246 -1.9324 -1.0719
  209SOL     OW 3518   4.110   7.581   1.872 -0.1564  0.2881 -0.6431
  209SOL    HW1 3519   4.121   7.545   1.960  1.7349 -0.7078 -1.2292
  209SOL    HW2 3520   4.018   7.566   1.852 -0.5736  0.3312  1.0662
  210SOL     OW 3521   6.839   5.407   0.256  0.0147  0.1549  0.3409
  210SOL    HW1 3522   6.828   5.484   0.311  1.9072  0.3752  0.4827
  210SOL    HW2 3523   6.853   5.335   0.318  1.1865  0.2390  0.2021
  211SOL     OW 3524   5.998   7.293   0.049 -0.0980  0.5336 -0.1238
  211SOL    HW1 3525   5.957   7.244  -0.022 -1.7946 -0.3436  1.3745
  211SOL    HW2 3526   6.038   7.226   0.105  0.4890  1.1367  0.2016
  212SOL     OW 3527   8.021   8.269   9.109  0.4016 -0.4545  0.2349
  212SOL    HW1 3528   8.006   8.342   9.049 -0.1453  0.0413  0.9657
  212SOL    HW2 3529   8.080   8.304   9.175 -0.3703 -0.4667  0.9443
  213SOL     OW 3530   2.124   1.296   7.266  0.0282 -0.0972 -0.4247
  213SOL    HW1 3531   2.043   1.342   7.244 -0.8780 -0.0065  2.6084
  213SOL    HW2 3532   2.103   1.203   7.252  0.4583  0.0847 -2.5172
  214SOL     OW 3533   3.506   6.938   8.603  0.1039 -0.1332  0.8188
  214SOL    HW1 3534   3.484   6.902   8.517 -1.7817  0.2875  1.0958
  214SOL    HW2 3535   3.472   6.874   8.665  0.2282  0.2458  1.2764
  215SOL     OW 3536   4.816   5.666   3.603  0.4864  0.2953 -0.0692
  215SOL    HW1 3537   4.798   5.743   3.658  0.5080 -0.0874  0.4814
  215SOL    HW2 3538   4.848   5.600   3.665  2.1458  0.3902 -0.7738
  216SOL     OW 3539   5.506   4.581   7.150 -0.4358 -0.7247  0.5180
  216SOL    HW1 3540   5.580   4.586   7.089 -2.6152  1.5384 -2.2487
  216SOL    HW2 3541   5.469   4.494   7.136  0.1191 -0.8695 -0.0994
  217SOL     OW 3542   8.654   5.388   3.709 -0.0665 -0.3636 -0.2226
  217SOL    HW1 3543   8.605   5.470   3.715  1.1702  0.3892  0.1189
  217SOL    HW2 3544   8.609   5.327   3.767 -0.7175  0.2277 -0.1013
  218SOL     OW 3545   6.469   5.846   4.662 -0.2459 -0.1026 -0.1107
  218SOL    HW1 3546   6.447   5.930   4.620 -0.3705  1.9751  3.6340
  218SOL    HW2 3547   6.387   5.797   4.662 -0.4027  0.1030 -1.5846
  219SOL     OW 3548   9.206   3.016   0.675 -0.4478 -0.3542  0.3391
  219SOL    HW1 3549   9.168   3.052   0.755 -1.8592 -0.0703 -0.4366
  219SOL    HW2 3550   9.293   2.986   0.701 -0.8856 -0.2631  1.9732
  220SOL     OW 3551   3.994   8.223   8.895 -0.1287  0.0504 -0.1079
  220SOL    HW1 3552   4.005   8.300   8.838 -0.7851 -0.4321 -0.9093
  220SOL    HW2 3553   3.900   8.206   8.894 -0.0156 -0.6228  0.2614
  221SOL     OW 3554   0.183   5.113   4.329  0.0700 -0.4531 -0.0110
  221SOL    HW1 3555   0.127   5.125   4.253 -0.0897 -1.1120  0.0043
  221SOL    HW2 3556   0.130   5.065   4.392 -0.6700  2.1133  1.5064
  222SOL     OW 3557   6.734   5.977   2.889  0.2263 -0.0793  0.0280
  222SOL    HW1 3558   6.804   5.923   2.855 -0.5690 -0.7913 -0.5195
  222SOL    HW2 3559   6.771   6.018   2.967  1.0262 -0.9681  0.1321
  223SOL     OW 3560   5.340   1.739   1.301 -0.1874 -0.2471 -0.1999
  223SOL    HW1 3561   5.283   1.757   1.375  1.1114 -0.6005  0.9218
  223SOL    HW2 3562   5.352   1.644   1.303 -0.7804 -0.3629 -1.3662
  224SOL     OW 3563   0.762   0.087   8.185 -0.2023  0.1797 -0.1610
  224SOL    HW1 3564   0.679   0.044   8.163 -0.1831  0.1925 -0.2598
  224SOL    HW2 3565   0.827   0.042   8.132 -0.0649 -0.1929  0.3238
  225SOL     OW 3566   0.967   8.629   8.157 -0.4095 -0.1302 -0.5142
  225SOL    HW1 3567   1.009   8.666   8.235 -0.2079  1.8891 -1.5166
  225SOL    HW2 3568   0.882   8.599   8.188 -0.5279  1.0786  0.4293
  226SOL     OW 3569   7.404   5.548   5.544  0.3045 -0.6464 -0.2567
  226SOL    HW1 3570   7.400   5.483   5.474  1.5991 -1.6075  0.5012
  226SOL    HW2 3571   7.344   5.617   5.517  1.8010 -0.2997 -3.0206
  227SOL     OW 3572   7.731   1.155   2.655 -0.2363 -0.3234  0.8965
  227SOL    HW1 3573   7.738   1.098   2.732  0.0004 -1.6873 -0.0862
  227SOL    HW2 3574   7.789   1.114   2.591 -2.2077 -0.5835 -0.7983
  228SOL     OW 3575   8.412   4.063   4.261 -0.3795  0.0910 -0.5604
  228SOL    HW1 3576   8.427   4.156   4.277 -1.6629  0.5598 -1.9130
  228SOL    HW2 3577   8.321   4.057   4.233 -0.4644 -1.6443 -0.0570
  229SOL     OW 3578   2.306   8.361   6.480  0.3234  0.5236 -0.1022
  229SOL    HW1 3579   2.356   8.302   6.537  0.0219 -0.2469 -0.6149
  229SOL    HW2 3580   2.221   8.318   6.471 -0.2826  1.5977  0.3955
  230SOL     OW 3581   1.941   6.294   3.800  0.1064 -0.0905  0.1933
  230SOL    HW1 3582   1.938   6.199   3.813 -0.2237  0.2513  3.2047
  230SOL    HW2 3583   2.033   6.317   3.811  0.0414  0.0514  0.4384
  231SOL     OW 3584   6.251   7.052   8.559  0.7393  0.3602 -0.0491
  231SOL    HW1 3585   6.215   7.038   8.472  1.4196 -0.0069 -0.2762
  231SOL    HW2 3586   6.317   6.983   8.570 -0.3580 -0.5238  1.3389
  232SOL     OW 3587   1.738   2.813   4.316 -0.4960  0.1980  0.0131
  232SOL    HW1 3588   1.817   2.860   4.343  0.3138 -2.0242  1.9188
  232SOL    HW2 3589   1.704   2.863   4.242  2.6778  1.2838 -0.8853
  233SOL     OW 3590   0.227   0.587   8.761 -0.1722  0.1711  0.3027
  233SOL    HW1 3591   0.263   0.523   8.700 -0.3400 -0.1411  0.5281
  233SOL    HW2 3592   0.210   0.665   8.708 -2.4408 -0.8359 -0.5441
  234SOL     OW 3593   7.996   6.681   7.626 -0.2212 -0.2259  0.5071
  234SOL    HW1 3594   8.080   6.704   7.587 -0.2206 -1.4548 -0.2677
  234SOL    HW2 3595   7.981   6.749   7.693  1.6585 -0.3266  1.0926
  235SOL     OW 3596   1.789   1.422   0.590 -0.4913  0.0447  0.4183
  235SOL    HW1 3597   1.828   1.363   0.525  0.2096 -0.5454  1.3532
  235SOL    HW2 3598   1.696   1.399   0.589 -0.3748 -0.4500  0.1242
  236SOL     OW 3599   4.944   8.724   4.802  0.0632  0.0444 -0.0807
  236SOL    HW1 3600   4.851   8.724   4.821 -0.0956 -1.2413 -0.7908
  236SOL    HW2 3601   4.968   8.817   4.801 -1.2488  0.3969 -0.1486
  237SOL     OW 3602   4.387   7.205   9.008  0.2071 -0.3570  0.0620
  237SOL    HW1 3603   4.443   7.266   9.056 -0.9499  0.6205  0.2091
  237SOL    HW2 3604   4.333   7.261   8.953 -2.5313 -1.0368  1.8879
  238SOL     OW 3605   1.702   6.767   3.974  0.4648  0.2471  0.5603
  238SOL    HW1 3606   1.787   6.765   3.932  0.3487  1.1764  0.2469
  238SOL    HW2 3607   1.645   6.714   3.917  0.0167  2.4333 -1.2005
  239SOL     OW 3608   5.396   8.469   1.070  0.1993  0.3248  0.5498
  239SOL    HW1 3609   5.368   8.461   1.162 -0.6973  0.8780  0.3359
  239SOL    HW2 3610   5.469   8.530   1.072 -0.5726  1.2670  0.7713
  240SOL     OW 3611   8.609   2.448   6.308 -0.1115  0.6539 -0.1577
  240SOL    HW1 3612   8.674   2.466   6.241 -0.5471 -0.4452 -0.8929
  240SOL    HW2 3613   8.545   2.390   6.266 -0.9813  0.8191  0.8739
  241SOL     OW 3614   7.083   4.408   1.110 -0.1062  0.1833  0.5147
  241SOL    HW1 3615   7.098   4.362   1.192 -0.4991 -0.9140 -0.0073
  241SOL    HW2 3616   7.124   4.352   1.043  0.8075  1.3879  0.0198
  242SOL     OW 3617   2.321   8.836   1.464 -0.4654  0.2820  0.4646
  242SOL    HW1 3618   2.378   8.882   1.524 -0.0819 -0.5058  0.7197
  242SOL    HW2 3619   2.380   8.782   1.411 -0.9587 -0.5138  0.7055
  243SOL     OW 3620   8.492   2.207   4.627  0.0744  0.1353 -0.1679
  243SOL    HW1 3621   8.444   2.140   4.675  0.3793  0.1385  0.1428
  243SOL    HW2 3622   8.581   2.201   4.660 -0.1290  1.4597  0.6906
  244SOL     OW 3623   4.513   8.730   2.567  0.0493  0.2848  0.1580
  244SOL    HW1 3624   4.595   8.711   2.521 -0.0424 -0.1199  0.1539
  244SOL    HW2 3625   4.493   8.649   2.614  0.5810  0.9662  1.5935
  245SOL     OW 3626   9.048   0.424   2.326 -0.1287 -0.1534  0.0357
  245SOL    HW1 3627   9.024   0.478   2.250  0.3180  0.1586  0.1119
  245SOL    HW2 3628   9.029   0.479   2.402  0.2893 -0.1147  0.1152
  246SOL     OW 3629   3.957   7.352   5.107  0.1705 -0.2068  0.0435
  246SOL    HW1 3630   3.881   7.325   5.159 -2.0073 -0.0717 -2.8299
  246SOL    HW2 3631   4.005   7.271   5.092  1.1621 -0.1835  2.5192
  247SOL     OW 3632   3.938   1.316   2.589  0.6393 -0.0515  0.5948
  247SOL    HW1 3633   4.002   1.251   2.618  0.1959 -0.6262  0.2996
  247SOL    HW2 3634   3.854   1.272   2.595  0.4086  0.2376 -0.3399
  248SOL     OW 3635   5.946   4.694   6.096 -0.1992  0.0755 -0.3797
  248SOL    HW1 3636   5.896   4.654   6.025 -0.3529  0.2116 -0.3483
  248SOL    HW2 3637   5.919   4.646   6.174 -0.7456  0.5521 -0.2668
  249SOL     OW 3638   7.882   4.019   6.356  0.2831 -0.2172  0.3374
  249SOL    HW1 3639   7.854   4.091   6.300  0.0750 -1.9063 -1.8245
  249SOL    HW2 3640   7.801   3.987   6.397  0.2646  0.2362  0.6608
  250SOL     OW 3641   3.002   0.441   6.904 -0.0593  0.1219  0.1399
  250SOL    HW1 3642   2.949   0.487   6.839 -0.3436 -0.0296  0.2643
  250SOL    HW2 3643   2.964   0.467   6.988  0.4858  0.5428  0.2602
  251SOL     OW 3644   8.431   1.001   2.894  0.2262  0.4425  0.7129
  251SOL    HW1 3645   8.466   0.996   2.805 -2.3401 -0.1396 -0.3482
  251SOL    HW2 3646   8.419   0.910   2.921 -1.5122  0.5766  0.5292
  252SOL     OW 3647   2.616   6.907   0.090  0.0062  0.8547 -0.3892
  252SOL    HW1 3648   2.564   6.902   0.171  1.1257  1.4543  0.3782
  252SOL    HW2 3649   2.563   6.961   0.031 -0.6918  0.6444  0.0319
  253SOL     OW 3650   7.644   0.278   9.260  0.9371 -0.4411  0.4578
  253SOL    HW1 3651   7.625   0.230   9.179  1.2101 -0.2038  0.2542
  253SOL    HW2 3652   7.736   0.303   9.252  0.8086  0.0710  0.5934
  254SOL     OW 3653   5.338   5.756   2.744  0.0083  0.2930  0.3044
  254SOL    HW1 3654   5.370   5.820   2.681  0.0138 -1.7129 -1.8549
  254SOL    HW2 3655   5.412   5.698   2.759 -0.7831 -0.8162  0.0359
  255SOL     OW 3656   8.160   2.141   5.563 -0.3873 -0.3565 -0.0501
  255SOL    HW1 3657   8.071   2.138   5.598 -0.0677  0.6011  0.8910
  255SOL    HW2 3658   8.150   2.182   5.477 -0.4634  3.9213  1.7479
  256SOL     OW 3659   7.435   7.595   1.722 -0.4233  0.4025 -0.2579
  256SOL    HW1 3660   7.490   7.517   1.731 -1.9986 -0.8075 -0.6614
  256SOL    HW2 3661   7.485   7.653   1.663 -0.6398 -1.7033 -2.6801
  257SOL     OW 3662   8.563   1.516   2.693  0.1639  0.5823  0.6851
  257SOL    HW1 3663   8.580   1.443   2.752 -1.0443  0.4581  0.9020
  257SOL    HW2 3664   8.601   1.488   2.609 -0.4320 -0.3866  0.7165
  258SOL     OW 3665   8.588   1.193   3.732 -0.3962  0.3261 -0.4168
  258SOL    HW1 3666   8.579   1.233   3.646  0.4016  2.1379  0.2850
  258SOL    HW2 3667   8.620   1.104   3.715 -0.5549  0.5512 -1.9768
  259SOL     OW 3668   2.073   6.325   1.721 -0.0377  0.0690  0.7438
  259SOL    HW1 3669   2.118   6.262   1.777 -2.3853 -1.9776  0.5022
  259SOL    HW2 3670   1.980   6.313   1.741 -0.6662  2.8381 -0.0277
  260SOL     OW 3671   3.030   7.420   3.112 -0.1640 -0.2023 -0.2799
  260SOL    HW1 3672   3.012   7.379   3.027 -0.7224 -0.3559 -0.0906
  260SOL    HW2 3673   3.052   7.511   3.090 -0.7204 -0.1313 -0.5554
  261SOL     OW 3674   4.241   4.854   8.456  0.2920 -0.1574 -0.9844
  261SOL    HW1 3675   4.230   4.887   8.545  0.2137 -1.3307 -0.5457
  261SOL    HW2 3676   4.267   4.931   8.405 -0.4378  0.6871 -0.1131
  262SOL     OW 3677   8.785   0.356   7.257 -0.9871 -0.1542  0.1107
  262SOL    HW1 3678   8.855   0.334   7.318 -0.9900 -0.1171  0.1286
  262SOL    HW2 3679   8.821   0.428   7.204 -1.8509  1.5857  1.7436
  263SOL     OW 3680   7.226   2.140   5.451  0.8247 -0.2462  0.0650
  263SOL    HW1 3681   7.291   2.210   5.460 -0.2029  0.5913  1.3344
  263SOL    HW2 3682   7.142   2.183   5.466  0.0659 -1.5256 -0.3902
  264SOL     OW 3683   0.775   1.859   0.651  0.6283 -0.5564 -0.3211
  264SOL    HW1 3684   0.693   1.905   0.634  0.2423 -1.1121 -0.0164
  264SOL    HW2 3685   0.821   1.861   0.567  1.5041  2.0215  0.1502
  265SOL     OW 3686   5.672   6.603   6.826 -0.4599 -0.0819  0.2975
  265SOL    HW1 3687   5.689   6.593   6.920  0.6781 -0.7460  0.0418
  265SOL    HW2 3688   5.622   6.685   6.819 -2.2092 -0.9678  1.6349
  266SOL     OW 3689   0.027   1.404   1.106  0.6181 -0.2615 -0.1697
  266SOL    HW1 3690  -0.068   1.419   1.112  0.8205  1.7630 -1.0186
  266SOL    HW2 3691   0.039   1.313   1.132 -1.6458 -0.7970 -0.7865
  267SOL     OW 3692   6.273   0.178   7.551 -0.1363  0.3569  0.1916
  267SOL    HW1 3693   6.232   0.264   7.548  0.6773  0.7308 -0.4012
  267SOL    HW2 3694   6.283   0.152   7.459  0.5510  0.0777  0.3394
  268SOL     OW 3695   3.760   5.065   8.789  0.2144  0.3901  0.0848
  268SOL    HW1 3696   3.693   5.060   8.720 -0.1318  0.7276  0.3901
  268SOL    HW2 3697   3.821   4.995   8.768  0.2804  0.6833 -0.7417
  269SOL     OW 3698   4.948   2.436   0.802  0.3627 -0.2505  0.2069
  269SOL    HW1 3699   4.929   2.402   0.715 -0.5099 -1.3095  0.7883
  269SOL    HW2 3700   4.951   2.531   0.790 -0.0485 -0.3621 -0.9194
  270SOL     OW 3701   3.958   8.796   8.153  0.6177 -0.2966  0.3831
  270SOL    HW1 3702   4.007   8.788   8.071 -0.7642 -0.3722 -0.4733
  270SOL    HW2 3703   3.969   8.711   8.195 -2.0649 -1.8889 -1.7752
  271SOL     OW 3704   7.644   1.853   1.721  0.5285 -0.3862 -0.8570
  271SOL    HW1 3705   7.668   1.820   1.807  0.2627  1.3663 -0.0673
  271SOL    HW2 3706   7.701   1.929   1.708 -0.8913  0.6397 -1.2798
  272SOL     OW 3707   6.081   8.830   5.619 -0.3469  0.2895 -0.2145
  272SOL    HW1 3708   6.019   8.864   5.555 -1.1459 -0.4137  0.1678
  272SOL    HW2 3709   6.135   8.906   5.643 -0.3369  0.6647 -1.3539
  273SOL     OW 3710   1.453   8.874   9.101  0.0347  0.4027 -0.0334
  273SOL    HW1 3711   1.511   8.798   9.114 -0.7905  0.0405  1.8668
  273SOL    HW2 3712   1.476   8.907   9.014  0.6358 -1.8455 -0.7969
  274SOL     OW 3713   7.919   8.349   4.512 -0.1907  0.4030  0.3778
  274SOL    HW1 3714   7.844   8.343   4.572  0.0045 -1.6208  0.5107
  274SOL    HW2 3715   7.995   8.355   4.570  0.0041 -1.6297  0.4059
  275SOL     OW 3716   8.829   6.995   9.195 -0.0583 -0.3781  0.0174
  275SOL    HW1 3717   8.863   6.906   9.191 -2.3169 -1.2768 -0.0452
  275SOL    HW2 3718   8.741   6.986   9.230 -0.6969  1.7371 -0.8967
  276SOL     OW 3719   2.500   2.941   8.962  0.1416  0.0916  0.0247
  276SOL    HW1 3720   2.546   2.999   9.023 -0.2098 -1.6431  2.0638
  276SOL    HW2 3721   2.408   2.948   8.986  0.1128 -1.4179  0.4805
  277SOL     OW 3722   5.747   2.285   5.410  0.0279  0.2092  0.1293
  277SOL    HW1 3723   5.753   2.350   5.481  0.3949  0.5798 -0.2340
  277SOL    HW2 3724   5.656   2.288   5.382 -0.0849  0.1712  0.4845
  278SOL     OW 3725   5.033   7.903   2.150  0.1613 -0.0604  0.2917
  278SOL    HW1 3726   5.079   7.892   2.067 -1.2978  0.5683 -0.6461
  278SOL    HW2 3727   4.994   7.991   2.144 -0.1856 -0.1174  1.5262
  279SOL     OW 3728   3.507   0.440   1.910  0.3698  0.0554 -0.4147
  279SOL    HW1 3729   3.465   0.355   1.911 -1.2819  0.8107  1.3090
  279SOL    HW2 3730   3.483   0.479   1.826 -2.6601  0.5312  0.5619
  280SOL     OW 3731   9.252   4.893   3.506 -0.2778 -0.0376  0.3036
  280SOL    HW1 3732   9.218   4.824   3.563 -1.3289 -0.4144 -0.7322
  280SOL    HW2 3733   9.277   4.848   3.425  1.2653  0.4714  0.4638
  281SOL     OW 3734   8.935   2.516   5.992  0.4750 -0.5488 -0.0770
  281SOL    HW1 3735   8.894   2.490   6.074  0.4011  1.4952  0.5790
  281SOL    HW2 3736   9.002   2.449   5.976  1.2331 -0.4304  2.2283
  282SOL     OW 3737   4.144   6.307   2.649 -0.8715 -0.6843  0.5428
  282SOL    HW1 3738   4.154   6.241   2.717  1.5098  0.1264  1.0906
  282SOL    HW2 3739   4.135   6.390   2.697  1.1579 -0.0598 -0.0393
  283SOL     OW 3740   1.843   0.871   2.477  0.4845 -0.7382  0.2472
  283SOL    HW1 3741   1.825   0.815   2.401  1.2786  0.1219 -0.6015
  283SOL    HW2 3742   1.767   0.929   2.483  1.3892  0.6927 -1.3089
  284SOL     OW 3743   2.173   9.114   7.509 -0.8314  0.9970  0.0501
  284SOL    HW1 3744   2.132   9.029   7.493 -2.4064  1.3172  1.9490
  284SOL    HW2 3745   2.213   9.137   7.426 -0.8083 -1.3472 -0.6732
  285SOL     OW 3746   5.279   4.927   3.004 -0.2267 -0.0429  0.6831
  285SOL    HW1 3747   5.339   4.975   2.948 -1.5445  0.3221 -0.4837
  285SOL    HW2 3748   5.332   4.858   3.044  1.1210  0.7726  0.3577
  286SOL     OW 3749   1.501   3.073   6.018  0.1711  0.1255  0.0215
  286SOL    HW1 3750   1.586   3.117   6.008  0.6091 -0.8714 -0.8986
  286SOL    HW2 3751   1.523   2.991   6.064 -0.7596  1.2222  2.6152
  287SOL     OW 3752   1.358   0.626   7.747 -0.2389 -0.2163 -0.0829
  287SOL    HW1 3753   1.400   0.650   7.664 -1.6510  0.9550 -0.4981
  287SOL    HW2 3754   1.398   0.542   7.771  1.0023 -0.0278 -1.3588
  288SOL     OW 3755   6.734   8.948   2.929  0.5212  0.1258  0.1851
  288SOL    HW1 3756   6.772   8.987   3.008  0.6205  2.3140 -0.8589
  288SOL    HW2 3757   6.675   9.016   2.895 -0.9620 -1.4838 -0.6358
  289SOL     OW 3758   1.986   6.293   4.455  0.2173 -0.1242  0.4567
  289SOL    HW1 3759   1.935   6.271   4.377  0.4782  0.4085  0.1333
  289SOL    HW2 3760   1.935   6.361   4.498 -0.9309 -1.7408  1.8119
  290SOL     OW 3761   6.566   9.040   7.859 -0.5372  0.3869  0.2992
  290SOL    HW1 3762   6.566   9.055   7.764 -1.9384  0.3918  0.2811
  290SOL    HW2 3763   6.626   9.107   7.893  1.4630 -0.7782 -0.7149
  291SOL     OW 3764   6.654   6.438   1.535  0.0841 -0.7754  0.1830
  291SOL    HW1 3765   6.584   6.463   1.474  0.3892 -1.7565 -0.5829
  291SOL    HW2 3766   6.620   6.463   1.621 -0.6048  0.0834 -0.3156
  292SOL     OW 3767   3.545   2.935   7.354 -0.2215 -0.8995 -0.1237
  292SOL    HW1 3768   3.550   2.891   7.269 -2.4615  1.9741 -1.9299
  292SOL    HW2 3769   3.456   2.968   7.358 -0.3973 -1.4514  3.7504
  293SOL     OW 3770   1.264   5.247   5.274 -0.6957 -0.1728  0.2218
  293SOL    HW1 3771   1.222   5.178   5.223 -0.5259  0.9322 -1.4870
  293SOL    HW2 3772   1.204   5.322   5.269  0.1249  0.5036  0.1696
  294SOL     OW 3773   3.139   6.779   8.866 -0.3536 -0.2874  0.5110
  294SOL    HW1 3774   3.090   6.836   8.925  0.0775 -1.9291  2.6154
  294SOL    HW2 3775   3.072   6.730   8.818 -0.7553 -0.4207  1.1969
  295SOL     OW 3776   6.255   6.199   9.080 -0.8071  0.7423  0.0237
  295SOL    HW1 3777   6.276   6.116   9.037  0.3239  0.9714  0.0915
  295SOL    HW2 3778   6.305   6.198   9.161  0.7875  2.2825 -0.8595
  296SOL     OW 3779   8.186   6.163   8.072  0.0273 -0.4109  0.1281
  296SOL    HW1 3780   8.151   6.084   8.113  0.3420 -0.1672  0.8832
  296SOL    HW2 3781   8.177   6.148   7.978  0.5183 -1.5450  0.2554
  297SOL     OW 3782   5.814   1.102   1.300  0.1028  0.2734  0.2971
  297SOL    HW1 3783   5.748   1.045   1.259 -0.1348  1.3897 -0.9352
  297SOL    HW2 3784   5.887   1.044   1.319 -0.1474 -0.4706 -0.9048
  298SOL     OW 3785   0.732   7.016   8.704 -0.2332 -0.1981 -0.2347
  298SOL    HW1 3786   0.691   6.986   8.623 -0.2694 -2.1228  0.4437
  298SOL    HW2 3787   0.659   7.042   8.760 -0.2286  0.7630 -0.6526
  299SOL     OW 3788   3.801   3.216   7.079  0.2328 -0.0052 -0.1093
  299SOL    HW1 3789   3.740   3.185   7.013  1.9077 -0.4842 -1.5206
  299SOL    HW2 3790   3.746   3.252   7.149 -1.6125  1.0535 -2.0036
  300SOL     OW 3791   0.913   0.920   4.911  0.1253 -0.2479 -0.1640
  300SOL    HW1 3792   0.856   0.880   4.845  0.1608  1.8107 -1.5503
  300SOL    HW2 3793   0.853   0.945   4.981 -0.3745  0.0263 -0.6708
  301SOL     OW 3794   0.298   1.526   4.766 -0.1779 -0.3720  0.1952
  301SOL    HW1 3795   0.262   1.472   4.696  0.7027  0.4479 -0.9363
  301SOL    HW2 3796   0.303   1.467   4.841 -0.7556 -1.3983 -0.5357
  302SOL     OW 3797   0.523   1.075   2.319 -0.2074 -0.0128 -0.3639
  302SOL    HW1 3798   0.603   1.030   2.346  1.5297  3.5390  1.0771
  302SOL    HW2 3799   0.453   1.033   2.369  1.1929 -1.3697  0.5424
  303SOL     OW 3800   4.068   4.455   5.987  0.3666  0.3480  0.1609
  303SOL    HW1 3801   4.143   4.426   6.040 -0.9096 -0.1056  1.7830
  303SOL    HW2 3802   4.023   4.375   5.963 -0.4006  0.6886  0.4356
  304SOL     OW 3803   3.099   8.299   2.302 -0.2453  0.2915 -0.1188
  304SOL    HW1 3804   3.080   8.326   2.212 -0.5214  0.0951 -0.1170
  304SOL    HW2 3805   3.014   8.287   2.342 -0.1415 -1.1157 -0.2720
  305SOL     OW 3806   3.117   5.878   3.339  0.8724 -0.4778  0.0956
  305SOL    HW1 3807   3.094   5.834   3.421  2.9076 -2.7274 -0.4171
  305SOL    HW2 3808   3.066   5.833   3.272 -0.0395  0.6878 -0.0149
  306SOL     OW 3809   4.527   8.901   2.314  0.3770 -0.7419 -0.5477
  306SOL    HW1 3810   4.478   8.908   2.232  1.5206 -0.8998 -1.2642
  306SOL    HW2 3811   4.464   8.864   2.376 -1.1263  1.2549 -0.7804
  307SOL     OW 3812   6.859   8.406   2.475  0.6015  0.0254 -0.1988
  307SOL    HW1 3813   6.830   8.457   2.551  3.1236  1.5896 -0.1616
  307SOL    HW2 3814   6.778   8.372   2.436 -0.8809  0.5919  2.1840
  308SOL     OW 3815   0.434   6.344   6.166 -0.0800 -0.0328 -0.2301
  308SOL    HW1 3816   0.356   6.336   6.110  0.2917  3.0960 -1.4155
  308SOL    HW2 3817   0.420   6.427   6.213  2.1947  0.2335  0.0700
  309SOL     OW 3818   2.039   9.111   0.695 -0.1696 -0.3686 -0.8039
  309SOL    HW1 3819   2.114   9.085   0.749 -0.9837 -0.5723  0.2487
  309SOL    HW2 3820   2.057   9.202   0.672 -0.4270  0.1412  0.8958
  310SOL     OW 3821   7.545   0.362   4.110  0.0713  0.4011  0.2526
  310SOL    HW1 3822   7.621   0.349   4.167  0.4942 -1.4471 -0.6418
  310SOL    HW2 3823   7.581   0.403   4.032  0.7679 -2.7994 -1.2773
  311SOL     OW 3824   5.084   2.932   7.187  0.4942  0.0526 -0.2375
  311SOL    HW1 3825   5.165   2.956   7.232 -0.6968  2.1862  0.9386
  311SOL    HW2 3826   5.015   2.950   7.252 -1.0674  0.3251 -1.8957
  312SOL     OW 3827   0.934   9.196   3.940  0.0762 -0.0157 -0.2120
  312SOL    HW1 3828   0.934   9.150   4.024 -0.0700  0.8144  0.2552
  312SOL    HW2 3829   0.983   9.139   3.881  2.5534  0.5539  1.1201
  313SOL     OW 3830   3.395   9.113   3.633  0.2700  0.0310 -0.0273
  313SOL    HW1 3831   3.350   9.197   3.619  0.8633  0.0459 -2.1770
  313SOL    HW2 3832   3.488   9.134   3.629  0.4353 -0.6734 -0.0743
  314SOL     OW 3833   5.547   0.234   7.335 -0.2383 -0.4471  0.1757
  314SOL    HW1 3834   5.514   0.188   7.412 -0.0168 -1.3747 -0.2782
  314SOL    HW2 3835   5.512   0.186   7.261  1.0799 -0.6932 -0.3134
  315SOL     OW 3836   8.838   5.290   1.230 -0.2837 -0.4245 -0.7552
  315SOL    HW1 3837   8.799   5.216   1.183 -0.5238 -1.4944  1.0328
  315SOL    HW2 3838   8.781   5.364   1.209  0.1959 -0.6106 -2.9024
  316SOL     OW 3839   4.593   3.749   5.907 -0.5151  0.1092 -0.2363
  316SOL    HW1 3840   4.654   3.823   5.902 -0.8259  0.5217  1.4294
  316SOL    HW2 3841   4.518   3.784   5.954 -0.2336 -1.5250  1.5327
  317SOL     OW 3842   3.057   7.242   7.289 -0.1359  0.2377  0.2755
  317SOL    HW1 3843   3.070   7.334   7.312  0.6689 -0.1031  1.2586
  317SOL    HW2 3844   3.056   7.241   7.193  0.5875  1.1800  0.2417
  318SOL     OW 3845   4.243   0.777   3.655  0.3807 -0.2979 -0.4009
  318SOL    HW1 3846   4.198   0.788   3.739  0.0997 -2.3120 -0.2245
  318SOL    HW2 3847   4.334   0.760   3.679  0.2119 -1.3452 -0.4457
  319SOL     OW 3848   8.660   7.428   3.614 -0.0227  0.4154 -0.1389
  319SOL    HW1 3849   8.632   7.501   3.668  1.1956 -0.7108  2.1285
  319SOL    HW2 3850   8.755   7.426   3.623 -0.1160 -2.5152  1.4404
  320SOL     OW 3851   4.634   3.350   0.417  0.1145  0.8595 -0.0704
  320SOL    HW1 3852   4.648   3.263   0.380  0.9776  0.8643  0.2302
  320SOL    HW2 3853   4.598   3.401   0.345  0.2691  0.4427 -0.4466
  321SOL     OW 3854   5.481   8.453   7.227 -0.5285  0.4391 -0.5397
  321SOL    HW1 3855   5.501   8.533   7.180  0.9322 -0.1495 -0.9832
  321SOL    HW2 3856   5.434   8.398   7.164 -0.4427  0.4740 -0.6336
  322SOL     OW 3857   2.536   8.681   1.355  0.4361  0.2652 -0.1132
  322SOL    HW1 3858   2.616   8.631   1.368  0.5780  0.5235  0.0226
  322SOL    HW2 3859   2.562   8.752   1.296  0.2715  0.2607 -0.1912
  323SOL     OW 3860   5.101   6.431   7.586 -1.4590 -0.5684  0.2945
  323SOL    HW1 3861   5.058   6.439   7.671  1.4179 -1.2550  1.9552
  323SOL    HW2 3862   5.124   6.338   7.580  2.1924  0.1351  0.9458
  324SOL     OW 3863   3.160   0.606   7.522 -0.0697  0.0247  0.0206
  324SOL    HW1 3864   3.197   0.638   7.604 -1.9289  1.9828  0.1875
  324SOL    HW2 3865   3.203   0.658   7.454 -0.1057 -0.0392 -0.0509
  325SOL     OW 3866   4.178   8.286   3.936 -0.4346 -0.4331  0.2796
  325SOL    HW1 3867   4.145   8.311   3.850 -0.3778 -2.2550 -0.2976
  325SOL    HW2 3868   4.216   8.367   3.971 -0.0939  0.2484 -1.5537
  326SOL     OW 3869   0.224   2.896   0.169 -0.0138 -0.5290  0.0878
  326SOL    HW1 3870   0.265   2.949   0.238  0.3350 -0.1930 -0.3773
  326SOL    HW2 3871   0.288   2.829   0.148  0.3810  0.0874 -0.7457
  327SOL     OW 3872   4.980   7.252   9.251 -1.4083  0.2394 -0.4871
  327SOL    HW1 3873   4.975   7.298   9.167  1.2283  1.5855 -0.0306
  327SOL    HW2 3874   5.005   7.163   9.227  0.2146  0.8281 -1.1954
  328SOL     OW 3875   6.920   2.922   7.919  0.0716  0.4896 -0.4816
  328SOL    HW1 3876   6.832   2.955   7.937 -0.3118  0.2225 -1.7927
  328SOL    HW2 3877   6.957   2.983   7.855 -0.1514 -0.8146 -1.9237
  329SOL     OW 3878   2.878   5.033   2.608 -0.1708  0.1012  0.2845
  329SOL    HW1 3879   2.945   4.977   2.647 -0.7088 -0.0012  1.0895
  329SOL    HW2 3880   2.799   4.980   2.607 -0.4753  0.5481  0.2459
  330SOL     OW 3881   5.865   6.734   1.408  0.3741  0.1972 -0.5896
  330SOL    HW1 3882   5.822   6.672   1.348  1.0125 -1.1175  0.2666
  330SOL    HW2 3883   5.794   6.788   1.442 -0.8420 -2.4644  1.4311
  331SOL     OW 3884   3.631   2.542   5.406 -0.3472 -0.1422  0.0189
  331SOL    HW1 3885   3.679   2.588   5.475  2.4582 -1.9060 -0.6174
  331SOL    HW2 3886   3.642   2.449   5.427 -2.6330 -0.6727 -0.8165
  332SOL     OW 3887   3.660   7.288   3.124  0.2028  0.4424  0.3322
  332SOL    HW1 3888   3.724   7.220   3.107 -0.6639  0.0333 -1.4470
  332SOL    HW2 3889   3.611   7.257   3.201  0.1352 -0.7063 -0.1651
  333SOL     OW 3890   0.670   2.236   2.454  0.1292  0.4274 -0.7087
  333SOL    HW1 3891   0.591   2.197   2.416 -1.6586  1.4370  1.7413
  333SOL    HW2 3892   0.673   2.324   2.418  0.4343  0.2262 -1.1824
  334SOL     OW 3893   4.263   2.622   7.915 -0.1114  0.7315 -0.0779
  334SOL    HW1 3894   4.200   2.589   7.851 -0.4871  0.1738  0.5667
  334SOL    HW2 3895   4.337   2.560   7.910  0.7288  1.7737 -1.3339
  335SOL     OW 3896   5.959   6.615   5.043 -0.0630 -0.4418  0.1497
  335SOL    HW1 3897   5.870   6.580   5.038 -0.3258 -0.0412  1.5203
  335SOL    HW2 3898   6.012   6.541   5.070  0.2276 -0.9454 -1.6864
  336SOL     OW 3899   3.314   2.478   7.108  0.1533 -0.1144  0.0813
  336SOL    HW1 3900   3.350   2.440   7.188  1.1750  0.7867  0.0837
  336SOL    HW2 3901   3.380   2.459   7.041 -1.2467 -1.9373 -0.8702
  337SOL     OW 3902   2.194   6.470   4.512 -0.1409 -0.0331  0.3143
  337SOL    HW1 3903   2.223   6.481   4.421 -0.4901 -0.6003  0.1298
  337SOL    HW2 3904   2.121   6.409   4.507  0.2839 -0.6193  1.0496
  338SOL     OW 3905   0.670   6.567   1.135  0.4457  0.0731  0.5678
  338SOL    HW1 3906   0.693   6.618   1.057  2.5838  0.1007  1.1281
  338SOL    HW2 3907   0.595   6.612   1.173  1.0206  1.6301 -0.0723
  339SOL     OW 3908   1.083   0.222   2.201 -0.5539 -0.4573 -0.0193
  339SOL    HW1 3909   1.051   0.311   2.190 -1.1774 -0.6167  0.4476
  339SOL    HW2 3910   1.164   0.219   2.149 -0.7159  0.2688 -0.3281
  340SOL     OW 3911   1.094   8.937   7.370  0.0089 -0.1452  0.3748
  340SOL    HW1 3912   1.043   8.883   7.430 -1.5411  1.5590  0.6771
  340SOL    HW2 3913   1.183   8.933   7.404 -0.3613 -1.2402  1.2820
  341SOL     OW 3914   2.340   0.070   1.151 -0.0854 -0.1822  0.0327
  341SOL    HW1 3915   2.434   0.081   1.159  0.0147 -1.8072  1.6922
  341SOL    HW2 3916   2.322  -0.015   1.190 -2.5106  1.0531  1.8905
  342SOL     OW 3917   1.478   7.442   5.026 -0.4476  0.1897  0.1831
  342SOL    HW1 3918   1.502   7.397   4.945 -0.2687 -1.9277  1.3254
  342SOL    HW2 3919   1.434   7.374   5.079 -2.5961  2.0720  0.9945
  343SOL     OW 3920   3.984   5.350   1.558 -0.1775 -0.0806  0.1899
  343SOL    HW1 3921   3.912   5.314   1.610  0.3815 -0.7004  0.5418
  343SOL    HW2 3922   4.025   5.274   1.517  0.7851  0.1891  0.6405
  344SOL     OW 3923   7.201   1.429   1.896 -0.0774 -0.0764  0.2569
  344SOL    HW1 3924   7.108   1.452   1.902  0.4690  2.1198  1.4610
  344SOL    HW2 3925   7.231   1.472   1.816 -0.0395 -0.5800 -0.0010
  345SOL     OW 3926   6.278   8.077   6.829  0.2787  0.1457 -0.1661
  345SOL    HW1 3927   6.210   8.107   6.768 -1.1897 -1.8391  0.3728
  345SOL    HW2 3928   6.296   7.986   6.802  1.0026 -0.1271  1.1626
  346SOL     OW 3929   8.432   3.512   0.387 -0.3721  0.0921  0.1098
  346SOL    HW1 3930   8.432   3.548   0.298 -1.0092 -1.7323 -0.6661
  346SOL    HW2 3931   8.454   3.587   0.443 -0.7308  1.4537 -1.4959
  347SOL     OW 3932   3.962   0.608   6.101  0.1465 -0.2781 -0.0147
  347SOL    HW1 3933   3.963   0.672   6.172  0.7146  0.2046 -0.4544
  347SOL    HW2 3934   3.957   0.523   6.145 -0.9648  0.0701  0.5641
  348SOL     OW 3935   7.509   3.719   1.116  0.3474 -0.7255 -0.1729
  348SOL    HW1 3936   7.480   3.629   1.101 -1.9783 -0.2164  0.8159
  348SOL    HW2 3937   7.447   3.773   1.068 -0.5814  0.4378  2.1604
  349SOL     OW 3938   4.039   0.269   8.089  0.5167 -0.1133 -0.3178
  349SOL    HW1 3939   4.127   0.283   8.054  1.1274  0.5765  1.4121
  349SOL    HW2 3940   4.051   0.262   8.184 -1.2792 -0.1382 -0.0552
  350SOL     OW 3941   2.823   4.824   6.778  0.2019  0.6384  0.4249
  350SOL    HW1 3942   2.869   4.740   6.779  0.4976  0.7948  0.1353
  350SOL    HW2 3943   2.777   4.826   6.695  0.4971  0.9222  0.2661
  351SOL     OW 3944   2.008   9.185   7.734  0.2703 -0.2656 -0.1833
  351SOL    HW1 3945   2.079   9.171   7.671 -0.1239  1.7517 -1.1573
  351SOL    HW2 3946   1.930   9.198   7.680 -0.2732  0.5257  0.7642
  352SOL     OW 3947   6.525   2.378   7.693 -0.8167 -0.8737 -0.1993
  352SOL    HW1 3948   6.542   2.300   7.640 -1.3431 -0.1589 -1.4837
  352SOL    HW2 3949   6.582   2.445   7.656 -0.4419 -0.6210  0.8258
  353SOL     OW 3950   7.681   5.621   2.590  1.0577  0.0944  0.4985
  353SOL    HW1 3951   7.724   5.620   2.505 -2.1085  1.2391 -1.2981
  353SOL    HW2 3952   7.712   5.542   2.634  0.2078 -2.5705 -3.2205
  354SOL     OW 3953   3.137   4.517   8.232  0.6080 -0.6872  0.5509
  354SOL    HW1 3954   3.083   4.570   8.173  0.3673 -1.3280  0.1891
  354SOL    HW2 3955   3.221   4.563   8.234  0.8620 -1.0339 -0.8727
  355SOL     OW 3956   6.443   1.984   1.685 -0.3965 -0.3369 -0.0706
  355SOL    HW1 3957   6.517   1.925   1.671 -1.6863 -1.8298 -0.8982
  355SOL    HW2 3958   6.472   2.068   1.650  0.4180 -1.2428 -1.6586
  356SOL     OW 3959   6.994   0.728   6.621 -0.1773 -0.1917  0.1959
  356SOL    HW1 3960   7.074   0.699   6.665  0.4951 -0.6522 -1.2601
  356SOL    HW2 3961   7.007   0.702   6.529 -0.8097  2.1320 -0.6151
  357SOL     OW 3962   7.263   4.468   1.904 -0.1414  0.1153  0.4914
  357SOL    HW1 3963   7.173   4.447   1.929 -0.0208 -0.0513  0.7943
  357SOL    HW2 3964   7.311   4.386   1.917  0.1444  0.3262  0.7606
  358SOL     OW 3965   7.619   8.823   8.110  0.6554 -0.1492  0.1501
  358SOL    HW1 3966   7.600   8.731   8.130 -2.9509 -0.4886 -3.4340
  358SOL    HW2 3967   7.664   8.821   8.026  1.5092  1.3978  0.5266
  359SOL     OW 3968   3.944   8.464   1.580 -0.5953  0.1831  0.1595
  359SOL    HW1 3969   3.945   8.368   1.575  2.5345  0.0346  1.1319
  359SOL    HW2 3970   3.881   8.484   1.649 -1.1337 -1.1777  0.0977
  360SOL     OW 3971   7.265   6.529   4.704 -0.9723 -0.1908 -0.6323
  360SOL    HW1 3972   7.330   6.476   4.751  1.4278  0.3022 -3.1333
  360SOL    HW2 3973   7.211   6.567   4.773  0.1006 -2.2672  1.4801
  361SOL     OW 3974   7.161   3.727   7.429 -0.0655 -0.0584 -0.1710
  361SOL    HW1 3975   7.217   3.792   7.472 -2.7219  1.4141  1.2873
  361SOL    HW2 3976   7.164   3.651   7.487  0.5476 -0.0707 -0.2102
  362SOL     OW 3977   4.107   4.863   7.400  0.1684 -0.6646 -0.3423
  362SOL    HW1 3978   4.190   4.885   7.359  0.5578 -1.3879  0.0320
  362SOL    HW2 3979   4.069   4.947   7.427  0.5783 -0.3046 -0.8873
  363SOL     OW 3980   8.793   0.386   1.208  0.4663  0.3626  0.5549
  363SOL    HW1 3981   8.871   0.434   1.237  0.6283  1.6875 -1.8132
  363SOL    HW2 3982   8.719   0.439   1.238  0.5529  0.3601  0.7699
  364SOL     OW 3983   3.376   9.251   7.063 -0.8954 -0.2015  0.1441
  364SOL    HW1 3984   3.319   9.324   7.086 -1.3362 -1.0771  1.9910
  364SOL    HW2 3985   3.457   9.293   7.031 -1.8495  1.0442 -0.7376
  365SOL     OW 3986   9.258   5.718   3.026 -0.0884 -0.1176  0.1341
  365SOL    HW1 3987   9.229   5.719   2.935  0.3819 -1.8895 -0.0837
  365SOL    HW2 3988   9.179   5.737   3.077 -0.4242  0.5542 -0.6223
  366SOL     OW 3989   2.502   1.116   6.563  0.8275  0.6394 -0.2565
  366SOL    HW1 3990   2.525   1.197   6.610 -0.0280  0.0167  1.3352
  366SOL    HW2 3991   2.460   1.061   6.630  2.3048 -1.5619 -1.0261
  367SOL     OW 3992   7.188   1.166   5.538 -0.2703  0.5200  0.2561
  367SOL    HW1 3993   7.278   1.147   5.562 -0.4063 -1.0111 -0.3906
  367SOL    HW2 3994   7.184   1.262   5.533  1.3953  0.5881 -0.0646
  368SOL     OW 3995   5.434   7.993   4.748  0.2613  1.0250 -0.3029
  368SOL    HW1 3996   5.520   8.021   4.715  0.8148  0.1237  0.3424
  368SOL    HW2 3997   5.409   8.061   4.811  1.3957  0.3473  0.9304
  369SOL     OW 3998   7.309   8.775   6.165 -0.0677 -0.0934 -0.2708
  369SOL    HW1 3999   7.362   8.772   6.244 -1.4218  1.1870  0.7438
  369SOL    HW2 4000   7.308   8.684   6.133  1.4179 -0.4210  0.5215
  370SOL     OW 4001   6.603   7.712   5.759 -0.0769 -0.2254 -0.9782
  370SOL    HW1 4002   6.569   7.675   5.841  0.9024 -3.9785 -2.0914
  370SOL    HW2 4003   6.528   7.711   5.699  0.1206 -1.1177 -1.2134
  371SOL     OW 4004   7.116   1.156   6.183  0.3489  0.5250  0.5715
  371SOL    HW1 4005   7.134   1.165   6.276 -2.0772  0.8433  1.0736
  371SOL    HW2 4006   7.023   1.175   6.174  0.5137  0.5578 -1.9415
  372SOL     OW 4007   6.089   4.717   2.696 -0.8442  0.3349 -0.1691
  372SOL    HW1 4008   6.018   4.743   2.638 -0.5488  1.3494 -0.0955
  372SOL    HW2 4009   6.120   4.633   2.661 -2.2192 -0.2479 -0.0529
  373SOL     OW 4010   4.744   0.256   9.148 -0.1356  0.0304  0.3037
  373SOL    HW1 4011   4.770   0.346   9.130 -0.2953  0.1739  0.8024
  373SOL    HW2 4012   4.747   0.213   9.062  0.1845  0.4441  0.1051
  374SOL     OW 4013   8.187   8.118   2.979  0.9302 -0.4695  0.1444
  374SOL    HW1 4014   8.221   8.041   2.933  2.8004  0.5256 -0.2441
  374SOL    HW2 4015   8.246   8.188   2.954 -0.4964  1.0251  0.8113
  375SOL     OW 4016   0.667   2.531   3.957 -0.4450 -0.2002  0.2939
  375SOL    HW1 4017   0.749   2.505   4.000 -0.2931 -1.0909 -0.4855
  375SOL    HW2 4018   0.629   2.597   4.015  0.2933 -0.5586  1.2184
  376SOL     OW 4019   2.402   0.268   3.588  0.6072 -0.2184  0.2408
  376SOL    HW1 4020   2.419   0.186   3.634  1.4878  1.1600  2.5256
  376SOL    HW2 4021   2.312   0.290   3.610  0.6831 -0.0906  0.4238
  377SOL     OW 4022   1.133   3.286   7.557 -0.8122 -0.0420 -0.0641
  377SOL    HW1 4023   1.042   3.263   7.573 -0.6896 -0.6277 -0.1801
  377SOL    HW2 4024   1.170   3.299   7.644 -0.2757 -2.7233  0.2021
  378SOL     OW 4025   0.050   3.080   8.561  0.4177 -0.1670 -0.0712
  378SOL    HW1 4026   0.083   3.170   8.553  1.1148 -0.5181 -1.4020
  378SOL    HW2 4027   0.083   3.050   8.646  0.1497  0.8327  0.4041
  379SOL     OW 4028   2.201   8.107   8.632  0.4554  0.0166  0.0066
  379SOL    HW1 4029   2.205   8.064   8.718  0.9987 -1.6307 -0.8083
  379SOL    HW2 4030   2.108   8.127   8.620 -0.0788 -2.3220 -0.1948
  380SOL     OW 4031   0.511   0.483   6.427 -0.5966 -0.1969 -0.9219
  380SOL    HW1 4032   0.555   0.434   6.358 -1.2637  0.0330 -1.5281
  380SOL    HW2 4033   0.580   0.529   6.474 -0.0242 -1.2058 -0.7474
  381SOL     OW 4034   5.096   7.220   6.680 -0.0172 -0.2207  0.5873
  381SOL    HW1 4035   5.140   7.264   6.753 -0.5319 -0.8054  1.2650
  381SOL    HW2 4036   5.066   7.291   6.624  2.5521  0.1915 -0.3912
  382SOL     OW 4037   5.984   2.682   6.599 -0.2897 -0.4958  0.3910
  382SOL    HW1 4038   6.001   2.621   6.527  0.6353  0.2728 -0.0626
  382SOL    HW2 4039   5.916   2.639   6.651  0.0514 -1.7208 -0.1424
  383SOL     OW 4040   7.243   3.072   2.755  0.2528 -0.6091  0.6071
  383SOL    HW1 4041   7.222   2.978   2.761  1.4617 -0.8107  2.7286
  383SOL    HW2 4042   7.192   3.103   2.680  1.1025 -3.2784 -1.2192
  384SOL     OW 4043   2.901   1.783   3.207 -0.8800 -0.1228 -0.6874
  384SOL    HW1 4044   2.919   1.749   3.119  0.6141  0.3567 -0.6026
  384SOL    HW2 4045   2.862   1.869   3.192  0.5643  0.5310 -0.9221
  385SOL     OW 4046   2.503   4.950   4.528 -0.1936  0.0158 -0.8773
  385SOL    HW1 4047   2.473   4.880   4.586  0.4188 -0.3573 -1.0032
  385SOL    HW2 4048   2.423   4.988   4.493 -0.6534  1.0768  1.1568
  386SOL     OW 4049   5.563   7.208   8.724 -0.4248  0.3034  0.3035
  386SOL    HW1 4050   5.491   7.261   8.760  0.0583  0.1376  1.5423
  386SOL    HW2 4051   5.596   7.158   8.798  1.8080  1.3102  0.0672
  387SOL     OW 4052   8.227   3.022   2.957 -0.1480 -0.3286  0.0069
  387SOL    HW1 4053   8.263   3.015   3.046  1.3723  1.8753 -0.3557
  387SOL    HW2 4054   8.286   2.971   2.903 -0.4462 -0.7735  0.0948
  388SOL     OW 4055   5.087   6.185   3.215  0.5270  0.3289 -0.2349
  388SOL    HW1 4056   5.060   6.093   3.214  2.4331 -0.3200  1.6049
  388SOL    HW2 4057   5.105   6.204   3.307 -1.1181  2.9918 -0.3613
  389SOL     OW 4058   8.926   2.471   6.555 -0.2653 -0.4605  0.0460
  389SOL    HW1 4059   8.876   2.469   6.637  0.5426  0.8839  0.6023
  389SOL    HW2 4060   8.911   2.559   6.520  0.3623 -0.6210 -0.6372
  390SOL     OW 4061   8.580   4.536   2.636 -0.8168  0.1089  0.3278
  390SOL    HW1 4062   8.570   4.587   2.717 -0.2976  1.3755 -0.3695
  390SOL    HW2 4063   8.660   4.484   2.650 -0.8345  0.1744  0.6973
  391SOL     OW 4064   4.532   6.324   3.035  0.4128 -0.4559 -0.1740
  391SOL    HW1 4065   4.564   6.304   3.123  0.8036  1.0314  0.0488
  391SOL    HW2 4066   4.612   6.340   2.983  0.3150 -3.0914 -1.3328
  392SOL     OW 4067   2.085   3.204   3.670  0.4778  0.5526 -0.5576
  392SOL    HW1 4068   2.171   3.200   3.711  0.7012 -1.9417 -1.0808
  392SOL    HW2 4069   2.026   3.162   3.733  0.4958 -1.6411 -1.8776
  393SOL     OW 4070   6.699   7.217   0.791  0.1166 -0.0474 -0.7417
  393SOL    HW1 4071   6.717   7.128   0.761 -0.0112  0.3802 -2.1643
  393SOL    HW2 4072   6.687   7.209   0.886  2.7159 -1.1381 -0.4120
  394SOL     OW 4073   1.445   7.881   1.757 -0.4455  0.0904 -0.0512
  394SOL    HW1 4074   1.449   7.968   1.797 -0.4667 -0.1054  0.3797
  394SOL    HW2 4075   1.536   7.861   1.733 -0.3041 -0.1298  0.6382
  395SOL     OW 4076   2.919   7.385   0.708 -0.7761 -0.2063  0.2682
  395SOL    HW1 4077   3.014   7.392   0.715 -0.9244  2.9223  0.5653
  395SOL    HW2 4078   2.901   7.386   0.614 -0.5690  2.6300  0.1808
  396SOL     OW 4079   6.961   6.860   1.626 -0.0294  0.4248  0.2331
  396SOL    HW1 4080   7.016   6.796   1.581  0.8911 -0.2007  2.1341
  396SOL    HW2 4081   6.883   6.810   1.651  0.3522  0.2207  1.0505
  397SOL     OW 4082   4.605   6.334   6.071 -0.2976  0.1424 -0.6147
  397SOL    HW1 4083   4.657   6.254   6.065 -1.1397 -0.4807  0.1059
  397SOL    HW2 4084   4.667   6.404   6.055  0.4991 -0.6471 -1.0566
  398SOL     OW 4085   3.129   6.466   7.111  0.1369  0.1151  0.1702
  398SOL    HW1 4086   3.128   6.536   7.046 -0.6186  0.7466  0.8378
  398SOL    HW2 4087   3.047   6.477   7.159  0.3771 -0.7466  0.7938
  399SOL     OW 4088   4.528   0.655   0.232  0.3110 -0.4316  0.4418
  399SOL    HW1 4089   4.536   0.746   0.204  2.1782 -0.1897  1.6263
  399SOL    HW2 4090   4.440   0.650   0.269 -0.5296  0.3672 -1.3243
  400SOL     OW 4091   4.994   1.750   3.153  0.8662  0.5059  0.6011
  400SOL    HW1 4092   4.930   1.809   3.193  0.3697 -1.2945  2.6650
  400SOL    HW2 4093   5.030   1.701   3.227  2.6498 -0.4381 -0.8294
  401SOL     OW 4094   5.421   7.451   2.013 -0.3066 -0.7425 -0.0520
  401SOL    HW1 4095   5.450   7.516   2.077 -1.9472  0.7439 -0.7486
  401SOL    HW2 4096   5.357   7.497   1.959  1.2606 -1.8314 -3.0222
  402SOL     OW 4097   4.864   2.000   6.611 -0.0777 -0.1327 -0.3379
  402SOL    HW1 4098   4.792   2.036   6.558 -1.3197  0.4132  1.5975
  402SOL    HW2 4099   4.821   1.968   6.691  1.8563  0.5009  1.0433
  403SOL     OW 4100   7.478   7.372   9.043  0.1217  0.4047 -0.2197
  403SOL    HW1 4101   7.557   7.352   8.993  1.1061 -1.6394  1.9837
  403SOL    HW2 4102   7.474   7.467   9.044  2.1855  0.5517 -0.9578
  404SOL     OW 4103   5.832   3.529   4.744 -0.6878  0.0857 -0.3098
  404SOL    HW1 4104   5.782   3.480   4.809 -2.8675 -0.2742 -2.1090
  404SOL    HW2 4105   5.879   3.462   4.694 -2.5515 -0.1605 -1.8628
  405SOL     OW 4106   1.501   5.921   2.956  0.8081  0.1598  0.6491
  405SOL    HW1 4107   1.473   5.830   2.946 -0.1890  0.3913  1.1358
  405SOL    HW2 4108   1.447   5.969   2.894  2.0192  0.3214 -0.3121
  406SOL     OW 4109   6.063   6.009   7.479  0.2617  0.0763  0.0717
  406SOL    HW1 4110   6.036   6.079   7.539  3.4126 -0.8604  2.8732
  406SOL    HW2 4111   6.090   6.055   7.399 -0.8441  1.7224  0.5935
  407SOL     OW 4112   8.838   1.045   3.910 -0.1254 -0.2762 -0.6259
  407SOL    HW1 4113   8.751   1.004   3.912 -1.4971  2.3491 -1.4904
  407SOL    HW2 4114   8.842   1.098   3.989  1.6481 -1.9829  0.5178
  408SOL     OW 4115   1.185   3.346   6.454  0.0949  0.1405 -0.1382
  408SOL    HW1 4116   1.127   3.270   6.458 -1.2127  0.8938 -2.6204
  408SOL    HW2 4117   1.127   3.421   6.473  0.7188  0.7471 -0.6014
  409SOL     OW 4118   0.662   7.704   3.210 -0.7255 -0.2655 -0.1093
  409SOL    HW1 4119   0.634   7.698   3.301  2.1535 -4.4887  0.8241
  409SOL    HW2 4120   0.642   7.619   3.173  1.9950 -0.2052 -2.0532
  410SOL     OW 4121   5.788   0.296   2.947 -0.2934 -0.6584 -0.7839
  410SOL    HW1 4122   5.792   0.340   2.862  2.2435 -0.3392 -0.5737
  410SOL    HW2 4123   5.831   0.212   2.932  1.0712 -0.2006  0.3597
  411SOL     OW 4124   5.509   3.441   3.719 -0.2666  0.2436  0.5660
  411SOL    HW1 4125   5.511   3.492   3.638  0.0713  2.8054  2.0542
  411SOL    HW2 4126   5.434   3.382   3.710  1.0735 -1.1805 -2.4518
  412SOL     OW 4127   5.173   6.692   2.733 -0.6765 -0.1658 -0.8598
  412SOL    HW1 4128   5.122   6.640   2.795 -1.7487 -0.1948 -1.7216
  412SOL    HW2 4129   5.249   6.638   2.713 -0.2849 -0.1269  0.4532
  413SOL     OW 4130   5.090   8.579   8.478  0.0431  0.5151  0.1136
  413SOL    HW1 4131   5.050   8.495   8.500  1.0762  0.2209  0.9734
  413SOL    HW2 4132   5.091   8.627   8.561  1.4996  0.4883  0.1378
  414SOL     OW 4133   5.055   1.078   4.159 -0.5024  0.1259  0.0614
  414SOL    HW1 4134   5.081   1.073   4.251 -0.7907  1.8527  0.2756
  414SOL    HW2 4135   5.030   1.170   4.147 -1.2224 -0.2560 -1.5399
  415SOL     OW 4136   0.499   6.267   2.607 -0.3998 -0.1804  0.2752
  415SOL    HW1 4137   0.524   6.360   2.611 -1.0130 -0.0210  0.5329
  415SOL    HW2 4138   0.490   6.248   2.514  3.0021 -0.8933 -0.0298
  416SOL     OW 4139   2.692   8.550   2.205  0.2452  0.3218  0.3954
  416SOL    HW1 4140   2.634   8.558   2.280 -1.0643  2.3867 -0.7563
  416SOL    HW2 4141   2.676   8.461   2.172  0.5448 -0.4645  2.2507
  417SOL     OW 4142   4.335   1.343   9.150 -0.0909  0.0889  0.1230
  417SOL    HW1 4143   4.322   1.438   9.157  1.2191  0.2213  1.2166
  417SOL    HW2 4144   4.294   1.307   9.229  0.2569 -0.1487  0.1986
  418SOL     OW 4145   2.495   0.966   0.051 -0.2765 -0.0999  0.1794
  418SOL    HW1 4146   2.411   0.936   0.086 -0.5518  0.5988  0.1363
  418SOL    HW2 4147   2.477   1.054   0.017  0.2203 -0.3610 -0.8113
  419SOL     OW 4148   7.397   0.425   8.608  0.1843  0.1290  0.2339
  419SOL    HW1 4149   7.309   0.456   8.632 -0.2521 -0.9179  0.0313
  419SOL    HW2 4150   7.445   0.423   8.690 -0.4990 -0.8829  0.6291
  420SOL     OW 4151   1.920   7.980   8.963  0.5271 -0.2076  0.1136
  420SOL    HW1 4152   1.989   8.017   9.018  1.0415 -0.2547 -0.4853
  420SOL    HW2 4153   1.964   7.913   8.911 -0.3779 -1.6124  1.1031
  421SOL     OW 4154   6.995   1.771   3.963  0.5066 -0.3638  0.4964
  421SOL    HW1 4155   7.012   1.829   4.038 -1.1039 -0.3063  0.8528
  421SOL    HW2 4156   6.992   1.831   3.888 -1.9897  0.2316  0.9700
  422SOL     OW 4157   3.532   8.962   6.721 -0.1943  0.3307 -0.4737
  422SOL    HW1 4158   3.561   8.874   6.696  0.1410  0.1436  0.5210
  422SOL    HW2 4159   3.442   8.950   6.751 -0.3811  0.4481 -0.9766
  423SOL     OW 4160   6.272   3.414   6.171 -0.1608  0.2845  0.7508
  423SOL    HW1 4161   6.352   3.373   6.204 -0.8315 -1.5736  0.1841
  423SOL    HW2 4162   6.281   3.506   6.196  0.4615 -0.5073  4.0246
  424SOL     OW 4163   3.388   3.634   3.665  0.3529  0.1092 -0.3071
  424SOL    HW1 4164   3.475   3.595   3.658  0.6381  0.7158 -0.2499
  424SOL    HW2 4165   3.398   3.721   3.627 -0.8387 -0.6978 -2.6877
  425SOL     OW 4166   3.947   3.751   2.693 -0.2658 -0.1598 -0.8442
  425SOL    HW1 4167   3.958   3.818   2.760 -0.8991  1.2760 -2.1334
  425SOL    HW2 4168   4.035   3.737   2.658 -0.1609  0.1060 -0.6852
  426SOL     OW 4169   8.887   2.354   6.214 -0.0396 -0.5265 -1.1000
  426SOL    HW1 4170   8.890   2.344   6.310 -0.1407  3.6924 -0.5041
  426SOL    HW2 4171   8.965   2.307   6.184  0.0902 -1.8297  0.9977
  427SOL     OW 4172   6.675   2.349   6.751  0.3726  0.1453 -0.0457
  427SOL    HW1 4173   6.706   2.439   6.752 -1.8039  0.9447  0.9201
  427SOL    HW2 4174   6.610   2.346   6.682 -0.0314 -0.5219  0.3522
  428SOL     OW 4175   4.192   1.021   5.650  0.4668 -0.0597 -0.3984
  428SOL    HW1 4176   4.193   1.049   5.558 -0.3296  2.7970  0.3658
  428SOL    HW2 4177   4.100   1.027   5.676  0.4601 -2.1936  0.2763
  429SOL     OW 4178   5.950   1.369   3.155 -0.5206  0.8834 -0.1282
  429SOL    HW1 4179   5.929   1.447   3.207  0.8844  1.7897 -0.8730
  429SOL    HW2 4180   5.909   1.386   3.070 -0.2550  0.7864 -0.2760
  430SOL     OW 4181   7.425   0.033   8.547  0.4403  0.1176  0.2340
  430SOL    HW1 4182   7.400   0.089   8.474 -1.2128  1.1231  1.5006
  430SOL    HW2 4183   7.427  -0.055   8.509 -2.1660  0.3599 -0.7024
  431SOL     OW 4184   9.238   4.728   3.764 -0.5619  0.3242  0.0633
  431SOL    HW1 4185   9.297   4.656   3.786  0.1482  0.6107 -0.8259
  431SOL    HW2 4186   9.158   4.710   3.813 -0.9354 -1.8571 -1.2387
  432SOL     OW 4187   2.201   4.230   2.886  0.0828  0.0831 -0.2681
  432SOL    HW1 4188   2.230   4.226   2.977  0.1935  0.2217 -0.2976
  432SOL    HW2 4189   2.258   4.168   2.841 -0.3328 -0.3987 -0.1468
  433SOL     OW 4190   6.659   6.773   2.654  0.4416  0.2767 -0.3521
  433SOL    HW1 4191   6.731   6.754   2.715 -0.9246  0.4150  1.3860
  433SOL    HW2 4192   6.676   6.863   2.626  1.8426 -0.2531 -1.2994
  434SOL     OW 4193   3.419   1.166   3.605 -0.4113  0.2904  0.0984
  434SOL    HW1 4194   3.325   1.179   3.589 -0.5178  1.4471  1.4719
  434SOL    HW2 4195   3.426   1.161   3.700  0.6896 -1.9380 -0.0452
  435SOL     OW 4196   6.233   8.419   3.200 -0.4345 -0.4444 -0.1900
  435SOL    HW1 4197   6.299   8.386   3.140 -0.6367 -1.8192  0.3081
  435SOL    HW2 4198   6.197   8.341   3.242 -1.7834  0.3280  0.1696
  436SOL     OW 4199   0.408   0.905   0.839 -0.2910 -0.1227 -0.2192
  436SOL    HW1 4200   0.331   0.962   0.845 -0.5066 -0.1025 -2.3299
  436SOL    HW2 4201   0.480   0.965   0.818 -0.4423 -0.5112 -2.0262
  437SOL     OW 4202   7.791   4.983   4.519  0.3817 -0.7486  0.1234
  437SOL    HW1 4203   7.752   4.896   4.532  0.5677 -1.4893 -3.4276
  437SOL    HW2 4204   7.874   4.965   4.475  1.0872  1.2029  0.5695
  438SOL     OW 4205   0.605   3.391   1.569  0.7654  0.2872  1.1266
  438SOL    HW1 4206   0.645   3.350   1.492  0.9126 -1.3702  2.0181
  438SOL    HW2 4207   0.675   3.445   1.606  1.9850 -1.7803  2.0907
  439SOL     OW 4208   4.382   0.082   6.332 -0.1847  0.2692  0.0176
  439SOL    HW1 4209   4.438   0.153   6.302 -0.8199  0.7661 -0.0268
  439SOL    HW2 4210   4.294   0.121   6.335 -0.5033 -0.4497  0.2144
  440SOL     OW 4211   2.239   7.064   1.998  0.1489  0.8354  0.1817
  440SOL    HW1 4212   2.249   6.968   1.998 -1.2629  0.6719  0.4221
  440SOL    HW2 4213   2.247   7.088   1.906  1.0989  0.5662  0.1826
  441SOL     OW 4214   6.162   8.707   9.083 -0.1763  1.1331 -0.4335
  441SOL    HW1 4215   6.089   8.667   9.131 -1.2922  1.4055 -1.8274
  441SOL    HW2 4216   6.215   8.633   9.053 -1.0736  0.7853 -1.2126
  442SOL     OW 4217   6.148   6.636   8.777  0.2575 -0.8097  0.2381
  442SOL    HW1 4218   6.072   6.587   8.747  1.4248 -1.2718 -2.2036
  442SOL    HW2 4219   6.211   6.570   8.805  0.1233 -0.4672  1.4094
  443SOL     OW 4220   2.573   1.391   1.013  0.1116 -0.0118 -0.1949
  443SOL    HW1 4221   2.561   1.368   1.105 -1.9244 -3.4311 -1.1598
  443SOL    HW2 4222   2.506   1.457   0.996 -1.4658 -1.4942  0.1322
  444SOL     OW 4223   1.434   5.991   4.528  0.2241 -0.2738  0.3255
  444SOL    HW1 4224   1.517   6.034   4.510 -0.7726  1.8177  0.4292
  444SOL    HW2 4225   1.440   5.906   4.484  2.3236 -0.1007  0.2130
  445SOL     OW 4226   3.946   7.744   0.044 -0.0509 -0.5634 -0.2591
  445SOL    HW1 4227   4.023   7.692   0.068 -0.1950 -0.0988  1.3403
  445SOL    HW2 4228   3.969   7.785  -0.039  1.2337 -0.8161 -0.0425
  446SOL     OW 4229   7.261   4.606   1.120  0.0796  0.0690  0.3008
  446SOL    HW1 4230   7.290   4.597   1.211  0.1247  1.2723  0.4182
  446SOL    HW2 4231   7.193   4.540   1.110  0.5794 -0.5672  0.9879
  447SOL     OW 4232   7.063   6.050   1.477  1.0945  0.9215  0.5424
  447SOL    HW1 4233   7.046   6.140   1.449 -2.4786  0.2057 -0.1335
  447SOL    HW2 4234   7.025   5.996   1.407  2.4712 -1.1373  1.2949
  448SOL     OW 4235   8.055   8.287   0.888 -0.2853 -0.3369 -0.1798
  448SOL    HW1 4236   8.078   8.318   0.801  0.0578 -0.7776 -0.2453
  448SOL    HW2 4237   8.129   8.233   0.916 -0.1389  0.2513  0.6146
  449SOL     OW 4238   7.609   1.087   8.332 -0.5184 -0.2442 -0.1287
  449SOL    HW1 4239   7.535   1.060   8.278 -1.5933  0.1906  1.0698
  449SOL    HW2 4240   7.596   1.042   8.415  1.2540 -1.1291 -0.2805
  450SOL     OW 4241   3.366   7.855   8.312  0.3674 -0.6825 -0.2875
  450SOL    HW1 4242   3.459   7.857   8.288  0.3589 -0.9120 -0.3504
  450SOL    HW2 4243   3.350   7.939   8.355  0.3500 -0.2074 -1.2007
  451SOL     OW 4244   3.916   7.257   5.680 -0.2644 -0.2462  0.0840
  451SOL    HW1 4245   3.856   7.191   5.646 -0.0670 -0.4162  0.0585
  451SOL    HW2 4246   3.939   7.310   5.604 -0.5261 -0.0654  0.1299
  452SOL     OW 4247   7.242   3.888   1.233  0.2506 -0.5837 -0.1597
  452SOL    HW1 4248   7.203   3.837   1.162 -0.8059  0.1694 -0.1437
  452SOL    HW2 4249   7.167   3.922   1.283  0.7601  2.7783 -1.4130
  453SOL     OW 4250   8.232   0.157   2.114 -0.1306 -0.1442  0.1636
  453SOL    HW1 4251   8.263   0.221   2.050  2.0061 -1.7740 -0.5700
  453SOL    HW2 4252   8.144   0.135   2.084 -0.6011  1.8101 -0.0250
  454SOL     OW 4253   0.516   3.359   7.361 -0.4533 -0.4952 -0.1177
  454SOL    HW1 4254   0.562   3.363   7.277 -0.0854  1.3946  0.1202
  454SOL    HW2 4255   0.542   3.275   7.399  0.9900 -0.4857 -0.9917
  455SOL     OW 4256   3.580   1.146   2.750  0.4310  0.2372  0.1708
  455SOL    HW1 4257   3.586   1.051   2.751 -0.4409  0.0808 -2.6378
  455SOL    HW2 4258   3.492   1.165   2.783 -0.5246 -0.1593 -2.0155
  456SOL     OW 4259   1.307   2.029   9.151  0.0915  0.5190  0.8958
  456SOL    HW1 4260   1.320   1.952   9.206  0.2449  0.2345  0.4679
  456SOL    HW2 4261   1.236   2.077   9.193  0.7911  0.7632  1.8315
  457SOL     OW 4262   5.749   5.914   6.459 -0.2386  0.4259  0.4423
  457SOL    HW1 4263   5.808   5.962   6.401 -2.0941  2.8368  0.3639
  457SOL    HW2 4264   5.723   5.836   6.409  2.7231 -0.6889  0.4775
  458SOL     OW 4265   0.763   7.521   1.916 -0.2782  0.0922  0.5293
  458SOL    HW1 4266   0.789   7.525   2.008 -2.6101  0.6004  1.2297
  458SOL    HW2 4267   0.755   7.427   1.897  1.1395 -0.0441  0.5294
  459SOL     OW 4268   5.224   1.149   2.541 -0.4187  0.0692 -0.5098
  459SOL    HW1 4269   5.253   1.230   2.499  0.6673 -0.5278 -0.9693
  459SOL    HW2 4270   5.174   1.103   2.474 -0.5070  0.0783 -0.4507
  460SOL     OW 4271   7.107   6.344   3.190 -0.5519  0.0528 -0.2415
  460SOL    HW1 4272   7.086   6.339   3.097  2.0969 -0.4251 -0.8695
  460SOL    HW2 4273   7.119   6.437   3.208 -1.4603  0.1799 -0.2546
  461SOL     OW 4274   7.910   0.797   4.663 -0.2680 -0.1708 -0.5020
  461SOL    HW1 4275   7.846   0.728   4.646 -0.9206  0.1812  0.4611
  461SOL    HW2 4276   7.897   0.859   4.590  0.2805 -1.0106 -1.3336
  462SOL     OW 4277   3.134   7.968   1.800 -0.3056  0.1396 -0.2603
  462SOL    HW1 4278   3.156   7.875   1.798 -0.8902  0.0026 -1.6743
  462SOL    HW2 4279   3.058   7.973   1.859 -1.3674 -0.5720 -1.4948
  463SOL     OW 4280   9.126   5.253   4.771 -0.3844 -1.1034 -0.1041
  463SOL    HW1 4281   9.120   5.348   4.779 -0.9438 -1.2708  2.2862
  463SOL    HW2 4282   9.041   5.226   4.736 -0.5060 -0.7908 -0.0474
  464SOL     OW 4283   0.035   0.479   5.172  0.6632  0.2765  0.1097
  464SOL    HW1 4284   0.006   0.411   5.233  0.6529  0.3351  0.1709
  464SOL    HW2 4285   0.075   0.546   5.228 -0.0147  0.6783  0.1280
  465SOL     OW 4286   8.464   2.838   3.854  0.2070  0.5998 -0.2361
  465SOL    HW1 4287   8.477   2.892   3.932  0.4467 -0.4411  0.4628
  465SOL    HW2 4288   8.451   2.749   3.888 -0.8503  0.3124 -1.3257
  466SOL     OW 4289   0.296   0.778   4.775  0.5585 -0.1518 -0.2943
  466SOL    HW1 4290   0.265   0.824   4.853  2.4766  3.1314 -1.2851
  466SOL    HW2 4291   0.279   0.685   4.794 -2.2780  0.7308  2.4609
  467SOL     OW 4292   6.384   5.010   2.413 -0.0113  0.2666  0.5641
  467SOL    HW1 4293   6.430   5.037   2.334  0.0136 -1.1851  0.0576
  467SOL    HW2 4294   6.300   5.057   2.409 -0.5034 -0.6794 -0.9601
  468SOL     OW 4295   9.078   9.217   6.893  0.5692  0.0066 -0.4538
  468SOL    HW1 4296   9.105   9.309   6.887  0.1756  0.0814 -1.1645
  468SOL    HW2 4297   9.016   9.206   6.821 -2.5721  0.2366  2.0135
  469SOL     OW 4298   7.791   0.750   2.744  0.2617  0.5569 -0.3655
  469SOL    HW1 4299   7.708   0.706   2.726  1.0058 -1.6030  0.9929
  469SOL    HW2 4300   7.848   0.726   2.671 -0.0454  1.3359 -0.8683
  470SOL     OW 4301   7.005   1.510   2.358 -0.5931  0.0844 -0.1021
  470SOL    HW1 4302   7.003   1.416   2.339  1.9654 -0.1727  0.4923
  470SOL    HW2 4303   7.020   1.515   2.452 -0.2003  1.0753 -0.2067
  471SOL     OW 4304   2.022   7.971   7.089  0.4862 -0.3679 -0.1411
  471SOL    HW1 4305   2.023   7.891   7.141  0.7761 -0.4906 -0.3274
  471SOL    HW2 4306   2.013   8.042   7.152  1.6974 -0.4631  0.1555
  472SOL     OW 4307   6.835   3.661   4.794 -0.3245  0.0312  0.0815
  472SOL    HW1 4308   6.850   3.603   4.719 -2.4833  0.3537 -0.6908
  472SOL    HW2 4309   6.751   3.704   4.775  0.3107  2.0596  1.4942
  473SOL     OW 4310   8.600   2.576   1.949  0.0708 -0.8556  0.3344
  473SOL    HW1 4311   8.582   2.546   1.860  0.7804  1.3206 -0.6186
  473SOL    HW2 4312   8.602   2.496   2.001 -1.2439 -2.1191 -1.4242
  474SOL     OW 4313   6.318   8.500   7.348 -0.1481  0.4395  0.0937
  474SOL    HW1 4314   6.223   8.507   7.335 -0.2845 -1.4168 -0.1942
  474SOL    HW2 4315   6.355   8.527   7.265 -0.4713  0.1973 -0.1322
  475SOL     OW 4316   6.880   3.802   3.292 -0.1510 -0.3756  0.3266
  475SOL    HW1 4317   6.893   3.896   3.276 -0.1533 -0.3156  0.6706
  475SOL    HW2 4318   6.966   3.763   3.277 -0.2348 -0.3733 -0.1896
  476SOL     OW 4319   7.612   3.109   6.528 -0.1091  0.4299 -0.3035
  476SOL    HW1 4320   7.551   3.167   6.575  0.3448 -0.6303  1.7309
  476SOL    HW2 4321   7.664   3.168   6.473 -0.4833  1.8112  0.7551
  477SOL     OW 4322   3.976   2.040   9.031 -0.3180 -0.6387  0.4538
  477SOL    HW1 4323   3.988   2.134   9.017  3.7157 -0.9569  0.4976
  477SOL    HW2 4324   3.979   2.001   8.944  0.0047 -0.8354  0.5478
  478SOL     OW 4325   0.979   8.556   1.266  0.0948  0.6087  0.4863
  478SOL    HW1 4326   0.919   8.482   1.280 -0.7047  0.8010 -1.5982
  478SOL    HW2 4327   1.065   8.515   1.255 -0.1839  0.0520  0.3357
  479SOL     OW 4328   1.870   3.542   8.558  0.1065  0.5755 -0.2880
  479SOL    HW1 4329   1.942   3.590   8.598 -1.4041  1.8248  1.0817
  479SOL    HW2 4330   1.796   3.558   8.616 -0.8833 -2.0854 -0.7041
  480SOL     OW 4331   8.005   8.701   3.373  0.7705  0.4432 -0.2516
  480SOL    HW1 4332   7.954   8.621   3.386 -1.2155  1.7450  0.4301
  480SOL    HW2 4333   7.963   8.745   3.300  2.7565  0.2323 -1.6045
  481SOL     OW 4334   1.862   3.574   2.354  0.5200 -0.3614  0.4683
  481SOL    HW1 4335   1.937   3.632   2.339 -0.1994  0.1276 -1.5045
  481SOL    HW2 4336   1.837   3.591   2.445  0.1393  2.7064 -0.0988
  482SOL     OW 4337   4.001   4.757   0.202  0.1559  0.1278  0.2798
  482SOL    HW1 4338   4.021   4.819   0.131 -0.8582  0.3799  0.1979
  482SOL    HW2 4339   3.919   4.789   0.239  0.4800 -0.2261  1.3281
  483SOL     OW 4340   3.750   3.316   2.194 -0.3061 -0.3667  0.2009
  483SOL    HW1 4341   3.781   3.230   2.223  1.0477  0.4715  1.3793
  483SOL    HW2 4342   3.820   3.349   2.138 -1.0447 -0.2218 -0.6559
  484SOL     OW 4343   1.180   4.762   3.578  0.1785 -0.3045  0.2673
  484SOL    HW1 4344   1.191   4.779   3.485 -1.0500 -2.7237 -0.4021
  484SOL    HW2 4345   1.266   4.777   3.616  0.7475  0.5515 -1.2771
  485SOL     OW 4346   7.687   0.920   2.269 -0.4745  0.0417 -0.3292
  485SOL    HW1 4347   7.645   0.985   2.214 -1.3264 -1.7919 -1.9337
  485SOL    HW2 4348   7.627   0.908   2.343 -0.3591  0.9600 -0.0741
  486SOL     OW 4349   7.833   3.362   0.318 -0.1351 -0.4840  0.0900
  486SOL    HW1 4350   7.835   3.272   0.285  0.8852 -0.7486  0.8251
  486SOL    HW2 4351   7.740   3.386   0.316 -0.5862 -1.9856  1.0193
  487SOL     OW 4352   0.914   3.104   5.137 -0.4836 -0.6456  0.3121
  487SOL    HW1 4353   0.878   3.031   5.088 -1.3267 -0.8074  1.1473
  487SOL    HW2 4354   0.885   3.182   5.090 -0.3443 -0.8228 -0.0694
  488SOL     OW 4355   6.436   6.666   5.879  0.4320  0.4388  0.3182
  488SOL    HW1 4356   6.489   6.629   5.949 -0.4369 -0.3268  0.5874
  488SOL    HW2 4357   6.348   6.672   5.915 -0.4152 -1.5409 -1.1983
  489SOL     OW 4358   8.657   0.755   6.722  0.4369 -0.6800 -0.8158
  489SOL    HW1 4359   8.675   0.661   6.721 -1.6959 -1.1231 -1.8248
  489SOL    HW2 4360   8.636   0.774   6.814  1.4958 -1.0250 -0.4838
  490SOL     OW 4361   8.931   8.806   3.154  0.0878 -0.2614 -0.3838
  490SOL    HW1 4362   8.933   8.867   3.228 -0.3349 -0.2412 -0.3881
  490SOL    HW2 4363   9.015   8.761   3.158 -0.2851 -0.8775  0.6153
  491SOL     OW 4364   5.286   3.221   8.260  0.3702  0.2400 -0.1709
  491SOL    HW1 4365   5.231   3.179   8.194  2.3799 -1.8935 -0.5901
  491SOL    HW2 4366   5.283   3.162   8.335  1.4062  0.5259  0.1070
  492SOL     OW 4367   7.201   0.025   8.735 -0.1892 -0.0317  0.1484
  492SOL    HW1 4368   7.271   0.026   8.669 -0.6962 -0.4399 -0.4047
  492SOL    HW2 4369   7.247   0.040   8.818  0.6011 -0.6022 -0.1692
  493SOL     OW 4370   0.247   1.752   2.009 -0.0999  0.1081  0.3177
  493SOL    HW1 4371   0.247   1.676   2.068 -1.0378 -1.8108 -1.9719
  493SOL    HW2 4372   0.336   1.756   1.975 -0.2191 -0.4830 -0.0948
  494SOL     OW 4373   4.610   7.064   3.613  0.9184  0.2192 -0.5978
  494SOL    HW1 4374   4.573   7.067   3.525  0.9202  1.2057 -0.5758
  494SOL    HW2 4375   4.663   7.144   3.619  0.6107  0.3550  0.4280
  495SOL     OW 4376   7.008   1.197   8.899  0.1013 -0.1349 -0.0137
  495SOL    HW1 4377   7.033   1.254   8.826 -0.6213 -0.0116 -0.1686
  495SOL    HW2 4378   7.084   1.199   8.957  0.8709 -0.6055 -0.9778
  496SOL     OW 4379   4.140   5.825   4.797  0.2319  0.3178  0.5139
  496SOL    HW1 4380   4.059   5.798   4.839  0.5027 -0.6821  0.4087
  496SOL    HW2 4381   4.112   5.885   4.727 -0.2998  1.0889  1.3706
  497SOL     OW 4382   3.987   8.909   5.423 -0.1556 -0.1319  0.2588
  497SOL    HW1 4383   3.993   8.894   5.518  2.4137 -1.0022  0.0393
  497SOL    HW2 4384   4.076   8.931   5.397 -1.1534  1.8916 -1.7326
  498SOL     OW 4385   2.819   4.427   3.940 -0.0983 -0.3835 -0.2414
  498SOL    HW1 4386   2.774   4.478   3.873 -0.8733 -0.1955  0.3947
  498SOL    HW2 4387   2.769   4.444   4.020  1.0510 -0.2692  0.4690
  499SOL     OW 4388   1.489   3.804   7.594  0.1230  0.4477 -0.0381
  499SOL    HW1 4389   1.441   3.885   7.609 -1.2279 -0.4050  0.4770
  499SOL    HW2 4390   1.433   3.753   7.536 -0.0163 -0.9006  1.2248
  500SOL     OW 4391   2.812   6.511   7.767  0.5397 -0.6133 -0.4197
  500SOL    HW1 4392   2.890   6.458   7.780 -0.7752 -2.3537  0.7308
  500SOL    HW2 4393   2.794   6.506   7.673  0.6624 -1.8850 -0.3825
  501SOL     OW 4394   4.780   8.398   4.133 -0.0047 -0.1592  0.1248
  501SOL    HW1 4395   4.863   8.445   4.141  0.3777 -0.8934  0.5983
  501SOL    HW2 4396   4.764   8.394   4.039 -1.0713  2.6366  0.1009
  502SOL     OW 4397   0.576   1.768   6.610 -0.2304 -0.0360 -0.0891
  502SOL    HW1 4398   0.631   1.803   6.540  0.8503 -0.9368  0.2889
  502SOL    HW2 4399   0.599   1.819   6.687 -0.0943 -0.2617  0.0198
  503SOL     OW 4400   4.219   4.074   8.651 -0.0881  0.2687 -0.4245
  503SOL    HW1 4401   4.165   4.028   8.588  1.6891 -1.8461 -0.5264
  503SOL    HW2 4402   4.295   4.104   8.600  1.5006 -1.7019  0.6341
  504SOL     OW 4403   1.912   8.664   0.199  0.3993 -0.1368  0.9936
  504SOL    HW1 4404   1.984   8.644   0.258  0.1658 -1.7487  0.7619
  504SOL    HW2 4405   1.953   8.672   0.112  0.4789  0.3417  1.0717
  505SOL     OW 4406   2.723   2.027   4.404  0.2853  0.1707  0.0235
  505SOL    HW1 4407   2.652   2.026   4.340 -1.2122 -0.8938  1.6181
  505SOL    HW2 4408   2.757   1.937   4.405  2.3095  0.8286 -1.3083
  506SOL     OW 4409   6.051   5.210   3.392 -0.4647 -0.6676  0.0973
  506SOL    HW1 4410   5.990   5.231   3.321 -1.1931  0.0418  0.9067
  506SOL    HW2 4411   6.135   5.194   3.348 -0.8762 -0.1504 -0.9061
  507SOL     OW 4412   4.188   7.675   6.343  0.0163 -0.6136 -0.3723
  507SOL    HW1 4413   4.227   7.712   6.264 -1.0262 -1.4827 -1.3276
  507SOL    HW2 4414   4.250   7.697   6.413 -0.4135  2.7344 -0.8871
  508SOL     OW 4415   3.843   5.148   4.517 -0.0446  0.3973 -0.3028
  508SOL    HW1 4416   3.846   5.149   4.613 -3.4341  0.2792 -0.0820
  508SOL    HW2 4417   3.801   5.231   4.493 -1.2172 -0.4998 -1.4979
  509SOL     OW 4418   6.273   5.105   8.833 -0.0826 -0.7302  0.5989
  509SOL    HW1 4419   6.264   5.184   8.780 -1.7714 -2.0541 -1.2454
  509SOL    HW2 4420   6.253   5.134   8.922  1.8576  1.3667  0.4208
  510SOL     OW 4421   1.849   7.524   1.294  0.3547  0.1020 -0.7780
  510SOL    HW1 4422   1.826   7.431   1.294  0.5870  0.0199  0.9920
  510SOL    HW2 4423   1.923   7.531   1.354  1.0208  1.2949 -1.6795
  511SOL     OW 4424   1.251   1.874   2.937 -0.2124  0.2665  0.0133
  511SOL    HW1 4425   1.200   1.923   2.872 -0.3095  0.3455  0.1495
  511SOL    HW2 4426   1.186   1.843   3.000 -0.2443 -0.6106 -0.4250
  512SOL     OW 4427   6.353   1.909   1.114  0.6088  0.3833 -0.9171
  512SOL    HW1 4428   6.319   1.994   1.144  0.1355 -0.8702  2.5056
  512SOL    HW2 4429   6.275   1.858   1.093  0.6986 -0.1356 -0.0540
  513SOL     OW 4430   3.018   9.035   6.452  0.4507  0.8986 -0.1458
  513SOL    HW1 4431   2.973   9.073   6.377  3.0310  1.4712 -1.5106
  513SOL    HW2 4432   3.019   8.941   6.435 -1.4197  0.7011  0.6405
  514SOL     OW 4433   5.354   7.401   4.066  0.1147 -0.5532  0.1709
  514SOL    HW1 4434   5.362   7.307   4.082  2.5830 -0.0476  2.7740
  514SOL    HW2 4435   5.444   7.434   4.071 -0.4179  1.7399 -2.7049
  515SOL     OW 4436   9.205   9.077   6.549 -0.2822  0.1084 -0.2645
  515SOL    HW1 4437   9.299   9.076   6.564 -0.3794  1.2055  0.5661
  515SOL    HW2 4438   9.168   9.107   6.632 -1.4561 -1.3613 -0.2072
  516SOL     OW 4439   5.505   0.427   1.375 -0.6377 -0.1986 -0.0789
  516SOL    HW1 4440   5.460   0.419   1.459  0.1866 -0.9044  0.3155
  516SOL    HW2 4441   5.595   0.398   1.394 -0.1649  0.6576 -0.9623
  517SOL     OW 4442   0.231   7.263   3.656  0.3932 -0.2902  0.9603
  517SOL    HW1 4443   0.210   7.208   3.580  0.2162 -1.2331  1.6643
  517SOL    HW2 4444   0.327   7.261   3.661  0.3467 -2.3971  2.2512
  518SOL     OW 4445   5.177   1.565   7.395  0.2701  0.0173  0.6736
  518SOL    HW1 4446   5.145   1.487   7.352 -0.8365  0.8101  0.0070
  518SOL    HW2 4447   5.220   1.533   7.475 -2.6927 -1.1157  1.9553
  519SOL     OW 4448   8.363   8.313   2.881 -0.3041  0.0181  0.3113
  519SOL    HW1 4449   8.356   8.402   2.847 -0.0936  0.8692  2.3433
  519SOL    HW2 4450   8.440   8.277   2.837  0.8033  1.5554  0.9061
  520SOL     OW 4451   3.981   2.703   2.916 -0.2379 -0.4661  0.2769
  520SOL    HW1 4452   3.961   2.792   2.945  0.2625  0.5707 -2.2971
  520SOL    HW2 4453   4.009   2.658   2.995 -2.0394  1.1680  1.9628
  521SOL     OW 4454   4.427   7.256   5.311  0.0587 -0.5466  1.0017
  521SOL    HW1 4455   4.392   7.345   5.303 -0.9666 -0.8577  1.8219
  521SOL    HW2 4456   4.366   7.212   5.369  0.5473 -1.8062  0.5822
  522SOL     OW 4457   7.298   4.951   6.587 -0.2262 -0.2083  0.5300
  522SOL    HW1 4458   7.286   4.926   6.495  0.6164  0.0648  0.3324
  522SOL    HW2 4459   7.226   5.011   6.605 -0.3043 -0.1374  0.0012
  523SOL     OW 4460   8.065   8.723   0.378  0.1912  0.7137  0.0322
  523SOL    HW1 4461   8.108   8.659   0.322  0.0907  1.2481 -0.6569
  523SOL    HW2 4462   8.051   8.799   0.323  0.4513  1.3995  0.8930
  524SOL     OW 4463   7.348   3.548   2.419  0.5921  0.3748 -0.8608
  524SOL    HW1 4464   7.399   3.554   2.338 -2.5094 -0.3824 -3.0349
  524SOL    HW2 4465   7.282   3.616   2.411 -0.3326 -0.2997  0.6415
  525SOL     OW 4466   3.645   6.882   8.936 -0.2138  0.0274  0.0814
  525SOL    HW1 4467   3.601   6.966   8.920 -0.3156 -0.1202 -0.4260
  525SOL    HW2 4468   3.589   6.818   8.891  0.8590 -0.0925 -1.1376
  526SOL     OW 4469   6.844   3.308   8.332  0.1730  0.4879  0.8594
  526SOL    HW1 4470   6.871   3.223   8.296 -0.7722  0.4572  0.1744
  526SOL    HW2 4471   6.910   3.369   8.303  0.0580  0.2449  0.0741
  527SOL     OW 4472   7.722   8.241   0.690 -0.1913 -0.0132  0.3526
  527SOL    HW1 4473   7.736   8.223   0.783 -1.1162 -0.1456  0.4805
  527SOL    HW2 4474   7.752   8.331   0.679 -0.2695  0.0774  0.8297
  528SOL     OW 4475   2.485   4.892   7.627  1.1519 -0.4861 -0.0247
  528SOL    HW1 4476   2.404   4.843   7.613  0.7804  0.0626  0.1584
  528SOL    HW2 4477   2.455   4.980   7.651  1.7797  0.7328 -3.2349
  529SOL     OW 4478   7.959   4.320   6.902 -0.7254 -0.4572 -0.2504
  529SOL    HW1 4479   8.004   4.371   6.835  0.9523  1.8287  2.3620
  529SOL    HW2 4480   8.029   4.270   6.944 -1.4732 -0.7901  0.6317
  530SOL     OW 4481   3.808   3.689   8.770 -0.3222 -0.5123 -0.4314
  530SOL    HW1 4482   3.828   3.780   8.744  0.2957 -0.1048  1.3605
  530SOL    HW2 4483   3.714   3.679   8.751 -0.2742  0.3117 -1.1703
  531SOL     OW 4484   6.968   2.517   4.275  0.2377 -0.0059 -0.2925
  531SOL    HW1 4485   6.992   2.577   4.345 -1.0251  0.5586 -0.3067
  531SOL    HW2 4486   7.015   2.437   4.295  0.9500  0.5746  0.4497
  532SOL     OW 4487   3.925   1.919   2.071  0.3907 -0.1290  0.1126
  532SOL    HW1 4488   3.840   1.879   2.090  0.8338 -0.9752  0.3929
  532SOL    HW2 4489   3.950   1.962   2.152 -0.0748  0.7084 -0.1808
  533SOL     OW 4490   3.337   4.288   1.979 -0.3330 -0.1982 -0.1556
  533SOL    HW1 4491   3.250   4.267   1.946 -1.0564  1.0329  0.8466
  533SOL    HW2 4492   3.326   4.372   2.025  1.1129 -0.5999  1.0382
  534SOL     OW 4493   3.346   4.673   2.552 -0.9000  0.1700 -0.0329
  534SOL    HW1 4494   3.304   4.596   2.590  2.3605 -0.4895  2.7342
  534SOL    HW2 4495   3.389   4.640   2.473 -4.2241  0.6062 -2.2025
  535SOL     OW 4496   8.295   8.606   3.395  0.0693 -0.2675  0.4325
  535SOL    HW1 4497   8.303   8.599   3.300  1.6566 -1.9777  0.6405
  535SOL    HW2 4498   8.200   8.609   3.411 -0.2247  1.3886 -1.2311
  536SOL     OW 4499   7.518   1.103   3.276  0.0143 -0.3500  0.0331
  536SOL    HW1 4500   7.464   1.115   3.354  1.7012  0.3595  1.1617
  536SOL    HW2 4501   7.566   1.022   3.291 -1.2913 -1.4234 -1.3395
  537SOL     OW 4502   3.124   7.844   0.193  0.5921  0.0203  0.5178
  537SOL    HW1 4503   3.118   7.857   0.099  0.7055  1.8238  0.7214
  537SOL    HW2 4504   3.041   7.877   0.227  1.2779  1.1516  1.1779
  538SOL     OW 4505   6.709   8.634   9.085  0.0873 -0.0358 -0.5953
  538SOL    HW1 4506   6.679   8.600   9.000  0.5334 -0.3982 -0.6103
  538SOL    HW2 4507   6.717   8.729   9.071  0.7066 -0.1551 -1.1398
  539SOL     OW 4508   6.526   5.275   6.014 -0.2594 -1.1715  0.2797
  539SOL    HW1 4509   6.441   5.310   5.987  0.9864  1.1035 -1.0483
  539SOL    HW2 4510   6.519   5.264   6.109 -0.3234  4.9230  1.3807
  540SOL     OW 4511   3.752   8.141   3.618  0.0561  0.2418 -0.5728
  540SOL    HW1 4512   3.780   8.067   3.672  1.0789 -0.9572 -2.6418
  540SOL    HW2 4513   3.680   8.180   3.667  0.6770 -0.9965  1.4544
  541SOL     OW 4514   0.703   7.299   6.829 -0.4986 -0.2330 -0.3674
  541SOL    HW1 4515   0.754   7.346   6.895  1.0133 -0.5647 -1.2330
  541SOL    HW2 4516   0.648   7.239   6.879 -2.3072  2.2149  0.7528
  542SOL     OW 4517   2.327   4.204   7.232 -0.4170 -0.1845  0.3523
  542SOL    HW1 4518   2.299   4.161   7.312 -0.5050 -0.0510  0.3948
  542SOL    HW2 4519   2.422   4.208   7.238 -0.2832 -1.7264 -0.3498
  543SOL     OW 4520   7.874   4.894   4.948 -0.0362  0.2011 -0.0248
  543SOL    HW1 4521   7.951   4.887   4.892  0.3075  2.1927  0.1389
  543SOL    HW2 4522   7.907   4.875   5.036 -0.0662 -0.4583 -0.1501
  544SOL     OW 4523   6.663   4.269   5.315 -0.4497 -0.1355  0.2802
  544SOL    HW1 4524   6.723   4.237   5.383  0.6659  0.6308 -0.3062
  544SOL    HW2 4525   6.683   4.362   5.308 -0.9623 -0.0886 -0.6752
  545SOL     OW 4526   4.380   8.655   0.432 -0.0661  0.0893  0.0159
  545SOL    HW1 4527   4.358   8.670   0.524 -1.2949  1.8264 -0.5123
  545SOL    HW2 4528   4.330   8.576   0.408 -0.2687  0.0148  0.6715
  546SOL     OW 4529   3.537   9.013   3.895 -0.3840  0.3602 -0.2742
  546SOL    HW1 4530   3.465   8.999   3.833  0.3651 -1.1063 -0.8595
  546SOL    HW2 4531   3.595   9.074   3.849 -0.4261  0.2283 -0.5063
  547SOL     OW 4532   7.006   5.133   6.167  0.2141 -0.0011 -0.0614
  547SOL    HW1 4533   6.935   5.087   6.212  0.0738 -1.2216 -1.4629
  547SOL    HW2 4534   6.961   5.195   6.109  0.4007  2.0782  1.8776
  548SOL     OW 4535   1.506   4.134   4.456  0.1596  0.2238  0.1064
  548SOL    HW1 4536   1.527   4.077   4.382  0.0764  0.0528  0.2125
  548SOL    HW2 4537   1.412   4.121   4.470  0.1945  0.1783  0.3033
  549SOL     OW 4538   2.467   3.068   2.516  0.2218 -0.9072 -0.1445
  549SOL    HW1 4539   2.419   3.049   2.435 -0.9300  1.0337  0.0135
  549SOL    HW2 4540   2.405   3.119   2.569  1.8605  0.1336  0.8408
  550SOL     OW 4541   3.924   5.710   2.248 -0.0949  0.0557 -0.5803
  550SOL    HW1 4542   3.858   5.642   2.263  0.6249 -0.8187 -1.2423
  550SOL    HW2 4543   3.917   5.730   2.154  2.0998 -1.7267 -1.2045
  551SOL     OW 4544   1.388   2.726   8.217  0.0419  0.2405 -0.1589
  551SOL    HW1 4545   1.317   2.681   8.262 -0.7428  1.5041 -0.1029
  551SOL    HW2 4546   1.414   2.665   8.148 -0.2326 -0.7709  0.6089
  552SOL     OW 4547   5.263   3.733   3.095  0.2290 -0.3691 -0.4065
  552SOL    HW1 4548   5.251   3.772   3.008  0.2455 -0.7370 -0.5759
  552SOL    HW2 4549   5.205   3.657   3.096  0.7160 -0.7495 -0.3396
  553SOL     OW 4550   2.111   0.328   7.664 -0.2787  0.5405  0.5113
  553SOL    HW1 4551   2.114   0.236   7.690 -0.4999  0.1455 -0.8121
  553SOL    HW2 4552   2.149   0.375   7.738 -1.2199 -0.5029  1.7013
  554SOL     OW 4553   6.281   2.143   2.127 -0.3133 -0.3579 -0.4746
  554SOL    HW1 4554   6.331   2.147   2.045  0.0131 -0.8768 -0.3056
  554SOL    HW2 4555   6.198   2.103   2.102 -0.1232 -0.7364 -0.5181
  555SOL     OW 4556   2.918   6.551   5.843 -0.1245  0.1683 -0.1855
  555SOL    HW1 4557   2.956   6.605   5.912 -1.5145  0.7356  0.1645
  555SOL    HW2 4558   2.993   6.527   5.787  0.9424  0.1377  1.1956
  556SOL     OW 4559   6.750   7.084   2.879  0.0190  0.1705 -0.1007
  556SOL    HW1 4560   6.844   7.103   2.874 -0.0953  0.9099  0.3382
  556SOL    HW2 4561   6.714   7.128   2.802  0.4756 -3.3542 -2.5579
  557SOL     OW 4562   4.970   4.209   4.721 -0.9183 -0.6285 -0.2922
  557SOL    HW1 4563   4.941   4.135   4.776  2.1250 -2.0338 -0.4127
  557SOL    HW2 4564   5.062   4.191   4.704 -0.6360  2.1490 -2.1510
  558SOL     OW 4565   6.831   1.973   7.071  0.2557 -0.7740 -0.2174
  558SOL    HW1 4566   6.737   1.978   7.087  0.4118  1.3840  0.3927
  558SOL    HW2 4567   6.854   2.059   7.036  1.9450 -1.4157 -0.7990
  559SOL     OW 4568   7.896   6.625   5.717  0.3907 -0.4375  0.0185
  559SOL    HW1 4569   7.883   6.602   5.625 -0.9948 -2.1951  0.6044
  559SOL    HW2 4570   7.807   6.634   5.752  0.8863  1.3173  0.9618
  560SOL     OW 4571   8.885   4.895   5.402  0.3160 -0.4075  0.1489
  560SOL    HW1 4572   8.979   4.911   5.408  0.6153 -1.8309 -0.4256
  560SOL    HW2 4573   8.877   4.802   5.380 -1.2121 -0.2110 -0.2807
  561SOL     OW 4574   0.721   4.657   3.353 -0.4536 -0.1162 -0.4531
  561SOL    HW1 4575   0.776   4.647   3.431  1.0612 -2.2165 -1.6826
  561SOL    HW2 4576   0.745   4.742   3.317 -0.8412  0.6819  1.0525
  562SOL     OW 4577   6.518   4.033   4.112  0.1307  0.4815  0.3459
  562SOL    HW1 4578   6.440   4.017   4.165  1.2782  0.8794  2.2520
  562SOL    HW2 4579   6.488   4.091   4.043 -1.8452 -1.5863 -0.6794
  563SOL     OW 4580   4.745   3.002   8.848 -0.1907 -0.0546 -0.0594
  563SOL    HW1 4581   4.709   3.048   8.924 -1.3181  1.2667 -1.3129
  563SOL    HW2 4582   4.798   2.932   8.885 -0.1284  0.9626  1.9439
  564SOL     OW 4583   4.048   7.028   7.061 -0.1223  0.0594  0.4001
  564SOL    HW1 4584   4.076   7.075   6.982 -0.2785  0.3386  0.5118
  564SOL    HW2 4585   4.121   6.969   7.080  0.8217  1.4186  1.2119
  565SOL     OW 4586   6.487   3.340   3.884 -0.1948 -0.5978  0.3737
  565SOL    HW1 4587   6.490   3.424   3.930  0.9825 -0.8253  0.7589
  565SOL    HW2 4588   6.486   3.274   3.953  0.8191 -0.9276  0.0950
  566SOL     OW 4589   7.571   2.114   3.430  0.5080 -0.3808 -0.1282
  566SOL    HW1 4590   7.667   2.111   3.423  0.6309  0.9250  0.5694
  566SOL    HW2 4591   7.555   2.131   3.522 -0.3606  0.2400 -0.3825
  567SOL     OW 4592   5.504   5.086   8.615  0.5016  0.1057 -0.1485
  567SOL    HW1 4593   5.562   5.127   8.550 -1.1011  0.5189 -1.4046
  567SOL    HW2 4594   5.561   5.029   8.666  2.4157  2.1536  0.1688
  568SOL     OW 4595   0.013   6.399   1.771 -0.1140  0.4849 -0.1155
  568SOL    HW1 4596  -0.032   6.363   1.847  0.8034  0.9821  0.6772
  568SOL    HW2 4597  -0.035   6.479   1.750 -1.1667 -0.3183 -0.8878
  569SOL     OW 4598   7.738   2.320   0.402  0.0597  0.4958  0.2565
  569SOL    HW1 4599   7.745   2.231   0.369  4.5761  1.0063 -0.8026
  569SOL    HW2 4600   7.725   2.374   0.324  0.4345  0.9989  0.5370
  570SOL     OW 4601   3.613   1.163   4.964  0.3119  0.0972  0.3954
  570SOL    HW1 4602   3.680   1.174   5.032 -0.7454  1.3510  1.2840
  570SOL    HW2 4603   3.532   1.146   5.013 -0.0154 -1.6008 -0.6623
  571SOL     OW 4604   9.226   7.778   3.441  0.0595 -0.0566  0.4104
  571SOL    HW1 4605   9.143   7.810   3.477 -0.1649 -0.7725  0.5587
  571SOL    HW2 4606   9.200   7.716   3.373  0.4715 -0.3310  0.4978
  572SOL     OW 4607   5.917   3.462   0.812  0.2803 -0.3057 -0.5277
  572SOL    HW1 4608   5.978   3.447   0.740 -0.2855 -1.3466 -0.8135
  572SOL    HW2 4609   5.831   3.470   0.770  0.1842  1.0105 -0.1221
  573SOL     OW 4610   6.416   3.669   4.534  0.2208 -0.1387 -0.1977
  573SOL    HW1 4611   6.448   3.756   4.512  0.3143 -0.2850 -0.6670
  573SOL    HW2 4612   6.487   3.610   4.509  0.3070 -0.3239  0.4665
  574SOL     OW 4613   0.186   0.626   0.999 -0.0020  0.6710  0.2520
  574SOL    HW1 4614   0.217   0.544   1.037 -0.4585  0.2326 -0.2993
  574SOL    HW2 4615   0.146   0.601   0.916 -1.8988  1.1836  0.9519
  575SOL     OW 4616   6.574   8.617   5.588  0.3322  0.1724 -0.2332
  575SOL    HW1 4617   6.602   8.609   5.497 -0.5546  1.1973 -0.6253
  575SOL    HW2 4618   6.511   8.689   5.587 -0.3002 -0.3369  1.0594
  576SOL     OW 4619   2.831   6.003   6.047  0.2858 -0.8201 -0.1301
  576SOL    HW1 4620   2.774   5.928   6.032 -0.4579 -0.5105  0.9987
  576SOL    HW2 4621   2.849   6.038   5.960  0.2254 -1.9832 -0.6324
  577SOL     OW 4622   3.226   4.642   3.921  0.1383 -0.5972 -0.0370
  577SOL    HW1 4623   3.170   4.578   3.877 -0.0241 -0.5468  0.0950
  577SOL    HW2 4624   3.178   4.664   4.001  0.9678 -1.5799  0.7560
  578SOL     OW 4625   0.639   7.258   0.385 -0.0201 -0.0303  0.0778
  578SOL    HW1 4626   0.575   7.248   0.455  0.3993  1.1184  0.6476
  578SOL    HW2 4627   0.657   7.168   0.356 -1.0297 -0.4440  0.6666
  579SOL     OW 4628   8.016   1.571   4.601  0.3897 -0.5039 -0.6669
  579SOL    HW1 4629   8.037   1.633   4.531  0.7231  1.4710  1.1036
  579SOL    HW2 4630   7.921   1.579   4.612  0.4102 -0.4436 -0.5393
  580SOL     OW 4631   5.642   5.001   3.877  0.0723 -0.6514 -0.3845
  580SOL    HW1 4632   5.701   4.953   3.935 -2.3920 -1.9732  1.1867
  580SOL    HW2 4633   5.568   5.027   3.932 -1.8261 -0.8812 -2.6358
  581SOL     OW 4634   0.026   0.428   9.259  0.0508 -0.2149 -0.1153
  581SOL    HW1 4635   0.067   0.419   9.173  1.2484  0.7000  0.3211
  581SOL    HW2 4636  -0.013   0.516   9.258  0.8484  0.1668  0.5565
  582SOL     OW 4637   4.976   0.289   1.330 -0.2965 -0.4643 -0.3749
  582SOL    HW1 4638   4.892   0.335   1.330  0.6968  1.5018 -0.2911
  582SOL    HW2 4639   4.997   0.276   1.237 -0.8346 -1.2531 -0.3883
  583SOL     OW 4640   4.441   3.747   2.411  0.8132  0.2056 -0.6346
  583SOL    HW1 4641   4.392   3.764   2.331  0.5338 -0.2623 -0.5648
  583SOL    HW2 4642   4.457   3.653   2.410 -0.1380  0.0157  0.3868
  584SOL     OW 4643   3.684   4.743   4.468  0.2081 -0.1962 -0.4239
  584SOL    HW1 4644   3.609   4.755   4.411 -0.7156  1.0270  0.9540
  584SOL    HW2 4645   3.754   4.792   4.426 -0.1167 -0.2863 -1.0806
  585SOL     OW 4646   3.246   6.541   4.708 -0.4282 -0.1541  0.0367
  585SOL    HW1 4647   3.337   6.511   4.716 -0.9410 -2.0549 -0.6462
  585SOL    HW2 4648   3.225   6.577   4.795  0.7812 -0.2395  0.3860
  586SOL     OW 4649   5.849   6.174   4.424 -0.0760 -0.2820  0.6041
  586SOL    HW1 4650   5.861   6.267   4.406  0.7939 -0.5073 -0.0642
  586SOL    HW2 4651   5.927   6.132   4.387 -0.7907 -1.3572  0.2674
  587SOL     OW 4652   2.438   0.862   5.218  0.2683  0.1416  0.1287
  587SOL    HW1 4653   2.388   0.872   5.137 -1.0848 -0.1974  0.8818
  587SOL    HW2 4654   2.470   0.951   5.238  0.0324  0.3508 -0.4201
  588SOL     OW 4655   6.732   3.863   3.971 -0.0858 -0.3136  0.1598
  588SOL    HW1 4656   6.735   3.915   4.051 -0.0295 -1.9026  1.2357
  588SOL    HW2 4657   6.814   3.883   3.926 -1.3964  2.8749 -1.0706
  589SOL     OW 4658   3.833   7.689   2.268 -0.5065  0.1072  0.2193
  589SOL    HW1 4659   3.901   7.691   2.335 -1.6072  2.3935  1.4116
  589SOL    HW2 4660   3.864   7.748   2.200 -0.3197 -0.5930 -0.3100
  590SOL     OW 4661   3.612   2.268   6.632  0.5190  0.1832 -0.1135
  590SOL    HW1 4662   3.534   2.321   6.649  0.6332  0.7888 -1.3915
  590SOL    HW2 4663   3.617   2.209   6.708  0.1841  1.7364  1.1803
  591SOL     OW 4664   9.079   4.776   2.918 -0.5349 -0.7401 -0.5351
  591SOL    HW1 4665   9.159   4.746   2.876 -0.1771  0.5933 -0.8550
  591SOL    HW2 4666   9.029   4.818   2.848 -0.2208  0.9422  0.1998
  592SOL     OW 4667   3.547   3.757   0.760 -0.5693 -0.1234  0.1976
  592SOL    HW1 4668   3.464   3.757   0.807 -0.0196 -0.8042  1.2055
  592SOL    HW2 4669   3.563   3.849   0.739 -0.2154  0.4123  2.5287
  593SOL     OW 4670   1.994   1.682   8.494 -0.0156  0.0775 -0.9298
  593SOL    HW1 4671   1.984   1.674   8.589 -2.2862  0.1204 -1.1050
  593SOL    HW2 4672   1.929   1.622   8.458  0.2598  0.6524 -2.4726
  594SOL     OW 4673   1.579   6.125   8.008  0.5490  0.1136  0.0651
  594SOL    HW1 4674   1.613   6.035   8.011  0.0011 -0.0899  0.5406
  594SOL    HW2 4675   1.585   6.150   7.916  2.3657  0.2471  0.1910
  595SOL     OW 4676   8.714   8.323   6.246  0.2544 -0.1826  0.4204
  595SOL    HW1 4677   8.726   8.235   6.283  0.1181  0.0317  0.9914
  595SOL    HW2 4678   8.621   8.341   6.259  0.2732  0.0234  0.2563
  596SOL     OW 4679   1.977   5.869   4.636  0.0728 -0.1791 -0.3577
  596SOL    HW1 4680   1.981   5.964   4.623 -0.9916 -0.2308 -1.3444
  596SOL    HW2 4681   1.942   5.858   4.724 -0.5067  0.3723 -0.5090
  597SOL     OW 4682   2.762   4.650   5.489 -0.5675  0.2703  1.0611
  597SOL    HW1 4683   2.679   4.608   5.469 -0.0524 -0.5241  0.5051
  597SOL    HW2 4684   2.743   4.707   5.564 -1.7988  0.7963  0.3844
  598SOL     OW 4685   6.142   1.666   7.920 -0.3506  0.6041  0.5795
  598SOL    HW1 4686   6.205   1.631   7.983  1.3649  0.2336 -1.2660
  598SOL    HW2 4687   6.174   1.754   7.900 -0.3562  0.3860 -0.4385
  599SOL     OW 4688   7.459   7.965   1.894  0.1030  0.9490 -0.4617
  599SOL    HW1 4689   7.463   7.970   1.990 -2.2922  0.0476 -0.2388
  599SOL    HW2 4690   7.458   8.057   1.865  0.0102  1.2403  0.4389
  600SOL     OW 4691   0.307   3.165   3.408  0.2556  0.5999 -0.1539
  600SOL    HW1 4692   0.325   3.256   3.431 -1.3369  1.1552 -1.0028
  600SOL    HW2 4693   0.216   3.165   3.380 -0.3055 -1.5752  1.4283
  601SOL     OW 4694   7.695   1.251   8.895 -0.6626  0.2863  0.0140
  601SOL    HW1 4695   7.775   1.199   8.906 -0.4855  0.1004 -1.9314
  601SOL    HW2 4696   7.705   1.295   8.811 -2.0046  1.3673  0.3819
  602SOL     OW 4697   4.062   2.644   0.795  0.8116 -0.1820  0.1873
  602SOL    HW1 4698   4.078   2.717   0.735  1.8271  0.2496  0.9556
  602SOL    HW2 4699   4.148   2.622   0.829  0.3579 -0.9880  0.8417
  603SOL     OW 4700   2.106   5.551   4.682 -0.3019  0.0835 -0.2955
  603SOL    HW1 4701   2.032   5.594   4.724 -0.3253 -0.8961  0.7153
  603SOL    HW2 4702   2.082   5.459   4.677  0.0684  0.0370 -1.7120
  604SOL     OW 4703   5.181   0.720   5.678 -0.1046  0.4372  0.0920
  604SOL    HW1 4704   5.236   0.794   5.653 -0.3878 -0.0136 -2.0520
  604SOL    HW2 4705   5.118   0.712   5.606 -0.2705 -1.6664  0.4190
  605SOL     OW 4706   7.589   7.112   8.486  0.4275  0.0199 -0.2512
  605SOL    HW1 4707   7.547   7.177   8.543  1.4134 -0.2680  0.8485
  605SOL    HW2 4708   7.550   7.127   8.400 -2.0847 -0.3766  0.7381
  606SOL     OW 4709   6.970   4.204   7.451  0.2920  0.5562 -0.5800
  606SOL    HW1 4710   6.974   4.135   7.518 -2.0928 -0.4250 -1.3311
  606SOL    HW2 4711   6.883   4.242   7.461  0.6331  1.7437 -1.8503
  607SOL     OW 4712   7.635   2.975   2.984  0.3780 -0.0157  0.0828
  607SOL    HW1 4713   7.549   3.003   3.015 -0.5528 -1.1491 -1.3951
  607SOL    HW2 4714   7.680   2.946   3.064 -0.9020 -0.1874  0.7768
  608SOL     OW 4715   4.962   4.884   8.570 -0.3762 -0.5274  0.0291
  608SOL    HW1 4716   5.034   4.829   8.602 -0.9552 -0.7540  0.9888
  608SOL    HW2 4717   5.001   4.934   8.498  0.5188 -1.2327 -0.0025
  609SOL     OW 4718   0.689   0.217   8.429  0.0077 -0.0249  0.1115
  609SOL    HW1 4719   0.717   0.178   8.346 -3.0345 -0.3726 -0.8690
  609SOL    HW2 4720   0.679   0.310   8.410 -0.0085  0.0110  0.2914
  610SOL     OW 4721   0.967   5.278   0.310  0.1263  0.2076  0.3253
  610SOL    HW1 4722   1.018   5.270   0.390  0.2516  1.0048  0.3320
  610SOL    HW2 4723   1.013   5.345   0.259  0.2069 -0.4808 -0.5367
  611SOL     OW 4724   0.516   3.089   1.467  0.0817  0.8896  0.3395
  611SOL    HW1 4725   0.487   3.096   1.557  1.7894  0.6929  0.9494
  611SOL    HW2 4726   0.610   3.069   1.473  0.0217 -0.2028 -1.4601
  612SOL     OW 4727   3.459   3.225   4.029  0.4851 -0.4956 -0.2029
  612SOL    HW1 4728   3.405   3.146   4.035 -1.9407  1.1505  0.7610
  612SOL    HW2 4729   3.459   3.262   4.117  3.1770 -0.3358 -0.1734
  613SOL     OW 4730   1.781   8.629   6.421  0.3968 -0.0367  0.2297
  613SOL    HW1 4731   1.814   8.716   6.397  1.0476 -1.0547 -3.1149
  613SOL    HW2 4732   1.851   8.569   6.396 -2.1388 -1.9148 -3.0778
  614SOL     OW 4733   3.835   9.224   1.052 -0.1564 -0.3708 -0.3215
  614SOL    HW1 4734   3.885   9.197   1.128 -1.1036 -1.1847  0.0368
  614SOL    HW2 4735   3.867   9.170   0.981 -0.6734 -1.0792 -0.0355
  615SOL     OW 4736   7.985   5.576   7.454 -0.2282  0.5512  0.5606
  615SOL    HW1 4737   8.065   5.534   7.423 -0.1966 -0.7741  2.2961
  615SOL    HW2 4738   8.002   5.670   7.443  1.6519  0.3122  1.0472
  616SOL     OW 4739   0.638   2.547   9.191  0.0611  0.0292 -0.6605
  616SOL    HW1 4740   0.648   2.522   9.283  3.0914 -1.0494 -1.1872
  616SOL    HW2 4741   0.595   2.471   9.151 -2.5518  1.0398 -0.0013
  617SOL     OW 4742   3.885   7.762   5.814  0.0554  0.3694 -0.7664
  617SOL    HW1 4743   3.886   7.671   5.787  1.5996 -0.0823  0.6512
  617SOL    HW2 4744   3.797   7.793   5.792 -0.9615 -1.8366 -0.0074
  618SOL     OW 4745   0.894   8.806   1.299 -0.0548 -0.2349  0.2104
  618SOL    HW1 4746   0.914   8.714   1.279  0.4876 -0.3390  1.1507
  618SOL    HW2 4747   0.973   8.853   1.274 -0.7126  0.1446 -1.2607
  619SOL     OW 4748   0.645   1.271   3.520  0.5244  0.6916  0.3955
  619SOL    HW1 4749   0.596   1.332   3.575  0.0603  0.7934 -0.1270
  619SOL    HW2 4750   0.732   1.269   3.559  0.1227  0.5301  1.3202
  620SOL     OW 4751   6.763   5.245   8.346  0.0508  0.8380 -0.1122
  620SOL    HW1 4752   6.789   5.331   8.315 -1.9669  2.5508  2.5227
  620SOL    HW2 4753   6.821   5.228   8.420  0.9893 -0.5247 -1.1103
  621SOL     OW 4754   2.752   4.787   3.182  0.0027 -0.4528  0.1314
  621SOL    HW1 4755   2.756   4.807   3.275  1.1973 -1.0288  0.2195
  621SOL    HW2 4756   2.660   4.802   3.158  0.0591  1.6152  0.9512
  622SOL     OW 4757   5.492   0.926   5.159  0.6563  0.5486 -0.1896
  622SOL    HW1 4758   5.474   0.835   5.182  0.1147  0.6875 -0.0585
  622SOL    HW2 4759   5.571   0.921   5.105  0.1434 -0.0811 -0.9017
  623SOL     OW 4760   3.343   1.319   1.393 -0.2495  0.3975 -0.1904
  623SOL    HW1 4761   3.387   1.240   1.423  1.1466  0.7150 -1.3010
  623SOL    HW2 4762   3.254   1.290   1.370  0.0298 -0.7044  0.0672
  624SOL     OW 4763   5.244   0.626   8.121 -0.5302 -0.1020 -0.1459
  624SOL    HW1 4764   5.285   0.599   8.202  0.0968  0.8127 -0.1401
  624SOL    HW2 4765   5.171   0.681   8.149 -0.6718 -0.2672 -0.1901
  625SOL     OW 4766   9.032   0.356   0.189  0.1334  0.8511  0.6608
  625SOL    HW1 4767   9.060   0.286   0.130 -0.5310 -0.5558  1.9457
  625SOL    HW2 4768   8.991   0.421   0.132  0.6876  0.1592 -0.5616
  626SOL     OW 4769   8.625   7.757   3.424  0.3345  0.5492 -0.1679
  626SOL    HW1 4770   8.598   7.749   3.516 -0.7736 -1.0572 -0.5967
  626SOL    HW2 4771   8.615   7.669   3.389  0.2659  1.2457 -1.9722
  627SOL     OW 4772   6.864   9.241   8.861 -0.1238 -0.4031 -0.3687
  627SOL    HW1 4773   6.798   9.178   8.831 -0.3100 -0.7759  0.7796
  627SOL    HW2 4774   6.927   9.189   8.910  1.1805 -0.0853 -1.6220
  628SOL     OW 4775   3.384   8.812   7.056 -0.5138 -1.1339 -0.2193
  628SOL    HW1 4776   3.341   8.727   7.057 -0.0066 -1.4242 -1.5787
  628SOL    HW2 4777   3.314   8.875   7.041 -0.6461 -1.4858 -1.0924
  629SOL     OW 4778   5.725   3.968   4.666 -0.2575  0.2073  0.1501
  629SOL    HW1 4779   5.656   4.035   4.669  0.4138  0.8944  0.5612
  629SOL    HW2 4780   5.760   3.966   4.754  1.6575  1.3870 -0.5332
  630SOL     OW 4781   8.034   3.231   3.695  0.1989 -0.3359  0.5454
  630SOL    HW1 4782   8.066   3.244   3.785  1.8315  0.5232 -0.1189
  630SOL    HW2 4783   8.087   3.290   3.642 -1.1222 -0.4114 -0.9403
  631SOL     OW 4784   5.671   3.465   0.135  0.4919 -0.4688  0.4398
  631SOL    HW1 4785   5.645   3.403   0.066  3.6259 -0.7315 -0.6653
  631SOL    HW2 4786   5.620   3.438   0.211 -1.3109 -1.7290 -1.0989
  632SOL     OW 4787   2.428   7.307   7.485  0.2824  0.7947 -0.2668
  632SOL    HW1 4788   2.457   7.224   7.447  0.6454 -0.9058  3.3253
  632SOL    HW2 4789   2.487   7.322   7.558 -3.1342  1.1536  2.7215
  633SOL     OW 4790   1.943   3.197   8.109  0.4846 -0.2177  0.2418
  633SOL    HW1 4791   1.921   3.230   8.196 -0.8409 -0.3942 -0.0047
  633SOL    HW2 4792   1.939   3.102   8.117 -0.7572 -0.2356 -0.2455
  634SOL     OW 4793   5.393   3.751   4.852  0.5029  0.5124 -0.0677
  634SOL    HW1 4794   5.395   3.680   4.916  1.5421 -0.2209 -0.8791
  634SOL    HW2 4795   5.326   3.811   4.885 -1.2818 -1.4152  0.0531
  635SOL     OW 4796   6.817   3.299   4.448  0.0745  0.2066 -0.2946
  635SOL    HW1 4797   6.907   3.330   4.441 -0.0355  0.8456  0.8499
  635SOL    HW2 4798   6.800   3.297   4.542 -1.4679  1.1529 -0.5325
  636SOL     OW 4799   9.094   1.560   7.154 -0.0753  0.7334  0.5343
  636SOL    HW1 4800   9.077   1.654   7.156 -1.1185  0.5670 -0.0186
  636SOL    HW2 4801   9.103   1.539   7.061  0.7754  0.3788  0.6836
  637SOL     OW 4802   1.198   8.662   6.026 -0.1211 -0.5046  0.7601
  637SOL    HW1 4803   1.243   8.740   5.993 -1.9314  1.1779  2.0617
  637SOL    HW2 4804   1.137   8.638   5.956 -1.8530  1.2707  1.5792
  638SOL     OW 4805   2.915   2.338   3.374  0.5328  0.4572 -0.0774
  638SOL    HW1 4806   2.862   2.415   3.391 -1.2569 -0.2048 -2.2662
  638SOL    HW2 4807   2.881   2.271   3.434 -0.0385  0.5112 -0.3324
  639SOL     OW 4808   1.375   7.870   3.690  0.0430  0.0859 -0.2314
  639SOL    HW1 4809   1.436   7.826   3.631 -0.0663 -0.7086  0.2399
  639SOL    HW2 4810   1.382   7.963   3.666  1.5101  0.0290 -0.1302
  640SOL     OW 4811   8.356   1.230   6.633 -0.1000  0.2935 -0.0643
  640SOL    HW1 4812   8.369   1.143   6.671  2.1999  0.4510 -0.3047
  640SOL    HW2 4813   8.439   1.249   6.589 -0.5989  2.5445 -0.1486
  641SOL     OW 4814   8.853   7.057   1.465 -0.1870 -0.1047  0.0289
  641SOL    HW1 4815   8.849   7.114   1.389  0.1441  0.2381  0.2666
  641SOL    HW2 4816   8.776   7.079   1.516 -0.7985 -0.8390 -0.5563
  642SOL     OW 4817   8.153   6.424   2.406 -0.0020  0.2017  0.5025
  642SOL    HW1 4818   8.236   6.471   2.397  0.0186  0.2791  1.0433
  642SOL    HW2 4819   8.154   6.391   2.496 -0.2018 -0.4880  0.2560
  643SOL     OW 4820   3.963   3.188   1.998  0.7401  0.6625 -0.5522
  643SOL    HW1 4821   3.987   3.144   1.917 -0.1661  0.5051 -0.7428
  643SOL    HW2 4822   3.877   3.152   2.021  0.2258  1.9270 -0.4141
  644SOL     OW 4823   4.973   3.437   5.113 -0.4152  0.0729 -0.6282
  644SOL    HW1 4824   5.021   3.460   5.193  0.0237 -1.1871 -0.5155
  644SOL    HW2 4825   5.022   3.480   5.043 -0.9391  1.3914 -0.2241
  645SOL     OW 4826   0.860   5.454   4.929 -0.6193 -0.3557  0.0924
  645SOL    HW1 4827   0.852   5.420   5.018  0.6033 -0.3348  0.2276
  645SOL    HW2 4828   0.818   5.540   4.932 -0.0855 -0.1144  0.8003
  646SOL     OW 4829   7.111   4.889   0.342 -0.0379 -0.3614 -0.1342
  646SOL    HW1 4830   7.153   4.971   0.369 -1.7312  0.4353  0.2811
  646SOL    HW2 4831   7.139   4.876   0.252 -0.8583  1.5164 -0.7269
  647SOL     OW 4832   5.200   2.871   2.322  0.3772  0.5112  0.1313
  647SOL    HW1 4833   5.262   2.811   2.364  3.0646  2.2552 -1.0512
  647SOL    HW2 4834   5.152   2.816   2.260 -0.4045 -1.1894  2.1469
  648SOL     OW 4835   2.413   6.166   7.483 -0.0729 -0.2014 -0.3683
  648SOL    HW1 4836   2.331   6.194   7.443  0.2264 -0.9735 -1.5690
  648SOL    HW2 4837   2.477   6.167   7.411  1.2784  1.5141  0.7656
  649SOL     OW 4838   2.460   0.108   6.247  0.4319  0.0423  0.4832
  649SOL    HW1 4839   2.420   0.145   6.326  0.4130 -1.4772  1.2253
  649SOL    HW2 4840   2.423   0.020   6.240  1.3606 -0.2926 -0.5435
  650SOL     OW 4841   7.081   8.160   4.683 -0.1119  0.4994  0.1796
  650SOL    HW1 4842   7.088   8.078   4.732  0.5128  0.5205  0.1252
  650SOL    HW2 4843   7.003   8.202   4.719  0.4955  0.6425  1.3626
  651SOL     OW 4844   8.720   4.525   4.830  0.2828  0.0984 -0.1903
  651SOL    HW1 4845   8.718   4.499   4.922 -5.5988  2.0354  0.6283
  651SOL    HW2 4846   8.793   4.587   4.824  1.8834 -1.3077  2.6153
  652SOL     OW 4847   0.371   7.470   3.399  0.2055  0.2979 -0.2583
  652SOL    HW1 4848   0.291   7.421   3.381  0.5820  0.1592 -1.6158
  652SOL    HW2 4849   0.441   7.419   3.358  1.2274 -0.3166  2.0492
  653SOL     OW 4850   8.404   3.700   8.428 -0.3536 -0.3403 -0.0718
  653SOL    HW1 4851   8.394   3.694   8.333  1.0838 -0.5967 -0.2338
  653SOL    HW2 4852   8.419   3.609   8.456 -0.8931 -0.2805  0.4131
  654SOL     OW 4853   8.764   8.084   4.761 -0.3382  0.5094 -0.2285
  654SOL    HW1 4854   8.753   8.025   4.686 -0.7917 -1.1980  1.1234
  654SOL    HW2 4855   8.712   8.044   4.831  0.3584  1.8602  1.1096
  655SOL     OW 4856   0.109   4.429   8.484 -0.5581 -0.0819  0.1414
  655SOL    HW1 4857   0.112   4.463   8.395  0.8316 -0.2653  0.0996
  655SOL    HW2 4858   0.015   4.419   8.503 -0.9459  1.8206 -0.5578
  656SOL     OW 4859   2.814   5.643   7.882 -0.1306  0.6057  0.2503
  656SOL    HW1 4860   2.815   5.695   7.962  0.8072  0.7975  0.1213
  656SOL    HW2 4861   2.906   5.626   7.863 -0.3423 -2.8957  1.4433
  657SOL     OW 4862   1.264   1.422   0.014  0.3063  0.1989 -0.1178
  657SOL    HW1 4863   1.235   1.508   0.042  0.3266  0.0937  0.2327
  657SOL    HW2 4864   1.303   1.436  -0.072 -0.4018  0.4152 -0.4155
  658SOL     OW 4865   2.879   5.101   6.748 -0.9052  0.6607 -0.0191
  658SOL    HW1 4866   2.841   5.014   6.762 -2.5050  1.2615 -0.4293
  658SOL    HW2 4867   2.890   5.108   6.653  0.1529  0.5542  0.0800
  659SOL     OW 4868   4.250   0.453   5.343  0.2256 -0.0657 -0.0964
  659SOL    HW1 4869   4.294   0.534   5.318 -1.8838  0.9136 -0.8368
  659SOL    HW2 4870   4.293   0.385   5.291  0.3350  0.9650 -1.3904
  660SOL     OW 4871   6.845   8.627   7.008 -0.8394  0.2313  0.3825
  660SOL    HW1 4872   6.834   8.718   7.034  1.5841  1.0171 -1.0440
  660SOL    HW2 4873   6.909   8.591   7.069  0.0689  0.2330 -0.5435
  661SOL     OW 4874   4.088   4.173   0.264 -0.2274  0.9795 -0.0793
  661SOL    HW1 4875   4.072   4.179   0.359 -3.2171 -3.4593  0.0102
  661SOL    HW2 4876   4.035   4.243   0.226  0.6834  2.5556  1.3893
  662SOL     OW 4877   0.715   1.807   3.099 -0.4235 -0.0456 -0.0671
  662SOL    HW1 4878   0.722   1.881   3.160 -3.5606 -1.0929  1.8017
  662SOL    HW2 4879   0.793   1.814   3.043  0.6479  3.2005  1.5970
  663SOL     OW 4880   2.215   0.580   5.572 -0.3857 -0.0077  0.6427
  663SOL    HW1 4881   2.133   0.530   5.578 -1.1189  0.8835 -1.2544
  663SOL    HW2 4882   2.209   0.626   5.489  2.8799 -1.3178 -0.4659
  664SOL     OW 4883   7.980   6.752   4.114  0.7545  0.1689  0.1624
  664SOL    HW1 4884   7.962   6.680   4.053 -0.8809 -1.9822  2.9353
  664SOL    HW2 4885   7.896   6.798   4.121  0.9460  0.4388  0.7124
  665SOL     OW 4886   5.173   5.520   5.999 -0.0157 -0.0418  0.1122
  665SOL    HW1 4887   5.147   5.610   6.021  0.8175 -0.2966  2.5096
  665SOL    HW2 4888   5.156   5.512   5.906 -1.9585  1.9667  0.2133
  666SOL     OW 4889   5.173   5.805   4.291 -0.6242 -0.2595 -0.2245
  666SOL    HW1 4890   5.103   5.871   4.297 -0.6160 -0.2884  0.2120
  666SOL    HW2 4891   5.248   5.854   4.257 -0.3392  0.1864  0.9944
  667SOL     OW 4892   4.071   8.887   2.857  0.1065 -0.3688  0.1475
  667SOL    HW1 4893   4.159   8.860   2.883 -0.0012 -0.5989  0.2802
  667SOL    HW2 4894   4.020   8.806   2.857  0.2388 -0.4908 -1.3922
  668SOL     OW 4895   7.279   3.822   0.953 -0.3939 -0.2036 -0.6393
  668SOL    HW1 4896   7.232   3.898   0.918 -2.0875  0.0368  1.8697
  668SOL    HW2 4897   7.293   3.765   0.877 -0.3486  1.9357 -2.3290
  669SOL     OW 4898   2.291   8.691   6.092 -0.0841  0.5734 -0.8333
  669SOL    HW1 4899   2.197   8.680   6.083 -0.0492  0.6903 -1.3510
  669SOL    HW2 4900   2.303   8.721   6.182 -0.4058 -0.9496 -0.2586
  670SOL     OW 4901   4.002   4.432   4.852  0.0188  0.4292 -0.6727
  670SOL    HW1 4902   4.085   4.479   4.851  0.3730 -0.1831 -0.8574
  670SOL    HW2 4903   3.994   4.396   4.763  0.2749 -0.7286 -0.2484
  671SOL     OW 4904   1.078   7.288   1.329 -0.2445 -0.3992 -0.0794
  671SOL    HW1 4905   1.008   7.300   1.393  0.0801 -1.1983  0.4286
  671SOL    HW2 4906   1.036   7.309   1.245 -0.8266  0.0798  0.3157
  672SOL     OW 4907   0.444   7.159   4.128  0.1797 -0.0755  0.2897
  672SOL    HW1 4908   0.384   7.181   4.057 -0.7461 -1.0786  0.7384
  672SOL    HW2 4909   0.510   7.103   4.087 -0.5910 -1.0069  0.2776
  673SOL     OW 4910   6.340   0.315   1.813  0.1588 -0.0960 -0.0821
  673SOL    HW1 4911   6.248   0.306   1.837  0.2289  0.8719  0.6006
  673SOL    HW2 4912   6.376   0.377   1.876  0.6502  1.6049 -1.9305
  674SOL     OW 4913   3.637   1.943   2.678  0.3275  0.4840  0.2997
  674SOL    HW1 4914   3.565   1.957   2.740 -1.0945  1.6911 -1.5336
  674SOL    HW2 4915   3.687   2.025   2.680  0.3486  0.4802 -0.0561
  675SOL     OW 4916   1.164   5.594   2.563  0.1399 -0.0486  0.5815
  675SOL    HW1 4917   1.145   5.500   2.572  0.1708 -0.0638  0.4887
  675SOL    HW2 4918   1.080   5.637   2.581  0.2362 -0.0708  1.0951
  676SOL     OW 4919   8.148   1.261   4.218  0.4084 -0.1666  0.0194
  676SOL    HW1 4920   8.090   1.235   4.290 -0.7704  0.2228 -0.7698
  676SOL    HW2 4921   8.120   1.208   4.144  0.7414  0.3806 -0.5045
  677SOL     OW 4922   2.265   4.550   4.812 -0.2032  0.1006 -0.2869
  677SOL    HW1 4923   2.221   4.507   4.886 -0.0479 -1.4417 -1.0535
  677SOL    HW2 4924   2.203   4.617   4.783 -0.4854  0.3802  0.9012
  678SOL     OW 4925   4.108   7.886   4.513 -0.5145 -0.1210 -0.7092
  678SOL    HW1 4926   4.086   7.877   4.420 -1.2124  0.6317 -0.6286
  678SOL    HW2 4927   4.049   7.826   4.557 -0.3817 -0.2655 -0.7277
  679SOL     OW 4928   5.113   2.132   3.201 -0.7060  0.2675  0.6972
  679SOL    HW1 4929   5.162   2.060   3.160  0.5907 -0.6693  3.6691
  679SOL    HW2 4930   5.170   2.208   3.190 -0.6570  0.1773  0.2739
  680SOL     OW 4931   2.359   2.515   2.029 -0.1059 -0.0800  0.5145
  680SOL    HW1 4932   2.269   2.485   2.010 -0.6237  0.0747  2.5553
  680SOL    HW2 4933   2.413   2.437   2.018 -0.8589 -0.7886  1.6554
  681SOL     OW 4934   0.975   4.112   5.373 -0.0632  0.1812 -0.5453
  681SOL    HW1 4935   0.984   4.081   5.283  1.1405  0.7175 -0.6295
  681SOL    HW2 4936   0.884   4.093   5.396 -0.3822  0.0158 -1.8638
  682SOL     OW 4937   5.779   1.167   8.204 -0.0254  0.4391 -0.1245
  682SOL    HW1 4938   5.697   1.210   8.181  1.1596  1.0141 -4.0713
  682SOL    HW2 4939   5.846   1.234   8.190  1.3382 -0.7366  0.4545
  683SOL     OW 4940   2.230   7.694   8.654  0.2077  0.5361  0.2055
  683SOL    HW1 4941   2.311   7.738   8.627  0.4676 -0.7228 -1.2101
  683SOL    HW2 4942   2.167   7.715   8.585  0.1829 -0.8193 -0.2121
  684SOL     OW 4943   5.701   7.952   4.683  0.1629 -0.2224  0.0469
  684SOL    HW1 4944   5.733   7.868   4.715  0.2573 -0.6573 -1.1224
  684SOL    HW2 4945   5.774   8.013   4.694 -0.6216  0.3288  3.0317
  685SOL     OW 4946   7.936   8.315   4.234 -0.5981 -0.0502 -0.3777
  685SOL    HW1 4947   7.938   8.396   4.183  0.7418 -0.0341 -0.3344
  685SOL    HW2 4948   7.917   8.343   4.324  0.2760  0.2750 -0.2858
  686SOL     OW 4949   1.817   0.774   0.533  0.0173  0.4872 -0.3782
  686SOL    HW1 4950   1.838   0.756   0.441 -0.7489  1.3897 -0.7431
  686SOL    HW2 4951   1.760   0.851   0.530 -1.2547 -0.3805  0.7596
  687SOL     OW 4952   0.498   1.882   5.070 -0.1943 -0.5494  0.4601
  687SOL    HW1 4953   0.475   1.790   5.059 -0.7471 -0.4796  0.9562
  687SOL    HW2 4954   0.491   1.920   4.983 -0.6676 -0.8255  0.3726
  688SOL     OW 4955   2.995   6.267   6.196  0.6594 -0.0163  0.1518
  688SOL    HW1 4956   2.969   6.288   6.286  0.5961 -1.4015  0.4789
  688SOL    HW2 4957   2.924   6.301   6.142  0.2470  0.0059  0.7028
  689SOL     OW 4958   6.438   7.413   2.834  0.2281 -0.3439  0.4187
  689SOL    HW1 4959   6.370   7.376   2.891  1.5078 -1.1317  1.4923
  689SOL    HW2 4960   6.486   7.473   2.891  0.0181  0.7419 -0.5239
  690SOL     OW 4961   3.798   7.363   3.409  0.2244  0.3466 -0.2156
  690SOL    HW1 4962   3.766   7.274   3.395  3.3430 -0.4827 -4.0573
  690SOL    HW2 4963   3.876   7.352   3.464 -0.3935  1.0076  0.8230
  691SOL     OW 4964   7.167   1.271   4.027  0.1400  0.6445  0.1264
  691SOL    HW1 4965   7.145   1.213   4.100 -0.5714  0.8882  0.1135
  691SOL    HW2 4966   7.182   1.212   3.953 -0.5579  0.4644  0.1181
  692SOL     OW 4967   8.119   5.864   2.123  0.0972 -0.1478 -0.0417
  692SOL    HW1 4968   8.193   5.879   2.182  0.3432  0.0397 -0.3965
  692SOL    HW2 4969   8.152   5.889   2.037 -1.0078  1.9338  0.0772
  693SOL     OW 4970   7.484   8.550   3.919 -0.0101  0.2923 -0.4609
  693SOL    HW1 4971   7.558   8.562   3.978  0.3469  0.1005 -0.8600
  693SOL    HW2 4972   7.428   8.626   3.934 -0.1010  0.0751  0.3672
  694SOL     OW 4973   3.230   7.643   3.202  0.3336 -0.1258  0.2231
  694SOL    HW1 4974   3.274   7.605   3.126  1.7125  1.8261 -0.0337
  694SOL    HW2 4975   3.198   7.728   3.172  1.6995  1.0925  1.9912
  695SOL     OW 4976   5.754   1.402   8.942  0.1489 -0.3374  0.2265
  695SOL    HW1 4977   5.684   1.459   8.974 -0.9033 -1.3431 -0.2454
  695SOL    HW2 4978   5.732   1.316   8.976  1.8399 -0.4615  1.1140
  696SOL     OW 4979   8.156   0.059   5.802 -0.9381 -0.2689  0.2740
  696SOL    HW1 4980   8.247   0.061   5.771 -0.3675 -1.0570  1.8451
  696SOL    HW2 4981   8.106   0.033   5.725  0.1249  0.4162 -0.6885
  697SOL     OW 4982   6.442   9.155   2.547 -0.0928  0.0393  0.3523
  697SOL    HW1 4983   6.504   9.101   2.498 -0.7328 -1.6712  1.3667
  697SOL    HW2 4984   6.498   9.210   2.602  0.5572 -0.4365  0.1849
  698SOL     OW 4985   3.283   8.494   3.637 -0.3887 -0.5954 -0.2448
  698SOL    HW1 4986   3.302   8.438   3.561  1.3641  0.8685 -0.9735
  698SOL    HW2 4987   3.368   8.534   3.658 -1.4711  1.3727  0.5761
  699SOL     OW 4988   2.752   4.498   0.490  0.1280  0.2659 -0.5730
  699SOL    HW1 4989   2.839   4.526   0.515  0.9479 -2.2383 -0.2833
  699SOL    HW2 4990   2.722   4.444   0.563 -1.8080  1.2845 -0.5394
  700SOL     OW 4991   1.687   2.645   8.207 -0.3665  0.0777  0.0976
  700SOL    HW1 4992   1.628   2.711   8.245  1.6788  2.7744 -1.0483
  700SOL    HW2 4993   1.655   2.633   8.118 -0.1321  0.3513 -0.0262
  701SOL     OW 4994   4.165   0.489   1.949  0.2778  0.1344  0.1171
  701SOL    HW1 4995   4.250   0.530   1.967  1.1095 -0.7003 -1.6093
  701SOL    HW2 4996   4.107   0.524   2.016  1.9627  0.7874  1.3219
  702SOL     OW 4997   8.484   0.670   5.644  0.4344 -0.1604 -0.2322
  702SOL    HW1 4998   8.413   0.612   5.616 -1.1170  0.4510  2.2056
  702SOL    HW2 4999   8.496   0.650   5.737 -0.0362  3.2277  0.6783
  703SOL     OW 5000   0.508   8.705   7.583 -0.2560 -0.4253  0.5132
  703SOL    HW1 5001   0.434   8.767   7.586 -2.1229 -2.3944 -1.3073
  703SOL    HW2 5002   0.538   8.709   7.492  1.9169  0.2536  1.1977
  704SOL     OW 5003   6.178   2.879   4.290 -0.0776  0.0585  0.2278
  704SOL    HW1 5004   6.123   2.824   4.234 -0.4452 -0.8576  1.4470
  704SOL    HW2 5005   6.177   2.835   4.375  0.2396  1.5602  1.0399
  705SOL     OW 5006   4.210   8.743   2.378  0.2198 -0.7767 -0.0227
  705SOL    HW1 5007   4.258   8.697   2.447 -1.4955 -0.2555  1.5890
  705SOL    HW2 5008   4.136   8.783   2.423 -0.4215  0.4158 -2.0262
  706SOL     OW 5009   5.401   0.471   4.657 -0.1302  0.1820 -0.2050
  706SOL    HW1 5010   5.363   0.427   4.733 -1.1218 -2.0409 -1.8653
  706SOL    HW2 5011   5.476   0.417   4.634 -0.3294  0.3460 -1.2766
  707SOL     OW 5012   3.020   8.535   1.107 -0.2807  0.3421 -0.0648
  707SOL    HW1 5013   3.091   8.555   1.046  0.9695  0.7492  1.4529
  707SOL    HW2 5014   3.032   8.597   1.179 -3.9220  2.4703 -0.9988
  708SOL     OW 5015   7.473   0.535   9.219 -0.0694  0.0708 -0.0259
  708SOL    HW1 5016   7.471   0.460   9.279 -1.6272  0.3178  0.2859
  708SOL    HW2 5017   7.552   0.583   9.242  0.8859 -1.3701 -0.1256
  709SOL     OW 5018   0.124   5.679   2.253 -0.2545 -0.4288 -0.6000
  709SOL    HW1 5019   0.216   5.657   2.271 -1.0738 -3.4684  0.4909
  709SOL    HW2 5020   0.095   5.726   2.332 -0.2783 -1.8657  0.2966
  710SOL     OW 5021   8.943   7.008   0.713 -0.0087  0.1864  0.1532
  710SOL    HW1 5022   9.026   6.964   0.730  0.0879 -0.3448 -1.5635
  710SOL    HW2 5023   8.918   6.980   0.625 -0.9090  2.0435 -0.2306
  711SOL     OW 5024   8.331   9.031   7.330  0.4632  0.1318 -0.6543
  711SOL    HW1 5025   8.368   8.950   7.365 -0.2810  0.5645  1.2754
  711SOL    HW2 5026   8.386   9.101   7.367 -1.8023  0.7524  1.8622
  712SOL     OW 5027   1.735   5.263   6.612 -0.2290 -0.3776  0.6066
  712SOL    HW1 5028   1.661   5.224   6.565 -1.0670 -0.0480  1.6061
  712SOL    HW2 5029   1.808   5.259   6.550 -1.6660  1.4840 -1.3464
  713SOL     OW 5030   4.688   4.287   2.240 -0.1868 -0.0103  0.3916
  713SOL    HW1 5031   4.695   4.266   2.333  1.6403  0.1628  0.3393
  713SOL    HW2 5032   4.701   4.203   2.196 -0.4936  0.0003  0.2799
  714SOL     OW 5033   4.654   3.787   8.836  0.1095  0.1884 -0.0962
  714SOL    HW1 5034   4.713   3.845   8.788 -0.8634  1.3832  0.0905
  714SOL    HW2 5035   4.585   3.767   8.773 -0.3265  0.4499  0.2901
  715SOL     OW 5036   5.752   6.343   0.628  0.1596 -0.4891  0.5029
  715SOL    HW1 5037   5.833   6.379   0.594 -0.3020  1.2856  1.1683
  715SOL    HW2 5038   5.763   6.343   0.723 -0.7483  0.1739  0.6282
  716SOL     OW 5039   8.130   8.621   6.609 -0.3372  0.4498  0.0556
  716SOL    HW1 5040   8.047   8.587   6.574  0.0958 -1.3814  0.6841
  716SOL    HW2 5041   8.122   8.609   6.703  0.6929  0.1356  0.1098
  717SOL     OW 5042   2.406   2.548   1.349  0.0713  0.1392 -0.3546
  717SOL    HW1 5043   2.347   2.616   1.383 -0.7864  0.1535 -1.8211
  717SOL    HW2 5044   2.353   2.468   1.349  0.4607 -0.1215 -0.4872
  718SOL     OW 5045   6.645   4.599   4.297  0.0821 -0.2636 -0.2459
  718SOL    HW1 5046   6.740   4.584   4.302  0.1419  0.0031 -0.5676
  718SOL    HW2 5047   6.637   4.687   4.259 -0.2848  0.0095  0.4489
  719SOL     OW 5048   6.026   4.304   5.655 -0.4234  0.6219 -1.0984
  719SOL    HW1 5049   6.111   4.326   5.693 -0.6538  0.5591 -0.5337
  719SOL    HW2 5050   5.985   4.389   5.638 -1.2102  0.6785  0.8481
  720SOL     OW 5051   6.951   7.562   4.889  0.2701 -0.5084 -0.0842
  720SOL    HW1 5052   6.954   7.516   4.973  3.3570  0.7286  0.5932
  720SOL    HW2 5053   6.923   7.650   4.911 -0.2658 -0.5423 -0.5942
  721SOL     OW 5054   3.458   2.019   4.519 -0.0190  0.6398  0.0268
  721SOL    HW1 5055   3.525   2.039   4.454 -0.9902 -0.9936 -1.5761
  721SOL    HW2 5056   3.399   2.095   4.517 -0.7696  0.0615 -2.0405
  722SOL     OW 5057   8.250   8.290   5.505  0.2428  0.0157 -0.6538
  722SOL    HW1 5058   8.270   8.213   5.558  0.7304  1.2766  1.0773
  722SOL    HW2 5059   8.169   8.267   5.460  0.5119 -1.5963 -0.3997
  723SOL     OW 5060   8.753   1.312   3.927 -0.1645  0.7941 -0.2467
  723SOL    HW1 5061   8.692   1.290   3.856 -1.2825  2.2068  0.2319
  723SOL    HW2 5062   8.698   1.309   4.006  0.9277 -0.1549  0.5109
  724SOL     OW 5063   2.804   3.731   1.414  0.4751  0.3918 -0.1970
  724SOL    HW1 5064   2.849   3.694   1.338 -1.6217  0.5350 -1.5910
  724SOL    HW2 5065   2.755   3.806   1.379 -1.6523 -0.3647  0.9591
  725SOL     OW 5066   0.128   8.239   0.617  0.4029 -0.4832  0.1818
  725SOL    HW1 5067   0.050   8.201   0.658  0.8048 -1.3047  0.2010
  725SOL    HW2 5068   0.156   8.174   0.553  0.6760  0.1164 -0.3212
  726SOL     OW 5069   1.070   5.914   2.183  0.1067  0.0096  0.2503
  726SOL    HW1 5070   1.136   5.867   2.235 -1.0665 -1.5108  0.4380
  726SOL    HW2 5071   0.990   5.863   2.195 -0.7910  1.0574 -1.0587
  727SOL     OW 5072   4.148   0.919   1.387 -0.1767 -0.3614  0.1011
  727SOL    HW1 5073   4.060   0.890   1.365 -0.7257  2.3331 -1.8224
  727SOL    HW2 5074   4.204   0.882   1.319 -0.3720  0.4087 -0.4987
  728SOL     OW 5075   3.713   1.494   1.193  0.2980  0.2431  0.5557
  728SOL    HW1 5076   3.618   1.487   1.204  0.3152 -1.8278 -0.2271
  728SOL    HW2 5077   3.749   1.484   1.281 -0.1735  0.9351  0.8397
  729SOL     OW 5078   4.680   5.391   1.244 -0.7872  0.2071  0.1221
  729SOL    HW1 5079   4.673   5.457   1.175  1.1500 -0.4643 -0.7854
  729SOL    HW2 5080   4.715   5.438   1.320 -1.7464  0.6866  0.2884
  730SOL     OW 5081   7.715   8.821   2.018  0.2560  0.0656 -0.4544
  730SOL    HW1 5082   7.728   8.734   1.981 -1.5863  0.0741 -1.2255
  730SOL    HW2 5083   7.661   8.806   2.096 -0.5159  0.5564 -0.8852
  731SOL     OW 5084   9.234   8.452   2.125 -0.1699 -0.1892 -0.0598
  731SOL    HW1 5085   9.181   8.391   2.177 -0.2875  0.6389  0.8250
  731SOL    HW2 5086   9.189   8.536   2.133  0.1315  0.0731 -1.0528
  732SOL     OW 5087   5.271   0.206   0.709 -0.2879 -0.0835  0.5940
  732SOL    HW1 5088   5.335   0.223   0.779  0.3326  2.3869 -0.4856
  732SOL    HW2 5089   5.200   0.159   0.753 -0.3714  2.1999  3.1566
  733SOL     OW 5090   8.232   2.586   8.600 -0.1779 -0.1634  0.0030
  733SOL    HW1 5091   8.220   2.615   8.690  0.8948 -1.0145  0.4401
  733SOL    HW2 5092   8.250   2.492   8.606  1.5985  0.0623 -0.9253
  734SOL     OW 5093   3.877   3.070   4.288 -0.1952 -0.1524 -0.0916
  734SOL    HW1 5094   3.823   3.141   4.323 -1.1071  0.4033 -2.4517
  734SOL    HW2 5095   3.940   3.114   4.231  1.5735 -0.9779  1.1233
  735SOL     OW 5096   8.116   6.246   3.566 -0.0248 -0.5528 -0.4164
  735SOL    HW1 5097   8.031   6.255   3.609  0.0230  1.0988 -0.5834
  735SOL    HW2 5098   8.097   6.262   3.473  0.4012 -0.6393 -0.5202
  736SOL     OW 5099   8.271   2.506   1.153 -0.0090 -0.1213 -0.7064
  736SOL    HW1 5100   8.335   2.517   1.083  2.0166 -1.2725  0.8293
  736SOL    HW2 5101   8.211   2.580   1.143  0.6433  0.1521 -3.1450
  737SOL     OW 5102   8.890   1.648   3.856  0.2137 -0.6149  0.1165
  737SOL    HW1 5103   8.872   1.589   3.930  1.5855 -1.2866 -0.0502
  737SOL    HW2 5104   8.902   1.734   3.896  0.0847 -0.8115  0.5847
  738SOL     OW 5105   3.693   4.009   4.899 -0.4159  0.0076 -0.0542
  738SOL    HW1 5106   3.710   4.100   4.921  1.0133 -0.5150  1.1348
  738SOL    HW2 5107   3.770   3.961   4.929 -1.2776 -1.6556 -0.3314
  739SOL     OW 5108   7.588   2.389   8.844  0.1830  0.9722  0.0849
  739SOL    HW1 5109   7.586   2.485   8.854  0.0152  0.8178  2.0210
  739SOL    HW2 5110   7.678   2.366   8.867 -0.3548  0.5154  1.9071
  740SOL     OW 5111   1.863   8.799   4.257 -0.5407  0.3706 -0.1668
  740SOL    HW1 5112   1.886   8.756   4.339  3.3142  0.7639 -0.8714
  740SOL    HW2 5113   1.858   8.728   4.193  0.3922  0.4056 -0.2937
  741SOL     OW 5114   2.665   1.336   3.285  0.5534 -0.1279  0.1892
  741SOL    HW1 5115   2.736   1.275   3.267 -0.4170 -1.6339  1.2327
  741SOL    HW2 5116   2.634   1.311   3.372 -0.5018  1.2468  0.2391
  742SOL     OW 5117   1.985   2.045   3.607  0.7608  0.5134 -0.5430
  742SOL    HW1 5118   1.910   2.072   3.659 -1.1784  0.6459 -3.2010
  742SOL    HW2 5119   2.008   1.958   3.641 -0.5647  0.4865  0.3512
  743SOL     OW 5120   2.274   4.512   7.188  0.3063 -0.2744 -0.5268
  743SOL    HW1 5121   2.269   4.421   7.218  1.9108 -0.5904 -1.1109
  743SOL    HW2 5122   2.341   4.552   7.244  0.9977  0.0002 -1.5171
  744SOL     OW 5123   4.349   8.050   7.335 -0.3900 -0.0664 -0.1999
  744SOL    HW1 5124   4.272   8.070   7.281 -1.0977 -0.6096  0.5655
  744SOL    HW2 5125   4.352   8.122   7.399  0.5800  0.6967 -1.0880
  745SOL     OW 5126   9.248   0.671   8.209 -0.5795 -0.1921 -0.2365
  745SOL    HW1 5127   9.255   0.716   8.125 -2.4491 -3.0674 -2.0961
  745SOL    HW2 5128   9.212   0.737   8.268  0.8138  1.9353 -1.6306
  746SOL     OW 5129   2.009   8.369   2.108  0.0072 -0.0501  0.0729
  746SOL    HW1 5130   1.986   8.458   2.082  1.1961 -0.2553 -1.8868
  746SOL    HW2 5131   2.038   8.378   2.199 -0.5722  1.4418  0.1401
  747SOL     OW 5132   9.204   4.186   8.659  0.3903  0.3265 -0.4171
  747SOL    HW1 5133   9.184   4.258   8.718  1.0570  1.6762 -1.7553
  747SOL    HW2 5134   9.162   4.210   8.576  0.0180 -1.1874 -0.6971
  748SOL     OW 5135   9.109   4.583   5.115 -0.0955  0.0989  0.0237
  748SOL    HW1 5136   9.160   4.664   5.118  0.7226 -0.3749  3.5643
  748SOL    HW2 5137   9.174   4.513   5.117 -0.8176 -0.7029 -2.0511
  749SOL     OW 5138   8.079   2.651   7.002 -0.0933  0.6591 -0.1690
  749SOL    HW1 5139   8.048   2.742   7.002 -1.1186  0.3360 -1.2347
  749SOL    HW2 5140   8.075   2.625   6.910 -0.6628 -0.7371  0.2251
  750SOL     OW 5141   3.544   7.343   5.367  0.1671  0.3368 -0.2046
  750SOL    HW1 5142   3.461   7.297   5.376 -0.9089  2.2523  0.3498
  750SOL    HW2 5143   3.523   7.435   5.387  2.7524  0.6379  1.7420
  751SOL     OW 5144   8.929   3.170   5.142  0.2735 -0.7671  0.0459
  751SOL    HW1 5145   8.911   3.249   5.194 -0.0250 -0.4182 -0.5797
  751SOL    HW2 5146   8.990   3.199   5.074  0.4451 -1.1570  0.0303
  752SOL     OW 5147   4.220   3.377   4.502  0.9972 -0.7171  0.4929
  752SOL    HW1 5148   4.218   3.463   4.544  0.6322 -0.6595  0.3622
  752SOL    HW2 5149   4.139   3.335   4.530  0.8916 -0.7911  0.0825
  753SOL     OW 5150   3.190   3.253   3.845  0.1366  0.0160  0.6247
  753SOL    HW1 5151   3.272   3.214   3.874  0.2899 -1.9665 -2.0512
  753SOL    HW2 5152   3.211   3.343   3.824  1.9122 -0.7028 -0.8828
  754SOL     OW 5153   0.246   8.167   7.539  0.1733 -0.3290 -0.3090
  754SOL    HW1 5154   0.195   8.140   7.615 -0.5466 -1.9894 -1.3199
  754SOL    HW2 5155   0.197   8.134   7.464  0.1975  2.3482 -1.6158
  755SOL     OW 5156   6.160   0.440   6.663 -0.2706 -0.2181 -0.3699
  755SOL    HW1 5157   6.080   0.393   6.638  0.3392 -0.7043 -1.4523
  755SOL    HW2 5158   6.225   0.371   6.676 -0.3637  0.0556  1.9310
  756SOL     OW 5159   7.574   7.592   5.617  0.1651  0.3626  0.0344
  756SOL    HW1 5160   7.600   7.589   5.709 -3.0107  1.5010  1.1210
  756SOL    HW2 5161   7.580   7.501   5.588  1.1039 -0.0496  1.4138
  757SOL     OW 5162   4.007   7.783   5.537 -0.3308  0.7396  0.1351
  757SOL    HW1 5163   3.936   7.792   5.473 -0.9267  0.8255  0.7993
  757SOL    HW2 5164   3.979   7.837   5.611  1.0087  1.7793 -0.0805
  758SOL     OW 5165   2.657   8.843   7.776  0.2783  0.2895 -0.0160
  758SOL    HW1 5166   2.660   8.823   7.683  0.9566 -0.2663  0.1169
  758SOL    HW2 5167   2.656   8.757   7.819  0.1517  0.5382  0.4953
  759SOL     OW 5168   9.248   7.586   5.134  0.1875  0.2429 -0.2885
  759SOL    HW1 5169   9.157   7.566   5.113  0.3712 -1.5827  0.4426
  759SOL    HW2 5170   9.264   7.540   5.217  1.9045  0.0682 -0.6797
  760SOL     OW 5171   5.699   0.542   4.045  0.3839 -0.5971 -0.6323
  760SOL    HW1 5172   5.656   0.537   4.130  1.4903 -0.4704 -0.0476
  760SOL    HW2 5173   5.690   0.454   4.008  1.6962 -1.2700  0.5461
  761SOL     OW 5174   5.196   8.235   8.462  0.2369 -0.2991  0.3926
  761SOL    HW1 5175   5.110   8.262   8.495  0.1393 -0.6659  0.4419
  761SOL    HW2 5176   5.196   8.261   8.370 -0.4367 -1.4690  0.0399
  762SOL     OW 5177   8.225   1.995   4.940  0.3731 -0.3587  0.1076
  762SOL    HW1 5178   8.252   1.964   5.026 -0.3041 -2.7981 -0.4971
  762SOL    HW2 5179   8.132   1.973   4.935  0.2624  0.3058 -1.0430
  763SOL     OW 5180   1.077   0.010   6.407  0.8059  0.0886 -0.3196
  763SOL    HW1 5181   1.169  -0.015   6.399  0.4923 -1.0150 -0.7475
  763SOL    HW2 5182   1.033  -0.071   6.434  0.0336  0.7374  0.4427
  764SOL     OW 5183   5.227   0.203   4.438  0.0486 -0.5622 -0.8066
  764SOL    HW1 5184   5.198   0.120   4.476 -0.0432  0.1399  0.7656
  764SOL    HW2 5185   5.247   0.183   4.347  1.2650 -2.5965 -0.1550
  765SOL     OW 5186   6.066   9.044   1.009  0.5971  0.7217 -0.1691
  765SOL    HW1 5187   5.983   9.091   0.998  0.7223  0.9937  0.0486
  765SOL    HW2 5188   6.129   9.111   1.034  0.6002  0.3250  0.9378
  766SOL     OW 5189   2.601   5.565   6.330  0.0361  0.0153 -0.0207
  766SOL    HW1 5190   2.510   5.560   6.300  0.1514  2.1256 -0.9282
  766SOL    HW2 5191   2.595   5.557   6.425 -0.9442 -1.1186 -0.1462
  767SOL     OW 5192   8.258   3.459   8.004 -0.8231 -0.1733 -0.0678
  767SOL    HW1 5193   8.325   3.397   7.976  0.1216 -0.1934  2.0771
  767SOL    HW2 5194   8.192   3.405   8.047 -0.9740  0.1045  0.0473
  768SOL     OW 5195   5.258   1.738   4.150 -0.1644 -0.3234  0.4071
  768SOL    HW1 5196   5.306   1.679   4.091 -2.3529 -2.5987  0.7279
  768SOL    HW2 5197   5.166   1.715   4.137 -0.9186  1.1787  2.5655
  769SOL     OW 5198   5.635   8.289   4.635 -0.1225 -0.0246  0.9004
  769SOL    HW1 5199   5.653   8.369   4.684  0.9083 -0.1552  0.7498
  769SOL    HW2 5200   5.540   8.276   4.645 -1.0857  3.2099 -2.0726
  770SOL     OW 5201   9.054   0.157   2.090  0.2053 -0.0591 -0.0849
  770SOL    HW1 5202   9.080   0.164   1.998  1.9365 -0.1172  0.3688
  770SOL    HW2 5203   8.982   0.220   2.100 -0.3331 -0.4069 -1.5760
  771SOL     OW 5204   2.141   7.164   6.075  0.4994  0.1593 -0.6934
  771SOL    HW1 5205   2.183   7.239   6.115  1.1643  0.2271 -1.4760
  771SOL    HW2 5206   2.213   7.104   6.054  0.0506 -0.3997 -0.6884
  772SOL     OW 5207   0.610   7.284   5.831  0.2232  0.1524 -0.0497
  772SOL    HW1 5208   0.663   7.348   5.783  0.7331 -0.9124 -0.9617
  772SOL    HW2 5209   0.553   7.337   5.887  0.9953  1.3783 -0.3831
  773SOL     OW 5210   0.080   3.365   8.817 -0.5927 -0.3272 -0.4824
  773SOL    HW1 5211  -0.010   3.350   8.844 -0.3519 -1.9347 -0.4452
  773SOL    HW2 5212   0.122   3.406   8.893 -1.4866  1.2632 -0.8217
  774SOL     OW 5213   5.465   6.086   7.387 -0.3424 -0.7314  0.5146
  774SOL    HW1 5214   5.456   6.167   7.336 -0.8619 -0.9238  0.2942
  774SOL    HW2 5215   5.459   6.115   7.478  3.2957 -0.0107  0.6652
  775SOL     OW 5216   1.179   3.048   6.040 -0.5246  0.5728  0.0311
  775SOL    HW1 5217   1.139   3.023   6.123 -0.0181 -0.9992 -0.1754
  775SOL    HW2 5218   1.273   3.039   6.055 -0.3370  1.9013 -0.2228
  776SOL     OW 5219   0.049   4.704   1.643 -0.1828 -0.4978  0.0681
  776SOL    HW1 5220   0.130   4.711   1.693  0.3751  1.0945 -0.9520
  776SOL    HW2 5221  -0.018   4.682   1.708  0.6625  0.5959  1.3823
  777SOL     OW 5222   8.649   1.424   1.671 -0.0309 -0.1435  0.0346
  777SOL    HW1 5223   8.651   1.404   1.764 -1.3232  1.1884  0.3889
  777SOL    HW2 5224   8.700   1.354   1.630 -0.3987 -1.3983  1.6116
  778SOL     OW 5225   4.735   0.189   0.148 -0.3601 -0.4193 -0.2508
  778SOL    HW1 5226   4.725   0.217   0.057  1.1312  0.7236 -0.0908
  778SOL    HW2 5227   4.830   0.181   0.161 -0.4967  0.2021  1.4213
  779SOL     OW 5228   9.193   3.090   4.365  0.0020  0.1660 -0.3433
  779SOL    HW1 5229   9.191   3.093   4.460  1.4063 -0.7093 -0.2598
  779SOL    HW2 5230   9.150   3.008   4.342  0.3743 -0.0141 -0.4113
  780SOL     OW 5231   1.455   5.920   6.539  0.0591  0.8397 -0.4933
  780SOL    HW1 5232   1.451   5.830   6.504  0.5273  0.6633 -0.0969
  780SOL    HW2 5233   1.413   5.973   6.472  0.4080  0.4159 -1.0600
  781SOL     OW 5234   5.299   5.522   6.746 -0.3515 -0.1784 -0.6053
  781SOL    HW1 5235   5.363   5.524   6.675  1.8138  1.2023  1.2498
  781SOL    HW2 5236   5.220   5.560   6.708  0.6591  0.3158 -2.3295
  782SOL     OW 5237   2.448   0.733   4.687  0.2244  0.3850 -0.0565
  782SOL    HW1 5238   2.371   0.693   4.648  0.5749 -0.1081 -0.2542
  782SOL    HW2 5239   2.422   0.823   4.705 -0.2553  0.3398 -0.5125
  783SOL     OW 5240   0.299   0.881   3.472 -0.0086 -0.3697  0.0186
  783SOL    HW1 5241   0.265   0.967   3.497 -0.6448 -0.8729  0.9306
  783SOL    HW2 5242   0.391   0.897   3.449 -0.1966  0.5957 -0.0976
  784SOL     OW 5243   2.839   0.189   5.459 -0.5392  0.2534  0.6204
  784SOL    HW1 5244   2.794   0.234   5.388 -1.5054  0.1730  1.1591
  784SOL    HW2 5245   2.780   0.198   5.534 -1.4728 -3.0192  0.4485
  785SOL     OW 5246   2.477   3.119   6.992 -0.3338  0.3084  0.4036
  785SOL    HW1 5247   2.406   3.069   6.950 -0.2928  0.9471 -0.4573
  785SOL    HW2 5248   2.455   3.210   6.976  1.0683  0.5135 -0.5688
  786SOL     OW 5249   6.614   0.125   7.425  0.6869 -0.0178 -0.3525
  786SOL    HW1 5250   6.604   0.197   7.362  1.9359 -0.0559 -0.6185
  786SOL    HW2 5251   6.669   0.161   7.494  1.1318 -0.6465 -0.3747
  787SOL     OW 5252   4.212   1.112   2.026 -0.0026 -0.0949 -0.3342
  787SOL    HW1 5253   4.150   1.040   2.040 -2.0665  1.6132 -0.2348
  787SOL    HW2 5254   4.157   1.190   2.017  2.0630  1.2476 -2.2244
  788SOL     OW 5255   0.307   5.826   2.933  0.2204  0.1467 -0.1310
  788SOL    HW1 5256   0.315   5.826   3.029 -2.0383 -0.7460  0.1214
  788SOL    HW2 5257   0.266   5.910   2.913 -0.3451 -0.1371 -0.1840
  789SOL     OW 5258   4.474   1.852   5.300 -0.3711  0.0875  0.1419
  789SOL    HW1 5259   4.478   1.938   5.341  3.1008  0.0987  0.0388
  789SOL    HW2 5260   4.501   1.791   5.369  2.6048 -0.2209 -1.1655
  790SOL     OW 5261   0.742   4.173   1.511 -0.9966  0.1622 -0.6014
  790SOL    HW1 5262   0.755   4.243   1.575 -0.5194  0.2980 -0.8409
  790SOL    HW2 5263   0.824   4.124   1.512 -1.9664 -1.5329  0.8958
  791SOL     OW 5264   5.551   6.876   4.607 -0.6046 -0.5799 -0.3978
  791SOL    HW1 5265   5.463   6.861   4.573 -1.5057  1.3175  0.8692
  791SOL    HW2 5266   5.538   6.889   4.701  1.1685 -1.1245 -0.0374
  792SOL     OW 5267   6.147   4.203   3.201  0.2014 -0.0888 -0.0624
  792SOL    HW1 5268   6.160   4.109   3.216 -1.9397 -0.2726  0.9094
  792SOL    HW2 5269   6.120   4.210   3.110  1.0246 -0.3152 -0.3349
  793SOL     OW 5270   8.987   1.587   5.025  0.4233  0.5048  0.1395
  793SOL    HW1 5271   8.957   1.497   5.016 -0.0008  0.6339  0.2370
  793SOL    HW2 5272   8.982   1.605   5.119 -0.8479  1.0828 -0.0248
  794SOL     OW 5273   7.432   9.032   3.060 -0.6626  0.2723 -0.0085
  794SOL    HW1 5274   7.516   8.999   3.091 -0.2877  0.0926 -1.1511
  794SOL    HW2 5275   7.381   9.048   3.140  0.2888 -0.0398  0.6802
  795SOL     OW 5276   8.001   5.581   4.444  0.2519 -0.6536  0.1973
  795SOL    HW1 5277   8.094   5.574   4.466  0.0613  0.3954  1.4006
  795SOL    HW2 5278   7.956   5.589   4.528 -0.6990  1.3252 -0.4300
  796SOL     OW 5279   2.823   0.635   3.303 -0.1658  0.1880 -0.0744
  796SOL    HW1 5280   2.739   0.670   3.334 -0.2382 -0.1167  0.0749
  796SOL    HW2 5281   2.808   0.619   3.210 -1.2341 -2.5710  0.4645
  797SOL     OW 5282   6.615   6.956   1.871 -0.0984  0.1836 -0.0607
  797SOL    HW1 5283   6.711   6.947   1.872  0.0545  1.5566  1.0606
  797SOL    HW2 5284   6.585   6.902   1.944 -0.0086  1.0244  0.6214
  798SOL     OW 5285   6.624   4.653   1.818 -0.3121 -0.3251  0.3679
  798SOL    HW1 5286   6.572   4.609   1.886  0.2903  1.0173  1.7734
  798SOL    HW2 5287   6.566   4.657   1.742 -0.8588 -2.2552  0.6316
  799SOL     OW 5288   5.990   3.528   4.477 -0.1293 -0.0608  0.3326
  799SOL    HW1 5289   5.985   3.522   4.382  3.3979  0.6626 -0.0452
  799SOL    HW2 5290   5.918   3.587   4.501 -0.5102  0.5221 -1.9874
  800SOL     OW 5291   1.904   0.403   2.144  0.0716  0.4006  0.3561
  800SOL    HW1 5292   1.855   0.483   2.160 -1.7265 -0.6608  0.4678
  800SOL    HW2 5293   1.883   0.346   2.219 -0.8574 -1.1266 -0.9953
  801SOL     OW 5294   4.977   3.414   3.237 -0.4913 -1.4941  0.2809
  801SOL    HW1 5295   4.965   3.489   3.295 -0.7102  1.7820 -3.6046
  801SOL    HW2 5296   5.071   3.394   3.244  0.8524  2.7433 -2.2368
  802SOL     OW 5297   8.872   9.074   0.741  0.2513 -0.7018  0.3247
  802SOL    HW1 5298   8.855   9.106   0.829 -1.8065  0.2053 -0.3422
  802SOL    HW2 5299   8.913   8.989   0.753 -0.8476 -1.0080  2.1618
  803SOL     OW 5300   7.304   0.642   0.466 -0.0191 -0.2540  0.0161
  803SOL    HW1 5301   7.328   0.651   0.374 -2.1397  2.0216 -0.4126
  803SOL    HW2 5302   7.361   0.704   0.512  1.6766 -2.0292  0.4714
  804SOL     OW 5303   6.113   9.161   1.688 -0.2511 -0.1888  0.1322
  804SOL    HW1 5304   6.182   9.095   1.680 -1.1670 -1.4520  1.8612
  804SOL    HW2 5305   6.124   9.197   1.777 -0.5548  1.1025 -0.3202
  805SOL     OW 5306   8.370   4.205   0.651  0.3042  0.5384 -0.1342
  805SOL    HW1 5307   8.457   4.198   0.612 -0.4434  0.4592 -1.9127
  805SOL    HW2 5308   8.313   4.155   0.592 -0.8208 -0.1469  1.4621
  806SOL     OW 5309   7.935   8.183   0.434 -0.1593  0.4337 -0.1919
  806SOL    HW1 5310   7.927   8.131   0.514  0.3606 -1.1655 -1.1249
  806SOL    HW2 5311   7.911   8.122   0.364 -2.3880  2.2969 -1.1549
  807SOL     OW 5312   0.521   7.682   1.050 -0.5329  0.0328  0.0837
  807SOL    HW1 5313   0.568   7.645   0.975 -1.0178  0.3244 -0.3723
  807SOL    HW2 5314   0.524   7.777   1.036  0.8735  0.2245  1.3457
  808SOL     OW 5315   5.259   5.706   0.493 -0.4211 -0.0093 -0.4437
  808SOL    HW1 5316   5.281   5.617   0.467 -0.5309  0.3212 -1.7351
  808SOL    HW2 5317   5.342   5.745   0.521  0.3681  0.5945 -3.3469
  809SOL     OW 5318   4.075   6.351   6.145  0.1307  0.2688 -0.4486
  809SOL    HW1 5319   4.038   6.439   6.132 -2.1232 -0.5725 -0.2659
  809SOL    HW2 5320   4.049   6.303   6.066  1.7782 -0.1366 -0.7769
  810SOL     OW 5321   5.818   4.127   4.389  0.1021 -0.0148  0.0811
  810SOL    HW1 5322   5.887   4.066   4.364  1.8276  1.0037  2.0236
  810SOL    HW2 5323   5.854   4.214   4.369 -1.1275  0.4995 -0.0059
  811SOL     OW 5324   4.063   7.052   0.135  0.5808 -0.0429 -0.0314
  811SOL    HW1 5325   4.022   7.138   0.137  0.6168 -0.0201 -0.2609
  811SOL    HW2 5326   4.065   7.024   0.226 -0.9803 -0.5415 -0.1302
  812SOL     OW 5327   4.194   4.625   5.099 -0.0363  0.3205  0.3219
  812SOL    HW1 5328   4.256   4.654   5.167  0.8893 -2.2373  0.6711
  812SOL    HW2 5329   4.122   4.585   5.148 -0.6842  0.8503 -0.1739
  813SOL     OW 5330   5.407   7.443   5.112 -0.2485 -0.5669 -0.6267
  813SOL    HW1 5331   5.334   7.403   5.160  0.2309  0.5339  1.1200
  813SOL    HW2 5332   5.407   7.398   5.028 -3.8839  0.3975 -1.3419
  814SOL     OW 5333   0.120   4.103   4.658 -0.3696 -0.3148  1.1177
  814SOL    HW1 5334   0.028   4.129   4.661  0.1560  1.8589  0.3309
  814SOL    HW2 5335   0.149   4.105   4.750 -1.1100 -1.1597  1.3827
  815SOL     OW 5336   3.545   5.420   3.777  0.0079 -0.2245  0.7678
  815SOL    HW1 5337   3.607   5.490   3.792 -0.9867  0.2635  3.0341
  815SOL    HW2 5338   3.536   5.376   3.862 -2.4507 -0.4814  0.4693
  816SOL     OW 5339   1.481   6.395   0.175 -0.3059 -0.4975  0.6230
  816SOL    HW1 5340   1.569   6.378   0.141 -0.8721 -0.1509 -1.1010
  816SOL    HW2 5341   1.436   6.311   0.166 -0.1715 -0.6660  1.4744
  817SOL     OW 5342   8.740   3.808   7.377 -0.0835  0.4153  0.0313
  817SOL    HW1 5343   8.801   3.880   7.359 -0.8694  0.9545 -0.5625
  817SOL    HW2 5344   8.729   3.765   7.292 -1.1677  0.8441 -0.0617
  818SOL     OW 5345   6.410   4.463   8.076 -0.3213 -0.6148  0.0113
  818SOL    HW1 5346   6.434   4.555   8.084 -1.1736 -0.5371  2.4850
  818SOL    HW2 5347   6.325   4.464   8.032 -0.1567 -0.2608 -0.3032
  819SOL     OW 5348   9.080   2.345   7.050  0.3118 -0.1270 -0.6261
  819SOL    HW1 5349   9.029   2.425   7.066  1.9142  0.6450  1.0558
  819SOL    HW2 5350   9.119   2.358   6.964  0.6341  0.9831 -0.3309
  820SOL     OW 5351   0.108   1.524   0.410  0.4881  0.3812  0.6835
  820SOL    HW1 5352   0.094   1.566   0.495  0.2685 -1.1693  1.4353
  820SOL    HW2 5353   0.043   1.454   0.406 -0.5245  1.3615 -1.4336
  821SOL     OW 5354   4.702   2.171   0.752  0.5955 -0.6341 -0.1750
  821SOL    HW1 5355   4.720   2.260   0.720 -1.1010  0.0499  0.6521
  821SOL    HW2 5356   4.638   2.135   0.691 -4.1729  1.3737  3.0144
  822SOL     OW 5357   2.855   2.180   8.841  0.3273 -0.1998 -0.1745
  822SOL    HW1 5358   2.862   2.143   8.753  1.6088  1.4710 -0.8338
  822SOL    HW2 5359   2.887   2.269   8.832 -1.2561  0.6200  1.6356
  823SOL     OW 5360   0.515   4.603   2.823  0.0238  0.0260 -0.5894
  823SOL    HW1 5361   0.464   4.529   2.791 -0.6567  0.6710 -1.0375
  823SOL    HW2 5362   0.466   4.680   2.793  0.7430  0.6528 -0.1760
  824SOL     OW 5363   0.062   7.350   9.122 -0.2896  0.1318 -0.3225
  824SOL    HW1 5364   0.040   7.260   9.146  0.2410 -0.2644 -1.2653
  824SOL    HW2 5365   0.080   7.393   9.206 -1.3959 -0.3986  0.2065
  825SOL     OW 5366   6.273   6.210   0.728 -0.0134  0.0889  0.0706
  825SOL    HW1 5367   6.211   6.278   0.754 -2.1363 -2.0118  0.8967
  825SOL    HW2 5368   6.224   6.128   0.737  2.2043 -1.5429 -1.4575
  826SOL     OW 5369   2.585   7.382   2.744  0.1713  0.4687 -0.3003
  826SOL    HW1 5370   2.662   7.433   2.720  0.1090  1.1200  0.8004
  826SOL    HW2 5371   2.511   7.432   2.710  0.2249 -0.1085 -1.2762
  827SOL     OW 5372   3.396   1.620   8.079  0.1757 -0.4890  0.2367
  827SOL    HW1 5373   3.300   1.611   8.079 -0.2097  2.5416 -0.5306
  827SOL    HW2 5374   3.418   1.632   8.171 -0.1560 -1.1737  0.4177
  828SOL     OW 5375   7.450   3.653   3.293  0.3947 -0.0014 -0.0601
  828SOL    HW1 5376   7.444   3.742   3.256 -0.5572 -0.9392 -2.3547
  828SOL    HW2 5377   7.409   3.597   3.227  0.9585 -2.1725  1.3342
  829SOL     OW 5378   3.764   0.172   4.473 -0.4364 -0.2972  0.2408
  829SOL    HW1 5379   3.706   0.100   4.448  0.1525 -0.0615 -2.0345
  829SOL    HW2 5380   3.711   0.225   4.533 -2.0424 -0.9269 -0.5376
  830SOL     OW 5381   8.779   1.479   3.656  0.5106  0.1079  0.1441
  830SOL    HW1 5382   8.707   1.537   3.633  0.7499  1.0280  1.5855
  830SOL    HW2 5383   8.841   1.535   3.702  2.8843 -0.3046 -2.2851
  831SOL     OW 5384   1.049   8.082   0.315  0.3746  0.0990  0.0674
  831SOL    HW1 5385   0.989   8.094   0.389  2.2191  4.0512  1.2444
  831SOL    HW2 5386   1.132   8.119   0.347  1.8436  0.0366 -3.2975
  832SOL     OW 5387   4.252   2.114   7.376 -0.5080 -0.2839  0.1455
  832SOL    HW1 5388   4.228   2.166   7.300  0.3529 -0.7868 -0.4841
  832SOL    HW2 5389   4.334   2.072   7.352 -1.7320 -2.8997  0.1522
  833SOL     OW 5390   3.994   3.005   4.913  0.2471 -0.4001 -0.3637
  833SOL    HW1 5391   3.942   2.975   4.838 -1.2210  0.6250  0.2013
  833SOL    HW2 5392   3.940   2.983   4.989  0.7470  0.4989  0.2602
  834SOL     OW 5393   6.358   5.634   1.550  0.7841 -0.6699  0.0268
  834SOL    HW1 5394   6.425   5.697   1.523 -0.3866 -0.1439 -1.8377
  834SOL    HW2 5395   6.275   5.676   1.530 -0.1755 -1.1612  2.6364
  835SOL     OW 5396   1.976   4.419   3.189  0.1582  0.0493 -0.3652
  835SOL    HW1 5397   1.945   4.506   3.214 -1.0234 -0.3827 -0.2534
  835SOL    HW2 5398   1.914   4.359   3.230  1.8106 -0.9278  0.8042
  836SOL     OW 5399   0.576   6.880   5.831 -0.5109 -0.0266  0.2548
  836SOL    HW1 5400   0.544   6.961   5.870  1.2890  1.6615 -1.5661
  836SOL    HW2 5401   0.670   6.880   5.849 -0.4850 -1.8554  0.3698
  837SOL     OW 5402   7.509   6.649   6.651  0.0139 -0.5456 -0.5783
  837SOL    HW1 5403   7.516   6.587   6.578  2.0163 -0.8840 -0.1577
  837SOL    HW2 5404   7.587   6.633   6.704  0.0260  1.5892  0.1539
  838SOL     OW 5405   0.745   8.358   0.149 -0.1298 -0.6209  0.0696
  838SOL    HW1 5406   0.756   8.443   0.192 -1.1538 -0.2822 -0.3001
  838SOL    HW2 5407   0.822   8.349   0.093  0.5872 -0.4972  1.0144
  839SOL     OW 5408   2.290   3.274   8.873 -0.1876 -0.0030 -0.3995
  839SOL    HW1 5409   2.271   3.317   8.790  0.0432 -0.6386 -0.7860
  839SOL    HW2 5410   2.382   3.294   8.890  1.2272 -3.6141 -2.6390
  840SOL     OW 5411   0.797   2.048   1.492 -1.0348  0.4810 -0.6706
  840SOL    HW1 5412   0.876   1.995   1.483 -2.1242 -1.3688  0.1432
  840SOL    HW2 5413   0.798   2.105   1.416  1.9003  1.6941  0.1096
  841SOL     OW 5414   5.870   0.529   1.142  0.6668  0.2692  0.0844
  841SOL    HW1 5415   5.941   0.522   1.205  1.0341  1.0575 -0.2163
  841SOL    HW2 5416   5.901   0.595   1.079 -0.0104  0.0648 -0.4779
  842SOL     OW 5417   0.854   9.060   3.107 -0.2128  0.3484 -0.1150
  842SOL    HW1 5418   0.933   9.023   3.147 -0.9415  2.0070  3.1911
  842SOL    HW2 5419   0.789   8.991   3.113  0.3973 -0.3238 -0.9713
  843SOL     OW 5420   0.114   9.013   4.455 -0.1572 -0.3167  0.2534
  843SOL    HW1 5421   0.119   9.101   4.417  0.5159  0.0209  1.0947
  843SOL    HW2 5422   0.194   9.004   4.506  0.5965 -2.0721 -1.1438
  844SOL     OW 5423   8.047   2.633   8.405  0.6006  0.6594 -0.1043
  844SOL    HW1 5424   7.954   2.611   8.419  0.5495  0.4263 -0.7997
  844SOL    HW2 5425   8.085   2.629   8.493 -0.1485  1.2373  0.2679
  845SOL     OW 5426   3.896   0.293   7.821  1.0619 -0.0403  0.6210
  845SOL    HW1 5427   3.848   0.373   7.844  0.5755  0.0330 -0.6025
  845SOL    HW2 5428   3.912   0.251   7.906 -4.0061 -1.7262  1.1086
  846SOL     OW 5429   3.130   8.280   8.366 -0.4303 -0.0751  0.2628
  846SOL    HW1 5430   3.071   8.211   8.396 -0.2991 -0.5466 -0.5140
  846SOL    HW2 5431   3.089   8.313   8.286 -0.7991  1.1829  0.9402
  847SOL     OW 5432   0.502   8.350   3.716 -0.8049 -0.6564  0.5250
  847SOL    HW1 5433   0.506   8.255   3.705  1.2447 -0.5940  0.2767
  847SOL    HW2 5434   0.524   8.364   3.808 -0.5900 -0.4010  0.4352
  848SOL     OW 5435   5.656   5.579   7.935  0.2942 -0.3097 -0.0982
  848SOL    HW1 5436   5.641   5.513   7.867 -1.1418  0.3219 -0.4485
  848SOL    HW2 5437   5.595   5.650   7.913  0.8960  0.5833  0.9859
  849SOL     OW 5438   6.882   3.072   8.208 -0.1472  0.7514 -0.3223
  849SOL    HW1 5439   6.866   2.978   8.222 -0.8170  1.3213  4.5514
  849SOL    HW2 5440   6.977   3.079   8.201 -0.0500 -0.2542 -0.2278
  850SOL     OW 5441   8.524   1.838   3.468  0.0091  0.4516 -0.7469
  850SOL    HW1 5442   8.433   1.862   3.489  0.1518  1.1763 -0.9461
  850SOL    HW2 5443   8.547   1.894   3.394  0.7906  0.6444 -0.3610
  851SOL     OW 5444   8.128   1.547   6.693  0.4371 -0.2540  0.4018
  851SOL    HW1 5445   8.154   1.526   6.603  0.1625  0.5207  0.1367
  851SOL    HW2 5446   8.203   1.592   6.731  0.7538 -1.0431  0.7407
  852SOL     OW 5447   7.517   8.959   4.958  0.3235  0.5964  0.2681
  852SOL    HW1 5448   7.497   8.871   4.989  1.6797  0.3925  0.6310
  852SOL    HW2 5449   7.499   8.956   4.864 -1.3598  0.4707  0.5703
  853SOL     OW 5450   1.112   0.621   6.225 -0.0871 -0.3419  0.2998
  853SOL    HW1 5451   1.123   0.715   6.234 -0.8269 -0.3557  1.5171
  853SOL    HW2 5452   1.156   0.599   6.142 -1.8943  1.4119 -1.2250
  854SOL     OW 5453   4.278   7.602   7.043 -0.1173  0.3728 -0.1573
  854SOL    HW1 5454   4.304   7.664   7.111  1.0457  0.8781 -1.0268
  854SOL    HW2 5455   4.220   7.653   6.986  0.0901  0.3886 -0.3545
  855SOL     OW 5456   8.147   3.442   5.971 -1.1078 -0.1368  0.4251
  855SOL    HW1 5457   8.091   3.516   5.994  0.2944  1.0632  0.1752
  855SOL    HW2 5458   8.130   3.427   5.878 -1.8068 -0.5235  0.6066
  856SOL     OW 5459   3.134   7.711   4.818  0.0279 -0.2015  0.0755
  856SOL    HW1 5460   3.102   7.762   4.893  0.5425  0.1327  0.0742
  856SOL    HW2 5461   3.178   7.776   4.763  0.4556 -0.6043 -0.0591
  857SOL     OW 5462   4.089   8.584   7.431  0.4153 -0.0720  0.2564
  857SOL    HW1 5463   4.085   8.654   7.367 -0.9469  0.3655  0.7913
  857SOL    HW2 5464   4.017   8.602   7.491  0.1788 -1.7972  0.5380
  858SOL     OW 5465   1.516   7.466   3.910  0.9279  0.2853  0.2725
  858SOL    HW1 5466   1.470   7.391   3.873  0.5788  0.8906 -0.5546
  858SOL    HW2 5467   1.593   7.428   3.951  0.8698 -0.5105 -0.3134
  859SOL     OW 5468   5.290   2.529   3.594 -0.4069 -0.0783 -0.1478
  859SOL    HW1 5469   5.260   2.569   3.676 -2.4622  0.8182 -1.2646
  859SOL    HW2 5470   5.303   2.437   3.615 -1.0106  0.1208  1.1714
  860SOL     OW 5471   1.218   9.180   7.547 -0.0824 -0.1394  0.4319
  860SOL    HW1 5472   1.184   9.160   7.635 -0.8175  0.4966  0.3033
  860SOL    HW2 5473   1.268   9.102   7.523 -1.7811 -1.3124  0.4774
  861SOL     OW 5474   4.881   5.252   4.926 -0.4401  0.3076 -0.0967
  861SOL    HW1 5475   4.929   5.333   4.910  0.4679 -0.1323  0.3226
  861SOL    HW2 5476   4.856   5.221   4.839 -0.8794  1.0862 -0.2511
  862SOL     OW 5477   1.205   0.905   8.031 -0.0107  0.7734 -0.3397
  862SOL    HW1 5478   1.155   0.978   8.069  1.6658  1.4322  0.6819
  862SOL    HW2 5479   1.196   0.834   8.094 -0.2169  0.6696 -0.4869
  863SOL     OW 5480   0.963   3.500   2.460  0.3312 -0.0052  0.0503
  863SOL    HW1 5481   0.915   3.504   2.378 -0.0493  1.0920  0.3061
  863SOL    HW2 5482   0.954   3.410   2.489  1.9798 -0.9155 -1.9699
  864SOL     OW 5483   0.012   7.592   1.851  0.1653 -0.2064  0.0030
  864SOL    HW1 5484   0.050   7.510   1.883  0.0789 -1.1082 -2.0067
  864SOL    HW2 5485  -0.075   7.594   1.890  0.2030 -1.0496  0.1583
  865SOL     OW 5486   7.192   8.337   7.448 -0.7371 -0.1966 -0.3874
  865SOL    HW1 5487   7.138   8.271   7.490 -0.6192 -0.4072 -0.5683
  865SOL    HW2 5488   7.247   8.289   7.387 -0.4990  0.0421 -0.3654
  866SOL     OW 5489   7.122   1.553   3.829 -0.2300  0.6488  0.2736
  866SOL    HW1 5490   7.068   1.474   3.842 -1.1875  1.0620 -0.9429
  866SOL    HW2 5491   7.086   1.617   3.891  0.5166  0.1736  1.2292
  867SOL     OW 5492   1.925   1.823   3.760  0.3398  0.0160 -0.0449
  867SOL    HW1 5493   1.836   1.805   3.731 -1.4737  2.7457  3.1175
  867SOL    HW2 5494   1.961   1.737   3.782 -1.0878 -1.2398 -2.2679
  868SOL     OW 5495   2.373   7.638   4.902  0.1414 -0.4146  0.2449
  868SOL    HW1 5496   2.441   7.580   4.867 -0.0572 -0.8052  0.5045
  868SOL    HW2 5497   2.294   7.584   4.904  0.1792 -0.4445  1.4191
  869SOL     OW 5498   3.983   3.051   3.766  0.0444 -0.4041 -0.0005
  869SOL    HW1 5499   4.045   2.988   3.803 -0.2275 -0.5417  0.2260
  869SOL    HW2 5500   3.905   2.999   3.746 -0.5107  0.0042  1.0001
  870SOL     OW 5501   1.210   2.051   2.431  0.0564 -0.4495  0.1225
  870SOL    HW1 5502   1.118   2.040   2.455  0.0693 -3.0279 -0.6972
  870SOL    HW2 5503   1.252   1.971   2.460  1.7434  0.0016 -0.9221
  871SOL     OW 5504   2.790   5.195   9.239 -0.3058  0.4772  0.5837
  871SOL    HW1 5505   2.834   5.227   9.160 -1.5014 -1.2430 -0.8620
  871SOL    HW2 5506   2.862   5.170   9.298  0.6451  0.2537 -0.6252
  872SOL     OW 5507   0.768   8.816   8.388  0.0364  0.2933  0.2192
  872SOL    HW1 5508   0.728   8.771   8.313  0.4533 -2.9901  1.8211
  872SOL    HW2 5509   0.846   8.858   8.351 -0.7158  0.2764 -1.4956
  873SOL     OW 5510   8.623   7.561   1.852 -0.7851  0.5133  0.2080
  873SOL    HW1 5511   8.617   7.639   1.796 -0.3047 -0.3810 -1.1391
  873SOL    HW2 5512   8.533   7.546   1.881 -1.0079  1.1326 -0.1394
  874SOL     OW 5513   3.076   2.196   0.860  0.8289 -0.1696  0.2243
  874SOL    HW1 5514   3.003   2.178   0.800 -1.3261  2.5229  1.8289
  874SOL    HW2 5515   3.143   2.235   0.804  0.2090 -0.6768 -0.9254
  875SOL     OW 5516   1.511   5.349   5.507 -0.3020  0.5410 -0.1641
  875SOL    HW1 5517   1.588   5.315   5.463  0.0167 -1.4141  1.7449
  875SOL    HW2 5518   1.545   5.390   5.587 -1.2098 -3.0532  2.3604
  876SOL     OW 5519   1.014   0.895   6.998 -0.3341  0.1676 -0.5669
  876SOL    HW1 5520   0.919   0.898   6.987 -0.6171  1.6397  1.5642
  876SOL    HW2 5521   1.047   0.953   6.929 -1.4554  3.6728  1.5646
  877SOL     OW 5522   7.589   0.936   7.725 -0.4046 -0.2936 -0.0679
  877SOL    HW1 5523   7.577   0.860   7.783  0.4528  0.7785  1.5615
  877SOL    HW2 5524   7.505   0.982   7.728 -0.6884 -0.7676 -0.4955
  878SOL     OW 5525   4.352   8.731   3.745  0.2625 -0.2517 -0.5699
  878SOL    HW1 5526   4.284   8.797   3.756  0.7950  0.1494  0.4384
  878SOL    HW2 5527   4.320   8.675   3.674 -0.3213  0.9217 -1.2600
  879SOL     OW 5528   0.383   0.820   6.341  0.3146 -0.1369  0.6743
  879SOL    HW1 5529   0.450   0.852   6.402  0.8759 -1.0493  0.5568
  879SOL    HW2 5530   0.305   0.872   6.361 -0.0649 -1.5606  3.4029
  880SOL     OW 5531   2.493   3.024   4.262  0.0146 -0.2034  0.0387
  880SOL    HW1 5532   2.529   3.052   4.177  0.3490 -1.5453 -0.2893
  880SOL    HW2 5533   2.568   3.025   4.321 -0.4271  1.8015  0.6414
  881SOL     OW 5534   7.974   3.601   6.328  0.2692 -0.0582 -0.0172
  881SOL    HW1 5535   8.040   3.616   6.396 -0.5427  1.0148  0.5612
  881SOL    HW2 5536   7.968   3.685   6.282 -0.7125 -0.1329 -0.0401
  882SOL     OW 5537   1.803   9.142   6.603 -0.3134  0.1521 -0.2606
  882SOL    HW1 5538   1.860   9.198   6.550  0.3226 -0.0174  0.2333
  882SOL    HW2 5539   1.797   9.186   6.687 -0.2010 -0.2710 -0.0250
  883SOL     OW 5540   2.796   8.619   3.376 -0.0267 -0.3404  0.0203
  883SOL    HW1 5541   2.732   8.553   3.404 -0.2578  0.4142  1.3841
  883SOL    HW2 5542   2.881   8.576   3.388 -0.1586 -0.3137  1.2291
  884SOL     OW 5543   6.789   5.786   6.792 -0.2908  0.7217 -0.0761
  884SOL    HW1 5544   6.809   5.736   6.871 -0.7505 -0.1501 -0.4954
  884SOL    HW2 5545   6.871   5.830   6.770  0.2754 -0.2394  0.0403
  885SOL     OW 5546   3.228   5.329   9.193  0.0246 -0.1823 -0.2511
  885SOL    HW1 5547   3.252   5.417   9.164 -0.0543 -0.3561 -0.8397
  885SOL    HW2 5548   3.162   5.344   9.262  0.3415  0.2269 -0.0345
  886SOL     OW 5549   4.262   1.761   8.773  0.1602 -0.1072 -0.1605
  886SOL    HW1 5550   4.249   1.773   8.867  1.0120  2.0427 -0.2553
  886SOL    HW2 5551   4.352   1.788   8.757 -0.3566  0.8301 -1.7590
  887SOL     OW 5552   8.712   2.933   6.672 -0.6349 -0.1420  0.2575
  887SOL    HW1 5553   8.795   2.960   6.631 -0.1005 -2.1833 -0.0857
  887SOL    HW2 5554   8.737   2.871   6.740 -1.8218  0.1764  1.0140
  888SOL     OW 5555   3.602   2.600   6.441 -0.0699 -0.4166  0.5314
  888SOL    HW1 5556   3.573   2.563   6.358 -1.2175  0.1144  0.6625
  888SOL    HW2 5557   3.684   2.556   6.461 -0.4587 -1.5169 -0.2257
  889SOL     OW 5558   7.441   5.559   2.979 -0.1979 -0.2840 -0.2731
  889SOL    HW1 5559   7.468   5.612   2.904  0.8520 -1.8711 -1.1063
  889SOL    HW2 5560   7.416   5.475   2.940 -1.8100 -0.4339  0.9838
  890SOL     OW 5561   9.253   8.155   4.337  0.1742  0.1299  0.1259
  890SOL    HW1 5562   9.211   8.071   4.351  1.9777 -0.7720  0.4553
  890SOL    HW2 5563   9.275   8.156   4.244  0.9141 -0.1586  0.2899
  891SOL     OW 5564   2.024   3.861   1.491 -0.3367 -0.0568  0.5256
  891SOL    HW1 5565   2.117   3.882   1.477 -0.2709 -0.4583  0.3246
  891SOL    HW2 5566   1.977   3.936   1.457 -0.0925  0.0025  0.3125
  892SOL     OW 5567   7.238   8.764   4.550  0.3345  0.0551 -0.1823
  892SOL    HW1 5568   7.267   8.800   4.466  0.5701  0.0619 -0.0961
  892SOL    HW2 5569   7.214   8.674   4.530  0.8097 -0.0741 -0.1655
  893SOL     OW 5570   4.430   6.580   1.092 -0.8758 -0.3658 -0.8232
  893SOL    HW1 5571   4.377   6.553   1.017 -0.2549 -0.8771 -1.0853
  893SOL    HW2 5572   4.518   6.548   1.072 -0.0358  1.9858 -1.2498
  894SOL     OW 5573   4.709   1.535   6.745  0.0116  0.6697 -0.0376
  894SOL    HW1 5574   4.780   1.473   6.761 -0.6492 -0.5503 -1.6569
  894SOL    HW2 5575   4.664   1.502   6.668 -2.1054  1.6326  0.7076
  895SOL     OW 5576   7.287   0.073   8.976  0.5320 -0.3128  0.4666
  895SOL    HW1 5577   7.265   0.145   9.036  0.7682 -0.3806  0.6372
  895SOL    HW2 5578   7.376   0.092   8.948  0.5804 -0.5206  0.4821
  896SOL     OW 5579   8.774   4.182   8.297 -0.2858 -0.3066  0.3079
  896SOL    HW1 5580   8.751   4.195   8.389 -1.5960  0.3936 -0.0855
  896SOL    HW2 5581   8.841   4.114   8.298 -0.3484 -0.3802  1.7681
  897SOL     OW 5582   3.856   8.261   4.703 -0.0520  0.1575  0.5589
  897SOL    HW1 5583   3.851   8.311   4.621  1.7864  1.0247  0.9300
  897SOL    HW2 5584   3.784   8.295   4.757 -0.3416  0.6410 -0.1202
  898SOL     OW 5585   5.559   6.515   0.390  0.0677  0.4611  0.3858
  898SOL    HW1 5586   5.590   6.581   0.328  1.3893 -1.4861 -1.1591
  898SOL    HW2 5587   5.628   6.509   0.455 -0.1157  0.6788  0.6028
  899SOL     OW 5588   4.043   2.518   1.430 -0.6395 -0.1057  0.4272
  899SOL    HW1 5589   3.960   2.555   1.461  0.1611 -0.4969  3.3418
  899SOL    HW2 5590   4.080   2.474   1.506  1.3073 -1.7533 -1.3188
  900SOL     OW 5591   8.774   5.141   5.288  0.5881  0.4324 -0.2141
  900SOL    HW1 5592   8.835   5.091   5.235  0.6050  0.8752 -0.6248
  900SOL    HW2 5593   8.761   5.089   5.367 -0.4703 -0.9151 -1.2224
  901SOL     OW 5594   6.627   7.074   6.063 -0.2136  0.5350  0.7934
  901SOL    HW1 5595   6.565   7.066   5.990 -0.4702  0.5310  1.0130
  901SOL    HW2 5596   6.684   6.998   6.053  0.1776  0.8970  0.1983
  902SOL     OW 5597   6.510   3.317   3.143 -0.7198 -0.0802 -0.1827
  902SOL    HW1 5598   6.527   3.226   3.170  0.4141 -0.0215 -0.6168
  902SOL    HW2 5599   6.419   3.318   3.116 -0.4964 -1.3248 -1.0627
  903SOL     OW 5600   0.205   1.669   7.945  0.4216 -0.2812  0.5054
  903SOL    HW1 5601   0.143   1.648   8.014  0.3188 -1.6033  0.0419
  903SOL    HW2 5602   0.282   1.702   7.991  0.7171 -2.0224  1.3454
  904SOL     OW 5603   2.171   7.991   6.867  0.0238  0.2603  0.6387
  904SOL    HW1 5604   2.130   8.069   6.828 -1.1400 -0.3484  0.5898
  904SOL    HW2 5605   2.116   7.971   6.943  1.2092  0.3682  1.5492
  905SOL     OW 5606   4.262   7.360   8.810  0.4073  0.0808 -0.0480
  905SOL    HW1 5607   4.180   7.409   8.816  0.2453 -0.3608  2.1303
  905SOL    HW2 5608   4.282   7.358   8.716 -1.8592  0.5113 -0.6005
  906SOL     OW 5609   0.349   5.910   2.582  0.0815  0.0777  0.3350
  906SOL    HW1 5610   0.327   5.818   2.566  1.0339 -0.1042 -0.0372
  906SOL    HW2 5611   0.437   5.920   2.544 -0.6603  1.5512 -1.1246
  907SOL     OW 5612   8.786   2.407   0.272  0.6057  0.1654  0.2471
  907SOL    HW1 5613   8.750   2.469   0.336 -0.0676  1.1078 -1.0109
  907SOL    HW2 5614   8.790   2.456   0.190 -0.6127 -1.6418 -0.9594
  908SOL     OW 5615   3.627   4.176   4.195  0.3959  0.3045  0.8307
  908SOL    HW1 5616   3.680   4.147   4.269  1.7619 -1.7375 -0.7843
  908SOL    HW2 5617   3.590   4.095   4.160  1.4164  0.8773 -1.8217
  909SOL     OW 5618   5.247   7.713   8.114  0.2126 -0.6479  0.5621
  909SOL    HW1 5619   5.230   7.773   8.187  0.5523 -1.5749  1.4469
  909SOL    HW2 5620   5.165   7.709   8.066  0.0529  0.1760  0.7487
  910SOL     OW 5621   8.518   8.728   3.518 -0.2843  0.2051 -0.0177
  910SOL    HW1 5622   8.445   8.682   3.476  0.2777 -1.0613  0.3395
  910SOL    HW2 5623   8.596   8.696   3.473  0.1466  0.6873  0.3601
  911SOL     OW 5624   1.081   9.133   4.339 -0.5954 -0.7919 -0.1629
  911SOL    HW1 5625   1.094   9.226   4.356  1.0067 -0.8789 -0.7286
  911SOL    HW2 5626   0.993   9.127   4.302 -1.1411  0.3466  0.8971
  912SOL     OW 5627   5.865   4.048   3.643  0.1225 -0.4329  0.2448
  912SOL    HW1 5628   5.895   3.969   3.688 -0.6684  0.4180  2.3724
  912SOL    HW2 5629   5.770   4.048   3.655  0.1117  0.8440  0.2878
  913SOL     OW 5630   1.550   3.291   0.545  0.1945 -0.0131 -0.2071
  913SOL    HW1 5631   1.626   3.310   0.599  1.1257  1.6457 -1.9914
  913SOL    HW2 5632   1.487   3.360   0.567  0.3429  0.3133 -0.7928
  914SOL     OW 5633   4.306   3.322   2.952  0.6500  0.7001  0.0912
  914SOL    HW1 5634   4.246   3.393   2.927 -0.2528 -0.4841 -1.2266
  914SOL    HW2 5635   4.340   3.289   2.869  0.8068 -0.6172  0.6570
  915SOL     OW 5636   1.166   7.030   4.884 -0.4203 -0.3661 -0.4582
  915SOL    HW1 5637   1.090   7.016   4.940 -1.5870 -0.3995 -1.9851
  915SOL    HW2 5638   1.172   6.949   4.832  0.4929 -0.2472 -0.5547
  916SOL     OW 5639   8.069   6.622   3.475 -0.1923 -0.0250  0.2169
  916SOL    HW1 5640   7.975   6.611   3.455 -0.1427 -1.7032  0.7761
  916SOL    HW2 5641   8.098   6.535   3.503  1.0807  0.9222  2.0337
  917SOL     OW 5642   4.186   2.388   2.135  0.2680  0.4553  0.1468
  917SOL    HW1 5643   4.139   2.444   2.074  1.3863  1.7215  0.4009
  917SOL    HW2 5644   4.195   2.441   2.215  0.9792 -0.2400  0.5489
  918SOL     OW 5645   7.066   7.508   2.288  0.3201 -0.2343  0.0988
  918SOL    HW1 5646   7.049   7.414   2.291  0.2404 -0.2763 -1.1982
  918SOL    HW2 5647   7.011   7.544   2.358 -2.0698 -0.8257 -1.3606
  919SOL     OW 5648   4.802   3.207   5.608  0.0095  0.4594 -0.1187
  919SOL    HW1 5649   4.708   3.218   5.590 -0.2613 -0.4006  0.6761
  919SOL    HW2 5650   4.810   3.229   5.701  0.6004  0.5275 -0.1853
  920SOL     OW 5651   0.461   7.352   1.090 -0.6760  0.2264  0.0293
  920SOL    HW1 5652   0.378   7.398   1.083 -0.8926 -0.1400  0.1419
  920SOL    HW2 5653   0.440   7.271   1.137 -0.1038  0.5164  0.8115
  921SOL     OW 5654   2.231   6.254   9.063 -0.1629  0.2838 -0.3620
  921SOL    HW1 5655   2.219   6.167   9.099 -0.1460  0.9893  1.4705
  921SOL    HW2 5656   2.297   6.294   9.119 -0.4711  1.6013 -0.8969
  922SOL     OW 5657   0.612   7.760   5.480  0.5837 -0.0898 -0.2622
  922SOL    HW1 5658   0.533   7.712   5.455  0.7202 -0.1260 -0.6284
  922SOL    HW2 5659   0.596   7.849   5.449  1.8491 -0.6954 -2.9327
  923SOL     OW 5660   9.025   5.751   3.137  0.4876 -0.2656 -0.1405
  923SOL    HW1 5661   8.947   5.806   3.132  0.4237 -0.3615 -0.2128
  923SOL    HW2 5662   8.992   5.664   3.158  0.2496 -0.9946 -3.0438
  924SOL     OW 5663   8.208   6.675   4.295 -0.2264  0.3573 -0.6945
  924SOL    HW1 5664   8.258   6.754   4.313 -0.0753 -0.2421  1.7946
  924SOL    HW2 5665   8.141   6.704   4.232  1.1056  1.9238 -1.4972
  925SOL     OW 5666   4.959   2.740   3.783  0.1442 -0.3255 -0.5400
  925SOL    HW1 5667   5.025   2.707   3.721  1.4330  0.0718  0.5858
  925SOL    HW2 5668   4.944   2.667   3.843  0.9189  0.1661  0.2776
  926SOL     OW 5669   6.204   4.308   9.258 -0.1575 -0.0542 -0.3741
  926SOL    HW1 5670   6.133   4.371   9.266  0.2088  0.2769  0.3127
  926SOL    HW2 5671   6.266   4.348   9.197 -0.9725 -0.7467 -1.7113
  927SOL     OW 5672   9.202   2.477   0.575 -0.7074  0.2115 -0.0456
  927SOL    HW1 5673   9.258   2.470   0.497 -2.3364  0.7269 -1.3055
  927SOL    HW2 5674   9.258   2.521   0.639  1.2560 -1.7276 -0.2818
  928SOL     OW 5675   1.855   7.183   0.662 -0.6400  0.2774  0.2299
  928SOL    HW1 5676   1.839   7.233   0.743  1.3390 -1.0319  1.5331
  928SOL    HW2 5677   1.829   7.242   0.592  1.8850  3.3852  1.6413
  929SOL     OW 5678   8.172   2.036   3.169  0.2532  0.1709  0.1356
  929SOL    HW1 5679   8.139   1.960   3.122 -0.0192  1.2487 -1.4996
  929SOL    HW2 5680   8.244   2.002   3.223 -1.0087 -1.5252  0.8352
  930SOL     OW 5681   8.788   2.417   0.686 -0.0871  0.0462  0.1062
  930SOL    HW1 5682   8.693   2.427   0.693  0.0893  1.3206  0.9378
  930SOL    HW2 5683   8.800   2.351   0.618 -1.5671 -0.0584 -0.0814
  931SOL     OW 5684   3.142   9.063   5.106  0.7056 -0.1151  0.0695
  931SOL    HW1 5685   3.076   9.038   5.041 -0.7664 -0.4901  1.6326
  931SOL    HW2 5686   3.093   9.074   5.187  1.9813  3.4321  0.5210
  932SOL     OW 5687   0.422   4.420   3.001  0.0156 -0.3483  0.0924
  932SOL    HW1 5688   0.439   4.407   2.908  0.7381 -1.1718  0.3238
  932SOL    HW2 5689   0.495   4.474   3.032 -0.7449  0.7511 -0.0099
  933SOL     OW 5690   1.680   9.140   5.017 -0.5390  0.0282 -0.6785
  933SOL    HW1 5691   1.591   9.165   5.041 -0.7546 -0.2547 -1.1623
  933SOL    HW2 5692   1.736   9.199   5.066 -0.9777 -0.2584  0.1803
  934SOL     OW 5693   8.751   2.606   5.574 -0.2644 -0.3377  0.0961
  934SOL    HW1 5694   8.676   2.567   5.620  0.0440  0.0303  0.9322
  934SOL    HW2 5695   8.824   2.597   5.636 -0.0730  1.1110  0.0973
  935SOL     OW 5696   5.853   1.614   5.010 -0.6380 -0.0928 -0.0262
  935SOL    HW1 5697   5.948   1.606   5.021 -0.6984 -2.4266 -0.5734
  935SOL    HW2 5698   5.817   1.559   5.079 -1.5218 -0.2355 -0.5886
  936SOL     OW 5699   1.845   3.855   5.802  0.0580  0.1910  1.1155
  936SOL    HW1 5700   1.887   3.877   5.719 -1.0600  0.0079  0.4836
  936SOL    HW2 5701   1.803   3.936   5.831 -0.5703 -0.0438  0.8798
  937SOL     OW 5702   5.618   3.700   1.575  0.0379  0.1634  0.1023
  937SOL    HW1 5703   5.695   3.756   1.576 -1.0010  1.8566 -2.9149
  937SOL    HW2 5704   5.631   3.643   1.499 -1.6557  0.5263 -0.5025
  938SOL     OW 5705   3.991   1.186   3.819  0.6560 -0.2780  0.0703
  938SOL    HW1 5706   3.964   1.274   3.846  2.1783 -0.1277  1.2044
  938SOL    HW2 5707   3.933   1.166   3.745 -0.7163  1.0634  0.7025
  939SOL     OW 5708   2.720   0.957   1.873 -0.0525 -0.0864 -0.2396
  939SOL    HW1 5709   2.768   0.973   1.954 -1.4882  2.0033  0.2533
  939SOL    HW2 5710   2.657   0.888   1.895 -1.4881  1.5288  0.9221
  940SOL     OW 5711   4.821   6.823   0.162  0.4094  0.3771  0.2608
  940SOL    HW1 5712   4.765   6.861   0.230 -0.0224  0.5726 -0.1954
  940SOL    HW2 5713   4.759   6.781   0.101  0.7147  1.1076 -0.5629
  941SOL     OW 5714   0.183   7.922   5.722 -0.1895 -0.2471  0.4871
  941SOL    HW1 5715   0.265   7.949   5.764 -0.6157  0.6522  0.7763
  941SOL    HW2 5716   0.178   7.975   5.642 -1.8824  1.9565  1.9215
  942SOL     OW 5717   3.481   5.810   1.536  0.7715  0.0801  0.1427
  942SOL    HW1 5718   3.530   5.873   1.589 -0.5449  0.7238  0.6400
  942SOL    HW2 5719   3.421   5.768   1.598  0.3144 -0.2967 -0.5408
  943SOL     OW 5720   7.739   2.752   4.975  0.0860 -0.0134  0.1581
  943SOL    HW1 5721   7.721   2.828   5.030  1.5793 -1.0262  2.1608
  943SOL    HW2 5722   7.816   2.776   4.923  0.0521  0.1370  0.1791
  944SOL     OW 5723   1.699   8.462   1.412 -0.2000  0.5935  1.1034
  944SOL    HW1 5724   1.711   8.370   1.389  0.0224  0.7973  0.3565
  944SOL    HW2 5725   1.756   8.476   1.488 -1.6801 -0.3389  2.4399
  945SOL     OW 5726   7.451   5.193   2.337 -0.1527 -0.1362 -0.4535
  945SOL    HW1 5727   7.541   5.219   2.359 -0.6343 -1.2258  3.5854
  945SOL    HW2 5728   7.410   5.273   2.305  1.8525  0.6940 -1.1502
  946SOL     OW 5729   2.997   2.002   2.929  0.6591  0.4689  0.0138
  946SOL    HW1 5730   3.074   1.960   2.893  0.5168  1.4896 -1.5667
  946SOL    HW2 5731   3.031   2.061   2.996  1.5727  2.5929 -2.1848
  947SOL     OW 5732   6.466   8.040   6.562  0.3133 -0.3265 -0.0751
  947SOL    HW1 5733   6.521   8.074   6.491  1.0167 -0.4419  0.4070
  947SOL    HW2 5734   6.385   8.014   6.519  0.0101  1.3041 -0.5667
  948SOL     OW 5735   7.071   0.871   7.524 -0.2234 -0.1227 -0.0180
  948SOL    HW1 5736   7.131   0.892   7.452  0.7235 -0.7521  0.5730
  948SOL    HW2 5737   7.011   0.946   7.528  0.8073  0.7396 -0.3087
  949SOL     OW 5738   2.985   3.428   0.066  0.0887 -0.0539 -0.2805
  949SOL    HW1 5739   2.978   3.482   0.145 -1.6673  0.3721 -0.6821
  949SOL    HW2 5740   3.014   3.488  -0.002  3.7833 -0.8547  0.3930
  950SOL     OW 5741   6.476   8.881   4.842 -0.0865 -0.6991  0.7515
  950SOL    HW1 5742   6.401   8.910   4.790 -0.4682 -0.1800  1.5805
  950SOL    HW2 5743   6.513   8.962   4.878 -0.1786 -1.0974  1.7653
  951SOL     OW 5744   4.369   5.864   3.191 -0.0730 -0.6325  0.3165
  951SOL    HW1 5745   4.446   5.890   3.140  0.4042 -0.0927  1.3048
  951SOL    HW2 5746   4.359   5.932   3.257 -0.0801 -1.8250  1.5872
  952SOL     OW 5747   8.089   0.238   0.154  0.0723  0.3055 -0.7580
  952SOL    HW1 5748   8.163   0.297   0.168 -0.1810  0.7082 -1.1116
  952SOL    HW2 5749   8.053   0.224   0.242  1.3411 -0.9255 -0.3893
  953SOL     OW 5750   4.985   6.813   2.593  0.1433 -0.0504  0.6181
  953SOL    HW1 5751   4.993   6.906   2.616  1.1852  0.2615 -0.8914
  953SOL    HW2 5752   5.066   6.773   2.626 -0.1744 -0.3734  1.0135
  954SOL     OW 5753   5.148   7.238   1.353 -0.2431 -0.2292  0.1022
  954SOL    HW1 5754   5.224   7.181   1.340 -1.1720 -1.8620  1.3779
  954SOL    HW2 5755   5.138   7.242   1.448 -1.1264  0.8383 -0.0200
  955SOL     OW 5756   7.124   3.521   3.076 -0.3686  0.8766 -0.0157
  955SOL    HW1 5757   7.093   3.500   2.987 -0.6683 -0.1890  0.3229
  955SOL    HW2 5758   7.066   3.472   3.133  0.4798  0.7297  0.7325
  956SOL     OW 5759   1.719   5.561   5.466 -0.2237  0.1087  0.2520
  956SOL    HW1 5760   1.676   5.549   5.551 -0.2622 -0.1581  0.1949
  956SOL    HW2 5761   1.712   5.476   5.424  0.8242 -0.0791  0.4460
  957SOL     OW 5762   7.645   6.604   4.098 -0.2929  0.4374 -0.3462
  957SOL    HW1 5763   7.644   6.698   4.079  1.2507  0.3739 -0.8813
  957SOL    HW2 5764   7.714   6.569   4.042 -0.3663 -0.9000  0.3644
  958SOL     OW 5765   2.557   4.206   2.728  0.0604 -0.4412 -0.3199
  958SOL    HW1 5766   2.635   4.212   2.674 -0.0808  1.1143 -0.4225
  958SOL    HW2 5767   2.584   4.240   2.813 -0.8576  1.7831 -0.8335
  959SOL     OW 5768   2.971   4.613   6.870 -0.2382 -0.5601 -0.4937
  959SOL    HW1 5769   2.960   4.538   6.929  2.8772 -1.9777 -1.4868
  959SOL    HW2 5770   3.023   4.676   6.921 -0.3903 -0.3451 -0.6068
  960SOL     OW 5771   0.990   7.786   6.580  0.5649 -0.5061  0.0113
  960SOL    HW1 5772   0.948   7.870   6.562 -1.0864 -0.8984  1.7147
  960SOL    HW2 5773   1.083   7.802   6.566  0.0011  0.6203 -3.1539
  961SOL     OW 5774   1.925   3.360   3.514  1.0982 -0.2908  0.7133
  961SOL    HW1 5775   1.839   3.324   3.533  1.2435 -0.3063  1.3984
  961SOL    HW2 5776   1.986   3.293   3.546  1.3607  0.0043  0.8389
  962SOL     OW 5777   2.070   6.441   5.991  0.2063  0.2051 -0.6609
  962SOL    HW1 5778   2.054   6.360   5.942  1.9763  0.3815 -1.6287
  962SOL    HW2 5779   2.104   6.412   6.076 -2.6682 -0.0976  0.4962
  963SOL     OW 5780   0.734   7.763   8.173  0.3240  0.1036  0.3149
  963SOL    HW1 5781   0.674   7.783   8.101 -0.4646 -0.6928  0.7198
  963SOL    HW2 5782   0.764   7.848   8.205  0.7617  0.4652 -1.0078
  964SOL     OW 5783   5.191   0.840   5.306 -0.1659 -0.1317  0.1259
  964SOL    HW1 5784   5.180   0.900   5.232  2.4648 -0.7779 -0.8952
  964SOL    HW2 5785   5.221   0.896   5.378 -1.0241  0.2445  0.2039
  965SOL     OW 5786   4.788   4.007   4.801  0.4710 -0.2781 -0.2286
  965SOL    HW1 5787   4.781   4.061   4.880 -0.4213 -2.0015  0.9257
  965SOL    HW2 5788   4.723   4.045   4.741 -2.3532 -1.7367  1.6633
  966SOL     OW 5789   2.604   1.820   2.956  0.2272 -0.0036  1.0470
  966SOL    HW1 5790   2.556   1.869   3.023  0.2861 -1.2277  2.0282
  966SOL    HW2 5791   2.661   1.885   2.915 -1.0490  1.1310  0.9886
  967SOL     OW 5792   0.398   8.884   4.294 -0.1516 -0.2653 -0.1026
  967SOL    HW1 5793   0.437   8.810   4.248 -2.4430 -1.0496 -0.9475
  967SOL    HW2 5794   0.382   8.852   4.383  0.5553 -0.1276  0.0806
  968SOL     OW 5795   2.282   2.408   7.125 -0.2137  0.1515 -0.9474
  968SOL    HW1 5796   2.314   2.497   7.109 -0.9405  0.6797  0.4042
  968SOL    HW2 5797   2.318   2.385   7.211 -0.3906 -0.7013 -1.0960
  969SOL     OW 5798   6.547   6.299   7.814  0.0604 -0.0631  0.0525
  969SOL    HW1 5799   6.482   6.288   7.884 -2.1668  2.6675 -1.3272
  969SOL    HW2 5800   6.609   6.363   7.850 -0.9397  1.1471 -0.2647
  970SOL     OW 5801   1.454   1.069   8.631 -0.5805 -0.0184  0.4731
  970SOL    HW1 5802   1.359   1.071   8.638 -0.5936 -0.0570  0.2983
  970SOL    HW2 5803   1.472   1.005   8.562 -0.3946 -0.8554  1.2831
  971SOL     OW 5804   7.814   1.839   5.990 -0.1684 -0.6686 -0.4060
  971SOL    HW1 5805   7.780   1.856   6.078 -1.0860 -1.0398 -0.6818
  971SOL    HW2 5806   7.740   1.803   5.942  0.3163 -0.4208 -1.3562
  972SOL     OW 5807   1.092   8.747   8.396 -0.2374  0.6127  0.3040
  972SOL    HW1 5808   1.115   8.716   8.484  0.1036  2.5483  0.9331
  972SOL    HW2 5809   1.130   8.834   8.390 -0.2325  0.5256 -1.8004
  973SOL     OW 5810   7.845   2.050   6.714  0.1542 -0.6565 -0.1552
  973SOL    HW1 5811   7.925   2.084   6.673  0.2155 -0.1258  0.3988
  973SOL    HW2 5812   7.785   2.038   6.641  0.8770 -1.4900 -0.6448
  974SOL     OW 5813   8.981   6.069   2.877 -0.5385 -0.3036  0.2288
  974SOL    HW1 5814   9.031   6.145   2.905 -0.7797  0.1151 -0.4668
  974SOL    HW2 5815   8.908   6.063   2.940  0.0734 -0.6047  0.9228
  975SOL     OW 5816   7.275   6.046   1.684  0.2364  0.3420 -0.5981
  975SOL    HW1 5817   7.267   5.951   1.683 -4.2099  0.4160  1.3776
  975SOL    HW2 5818   7.214   6.076   1.616 -0.2754  1.7404  0.4325
  976SOL     OW 5819   2.470   0.934   2.323 -0.6445  0.0009  0.0979
  976SOL    HW1 5820   2.516   1.016   2.341 -0.3854  0.0194 -0.6083
  976SOL    HW2 5821   2.401   0.958   2.261 -1.4617 -0.0719  0.9779
  977SOL     OW 5822   2.281   1.100   2.602 -0.1665 -0.0041  0.0144
  977SOL    HW1 5823   2.319   1.012   2.594 -1.4578 -0.6091  0.2451
  977SOL    HW2 5824   2.198   1.094   2.554  0.3628  1.5084 -1.1588
  978SOL     OW 5825   5.177   7.451   2.567 -0.0193  0.3259 -0.2662
  978SOL    HW1 5826   5.163   7.386   2.635 -2.2515  0.9582 -0.0432
  978SOL    HW2 5827   5.271   7.446   2.547  0.1884 -1.6742  0.9896
  979SOL     OW 5828   2.170   7.694   0.332  0.1007  0.2281 -0.4646
  979SOL    HW1 5829   2.150   7.725   0.421 -0.5863 -2.1319  0.2811
  979SOL    HW2 5830   2.264   7.708   0.323  0.2191  0.3346  0.7191
  980SOL     OW 5831   1.585   7.868   0.435 -0.2350 -0.1942 -0.3580
  980SOL    HW1 5832   1.502   7.820   0.430 -0.4350  0.0797  0.2644
  980SOL    HW2 5833   1.641   7.826   0.369 -0.1464 -1.7834  0.6797
  981SOL     OW 5834   2.120   5.691   0.645 -0.4558  0.1333  0.5431
  981SOL    HW1 5835   2.113   5.642   0.726 -0.1853 -0.0854  0.4327
  981SOL    HW2 5836   2.195   5.653   0.599 -1.5046 -0.7554 -0.4979
  982SOL     OW 5837   6.532   8.856   3.085 -0.5221 -0.3616  0.2355
  982SOL    HW1 5838   6.502   8.769   3.059 -1.3760  0.2301 -0.8474
  982SOL    HW2 5839   6.616   8.868   3.040  0.4131 -1.2186  1.6586
  983SOL     OW 5840   8.406   3.838   7.948  0.4184 -0.3210  0.0947
  983SOL    HW1 5841   8.501   3.842   7.957  0.2892 -0.0988  1.4857
  983SOL    HW2 5842   8.383   3.917   7.900  0.7229  0.9147  1.8855
  984SOL     OW 5843   9.260   6.628   6.705 -0.0834 -0.0747  0.8439
  984SOL    HW1 5844   9.216   6.565   6.763 -0.2484 -2.5047 -1.7351
  984SOL    HW2 5845   9.324   6.576   6.658 -1.4743  1.2100 -2.7724
  985SOL     OW 5846   1.872   7.315   6.585  0.0444  0.1978 -0.1983
  985SOL    HW1 5847   1.823   7.276   6.513 -0.9858  0.4619  0.3354
  985SOL    HW2 5848   1.960   7.279   6.577 -0.4378 -0.9085 -0.7196
  986SOL     OW 5849   6.666   4.303   3.842  0.6761 -0.1546 -0.0268
  986SOL    HW1 5850   6.666   4.246   3.765  1.1018  1.1615 -1.0281
  986SOL    HW2 5851   6.573   4.308   3.868  0.6525 -1.4846  0.2584
  987SOL     OW 5852   9.068   4.944   4.779 -0.3859  0.1782 -0.5839
  987SOL    HW1 5853   8.985   4.986   4.757  0.5895  1.4123 -2.0935
  987SOL    HW2 5854   9.112   5.007   4.837  0.0481  0.1372 -0.8646
  988SOL     OW 5855   4.379   0.216   0.714  0.4627  0.0882 -0.4166
  988SOL    HW1 5856   4.291   0.226   0.751 -0.3451 -1.2389 -1.8691
  988SOL    HW2 5857   4.393   0.295   0.661  0.4997  0.6797  0.4560
  989SOL     OW 5858   2.625   4.906   1.239  0.0999 -0.8701 -0.1872
  989SOL    HW1 5859   2.583   4.980   1.285  1.8165 -0.4644  0.7982
  989SOL    HW2 5860   2.553   4.846   1.221 -1.4710  1.2674 -1.5350
  990SOL     OW 5861   6.423   2.161   4.747  0.5694  0.3039  0.1132
  990SOL    HW1 5862   6.362   2.233   4.734  0.7830  0.2748 -1.1981
  990SOL    HW2 5863   6.453   2.171   4.837 -0.9468  0.6298  0.6152
  991SOL     OW 5864   8.209   8.865   0.589 -0.0939  0.1857  0.6233
  991SOL    HW1 5865   8.142   8.933   0.602  1.2980  2.0308 -1.1405
  991SOL    HW2 5866   8.182   8.821   0.508 -1.2264 -1.7617  1.9881
  992SOL     OW 5867   0.303   1.190   0.213 -0.1088 -0.6036 -0.1511
  992SOL    HW1 5868   0.309   1.197   0.308 -0.2661 -0.8054 -0.1256
  992SOL    HW2 5869   0.371   1.127   0.189 -0.5712 -1.1302 -0.0944
  993SOL     OW 5870   1.018   4.358   4.117  0.2559  0.4137  0.2625
  993SOL    HW1 5871   0.951   4.422   4.142  0.2105  0.6430 -0.4239
  993SOL    HW2 5872   1.022   4.364   4.022  0.7095 -0.1527  0.2414
  994SOL     OW 5873   4.551   8.668   6.467 -0.4835  0.0654  0.1484
  994SOL    HW1 5874   4.538   8.617   6.546 -3.0405 -0.4004 -0.4855
  994SOL    HW2 5875   4.589   8.607   6.404  0.3221  0.0933  0.5953
  995SOL     OW 5876   5.782   1.156   9.084 -0.3211 -0.7239  0.1162
  995SOL    HW1 5877   5.861   1.105   9.070  0.0841 -0.2960  0.8063
  995SOL    HW2 5878   5.741   1.117   9.162 -1.1974 -1.4291 -0.6714
  996SOL     OW 5879   8.865   7.522   7.492 -0.4775  0.2266  0.0718
  996SOL    HW1 5880   8.863   7.594   7.556  0.0277 -1.3317  1.9150
  996SOL    HW2 5881   8.938   7.467   7.519 -0.8392 -1.0033 -1.3026
  997SOL     OW 5882   4.735   6.699   4.326  0.6770  0.3159 -0.0872
  997SOL    HW1 5883   4.821   6.724   4.293 -0.2990  0.3874 -2.8753
  997SOL    HW2 5884   4.752   6.649   4.406  3.1012  3.0066  1.2470
  998SOL     OW 5885   6.455   4.516   4.648  0.0613  0.1653 -0.1338
  998SOL    HW1 5886   6.438   4.503   4.742 -0.0277 -0.0479 -0.1778
  998SOL    HW2 5887   6.378   4.563   4.617  0.7164  1.4805  0.1709
  999SOL     OW 5888   6.313   9.182   4.903  0.1613 -0.5135 -0.0809
  999SOL    HW1 5889   6.251   9.145   4.966  0.2953 -0.9867 -0.2244
  999SOL    HW2 5890   6.375   9.231   4.958  0.7604 -1.6028  0.2516
 1000SOL     OW 5891   3.553   3.011   8.950 -0.0412 -0.6052 -0.3386
 1000SOL    HW1 5892   3.512   2.926   8.967 -1.3088  0.1895  0.7574
 1000SOL    HW2 5893   3.539   3.061   9.030 -0.1253  0.9573 -1.2934
 1001SOL     OW 5894   2.404   6.927   1.617 -0.0806  0.4434  0.5143
 1001SOL    HW1 5895   2.480   6.880   1.651  0.3068  0.0870 -0.7690
 1001SOL    HW2 5896   2.351   6.859   1.574  0.3367  1.0799 -1.0994
 1002SOL     OW 5897   9.198   1.402   0.631  0.0621  0.4212 -0.2091
 1002SOL    HW1 5898   9.177   1.310   0.614  0.9892  0.3656 -1.1901
 1002SOL    HW2 5899   9.135   1.450   0.578 -0.3851  0.3501  0.2567
 1003SOL     OW 5900   5.687   8.438   3.751 -0.2588  0.0242  0.1140
 1003SOL    HW1 5901   5.602   8.409   3.785 -0.2334  0.6266  0.7177
 1003SOL    HW2 5902   5.678   8.533   3.746  0.5979  0.1485  0.7948
 1004SOL     OW 5903   2.584   1.977   5.258  0.6351 -0.3350 -0.0531
 1004SOL    HW1 5904   2.537   2.036   5.198  1.0794  0.6998  0.5821
 1004SOL    HW2 5905   2.661   1.949   5.208  0.7494  0.1273 -0.1425
 1005SOL     OW 5906   3.437   1.194   6.544 -0.6345 -0.1969 -0.0459
 1005SOL    HW1 5907   3.389   1.117   6.513  0.6380 -0.9662 -0.2132
 1005SOL    HW2 5908   3.379   1.268   6.527 -1.7221 -1.0744 -0.2621
 1006SOL     OW 5909   5.096   5.384   9.094 -0.2210  0.2670  0.3860
 1006SOL    HW1 5910   5.151   5.457   9.124 -0.0094  1.0647 -1.7408
 1006SOL    HW2 5911   5.010   5.402   9.130 -0.5754  2.5197 -1.3084
 1007SOL     OW 5912   3.086   6.270   2.863  0.3348 -0.1071  0.0399
 1007SOL    HW1 5913   3.168   6.306   2.828  0.0154  0.4896 -0.0918
 1007SOL    HW2 5914   3.093   6.176   2.844  1.4153 -0.2233  0.8922
 1008SOL     OW 5915   8.544   8.869   7.354  0.2977  0.2198  0.4245
 1008SOL    HW1 5916   8.596   8.865   7.274  0.6135 -0.0636  0.6386
 1008SOL    HW2 5917   8.584   8.938   7.406 -2.2277  3.1811 -1.2419
 1009SOL     OW 5918   1.501   5.741   0.828 -0.3261  0.0409  0.2984
 1009SOL    HW1 5919   1.461   5.810   0.881  0.2035 -0.3463  1.2145
 1009SOL    HW2 5920   1.455   5.661   0.854 -0.2480 -0.1137 -0.0313
 1010SOL     OW 5921   4.586   5.816   2.094 -0.0129 -0.3968  0.1437
 1010SOL    HW1 5922   4.537   5.888   2.054 -1.5283 -0.7117  1.3719
 1010SOL    HW2 5923   4.567   5.741   2.038 -1.6517 -0.7021  1.0500
 1011SOL     OW 5924   6.063   7.724   4.015  0.4641 -0.0815 -0.0044
 1011SOL    HW1 5925   6.032   7.692   3.930  1.8996 -1.6124 -0.0184
 1011SOL    HW2 5926   5.999   7.691   4.078 -0.2826  0.5496 -0.4199
 1012SOL     OW 5927   4.611   5.108   0.547 -0.2749 -0.1762  0.5817
 1012SOL    HW1 5928   4.589   5.184   0.494 -0.8454  0.8265  2.1917
 1012SOL    HW2 5929   4.534   5.052   0.543 -0.1813 -0.2700  0.0806
 1013SOL     OW 5930   6.075   0.172   4.658  0.1433 -0.1748  0.1527
 1013SOL    HW1 5931   6.123   0.211   4.585 -0.4630 -0.2447 -0.2964
 1013SOL    HW2 5932   5.983   0.183   4.634 -0.0617 -0.2653  0.8771
 1014SOL     OW 5933   1.494   0.565   0.958 -0.1164 -0.4439 -0.4862
 1014SOL    HW1 5934   1.525   0.548   0.869 -0.5547  0.0470 -0.7372
 1014SOL    HW2 5935   1.574   0.562   1.012  0.0161 -1.8525 -0.7150
 1015SOL     OW 5936   7.994   9.160   6.626  0.0314 -0.6037  0.2553
 1015SOL    HW1 5937   8.083   9.140   6.656 -0.3868 -2.3904  0.4123
 1015SOL    HW2 5938   8.004   9.240   6.575  1.7353 -0.7581  0.2713
 1016SOL     OW 5939   5.434   7.645   2.213  0.1224 -0.1664  0.1409
 1016SOL    HW1 5940   5.357   7.678   2.261  0.6648 -0.5131  1.2880
 1016SOL    HW2 5941   5.507   7.696   2.247  0.6452 -1.0208  0.3158
 1017SOL     OW 5942   6.569   7.132   4.197 -0.3248 -0.2542 -0.4147
 1017SOL    HW1 5943   6.519   7.068   4.147  2.5542 -1.4968 -1.9247
 1017SOL    HW2 5944   6.519   7.213   4.190 -1.1766 -0.9345 -3.4833
 1018SOL     OW 5945   3.165   7.207   8.981  0.4528  0.1036  0.0969
 1018SOL    HW1 5946   3.174   7.267   8.907  0.4311 -0.5316 -0.4318
 1018SOL    HW2 5947   3.138   7.262   9.054  1.4208  0.8861 -0.1248
 1019SOL     OW 5948   5.609   4.463   1.779  0.2931 -0.1920  0.6050
 1019SOL    HW1 5949   5.562   4.380   1.785  0.3778 -0.1871  1.6234
 1019SOL    HW2 5950   5.647   4.475   1.867 -0.1251  1.1588  0.6216
 1020SOL     OW 5951   6.304   5.018   4.151 -0.2102  0.2240  0.3860
 1020SOL    HW1 5952   6.344   5.080   4.213  1.0222  2.1842 -2.1677
 1020SOL    HW2 5953   6.330   4.932   4.184  2.8131  1.2759  1.1343
 1021SOL     OW 5954   7.526   1.879   3.113  0.4453  0.5991  0.5104
 1021SOL    HW1 5955   7.505   1.956   3.060 -0.2048 -0.6679 -1.1622
 1021SOL    HW2 5956   7.621   1.883   3.124  0.9270 -0.0320 -2.4224
 1022SOL     OW 5957   5.791   6.617   1.753  0.6340  0.1250 -0.2534
 1022SOL    HW1 5958   5.846   6.596   1.678  0.5193 -0.3201 -0.2157
 1022SOL    HW2 5959   5.851   6.620   1.827  0.4971 -1.1997 -0.0689
 1023SOL     OW 5960   3.279   6.527   0.316 -0.7078  0.4998 -0.1738
 1023SOL    HW1 5961   3.210   6.503   0.254 -0.0902  1.4889 -1.2913
 1023SOL    HW2 5962   3.308   6.614   0.288  0.7263  0.2812  0.5058
 1024SOL     OW 5963   1.890   3.775   5.348  0.2109  0.3553  0.0407
 1024SOL    HW1 5964   1.884   3.867   5.375 -4.7552  0.4832 -0.6942
 1024SOL    HW2 5965   1.844   3.726   5.416  1.7327 -1.5600 -0.1897
 1025SOL     OW 5966   8.284   2.108   8.124  0.2136 -0.5104 -0.4185
 1025SOL    HW1 5967   8.263   2.201   8.111 -0.1442 -0.5869 -0.3856
 1025SOL    HW2 5968   8.366   2.110   8.174 -0.2491 -0.2038  0.3502
 1026SOL     OW 5969   5.326   6.156   8.575 -0.0914  0.3375 -0.7482
 1026SOL    HW1 5970   5.317   6.135   8.668  1.4788  1.4199 -0.3127
 1026SOL    HW2 5971   5.250   6.212   8.555 -0.6553 -0.2357 -0.2382
 1027SOL     OW 5972   5.402   5.178   3.758 -0.2892  0.3972  0.5382
 1027SOL    HW1 5973   5.390   5.174   3.853 -0.4187 -1.1910  0.4888
 1027SOL    HW2 5974   5.473   5.115   3.740 -1.2054 -0.3663 -0.5376
 1028SOL     OW 5975   3.572   9.237   0.702 -0.0343  0.0022 -0.1306
 1028SOL    HW1 5976   3.576   9.212   0.609 -2.2025  0.8386 -0.4999
 1028SOL    HW2 5977   3.561   9.155   0.749  0.8848 -0.4125 -0.6265
 1029SOL     OW 5978   7.932   8.773   7.877 -0.0761 -0.2115  0.5022
 1029SOL    HW1 5979   7.971   8.807   7.958  0.1757  0.0099  0.2902
 1029SOL    HW2 5980   7.856   8.829   7.862  1.0681  1.1315 -0.5475
 1030SOL     OW 5981   4.851   0.842   0.448 -0.1628  0.2815 -0.9999
 1030SOL    HW1 5982   4.793   0.900   0.497 -0.8467 -0.4456 -0.9186
 1030SOL    HW2 5983   4.873   0.772   0.511  0.6189  0.4248 -1.1024
 1031SOL     OW 5984   2.947   4.036   8.222  0.2757  0.5870  0.0792
 1031SOL    HW1 5985   2.964   4.123   8.259  2.7388 -0.6753  2.1551
 1031SOL    HW2 5986   3.023   4.018   8.167  0.0538 -0.5171  0.1249
 1032SOL     OW 5987   7.723   1.940   6.251 -0.2170  0.0064  0.3313
 1032SOL    HW1 5988   7.693   2.019   6.205  0.4566 -0.1792 -0.4566
 1032SOL    HW2 5989   7.651   1.878   6.240 -1.0094  0.6846  1.4691
 1033SOL     OW 5990   4.016   3.440   8.159 -0.2033  0.1417  0.8759
 1033SOL    HW1 5991   3.940   3.382   8.152 -0.7361  0.9157  0.0719
 1033SOL    HW2 5992   3.995   3.499   8.231 -0.7785  0.9301  0.0803
 1034SOL     OW 5993   1.048   5.461   2.843 -0.1052  0.0531  0.3857
 1034SOL    HW1 5994   1.081   5.472   2.932  1.0275  2.0687 -0.2124
 1034SOL    HW2 5995   1.005   5.544   2.823 -1.0300 -0.6587 -0.6872
 1035SOL     OW 5996   4.717   7.295   5.177  0.3062  0.1141 -0.4277
 1035SOL    HW1 5997   4.639   7.294   5.232  0.8695 -1.0124  0.3890
 1035SOL    HW2 5998   4.724   7.206   5.142  1.8813 -0.1757  0.5016
 1036SOL     OW 5999   8.619   8.500   5.139 -0.2375  0.3329  0.5812
 1036SOL    HW1 6000   8.688   8.452   5.094  0.7307  1.1856  1.1295
 1036SOL    HW2 6001   8.538   8.460   5.108  0.4182  0.3860 -1.3017
 1037SOL     OW 6002   6.260   1.796   7.570 -0.7534 -0.1213  0.1795
 1037SOL    HW1 6003   6.230   1.855   7.640  1.2241 -0.3490  1.3013
 1037SOL    HW2 6004   6.204   1.719   7.577 -1.3438  0.3487  0.7406
 1038SOL     OW 6005   7.264   1.581   4.521  0.1164 -0.1633  0.3847
 1038SOL    HW1 6006   7.218   1.597   4.439 -1.1224  0.4667  1.1806
 1038SOL    HW2 6007   7.348   1.627   4.511 -1.1583  2.3681  0.5291
 1039SOL     OW 6008   4.310   4.829   3.123  0.2706 -0.3092 -0.0803
 1039SOL    HW1 6009   4.394   4.810   3.164 -1.2665 -1.7888  2.6844
 1039SOL    HW2 6010   4.315   4.787   3.037  1.9703 -1.3033  0.4581
 1040SOL     OW 6011   6.046   0.499   5.701 -0.1302  1.1799  0.1891
 1040SOL    HW1 6012   5.974   0.464   5.650 -0.8498  2.9566 -0.0632
 1040SOL    HW2 6013   6.036   0.458   5.787 -0.9527  0.8183 -0.0688
 1041SOL     OW 6014   3.830   8.041   8.546  0.4733  0.4747 -0.1622
 1041SOL    HW1 6015   3.746   8.060   8.589  0.7888  1.0720  0.2134
 1041SOL    HW2 6016   3.847   7.949   8.566  0.3212  0.5827  0.5143
 1042SOL     OW 6017   1.838   3.278   2.053 -0.0798 -0.3250 -0.0780
 1042SOL    HW1 6018   1.806   3.202   2.100  0.0641 -0.6759 -0.5391
 1042SOL    HW2 6019   1.759   3.317   2.015 -0.0337 -0.9473 -0.8558
 1043SOL     OW 6020   2.491   1.431   4.149  0.2759 -0.1997 -0.0303
 1043SOL    HW1 6021   2.511   1.390   4.064 -0.7687 -0.7007 -0.0500
 1043SOL    HW2 6022   2.572   1.474   4.174  0.3889  0.6201 -1.6528
 1044SOL     OW 6023   5.624   0.793   1.115 -0.5234 -0.8074 -0.3541
 1044SOL    HW1 6024   5.709   0.779   1.157  0.2932 -1.3136 -2.0943
 1044SOL    HW2 6025   5.586   0.706   1.108 -0.8875 -0.6622 -0.2212
 1045SOL     OW 6026   5.579   6.438   5.973 -0.0484 -0.3463  0.1051
 1045SOL    HW1 6027   5.548   6.436   5.882  1.0870 -1.9615 -0.3078
 1045SOL    HW2 6028   5.531   6.367   6.016  1.2692 -1.3459  0.0349
 1046SOL     OW 6029   5.309   7.136   3.184  0.6297 -0.0463  0.1866
 1046SOL    HW1 6030   5.219   7.120   3.211  0.7652  0.9656  1.3646
 1046SOL    HW2 6031   5.350   7.176   3.261  1.8699  0.2189 -0.5809
 1047SOL     OW 6032   0.125   8.735   6.430  0.0688 -0.4087 -0.0565
 1047SOL    HW1 6033   0.140   8.719   6.337 -2.1010  1.0361 -0.7457
 1047SOL    HW2 6034   0.213   8.745   6.468  0.9774  0.3159 -2.2246
 1048SOL     OW 6035   5.630   0.636   3.457  0.0453  0.2135  0.4966
 1048SOL    HW1 6036   5.551   0.599   3.497 -1.4409 -0.8790 -2.9951
 1048SOL    HW2 6037   5.600   0.719   3.419 -0.0162 -0.9556 -2.2579
 1049SOL     OW 6038   3.428   2.669   6.633 -0.0012  0.0786 -0.1375
 1049SOL    HW1 6039   3.452   2.669   6.726  0.1054 -0.2976 -0.1632
 1049SOL    HW2 6040   3.511   2.660   6.586  0.1025  1.7289 -0.3286
 1050SOL     OW 6041   2.087   3.452   8.955  0.1278  0.0098 -0.1723
 1050SOL    HW1 6042   2.114   3.541   8.934 -0.4853  0.5987  1.3761
 1050SOL    HW2 6043   2.159   3.397   8.922  1.2925  1.2015  0.2657
 1051SOL     OW 6044   5.354   3.660   5.558  0.2902 -0.2045  0.1548
 1051SOL    HW1 6045   5.270   3.663   5.604 -0.6621 -1.4122 -1.4028
 1051SOL    HW2 6046   5.354   3.738   5.502 -0.8741 -1.3491 -1.5316
 1052SOL     OW 6047   4.177   0.044   1.381 -0.1063  0.1613 -0.4433
 1052SOL    HW1 6048   4.147   0.088   1.461 -0.2413 -0.9131  0.1246
 1052SOL    HW2 6049   4.124  -0.035   1.377  2.7149 -1.9749  0.7436
 1053SOL     OW 6050   4.147   6.156   3.174 -0.3784  0.2689 -0.0203
 1053SOL    HW1 6051   4.138   6.247   3.148  4.6888  1.1118  0.3309
 1053SOL    HW2 6052   4.186   6.158   3.261  1.5848 -2.1293 -0.7244
 1054SOL     OW 6053   7.932   1.818   3.565  0.1432  0.0671  0.3213
 1054SOL    HW1 6054   7.876   1.828   3.488  1.2706 -0.2402 -0.5562
 1054SOL    HW2 6055   7.958   1.726   3.564 -0.0511 -0.0084  1.2374
 1055SOL     OW 6056   8.078   8.071   5.801  0.0698 -0.4608 -0.2179
 1055SOL    HW1 6057   8.112   8.050   5.888 -0.1085  0.6755  0.1379
 1055SOL    HW2 6058   7.983   8.067   5.811  0.0029  1.1183  0.0440
 1056SOL     OW 6059   0.458   2.963   8.837  0.0960  0.2675  0.0383
 1056SOL    HW1 6060   0.450   2.972   8.932  0.2536 -0.3241  0.1125
 1056SOL    HW2 6061   0.437   3.050   8.803  0.2042  0.5277  0.6231
 1057SOL     OW 6062   0.909   0.194   4.109 -0.1985 -0.3659  0.6791
 1057SOL    HW1 6063   0.833   0.166   4.161 -0.0608 -1.4954  0.3089
 1057SOL    HW2 6064   0.916   0.128   4.040 -0.6515  1.3310 -1.1001
 1058SOL     OW 6065   2.017   4.351   1.357 -0.0458 -0.4518 -0.5005
 1058SOL    HW1 6066   2.092   4.341   1.416 -0.2577  0.1698 -0.1153
 1058SOL    HW2 6067   2.029   4.437   1.317  0.1141 -0.8847 -1.4015
 1059SOL     OW 6068   6.756   5.991   5.520  0.2568  1.0595 -0.4490
 1059SOL    HW1 6069   6.668   5.958   5.539  0.7455 -0.5908 -0.8565
 1059SOL    HW2 6070   6.742   6.074   5.476 -0.9975  3.1612  3.4400
 1060SOL     OW 6071   6.409   5.860   4.237 -0.3968 -0.0523 -0.1448
 1060SOL    HW1 6072   6.419   5.770   4.268 -3.2750 -0.4657 -0.1326
 1060SOL    HW2 6073   6.492   5.880   4.194  1.3237 -1.7421  2.1149
 1061SOL     OW 6074   9.201   7.072   3.593  0.0547 -0.8246 -0.3677
 1061SOL    HW1 6075   9.296   7.079   3.600 -0.0364 -1.2800  2.9286
 1061SOL    HW2 6076   9.179   7.125   3.517  2.9729 -1.3324 -1.7146
 1062SOL     OW 6077   6.222   7.692   2.353  0.4165 -0.6680  0.3992
 1062SOL    HW1 6078   6.239   7.738   2.436 -0.7537 -0.6444  0.6360
 1062SOL    HW2 6079   6.291   7.723   2.294 -0.1419  1.1557  0.6477
 1063SOL     OW 6080   4.664   8.083   2.977  0.1684 -0.7072 -0.8539
 1063SOL    HW1 6081   4.705   7.998   2.960  0.8909 -0.3555 -0.8983
 1063SOL    HW2 6082   4.699   8.140   2.909  0.5477 -0.0980 -0.1606
 1064SOL     OW 6083   4.304   1.185   1.098  0.3151 -0.8492  0.3295
 1064SOL    HW1 6084   4.295   1.277   1.072  0.1581 -0.9603 -0.0052
 1064SOL    HW2 6085   4.232   1.140   1.054 -0.5290 -0.8915  1.6707
 1065SOL     OW 6086   4.007   5.636   2.555 -0.7573 -0.3458 -0.6071
 1065SOL    HW1 6087   4.096   5.627   2.589 -1.5465  0.0620  1.7671
 1065SOL    HW2 6088   4.019   5.658   2.463  1.5569 -1.4926 -0.6576
 1066SOL     OW 6089   1.406   0.482   1.503  1.0282 -0.0073  0.5407
 1066SOL    HW1 6090   1.442   0.404   1.460  1.4724  0.4741  0.0072
 1066SOL    HW2 6091   1.313   0.462   1.515  0.4514  0.5119 -2.3372
 1067SOL     OW 6092   1.473   8.112   5.540  0.3756 -0.3204 -0.1906
 1067SOL    HW1 6093   1.461   8.190   5.592  0.8592 -0.8019  0.6615
 1067SOL    HW2 6094   1.563   8.084   5.557  0.5842 -0.4428 -1.3520
 1068SOL     OW 6095   0.820   1.205   2.805  0.2290  1.1348 -0.3144
 1068SOL    HW1 6096   0.774   1.226   2.723  0.4998 -1.0397 -1.0808
 1068SOL    HW2 6097   0.756   1.226   2.873 -0.9970  0.5742 -1.2299
 1069SOL     OW 6098   7.325   4.292   6.554  0.1006  0.6661 -0.0642
 1069SOL    HW1 6099   7.242   4.324   6.520 -0.2573  0.6899  0.8194
 1069SOL    HW2 6100   7.390   4.353   6.519 -0.1474  0.1943 -1.4016
 1070SOL     OW 6101   1.580   1.463   3.758  0.2320 -0.1462  0.6939
 1070SOL    HW1 6102   1.577   1.540   3.700 -0.0543 -1.6119 -1.3566
 1070SOL    HW2 6103   1.658   1.476   3.811  2.3058 -0.1250 -2.1581
 1071SOL     OW 6104   5.336   0.889   4.343 -0.0126 -0.5726  0.0306
 1071SOL    HW1 6105   5.286   0.962   4.381  1.1311  0.1966  0.1044
 1071SOL    HW2 6106   5.349   0.829   4.416 -1.2027 -1.0049 -0.0929
 1072SOL     OW 6107   0.794   0.154   1.856 -0.3685 -0.6603 -0.0743
 1072SOL    HW1 6108   0.832   0.158   1.944  0.6410  1.7005 -0.5263
 1072SOL    HW2 6109   0.796   0.245   1.825 -1.5524 -1.2826 -2.1952
 1073SOL     OW 6110   9.126   7.107   1.052  0.2100 -0.4122 -0.6752
 1073SOL    HW1 6111   9.133   7.179   1.116  1.1555 -2.3766  1.5733
 1073SOL    HW2 6112   9.039   7.070   1.068 -0.9507  1.0784 -2.9343
 1074SOL     OW 6113   4.150   8.663   0.904  0.3812 -0.1447 -0.2106
 1074SOL    HW1 6114   4.232   8.663   0.954  0.7894  0.6623 -0.8513
 1074SOL    HW2 6115   4.174   8.702   0.819 -0.5422 -0.4365 -0.6151
 1075SOL     OW 6116   0.876   1.156   8.674  0.6681 -0.1103 -0.3732
 1075SOL    HW1 6117   0.877   1.227   8.738  0.4893  0.9040 -1.4765
 1075SOL    HW2 6118   0.800   1.174   8.618 -2.5000 -3.8127  2.1856
 1076SOL     OW 6119   5.237   6.858   3.265  0.6400  0.2666 -0.2895
 1076SOL    HW1 6120   5.207   6.885   3.178  0.1720  2.5542  0.5024
 1076SOL    HW2 6121   5.331   6.878   3.265  0.5902  0.5113 -0.2063
 1077SOL     OW 6122   4.930   0.641   3.253 -0.2646  0.0035 -0.0030
 1077SOL    HW1 6123   4.888   0.704   3.313 -1.3338 -0.5712 -0.1207
 1077SOL    HW2 6124   4.998   0.692   3.209 -1.5755  1.2824 -0.6229
 1078SOL     OW 6125   3.513   6.178   2.233 -0.4665 -0.3029  0.1384
 1078SOL    HW1 6126   3.568   6.104   2.261 -1.7380 -0.5355  2.2661
 1078SOL    HW2 6127   3.500   6.229   2.313  0.2000  2.1688 -1.2421
 1079SOL     OW 6128   0.380   0.079   5.063  0.3083  0.5844  0.1416
 1079SOL    HW1 6129   0.339   0.030   4.992  1.4260  2.0271 -1.6038
 1079SOL    HW2 6130   0.447   0.132   5.019  1.5978  0.9370  2.4040
 1080SOL     OW 6131   5.016   0.460   3.479  0.2868 -0.3766  0.1166
 1080SOL    HW1 6132   4.991   0.516   3.406  2.6082 -0.7225 -1.0336
 1080SOL    HW2 6133   4.994   0.511   3.557 -1.5485  0.3072 -0.7953
 1081SOL     OW 6134   3.819   6.455   1.646 -0.5474  0.2586  0.5117
 1081SOL    HW1 6135   3.879   6.438   1.719  0.3308  0.8768 -0.0503
 1081SOL    HW2 6136   3.876   6.477   1.572 -1.4761  1.5863  0.1547
 1082SOL     OW 6137   7.692   1.269   5.833 -0.1045  0.0606 -0.2851
 1082SOL    HW1 6138   7.675   1.234   5.920  0.4614  0.2361 -0.0992
 1082SOL    HW2 6139   7.775   1.316   5.842  0.7331 -1.1669 -1.2683
 1083SOL     OW 6140   0.814   5.854   3.088  0.2395  0.2640  0.2711
 1083SOL    HW1 6141   0.836   5.941   3.055  2.4713 -0.3518 -0.0178
 1083SOL    HW2 6142   0.859   5.849   3.173 -0.9035 -0.1815  0.8751
 1084SOL     OW 6143   7.547   6.229   6.844  0.7823  0.6354 -0.0821
 1084SOL    HW1 6144   7.462   6.213   6.886 -0.1837  0.2384 -2.0388
 1084SOL    HW2 6145   7.590   6.294   6.900 -0.4310  0.1883  1.4327
 1085SOL     OW 6146   2.859   7.947   8.206 -0.5458  0.3016 -0.1389
 1085SOL    HW1 6147   2.908   7.942   8.124  0.5103  0.4310  0.4596
 1085SOL    HW2 6148   2.922   7.918   8.273 -1.4385  0.0236  0.6043
 1086SOL     OW 6149   1.687   7.882   5.029 -0.2177 -0.1781  0.3618
 1086SOL    HW1 6150   1.600   7.872   5.066 -0.2657 -0.0826  0.2742
 1086SOL    HW2 6151   1.673   7.919   4.943 -0.0884 -0.1342  0.3585
 1087SOL     OW 6152   1.414   6.451   3.288 -0.5887  0.1333  0.3558
 1087SOL    HW1 6153   1.361   6.525   3.259 -1.0659  0.1392  1.2105
 1087SOL    HW2 6154   1.501   6.489   3.305 -0.9811  0.6428  1.3562
 1088SOL     OW 6155   7.454   5.431   4.192  0.6769  0.3799 -0.1220
 1088SOL    HW1 6156   7.428   5.341   4.214 -0.5520  0.5092 -0.9224
 1088SOL    HW2 6157   7.543   5.440   4.226  1.0181 -1.3085 -0.4991
 1089SOL     OW 6158   5.824   0.620   0.835  0.1742 -0.2113  0.5069
 1089SOL    HW1 6159   5.903   0.637   0.784 -0.0128  2.5825  1.0182
 1089SOL    HW2 6160   5.842   0.659   0.921 -0.8618 -1.6995  1.4548
 1090SOL     OW 6161   5.377   4.350   0.875 -0.6071 -0.2676  0.1694
 1090SOL    HW1 6162   5.333   4.318   0.954  0.5118 -1.3269  0.3978
 1090SOL    HW2 6163   5.469   4.328   0.888 -0.1264  1.1158 -0.6803
 1091SOL     OW 6164   1.103   2.141   0.044 -0.1396 -0.1212 -0.3083
 1091SOL    HW1 6165   1.049   2.220   0.046 -0.0991 -0.1006 -0.0267
 1091SOL    HW2 6166   1.165   2.151   0.117 -1.6000 -1.4402  1.2092
 1092SOL     OW 6167   4.666   0.562   4.855  0.3798 -0.1855 -0.4141
 1092SOL    HW1 6168   4.619   0.595   4.932  1.9763  1.3322 -0.0210
 1092SOL    HW2 6169   4.753   0.600   4.862  0.8059 -0.6062 -2.6077
 1093SOL     OW 6170   3.424   2.084   0.778 -0.0101  0.4605 -0.0900
 1093SOL    HW1 6171   3.402   2.110   0.688  1.3032  2.5164  0.1028
 1093SOL    HW2 6172   3.441   2.167   0.823 -2.6952 -0.3063  2.6923
 1094SOL     OW 6173   4.792   5.485   4.571  0.0298 -0.1834 -0.6077
 1094SOL    HW1 6174   4.717   5.466   4.627  1.0134 -1.0516  0.4527
 1094SOL    HW2 6175   4.809   5.404   4.524  1.2168 -0.4701  0.2778
 1095SOL     OW 6176   1.566   0.769   2.989 -0.1304  0.4241  0.1590
 1095SOL    HW1 6177   1.514   0.819   3.052 -0.6548  0.5640 -0.3695
 1095SOL    HW2 6178   1.519   0.780   2.906  0.0719 -0.4600 -0.0815
 1096SOL     OW 6179   2.945   8.348   7.058 -0.1333 -0.1559  0.0217
 1096SOL    HW1 6180   2.856   8.314   7.045 -0.1615 -0.2183  0.3517
 1096SOL    HW2 6181   2.937   8.443   7.046  0.0845 -0.3172 -1.6233
 1097SOL     OW 6182   5.016   5.541   5.211  0.2531 -0.0014 -0.7075
 1097SOL    HW1 6183   5.013   5.473   5.279 -0.2213  0.5051 -0.2081
 1097SOL    HW2 6184   5.094   5.592   5.232  0.0399  0.2280 -0.4663
 1098SOL     OW 6185   9.120   1.302   8.404 -0.1475 -0.0178  0.2905
 1098SOL    HW1 6186   9.099   1.275   8.315 -0.6950 -1.9129  0.9449
 1098SOL    HW2 6187   9.214   1.320   8.403 -0.5177  2.1072 -1.1416
 1099SOL     OW 6188   7.669   1.660   0.926 -0.3424  0.0536  0.1642
 1099SOL    HW1 6189   7.698   1.570   0.944  1.1199  0.2915 -0.8092
 1099SOL    HW2 6190   7.731   1.715   0.972 -0.1841  0.5761 -0.6531
 1100SOL     OW 6191   1.531   5.732   9.133  0.2940  0.3591  0.3721
 1100SOL    HW1 6192   1.575   5.761   9.213 -0.6537  0.3262  0.9212
 1100SOL    HW2 6193   1.452   5.688   9.164 -1.5535  2.7489 -0.6140
 1101SOL     OW 6194   7.012   2.692   0.482  0.3509 -0.2464  0.2241
 1101SOL    HW1 6195   6.974   2.713   0.567  0.5589 -1.1383  0.5367
 1101SOL    HW2 6196   6.999   2.598   0.471 -1.1819  0.1051 -1.4751
 1102SOL     OW 6197   5.500   8.312   7.474 -0.5488 -0.1271  0.3342
 1102SOL    HW1 6198   5.569   8.377   7.488 -1.7492  1.3277 -0.2584
 1102SOL    HW2 6199   5.503   8.293   7.380 -1.5207  0.6461  0.1271
 1103SOL     OW 6200   2.195   0.436   0.985 -0.8688  0.3182 -0.1720
 1103SOL    HW1 6201   2.105   0.434   1.017 -1.4058  0.9017 -1.5969
 1103SOL    HW2 6202   2.188   0.452   0.891  0.6645 -1.5777 -0.6669
 1104SOL     OW 6203   7.546   1.764   6.159  0.2064 -0.1002 -0.1237
 1104SOL    HW1 6204   7.551   1.751   6.064 -0.8067  0.1742 -0.2256
 1104SOL    HW2 6205   7.476   1.828   6.171 -0.6769 -1.2134  0.8989
 1105SOL     OW 6206   1.764   2.202   5.724 -0.2792  0.0265 -0.2596
 1105SOL    HW1 6207   1.853   2.168   5.713 -0.0964  0.7457 -1.1900
 1105SOL    HW2 6208   1.735   2.168   5.809 -0.2444 -2.7153 -1.2372
 1106SOL     OW 6209   7.887   8.645   8.336  0.2122  0.3692 -0.2963
 1106SOL    HW1 6210   7.905   8.559   8.374  0.7544 -0.0553 -1.4764
 1106SOL    HW2 6211   7.792   8.646   8.324 -0.2726  1.2209  2.6420
 1107SOL     OW 6212   3.689   8.499   5.790 -0.3243  0.2817 -0.2575
 1107SOL    HW1 6213   3.739   8.495   5.708 -0.8665 -2.0574 -0.5398
 1107SOL    HW2 6214   3.598   8.500   5.761 -0.5111  1.8641  0.3087
 1108SOL     OW 6215   9.241   3.336   7.974 -0.5677 -0.3148 -0.2598
 1108SOL    HW1 6216   9.205   3.264   8.025 -1.0511  0.4682  0.5362
 1108SOL    HW2 6217   9.166   3.372   7.927 -0.2889 -0.4657 -0.8308
 1109SOL     OW 6218   1.810   8.261   8.105 -0.2330 -0.3782 -0.1249
 1109SOL    HW1 6219   1.889   8.310   8.128 -0.6402 -0.3506  1.2972
 1109SOL    HW2 6220   1.746   8.328   8.081 -0.5800 -0.2311  1.1577
 1110SOL     OW 6221   8.555   2.732   2.167 -0.8025 -0.8113  0.2755
 1110SOL    HW1 6222   8.534   2.739   2.074 -0.4759  0.0167  0.2551
 1110SOL    HW2 6223   8.494   2.667   2.201 -0.9670 -1.0694 -0.5021
 1111SOL     OW 6224   6.987   7.088   0.890 -0.1439  0.0314 -0.1677
 1111SOL    HW1 6225   6.919   7.132   0.942  0.9747 -1.0859  2.4451
 1111SOL    HW2 6226   6.947   7.005   0.865 -1.2597  1.2307 -2.6443
 1112SOL     OW 6227   0.421   1.384   3.089 -0.3448  0.4806 -0.2008
 1112SOL    HW1 6228   0.349   1.415   3.144  0.2572  2.1295 -0.2904
 1112SOL    HW2 6229   0.498   1.431   3.122  0.8084 -1.5446  0.1588
 1113SOL     OW 6230   7.480   8.404   9.007 -0.1857  0.7254  0.1589
 1113SOL    HW1 6231   7.498   8.348   8.931  1.5715  2.4051 -0.7453
 1113SOL    HW2 6232   7.481   8.344   9.082  2.2396 -0.4245 -0.6941
 1114SOL     OW 6233   2.332   2.110   6.253 -0.3753  1.2535 -0.0059
 1114SOL    HW1 6234   2.259   2.156   6.294 -1.1589 -2.1208  2.7607
 1114SOL    HW2 6235   2.397   2.101   6.323  0.0952 -0.9585 -0.6532
 1115SOL     OW 6236   1.459   3.044   2.176  0.9614  0.4970 -0.4436
 1115SOL    HW1 6237   1.376   3.004   2.205  0.8067 -0.5718 -2.2786
 1115SOL    HW2 6238   1.448   3.137   2.199 -1.2677  0.6224 -1.6702
 1116SOL     OW 6239   4.935   2.771   5.497  0.0795  0.4258  0.0790
 1116SOL    HW1 6240   4.872   2.799   5.563  0.5372  0.7819  0.3717
 1116SOL    HW2 6241   4.884   2.717   5.436 -0.6060  1.0772  0.0577
 1117SOL     OW 6242   3.356   0.137   4.520 -0.3344  0.5840  0.5644
 1117SOL    HW1 6243   3.316   0.150   4.434 -1.5120 -0.0496  0.9978
 1117SOL    HW2 6244   3.414   0.062   4.509 -1.7556 -0.5780  0.7042
 1118SOL     OW 6245   8.348   7.051   3.637  0.0539  0.5198  0.0274
 1118SOL    HW1 6246   8.441   7.075   3.637 -0.0264  0.8559 -0.9276
 1118SOL    HW2 6247   8.348   6.955   3.635  0.3699  0.4053  2.3808
 1119SOL     OW 6248   8.779   3.471   3.500  0.2838 -0.5842  0.1801
 1119SOL    HW1 6249   8.738   3.400   3.451  0.0655  1.0135 -2.1297
 1119SOL    HW2 6250   8.759   3.550   3.449  0.7774  1.1267  2.4447
 1120SOL     OW 6251   8.413   1.081   4.311  0.0572 -0.5854  0.0566
 1120SOL    HW1 6252   8.385   0.990   4.320  1.3399 -1.0778 -0.5815
 1120SOL    HW2 6253   8.367   1.128   4.381 -0.8585 -1.6590  0.2009
 1121SOL     OW 6254   7.304   5.430   2.189  0.4530 -0.1306 -0.1326
 1121SOL    HW1 6255   7.349   5.477   2.119  0.1312 -0.3989 -0.5268
 1121SOL    HW2 6256   7.224   5.479   2.204 -0.0281 -0.7098 -0.7534
 1122SOL     OW 6257   0.868   6.276   2.520 -0.5769  0.1514 -0.0353
 1122SOL    HW1 6258   0.841   6.216   2.450 -0.8131  1.5944 -1.2448
 1122SOL    HW2 6259   0.963   6.263   2.527 -0.9174 -2.0430  1.4187
 1123SOL     OW 6260   5.037   1.495   2.918  0.2431 -0.0699  0.3098
 1123SOL    HW1 6261   4.947   1.523   2.932  0.7025  0.8994  1.5027
 1123SOL    HW2 6262   5.054   1.433   2.989  1.0468  1.0786  1.1475
 1124SOL     OW 6263   2.105   5.083   3.825  0.2493  0.2352  0.2297
 1124SOL    HW1 6264   2.025   5.043   3.858  0.0067 -0.6540 -1.3613
 1124SOL    HW2 6265   2.096   5.083   3.730  2.5107 -0.7890 -0.0714
 1125SOL     OW 6266   5.671   1.810   4.207 -0.1999  0.6767  0.2592
 1125SOL    HW1 6267   5.590   1.848   4.174 -0.1908  0.7844  0.3603
 1125SOL    HW2 6268   5.669   1.829   4.301 -1.5323 -1.8822  0.8754
 1126SOL     OW 6269   4.974   7.627   8.355  0.0694  0.1839  0.1806
 1126SOL    HW1 6270   4.879   7.616   8.349 -0.2765  1.8204  1.7588
 1126SOL    HW2 6271   5.010   7.543   8.328 -1.6800  0.3133 -3.1742
 1127SOL     OW 6272   8.278   5.090   3.622  0.2397  0.2085  0.2957
 1127SOL    HW1 6273   8.257   4.997   3.615  0.0558  0.3320 -0.9506
 1127SOL    HW2 6274   8.370   5.096   3.598  0.6543  0.1964  1.7510
 1128SOL     OW 6275   7.405   0.013   6.953  0.6326 -0.1526  0.2152
 1128SOL    HW1 6276   7.356   0.062   7.019 -0.2890 -0.5901 -0.1287
 1128SOL    HW2 6277   7.368   0.042   6.869 -0.1178 -1.6173  0.0142
 1129SOL     OW 6278   0.472   2.223   6.819  0.3612 -0.1803  0.0092
 1129SOL    HW1 6279   0.432   2.298   6.775 -1.0364  0.3288  2.0368
 1129SOL    HW2 6280   0.423   2.214   6.901  2.3081 -1.6013  1.0893
 1130SOL     OW 6281   8.868   5.340   2.398 -0.0220  0.2806 -0.2368
 1130SOL    HW1 6282   8.882   5.431   2.424 -0.6774  0.2651  0.2061
 1130SOL    HW2 6283   8.918   5.329   2.318 -1.0389  1.4245 -1.0585
 1131SOL     OW 6284   6.307   8.647   1.259  0.2107  0.1624 -0.3294
 1131SOL    HW1 6285   6.281   8.598   1.181  0.5062  1.1058 -1.0485
 1131SOL    HW2 6286   6.280   8.737   1.240 -0.1186  0.3271  0.8560
 1132SOL     OW 6287   6.562   7.446   8.208  0.1487  0.3381 -0.1063
 1132SOL    HW1 6288   6.603   7.488   8.132 -0.5365  0.4731 -0.4014
 1132SOL    HW2 6289   6.560   7.515   8.275 -2.0081  1.1803 -0.9495
 1133SOL     OW 6290   2.807   8.338   0.566 -0.3621 -0.2264 -0.3093
 1133SOL    HW1 6291   2.719   8.351   0.533 -0.6930  0.2288  0.7319
 1133SOL    HW2 6292   2.795   8.296   0.652  0.4814 -1.5190 -0.7890
 1134SOL     OW 6293   4.381   0.861   4.553  0.0272 -0.2260  0.1948
 1134SOL    HW1 6294   4.380   0.797   4.624 -1.6568  0.0430  0.4646
 1134SOL    HW2 6295   4.334   0.818   4.482 -2.6006  1.2050  0.9250
 1135SOL     OW 6296   8.525   0.038   0.647  0.0109  0.1505  0.0071
 1135SOL    HW1 6297   8.471  -0.030   0.607  0.7528 -0.6808  0.3979
 1135SOL    HW2 6298   8.612   0.027   0.609  0.3786  0.2447  0.7918
 1136SOL     OW 6299   4.873   7.093   7.974  0.1440 -0.8145 -0.0105
 1136SOL    HW1 6300   4.894   7.104   7.882 -1.4298 -2.5976 -0.6322
 1136SOL    HW2 6301   4.938   7.031   8.007  2.0815  1.4607  0.7065
 1137SOL     OW 6302   4.814   1.617   8.981 -0.3284 -0.0003 -0.2234
 1137SOL    HW1 6303   4.742   1.571   8.938 -2.1186  0.6982  1.8477
 1137SOL    HW2 6304   4.871   1.548   9.014 -0.0773 -0.5714 -1.7850
 1138SOL     OW 6305   3.194   1.300   7.720 -0.5373  0.3938  0.0469
 1138SOL    HW1 6306   3.117   1.350   7.690 -0.5044 -0.3506 -1.3536
 1138SOL    HW2 6307   3.157   1.224   7.764 -0.6124  0.2095 -0.3285
 1139SOL     OW 6308   3.641   4.126   3.898  0.2060 -0.0301  0.1520
 1139SOL    HW1 6309   3.613   4.140   3.988  1.2275  0.0455  0.4705
 1139SOL    HW2 6310   3.572   4.166   3.844  1.1087  2.7723  0.9406
 1140SOL     OW 6311   3.863   8.970   2.367 -0.0313  0.3508  0.2877
 1140SOL    HW1 6312   3.846   8.958   2.461  1.9884  0.3827  0.7047
 1140SOL    HW2 6313   3.926   9.042   2.363  1.0525 -0.6155 -0.9594
 1141SOL     OW 6314   2.465   8.746   2.603  0.5600 -0.7500  0.3508
 1141SOL    HW1 6315   2.471   8.810   2.673  1.1042  0.2318 -0.5500
 1141SOL    HW2 6316   2.400   8.682   2.633  0.0560  0.1852  1.3067
 1142SOL     OW 6317   4.267   5.940   2.513 -0.7575 -0.2128  0.4860
 1142SOL    HW1 6318   4.354   5.962   2.545 -1.3947  0.7963  1.6210
 1142SOL    HW2 6319   4.282   5.872   2.447  0.9169  0.3738  0.2108
 1143SOL     OW 6320   2.845   2.733   7.220  0.2340  0.2424 -0.2635
 1143SOL    HW1 6321   2.788   2.662   7.191  0.1698 -0.0160  0.4898
 1143SOL    HW2 6322   2.814   2.754   7.308 -0.2186  1.6828 -0.7289
 1144SOL     OW 6323   0.095   7.812   0.024  0.1759 -0.6860  0.1231
 1144SOL    HW1 6324   0.027   7.746   0.034  1.0355 -1.7346 -0.6760
 1144SOL    HW2 6325   0.114   7.813  -0.070 -0.5618  1.4859 -0.0580
 1145SOL     OW 6326   5.181   2.671   5.465 -0.2457  0.2110  0.2483
 1145SOL    HW1 6327   5.097   2.716   5.471 -0.8852 -0.6478 -1.4872
 1145SOL    HW2 6328   5.241   2.723   5.519 -2.2871 -0.1986  3.1016
 1146SOL     OW 6329   1.442   1.694   6.762  0.1932  0.0313  0.3777
 1146SOL    HW1 6330   1.510   1.755   6.793 -0.5441 -0.1368  2.5199
 1146SOL    HW2 6331   1.414   1.730   6.678  1.6281  1.1350  0.3251
 1147SOL     OW 6332   0.831   2.617   4.583 -0.0598  0.3666 -0.3899
 1147SOL    HW1 6333   0.765   2.650   4.644  0.4306  0.6030  0.0252
 1147SOL    HW2 6334   0.868   2.541   4.627  0.6121  0.8048 -0.1798
 1148SOL     OW 6335   5.794   0.543   9.208  0.6440 -0.1305  0.0364
 1148SOL    HW1 6336   5.828   0.559   9.296  0.7215  2.8654 -0.4331
 1148SOL    HW2 6337   5.701   0.565   9.214  0.4984 -0.5875 -0.4797
 1149SOL     OW 6338   6.725   3.637   3.794 -0.3141 -0.2608 -0.4490
 1149SOL    HW1 6339   6.757   3.676   3.712  1.0784  0.6575  0.4779
 1149SOL    HW2 6340   6.693   3.712   3.845  3.1952 -0.0128  1.7236
 1150SOL     OW 6341   8.412   5.290   1.580 -0.2945  0.2343 -0.1457
 1150SOL    HW1 6342   8.381   5.210   1.622 -0.6620  0.4246 -0.0512
 1150SOL    HW2 6343   8.489   5.316   1.630  0.3662 -0.5537 -0.7246
 1151SOL     OW 6344   2.567   5.234   5.774  0.1467 -0.0037  0.4814
 1151SOL    HW1 6345   2.649   5.187   5.757  0.3010 -0.6592  2.8310
 1151SOL    HW2 6346   2.585   5.323   5.742  1.3610 -0.4273 -0.0960
 1152SOL     OW 6347   2.464   2.827   7.283  0.3569  0.2047  0.3868
 1152SOL    HW1 6348   2.501   2.913   7.263  0.9872  0.3451  2.0420
 1152SOL    HW2 6349   2.507   2.800   7.364 -0.5192 -1.2637  0.4005
 1153SOL     OW 6350   2.502   4.914   4.876 -0.6341 -0.0090  0.2628
 1153SOL    HW1 6351   2.432   4.855   4.847  0.0776 -1.7019  1.7929
 1153SOL    HW2 6352   2.576   4.856   4.892  0.3865  1.4436  0.9633
 1154SOL     OW 6353   5.472   5.018   6.411  0.6549  0.6627  0.4536
 1154SOL    HW1 6354   5.527   4.978   6.343 -0.1132  1.2703 -0.5594
 1154SOL    HW2 6355   5.439   4.945   6.462  0.7932  0.1444 -0.1803
 1155SOL     OW 6356   8.324   3.610   1.948  0.2751 -0.3274  0.1661
 1155SOL    HW1 6357   8.361   3.528   1.981  2.2529  0.2827 -0.4316
 1155SOL    HW2 6358   8.360   3.678   2.005 -2.0787  0.1162  1.2466
 1156SOL     OW 6359   6.215   4.558   1.485  0.1231  0.1177 -0.3918
 1156SOL    HW1 6360   6.147   4.603   1.535 -1.9793 -1.2440 -1.8160
 1156SOL    HW2 6361   6.210   4.467   1.514  2.8072  0.2897  0.9031
 1157SOL     OW 6362   3.861   7.865   0.359 -0.3760 -0.5877 -0.1265
 1157SOL    HW1 6363   3.826   7.898   0.276  1.3421  2.1240  0.1030
 1157SOL    HW2 6364   3.954   7.852   0.343 -0.0764 -0.3626  1.2557
 1158SOL     OW 6365   8.765   3.599   0.694  0.1993  0.4343 -0.6157
 1158SOL    HW1 6366   8.819   3.547   0.753 -0.2138  2.2335  1.4629
 1158SOL    HW2 6367   8.768   3.688   0.730 -2.0275  1.1299 -1.9356
 1159SOL     OW 6368   1.988   3.572   7.497  0.1552 -0.0610  0.1065
 1159SOL    HW1 6369   2.074   3.604   7.470  0.3848  0.3854  1.2762
 1159SOL    HW2 6370   1.997   3.477   7.498  1.4612 -0.0205  2.5263
 1160SOL     OW 6371   1.214   3.359   0.812 -0.3080 -0.0584 -0.3812
 1160SOL    HW1 6372   1.305   3.333   0.799  0.0463  0.7253  0.3970
 1160SOL    HW2 6373   1.180   3.296   0.876  0.6270  1.4641  1.7070
 1161SOL     OW 6374   4.422   4.190   2.539 -0.0797 -0.3708 -0.4897
 1161SOL    HW1 6375   4.346   4.163   2.486 -1.9545 -0.9944  2.3046
 1161SOL    HW2 6376   4.421   4.131   2.614  2.9169 -0.0256 -0.0545
 1162SOL     OW 6377   7.931   7.758   5.069 -0.1014  0.2881  0.1605
 1162SOL    HW1 6378   7.858   7.756   5.006 -0.1296 -0.3887  0.2160
 1162SOL    HW2 6379   8.007   7.728   5.018 -0.3620 -1.4610  0.7522
 1163SOL     OW 6380   2.730   3.861   3.148 -0.0143 -0.0899  0.5207
 1163SOL    HW1 6381   2.796   3.794   3.132 -0.2299  0.0082 -0.9119
 1163SOL    HW2 6382   2.647   3.818   3.124  0.0096  1.1814 -2.1325
 1164SOL     OW 6383   2.936   5.902   0.823  0.4063 -0.8961  0.0940
 1164SOL    HW1 6384   3.014   5.915   0.770  0.9314 -1.4733  0.7105
 1164SOL    HW2 6385   2.867   5.879   0.760  0.1100  1.9068 -0.7493
 1165SOL     OW 6386   0.268   3.773   0.158 -0.5428  0.0954 -0.2196
 1165SOL    HW1 6387   0.320   3.724   0.222 -3.5395 -1.2516  1.3557
 1165SOL    HW2 6388   0.277   3.864   0.186  0.0668 -0.2153  0.6787
 1166SOL     OW 6389   2.360   0.965   6.730  0.7089  0.4359  0.0823
 1166SOL    HW1 6390   2.316   1.035   6.779  1.6650  1.2727 -0.2349
 1166SOL    HW2 6391   2.354   0.889   6.788  0.8067  1.1120  1.0137
 1167SOL     OW 6392   8.573   5.797   2.096  0.2987  0.0085 -0.2477
 1167SOL    HW1 6393   8.643   5.862   2.090 -0.2270  0.7802  1.2263
 1167SOL    HW2 6394   8.551   5.776   2.006  0.4438  1.9751 -0.7962
 1168SOL     OW 6395   7.463   3.365   0.263  0.1539  0.4254  0.2791
 1168SOL    HW1 6396   7.467   3.450   0.308  0.8689  0.3752  0.3202
 1168SOL    HW2 6397   7.490   3.384   0.174 -0.1409  0.3171  0.1637
 1169SOL     OW 6398   4.046   2.444   8.266 -0.2246 -0.2125 -0.4256
 1169SOL    HW1 6399   4.130   2.482   8.239  0.6757 -0.9323  1.2663
 1169SOL    HW2 6400   4.066   2.354   8.290 -1.4088 -0.2916  0.3838
 1170SOL     OW 6401   7.887   4.724   3.183 -0.4813  0.0618  0.0048
 1170SOL    HW1 6402   7.899   4.807   3.137  0.9497  1.0689  2.0583
 1170SOL    HW2 6403   7.976   4.695   3.203 -0.8820 -2.4479 -1.3360
 1171SOL     OW 6404   3.401   5.445   0.507 -0.5774 -0.3602  0.0603
 1171SOL    HW1 6405   3.478   5.408   0.464  0.1262  0.9357  0.1639
 1171SOL    HW2 6406   3.436   5.510   0.568 -1.7840  1.6764 -1.2615
 1172SOL     OW 6407   2.862   5.633   4.587 -0.2623 -0.0121  1.0727
 1172SOL    HW1 6408   2.926   5.573   4.625 -0.7270 -0.3794  1.2740
 1172SOL    HW2 6409   2.778   5.591   4.600 -0.3487 -0.9354 -1.7369
 1173SOL     OW 6410   5.648   5.004   1.074 -0.2840  0.4138  0.4424
 1173SOL    HW1 6411   5.697   5.082   1.102  1.8960 -1.5653  2.5309
 1173SOL    HW2 6412   5.676   4.990   0.984  1.2354  0.6914  0.8402
 1174SOL     OW 6413   3.761   5.606   3.735 -0.0578  0.4049 -0.4693
 1174SOL    HW1 6414   3.732   5.608   3.644  0.0318 -2.1266 -0.6156
 1174SOL    HW2 6415   3.816   5.528   3.741 -0.4781  0.2226  1.8845
 1175SOL     OW 6416   1.838   6.243   8.504 -0.2935  0.3085 -0.1872
 1175SOL    HW1 6417   1.855   6.169   8.562  2.0563  2.0228  1.4899
 1175SOL    HW2 6418   1.748   6.268   8.524 -0.4890 -0.8979  0.5849
 1176SOL     OW 6419   1.928   4.577   0.093 -0.3627 -0.1427 -0.0079
 1176SOL    HW1 6420   1.885   4.494   0.074 -2.3132  0.9335 -0.6136
 1176SOL    HW2 6421   1.946   4.615   0.006  0.2745  0.2046  0.2640
 1177SOL     OW 6422   3.075   5.812   1.016  0.8340 -0.0611 -0.3212
 1177SOL    HW1 6423   3.165   5.827   0.987  0.5992  1.5204 -0.3333
 1177SOL    HW2 6424   3.020   5.848   0.945  0.1947 -0.7202 -0.1753
 1178SOL     OW 6425   2.608   7.285   0.384 -0.8139  0.3062  0.1575
 1178SOL    HW1 6426   2.518   7.316   0.386 -0.7553  0.4147  1.6551
 1178SOL    HW2 6427   2.614   7.221   0.455  0.3481  0.4590  0.2243
 1179SOL     OW 6428   4.234   2.722   1.682 -0.0384  0.2311  0.7360
 1179SOL    HW1 6429   4.146   2.708   1.718 -0.7429  2.6337  0.1207
 1179SOL    HW2 6430   4.219   2.744   1.590  1.4368 -1.6240 -0.0128
 1180SOL     OW 6431   3.505   0.178   2.691 -0.1426 -0.2899  0.2053
 1180SOL    HW1 6432   3.499   0.269   2.718 -1.1614 -0.4140  0.4585
 1180SOL    HW2 6433   3.540   0.181   2.601  2.5273  0.1638  1.1789
 1181SOL     OW 6434   3.887   9.114   2.803  0.1036 -0.2499 -0.8620
 1181SOL    HW1 6435   3.819   9.095   2.738 -1.4191 -0.6301  0.7534
 1181SOL    HW2 6436   3.934   9.031   2.813  0.8839  0.0352 -2.0464
 1182SOL     OW 6437   7.902   0.806   3.869 -0.4972 -0.3683 -0.0818
 1182SOL    HW1 6438   7.956   0.727   3.863 -0.1454 -0.0402 -1.7907
 1182SOL    HW2 6439   7.949   0.871   3.816 -1.6387  0.4754 -0.0841
 1183SOL     OW 6440   2.664   6.808   0.534  0.1845  0.4740 -0.1005
 1183SOL    HW1 6441   2.758   6.798   0.546 -0.1689 -1.3720  1.7456
 1183SOL    HW2 6442   2.636   6.725   0.495 -0.9039  0.1909  1.1991
 1184SOL     OW 6443   5.022   5.762   0.369  0.0666  0.1296 -0.5826
 1184SOL    HW1 6444   5.102   5.755   0.420 -0.4266 -0.7099  0.1137
 1184SOL    HW2 6445   4.983   5.845   0.396 -0.4105 -0.5068  0.7857
 1185SOL     OW 6446   0.754   1.445   1.648  0.5229 -0.3643 -0.2878
 1185SOL    HW1 6447   0.817   1.502   1.693  0.1478  0.0986 -0.3301
 1185SOL    HW2 6448   0.722   1.498   1.575 -0.6639 -0.1930  0.3172
 1186SOL     OW 6449   3.020   6.350   7.830 -0.7035  0.1552  0.8196
 1186SOL    HW1 6450   3.087   6.346   7.899  0.1288 -0.5733  0.0012
 1186SOL    HW2 6451   2.978   6.264   7.833 -0.4842  0.0255  0.2521
 1187SOL     OW 6452   7.582   0.458   3.063 -0.1522  0.0411 -0.0223
 1187SOL    HW1 6453   7.574   0.550   3.039  1.1994  0.1038 -0.2852
 1187SOL    HW2 6454   7.493   0.432   3.088 -1.0790  0.7610 -2.2726
 1188SOL     OW 6455   3.374   1.164   5.063  0.5434  0.0988  0.5685
 1188SOL    HW1 6456   3.335   1.175   5.150  0.5969 -0.6342  0.6898
 1188SOL    HW2 6457   3.312   1.109   5.015 -0.9623  2.7927 -0.8606
 1189SOL     OW 6458   7.608   9.054   1.137 -0.2324 -0.5840  0.3196
 1189SOL    HW1 6459   7.545   9.044   1.208 -2.2154 -0.9966 -1.3824
 1189SOL    HW2 6460   7.669   8.981   1.148 -1.1902 -1.3094  0.9370
 1190SOL     OW 6461   2.238   2.706   1.129 -0.6235  0.6825 -0.2748
 1190SOL    HW1 6462   2.280   2.742   1.208 -0.4707  0.4745 -0.2616
 1190SOL    HW2 6463   2.175   2.774   1.103 -0.0234  1.1601 -0.5097
 1191SOL     OW 6464   6.128   4.115   0.174  0.3551  0.6752  0.3085
 1191SOL    HW1 6465   6.149   4.182   0.109  0.9998 -0.7497 -1.0388
 1191SOL    HW2 6466   6.177   4.140   0.252  0.6808  1.6795 -0.2055
 1192SOL     OW 6467   0.426   3.893   8.359 -0.1176 -0.0025 -0.7839
 1192SOL    HW1 6468   0.369   3.968   8.377 -0.1524  0.1271 -1.4154
 1192SOL    HW2 6469   0.481   3.921   8.286  1.9599  0.5050  0.8818
 1193SOL     OW 6470   5.671   2.491   1.802  0.1604 -0.2723 -0.1702
 1193SOL    HW1 6471   5.758   2.478   1.765  0.2417  0.9276 -0.4503
 1193SOL    HW2 6472   5.686   2.506   1.896  0.3802  1.0439 -0.3996
 1194SOL     OW 6473   7.629   9.045   1.592  0.1099 -0.1135  0.1714
 1194SOL    HW1 6474   7.588   9.027   1.676 -0.3693  1.8133  0.3858
 1194SOL    HW2 6475   7.614   9.138   1.576  1.4877 -0.0877 -1.3479
 1195SOL     OW 6476   4.037   9.154   3.153 -0.5300  0.0210  0.3208
 1195SOL    HW1 6477   3.997   9.074   3.120  1.0309 -0.2692 -0.9717
 1195SOL    HW2 6478   3.998   9.224   3.100  0.3209 -0.2181 -0.6526
 1196SOL     OW 6479   7.584   3.163   6.083  0.5840 -0.3823  0.5298
 1196SOL    HW1 6480   7.561   3.208   6.165  0.0249 -1.0834  0.7718
 1196SOL    HW2 6481   7.601   3.234   6.021  1.6575  0.1668  1.4199
 1197SOL     OW 6482   5.076   0.231   6.631 -0.1013  0.5654 -0.0268
 1197SOL    HW1 6483   5.106   0.146   6.663  2.2170  0.8498 -1.2250
 1197SOL    HW2 6484   5.067   0.284   6.710 -0.1018 -0.3661  0.6174
 1198SOL     OW 6485   5.738   7.763   2.525  0.4528 -0.5257 -0.0238
 1198SOL    HW1 6486   5.809   7.703   2.501  0.5492 -0.4890  0.1629
 1198SOL    HW2 6487   5.780   7.849   2.529  0.7513 -0.7085  1.5909
 1199SOL     OW 6488   8.022   4.639   4.987 -0.5476 -0.2751  0.9151
 1199SOL    HW1 6489   8.019   4.702   5.059 -0.2248  1.7453 -0.7493
 1199SOL    HW2 6490   8.115   4.618   4.977  0.0452  2.7375 -1.4725
 1200SOL     OW 6491   0.847   5.705   3.349 -0.0003  0.0745 -0.4867
 1200SOL    HW1 6492   0.813   5.773   3.406 -0.2155 -0.7504  0.3807
 1200SOL    HW2 6493   0.930   5.678   3.389 -0.0428 -0.3560 -0.6749
 1201SOL     OW 6494   7.736   6.967   6.311 -0.1988 -0.1999  0.0964
 1201SOL    HW1 6495   7.770   6.883   6.343 -1.2387 -0.5524  0.3354
 1201SOL    HW2 6496   7.657   6.943   6.262 -0.2940  0.6134 -0.1660
 1202SOL     OW 6497   3.138   4.294   6.128 -0.5561  0.6279 -0.2795
 1202SOL    HW1 6498   3.169   4.257   6.211  1.2080  1.5780 -0.4821
 1202SOL    HW2 6499   3.091   4.373   6.153  0.5089  1.2473 -0.2152
 1203SOL     OW 6500   0.913   7.546   8.935  0.2535 -0.1064  0.6322
 1203SOL    HW1 6501   0.939   7.459   8.964  0.2166 -0.4964 -0.4454
 1203SOL    HW2 6502   0.871   7.586   9.011 -1.0747 -1.5791  0.7181
 1204SOL     OW 6503   7.058   7.514   8.950 -0.0266  0.3699  0.0531
 1204SOL    HW1 6504   7.143   7.516   8.907 -0.6392  1.5878 -1.2099
 1204SOL    HW2 6505   6.998   7.554   8.886 -1.8801 -1.9243  0.2068
 1205SOL     OW 6506   2.170   7.038   1.719  0.0307  0.5501 -0.3139
 1205SOL    HW1 6507   2.240   6.994   1.670 -0.4739  1.7930 -2.2650
 1205SOL    HW2 6508   2.104   6.970   1.733  0.4388  0.0222 -0.8945
 1206SOL     OW 6509   8.164   5.340   0.920 -0.5901 -0.4535 -0.1462
 1206SOL    HW1 6510   8.205   5.278   0.859 -2.1153 -0.6940 -0.9647
 1206SOL    HW2 6511   8.103   5.287   0.971 -0.1891 -0.0330  0.7971
 1207SOL     OW 6512   4.094   3.134   6.821  0.3896 -0.0452  0.0255
 1207SOL    HW1 6513   4.156   3.088   6.764 -0.2843 -1.2737  0.2511
 1207SOL    HW2 6514   4.045   3.191   6.761  2.3812  1.7058 -0.0082
 1208SOL     OW 6515   0.459   6.983   3.454  0.8917 -0.0669 -0.1317
 1208SOL    HW1 6516   0.399   6.928   3.404  1.5823  0.0961 -1.1579
 1208SOL    HW2 6517   0.509   7.031   3.388  0.3280  1.8001  0.7193
 1209SOL     OW 6518   3.126   4.385   2.382 -0.0963  0.0658  0.4794
 1209SOL    HW1 6519   3.099   4.346   2.299  0.8395  1.2341 -0.4301
 1209SOL    HW2 6520   3.095   4.476   2.377 -1.0208 -0.1414  1.9251
 1210SOL     OW 6521   8.099   4.785   4.513 -0.0353  0.3545 -0.5797
 1210SOL    HW1 6522   8.025   4.725   4.511  0.3887 -0.2714  1.0223
 1210SOL    HW2 6523   8.176   4.729   4.503  0.3905  0.5376  1.3433
 1211SOL     OW 6524   8.126   7.617   5.776  0.5542 -0.2522  0.0627
 1211SOL    HW1 6525   8.189   7.629   5.705 -0.0572  0.7132 -0.3227
 1211SOL    HW2 6526   8.107   7.523   5.774  2.5625 -0.7342  0.7063
 1212SOL     OW 6527   3.417   7.393   7.750 -0.2267  0.1902  0.0794
 1212SOL    HW1 6528   3.462   7.475   7.728 -0.5525  0.4651  0.4356
 1212SOL    HW2 6529   3.479   7.347   7.807 -0.4823  0.6761  0.7679
 1213SOL     OW 6530   3.967   5.934   4.300 -0.4481  0.2224 -0.4962
 1213SOL    HW1 6531   3.987   5.892   4.216  0.6069 -1.0468  0.3693
 1213SOL    HW2 6532   3.872   5.950   4.296 -0.5159 -0.3210 -1.6931
 1214SOL     OW 6533   1.890   4.077   3.078 -0.5992 -0.6181  0.1510
 1214SOL    HW1 6534   1.806   4.073   3.124  0.6335  0.9149  2.7163
 1214SOL    HW2 6535   1.885   4.156   3.025 -1.1053 -1.0601 -0.4796
 1215SOL     OW 6536   5.728   6.002   1.542  0.4438 -0.0911  0.2192
 1215SOL    HW1 6537   5.757   6.089   1.569 -0.6396  0.3654 -0.0067
 1215SOL    HW2 6538   5.735   6.002   1.447 -0.8976  0.2763  0.1033
 1216SOL     OW 6539   4.460   5.009   1.763 -0.5653 -0.8475 -0.2504
 1216SOL    HW1 6540   4.486   4.944   1.698 -0.1074 -0.3546 -0.5644
 1216SOL    HW2 6541   4.421   5.080   1.712  1.0428  0.1655 -0.1361
 1217SOL     OW 6542   4.138   2.851   0.991 -0.5006  0.6350  0.3117
 1217SOL    HW1 6543   4.179   2.765   1.006 -1.6354  0.2623  1.4906
 1217SOL    HW2 6544   4.045   2.831   0.978 -0.4831  1.5357 -1.4717
 1218SOL     OW 6545   3.385   0.202   1.939 -0.3502  0.3598 -0.4260
 1218SOL    HW1 6546   3.407   0.148   1.863  0.4320 -0.4074  0.3064
 1218SOL    HW2 6547   3.291   0.215   1.934 -0.2331  0.8356 -1.8396
 1219SOL     OW 6548   1.462   2.381   2.604 -0.1877  0.2214 -0.3057
 1219SOL    HW1 6549   1.506   2.460   2.638  1.9939  0.5540 -3.4585
 1219SOL    HW2 6550   1.495   2.310   2.659 -0.0953  1.1495  0.8987
 1220SOL     OW 6551   5.550   0.791   5.521  0.4190  0.0391  0.0776
 1220SOL    HW1 6552   5.522   0.834   5.601  0.4117  0.7322 -0.2910
 1220SOL    HW2 6553   5.626   0.842   5.492 -0.3644  0.6028 -1.0515
 1221SOL     OW 6554   1.778   6.520   5.241  0.0381 -0.0118  0.7516
 1221SOL    HW1 6555   1.850   6.583   5.235  0.0561 -0.1275 -0.6420
 1221SOL    HW2 6556   1.699   6.572   5.224 -0.0433 -0.1629  0.6594
 1222SOL     OW 6557   6.143   8.970   2.093 -0.1758 -0.0602 -0.0885
 1222SOL    HW1 6558   6.087   8.892   2.092 -2.6038  1.6018 -1.2441
 1222SOL    HW2 6559   6.118   9.017   2.172  0.2202  0.2934 -0.1706
 1223SOL     OW 6560   8.386   9.190   7.684 -0.4658  0.1591  0.4338
 1223SOL    HW1 6561   8.435   9.114   7.715 -1.4555 -0.6763  0.0267
 1223SOL    HW2 6562   8.426   9.211   7.600  1.1932  1.4464  1.4833
 1224SOL     OW 6563   1.938   6.484   3.495 -0.2715 -0.0906  0.1211
 1224SOL    HW1 6564   2.025   6.451   3.517 -0.1211  0.5824  0.5904
 1224SOL    HW2 6565   1.883   6.456   3.568 -0.2690  0.1799  0.2278
 1225SOL     OW 6566   8.932   0.671   5.284 -0.5096  0.4930 -0.0400
 1225SOL    HW1 6567   9.026   0.685   5.291 -0.0286 -2.1194 -0.6076
 1225SOL    HW2 6568   8.906   0.719   5.205  0.5688  0.1572 -0.6053
 1226SOL     OW 6569   4.812   6.400   5.682 -0.2308  0.2153  0.3510
 1226SOL    HW1 6570   4.820   6.350   5.601  0.3271  1.7378 -0.5812
 1226SOL    HW2 6571   4.727   6.444   5.675 -0.1812  0.3480  0.5797
 1227SOL     OW 6572   0.801   4.646   9.258 -0.8570 -0.1057 -0.4183
 1227SOL    HW1 6573   0.767   4.561   9.285  0.1949 -0.7287 -1.0091
 1227SOL    HW2 6574   0.722   4.699   9.242 -1.5183 -0.9377 -0.0067
 1228SOL     OW 6575   4.987   5.489   3.769 -0.3171  0.1650  0.6615
 1228SOL    HW1 6576   5.022   5.417   3.821 -0.4061 -1.7470 -1.7254
 1228SOL    HW2 6577   5.062   5.547   3.755  0.3249 -0.6118  0.8014
 1229SOL     OW 6578   6.591   7.325   3.930  0.4724 -0.5563  0.3828
 1229SOL    HW1 6579   6.533   7.373   3.871  1.6371 -0.0617 -0.3908
 1229SOL    HW2 6580   6.535   7.299   4.003 -0.2883  1.7345  0.7030
 1230SOL     OW 6581   6.519   6.491   7.622  0.0411 -0.8409 -0.6520
 1230SOL    HW1 6582   6.608   6.526   7.624 -0.6747  1.0831 -0.8048
 1230SOL    HW2 6583   6.517   6.427   7.694  1.5520 -0.9916 -0.7158
 1231SOL     OW 6584   4.703   6.967   4.258  0.4158  0.1966 -0.0032
 1231SOL    HW1 6585   4.607   6.967   4.259  0.3686  1.7233 -1.0173
 1231SOL    HW2 6586   4.727   6.876   4.277 -1.1697  0.1965  2.4479
 1232SOL     OW 6587   3.837   1.036   3.643 -0.0125 -0.5031 -0.3970
 1232SOL    HW1 6588   3.798   1.000   3.722 -0.1881  0.6944  0.0792
 1232SOL    HW2 6589   3.763   1.053   3.585  0.0725 -0.9014 -0.6284
 1233SOL     OW 6590   2.939   8.431   6.748 -0.6020 -0.8412 -0.2041
 1233SOL    HW1 6591   2.949   8.430   6.843 -0.9306 -2.3412 -0.1698
 1233SOL    HW2 6592   2.891   8.351   6.727 -0.8296 -0.3748 -1.6094
 1234SOL     OW 6593   6.277   4.243   0.368 -0.4342  0.0016  0.0677
 1234SOL    HW1 6594   6.305   4.183   0.437 -1.0006 -1.4743 -0.9188
 1234SOL    HW2 6595   6.356   4.258   0.315 -0.3361 -0.0359  0.2037
 1235SOL     OW 6596   0.653   3.688   8.823  0.2061  0.5235 -0.1388
 1235SOL    HW1 6597   0.586   3.620   8.835  0.6029  0.1612  0.0550
 1235SOL    HW2 6598   0.611   3.753   8.768 -0.3882  0.4075  0.1613
 1236SOL     OW 6599   8.755   9.164   0.970  0.2189  0.4066 -0.4134
 1236SOL    HW1 6600   8.683   9.226   0.982  0.7970  1.0424 -0.1617
 1236SOL    HW2 6601   8.742   9.098   1.037 -0.1249  0.5239 -0.3645
 1237SOL     OW 6602   5.111   3.597   4.469 -0.3486  0.3076  0.0050
 1237SOL    HW1 6603   5.183   3.566   4.413 -0.4749  0.4810 -0.2559
 1237SOL    HW2 6604   5.053   3.644   4.409 -0.0649  1.2098  0.4169
 1238SOL     OW 6605   4.372   5.193   4.391  0.5615 -0.3701 -0.6050
 1238SOL    HW1 6606   4.295   5.219   4.441  0.5928 -0.9452 -0.2560
 1238SOL    HW2 6607   4.421   5.275   4.379  1.3281 -0.4231  1.6434
 1239SOL     OW 6608   7.802   7.849   2.790 -0.8443  0.1393  0.0537
 1239SOL    HW1 6609   7.765   7.878   2.707  0.1430 -0.4597 -0.6275
 1239SOL    HW2 6610   7.896   7.838   2.771 -1.0122 -2.6986  0.4260
 1240SOL     OW 6611   0.152   4.612   8.744 -0.1390  0.2632 -0.1587
 1240SOL    HW1 6612   0.201   4.567   8.676  1.6007  0.0149  1.1829
 1240SOL    HW2 6613   0.098   4.676   8.697  1.4951  0.5546 -1.7288
 1241SOL     OW 6614   3.936   2.400   1.735 -0.4399  0.0285 -0.2995
 1241SOL    HW1 6615   3.856   2.367   1.694 -0.7818  1.4949 -0.8912
 1241SOL    HW2 6616   3.982   2.322   1.765 -2.2620 -0.8336  0.3899
 1242SOL     OW 6617   5.802   0.367   8.500 -1.0513  0.1854 -0.0234
 1242SOL    HW1 6618   5.785   0.279   8.467 -0.3795 -0.3317  0.9744
 1242SOL    HW2 6619   5.882   0.394   8.456 -0.2733 -0.4196  0.9890
 1243SOL     OW 6620   3.958   1.810   8.393  0.0909  0.0556 -0.6526
 1243SOL    HW1 6621   3.975   1.886   8.338  1.9909 -0.4976 -0.9048
 1243SOL    HW2 6622   3.865   1.792   8.381 -0.1390  1.6151 -1.4965
 1244SOL     OW 6623   7.657   2.656   8.660 -0.6744 -0.1737 -0.3631
 1244SOL    HW1 6624   7.680   2.658   8.752  0.0761 -0.5124 -0.5373
 1244SOL    HW2 6625   7.565   2.683   8.657 -0.9329 -0.9153  0.5550
 1245SOL     OW 6626   3.808   6.134   3.038  0.0312  0.1399 -0.0339
 1245SOL    HW1 6627   3.872   6.184   3.089 -0.9851  0.7423  0.6739
 1245SOL    HW2 6628   3.779   6.195   2.970 -0.5255  0.2104  0.2638
 1246SOL     OW 6629   2.580   6.880   4.454  0.1830 -0.4709 -0.6185
 1246SOL    HW1 6630   2.659   6.829   4.436  0.2314  0.0087 -1.8724
 1246SOL    HW2 6631   2.508   6.821   4.431 -0.0460 -2.0360  3.3117
 1247SOL     OW 6632   4.188   1.597   6.112  0.0156  0.2510 -0.5599
 1247SOL    HW1 6633   4.163   1.688   6.130  1.6705  0.7405 -0.5735
 1247SOL    HW2 6634   4.281   1.593   6.134  0.0720 -1.3358 -0.9884
 1248SOL     OW 6635   0.064   3.394   4.106 -0.9203 -0.0005  0.5051
 1248SOL    HW1 6636   0.149   3.353   4.120 -0.1855  1.5919  1.0153
 1248SOL    HW2 6637   0.020   3.388   4.190 -1.2357 -0.6444  0.2971
 1249SOL     OW 6638   4.121   5.938   6.982  0.0264 -0.3654  0.4805
 1249SOL    HW1 6639   4.147   5.996   7.054 -1.7357 -0.1286  0.9679
 1249SOL    HW2 6640   4.202   5.922   6.934  0.8767  1.0687  1.3672
 1250SOL     OW 6641   1.246   8.193   3.890 -0.2410 -0.0930 -0.1878
 1250SOL    HW1 6642   1.305   8.122   3.917  2.0600  2.7439  3.0883
 1250SOL    HW2 6643   1.167   8.179   3.942  0.0577 -0.4678  0.1762
 1251SOL     OW 6644   5.250   1.015   3.358 -0.5082  0.0376  0.3062
 1251SOL    HW1 6645   5.208   0.940   3.400 -2.2541  0.4226 -0.6834
 1251SOL    HW2 6646   5.256   1.081   3.427 -2.1779  0.2092  0.3203
 1252SOL     OW 6647   0.844   2.913   4.956  0.7081 -0.0439  0.0259
 1252SOL    HW1 6648   0.897   2.918   4.876 -1.6282 -1.8478 -1.7807
 1252SOL    HW2 6649   0.764   2.961   4.934  0.3140  0.0436  1.5749
 1253SOL     OW 6650   2.346   3.426   1.096 -0.1723 -0.0242  0.2854
 1253SOL    HW1 6651   2.328   3.338   1.065 -0.2919  0.6404 -1.6754
 1253SOL    HW2 6652   2.286   3.482   1.046 -0.8215  1.0982  2.2041
 1254SOL     OW 6653   3.863   3.790   7.371  0.2772  0.8397  0.1297
 1254SOL    HW1 6654   3.820   3.731   7.310 -1.3926  1.2406  0.8651
 1254SOL    HW2 6655   3.902   3.733   7.437  0.8405  0.4734 -0.5121
 1255SOL     OW 6656   6.537   1.746   8.110  0.1186  0.4261 -0.5539
 1255SOL    HW1 6657   6.600   1.750   8.182  1.6261  0.3495 -1.8465
 1255SOL    HW2 6658   6.545   1.658   8.075  1.6810  1.3462 -2.7549
 1256SOL     OW 6659   5.454   0.824   2.864  0.1458  0.0986  0.3988
 1256SOL    HW1 6660   5.450   0.869   2.780 -0.7803  0.7764  0.7915
 1256SOL    HW2 6661   5.467   0.732   2.841  0.1632  0.3056 -0.4692
 1257SOL     OW 6662   0.235   4.184   5.266  0.0202  0.6867  0.0865
 1257SOL    HW1 6663   0.280   4.134   5.334  1.3935  0.0844 -1.2029
 1257SOL    HW2 6664   0.142   4.165   5.280  0.4767 -2.3445 -0.4042
 1258SOL     OW 6665   0.939   4.056   8.849  0.0463  0.0005  0.4823
 1258SOL    HW1 6666   0.942   4.148   8.875 -1.0779  0.5103 -1.0353
 1258SOL    HW2 6667   0.975   4.008   8.924  0.9192  1.6806  1.1865
 1259SOL     OW 6668   1.956   0.299   3.398 -0.0605 -0.8608  0.2933
 1259SOL    HW1 6669   1.869   0.290   3.359  0.0392  0.7369 -0.3867
 1259SOL    HW2 6670   2.012   0.245   3.343 -0.2622 -0.1393 -0.6526
 1260SOL     OW 6671   1.156   2.140   1.367 -0.3136 -0.3145 -0.1924
 1260SOL    HW1 6672   1.169   2.227   1.405  0.7432 -0.2588 -0.6368
 1260SOL    HW2 6673   1.145   2.082   1.442 -0.6123  0.1458  0.1219
 1261SOL     OW 6674   1.172   7.751   2.375 -0.3580  0.1186  0.4390
 1261SOL    HW1 6675   1.266   7.762   2.359 -0.8335  2.1187 -1.4388
 1261SOL    HW2 6676   1.166   7.675   2.433  2.2471 -1.5969 -1.3721
 1262SOL     OW 6677   4.710   3.043   5.089  0.1267 -0.2780 -0.4629
 1262SOL    HW1 6678   4.620   3.016   5.069 -0.4524  1.2443 -0.0802
 1262SOL    HW2 6679   4.704   3.137   5.103  1.6791 -0.2476  0.2134
 1263SOL     OW 6680   1.055   3.077   6.698  0.5026 -0.1071  0.3661
 1263SOL    HW1 6681   1.110   3.135   6.752  1.1195 -0.5170  0.1955
 1263SOL    HW2 6682   1.025   3.010   6.759  2.2715 -1.3262 -0.0132
 1264SOL     OW 6683   1.001   8.298   9.217  0.2632  0.4968 -0.1179
 1264SOL    HW1 6684   1.005   8.217   9.268  0.4452  0.8997  0.5099
 1264SOL    HW2 6685   0.958   8.272   9.135  3.2398 -0.9644 -1.3535
 1265SOL     OW 6686   6.949   5.632   1.264 -0.2891  0.4822  0.9669
 1265SOL    HW1 6687   6.896   5.575   1.208  0.8467  0.6334 -0.3112
 1265SOL    HW2 6688   7.003   5.572   1.315 -1.5418  0.3331  2.1547
 1266SOL     OW 6689   5.065   2.127   5.420  0.1364 -0.1762 -0.7281
 1266SOL    HW1 6690   5.018   2.059   5.372 -0.8826  1.5094 -2.2362
 1266SOL    HW2 6691   5.021   2.131   5.505 -0.6923 -0.4718 -1.1321
 1267SOL     OW 6692   7.690   1.445   8.101 -0.6570 -0.3464 -0.7693
 1267SOL    HW1 6693   7.692   1.519   8.162  0.0485 -2.1745  1.6086
 1267SOL    HW2 6694   7.782   1.419   8.092 -0.8730 -0.8351 -1.7225
 1268SOL     OW 6695   4.299   8.043   3.222  0.8724  0.0990 -0.3697
 1268SOL    HW1 6696   4.240   8.101   3.270 -0.0196  0.1976 -1.5650
 1268SOL    HW2 6697   4.242   7.978   3.181  1.7194 -0.6710 -0.3853
 1269SOL     OW 6698   4.295   4.886   2.210 -0.6269 -0.2887  0.4217
 1269SOL    HW1 6699   4.318   4.894   2.118 -2.4595 -3.7798 -0.5091
 1269SOL    HW2 6700   4.379   4.879   2.255  0.2821  0.6649 -1.0522
 1270SOL     OW 6701   0.332   5.805   1.549 -0.1237  0.6671  0.2280
 1270SOL    HW1 6702   0.347   5.837   1.638 -1.2396  1.5906  0.1020
 1270SOL    HW2 6703   0.346   5.710   1.555 -0.6047  0.6581  1.4809
 1271SOL     OW 6704   5.741   3.408   8.302  0.4770  0.2701  0.3808
 1271SOL    HW1 6705   5.777   3.341   8.360 -0.3435 -0.2791  0.2827
 1271SOL    HW2 6706   5.666   3.365   8.260 -0.4194  1.4321  0.7489
 1272SOL     OW 6707   2.383   7.219   3.518  0.1432 -0.1606 -0.7382
 1272SOL    HW1 6708   2.338   7.285   3.465  0.7453  0.5964 -0.3239
 1272SOL    HW2 6709   2.448   7.269   3.568 -0.3118 -0.8605  0.6061
 1273SOL     OW 6710   0.440   7.719   4.892 -0.2653 -0.4799 -0.0151
 1273SOL    HW1 6711   0.386   7.662   4.837 -1.1575  0.3883 -0.0734
 1273SOL    HW2 6712   0.432   7.805   4.851  0.3487 -0.1380  0.5701
 1274SOL     OW 6713   1.589   1.945   5.131 -0.3382 -0.2060  0.3017
 1274SOL    HW1 6714   1.498   1.955   5.103  0.3553  0.1204 -2.0690
 1274SOL    HW2 6715   1.594   1.855   5.163 -0.9728 -1.0972 -1.9107
 1275SOL     OW 6716   1.464   2.694   3.152  0.2789 -0.2128 -0.2531
 1275SOL    HW1 6717   1.519   2.643   3.210  1.1220  0.5701 -0.3397
 1275SOL    HW2 6718   1.481   2.785   3.176 -0.2391  0.0838 -0.9455
 1276SOL     OW 6719   4.134   3.152   2.270 -0.0657  0.3304 -0.0240
 1276SOL    HW1 6720   4.133   3.248   2.280  0.0067  0.7109 -2.8158
 1276SOL    HW2 6721   4.084   3.136   2.190  1.1716 -1.8453 -0.4379
 1277SOL     OW 6722   5.322   4.582   0.223  0.3617  0.5280  0.3115
 1277SOL    HW1 6723   5.380   4.585   0.299  1.2640  0.2257 -0.3464
 1277SOL    HW2 6724   5.295   4.672   0.210 -0.0197  0.5468  1.1439
 1278SOL     OW 6725   6.294   8.760   2.513  0.0628 -0.5223  0.7297
 1278SOL    HW1 6726   6.199   8.775   2.506  0.2352  0.7910  0.9415
 1278SOL    HW2 6727   6.323   8.824   2.578  0.9665 -1.5176  1.3406
 1279SOL     OW 6728   3.020   6.444   0.227  0.3826  0.1791 -0.9206
 1279SOL    HW1 6729   3.027   6.393   0.146  1.0969 -0.7630 -0.2892
 1279SOL    HW2 6730   2.926   6.455   0.240  0.2308 -0.4779 -1.3926
 1280SOL     OW 6731   3.958   2.739   8.691 -0.1217 -0.2898 -0.1811
 1280SOL    HW1 6732   3.936   2.676   8.759  0.8148  0.8583  1.2595
 1280SOL    HW2 6733   3.948   2.691   8.609 -1.5060 -1.6582  0.7417
 1281SOL     OW 6734   7.670   0.637   4.723 -0.0861 -0.5902  0.4543
 1281SOL    HW1 6735   7.730   0.564   4.705 -0.2934 -0.9424  1.1524
 1281SOL    HW2 6736   7.611   0.603   4.790 -2.1321 -0.8428 -1.3339
 1282SOL     OW 6737   5.700   0.665   2.583 -0.1499 -0.1364  0.0697
 1282SOL    HW1 6738   5.638   0.642   2.514  1.5925  0.3497 -1.7427
 1282SOL    HW2 6739   5.682   0.758   2.601 -0.5035 -0.2227  0.1611
 1283SOL     OW 6740   0.677   8.534   5.469  0.1874  0.2358  1.3428
 1283SOL    HW1 6741   0.653   8.621   5.500 -1.4594  0.2063  0.2466
 1283SOL    HW2 6742   0.725   8.495   5.542  0.8212  1.9896  1.9013
 1284SOL     OW 6743   6.808   2.617   4.813 -0.2326 -0.0860 -0.7133
 1284SOL    HW1 6744   6.762   2.562   4.877  0.6836  0.1671  0.1940
 1284SOL    HW2 6745   6.898   2.622   4.847 -0.2853  1.9408 -0.7769
 1285SOL     OW 6746   3.275   2.765   7.346  0.2753 -0.1251  0.2005
 1285SOL    HW1 6747   3.186   2.731   7.350 -1.0951  3.2022  1.4420
 1285SOL    HW2 6748   3.323   2.700   7.295 -2.6818 -2.3489 -0.0062
 1286SOL     OW 6749   0.153   7.218   0.437 -0.0022  1.0264 -0.4854
 1286SOL    HW1 6750   0.134   7.266   0.518  0.2718  1.7023 -0.8198
 1286SOL    HW2 6751   0.148   7.126   0.463 -0.4448  1.2301  0.1815
 1287SOL     OW 6752   2.060   5.416   0.737  0.4733 -0.2311  0.0596
 1287SOL    HW1 6753   2.087   5.451   0.822  0.8521 -0.4095  0.0129
 1287SOL    HW2 6754   2.136   5.367   0.706 -0.3379 -1.8394  0.5183
 1288SOL     OW 6755   1.391   4.674   2.508 -0.4383 -0.3370 -0.2023
 1288SOL    HW1 6756   1.485   4.660   2.498 -0.1265  0.8573  0.7585
 1288SOL    HW2 6757   1.376   4.671   2.603 -1.3718 -0.4916 -0.3388
 1289SOL     OW 6758   2.469   4.622   0.890 -0.2970  0.0376 -0.1601
 1289SOL    HW1 6759   2.456   4.528   0.902  2.0016 -0.4433 -0.8838
 1289SOL    HW2 6760   2.401   4.648   0.828 -0.2424 -1.4245 -0.8700
 1290SOL     OW 6761   6.378   6.736   0.052  0.1685  0.1865  0.3512
 1290SOL    HW1 6762   6.349   6.818   0.012  0.9502  0.9787  1.3654
 1290SOL    HW2 6763   6.297   6.689   0.070 -0.4742  1.7288  1.7987
 1291SOL     OW 6764   1.526   8.824   8.233 -0.1557 -0.2556  0.1156
 1291SOL    HW1 6765   1.522   8.809   8.327  0.8326 -3.0392 -0.1748
 1291SOL    HW2 6766   1.607   8.873   8.220 -0.2023 -0.0151  0.7103
 1292SOL     OW 6767   6.156   2.208   2.630 -0.0992  0.2431 -0.2240
 1292SOL    HW1 6768   6.208   2.144   2.677  0.5293  1.3369  0.6221
 1292SOL    HW2 6769   6.111   2.258   2.698 -1.2473  0.1635 -0.8998
 1293SOL     OW 6770   6.718   5.713   5.506 -0.3000  0.6102 -0.4225
 1293SOL    HW1 6771   6.782   5.778   5.476  0.1250  0.5536  0.3297
 1293SOL    HW2 6772   6.639   5.764   5.522  0.7540  1.5207  2.7431
 1294SOL     OW 6773   8.006   3.036   6.547 -0.0770  0.1065 -0.5579
 1294SOL    HW1 6774   7.992   3.119   6.594  2.2471  0.0940  0.2672
 1294SOL    HW2 6775   8.093   3.045   6.508 -0.1035 -1.6804 -1.0952
 1295SOL     OW 6776   6.042   1.353   4.853  0.0442 -0.0820 -0.2480
 1295SOL    HW1 6777   6.013   1.280   4.908 -0.4158 -0.0336 -0.4242
 1295SOL    HW2 6778   6.064   1.422   4.916 -0.6031  0.0171 -0.1275
 1296SOL     OW 6779   7.474   4.198   4.065  0.1242 -0.0093  0.3506
 1296SOL    HW1 6780   7.512   4.110   4.070 -1.5395 -0.8270 -0.5345
 1296SOL    HW2 6781   7.387   4.188   4.102 -0.4805  1.0251 -0.7285
 1297SOL     OW 6782   4.922   7.879   1.837  0.4006  0.2806  0.1561
 1297SOL    HW1 6783   4.935   7.818   1.763  1.4269  1.4367 -0.6570
 1297SOL    HW2 6784   4.995   7.940   1.830  0.5066  0.4208  2.1606
 1298SOL     OW 6785   8.674   0.882   5.030 -0.0064 -0.2432 -0.3071
 1298SOL    HW1 6786   8.602   0.936   5.063 -1.3962 -1.1854 -1.6890
 1298SOL    HW2 6787   8.657   0.794   5.064  1.0661 -0.2836  0.1774
 1299SOL     OW 6788   3.745   3.213   2.860 -0.0153  0.6776 -0.1614
 1299SOL    HW1 6789   3.677   3.165   2.907  0.5587  0.5453  0.5499
 1299SOL    HW2 6790   3.698   3.262   2.793 -0.9070  1.1893  0.8086
 1300SOL     OW 6791   3.376   6.731   0.187  0.2122  0.1770  0.4532
 1300SOL    HW1 6792   3.414   6.695   0.107  4.1813  0.2629  2.0618
 1300SOL    HW2 6793   3.410   6.821   0.190  0.3191  0.1005  2.2986
 1301SOL     OW 6794   6.070   7.067   5.537  0.4624  0.3811  0.1949
 1301SOL    HW1 6795   6.094   6.976   5.553 -0.6390  0.2863  1.5233
 1301SOL    HW2 6796   5.977   7.072   5.559  0.4391  1.7813 -0.0739
 1302SOL     OW 6797   3.332   1.346   4.825  0.6521 -0.1679  0.2188
 1302SOL    HW1 6798   3.401   1.364   4.889  0.5725 -0.9878  0.5516
 1302SOL    HW2 6799   3.364   1.271   4.775  0.1361 -0.3646  0.1776
 1303SOL     OW 6800   3.431   5.765   4.091 -0.3941  0.1079 -0.0356
 1303SOL    HW1 6801   3.443   5.671   4.077  1.0603  0.3007 -0.2683
 1303SOL    HW2 6802   3.347   5.786   4.051 -0.0241 -0.8224 -1.3402
 1304SOL     OW 6803   4.277   1.487   8.649  0.2647  0.6457 -0.0134
 1304SOL    HW1 6804   4.191   1.449   8.668 -0.9434  3.1435 -0.0101
 1304SOL    HW2 6805   4.273   1.575   8.687  3.3668  0.3866  1.1796
 1305SOL     OW 6806   2.265   4.698   0.745 -0.6235  0.5982  0.2756
 1305SOL    HW1 6807   2.243   4.781   0.788 -0.1601  0.6153  0.4834
 1305SOL    HW2 6808   2.181   4.655   0.732 -0.6937  0.0004  2.3761
 1306SOL     OW 6809   7.688   7.271   8.879  0.0314  0.2179 -0.5819
 1306SOL    HW1 6810   7.657   7.195   8.829  1.9035 -0.8584 -0.1720
 1306SOL    HW2 6811   7.760   7.238   8.931  0.1414  2.0440  0.5055
 1307SOL     OW 6812   6.739   2.660   8.743 -0.1508  0.3104 -0.2632
 1307SOL    HW1 6813   6.694   2.576   8.738 -1.0910  0.8683 -1.7767
 1307SOL    HW2 6814   6.703   2.702   8.821 -1.2838  0.1713 -0.6889
 1308SOL     OW 6815   5.141   0.373   7.961  0.2327 -0.0707 -0.1084
 1308SOL    HW1 6816   5.065   0.333   8.002  0.4946 -1.1610 -0.6384
 1308SOL    HW2 6817   5.136   0.465   7.986 -2.5968  0.4504 -2.0721
 1309SOL     OW 6818   8.318   1.029   1.292 -0.6245  0.6000  0.3361
 1309SOL    HW1 6819   8.301   1.077   1.211 -1.0739 -0.7572 -0.3950
 1309SOL    HW2 6820   8.348   0.943   1.263  2.4127  1.0898  1.5833
 1310SOL     OW 6821   4.275   3.778   0.106  0.2073  0.1430  0.1563
 1310SOL    HW1 6822   4.265   3.782   0.011 -0.4409  1.2646  0.2567
 1310SOL    HW2 6823   4.213   3.710   0.133  0.7395 -0.5211 -0.2548
 1311SOL     OW 6824   3.725   8.970   2.641 -0.0997 -0.0874 -0.0833
 1311SOL    HW1 6825   3.663   8.960   2.569 -0.1710 -1.1529  0.1170
 1311SOL    HW2 6826   3.682   8.930   2.716 -0.5882  2.1532  0.9221
 1312SOL     OW 6827   3.376   0.132   5.989  0.3134  0.1553  0.5852
 1312SOL    HW1 6828   3.346   0.170   6.071  1.2662  0.4008  0.8262
 1312SOL    HW2 6829   3.388   0.206   5.930  1.0964  0.1327  0.7063
 1313SOL     OW 6830   6.316   1.108   3.667  0.4467  0.1509 -0.6570
 1313SOL    HW1 6831   6.292   1.179   3.727  0.4137  0.4296 -0.9937
 1313SOL    HW2 6832   6.295   1.028   3.714  1.4740  0.3354  0.1598
 1314SOL     OW 6833   6.876   0.744   0.686 -0.1145 -0.3135 -0.5704
 1314SOL    HW1 6834   6.961   0.788   0.680 -0.5055  0.2619 -2.4889
 1314SOL    HW2 6835   6.814   0.815   0.701 -0.3406 -0.6803  0.3019
 1315SOL     OW 6836   8.286   4.669   1.192 -0.5589 -0.0994  0.2057
 1315SOL    HW1 6837   8.226   4.677   1.266 -0.6235  0.1879  0.1259
 1315SOL    HW2 6838   8.245   4.721   1.123  0.6156  1.5115  0.6716
 1316SOL     OW 6839   9.251   2.788   8.924  0.6596  0.0025  0.4893
 1316SOL    HW1 6840   9.185   2.782   8.854 -0.5497 -0.6816  1.6312
 1316SOL    HW2 6841   9.317   2.724   8.900 -0.0310 -0.6410  0.2529
 1317SOL     OW 6842   7.100   6.441   1.319 -0.3388  0.6960 -0.1930
 1317SOL    HW1 6843   7.054   6.411   1.241 -0.9703 -1.1084  0.8041
 1317SOL    HW2 6844   7.156   6.367   1.344 -0.8333  0.8537  1.5428
 1318SOL     OW 6845   8.678   1.509   1.264 -0.9863  0.9557  0.0348
 1318SOL    HW1 6846   8.584   1.503   1.279 -1.1301 -1.2266 -1.3576
 1318SOL    HW2 6847   8.704   1.420   1.239  1.1117  1.9132 -1.4563
 1319SOL     OW 6848   3.794   6.658   3.806 -0.2130 -0.5306  0.1395
 1319SOL    HW1 6849   3.862   6.723   3.789 -1.2487  0.7689  0.8165
 1319SOL    HW2 6850   3.722   6.707   3.843 -0.2585 -2.3596  2.7926
 1320SOL     OW 6851   4.418   3.151   7.435 -0.3055 -0.1523  0.2945
 1320SOL    HW1 6852   4.324   3.140   7.440 -0.0904 -1.7922  1.5003
 1320SOL    HW2 6853   4.453   3.062   7.430  1.2134  0.3741  0.8162
 1321SOL     OW 6854   2.271   0.678   3.752  0.1619 -0.9245  0.2241
 1321SOL    HW1 6855   2.211   0.734   3.801  1.9400 -0.9573  2.5886
 1321SOL    HW2 6856   2.224   0.595   3.743 -0.4366 -0.7296  1.4146
 1322SOL     OW 6857   5.268   2.151   5.696 -0.6706 -0.0274 -0.0215
 1322SOL    HW1 6858   5.205   2.215   5.663 -1.4778 -1.1981 -0.8082
 1322SOL    HW2 6859   5.352   2.198   5.697 -1.8944  2.6502  4.0311
 1323SOL     OW 6860   1.595   1.650   2.372 -0.2582  0.6954 -0.6350
 1323SOL    HW1 6861   1.563   1.635   2.461  1.3585 -0.3564 -0.1926
 1323SOL    HW2 6862   1.557   1.578   2.320 -0.4589  0.7771 -0.6011
 1324SOL     OW 6863   4.456   7.886   0.823  0.1220  0.7488 -0.5734
 1324SOL    HW1 6864   4.449   7.795   0.796 -0.1622  1.1456 -1.8715
 1324SOL    HW2 6865   4.393   7.895   0.895  0.4449 -0.1635 -0.1647
 1325SOL     OW 6866   6.798   7.178   6.854 -0.0865 -0.2136  0.1073
 1325SOL    HW1 6867   6.737   7.105   6.863 -1.6655  1.1819  1.4312
 1325SOL    HW2 6868   6.846   7.180   6.937  1.6932 -1.1554 -0.8300
 1326SOL     OW 6869   0.377   2.866   0.417 -0.0675  0.0902 -0.6149
 1326SOL    HW1 6870   0.354   2.946   0.371 -0.4346 -0.9488 -2.3134
 1326SOL    HW2 6871   0.472   2.871   0.430  0.1541  0.0894 -2.1339
 1327SOL     OW 6872   0.869   2.962   9.065  0.4626  0.5693 -0.6462
 1327SOL    HW1 6873   0.840   3.047   9.031  0.4397  1.3396  1.2203
 1327SOL    HW2 6874   0.957   2.978   9.099  0.1018  0.0718  0.5441
 1328SOL     OW 6875   3.938   0.751   1.720 -0.5604  0.5300  0.2243
 1328SOL    HW1 6876   3.998   0.685   1.687  0.6494 -0.2290  3.5405
 1328SOL    HW2 6877   3.877   0.702   1.776 -1.5098  1.8657  0.4116
 1329SOL     OW 6878   8.595   7.146   3.632 -0.5156 -0.0309  0.1881
 1329SOL    HW1 6879   8.633   7.094   3.561 -0.6330 -0.2563  0.2909
 1329SOL    HW2 6880   8.603   7.236   3.602  1.1981  0.0322  0.7036
 1330SOL     OW 6881   7.223   8.152   5.572  0.0431  0.2018  0.0218
 1330SOL    HW1 6882   7.273   8.071   5.569  0.4853  0.4878 -1.5118
 1330SOL    HW2 6883   7.131   8.125   5.566  0.0649 -0.2638  1.5697
 1331SOL     OW 6884   6.692   7.861   2.293 -0.2413 -0.0503  0.9219
 1331SOL    HW1 6885   6.726   7.946   2.266 -1.3939 -0.2258 -1.2804
 1331SOL    HW2 6886   6.748   7.797   2.250 -1.7139 -0.3359 -0.7060
 1332SOL     OW 6887   2.254   9.200   5.392 -0.7944 -0.0747 -0.7009
 1332SOL    HW1 6888   2.250   9.163   5.304 -0.0410  1.5624 -1.4647
 1332SOL    HW2 6889   2.310   9.277   5.383 -0.0343 -0.3188  1.3826
 1333SOL     OW 6890   1.587   3.392   5.389  0.2346  0.1651 -0.4491
 1333SOL    HW1 6891   1.673   3.432   5.377  0.0423  0.3526 -1.2429
 1333SOL    HW2 6892   1.554   3.378   5.300  0.0203 -1.1601 -0.1842
 1334SOL     OW 6893   6.496   5.287   7.971 -0.0715 -0.3800  0.5833
 1334SOL    HW1 6894   6.507   5.321   8.060 -0.6968 -0.9517  0.8849
 1334SOL    HW2 6895   6.413   5.240   7.973  0.9574 -2.3414  0.3192
 1335SOL     OW 6896   0.214   7.989   8.580 -0.4934 -0.1301  0.0108
 1335SOL    HW1 6897   0.249   7.920   8.637 -0.4174  0.0080  0.1333
 1335SOL    HW2 6898   0.168   8.048   8.640  0.8174  0.8080  0.1593
 1336SOL     OW 6899   7.298   9.119   4.576 -0.1057  0.1787  0.0993
 1336SOL    HW1 6900   7.307   9.210   4.603  2.0584  0.7999 -2.2919
 1336SOL    HW2 6901   7.348   9.070   4.642  1.0145  1.0626 -0.0603
 1337SOL     OW 6902   6.758   7.197   0.157 -0.1149  0.0734 -0.6148
 1337SOL    HW1 6903   6.837   7.232   0.116 -0.4070  1.1907 -0.2571
 1337SOL    HW2 6904   6.776   7.198   0.251 -0.7635  0.9233 -0.4835
 1338SOL     OW 6905   8.177   2.655   7.958  0.8024 -0.1718  0.4673
 1338SOL    HW1 6906   8.135   2.716   8.018 -0.6649 -0.5522 -0.1112
 1338SOL    HW2 6907   8.231   2.709   7.901 -0.1471  0.5447  0.2327
 1339SOL     OW 6908   3.631   4.063   3.404  0.1551 -0.3616  0.3491
 1339SOL    HW1 6909   3.565   4.122   3.441 -0.3019 -0.8520  0.3349
 1339SOL    HW2 6910   3.586   3.979   3.398  0.5462 -0.5265 -0.3718
 1340SOL     OW 6911   3.623   7.825   5.739 -0.0982 -0.3457  0.2471
 1340SOL    HW1 6912   3.624   7.919   5.722  1.2409 -0.3935 -0.0115
 1340SOL    HW2 6913   3.557   7.790   5.679 -0.9714  0.4719  0.6963
 1341SOL     OW 6914   6.594   1.848   5.460  0.0616  0.0888  0.9120
 1341SOL    HW1 6915   6.511   1.803   5.450  0.4906 -0.4685 -0.4406
 1341SOL    HW2 6916   6.573   1.941   5.447 -0.4007 -0.0255  0.8600
 1342SOL     OW 6917   0.235   6.371   2.658  0.0868 -0.3751  0.0676
 1342SOL    HW1 6918   0.327   6.345   2.664 -0.2739 -1.8269 -0.2836
 1342SOL    HW2 6919   0.193   6.328   2.733 -0.5912 -1.1126 -0.7131
 1343SOL     OW 6920   2.223   6.849   8.850 -0.3212 -0.1236 -0.2588
 1343SOL    HW1 6921   2.233   6.928   8.798  0.2999 -1.6746 -2.6930
 1343SOL    HW2 6922   2.131   6.823   8.837 -0.2650 -0.3104 -0.2965
 1344SOL     OW 6923   9.239   5.139   4.170 -0.3284  0.3777  0.0532
 1344SOL    HW1 6924   9.243   5.232   4.147  1.0342  0.9292  2.2947
 1344SOL    HW2 6925   9.157   5.131   4.220 -0.7534  0.2257 -0.6556
 1345SOL     OW 6926   2.440   6.135   8.172  0.1894  0.0575  0.0744
 1345SOL    HW1 6927   2.365   6.189   8.197 -0.4201  0.1048 -1.7048
 1345SOL    HW2 6928   2.429   6.121   8.078  0.5193 -2.8700  0.3733
 1346SOL     OW 6929   2.662   5.417   4.597 -0.2089  0.1190 -0.0816
 1346SOL    HW1 6930   2.603   5.416   4.673 -0.2907  0.2894 -0.1427
 1346SOL    HW2 6931   2.703   5.330   4.597 -0.9030 -0.2137 -0.3860
 1347SOL     OW 6932   1.558   4.658   4.098  0.0758 -0.2237  0.8735
 1347SOL    HW1 6933   1.623   4.602   4.141  1.0405 -0.3692 -0.7315
 1347SOL    HW2 6934   1.474   4.621   4.126  0.6907 -1.5118  1.0979
 1348SOL     OW 6935   0.851   4.846   4.398  0.2707  0.1109 -0.4389
 1348SOL    HW1 6936   0.869   4.833   4.305 -1.0271 -0.2999 -0.6517
 1348SOL    HW2 6937   0.782   4.911   4.401 -2.1434 -2.2917  0.0078
 1349SOL     OW 6938   1.282   5.637   9.189 -0.4596 -0.3471  0.4300
 1349SOL    HW1 6939   1.237   5.709   9.233  0.7231  0.3102  0.5887
 1349SOL    HW2 6940   1.211   5.578   9.162 -1.3161 -0.0462  1.9020
 1350SOL     OW 6941   6.398   7.454   1.476  0.0195  0.1776 -0.2056
 1350SOL    HW1 6942   6.423   7.473   1.566 -1.1678  3.3428 -0.4084
 1350SOL    HW2 6943   6.449   7.516   1.424 -1.0186 -0.0161 -1.4995
 1351SOL     OW 6944   6.300   8.503   8.998 -0.0059  0.1800 -0.3199
 1351SOL    HW1 6945   6.391   8.473   9.006  0.4772  1.7517  0.4438
 1351SOL    HW2 6946   6.289   8.521   8.904 -0.2922 -2.1862 -0.7969
 1352SOL     OW 6947   4.058   7.578   8.100 -0.3166  0.0698  0.2387
 1352SOL    HW1 6948   4.102   7.510   8.152  0.6407  1.8369  1.8942
 1352SOL    HW2 6949   4.112   7.587   8.022 -1.0174 -1.7067 -0.5076
 1353SOL     OW 6950   0.970   1.944   9.181 -0.0145 -0.1425  0.3993
 1353SOL    HW1 6951   1.033   2.011   9.207 -1.5034  1.0006  1.2213
 1353SOL    HW2 6952   0.905   1.992   9.129  0.0468 -1.3844 -0.8587
 1354SOL     OW 6953   5.854   3.224   1.094  0.2896  0.1306 -0.2958
 1354SOL    HW1 6954   5.902   3.301   1.121 -0.3443  0.0720  1.0578
 1354SOL    HW2 6955   5.773   3.258   1.056  0.2116  0.1426 -0.1174
 1355SOL     OW 6956   7.050   4.674   5.187  0.2918  0.3752  0.0216
 1355SOL    HW1 6957   7.095   4.605   5.139  0.7457 -0.3243  1.3960
 1355SOL    HW2 6958   7.061   4.650   5.279  0.1393  2.0857  0.5158
 1356SOL     OW 6959   0.057   3.852   7.896  0.0054  0.6552 -0.0714
 1356SOL    HW1 6960   0.107   3.811   7.967  0.5759  0.2982 -0.6721
 1356SOL    HW2 6961   0.054   3.786   7.827  1.1031  1.6710 -1.1445
 1357SOL     OW 6962   7.071   6.887   0.230 -0.3187 -0.2673  0.1671
 1357SOL    HW1 6963   7.005   6.864   0.164  0.5518 -0.3123 -0.7055
 1357SOL    HW2 6964   7.091   6.804   0.273  0.1344 -0.4946 -0.4746
 1358SOL     OW 6965   6.290   7.227   0.683  0.3297  0.2284  0.4055
 1358SOL    HW1 6966   6.300   7.150   0.739 -0.3068  1.0668  1.7239
 1358SOL    HW2 6967   6.238   7.196   0.608  0.5730 -0.7397  0.6261
 1359SOL     OW 6968   3.464   6.188   4.216 -0.4413 -0.4081  0.2197
 1359SOL    HW1 6969   3.499   6.101   4.237 -1.9153 -1.5075 -1.5696
 1359SOL    HW2 6970   3.369   6.175   4.211 -0.7482  1.4534  0.4685
 1360SOL     OW 6971   9.171   5.837   1.649  0.0320  0.2438  1.0535
 1360SOL    HW1 6972   9.170   5.905   1.716 -1.9252  1.7332 -0.3639
 1360SOL    HW2 6973   9.130   5.761   1.691  0.2649  0.6308  2.0094
 1361SOL     OW 6974   7.137   1.032   5.312 -0.4399  0.1738  0.0835
 1361SOL    HW1 6975   7.177   1.052   5.396 -1.8533 -1.2126  1.1730
 1361SOL    HW2 6976   7.164   1.103   5.254  0.6544  1.1207  1.6746
 1362SOL     OW 6977   2.541   7.356   6.438  0.4655  0.0628  0.2438
 1362SOL    HW1 6978   2.627   7.362   6.481 -0.3892  1.1051  1.9092
 1362SOL    HW2 6979   2.479   7.353   6.510 -0.8854 -1.4104 -0.9347
 1363SOL     OW 6980   0.695   1.790   3.406 -0.2514 -0.4495  0.6933
 1363SOL    HW1 6981   0.624   1.771   3.467  0.4799  1.6732  2.3155
 1363SOL    HW2 6982   0.682   1.882   3.382  1.9881  0.0673  1.1867
 1364SOL     OW 6983   1.478   7.071   6.440  0.4221  0.1417 -0.1769
 1364SOL    HW1 6984   1.477   7.154   6.392  1.2637 -0.5282 -1.4281
 1364SOL    HW2 6985   1.451   7.006   6.374  0.4408 -0.6634  0.5971
 1365SOL     OW 6986   3.330   7.194   2.970  0.5560  0.3831  0.1481
 1365SOL    HW1 6987   3.308   7.207   3.062 -0.2275  1.0420 -0.1232
 1365SOL    HW2 6988   3.373   7.275   2.943  0.3813  0.3703 -0.1799
 1366SOL     OW 6989   6.725   7.979   3.209  0.3700 -0.0320  0.1161
 1366SOL    HW1 6990   6.778   8.052   3.241  3.4914 -2.9129  2.2894
 1366SOL    HW2 6991   6.665   7.959   3.281  0.2276 -0.2075 -0.0500
 1367SOL     OW 6992   4.177   2.153   7.630 -0.0466 -0.5545  0.2347
 1367SOL    HW1 6993   4.084   2.129   7.634 -0.5767  1.3303  0.2992
 1367SOL    HW2 6994   4.209   2.112   7.549 -0.9589 -1.1164  0.1444
 1368SOL     OW 6995   4.213   7.475   0.145  0.3284 -0.0702 -0.4317
 1368SOL    HW1 6996   4.181   7.394   0.105  1.0958  0.4243 -2.1216
 1368SOL    HW2 6997   4.224   7.536   0.072  0.3693  1.3787  0.7197
 1369SOL     OW 6998   6.794   3.345   6.034 -0.3848 -0.0612 -0.0961
 1369SOL    HW1 6999   6.756   3.337   6.122  0.4522  0.2411  0.3051
 1369SOL    HW2 7000   6.888   3.349   6.049 -0.1575 -1.1047 -1.0947
 1370SOL     OW 7001   2.102   5.701   2.367  0.5561 -0.5159 -0.1357
 1370SOL    HW1 7002   2.020   5.698   2.319  1.1353 -2.4594 -1.0820
 1370SOL    HW2 7003   2.169   5.711   2.299  1.2560 -1.3713  0.4020
 1371SOL     OW 7004   6.489   4.335   0.959 -0.0938 -0.3874 -0.5313
 1371SOL    HW1 7005   6.454   4.417   0.994 -1.6080 -1.3124  0.2141
 1371SOL    HW2 7006   6.415   4.295   0.914  0.9407 -0.8243 -1.9152
 1372SOL     OW 7007   2.052   2.314   0.116 -0.1411 -0.5981 -0.1014
 1372SOL    HW1 7008   2.079   2.401   0.086 -0.6389 -0.5309 -0.3543
 1372SOL    HW2 7009   1.973   2.294   0.065  0.9764 -1.9684 -1.3905
 1373SOL     OW 7010   8.406   5.785   5.458 -0.2036  0.4974 -0.3991
 1373SOL    HW1 7011   8.484   5.831   5.490 -1.2828  0.7660  2.0167
 1373SOL    HW2 7012   8.375   5.840   5.386  0.6200  1.5651  0.0249
 1374SOL     OW 7013   3.671   5.504   7.667  0.2238  0.0853  0.3937
 1374SOL    HW1 7014   3.755   5.466   7.692  1.0220  1.5423 -0.0210
 1374SOL    HW2 7015   3.687   5.546   7.582 -1.2408 -0.6603 -0.2919
 1375SOL     OW 7016   5.599   0.292   8.954  0.2288  0.1126  0.7853
 1375SOL    HW1 7017   5.647   0.375   8.957  1.5373 -0.6101  0.7444
 1375SOL    HW2 7018   5.601   0.266   8.862 -0.7160  0.3200  0.6957
 1376SOL     OW 7019   9.005   9.178   7.643  0.1318 -0.2510  0.1202
 1376SOL    HW1 7020   9.053   9.136   7.715 -0.2729 -0.4530  0.2803
 1376SOL    HW2 7021   9.066   9.242   7.607 -0.0114  0.6039  1.3271
 1377SOL     OW 7022   5.069   2.141   6.789  0.5893 -0.1308 -0.4843
 1377SOL    HW1 7023   5.027   2.077   6.847  2.1585 -1.8369 -1.1143
 1377SOL    HW2 7024   5.020   2.134   6.707 -1.2322  1.8330  0.3394
 1378SOL     OW 7025   4.200   1.000   8.304  0.8689  0.1134  0.3996
 1378SOL    HW1 7026   4.261   1.074   8.296  0.4411  0.2972 -2.5006
 1378SOL    HW2 7027   4.250   0.925   8.272  0.9052 -0.6372  2.1484
 1379SOL     OW 7028   8.542   4.534   0.742 -0.3670  0.6163 -0.6404
 1379SOL    HW1 7029   8.625   4.583   0.737 -2.1841  4.0303 -0.6701
 1379SOL    HW2 7030   8.498   4.554   0.659 -1.3888 -0.8319 -0.4710
 1380SOL     OW 7031   5.319   3.317   4.290  0.2251 -0.0587 -0.1371
 1380SOL    HW1 7032   5.321   3.323   4.194  0.5543  3.0447 -0.0273
 1380SOL    HW2 7033   5.316   3.408   4.320  2.3118 -0.8051  2.8496
 1381SOL     OW 7034   7.101   1.754   1.491 -0.8129  0.0048 -0.8177
 1381SOL    HW1 7035   7.007   1.737   1.501 -1.2409  2.0055 -0.9796
 1381SOL    HW2 7036   7.117   1.743   1.397 -0.6158 -1.4103 -0.6418
 1382SOL     OW 7037   7.382   1.805   1.496  0.7548 -0.0724  0.8286
 1382SOL    HW1 7038   7.404   1.866   1.566  0.3806  0.6799  0.3079
 1382SOL    HW2 7039   7.290   1.784   1.510  0.3859  0.8912 -0.0135
 1383SOL     OW 7040   6.713   0.614   2.449  0.2420 -0.0396  0.5957
 1383SOL    HW1 7041   6.750   0.690   2.493 -0.2541  1.0295 -0.7640
 1383SOL    HW2 7042   6.744   0.621   2.358 -1.2552 -0.4583  0.0247
 1384SOL     OW 7043   6.620   4.545   7.595  0.6304 -0.2760  0.4244
 1384SOL    HW1 7044   6.537   4.555   7.548  0.3261 -1.4180  0.6757
 1384SOL    HW2 7045   6.603   4.583   7.681  0.0364 -1.3332  0.8024
 1385SOL     OW 7046   6.228   0.795   3.393 -0.3363  0.5082 -0.1097
 1385SOL    HW1 7047   6.274   0.852   3.332  1.8078 -0.4447  0.5375
 1385SOL    HW2 7048   6.180   0.856   3.450  0.9841  1.6381 -0.1411
 1386SOL     OW 7049   3.893   5.372   5.197  0.1215  0.3405 -0.0615
 1386SOL    HW1 7050   3.985   5.370   5.226  0.2851  0.2893 -0.5693
 1386SOL    HW2 7051   3.868   5.280   5.188 -0.7504  0.2663  2.3931
 1387SOL     OW 7052   1.668   2.331   8.803 -0.1967 -0.0654  0.5842
 1387SOL    HW1 7053   1.703   2.293   8.722  0.4208  0.3241  0.6571
 1387SOL    HW2 7054   1.573   2.323   8.795 -0.1753  0.5714 -0.4806
 1388SOL     OW 7055   1.220   0.424   7.197 -0.3032 -0.3104  0.1136
 1388SOL    HW1 7056   1.197   0.350   7.141  0.7573 -1.4465  1.1359
 1388SOL    HW2 7057   1.146   0.431   7.258 -0.2090 -0.8046  0.2873
 1389SOL     OW 7058   5.375   0.366   9.095 -1.0773 -0.3053  0.4353
 1389SOL    HW1 7059   5.419   0.341   9.176 -0.4997 -0.2381  0.1456
 1389SOL    HW2 7060   5.444   0.368   9.030 -1.4269  0.2662  0.0720
 1390SOL     OW 7061   7.093   6.030   0.464 -0.2838  0.2678 -0.1823
 1390SOL    HW1 7062   7.011   6.030   0.514 -0.2135  0.9437 -0.0566
 1390SOL    HW2 7063   7.155   6.076   0.521 -0.0307  0.4675 -0.6190
 1391SOL     OW 7064   3.036   6.520   2.326 -0.5580 -0.4936 -0.0631
 1391SOL    HW1 7065   3.036   6.490   2.417 -0.5508  1.6159  0.6835
 1391SOL    HW2 7066   3.042   6.440   2.275  0.6313 -1.6944  1.8152
 1392SOL     OW 7067   7.178   2.977   3.544 -0.0256 -0.4301 -0.6492
 1392SOL    HW1 7068   7.245   2.933   3.597  0.6375  1.6228  0.3217
 1392SOL    HW2 7069   7.103   2.917   3.546  0.1661 -0.7331  2.1707
 1393SOL     OW 7070   3.593   6.288   0.963  0.2796 -0.0251  0.2618
 1393SOL    HW1 7071   3.599   6.242   1.047  0.7829 -0.0085  0.2374
 1393SOL    HW2 7072   3.607   6.220   0.897 -1.4660 -0.3033  0.1233
 1394SOL     OW 7073   2.923   5.216   5.041  0.0680  0.1076  0.0660
 1394SOL    HW1 7074   2.934   5.140   5.099 -1.1501  0.1629  0.4143
 1394SOL    HW2 7075   2.895   5.286   5.100 -0.5718  0.3327 -0.4976
 1395SOL     OW 7076   5.416   0.429   6.891  0.2105  0.4483  0.1683
 1395SOL    HW1 7077   5.366   0.348   6.904 -1.5173  1.4210 -0.0994
 1395SOL    HW2 7078   5.391   0.485   6.965 -1.3006  1.9712 -1.3973
 1396SOL     OW 7079   0.065   8.719   8.059 -0.3373 -0.0295 -0.5492
 1396SOL    HW1 7080   0.013   8.797   8.036  0.3918  0.6803  0.1601
 1396SOL    HW2 7081   0.150   8.734   8.016 -1.0194 -1.7375 -2.7156
 1397SOL     OW 7082   6.680   4.188   5.915 -0.2437  0.0405  1.0055
 1397SOL    HW1 7083   6.627   4.217   5.841 -0.6334 -0.3596  1.1204
 1397SOL    HW2 7084   6.736   4.119   5.878 -0.1035  0.1669  0.9804
 1398SOL     OW 7085   0.248   2.149   3.872 -0.1427  0.2835 -0.2571
 1398SOL    HW1 7086   0.225   2.226   3.820  2.4486  0.2960 -1.5232
 1398SOL    HW2 7087   0.321   2.177   3.926  0.4570 -1.1125 -0.3027
 1399SOL     OW 7088   5.694   6.645   6.106 -0.1788  0.0251  0.0241
 1399SOL    HW1 7089   5.647   6.567   6.077  0.5852 -0.8074  0.9640
 1399SOL    HW2 7090   5.695   6.640   6.201  2.1758 -0.2471  0.0541
 1400SOL     OW 7091   2.765   7.036   8.724  0.0660  0.7552 -0.5465
 1400SOL    HW1 7092   2.732   7.116   8.764 -0.3633  1.6224 -2.5095
 1400SOL    HW2 7093   2.790   6.980   8.798 -2.0685  1.6416  0.9206
 1401SOL     OW 7094   4.794   9.101   4.526 -0.2539  0.8579  0.3288
 1401SOL    HW1 7095   4.742   9.182   4.521  0.7716  1.5120 -0.1119
 1401SOL    HW2 7096   4.732   9.034   4.554 -1.3591  1.5877 -0.3080
 1402SOL     OW 7097   2.617   4.507   5.783  0.6830 -0.0649 -0.1336
 1402SOL    HW1 7098   2.650   4.454   5.856  1.0164  0.1946 -0.0968
 1402SOL    HW2 7099   2.633   4.453   5.706 -1.1525 -1.0664  0.1163
 1403SOL     OW 7100   4.659   5.012   0.213 -0.1232  0.0171  0.0187
 1403SOL    HW1 7101   4.676   4.925   0.177 -0.5916  0.4323 -1.2359
 1403SOL    HW2 7102   4.607   4.995   0.292  1.1640 -0.9202  0.7062
 1404SOL     OW 7103   3.825   4.223   8.718 -0.1561 -0.4778  0.5621
 1404SOL    HW1 7104   3.889   4.259   8.779  0.0753  1.3243 -0.6541
 1404SOL    HW2 7105   3.774   4.299   8.690 -1.0139 -1.4384 -0.6031
 1405SOL     OW 7106   4.422   6.525   9.223 -0.4218 -0.6622 -0.2658
 1405SOL    HW1 7107   4.360   6.483   9.164 -0.6485  0.0980 -0.5772
 1405SOL    HW2 7108   4.371   6.545   9.301 -0.4667 -0.4097 -0.3597
 1406SOL     OW 7109   8.246   0.814   0.678  0.4298  0.6689 -0.1147
 1406SOL    HW1 7110   8.314   0.803   0.612  3.8413  0.3244  3.1403
 1406SOL    HW2 7111   8.262   0.901   0.715 -0.5655  0.3871  1.0506
 1407SOL     OW 7112   4.600   9.151   5.605  0.3101 -0.3403  0.0762
 1407SOL    HW1 7113   4.614   9.172   5.513 -1.0450  0.7823  0.1070
 1407SOL    HW2 7114   4.550   9.225   5.640  2.1840  0.0495  2.1339
 1408SOL     OW 7115   7.516   4.286   3.647 -0.2117 -0.0792 -0.1603
 1408SOL    HW1 7116   7.550   4.295   3.736  1.0536 -1.7021 -0.4340
 1408SOL    HW2 7117   7.422   4.272   3.658 -0.0080 -0.6253  0.9434
 1409SOL     OW 7118   4.519   1.297   4.950 -0.4718  0.2745  0.0392
 1409SOL    HW1 7119   4.501   1.249   4.869 -0.3534 -2.1988  1.3688
 1409SOL    HW2 7120   4.542   1.229   5.013  2.5704  2.3417  1.3660
 1410SOL     OW 7121   3.974   7.964   2.362  0.1132 -0.5019 -0.3443
 1410SOL    HW1 7122   3.959   8.058   2.373  1.9755 -0.1354 -0.5021
 1410SOL    HW2 7123   3.889   7.924   2.379 -0.2587  1.0304  1.9196
 1411SOL     OW 7124   2.222   7.464   1.858 -0.3975 -0.5805  0.0669
 1411SOL    HW1 7125   2.134   7.496   1.836  0.1133  0.5956 -0.3170
 1411SOL    HW2 7126   2.251   7.417   1.780 -0.3036 -0.1222 -0.1785
 1412SOL     OW 7127   4.356   7.721   6.565 -0.3335 -0.0400 -0.3100
 1412SOL    HW1 7128   4.382   7.809   6.540  1.6914 -0.9866 -1.8554
 1412SOL    HW2 7129   4.333   7.728   6.657  1.7645  1.7491  0.1782
 1413SOL     OW 7130   3.104   3.572   7.149 -0.3855 -0.4943 -0.5421
 1413SOL    HW1 7131   3.056   3.501   7.193 -0.5895 -0.0629 -0.0483
 1413SOL    HW2 7132   3.050   3.649   7.164  0.0319 -0.1627 -0.7400
 1414SOL     OW 7133   5.601   7.205   4.352  0.0016  0.0900 -0.0740
 1414SOL    HW1 7134   5.619   7.160   4.270 -1.8701 -0.1046 -0.4271
 1414SOL    HW2 7135   5.655   7.160   4.417  1.0336 -0.1552 -1.0689
 1415SOL     OW 7136   9.195   7.905   8.759  0.5266  0.4964  0.1693
 1415SOL    HW1 7137   9.179   7.889   8.666  1.2491  0.2775  0.0788
 1415SOL    HW2 7138   9.190   8.000   8.769 -2.7647  0.4126  0.5177
 1416SOL     OW 7139   2.033   7.208   1.542 -0.5817  0.3309  0.2284
 1416SOL    HW1 7140   2.061   7.152   1.613  1.2929 -1.7035 -1.9523
 1416SOL    HW2 7141   1.955   7.165   1.507 -0.2693  0.1498 -0.2498
 1417SOL     OW 7142   3.148   2.177   9.163  0.0872  0.0657 -0.3933
 1417SOL    HW1 7143   3.174   2.203   9.075  1.9591  0.6396  0.2809
 1417SOL    HW2 7144   3.194   2.239   9.220 -1.9666  0.4211  0.9680
 1418SOL     OW 7145   5.020   5.504   2.373  0.1741  0.3553 -0.1007
 1418SOL    HW1 7146   4.931   5.469   2.371 -0.4005  1.7313 -0.1326
 1418SOL    HW2 7147   5.010   5.595   2.345  2.0001 -0.1985 -2.9747
 1419SOL     OW 7148   8.786   4.778   3.632  0.6290  0.4243  0.8141
 1419SOL    HW1 7149   8.768   4.865   3.595 -0.1293 -0.0843 -0.0417
 1419SOL    HW2 7150   8.799   4.722   3.556  1.0881 -0.2295  1.3631
 1420SOL     OW 7151   3.078   2.570   7.362 -0.0482  0.2508  0.0301
 1420SOL    HW1 7152   3.114   2.545   7.447  2.9910 -0.7534 -1.3993
 1420SOL    HW2 7153   2.994   2.611   7.382 -1.0948 -2.9532  3.2387
 1421SOL     OW 7154   4.390   3.576   1.027  0.2226 -0.0792  0.0920
 1421SOL    HW1 7155   4.416   3.654   0.978  1.2938 -0.4402  0.0630
 1421SOL    HW2 7156   4.342   3.523   0.963  0.3577  0.1029 -0.1614
 1422SOL     OW 7157   5.634   1.711   2.578  0.3184 -0.2950 -0.5013
 1422SOL    HW1 7158   5.716   1.669   2.605 -0.0188 -1.0646 -0.6609
 1422SOL    HW2 7159   5.582   1.640   2.542 -0.0896  0.3455 -1.1830
 1423SOL     OW 7160   8.303   2.567   7.644  0.6711  0.2556  0.6709
 1423SOL    HW1 7161   8.215   2.603   7.656  0.5351  0.4427 -0.7609
 1423SOL    HW2 7162   8.360   2.625   7.696  0.0218  0.4116  1.2229
 1424SOL     OW 7163   7.530   0.702   6.546 -0.3457 -0.1497 -0.0941
 1424SOL    HW1 7164   7.484   0.623   6.515 -0.0140 -0.7326  0.8423
 1424SOL    HW2 7165   7.612   0.669   6.582  0.4863  0.8095 -1.0702
 1425SOL     OW 7166   3.887   3.649   6.304 -0.0165 -0.1036 -0.0973
 1425SOL    HW1 7167   3.935   3.639   6.221  1.7263  0.6496  0.7712
 1425SOL    HW2 7168   3.923   3.581   6.361  1.7267  1.8497  1.2892
 1426SOL     OW 7169   1.493   1.796   2.602 -0.3041  0.2714  0.0515
 1426SOL    HW1 7170   1.459   1.799   2.513  1.5121 -0.3995 -0.7029
 1426SOL    HW2 7171   1.560   1.864   2.605 -1.6638  1.6638  1.5507
 1427SOL     OW 7172   1.536   7.986   3.368  0.2330 -0.7340  0.4251
 1427SOL    HW1 7173   1.557   7.919   3.433  0.3360 -1.4044 -0.2822
 1427SOL    HW2 7174   1.450   8.019   3.394  0.3376 -0.8846  0.9781
 1428SOL     OW 7175   7.763   3.232   8.353 -0.4840 -0.0805 -0.5122
 1428SOL    HW1 7176   7.835   3.294   8.367 -1.3598  0.9668 -0.4839
 1428SOL    HW2 7177   7.741   3.200   8.441 -1.5494  1.3672 -0.2147
 1429SOL     OW 7178   2.453   5.123   7.114 -0.4465  0.5751  0.4563
 1429SOL    HW1 7179   2.487   5.139   7.202 -0.9400  1.9464  0.4284
 1429SOL    HW2 7180   2.478   5.033   7.094  1.8854  1.0353  0.9996
 1430SOL     OW 7181   2.291   8.696   5.654  0.4272  0.0558  0.3454
 1430SOL    HW1 7182   2.235   8.694   5.576  1.2317  1.3962 -0.2974
 1430SOL    HW2 7183   2.234   8.664   5.724 -1.5352  2.3383 -0.0653
 1431SOL     OW 7184   1.527   3.251   0.149 -0.3756 -0.7035  0.2315
 1431SOL    HW1 7185   1.463   3.208   0.205 -0.6953 -0.0046  0.4174
 1431SOL    HW2 7186   1.523   3.203   0.067 -0.3537 -1.3463  0.6039
 1432SOL     OW 7187   8.936   0.607   7.197 -0.6387 -0.4459  0.2379
 1432SOL    HW1 7188   9.032   0.601   7.192 -0.4594  2.0514 -0.8850
 1432SOL    HW2 7189   8.918   0.613   7.291  0.3227 -0.6491  0.4535
 1433SOL     OW 7190   3.607   2.298   0.785 -0.1012 -0.2947 -0.1656
 1433SOL    HW1 7191   3.623   2.277   0.693 -0.0883  1.1469 -0.5204
 1433SOL    HW2 7192   3.658   2.377   0.801  0.2101 -0.7498  1.2057
 1434SOL     OW 7193   2.648   2.222   6.051  0.3084  0.0927  0.3009
 1434SOL    HW1 7194   2.725   2.271   6.021 -0.5901  0.4250 -1.5931
 1434SOL    HW2 7195   2.662   2.133   6.018  1.3102 -0.6845  2.6178
 1435SOL     OW 7196   9.105   3.861   5.380 -0.5131 -0.1395  0.2287
 1435SOL    HW1 7197   9.055   3.781   5.394 -1.9935  0.4320 -1.3729
 1435SOL    HW2 7198   9.073   3.895   5.296 -0.0757  2.2227  0.9351
 1436SOL     OW 7199   6.720   7.411   2.227 -0.4519  0.6603 -0.1992
 1436SOL    HW1 7200   6.631   7.384   2.252 -0.6913  0.4099 -1.2633
 1436SOL    HW2 7201   6.766   7.420   2.310 -1.4883  0.8409  0.3780
 1437SOL     OW 7202   7.017   7.687   7.088  0.1738  0.0370  0.0597
 1437SOL    HW1 7203   6.985   7.597   7.099  2.1135 -0.7156 -0.0574
 1437SOL    HW2 7204   7.070   7.684   7.008 -1.1866  1.7548 -0.9769
 1438SOL     OW 7205   8.907   1.076   9.194 -0.1162  0.0408  0.1554
 1438SOL    HW1 7206   8.979   1.061   9.256  0.2352 -1.1096 -0.4862
 1438SOL    HW2 7207   8.857   0.994   9.196 -0.3605  0.1612 -0.7506
 1439SOL     OW 7208   1.314   4.191   2.318 -0.3264 -0.1952  0.1563
 1439SOL    HW1 7209   1.372   4.242   2.261  0.6604 -1.4059  0.0361
 1439SOL    HW2 7210   1.274   4.256   2.376  1.1498  0.6930  0.2341
 1440SOL     OW 7211   3.136   1.606   3.037  0.6398 -0.1182  0.6491
 1440SOL    HW1 7212   3.130   1.695   3.072  0.7686  0.5501 -0.9610
 1440SOL    HW2 7213   3.222   1.576   3.066  1.9057  1.4244 -1.2059
 1441SOL     OW 7214   5.374   3.418   6.999 -0.3071 -0.0075  0.7848
 1441SOL    HW1 7215   5.381   3.504   7.040 -0.9242  0.3637  0.1465
 1441SOL    HW2 7216   5.442   3.418   6.932 -0.9158  0.3690  0.1469
 1442SOL     OW 7217   4.626   4.321   3.016  0.1469 -0.2522 -0.0250
 1442SOL    HW1 7218   4.667   4.241   3.047  1.1470  0.4414  0.5112
 1442SOL    HW2 7219   4.618   4.376   3.094 -0.9279  0.0167 -0.2985
 1443SOL     OW 7220   0.336   6.111   6.277 -0.1440  0.0977 -0.2090
 1443SOL    HW1 7221   0.382   6.194   6.289  0.3501 -0.3988  1.6269
 1443SOL    HW2 7222   0.252   6.135   6.238 -0.5146  1.6262  1.4281
 1444SOL     OW 7223   8.494   8.711   1.173  0.7749 -0.1990 -0.2003
 1444SOL    HW1 7224   8.474   8.761   1.093  1.4899  0.5927  0.0930
 1444SOL    HW2 7225   8.419   8.654   1.185 -0.4689  1.3779 -0.1223
 1445SOL     OW 7226   9.170   9.220   0.598 -0.4179 -0.4642 -0.1656
 1445SOL    HW1 7227   9.233   9.185   0.661 -0.0396  0.8999  0.2407
 1445SOL    HW2 7228   9.090   9.171   0.615 -0.2319 -0.3415  1.1620
 1446SOL     OW 7229   6.126   3.065   5.061 -0.2254 -0.2482 -0.8524
 1446SOL    HW1 7230   6.140   3.014   5.141  1.0739  1.3185 -0.0345
 1446SOL    HW2 7231   6.037   3.098   5.069 -0.7146 -1.4848 -0.9060
 1447SOL     OW 7232   8.823   5.764   4.025 -0.0216 -0.3963  0.1806
 1447SOL    HW1 7233   8.833   5.678   3.985  1.5401  0.3074 -1.1114
 1447SOL    HW2 7234   8.908   5.782   4.065 -0.8512 -0.1121  1.9121
 1448SOL     OW 7235   4.888   3.904   0.886  0.1843  0.0791  0.3562
 1448SOL    HW1 7236   4.873   3.811   0.900  0.1049 -0.5462 -3.0271
 1448SOL    HW2 7237   4.962   3.908   0.825 -2.1882  1.9187 -2.7339
 1449SOL     OW 7238   6.268   3.630   5.097  0.7100 -0.5128 -0.0324
 1449SOL    HW1 7239   6.193   3.579   5.126  0.2899  1.1241  2.0409
 1449SOL    HW2 7240   6.247   3.654   5.007 -1.8442  0.7871  0.8049
 1450SOL     OW 7241   6.077   8.902   8.621  0.3935 -0.5781  0.2552
 1450SOL    HW1 7242   6.024   8.831   8.657 -0.2403 -0.5846 -0.6690
 1450SOL    HW2 7243   6.037   8.982   8.654  0.1877 -0.6049  0.0718
 1451SOL     OW 7244   0.521   3.136   5.577  0.0829  0.1373 -0.5835
 1451SOL    HW1 7245   0.499   3.059   5.630 -0.7386 -0.1357 -1.3043
 1451SOL    HW2 7246   0.451   3.141   5.512 -0.0240  1.6587 -0.3824
 1452SOL     OW 7247   4.401   8.886   7.972  0.1338  0.1764  0.2261
 1452SOL    HW1 7248   4.420   8.951   7.904  0.3311 -1.3911 -1.2847
 1452SOL    HW2 7249   4.307   8.895   7.987  0.3154  1.4430  0.7558
 1453SOL     OW 7250   1.141   8.004   8.615  0.0761  0.1924  0.2363
 1453SOL    HW1 7251   1.104   8.085   8.648  0.8083  0.6699 -0.0895
 1453SOL    HW2 7252   1.072   7.965   8.562 -0.0673  0.9139 -0.1117
 1454SOL     OW 7253   8.074   7.895   8.730  0.2782  0.1066  0.0377
 1454SOL    HW1 7254   8.047   7.979   8.766 -0.6479 -0.1803  0.0427
 1454SOL    HW2 7255   7.997   7.839   8.738  0.9800 -0.8550  0.3685
 1455SOL     OW 7256   6.440   5.585   4.875 -0.4307 -0.1474  0.0747
 1455SOL    HW1 7257   6.491   5.637   4.938 -0.5557  0.0322  0.0245
 1455SOL    HW2 7258   6.392   5.649   4.823 -0.0227 -0.2751 -0.4701
 1456SOL     OW 7259   0.421   4.623   1.148  0.1220 -0.0844 -0.4513
 1456SOL    HW1 7260   0.393   4.701   1.196 -2.2367 -1.6284  0.8654
 1456SOL    HW2 7261   0.514   4.614   1.170 -0.5851 -0.0700  2.9821
 1457SOL     OW 7262   3.674   1.890   7.275  0.6185 -0.9387  0.0806
 1457SOL    HW1 7263   3.667   1.938   7.358 -0.2792 -1.5981  0.3988
 1457SOL    HW2 7264   3.768   1.877   7.263  0.9065  0.9964 -0.0840
 1458SOL     OW 7265   1.684   7.793   9.091  0.1065  0.0612 -0.1094
 1458SOL    HW1 7266   1.601   7.745   9.079  0.6750 -0.5290 -2.0496
 1458SOL    HW2 7267   1.663   7.883   9.064 -0.2000  0.2244  0.6365
 1459SOL     OW 7268   1.570   0.513   2.774  0.0075  0.8782  0.1315
 1459SOL    HW1 7269   1.658   0.514   2.811  0.3423 -0.0533 -0.6051
 1459SOL    HW2 7270   1.525   0.586   2.817  1.0150  1.1231  0.7986
 1460SOL     OW 7271   5.016   6.995   3.433  0.0038 -0.6389  0.4337
 1460SOL    HW1 7272   5.014   7.075   3.485  1.0220 -1.7645  2.3118
 1460SOL    HW2 7273   5.052   7.022   3.348 -1.9541  1.2960  0.1318
 1461SOL     OW 7274   4.157   3.237   8.388 -0.2620 -0.0641  0.2243
 1461SOL    HW1 7275   4.108   3.319   8.398  0.1542  0.2713 -0.3859
 1461SOL    HW2 7276   4.220   3.239   8.461  0.6953  0.8696 -0.5808
 1462SOL     OW 7277   6.016   4.322   0.556 -0.1307 -0.2292  0.4538
 1462SOL    HW1 7278   6.032   4.354   0.645 -1.5052 -0.8476  0.9564
 1462SOL    HW2 7279   6.070   4.378   0.501 -1.1978  1.8963  1.4468
 1463SOL     OW 7280   7.524   3.208   2.742 -0.0923 -0.7318  0.0200
 1463SOL    HW1 7281   7.449   3.162   2.778 -0.1150 -0.1434  0.7306
 1463SOL    HW2 7282   7.580   3.226   2.817  0.2650 -0.2415 -0.3566
 1464SOL     OW 7283   3.295   8.320   0.673 -0.1324 -0.1771  0.1105
 1464SOL    HW1 7284   3.367   8.257   0.664 -2.2624 -2.7568 -0.0853
 1464SOL    HW2 7285   3.226   8.285   0.617 -1.8376  1.7517  0.9164
 1465SOL     OW 7286   8.589   8.732   0.470 -0.9936  0.1523  0.7391
 1465SOL    HW1 7287   8.683   8.743   0.461 -1.1315  1.7939  1.1106
 1465SOL    HW2 7288   8.554   8.751   0.383 -1.0257 -0.0767  0.6999
 1466SOL     OW 7289   3.031   6.165   8.440 -0.4416 -0.2357  0.3070
 1466SOL    HW1 7290   2.990   6.251   8.445 -1.3846 -0.6401 -0.1394
 1466SOL    HW2 7291   2.974   6.114   8.382 -0.2215 -1.3316  1.0047
 1467SOL     OW 7292   5.487   7.016   8.004  0.0807 -0.3716  0.0641
 1467SOL    HW1 7293   5.503   6.991   8.095 -0.6745 -2.2483 -0.2697
 1467SOL    HW2 7294   5.481   6.932   7.957 -0.4601  0.5299 -1.5497
 1468SOL     OW 7295   2.016   1.289   8.197 -0.4088 -0.5822 -0.0462
 1468SOL    HW1 7296   1.992   1.382   8.190 -0.5556 -0.6434 -0.3825
 1468SOL    HW2 7297   2.037   1.277   8.290 -2.4618 -0.6993  0.4642
 1469SOL     OW 7298   2.263   2.010   0.905 -0.1417  0.0658 -0.2301
 1469SOL    HW1 7299   2.247   2.064   0.827 -1.6431 -0.8956 -0.6201
 1469SOL    HW2 7300   2.260   1.920   0.873  0.7205 -0.3112  0.7027
 1470SOL     OW 7301   7.560   2.936   0.397  0.4627  0.2764  0.3095
 1470SOL    HW1 7302   7.526   2.886   0.471  0.6178  0.5628  0.5802
 1470SOL    HW2 7303   7.521   3.023   0.407  1.0203  0.5165  0.4511
 1471SOL     OW 7304   6.472   3.269   8.654  0.5687 -0.1307  0.4432
 1471SOL    HW1 7305   6.487   3.182   8.691  2.2278  0.0931  0.3858
 1471SOL    HW2 7306   6.540   3.278   8.586 -1.8453 -0.2035 -2.1473
 1472SOL     OW 7307   8.068   0.893   4.207 -0.2842  0.2776 -0.2952
 1472SOL    HW1 7308   8.111   0.962   4.157  1.6472 -1.5663 -1.3797
 1472SOL    HW2 7309   8.016   0.845   4.142  1.6872 -1.7104 -0.5226
 1473SOL     OW 7310   2.279   6.801   2.784  0.0054  0.5250  0.0198
 1473SOL    HW1 7311   2.348   6.826   2.845  0.5336 -0.6952 -0.0299
 1473SOL    HW2 7312   2.270   6.706   2.796 -0.4473  0.3884 -1.2050
 1474SOL     OW 7313   5.610   1.913   0.509 -0.2848 -0.1914 -0.3583
 1474SOL    HW1 7314   5.703   1.932   0.515  0.0334 -1.0013 -2.1385
 1474SOL    HW2 7315   5.596   1.839   0.569  0.5106 -0.9565 -1.0907
 1475SOL     OW 7316   2.945   8.529   7.546  0.6231  0.3274  0.7166
 1475SOL    HW1 7317   2.885   8.562   7.480  3.8883  0.3648 -2.5601
 1475SOL    HW2 7318   2.905   8.448   7.577 -0.5633 -0.3765 -2.3102
 1476SOL     OW 7319   5.906   3.072   0.667  0.1156  0.2374  0.0878
 1476SOL    HW1 7320   5.869   2.985   0.652 -0.0248  0.3368 -0.1640
 1476SOL    HW2 7321   5.831   3.131   0.654  0.0396  0.3468  0.9822
 1477SOL     OW 7322   9.211   1.048   2.998 -0.0066  0.2224  0.2351
 1477SOL    HW1 7323   9.295   1.012   3.025  0.0632  0.5829  0.5109
 1477SOL    HW2 7324   9.215   1.050   2.903  0.5100  0.7360  0.2641
 1478SOL     OW 7325   1.118   1.550   3.290  0.7690  0.5490  0.0679
 1478SOL    HW1 7326   1.144   1.630   3.242 -0.7567  0.7820 -0.4039
 1478SOL    HW2 7327   1.051   1.579   3.351 -0.4529 -0.4936 -0.7190
 1479SOL     OW 7328   0.365   0.867   3.985 -0.5424 -0.2210  0.0633
 1479SOL    HW1 7329   0.365   0.772   3.973  1.3088 -0.1227 -1.0031
 1479SOL    HW2 7330   0.275   0.887   4.012 -1.1579 -2.1831 -0.3392
 1480SOL     OW 7331   2.025   8.449   8.180 -0.2492 -0.1576  0.4446
 1480SOL    HW1 7332   1.951   8.508   8.167  0.1306  0.5180  1.2895
 1480SOL    HW2 7333   2.055   8.467   8.269 -0.9175 -2.5376  1.2175
 1481SOL     OW 7334   9.149   0.558   1.802 -0.5622 -0.5518  0.1026
 1481SOL    HW1 7335   9.092   0.488   1.768 -0.4725  0.0070 -1.2434
 1481SOL    HW2 7336   9.178   0.605   1.724 -1.8958  2.0026  1.0494
 1482SOL     OW 7337   1.137   9.165   8.601  0.3665  0.3320  0.3155
 1482SOL    HW1 7338   1.045   9.138   8.593  0.3567  0.4418  0.0186
 1482SOL    HW2 7339   1.177   9.098   8.656  0.3873 -0.4079 -0.5686
 1483SOL     OW 7340   8.314   3.675   6.414 -0.1503  0.4240  0.0863
 1483SOL    HW1 7341   8.335   3.645   6.326 -0.4377 -0.3961  0.2927
 1483SOL    HW2 7342   8.397   3.709   6.448 -0.0293  0.7080 -0.4809
 1484SOL     OW 7343   2.582   7.211   2.972  0.1161 -0.1076  0.3260
 1484SOL    HW1 7344   2.534   7.185   3.050 -0.3255  2.3006  0.9319
 1484SOL    HW2 7345   2.539   7.290   2.942  1.4285  0.0544 -1.2997
 1485SOL     OW 7346   2.833   5.309   3.901  0.2743  0.4423  0.0032
 1485SOL    HW1 7347   2.775   5.379   3.933 -0.4139  0.0326 -0.3130
 1485SOL    HW2 7348   2.797   5.229   3.939  0.4497  0.1468 -0.4462
 1486SOL     OW 7349   0.285   0.021   6.159 -0.2231 -0.4303 -0.4217
 1486SOL    HW1 7350   0.253   0.002   6.071 -2.5831  0.8639  0.0842
 1486SOL    HW2 7351   0.207   0.046   6.209  1.1671 -0.2322  1.8156
 1487SOL     OW 7352   3.047   8.448   5.693  0.0936  0.0123  0.3476
 1487SOL    HW1 7353   3.074   8.489   5.775  0.3651 -1.0502  0.8115
 1487SOL    HW2 7354   3.075   8.510   5.625  2.6396 -0.4300  0.8778
 1488SOL     OW 7355   7.743   6.289   1.983  0.4419  0.1675  0.4484
 1488SOL    HW1 7356   7.759   6.238   2.062  0.0333  0.6847  0.8769
 1488SOL    HW2 7357   7.724   6.377   2.015  1.5245  0.6882 -0.3013
 1489SOL     OW 7358   6.375   4.166   5.301  0.4253  0.2018  0.1129
 1489SOL    HW1 7359   6.466   4.145   5.283  0.1841 -0.7111 -0.0603
 1489SOL    HW2 7360   6.375   4.261   5.314  1.5950  0.0675  1.3086
 1490SOL     OW 7361   0.697   7.273   3.430 -0.7365 -0.4449  0.4422
 1490SOL    HW1 7362   0.780   7.225   3.433 -0.7262 -0.7932 -2.4841
 1490SOL    HW2 7363   0.720   7.363   3.453 -0.0871 -1.0277  2.2702
 1491SOL     OW 7364   6.859   4.944   3.578  0.4921  0.2013  0.3712
 1491SOL    HW1 7365   6.864   4.899   3.494 -0.9383  0.6464  0.0241
 1491SOL    HW2 7366   6.896   5.031   3.561 -0.8007  0.6786 -0.1061
 1492SOL     OW 7367   0.133   4.514   3.861 -0.3742  0.2616 -0.6556
 1492SOL    HW1 7368   0.091   4.434   3.829  0.4623 -0.4594 -0.0154
 1492SOL    HW2 7369   0.224   4.488   3.876  0.3386  1.7884 -2.0580
 1493SOL     OW 7370   3.504   5.095   4.975 -0.2214 -0.4356 -0.3446
 1493SOL    HW1 7371   3.522   5.047   4.894 -0.6199  1.8152 -1.8360
 1493SOL    HW2 7372   3.589   5.103   5.018  0.3300 -0.1057 -1.4520
 1494SOL     OW 7373   8.693   3.821   7.960 -0.3792  0.1772 -0.1083
 1494SOL    HW1 7374   8.788   3.804   7.961 -0.7279 -2.4322 -2.0186
 1494SOL    HW2 7375   8.668   3.818   8.053  1.2036 -0.6225  0.3353
 1495SOL     OW 7376   3.162   2.210   6.174  0.0363 -0.4325 -0.2806
 1495SOL    HW1 7377   3.220   2.285   6.182 -0.8592  0.2369  0.0825
 1495SOL    HW2 7378   3.219   2.134   6.188  0.8808  0.1898 -0.2799
 1496SOL     OW 7379   2.981   8.215   5.922  0.3272  0.1650  0.3970
 1496SOL    HW1 7380   2.903   8.266   5.944 -0.8462 -1.4019  0.1036
 1496SOL    HW2 7381   2.962   8.179   5.835  1.4540 -0.1076  0.2493
 1497SOL     OW 7382   7.400   6.963   3.890  0.4126 -0.0461 -0.5509
 1497SOL    HW1 7383   7.480   6.910   3.893 -0.4966 -1.4651  1.2558
 1497SOL    HW2 7384   7.407   7.020   3.967 -0.3145 -0.2212 -0.3475
 1498SOL     OW 7385   2.375   1.639   4.924 -0.2036  0.2064 -0.0446
 1498SOL    HW1 7386   2.297   1.599   4.962  0.7827  0.3407  2.3296
 1498SOL    HW2 7387   2.398   1.710   4.985  1.4076  0.5656 -0.9994
 1499SOL     OW 7388   3.668   4.606   5.187 -0.2592 -0.1379  0.4239
 1499SOL    HW1 7389   3.617   4.569   5.116  1.4875 -0.7878 -0.5527
 1499SOL    HW2 7390   3.645   4.554   5.264  0.4241 -1.7905 -0.4415
 1500SOL     OW 7391   8.209   3.132   4.519 -0.3284 -0.1637 -0.3097
 1500SOL    HW1 7392   8.290   3.081   4.517 -0.6804 -0.7237 -1.6247
 1500SOL    HW2 7393   8.172   3.115   4.605  1.8385  1.5979  1.0832
 1501SOL     OW 7394   6.373   5.384   1.373 -0.9200 -0.5980 -0.2113
 1501SOL    HW1 7395   6.325   5.337   1.441 -0.6189 -0.5352  0.0412
 1501SOL    HW2 7396   6.358   5.477   1.393 -0.1119 -0.5665  0.2827
 1502SOL     OW 7397   1.802   0.560   2.903 -0.1159 -0.0149  0.1215
 1502SOL    HW1 7398   1.856   0.554   2.982  1.5909 -0.9896 -1.0279
 1502SOL    HW2 7399   1.806   0.653   2.878 -0.2337  0.1989  0.8713
 1503SOL     OW 7400   6.467   2.963   1.167 -0.6532 -0.2920 -0.1713
 1503SOL    HW1 7401   6.445   2.903   1.239  1.1568  1.2462  1.8184
 1503SOL    HW2 7402   6.553   2.934   1.138 -0.6989  0.0789 -0.6814
 1504SOL     OW 7403   1.348   0.144   8.072 -0.2082 -0.3471  0.3525
 1504SOL    HW1 7404   1.442   0.128   8.086 -0.2071  1.2702  3.0182
 1504SOL    HW2 7405   1.306   0.108   8.150 -1.2500  2.6631  1.3525
 1505SOL     OW 7406   5.484   3.006   1.750  0.3980  0.0389 -0.5969
 1505SOL    HW1 7407   5.527   2.952   1.683 -0.6128 -1.0537 -0.4002
 1505SOL    HW2 7408   5.418   3.055   1.702 -0.2961 -0.7107 -0.4264
 1506SOL     OW 7409   5.517   6.612   2.851  0.9205  0.3004  0.0728
 1506SOL    HW1 7410   5.550   6.554   2.783  0.9259  0.3184  0.0602
 1506SOL    HW2 7411   5.460   6.557   2.905  0.1313  0.5144 -0.5285
 1507SOL     OW 7412   7.626   3.588   0.425  0.3091  0.2252 -0.8747
 1507SOL    HW1 7413   7.645   3.663   0.369 -2.7181  0.4973 -1.7128
 1507SOL    HW2 7414   7.638   3.620   0.514  2.9173  0.4598 -1.2323
 1508SOL     OW 7415   0.305   2.959   1.810  0.2759  0.5520  0.4209
 1508SOL    HW1 7416   0.221   2.977   1.768  0.7423  2.0595  0.0608
 1508SOL    HW2 7417   0.283   2.940   1.901 -0.6721 -1.8635 -0.2136
 1509SOL     OW 7418   1.379   4.535   4.605  0.5538 -0.2364  0.4250
 1509SOL    HW1 7419   1.462   4.488   4.595  1.0305  0.5390  0.7162
 1509SOL    HW2 7420   1.380   4.600   4.535 -1.3371 -2.3613 -1.8197
 1510SOL     OW 7421   2.354   2.267   0.452  0.4532 -0.2071  0.6906
 1510SOL    HW1 7422   2.269   2.308   0.437 -1.1761 -2.5197  2.7750
 1510SOL    HW2 7423   2.417   2.339   0.447 -1.5799  1.5687 -1.0514
 1511SOL     OW 7424   8.050   0.884   5.684 -0.2810 -0.2713  0.2496
 1511SOL    HW1 7425   8.000   0.885   5.766 -0.8091 -1.3980 -0.0550
 1511SOL    HW2 7426   8.141   0.877   5.713 -0.5018 -1.3127  0.7422
 1512SOL     OW 7427   4.356   7.875   2.794 -0.2020 -0.3914  0.1393
 1512SOL    HW1 7428   4.292   7.915   2.735 -2.7323 -0.4620  2.5873
 1512SOL    HW2 7429   4.402   7.948   2.833 -0.0897 -0.2382 -0.2735
 1513SOL     OW 7430   2.155   8.000   9.163 -0.1469  0.1688 -0.2614
 1513SOL    HW1 7431   2.230   7.990   9.221  0.7970 -0.3551 -1.5399
 1513SOL    HW2 7432   2.178   8.073   9.106 -0.3067 -0.4134 -1.0929
 1514SOL     OW 7433   3.210   2.275   2.105  0.5356  0.1839 -0.1281
 1514SOL    HW1 7434   3.185   2.247   2.017  2.1116  0.0756 -0.5823
 1514SOL    HW2 7435   3.147   2.343   2.129  0.8364  1.1061 -1.8542
 1515SOL     OW 7436   1.073   3.095   0.551 -0.2877  0.5551 -0.0900
 1515SOL    HW1 7437   1.059   3.188   0.567 -1.3376  0.2455  0.9580
 1515SOL    HW2 7438   1.150   3.091   0.495 -0.3825  2.0630 -0.3582
 1516SOL     OW 7439   4.618   3.448   6.673  0.4018  0.2835  0.2086
 1516SOL    HW1 7440   4.634   3.535   6.637  0.2848  0.5300  0.7472
 1516SOL    HW2 7441   4.705   3.411   6.686  0.5056  0.8586  1.2770
 1517SOL     OW 7442   2.792   8.524   1.855 -0.2923  0.5988 -0.1180
 1517SOL    HW1 7443   2.747   8.557   1.778 -0.3981  0.7927  0.0270
 1517SOL    HW2 7444   2.807   8.601   1.910  0.3628  0.5625 -0.2387
 1518SOL     OW 7445   8.171   5.319   2.135 -0.0303 -0.2928 -0.2618
 1518SOL    HW1 7446   8.191   5.333   2.043  1.1517 -0.7226 -0.0927
 1518SOL    HW2 7447   8.236   5.255   2.164  0.3164  0.6470  1.1236
 1519SOL     OW 7448   1.157   9.188   8.889 -0.0147  0.2518  0.4482
 1519SOL    HW1 7449   1.222   9.141   8.836  0.7439  0.0814  1.4902
 1519SOL    HW2 7450   1.194   9.187   8.977 -1.4633  0.1352  1.0699
 1520SOL     OW 7451   0.313   2.928   1.356  0.2202  0.3366  0.2740
 1520SOL    HW1 7452   0.261   2.870   1.411  0.9734  0.8088  1.5207
 1520SOL    HW2 7453   0.377   2.967   1.415  2.2756 -0.5334 -1.2502
 1521SOL     OW 7454   6.541   5.777   2.945  0.2706  0.1938  0.5553
 1521SOL    HW1 7455   6.578   5.858   2.910 -2.9616  1.1764 -0.9780
 1521SOL    HW2 7456   6.569   5.709   2.884  0.1497  0.7778 -0.1543
 1522SOL     OW 7457   7.662   3.954   5.969  0.4446 -0.1153  0.1230
 1522SOL    HW1 7458   7.706   3.976   5.887 -1.3156  0.0577 -0.8182
 1522SOL    HW2 7459   7.654   4.038   6.015 -0.1185  0.0898 -0.3371
 1523SOL     OW 7460   2.565   6.371   7.946  0.5246  0.1813 -0.2183
 1523SOL    HW1 7461   2.510   6.416   7.881  0.0729 -1.8012 -1.2671
 1523SOL    HW2 7462   2.628   6.322   7.894  0.3698 -1.1798  0.8271
 1524SOL     OW 7463   1.050   0.662   4.924  0.0889 -0.3219 -0.4015
 1524SOL    HW1 7464   1.042   0.642   5.017  2.4549  0.4033  0.0264
 1524SOL    HW2 7465   1.026   0.755   4.917 -1.7370 -0.7791 -0.8511
 1525SOL     OW 7466   4.082   7.951   8.777 -0.1425  0.3351  0.2175
 1525SOL    HW1 7467   4.000   7.965   8.730  0.8608  0.6406 -1.5391
 1525SOL    HW2 7468   4.121   8.038   8.784 -0.5245  0.3844  2.1852
 1526SOL     OW 7469   5.746   9.217   0.536  0.1498 -0.8429  0.3306
 1526SOL    HW1 7470   5.705   9.221   0.449  0.7033  0.0350  0.0905
 1526SOL    HW2 7471   5.780   9.127   0.542 -0.1926 -1.0169 -0.2253
 1527SOL     OW 7472   8.356   6.390   0.885 -0.0114  0.1645 -0.3720
 1527SOL    HW1 7473   8.386   6.337   0.811  2.4851  0.2851  0.4595
 1527SOL    HW2 7474   8.341   6.328   0.956 -2.1526  0.0772 -0.8392
 1528SOL     OW 7475   1.792   7.585   6.442 -0.2599  0.0507 -0.2546
 1528SOL    HW1 7476   1.860   7.524   6.471  0.3815  0.7041 -0.3432
 1528SOL    HW2 7477   1.796   7.657   6.505 -0.5522  0.3091 -0.5257
 1529SOL     OW 7478   1.510   7.244   3.718 -0.2256 -0.1250  0.6883
 1529SOL    HW1 7479   1.548   7.157   3.729 -0.7254 -0.1422  2.5034
 1529SOL    HW2 7480   1.473   7.243   3.629 -0.4984 -1.8588  0.7943
 1530SOL     OW 7481   6.868   2.379   7.965  0.7373  0.0178  0.1704
 1530SOL    HW1 7482   6.866   2.432   7.885 -0.3963 -0.6264 -0.2421
 1530SOL    HW2 7483   6.844   2.439   8.035  0.1453  0.2117 -0.1968
 1531SOL     OW 7484   0.940   3.892   8.516  0.3229  0.1318 -0.4683
 1531SOL    HW1 7485   0.974   3.806   8.492 -1.0738 -1.0805  1.5582
 1531SOL    HW2 7486   0.845   3.882   8.513 -0.0835  2.8825 -4.2002
 1532SOL     OW 7487   4.739   1.073   1.849 -0.5955  0.0223 -0.2384
 1532SOL    HW1 7488   4.648   1.054   1.869 -0.7667  0.5524 -0.4967
 1532SOL    HW2 7489   4.737   1.119   1.765 -0.0889 -0.0027 -0.2710
 1533SOL     OW 7490   0.920   0.236   4.671 -0.7130 -0.0653 -0.5128
 1533SOL    HW1 7491   0.842   0.190   4.643  0.1506 -0.2019 -2.8855
 1533SOL    HW2 7492   0.894   0.328   4.675 -0.8915 -0.0482 -1.7833
 1534SOL     OW 7493   4.484   9.002   1.535  0.2105  0.4438 -0.0171
 1534SOL    HW1 7494   4.444   9.025   1.452 -0.3889 -1.2030 -0.2258
 1534SOL    HW2 7495   4.576   9.027   1.525  0.7594 -1.9807 -2.1900
 1535SOL     OW 7496   7.620   6.059   7.843 -0.4545  0.4732 -0.4054
 1535SOL    HW1 7497   7.688   6.049   7.910 -0.0477  0.2139 -0.8454
 1535SOL    HW2 7498   7.662   6.109   7.773 -0.3154 -0.7128 -1.2069
 1536SOL     OW 7499   8.514   6.864   5.956  0.7850  0.0216 -0.5977
 1536SOL    HW1 7500   8.586   6.927   5.961  1.0436 -0.2139 -1.1745
 1536SOL    HW2 7501   8.458   6.884   6.031  1.7512 -0.1666  0.1860
 1537SOL     OW 7502   2.639   5.285   1.935  0.1815 -0.0912 -0.1730
 1537SOL    HW1 7503   2.633   5.189   1.928 -1.0732 -0.0008 -0.7096
 1537SOL    HW2 7504   2.584   5.317   1.863  0.5967  1.0312 -0.0005
 1538SOL     OW 7505   3.522   5.162   0.153 -0.1634 -0.2991 -0.0019
 1538SOL    HW1 7506   3.533   5.255   0.130  1.4244 -0.4797 -0.0857
 1538SOL    HW2 7507   3.445   5.161   0.210  0.0787  1.1450  0.4003
 1539SOL     OW 7508   6.286   4.478   2.322 -0.8957  0.7563  0.1086
 1539SOL    HW1 7509   6.348   4.454   2.392 -2.2261 -0.8698  0.8062
 1539SOL    HW2 7510   6.300   4.572   2.309  0.3501  0.8297  1.6043
 1540SOL     OW 7511   9.017   3.963   1.105 -0.5702 -0.4374 -0.5837
 1540SOL    HW1 7512   8.922   3.948   1.104 -0.8026  0.5542  1.7328
 1540SOL    HW2 7513   9.027   4.058   1.103  0.4404 -0.5398 -1.7919
 1541SOL     OW 7514   3.382   7.127   4.567 -0.0933  0.2865  1.0101
 1541SOL    HW1 7515   3.310   7.140   4.505  0.4934  1.1631  0.4863
 1541SOL    HW2 7516   3.424   7.213   4.573  1.2773 -0.3480  0.8260
 1542SOL     OW 7517   1.177   4.397   2.039  0.0430 -0.0636  0.1018
 1542SOL    HW1 7518   1.242   4.438   2.095  0.8261 -1.3568  0.1805
 1542SOL    HW2 7519   1.211   4.409   1.950 -0.7441  1.1809 -0.0701
 1543SOL     OW 7520   6.923   5.618   8.083  0.3049  0.5941  0.1217
 1543SOL    HW1 7521   6.948   5.613   7.990 -1.0853  0.0746 -0.2563
 1543SOL    HW2 7522   6.957   5.702   8.113  0.0329  1.1720 -1.1049
 1544SOL     OW 7523   8.270   8.555   1.126  0.3584  0.2204 -0.0868
 1544SOL    HW1 7524   8.316   8.471   1.128  1.5369  0.8545  0.3014
 1544SOL    HW2 7525   8.221   8.554   1.044 -1.4444 -1.7577  0.9235
 1545SOL     OW 7526   0.682   6.358   1.566  0.1774 -0.1506 -0.7021
 1545SOL    HW1 7527   0.587   6.345   1.574  0.1347  0.2625 -0.5434
 1545SOL    HW2 7528   0.710   6.381   1.654  0.3996 -0.0911 -0.7897
 1546SOL     OW 7529   7.568   5.666   8.467  0.3624 -0.0034 -0.6472
 1546SOL    HW1 7530   7.542   5.737   8.408  0.5910 -0.7428 -1.6751
 1546SOL    HW2 7531   7.618   5.606   8.411 -0.5185 -1.3854 -0.0062
 1547SOL     OW 7532   1.746   7.211   9.093  0.5284  0.0156 -0.3664
 1547SOL    HW1 7533   1.710   7.202   9.005  0.6723  1.0103 -0.5387
 1547SOL    HW2 7534   1.832   7.169   9.088  0.3898 -0.2389 -0.6068
 1548SOL     OW 7535   4.486   6.595   2.295  0.1521 -0.2949 -0.0757
 1548SOL    HW1 7536   4.412   6.593   2.233 -0.6680 -2.7998  0.8613
 1548SOL    HW2 7537   4.562   6.570   2.242 -0.2179 -0.6231 -0.4643
 1549SOL     OW 7538   3.829   6.604   6.025  0.3672 -0.2159 -0.0714
 1549SOL    HW1 7539   3.832   6.588   5.931  0.3791  1.1334 -0.3164
 1549SOL    HW2 7540   3.875   6.687   6.037  0.4703 -0.4254  1.1471
 1550SOL     OW 7541   5.991   5.682   4.360  0.0968 -0.0472  0.0456
 1550SOL    HW1 7542   5.987   5.745   4.432  0.2596  0.5554 -0.4627
 1550SOL    HW2 7543   6.078   5.693   4.323  0.9320 -2.0858  1.2746
 1551SOL     OW 7544   4.027   6.563   3.987  0.0719 -0.0517 -0.2469
 1551SOL    HW1 7545   4.110   6.605   4.012  0.0949 -0.3916  0.2498
 1551SOL    HW2 7546   3.967   6.636   3.971  1.0308  0.2969 -2.6715
 1552SOL     OW 7547   2.790   6.236   7.163 -0.4317 -0.4507  0.2326
 1552SOL    HW1 7548   2.815   6.166   7.103  0.8014 -0.1336  0.3527
 1552SOL    HW2 7549   2.816   6.204   7.250 -1.8358 -0.7355  0.5802
 1553SOL     OW 7550   4.904   4.762   6.520  0.0422 -0.1451  0.1840
 1553SOL    HW1 7551   4.915   4.828   6.451  1.7871  0.0788  0.6250
 1553SOL    HW2 7552   4.843   4.698   6.483 -0.3965  0.8624 -0.8852
 1554SOL     OW 7553   7.944   6.030   4.416  0.7008 -0.5951 -0.6033
 1554SOL    HW1 7554   7.878   6.072   4.360  1.3742  0.5317 -0.5803
 1554SOL    HW2 7555   7.930   5.936   4.403 -1.8771 -0.4773  0.5015
 1555SOL     OW 7556   0.083   2.647   2.796 -0.4008 -0.2776 -0.1098
 1555SOL    HW1 7557   0.130   2.726   2.824 -2.1810  0.1543  1.9055
 1555SOL    HW2 7558  -0.007   2.676   2.784 -1.8045 -2.4685  3.6633
 1556SOL     OW 7559   0.504   3.007   6.014  0.2104 -0.1935  0.1654
 1556SOL    HW1 7560   0.533   3.058   6.089  0.8590 -3.2178  2.1703
 1556SOL    HW2 7561   0.412   2.987   6.033  0.5043 -1.3614  0.4781
 1557SOL     OW 7562   2.389   6.191   6.541  0.4245  0.3455  0.1904
 1557SOL    HW1 7563   2.300   6.213   6.571  0.0280 -3.3333  2.3080
 1557SOL    HW2 7564   2.377   6.154   6.454 -0.3172 -0.8629  0.7751
 1558SOL     OW 7565   5.343   8.628   8.376 -0.8871 -0.7364 -0.0684
 1558SOL    HW1 7566   5.256   8.618   8.415 -1.1649 -1.4701 -0.8344
 1558SOL    HW2 7567   5.388   8.546   8.396 -0.1074 -0.0788  0.9315
 1559SOL     OW 7568   6.484   7.983   7.890 -0.0745  0.3694  0.0737
 1559SOL    HW1 7569   6.552   7.969   7.956 -0.0427 -1.1748 -0.2466
 1559SOL    HW2 7570   6.413   7.924   7.917 -1.0185  1.4230 -0.0032
 1560SOL     OW 7571   2.035   7.209   5.654 -0.3192  0.6948  0.0070
 1560SOL    HW1 7572   2.127   7.184   5.659 -0.4749  0.0655 -0.2063
 1560SOL    HW2 7573   1.987   7.133   5.685 -0.8028  0.6839 -0.7452
 1561SOL     OW 7574   8.236   3.286   2.413 -0.4914  0.1327  0.4390
 1561SOL    HW1 7575   8.157   3.247   2.375 -0.7827  1.4184 -0.3457
 1561SOL    HW2 7576   8.246   3.243   2.497 -1.9219 -0.1967  0.4673
 1562SOL     OW 7577   1.931   3.769   3.533  0.0751  0.3136  0.1779
 1562SOL    HW1 7578   2.004   3.706   3.532  0.0754  0.2764 -2.2056
 1562SOL    HW2 7579   1.911   3.784   3.441 -0.8270  2.8186  0.7161
 1563SOL     OW 7580   7.850   0.584   7.346  0.0474 -0.4896 -0.1917
 1563SOL    HW1 7581   7.804   0.603   7.264 -0.7154 -1.2566  0.0433
 1563SOL    HW2 7582   7.791   0.615   7.415  0.8209  0.4468  0.0900
 1564SOL     OW 7583   0.953   1.587   3.770 -0.2759  0.1357 -0.7505
 1564SOL    HW1 7584   1.019   1.531   3.811 -0.2676 -0.7940 -1.9945
 1564SOL    HW2 7585   0.981   1.676   3.792 -0.3788 -0.3098  1.3706
 1565SOL     OW 7586   7.128   2.357   2.942  0.1855 -0.5767  0.3754
 1565SOL    HW1 7587   7.168   2.434   2.903 -1.4560  0.5453  0.7660
 1565SOL    HW2 7588   7.105   2.301   2.868 -1.4660  0.8000 -0.2300
 1566SOL     OW 7589   7.436   3.290   1.858  0.1155 -0.1896 -0.4504
 1566SOL    HW1 7590   7.487   3.225   1.811 -0.0153 -0.0693 -0.7635
 1566SOL    HW2 7591   7.490   3.314   1.933  0.5772  0.0280 -0.8460
 1567SOL     OW 7592   8.731   6.861   8.672  0.1656  0.1512 -0.1609
 1567SOL    HW1 7593   8.812   6.902   8.642 -0.0319  1.8442  1.4435
 1567SOL    HW2 7594   8.759   6.775   8.704  0.9049 -0.2729 -1.8515
 1568SOL     OW 7595   3.395   8.109   3.438  0.0926  0.0942  0.5346
 1568SOL    HW1 7596   3.362   8.197   3.417  1.2214  0.4899  0.3499
 1568SOL    HW2 7597   3.398   8.065   3.353  0.0914  0.0786  0.5430
 1569SOL     OW 7598   5.154   3.692   7.657  0.4993 -0.1321  0.0730
 1569SOL    HW1 7599   5.126   3.600   7.659 -2.4917  0.6758  1.3840
 1569SOL    HW2 7600   5.171   3.710   7.565 -1.9396 -1.2243 -0.6635
 1570SOL     OW 7601   4.317   5.190   5.507  0.2237  0.0384 -0.2185
 1570SOL    HW1 7602   4.340   5.123   5.443  1.5815  1.4617 -1.2909
 1570SOL    HW2 7603   4.364   5.165   5.586  0.4706 -0.4437 -0.5130
 1571SOL     OW 7604   1.522   7.726   8.561 -0.0702  0.0656  0.0368
 1571SOL    HW1 7605   1.565   7.791   8.506 -0.1903  0.8233  0.8101
 1571SOL    HW2 7606   1.573   7.725   8.642  0.5925 -1.6224 -0.3626
 1572SOL     OW 7607   5.626   4.403   4.461 -0.0429 -0.0173 -0.6919
 1572SOL    HW1 7608   5.574   4.440   4.532 -0.3280  0.0395 -0.9291
 1572SOL    HW2 7609   5.569   4.336   4.422  1.1416 -2.1392  0.9697
 1573SOL     OW 7610   5.402   6.306   5.397 -0.1234  0.2132  0.0523
 1573SOL    HW1 7611   5.387   6.401   5.394  0.4066  0.2761 -1.0919
 1573SOL    HW2 7612   5.314   6.268   5.394 -0.3185  0.6668 -0.1659
 1574SOL     OW 7613   6.253   2.892   0.011  0.2321 -0.4056  0.1101
 1574SOL    HW1 7614   6.292   2.826   0.068 -3.0364 -0.3909  2.6529
 1574SOL    HW2 7615   6.174   2.851  -0.023  0.5477  0.6630 -2.1129
 1575SOL     OW 7616   5.861   5.537   0.557 -0.3996 -0.1040  1.0137
 1575SOL    HW1 7617   5.782   5.552   0.506 -0.0210  0.3178  0.5482
 1575SOL    HW2 7618   5.834   5.553   0.648 -1.5656 -2.6830  1.2201
 1576SOL     OW 7619   3.281   7.382   1.121  0.3423 -0.9592  0.1422
 1576SOL    HW1 7620   3.329   7.433   1.186 -0.9121  0.0655  0.3011
 1576SOL    HW2 7621   3.229   7.320   1.171  1.3871 -2.0085 -0.0269
 1577SOL     OW 7622   8.408   7.429   3.507 -0.9494  0.0934 -0.3637
 1577SOL    HW1 7623   8.497   7.423   3.541 -0.2050  2.4490 -1.6836
 1577SOL    HW2 7624   8.353   7.438   3.585  0.2463  1.0766  0.3988
 1578SOL     OW 7625   5.109   0.363   1.562  0.2126 -0.1221  0.9961
 1578SOL    HW1 7626   5.058   0.314   1.498  1.1536 -1.6648  1.3636
 1578SOL    HW2 7627   5.149   0.434   1.512 -2.0454  1.0165  0.6548
 1579SOL     OW 7628   5.735   3.636   7.671 -0.1673  0.4441 -0.1362
 1579SOL    HW1 7629   5.807   3.589   7.713 -0.2488  2.7281  2.8989
 1579SOL    HW2 7630   5.778   3.710   7.627 -0.4992  0.8607  0.2333
 1580SOL     OW 7631   2.198   1.765   4.754  0.0887  0.0132  0.5842
 1580SOL    HW1 7632   2.276   1.719   4.783 -1.3832 -2.6417  0.6474
 1580SOL    HW2 7633   2.187   1.738   4.662  0.7566  2.6650 -0.3790
 1581SOL     OW 7634   9.133   2.570   8.040  0.0454 -0.2015 -1.0835
 1581SOL    HW1 7635   9.093   2.512   7.975  1.1779  0.2232 -2.1808
 1581SOL    HW2 7636   9.214   2.600   8.000  2.0409 -1.7681  1.4020
 1582SOL     OW 7637   6.298   8.912   1.157 -0.0853 -0.6356  0.0613
 1582SOL    HW1 7638   6.335   9.000   1.157 -0.7006 -0.3709  0.1280
 1582SOL    HW2 7639   6.218   8.920   1.104 -0.1577 -1.1474  0.0900
 1583SOL     OW 7640   4.599   7.722   3.698  0.1510 -0.4577 -0.1400
 1583SOL    HW1 7641   4.685   7.697   3.663  0.6327 -0.8800  1.2582
 1583SOL    HW2 7642   4.569   7.644   3.745  0.2772  0.5819  1.7354
 1584SOL     OW 7643   8.486   7.778   2.503 -0.2559 -0.7427 -0.8965
 1584SOL    HW1 7644   8.513   7.866   2.478 -1.1640 -0.6912 -1.7890
 1584SOL    HW2 7645   8.535   7.720   2.444  1.9135 -1.0119  1.0456
 1585SOL     OW 7646   3.595   3.482   2.322 -0.4255  0.3369 -0.0971
 1585SOL    HW1 7647   3.598   3.434   2.404  1.0531 -1.7022 -1.2400
 1585SOL    HW2 7648   3.664   3.443   2.269 -0.9325  1.9811 -2.1062
 1586SOL     OW 7649   4.150   1.860   7.923  0.4721 -0.3642  0.1496
 1586SOL    HW1 7650   4.094   1.808   7.865 -0.1417  1.5403 -1.0623
 1586SOL    HW2 7651   4.215   1.899   7.864  2.1372 -1.2381  1.3039
 1587SOL     OW 7652   8.522   7.084   9.079 -0.2722 -0.9510 -0.1505
 1587SOL    HW1 7653   8.528   7.178   9.092 -0.4459 -1.0524  0.7504
 1587SOL    HW2 7654   8.427   7.066   9.077 -0.2786 -1.3622  1.8784
 1588SOL     OW 7655   3.181   7.413   0.756 -0.5004  0.1346  0.8361
 1588SOL    HW1 7656   3.254   7.440   0.700  0.1756 -0.8834  1.2048
 1588SOL    HW2 7657   3.208   7.441   0.844 -0.6637 -0.0241  0.9361
 1589SOL     OW 7658   5.918   5.145   0.270 -0.0933 -0.6535 -0.4349
 1589SOL    HW1 7659   5.933   5.154   0.176  1.0149  0.3130 -0.1784
 1589SOL    HW2 7660   6.003   5.121   0.306 -0.5587 -1.2557  0.3161
 1590SOL     OW 7661   6.882   4.249   0.045 -0.2927 -0.6890  0.8091
 1590SOL    HW1 7662   6.925   4.334   0.050 -1.3862 -0.0324 -0.3676
 1590SOL    HW2 7663   6.938   4.190   0.096  1.6171  0.2766 -0.0880
 1591SOL     OW 7664   8.899   0.628   1.604 -0.1480 -0.5257  0.2116
 1591SOL    HW1 7665   8.932   0.538   1.608  0.3962 -0.4852 -1.9656
 1591SOL    HW2 7666   8.978   0.682   1.602 -0.3732 -0.2109 -1.5216
 1592SOL     OW 7667   1.009   1.730   0.966 -0.6734 -0.8514  0.0096
 1592SOL    HW1 7668   0.936   1.669   0.955  0.0607 -1.7884  0.1514
 1592SOL    HW2 7669   1.051   1.731   0.880 -2.1767  1.5059 -0.7874
 1593SOL     OW 7670   3.093   8.913   0.330  0.2015 -0.3116  0.3646
 1593SOL    HW1 7671   3.128   8.955   0.251 -0.9786 -0.4034 -0.2410
 1593SOL    HW2 7672   3.099   8.819   0.312 -0.7286 -0.3284  0.0487
 1594SOL     OW 7673   2.141   4.276   0.931 -0.4522  0.2824  0.5723
 1594SOL    HW1 7674   2.083   4.250   0.860 -0.8302  1.0457  0.5895
 1594SOL    HW2 7675   2.083   4.312   0.998  0.0610  1.4739  0.4027
 1595SOL     OW 7676   6.052   4.377   2.230  0.0219 -0.3948 -0.6492
 1595SOL    HW1 7677   6.126   4.415   2.276 -1.0694  0.2748  0.5998
 1595SOL    HW2 7678   6.034   4.295   2.275  1.8072 -2.0867 -2.7861
 1596SOL     OW 7679   6.107   7.963   0.577  0.1959 -0.3111  0.0251
 1596SOL    HW1 7680   6.067   7.877   0.560 -0.5790 -0.1582  0.9962
 1596SOL    HW2 7681   6.116   8.003   0.490 -0.2738 -1.0032 -0.3539
 1597SOL     OW 7682   0.728   8.558   8.501 -0.2931 -0.4662 -0.3722
 1597SOL    HW1 7683   0.732   8.652   8.482 -1.6465 -0.3516 -0.1702
 1597SOL    HW2 7684   0.819   8.533   8.515  0.1521  0.6817 -1.0513
 1598SOL     OW 7685   8.993   6.032   8.429 -0.7723 -0.2754  0.1574
 1598SOL    HW1 7686   8.967   6.020   8.338 -1.5694 -0.8367  0.4494
 1598SOL    HW2 7687   8.960   6.119   8.452 -3.6719 -1.4356  0.8933
 1599SOL     OW 7688   5.030   8.105   9.151  0.8261 -0.3489  0.3559
 1599SOL    HW1 7689   5.104   8.096   9.090  0.2152  0.6810 -0.5768
 1599SOL    HW2 7690   4.954   8.074   9.101  0.2743  0.7469  0.4966
 1600SOL     OW 7691   4.812   3.211   3.265 -0.2829 -0.2777  0.2613
 1600SOL    HW1 7692   4.746   3.228   3.331  1.2074 -1.6244  2.2395
 1600SOL    HW2 7693   4.868   3.289   3.265 -1.7270  0.8331 -1.3677
 1601SOL     OW 7694   7.316   6.653   7.962 -0.1520 -0.3588 -0.1106
 1601SOL    HW1 7695   7.294   6.746   7.949 -2.2523 -0.7676  0.1434
 1601SOL    HW2 7696   7.363   6.628   7.883  1.1587  1.1065  0.1641
 1602SOL     OW 7697   1.198   2.177   1.110 -0.0526 -0.1308  0.5767
 1602SOL    HW1 7698   1.145   2.241   1.062 -0.5721 -0.2887  0.9361
 1602SOL    HW2 7699   1.161   2.176   1.198 -0.9868 -1.9669  0.2123
 1603SOL     OW 7700   2.086   4.693   5.548  0.0374  0.1846  0.3266
 1603SOL    HW1 7701   2.168   4.644   5.540 -0.4635 -0.3056 -3.6677
 1603SOL    HW2 7702   2.018   4.627   5.545 -0.5875  0.7741  1.0771
 1604SOL     OW 7703   5.792   0.642   2.009 -0.1292 -0.1020  0.0364
 1604SOL    HW1 7704   5.779   0.725   1.962  0.8769  0.2443  0.3467
 1604SOL    HW2 7705   5.747   0.577   1.955  0.0749  0.4627 -0.8344
 1605SOL     OW 7706   0.922   8.561   4.401 -0.6912  0.6043 -0.3536
 1605SOL    HW1 7707   0.909   8.491   4.465 -0.5227  0.1897 -0.7683
 1605SOL    HW2 7708   0.964   8.518   4.327 -0.2797  1.2122 -0.4800
 1606SOL     OW 7709   3.216   5.205   8.959  0.1150 -0.2692 -0.4463
 1606SOL    HW1 7710   3.251   5.263   8.891  1.2616  0.5273  0.7676
 1606SOL    HW2 7711   3.218   5.259   9.038 -0.5841 -1.3874  0.3464
 1607SOL     OW 7712   7.000   2.965   5.666  0.2613 -0.0633  0.3959
 1607SOL    HW1 7713   6.972   3.056   5.664 -0.2597 -0.2223 -2.1852
 1607SOL    HW2 7714   6.930   2.919   5.714 -0.0770  0.6880  0.6326
 1608SOL     OW 7715   8.433   2.675   4.902 -0.5632 -0.2102  0.0770
 1608SOL    HW1 7716   8.446   2.742   4.970  0.9261 -1.8507  1.5119
 1608SOL    HW2 7717   8.518   2.632   4.895 -1.1828 -1.2292 -1.6315
 1609SOL     OW 7718   4.152   0.872   4.109  0.6256  0.1039  0.1830
 1609SOL    HW1 7719   4.099   0.814   4.163  2.8555 -1.7078  0.5663
 1609SOL    HW2 7720   4.218   0.815   4.071  0.1245  1.5802 -3.2622
 1610SOL     OW 7721   1.576   9.227   1.920  0.2335 -0.0638 -0.3469
 1610SOL    HW1 7722   1.510   9.220   1.989  0.4581  2.5044  0.2355
 1610SOL    HW2 7723   1.594   9.137   1.895 -1.4770 -0.9695  1.3909
 1611SOL     OW 7724   1.517   8.179   7.346 -0.0425 -0.0249  0.4284
 1611SOL    HW1 7725   1.437   8.127   7.349 -0.8696  1.2669  2.0074
 1611SOL    HW2 7726   1.550   8.179   7.436  0.9569  0.6204  0.0854
 1612SOL     OW 7727   3.968   6.851   5.145  0.2402  0.0463  0.1615
 1612SOL    HW1 7728   3.928   6.787   5.086  2.3366 -0.1364 -1.1268
 1612SOL    HW2 7729   4.055   6.818   5.162  0.2688  0.9699  2.0635
 1613SOL     OW 7730   4.993   8.346   2.638 -0.0476 -0.5166 -0.2498
 1613SOL    HW1 7731   5.080   8.308   2.627  0.1718 -0.1468  0.1767
 1613SOL    HW2 7732   4.942   8.277   2.681  0.4247 -0.2486  0.7685
 1614SOL     OW 7733   4.358   6.188   6.562 -0.3945  0.1451  0.3454
 1614SOL    HW1 7734   4.355   6.280   6.589  2.8793  0.8953 -1.3034
 1614SOL    HW2 7735   4.427   6.185   6.495 -0.8989 -3.4042 -0.2190
 1615SOL     OW 7736   8.486   9.132   1.515 -0.1490 -0.0118 -0.2902
 1615SOL    HW1 7737   8.393   9.139   1.495 -0.3034 -0.5345  0.2195
 1615SOL    HW2 7738   8.520   9.070   1.451 -0.4835 -1.0698  0.5285
 1616SOL     OW 7739   3.979   0.447   4.224 -0.1624  0.2192 -0.0564
 1616SOL    HW1 7740   4.042   0.396   4.173  0.5987  0.5852  0.4970
 1616SOL    HW2 7741   4.025   0.529   4.243 -0.9245  0.6136  0.0988
 1617SOL     OW 7742   0.321   0.870   2.415  0.0959 -0.3099 -0.2949
 1617SOL    HW1 7743   0.350   0.817   2.340  1.0815  1.8954 -1.5752
 1617SOL    HW2 7744   0.368   0.832   2.489  2.2686 -0.1230 -1.4802
 1618SOL     OW 7745   0.056   2.263   2.478  0.1217 -0.4852 -0.1905
 1618SOL    HW1 7746   0.071   2.170   2.494  2.4375 -0.0611  0.4959
 1618SOL    HW2 7747   0.136   2.294   2.436  1.0129  1.8830  2.8033
 1619SOL     OW 7748   0.321   0.825   6.819 -0.4649  0.1114 -0.0301
 1619SOL    HW1 7749   0.275   0.903   6.849  0.6432  1.2282 -1.1108
 1619SOL    HW2 7750   0.414   0.845   6.831 -0.1527 -0.9570 -0.5189
 1620SOL     OW 7751   0.692   6.589   5.946 -0.1547  0.3179  0.1351
 1620SOL    HW1 7752   0.678   6.559   5.856 -1.6582 -0.6628  0.6739
 1620SOL    HW2 7753   0.787   6.601   5.952 -0.0600  0.9042 -1.7220
 1621SOL     OW 7754   4.188   7.443   6.182 -0.0397  0.0276 -0.6372
 1621SOL    HW1 7755   4.173   7.506   6.253  0.2273 -0.4285 -0.1630
 1621SOL    HW2 7756   4.218   7.496   6.108  1.3299  0.3580  0.1088
 1622SOL     OW 7757   5.268   3.194   7.152 -0.4864  0.6216  0.2788
 1622SOL    HW1 7758   5.347   3.142   7.162  0.2191  1.7103  0.5864
 1622SOL    HW2 7759   5.298   3.275   7.111 -1.7885  0.2252 -1.5531
 1623SOL     OW 7760   5.187   2.821   3.204 -0.2254  0.3693  0.2104
 1623SOL    HW1 7761   5.228   2.778   3.129 -1.0135  1.6457 -0.9981
 1623SOL    HW2 7762   5.159   2.749   3.260  0.4594 -0.6204 -0.6717
 1624SOL     OW 7763   7.860   3.098   0.231  0.6329 -0.0355 -0.1999
 1624SOL    HW1 7764   7.926   3.082   0.299 -0.5298 -1.6577  0.6142
 1624SOL    HW2 7765   7.840   3.011   0.196  0.3599  0.6505 -1.8226
 1625SOL     OW 7766   2.386   0.378   7.582 -0.5015 -0.3933  0.2531
 1625SOL    HW1 7767   2.299   0.339   7.584 -0.3375 -0.8013 -0.2308
 1625SOL    HW2 7768   2.431   0.331   7.511 -0.3256  0.7336 -0.4096
 1626SOL     OW 7769   1.288   0.762   5.716  0.3487  0.5347 -0.0493
 1626SOL    HW1 7770   1.210   0.706   5.717 -0.4244  1.5558 -0.5600
 1626SOL    HW2 7771   1.253   0.851   5.717  1.4331  1.0556 -2.0540
 1627SOL     OW 7772   7.765   1.849   3.328  0.4309 -0.1835 -0.4881
 1627SOL    HW1 7773   7.790   1.925   3.276  0.0184 -0.4624 -1.1002
 1627SOL    HW2 7774   7.670   1.853   3.333  0.3849 -0.7871 -0.7287
 1628SOL     OW 7775   2.957   7.974   0.534 -0.7198  0.2754  0.7541
 1628SOL    HW1 7776   2.921   7.958   0.446  0.1082 -1.0105  0.6242
 1628SOL    HW2 7777   2.939   7.894   0.582  1.6732 -0.3351  0.7612
 1629SOL     OW 7778   7.144   6.808   0.671 -0.3778 -0.2154  0.4095
 1629SOL    HW1 7779   7.146   6.893   0.626 -2.6504  0.3289  1.2116
 1629SOL    HW2 7780   7.059   6.771   0.647  0.5180 -2.2231  0.2118
 1630SOL     OW 7781   3.560   7.605   7.471  0.2279  0.0381  0.0415
 1630SOL    HW1 7782   3.616   7.681   7.458 -0.6474  0.7086  0.1365
 1630SOL    HW2 7783   3.548   7.601   7.566  0.2323 -0.1966  0.0322
 1631SOL     OW 7784   8.206   3.142   8.799 -0.2996 -0.4361 -0.0982
 1631SOL    HW1 7785   8.300   3.131   8.811 -0.2395 -0.7920 -0.7855
 1631SOL    HW2 7786   8.183   3.219   8.851  0.4655 -0.0370 -0.3364
 1632SOL     OW 7787   6.113   4.151   3.608  0.2112 -0.2991 -0.2973
 1632SOL    HW1 7788   6.170   4.077   3.629 -0.5235 -0.5849  0.7898
 1632SOL    HW2 7789   6.027   4.124   3.638 -0.6423 -0.1068 -2.4495
 1633SOL     OW 7790   7.287   7.733   7.369  0.6474  0.1576  0.4767
 1633SOL    HW1 7791   7.287   7.776   7.283 -1.4076  1.4085  1.0412
 1633SOL    HW2 7792   7.214   7.773   7.416  0.3217 -2.0877  2.0267
 1634SOL     OW 7793   0.951   0.323   7.298 -0.1179  0.6125 -0.1796
 1634SOL    HW1 7794   0.898   0.375   7.237 -0.8598 -0.4843 -0.5028
 1634SOL    HW2 7795   0.965   0.240   7.252 -1.3153 -0.5235  1.4087
 1635SOL     OW 7796   6.792   7.717   0.226  0.0344 -0.3379  0.4337
 1635SOL    HW1 7797   6.808   7.725   0.132  2.3248 -0.3223  0.7678
 1635SOL    HW2 7798   6.716   7.773   0.242 -1.3268 -1.4795 -1.5957
 1636SOL     OW 7799   2.380   4.851   3.937 -0.0776  0.0953  0.3144
 1636SOL    HW1 7800   2.423   4.780   3.889 -0.8731  0.3832 -0.8633
 1636SOL    HW2 7801   2.351   4.912   3.870 -1.6768  0.2687  1.0919
 1637SOL     OW 7802   8.631   9.035   4.240  0.3688 -0.4853 -0.1985
 1637SOL    HW1 7803   8.616   9.103   4.305  0.8182  0.0238 -0.6125
 1637SOL    HW2 7804   8.546   8.991   4.231  0.3748 -0.7627  0.9306
 1638SOL     OW 7805   8.960   8.960   3.368 -0.6517 -1.0903 -0.3875
 1638SOL    HW1 7806   9.025   9.023   3.401 -0.3187 -1.6366  0.0117
 1638SOL    HW2 7807   8.881   8.978   3.419 -1.2055  0.3584 -1.6612
 1639SOL     OW 7808   6.576   8.553   5.060 -0.3758  0.3347  0.4343
 1639SOL    HW1 7809   6.637   8.589   4.996 -1.5324 -2.7436 -2.7123
 1639SOL    HW2 7810   6.493   8.595   5.042 -0.1862  1.3549  1.7847
 1640SOL     OW 7811   7.212   1.520   8.488  0.8916  0.5407  0.3485
 1640SOL    HW1 7812   7.147   1.471   8.437  1.1075  1.9556 -1.3789
 1640SOL    HW2 7813   7.296   1.483   8.460  0.9299 -0.1256  1.3063
 1641SOL     OW 7814   6.516   8.202   2.602  0.6694  0.2172 -0.4899
 1641SOL    HW1 7815   6.439   8.252   2.575  1.0982  1.2321  0.1070
 1641SOL    HW2 7816   6.500   8.114   2.568 -0.6862  0.4368 -0.4896
 1642SOL     OW 7817   4.540   7.515   3.036  0.3148 -0.0288  0.5992
 1642SOL    HW1 7818   4.551   7.522   3.131  0.3028 -1.3161  0.7088
 1642SOL    HW2 7819   4.629   7.523   3.001  0.3460  0.2066  0.7253
 1643SOL     OW 7820   5.775   5.966   7.564  0.2594 -0.3565  0.6114
 1643SOL    HW1 7821   5.724   5.888   7.543  0.6428 -0.8546  1.4546
 1643SOL    HW2 7822   5.843   5.970   7.497 -0.9480  0.3960 -0.6071
 1644SOL     OW 7823   3.029   4.353   1.094  0.3162 -0.0205 -0.7451
 1644SOL    HW1 7824   3.017   4.441   1.059  0.3024  0.4082  0.3017
 1644SOL    HW2 7825   3.121   4.349   1.120  0.5753 -0.6717 -1.7225
 1645SOL     OW 7826   3.424   3.594   3.197  0.3120  0.1898  0.3184
 1645SOL    HW1 7827   3.479   3.660   3.155 -1.2362  0.6878 -1.0448
 1645SOL    HW2 7828   3.353   3.578   3.134 -0.8759 -0.7214  1.8066
 1646SOL     OW 7829   3.631   1.175   6.310  0.5088  0.2346  0.0515
 1646SOL    HW1 7830   3.564   1.157   6.375  1.5304 -1.1179  0.7900
 1646SOL    HW2 7831   3.684   1.246   6.348  0.2922  0.3850  0.0726
 1647SOL     OW 7832   3.852   7.959   3.822 -0.1016  0.2859 -0.1562
 1647SOL    HW1 7833   3.819   7.882   3.868  1.1530 -0.4581 -0.4600
 1647SOL    HW2 7834   3.924   7.990   3.876  0.3874  0.3219 -0.8176
 1648SOL     OW 7835   6.147   2.771   1.857 -0.2012  0.0025 -0.0645
 1648SOL    HW1 7836   6.204   2.840   1.890 -0.4797  0.1295  0.1551
 1648SOL    HW2 7837   6.112   2.729   1.936 -0.3299 -0.1444 -0.1975
 1649SOL     OW 7838   1.476   7.221   4.107  0.0016  0.0607  0.4171
 1649SOL    HW1 7839   1.534   7.166   4.054 -0.9244 -1.0451  0.5291
 1649SOL    HW2 7840   1.390   7.209   4.068 -0.3318  0.8978  0.8782
 1650SOL     OW 7841   0.871   4.535   1.499 -0.0537  0.4805 -0.5691
 1650SOL    HW1 7842   0.847   4.506   1.411  1.7334  1.0020 -1.2713
 1650SOL    HW2 7843   0.964   4.513   1.507  0.1641  1.7123  0.6442
 1651SOL     OW 7844   6.826   5.044   6.356 -0.4185 -0.1719  0.2894
 1651SOL    HW1 7845   6.775   5.113   6.399 -0.1012  0.4898 -0.3681
 1651SOL    HW2 7846   6.759   4.983   6.323 -0.8666  1.0043 -1.0992
 1652SOL     OW 7847   1.774   3.693   3.730  0.1033  0.4149 -0.3924
 1652SOL    HW1 7848   1.847   3.679   3.790 -0.3982  1.4574  0.4949
 1652SOL    HW2 7849   1.812   3.740   3.656  0.2443  1.4179  0.3089
 1653SOL     OW 7850   0.254   0.421   1.150  0.0142  0.1328  0.2866
 1653SOL    HW1 7851   0.262   0.447   1.242 -0.6959 -1.5422  0.8468
 1653SOL    HW2 7852   0.216   0.334   1.153  0.2407 -0.0601 -1.6058
 1654SOL     OW 7853   5.157   3.787   1.137 -0.2753 -0.6342  0.6120
 1654SOL    HW1 7854   5.183   3.706   1.093 -0.8636  0.5335 -2.0960
 1654SOL    HW2 7855   5.124   3.759   1.222 -3.4010 -3.6545 -1.3709
 1655SOL     OW 7856   7.458   1.434   6.242  0.5504 -0.0969  0.0317
 1655SOL    HW1 7857   7.538   1.484   6.256  0.3708 -0.1577  1.3655
 1655SOL    HW2 7858   7.440   1.391   6.326 -0.5547 -0.5581 -0.4112
 1656SOL     OW 7859   8.908   9.136   8.508  0.9665  0.6077 -0.6194
 1656SOL    HW1 7860   8.831   9.182   8.544  1.9375  2.1706 -0.4206
 1656SOL    HW2 7861   8.920   9.061   8.566 -0.0336  0.7039 -0.2696
 1657SOL     OW 7862   0.915   4.668   7.788  0.4014  0.2052 -0.2975
 1657SOL    HW1 7863   0.825   4.699   7.792 -0.2491 -1.6279  0.6647
 1657SOL    HW2 7864   0.907   4.574   7.771  2.2265  0.3777 -2.6139
 1658SOL     OW 7865   8.016   8.378   3.762  0.3248 -0.1224  0.3407
 1658SOL    HW1 7866   7.952   8.443   3.733  0.2321 -0.8068 -1.0952
 1658SOL    HW2 7867   8.059   8.418   3.837  0.6528  1.8470 -0.8069
 1659SOL     OW 7868   3.789   6.635   5.703 -0.2835  0.0381 -0.3853
 1659SOL    HW1 7869   3.739   6.593   5.633 -0.0612 -1.6171  0.4145
 1659SOL    HW2 7870   3.806   6.723   5.670 -3.1683  0.4713 -0.9591
 1660SOL     OW 7871   6.304   6.658   4.252 -0.3948  0.1485 -0.0455
 1660SOL    HW1 7872   6.299   6.563   4.248 -1.4240  0.2224 -1.7095
 1660SOL    HW2 7873   6.237   6.683   4.317 -2.3328 -0.1919 -1.7896
 1661SOL     OW 7874   3.728   7.661   3.695  0.2921  0.2379 -0.1252
 1661SOL    HW1 7875   3.704   7.721   3.765  2.7094 -0.9103  1.8539
 1661SOL    HW2 7876   3.663   7.591   3.700 -0.8016  1.1853 -0.5076
 1662SOL     OW 7877   1.464   3.904   1.752 -0.2477  0.1416 -0.1377
 1662SOL    HW1 7878   1.435   3.983   1.707  0.0775  0.2392 -0.1750
 1662SOL    HW2 7879   1.469   3.838   1.683 -0.1958  0.1746 -0.1660
 1663SOL     OW 7880   4.443   2.299   8.582 -0.1201 -0.5790  0.2521
 1663SOL    HW1 7881   4.411   2.389   8.579  0.2308 -0.4590 -2.2554
 1663SOL    HW2 7882   4.533   2.307   8.613 -0.0974 -0.0572  0.0635
 1664SOL     OW 7883   7.065   7.821   7.517 -0.0779  0.3444  0.5619
 1664SOL    HW1 7884   6.999   7.890   7.517 -0.9768 -0.4035 -1.9795
 1664SOL    HW2 7885   7.023   7.748   7.563 -0.6053  0.2620 -0.0336
 1665SOL     OW 7886   0.808   6.868   5.989  0.4707  0.6116  0.2635
 1665SOL    HW1 7887   0.866   6.804   5.948  0.6057  1.5329 -1.0450
 1665SOL    HW2 7888   0.856   6.896   6.067  1.4284  0.7397 -0.3494
 1666SOL     OW 7889   5.620   2.081   8.835  0.3588  0.1085 -0.1093
 1666SOL    HW1 7890   5.619   2.138   8.759 -3.0054 -0.3121 -0.5115
 1666SOL    HW2 7891   5.617   1.993   8.800 -1.6838 -0.0843  0.4143
 1667SOL     OW 7892   0.378   8.191   5.544  0.1220 -0.4131  0.0251
 1667SOL    HW1 7893   0.393   8.267   5.487 -0.3879 -0.4150 -0.1212
 1667SOL    HW2 7894   0.300   8.150   5.507  0.6186 -1.2355 -0.1301
 1668SOL     OW 7895   3.031   4.408   0.588 -0.6729 -0.1080  0.4168
 1668SOL    HW1 7896   3.082   4.384   0.510 -1.1371 -0.3171  0.1707
 1668SOL    HW2 7897   3.086   4.470   0.635 -0.9558  1.1001 -0.7832
 1669SOL     OW 7898   1.308   6.747   0.824  0.0745 -0.3897  0.2736
 1669SOL    HW1 7899   1.401   6.768   0.831  0.0565 -0.3692  0.4514
 1669SOL    HW2 7900   1.266   6.829   0.800  0.1823 -0.5413 -0.4397
 1670SOL     OW 7901   7.632   5.479   0.753 -0.5302  0.1345 -0.0429
 1670SOL    HW1 7902   7.626   5.421   0.829 -2.0203 -0.2246 -0.4106
 1670SOL    HW2 7903   7.725   5.479   0.730 -0.2211 -0.5643  1.1431
 1671SOL     OW 7904   1.440   7.557   7.301 -0.1243 -0.2895 -0.1724
 1671SOL    HW1 7905   1.351   7.534   7.328 -0.5019  0.8273 -0.3983
 1671SOL    HW2 7906   1.495   7.532   7.375 -0.7817  0.0906  0.4607
 1672SOL     OW 7907   3.365   5.271   4.829 -0.0012  0.2186  0.3158
 1672SOL    HW1 7908   3.410   5.215   4.892  0.3400  1.7054  1.4470
 1672SOL    HW2 7909   3.409   5.254   4.746  0.5217 -0.7010  0.7633
 1673SOL     OW 7910   1.546   2.649   7.947  0.3687  0.2953 -0.1822
 1673SOL    HW1 7911   1.494   2.710   7.894 -0.7925 -0.9522 -0.5326
 1673SOL    HW2 7912   1.588   2.591   7.883 -0.9000 -1.1111  0.1940
 1674SOL     OW 7913   0.889   6.705   1.638  0.6165 -0.3157 -0.2659
 1674SOL    HW1 7914   0.928   6.791   1.648 -0.9707  0.4280 -0.1884
 1674SOL    HW2 7915   0.799   6.722   1.611  0.6287 -1.9795 -1.5801
 1675SOL     OW 7916   5.292   1.468   1.181 -0.1697  0.8727  0.2739
 1675SOL    HW1 7917   5.334   1.458   1.267 -1.2749  0.2166  0.7509
 1675SOL    HW2 7918   5.338   1.406   1.125 -0.1675  0.5079  0.6698
 1676SOL     OW 7919   4.190   7.407   0.929  0.4493  0.3614  0.2426
 1676SOL    HW1 7920   4.148   7.326   0.898 -0.3960  0.9681 -0.2235
 1676SOL    HW2 7921   4.216   7.387   1.019 -0.9868  0.0101  0.5990
 1677SOL     OW 7922   2.673   8.780   7.519 -0.1555 -0.1870  0.1653
 1677SOL    HW1 7923   2.731   8.714   7.480  0.8878  0.3663  0.7098
 1677SOL    HW2 7924   2.679   8.855   7.460  0.5869  0.2704  0.7974
 1678SOL     OW 7925   2.068   3.691   8.631 -0.4707  0.0243  0.3960
 1678SOL    HW1 7926   2.021   3.774   8.622  0.4417  0.5609  0.4360
 1678SOL    HW2 7927   2.117   3.700   8.712 -0.9079 -0.8490  0.7692
 1679SOL     OW 7928   5.683   2.229   0.298  0.2450  0.1836  0.1938
 1679SOL    HW1 7929   5.653   2.174   0.226  0.2929 -0.0781  0.3704
 1679SOL    HW2 7930   5.763   2.269   0.265  0.3363 -0.0342  0.1472
 1680SOL     OW 7931   1.695   4.226   0.862  0.6801  0.1609 -0.4403
 1680SOL    HW1 7932   1.673   4.283   0.788  0.5438  0.2373 -0.3414
 1680SOL    HW2 7933   1.641   4.149   0.850  1.3781 -0.2628 -0.9642
 1681SOL     OW 7934   4.457   0.279   0.157  0.1851 -0.8166 -0.3929
 1681SOL    HW1 7935   4.542   0.305   0.192  0.3884  0.6183 -1.8341
 1681SOL    HW2 7936   4.477   0.214   0.091  0.0736 -1.1498 -0.1020
 1682SOL     OW 7937   1.535   2.411   5.644  0.1317 -0.2185  0.1096
 1682SOL    HW1 7938   1.476   2.381   5.714 -0.0157 -0.3966 -0.0933
 1682SOL    HW2 7939   1.595   2.338   5.631  0.1595 -0.1839  0.0471
 1683SOL     OW 7940   7.198   0.463   7.262  0.0196  1.4281  0.1841
 1683SOL    HW1 7941   7.113   0.501   7.241 -0.9889 -0.9783 -0.5238
 1683SOL    HW2 7942   7.184   0.420   7.347  0.0987 -0.0275 -0.5060
 1684SOL     OW 7943   4.904   3.319   2.342  0.4427  0.4628  0.5875
 1684SOL    HW1 7944   4.968   3.250   2.356 -1.4031 -1.1759  1.4643
 1684SOL    HW2 7945   4.827   3.273   2.308  0.2115  2.5674 -2.0826
 1685SOL     OW 7946   5.718   4.138   5.150  0.0107 -0.7503 -0.1215
 1685SOL    HW1 7947   5.687   4.096   5.230 -0.3406  0.7731  0.5771
 1685SOL    HW2 7948   5.804   4.174   5.173  0.2350 -0.9304 -0.6566
 1686SOL     OW 7949   0.635   4.028   9.251 -0.1686 -0.3949 -0.1299
 1686SOL    HW1 7950   0.544   4.001   9.240 -0.1007 -1.0136  0.7199
 1686SOL    HW2 7951   0.652   4.017   9.345  0.0144  2.1403  0.2145
 1687SOL     OW 7952   0.089   5.665   1.951 -0.6294 -0.6147  0.2892
 1687SOL    HW1 7953   0.101   5.661   2.046 -2.2989  1.6252  0.6728
 1687SOL    HW2 7954  -0.005   5.664   1.938 -0.4436 -2.3201 -1.5109
 1688SOL     OW 7955   8.470   8.256   2.428  0.1558 -0.0648 -0.2158
 1688SOL    HW1 7956   8.382   8.217   2.430 -0.0917  0.5066  0.1421
 1688SOL    HW2 7957   8.465   8.321   2.358  0.8726 -1.3531 -1.5166
 1689SOL     OW 7958   7.927   9.174   6.223  0.3042 -0.5065  0.9046
 1689SOL    HW1 7959   8.015   9.209   6.238 -0.1590 -0.1649  3.3860
 1689SOL    HW2 7960   7.941   9.088   6.184  1.6362  0.3179 -0.5455
 1690SOL     OW 7961   0.096   1.797   3.420  0.2447  0.0347 -0.3076
 1690SOL    HW1 7962   0.104   1.890   3.440 -0.3843  0.0296  0.0034
 1690SOL    HW2 7963   0.075   1.793   3.327 -0.0872  0.2201 -0.2399
 1691SOL     OW 7964   2.014   8.090   7.499 -0.6864  0.1710  0.8449
 1691SOL    HW1 7965   2.089   8.067   7.443 -1.1903 -3.8642  1.5092
 1691SOL    HW2 7966   2.052   8.101   7.586 -0.6560 -0.2141  0.8826
 1692SOL     OW 7967   5.013   4.984   2.191  0.1912 -0.2686  0.6422
 1692SOL    HW1 7968   5.058   4.947   2.115 -0.8684  0.3949 -0.3473
 1692SOL    HW2 7969   5.036   4.925   2.263  0.3970 -1.5370 -0.4061
 1693SOL     OW 7970   7.840   6.131   2.174  0.2697  0.1348 -0.1654
 1693SOL    HW1 7971   7.926   6.165   2.200  0.7435 -0.5925 -0.7343
 1693SOL    HW2 7972   7.849   6.036   2.182 -0.4084  0.0437 -0.4570
 1694SOL     OW 7973   0.518   0.834   2.600  0.2093  0.1055 -0.7548
 1694SOL    HW1 7974   0.516   0.753   2.651 -0.9286  0.0835 -0.7936
 1694SOL    HW2 7975   0.610   0.859   2.596  0.4915 -0.8134 -0.1489
 1695SOL     OW 7976   2.610   2.629   6.423  0.0996  0.4961 -0.4524
 1695SOL    HW1 7977   2.561   2.554   6.456 -0.8882  0.4700 -1.9058
 1695SOL    HW2 7978   2.699   2.596   6.410  0.4609  0.4211  1.7558
 1696SOL     OW 7979   2.686   0.240   8.179 -0.2180  0.1401 -0.2759
 1696SOL    HW1 7980   2.740   0.227   8.257 -0.1400  2.1053  0.0557
 1696SOL    HW2 7981   2.600   0.205   8.203  0.8474 -3.2984 -0.9151
 1697SOL     OW 7982   2.705   5.747   6.148 -0.2498 -0.0393  0.0826
 1697SOL    HW1 7983   2.674   5.670   6.195  0.7924 -0.9140 -0.6164
 1697SOL    HW2 7984   2.651   5.750   6.069 -0.2073 -0.1283  0.0501
 1698SOL     OW 7985   7.489   1.546   5.147 -0.0670  0.5218 -0.3330
 1698SOL    HW1 7986   7.422   1.605   5.114  0.4013  0.6336 -1.1157
 1698SOL    HW2 7987   7.479   1.466   5.095 -2.1199 -1.0077  2.1248
 1699SOL     OW 7988   3.383   4.960   5.573 -0.1727  0.5120 -0.3975
 1699SOL    HW1 7989   3.434   4.952   5.492  0.7851 -0.5316  0.2899
 1699SOL    HW2 7990   3.444   4.998   5.636  0.2280 -1.9713  0.8088
 1700SOL     OW 7991   2.453   5.245   8.876  0.3075 -0.6337  0.6144
 1700SOL    HW1 7992   2.409   5.321   8.914 -2.2762 -2.5039  1.6496
 1700SOL    HW2 7993   2.501   5.206   8.950 -0.0092 -1.1119  0.5662
 1701SOL     OW 7994   6.342   0.354   3.026 -0.1288 -0.1373  0.0430
 1701SOL    HW1 7995   6.401   0.357   2.951 -0.9251  2.1978 -0.5898
 1701SOL    HW2 7996   6.312   0.445   3.037 -1.2389 -0.6854  2.2290
 1702SOL     OW 7997   3.712   7.617   3.384 -0.4481 -0.6102 -0.1938
 1702SOL    HW1 7998   3.727   7.650   3.473  0.0173  1.7716 -1.0856
 1702SOL    HW2 7999   3.734   7.523   3.389  1.7434 -0.0819  1.6965
 1703SOL     OW 8000   2.907   8.038   1.969 -0.3482 -0.0610  0.6961
 1703SOL    HW1 8001   2.860   7.970   2.016 -1.5854  0.0524 -0.3199
 1703SOL    HW2 8002   2.906   8.113   2.028 -0.1603 -0.5063  1.2738
 1704SOL     OW 8003   6.100   0.088   1.046 -0.0099  0.6026 -0.2012
 1704SOL    HW1 8004   6.169   0.143   1.083  2.4128 -1.7884 -0.8277
 1704SOL    HW2 8005   6.024   0.105   1.101  1.8837  1.2126  2.4403
 1705SOL     OW 8006   0.491   1.114   5.898 -0.2969  0.1266  0.1790
 1705SOL    HW1 8007   0.528   1.050   5.837  1.4830  0.1591  1.1506
 1705SOL    HW2 8008   0.420   1.066   5.942  0.8265 -1.1221  0.6937
 1706SOL     OW 8009   3.651   1.417   4.048  0.7186 -0.6056  0.3424
 1706SOL    HW1 8010   3.698   1.449   3.971  0.3715 -2.6484 -0.7794
 1706SOL    HW2 8011   3.703   1.342   4.078 -1.1067 -2.1298 -0.1681
 1707SOL     OW 8012   1.896   8.292   7.292 -0.1552  0.1525  0.1757
 1707SOL    HW1 8013   1.886   8.199   7.316  1.0255 -0.2267 -0.7170
 1707SOL    HW2 8014   1.968   8.293   7.230 -0.0472  1.7114  0.2901
 1708SOL     OW 8015   4.635   0.969   7.056  0.2815  0.5713 -0.0203
 1708SOL    HW1 8016   4.641   0.913   7.134  1.5588  0.9994  0.2183
 1708SOL    HW2 8017   4.586   1.046   7.085  2.7071  1.8130  1.0834
 1709SOL     OW 8018   7.398   9.211   1.807 -0.4597  0.0213 -0.5996
 1709SOL    HW1 8019   7.451   9.215   1.886 -2.1490  2.8816  0.5574
 1709SOL    HW2 8020   7.431   9.282   1.752 -0.4078 -0.8590 -1.7351
 1710SOL     OW 8021   7.165   4.921   9.104  0.3281 -0.0595  0.2440
 1710SOL    HW1 8022   7.121   4.862   9.165 -0.7138 -0.1471 -0.5711
 1710SOL    HW2 8023   7.172   4.871   9.023  1.5913  0.0999  0.2256
 1711SOL     OW 8024   9.073   7.577   7.190  0.0873  0.4403  0.2046
 1711SOL    HW1 8025   9.049   7.544   7.104 -0.6319 -1.7405  1.1653
 1711SOL    HW2 8026   9.011   7.647   7.207 -0.6931 -0.0760 -0.4610
 1712SOL     OW 8027   0.861   0.201   5.819 -0.3853 -0.1305  0.3824
 1712SOL    HW1 8028   0.942   0.157   5.791 -0.5965  0.0331 -0.5329
 1712SOL    HW2 8029   0.891   0.281   5.861 -0.0678  0.0284 -0.1308
 1713SOL     OW 8030   2.665   7.835   1.022  0.3214  0.3088 -0.3999
 1713SOL    HW1 8031   2.606   7.886   0.966  1.9343  2.8008 -0.0094
 1713SOL    HW2 8032   2.748   7.884   1.020  0.8367 -0.1614  3.1301
 1714SOL     OW 8033   1.059   4.893   6.001  0.2758 -0.0162 -0.0069
 1714SOL    HW1 8034   1.103   4.909   5.918  1.0767 -0.5014  0.3213
 1714SOL    HW2 8035   1.130   4.885   6.065 -0.2981 -0.5308  0.5746
 1715SOL     OW 8036   4.231   6.834   2.262 -0.0506  0.1965 -0.2373
 1715SOL    HW1 8037   4.272   6.919   2.280  2.2609 -0.4951 -1.7608
 1715SOL    HW2 8038   4.211   6.799   2.349  0.5258  1.5547  0.4842
 1716SOL     OW 8039   7.874   7.048   0.777 -0.5158  0.1281 -0.1537
 1716SOL    HW1 8040   7.926   7.052   0.857  1.2037  0.0406 -1.2125
 1716SOL    HW2 8041   7.919   7.107   0.716 -2.3590  0.9868 -0.7623
 1717SOL     OW 8042   6.234   0.240   7.288 -0.1421  0.1019  0.4562
 1717SOL    HW1 8043   6.168   0.281   7.231 -0.6741 -1.2404  0.0684
 1717SOL    HW2 8044   6.307   0.301   7.288 -0.8164  0.9351 -0.2845
 1718SOL     OW 8045   3.710   0.347   4.152 -0.0497 -0.2194 -0.2817
 1718SOL    HW1 8046   3.691   0.264   4.108 -0.0202  1.4882 -3.8130
 1718SOL    HW2 8047   3.805   0.347   4.163 -0.0022 -0.4579 -0.6653
 1719SOL     OW 8048   4.974   5.268   7.846  0.0659 -0.0236  0.1265
 1719SOL    HW1 8049   5.016   5.353   7.852  1.3286 -0.7264  2.5289
 1719SOL    HW2 8050   4.916   5.264   7.922 -1.7384 -0.4557 -1.2148
 1720SOL     OW 8051   0.676   3.311   3.483  0.5132  0.4997 -0.2112
 1720SOL    HW1 8052   0.589   3.273   3.472 -0.0014  1.7821 -0.7067
 1720SOL    HW2 8053   0.736   3.236   3.478 -0.4923 -0.2855 -0.7536
 1721SOL     OW 8054   5.543   5.135   1.916  0.0714  0.2699 -0.3307
 1721SOL    HW1 8055   5.618   5.159   1.969 -0.3752  1.6795 -0.2994
 1721SOL    HW2 8056   5.474   5.195   1.943 -0.1763  1.0715 -2.5039
 1722SOL     OW 8057   5.422   2.575   1.834 -0.3302  0.3943  0.3419
 1722SOL    HW1 8058   5.417   2.516   1.909 -2.7834 -0.5569 -0.4569
 1722SOL    HW2 8059   5.499   2.547   1.786  1.2678  0.9835  2.4028
 1723SOL     OW 8060   5.277   7.152   0.952 -0.1739  0.1678  0.4156
 1723SOL    HW1 8061   5.209   7.150   0.885 -0.5147 -0.9270  0.7700
 1723SOL    HW2 8062   5.288   7.060   0.977  0.0911  0.5363  1.7062
 1724SOL     OW 8063   7.971   0.541   6.045  0.1788  0.2217  0.2220
 1724SOL    HW1 8064   7.947   0.452   6.071  0.1274  0.2686  0.3354
 1724SOL    HW2 8065   7.967   0.592   6.126 -0.4201  0.4644  0.0530
 1725SOL     OW 8066   6.387   4.651   0.638  0.3455  0.6884  0.0098
 1725SOL    HW1 8067   6.427   4.671   0.723 -1.5358 -2.5957  1.8777
 1725SOL    HW2 8068   6.451   4.594   0.595 -0.6983 -1.7798  1.5296
 1726SOL     OW 8069   4.529   0.395   5.351  0.1935 -0.1310 -0.3452
 1726SOL    HW1 8070   4.452   0.384   5.406  1.8003  1.0101  2.2838
 1726SOL    HW2 8071   4.536   0.489   5.336  1.5395 -0.1255  0.1820
 1727SOL     OW 8072   8.245   8.691   3.772 -0.0791 -0.2166 -1.0353
 1727SOL    HW1 8073   8.290   8.738   3.702 -1.8595  1.3995 -1.1904
 1727SOL    HW2 8074   8.153   8.694   3.747 -0.6592 -0.3748  0.9387
 1728SOL     OW 8075   7.174   6.998   6.597 -0.6297  0.0258  0.2747
 1728SOL    HW1 8076   7.095   6.946   6.608 -0.1334 -0.5484  1.2753
 1728SOL    HW2 8077   7.230   6.944   6.541 -1.7653  1.4018 -2.3724
 1729SOL     OW 8078   1.558   8.023   0.126  0.1948 -0.0765 -0.0223
 1729SOL    HW1 8079   1.549   7.930   0.147 -0.3017 -0.0639 -0.1638
 1729SOL    HW2 8080   1.469   8.052   0.107  0.2277  0.6394  0.8577
 1730SOL     OW 8081   7.049   2.625   9.117  0.0499 -0.5627 -0.1451
 1730SOL    HW1 8082   7.005   2.710   9.117  0.8069 -0.1634  0.0383
 1730SOL    HW2 8083   7.075   2.610   9.026 -0.8009 -0.9915 -0.3332
 1731SOL     OW 8084   0.532   2.592   5.720  0.1177 -0.0258 -0.1588
 1731SOL    HW1 8085   0.566   2.522   5.664  0.0444 -1.9089  1.9980
 1731SOL    HW2 8086   0.461   2.551   5.769 -0.9703  2.0310  0.1114
 1732SOL     OW 8087   9.017   6.570   3.897 -0.4104  0.1424 -0.2631
 1732SOL    HW1 8088   9.010   6.515   3.975  0.6798  0.4347  0.0618
 1732SOL    HW2 8089   9.109   6.565   3.873 -0.8038 -0.2642 -1.7939
 1733SOL     OW 8090   5.080   5.976   9.211 -0.1093  0.1256 -0.1306
 1733SOL    HW1 8091   5.058   6.068   9.221 -0.0058  0.0599  0.8020
 1733SOL    HW2 8092   5.090   5.944   9.300  1.5867 -0.3669 -0.4542
 1734SOL     OW 8093   3.440   6.874   3.171  0.3341  0.1152  0.1998
 1734SOL    HW1 8094   3.348   6.899   3.159  0.0996 -0.9471 -0.3898
 1734SOL    HW2 8095   3.437   6.803   3.235  0.8603  0.8120  0.9972
 1735SOL     OW 8096   6.510   1.716   5.110  0.7076 -0.2492 -0.7444
 1735SOL    HW1 8097   6.601   1.718   5.140  0.6101 -0.3038 -0.4332
 1735SOL    HW2 8098   6.481   1.627   5.129  0.3196  0.0216 -0.0062
 1736SOL     OW 8099   4.726   7.151   0.981 -0.4199 -0.4099  0.8332
 1736SOL    HW1 8100   4.772   7.177   1.061 -1.0733 -0.8355  1.3506
 1736SOL    HW2 8101   4.646   7.109   1.012 -0.1647 -1.5631 -0.0258
 1737SOL     OW 8102   6.876   8.233   0.741  0.3066 -0.0827  0.5775
 1737SOL    HW1 8103   6.950   8.290   0.721 -1.5081  2.5942  0.8598
 1737SOL    HW2 8104   6.876   8.227   0.837 -0.5909  1.1311  0.6815
 1738SOL     OW 8105   6.009   0.122   2.234 -0.3312  0.2755 -0.7421
 1738SOL    HW1 8106   6.074   0.086   2.294 -0.4946  0.9633 -0.1431
 1738SOL    HW2 8107   5.969   0.195   2.282 -2.5363 -0.9831 -0.5197
 1739SOL     OW 8108   9.171   0.997   0.814 -0.1835  0.0186  0.0384
 1739SOL    HW1 8109   9.082   1.009   0.848 -0.3472 -0.6444 -0.1401
 1739SOL    HW2 8110   9.160   0.937   0.740  0.5452 -1.0136  0.7445
 1740SOL     OW 8111   3.485   2.625   2.693  0.0850  0.3086 -0.2630
 1740SOL    HW1 8112   3.496   2.566   2.618  0.1409  0.8769 -0.7144
 1740SOL    HW2 8113   3.547   2.593   2.758  0.8256  0.4643 -0.8776
 1741SOL     OW 8114   4.401   4.539   0.962 -0.7117  0.2272  0.6579
 1741SOL    HW1 8115   4.440   4.626   0.977 -1.4490  0.4869  1.1697
 1741SOL    HW2 8116   4.426   4.516   0.873  0.9580  0.1910  1.1048
 1742SOL     OW 8117   7.373   5.048   5.455 -0.9768  0.2599 -0.1166
 1742SOL    HW1 8118   7.442   5.110   5.477 -0.9808  0.3671 -0.3965
 1742SOL    HW2 8119   7.390   5.026   5.363 -0.8219 -0.3540  0.0590
 1743SOL     OW 8120   7.086   3.590   8.507 -1.0161 -0.5256 -0.0003
 1743SOL    HW1 8121   7.086   3.680   8.542 -0.2939  0.2459 -1.8409
 1743SOL    HW2 8122   7.069   3.535   8.583  1.7106  0.9468  1.8389
 1744SOL     OW 8123   7.756   2.753   0.486 -0.1826 -0.3181 -0.0558
 1744SOL    HW1 8124   7.715   2.683   0.535 -1.3040  0.7403  0.5742
 1744SOL    HW2 8125   7.692   2.824   0.486  1.5942  1.3981  0.9253
 1745SOL     OW 8126   0.796   5.946   4.340 -0.1239  0.0366 -0.1438
 1745SOL    HW1 8127   0.844   5.865   4.358  0.9096  0.2356 -1.8170
 1745SOL    HW2 8128   0.704   5.919   4.333 -0.1135 -0.5919  1.5476
 1746SOL     OW 8129   1.283   8.033   6.072  0.0313 -0.3090 -0.0008
 1746SOL    HW1 8130   1.324   7.946   6.075 -2.0288 -1.4867 -2.0226
 1746SOL    HW2 8131   1.315   8.071   5.990 -0.0760  0.2959  0.2406
 1747SOL     OW 8132   1.532   6.931   0.808 -0.4929 -0.1001  0.2018
 1747SOL    HW1 8133   1.500   6.949   0.720 -0.5093  0.2778  0.2817
 1747SOL    HW2 8134   1.627   6.924   0.799 -0.5719 -0.9824  0.0038
 1748SOL     OW 8135   5.875   6.080   6.272 -0.3642  0.0732  0.3263
 1748SOL    HW1 8136   5.954   6.129   6.246 -0.8998  1.3007  0.9470
 1748SOL    HW2 8137   5.809   6.147   6.286 -0.9113 -0.7519  1.9839
 1749SOL     OW 8138   7.052   1.290   5.814 -0.2435 -0.2623  0.1276
 1749SOL    HW1 8139   7.141   1.322   5.798 -1.0785  0.8920 -2.7962
 1749SOL    HW2 8140   7.025   1.334   5.894  0.9558  1.3819 -0.3130
 1750SOL     OW 8141   6.441   0.455   1.547 -0.2511 -0.2333 -1.0306
 1750SOL    HW1 8142   6.475   0.375   1.507  2.0843  0.0418  0.2262
 1750SOL    HW2 8143   6.411   0.428   1.633 -1.0138 -0.0137 -1.2139
 1751SOL     OW 8144   3.460   3.099   3.553  0.1233 -0.2606  0.6091
 1751SOL    HW1 8145   3.452   3.006   3.531 -0.2074  0.1946 -1.3583
 1751SOL    HW2 8146   3.374   3.136   3.533 -0.6590  0.0388  3.9932
 1752SOL     OW 8147   1.403   1.090   6.667  0.0211  0.3319  0.0545
 1752SOL    HW1 8148   1.374   1.148   6.596  0.1642  0.4931  0.1281
 1752SOL    HW2 8149   1.472   1.139   6.711 -0.5509  0.5302  0.7496
 1753SOL     OW 8150   4.937   2.110   3.460 -0.6299  0.2452  0.8360
 1753SOL    HW1 8151   5.021   2.144   3.490 -0.2921  1.4008 -1.2071
 1753SOL    HW2 8152   4.953   2.085   3.369 -1.6101 -2.8792  1.4045
 1754SOL     OW 8153   3.879   7.641   7.325 -0.3144  0.0238  0.1008
 1754SOL    HW1 8154   3.823   7.681   7.259  0.8614 -0.3732 -1.1806
 1754SOL    HW2 8155   3.945   7.707   7.344  1.1974 -0.9444 -1.4772
 1755SOL     OW 8156   7.145   8.496   4.608  0.0488  0.2312  0.1042
 1755SOL    HW1 8157   7.074   8.509   4.670 -0.3025  0.1954 -0.2835
 1755SOL    HW2 8158   7.124   8.414   4.563  1.1015 -0.5548  0.9973
 1756SOL     OW 8159   1.908   4.041   5.388  0.4002 -0.2082  0.2768
 1756SOL    HW1 8160   1.844   4.066   5.455 -0.3371 -0.1666 -0.4235
 1756SOL    HW2 8161   1.928   4.123   5.343  1.4500 -0.1055  0.8994
 1757SOL     OW 8162   2.005   4.068   8.286  0.3400  0.5373 -0.6471
 1757SOL    HW1 8163   1.965   4.152   8.306 -2.4704 -0.7147 -0.5286
 1757SOL    HW2 8164   1.949   4.004   8.330  2.3680 -1.4254 -0.7335
 1758SOL     OW 8165   0.203   0.177   8.609  0.2896  0.1963  0.3016
 1758SOL    HW1 8166   0.161   0.102   8.567 -0.8660  0.8937  0.1805
 1758SOL    HW2 8167   0.203   0.154   8.702 -0.7066  0.3480  0.3445
 1759SOL     OW 8168   4.938   4.033   8.524 -0.2143 -0.3416 -0.0712
 1759SOL    HW1 8169   4.926   3.985   8.442  0.7810 -0.0193 -0.4229
 1759SOL    HW2 8170   4.946   4.125   8.497 -0.0501 -0.2141  0.3983
 1760SOL     OW 8171   6.729   5.610   3.352 -0.1191  0.4713  0.0380
 1760SOL    HW1 8172   6.714   5.584   3.261 -0.3768  0.4784  0.0771
 1760SOL    HW2 8173   6.795   5.548   3.384  0.3898  0.8209 -0.3185
 1761SOL     OW 8174   5.020   1.765   2.476 -0.2445  0.8287  0.0050
 1761SOL    HW1 8175   5.067   1.813   2.544  1.3136 -1.2349  0.4902
 1761SOL    HW2 8176   4.947   1.724   2.522 -0.4035  1.0967 -0.0045
 1762SOL     OW 8177   4.104   4.931   7.995 -0.5175 -0.5988 -0.1093
 1762SOL    HW1 8178   4.120   4.872   8.069 -0.4773 -0.2972  0.1268
 1762SOL    HW2 8179   4.189   4.937   7.951  0.1269  1.1299  1.2389
 1763SOL     OW 8180   8.758   2.343   2.893 -0.6489  0.3259  0.5274
 1763SOL    HW1 8181   8.843   2.386   2.902  1.1145 -3.1312  1.9400
 1763SOL    HW2 8182   8.759   2.307   2.804 -0.4750 -0.0737  0.6935
 1764SOL     OW 8183   1.288   5.570   1.702  0.1336  0.2377 -0.4335
 1764SOL    HW1 8184   1.221   5.590   1.638 -0.4967 -2.9364 -0.9463
 1764SOL    HW2 8185   1.249   5.594   1.786 -0.0024  2.1247 -0.9949
 1765SOL     OW 8186   7.488   6.901   6.196 -0.0411 -0.3905 -0.3620
 1765SOL    HW1 8187   7.438   6.885   6.116  0.8876  1.9592 -1.4902
 1765SOL    HW2 8188   7.435   6.964   6.245 -0.3589 -1.4324  0.6784
 1766SOL     OW 8189   6.091   0.804   7.347  0.5329 -0.0845 -0.1300
 1766SOL    HW1 8190   6.078   0.870   7.415  0.4300  0.6773 -0.8719
 1766SOL    HW2 8191   6.112   0.724   7.395 -2.0168 -0.2163  0.9208
 1767SOL     OW 8192   0.645   3.817   3.497  0.0966 -0.7267 -0.1667
 1767SOL    HW1 8193   0.572   3.831   3.438 -0.9553 -0.7630  1.0708
 1767SOL    HW2 8194   0.677   3.729   3.476 -1.1873 -1.3149  0.2662
 1768SOL     OW 8195   2.661   7.466   4.952 -0.5942  0.1421 -0.2481
 1768SOL    HW1 8196   2.590   7.422   4.998  0.4400 -1.5971 -0.2195
 1768SOL    HW2 8197   2.682   7.541   5.007 -1.8254  0.1931  0.1807
 1769SOL     OW 8198   6.606   1.760   3.338  0.7395 -0.0046 -0.2200
 1769SOL    HW1 8199   6.574   1.823   3.402 -0.3317 -1.1083  0.3606
 1769SOL    HW2 8200   6.623   1.681   3.388 -1.0006 -1.1877 -1.3939
 1770SOL     OW 8201   0.987   3.695   6.778 -0.2551 -0.1316 -0.9655
 1770SOL    HW1 8202   1.018   3.605   6.778 -0.3440 -0.1626 -0.7771
 1770SOL    HW2 8203   0.987   3.721   6.686  0.2845 -0.1467 -0.9717
 1771SOL     OW 8204   0.882   5.175   3.338  0.3048 -0.6123  0.5736
 1771SOL    HW1 8205   0.831   5.154   3.416  3.5491 -2.3365  2.4594
 1771SOL    HW2 8206   0.941   5.244   3.367  0.5328 -0.1858 -0.8602
 1772SOL     OW 8207   4.722   4.987   8.037 -0.0324  0.4152 -0.2985
 1772SOL    HW1 8208   4.748   5.060   8.093  1.1335 -1.3966  1.6913
 1772SOL    HW2 8209   4.805   4.951   8.004 -0.4559 -0.8521 -0.0485
 1773SOL     OW 8210   4.294   0.775   8.944 -0.1578 -0.4745  0.3736
 1773SOL    HW1 8211   4.335   0.733   9.019 -0.9339 -2.2019 -0.1252
 1773SOL    HW2 8212   4.248   0.851   8.981  0.6138 -0.5065  1.4240
 1774SOL     OW 8213   7.754   8.026   8.831 -0.0252  0.5758 -0.1127
 1774SOL    HW1 8214   7.707   7.983   8.902  1.1142 -0.5368  0.0168
 1774SOL    HW2 8215   7.739   7.971   8.754 -0.8738  1.5217 -0.6436
 1775SOL     OW 8216   8.667   2.087   9.067  0.4526  0.1273  0.2297
 1775SOL    HW1 8217   8.603   2.038   9.119 -1.0449  0.5789 -1.1224
 1775SOL    HW2 8218   8.743   2.097   9.126 -1.0095  0.3013  2.1903
 1776SOL     OW 8219   3.134   8.069   2.446  0.0567  0.3260  0.4979
 1776SOL    HW1 8220   3.123   8.159   2.416  0.2822 -0.0694 -0.8294
 1776SOL    HW2 8221   3.224   8.065   2.478  0.0555  0.5680  0.5287
 1777SOL     OW 8222   8.445   8.841   2.567  0.4241 -0.4597 -0.0717
 1777SOL    HW1 8223   8.363   8.848   2.615  0.1225 -1.3663 -0.4301
 1777SOL    HW2 8224   8.513   8.854   2.633  0.0463  2.9451 -0.1691
 1778SOL     OW 8225   4.462   3.310   4.034 -0.1359  0.1327 -0.0382
 1778SOL    HW1 8226   4.429   3.299   4.123  0.2188  0.3899  0.1262
 1778SOL    HW2 8227   4.552   3.280   4.037 -0.1848 -0.0606 -0.3631
 1779SOL     OW 8228   8.798   0.063   7.238  0.3538  0.2958 -0.4557
 1779SOL    HW1 8229   8.792   0.157   7.254 -1.2354  0.0301  0.7915
 1779SOL    HW2 8230   8.717   0.042   7.191 -0.9377 -0.9105  2.1351
 1780SOL     OW 8231   7.657   5.897   3.836  0.1792 -0.0784 -0.0041
 1780SOL    HW1 8232   7.673   5.858   3.922  1.3656 -0.9552 -0.6005
 1780SOL    HW2 8233   7.577   5.949   3.848  0.0059 -0.6392  1.4719
 1781SOL     OW 8234   7.365   3.519   3.992 -0.2495  0.3994 -0.0664
 1781SOL    HW1 8235   7.272   3.503   3.976 -0.0508  1.1083 -2.2297
 1781SOL    HW2 8236   7.410   3.481   3.916  1.4142 -1.4180  1.7286
 1782SOL     OW 8237   1.961   7.059   0.429 -0.2830 -0.2466 -0.4043
 1782SOL    HW1 8238   1.889   7.101   0.476  0.8195  1.0007  0.2396
 1782SOL    HW2 8239   2.031   7.053   0.494  0.9065  0.5108 -1.5818
 1783SOL     OW 8240   6.682   4.323   8.941  0.4502 -0.4784  0.4295
 1783SOL    HW1 8241   6.657   4.276   9.021 -0.5449 -2.2870 -0.8654
 1783SOL    HW2 8242   6.671   4.259   8.871 -0.6881  1.6062 -1.4419
 1784SOL     OW 8243   3.462   3.481   1.947 -0.9246 -0.0680 -0.2240
 1784SOL    HW1 8244   3.540   3.524   1.981  0.8490 -0.3456 -3.4998
 1784SOL    HW2 8245   3.469   3.391   1.978  0.4704 -0.2470 -0.9613
 1785SOL     OW 8246   4.681   7.911   5.507 -0.0821  0.3032  0.2403
 1785SOL    HW1 8247   4.735   7.950   5.575  2.0468 -1.8764 -0.0444
 1785SOL    HW2 8248   4.714   7.948   5.425 -1.6573  1.8177  0.2391
 1786SOL     OW 8249   9.068   7.051   6.254 -0.3584 -0.2867  0.4409
 1786SOL    HW1 8250   9.036   7.015   6.337 -1.4321 -2.4792 -0.8090
 1786SOL    HW2 8251   8.991   7.093   6.215 -0.0464  0.0937  0.2281
 1787SOL     OW 8252   2.750   1.700   8.608 -0.2374  0.3803 -0.1454
 1787SOL    HW1 8253   2.668   1.727   8.568  0.5637  0.2694 -1.9653
 1787SOL    HW2 8254   2.738   1.608   8.628 -0.6064  0.3987 -0.2830
 1788SOL     OW 8255   3.121   8.780   0.610  0.1287 -0.0600 -0.7374
 1788SOL    HW1 8256   3.178   8.720   0.660  0.0649 -0.0653 -0.6716
 1788SOL    HW2 8257   3.173   8.860   0.603 -0.6191  0.6473  1.0595
 1789SOL     OW 8258   3.344   8.225   6.637  0.0206  0.3822  0.4777
 1789SOL    HW1 8259   3.333   8.148   6.693 -0.6641  0.3665  0.3233
 1789SOL    HW2 8260   3.298   8.204   6.556  1.0312  0.3934 -0.1225
 1790SOL     OW 8261   3.120   0.452   2.906 -0.5871  0.2048 -0.3209
 1790SOL    HW1 8262   3.190   0.516   2.905 -0.4373  0.0644  0.5599
 1790SOL    HW2 8263   3.153   0.380   2.959 -1.6288  0.4125  0.6507
 1791SOL     OW 8264   1.195   0.515   0.910 -0.0839  0.4187 -0.4570
 1791SOL    HW1 8265   1.287   0.511   0.937  0.6589  2.5985 -2.4027
 1791SOL    HW2 8266   1.163   0.426   0.926  2.4699 -0.5481 -0.1311
 1792SOL     OW 8267   4.988   4.502   9.240 -0.3040  0.1079  0.5473
 1792SOL    HW1 8268   4.949   4.587   9.263 -0.6600  0.0295  0.2496
 1792SOL    HW2 8269   5.012   4.463   9.324 -1.4448 -0.1078  0.7913
 1793SOL     OW 8270   4.407   2.225   4.936 -0.2720  0.1938 -0.3308
 1793SOL    HW1 8271   4.481   2.232   4.875 -3.1275  2.9872 -3.9357
 1793SOL    HW2 8272   4.391   2.131   4.943  2.2748 -0.3835 -1.0987
 1794SOL     OW 8273   6.440   8.643   7.136  0.7165  0.4971 -0.3448
 1794SOL    HW1 8274   6.357   8.667   7.093 -0.4470  0.5448  1.7619
 1794SOL    HW2 8275   6.488   8.726   7.143 -1.5267  1.7663  3.2419
 1795SOL     OW 8276   1.688   0.763   6.849  0.1048 -0.3505  0.5223
 1795SOL    HW1 8277   1.605   0.778   6.804  0.1683 -0.4059  0.3855
 1795SOL    HW2 8278   1.749   0.824   6.807  0.0959 -0.1990  0.7291
 1796SOL     OW 8279   0.112   4.120   3.568 -0.6446  0.4611  0.5673
 1796SOL    HW1 8280   0.063   4.124   3.650 -2.7470 -0.5474 -0.5502
 1796SOL    HW2 8281   0.074   4.045   3.522  1.9294 -0.2995 -0.4549
 1797SOL     OW 8282   3.513   3.619   7.993  0.1212  0.3738 -0.1701
 1797SOL    HW1 8283   3.461   3.695   7.968  0.4167  0.2122 -1.3347
 1797SOL    HW2 8284   3.450   3.560   8.035 -0.9345 -0.2992 -2.5360
 1798SOL     OW 8285   4.839   3.422   8.338  0.0721  0.3458  0.0079
 1798SOL    HW1 8286   4.921   3.423   8.387  0.5286 -0.1823 -0.7435
 1798SOL    HW2 8287   4.801   3.509   8.355  0.9729  0.7473  0.0313
 1799SOL     OW 8288   7.737   1.250   0.360  0.0091 -0.2366  0.0790
 1799SOL    HW1 8289   7.784   1.325   0.323  0.6749 -1.0220 -0.7041
 1799SOL    HW2 8290   7.800   1.207   0.417  0.6178 -1.8373 -1.7015
 1800SOL     OW 8291   3.210   6.210   1.850  0.0475 -0.5518  0.2269
 1800SOL    HW1 8292   3.119   6.180   1.841  0.6552 -3.3892  2.1719
 1800SOL    HW2 8293   3.262   6.131   1.833  2.1704  0.9023 -0.3566
 1801SOL     OW 8294   4.650   1.390   1.946 -0.1359  0.3231  0.3728
 1801SOL    HW1 8295   4.555   1.396   1.942 -0.4677 -1.8987  2.5199
 1801SOL    HW2 8296   4.677   1.368   1.857 -1.7158  0.0217 -0.0503
 1802SOL     OW 8297   5.510   5.692   0.046 -0.6012 -0.3939  0.3531
 1802SOL    HW1 8298   5.447   5.732   0.106 -1.6498 -1.5934  0.0870
 1802SOL    HW2 8299   5.460   5.679  -0.035  0.3142 -0.3523 -0.2315
 1803SOL     OW 8300   2.178   2.086   6.775  0.0030  0.1165 -0.0600
 1803SOL    HW1 8301   2.181   2.005   6.826  1.1496 -0.1141 -0.4864
 1803SOL    HW2 8302   2.117   2.068   6.704  0.3129 -0.3975 -0.1961
 1804SOL     OW 8303   8.312   4.015   7.266  0.3879 -0.1344 -0.2141
 1804SOL    HW1 8304   8.404   4.008   7.292  0.0024  1.1575  1.7626
 1804SOL    HW2 8305   8.264   3.974   7.338 -0.7092  2.8108  0.9047
 1805SOL     OW 8306   2.339   8.570   8.645  0.2126 -0.0183 -0.1600
 1805SOL    HW1 8307   2.247   8.547   8.650  0.3888 -0.7460 -0.2727
 1805SOL    HW2 8308   2.339   8.666   8.639 -0.6524 -0.1101 -3.0856
 1806SOL     OW 8309   0.062   5.565   4.784 -0.3414  0.4216  0.1038
 1806SOL    HW1 8310   0.042   5.557   4.691 -1.4092  0.4489  0.3155
 1806SOL    HW2 8311  -0.019   5.538   4.828  0.1433  0.4332  1.0209
 1807SOL     OW 8312   2.142   4.884   0.884  0.2880 -0.3432  0.0453
 1807SOL    HW1 8313   2.111   4.859   0.972  1.6110  1.8618  1.2350
 1807SOL    HW2 8314   2.083   4.955   0.858  2.1095  1.5820  0.8695
 1808SOL     OW 8315   1.317   8.082   8.386  0.2831 -0.2145 -0.1934
 1808SOL    HW1 8316   1.363   7.999   8.393  0.2989 -0.2441 -0.5947
 1808SOL    HW2 8317   1.226   8.061   8.404  0.3162 -0.2840 -0.1059
 1809SOL     OW 8318   5.980   9.111   5.932 -0.5753 -0.4342 -0.8295
 1809SOL    HW1 8319   6.006   9.167   5.859 -0.7345 -1.0072 -1.3387
 1809SOL    HW2 8320   6.052   9.120   5.995 -1.2339  1.3893 -0.2798
 1810SOL     OW 8321   8.844   0.755   2.528 -0.4292 -0.3749  0.5480
 1810SOL    HW1 8322   8.858   0.827   2.467 -0.7219 -0.0585  0.8472
 1810SOL    HW2 8323   8.749   0.745   2.531 -0.3701 -1.0981  0.1388
 1811SOL     OW 8324   2.592   7.563   0.049 -0.2792  0.8347 -0.2191
 1811SOL    HW1 8325   2.600   7.653   0.018 -0.1925  0.7104 -0.5647
 1811SOL    HW2 8326   2.682   7.537   0.068 -0.2359  0.6233 -0.6957
 1812SOL     OW 8327   3.789   2.530   7.845 -0.4045 -0.0704 -0.4052
 1812SOL    HW1 8328   3.697   2.519   7.870 -0.5770  0.2847 -0.8751
 1812SOL    HW2 8329   3.838   2.509   7.924 -0.8697 -0.7401 -0.2873
 1813SOL     OW 8330   2.848   5.450   6.253  0.1380 -0.2027 -0.4164
 1813SOL    HW1 8331   2.902   5.421   6.326 -0.5000  0.4160  0.3207
 1813SOL    HW2 8332   2.761   5.463   6.291 -0.2791 -0.1482 -1.3503
 1814SOL     OW 8333   5.550   5.952   2.266  0.5193 -0.4502  0.0415
 1814SOL    HW1 8334   5.467   5.995   2.245  0.2877 -0.8402  0.1513
 1814SOL    HW2 8335   5.612   5.985   2.201  1.0690  2.2598  1.7868
 1815SOL     OW 8336   0.580   4.081   0.271 -0.1405 -0.1781  0.4768
 1815SOL    HW1 8337   0.487   4.094   0.249 -0.1199 -0.5241  0.1661
 1815SOL    HW2 8338   0.580   4.002   0.325 -0.0499 -0.0449  0.6719
 1816SOL     OW 8339   4.440   1.628   6.255  0.6550 -0.2377 -0.5435
 1816SOL    HW1 8340   4.497   1.693   6.214  0.5148  0.8620  0.9231
 1816SOL    HW2 8341   4.417   1.666   6.340  1.4101 -2.6629  0.8446
 1817SOL     OW 8342   1.333   0.564   6.014  0.6721  0.5893  0.4509
 1817SOL    HW1 8343   1.357   0.533   5.927 -2.5687 -0.7966 -0.0785
 1817SOL    HW2 8344   1.368   0.497   6.074 -0.6034 -0.6822 -0.1702
 1818SOL     OW 8345   6.688   7.162   7.341  1.0041  0.2969 -0.4786
 1818SOL    HW1 8346   6.615   7.210   7.301  1.7924  1.2535 -0.8170
 1818SOL    HW2 8347   6.666   7.157   7.434  0.6982  0.9226 -0.5126
 1819SOL     OW 8348   7.865   0.953   9.148 -0.5649  0.2598  0.0757
 1819SOL    HW1 8349   7.953   0.916   9.139 -0.7091  0.2739 -1.8536
 1819SOL    HW2 8350   7.874   1.020   9.215  1.1010  0.8304 -0.6662
 1820SOL     OW 8351   3.394   1.503   4.446 -0.0585  0.2416  0.2319
 1820SOL    HW1 8352   3.449   1.498   4.524 -0.1629  0.3644  0.3133
 1820SOL    HW2 8353   3.371   1.595   4.438  0.4641  0.3361 -0.3022
 1821SOL     OW 8354   2.969   6.657   7.499  0.3425 -0.1119 -0.0167
 1821SOL    HW1 8355   2.886   6.706   7.493  0.1624 -0.3738  0.3120
 1821SOL    HW2 8356   2.974   6.610   7.416 -0.1041 -0.5056  0.1732
 1822SOL     OW 8357   0.421   7.284   2.017 -0.0738  0.1254  0.3055
 1822SOL    HW1 8358   0.461   7.325   1.940  0.2392  0.2580  0.5391
 1822SOL    HW2 8359   0.412   7.192   1.993  0.8884 -0.0213  0.4577
 1823SOL     OW 8360   6.171   8.569   4.904 -0.2280 -0.7653 -0.8726
 1823SOL    HW1 8361   6.242   8.604   4.957  0.0173 -2.2781 -0.1576
 1823SOL    HW2 8362   6.201   8.577   4.814 -0.2097  0.8723 -0.7401
 1824SOL     OW 8363   8.464   5.351   3.329  0.4307 -0.6594 -0.1018
 1824SOL    HW1 8364   8.449   5.375   3.421  1.1534 -0.0679 -0.1274
 1824SOL    HW2 8365   8.472   5.256   3.330 -1.4450 -0.8600  0.1611
 1825SOL     OW 8366   7.877   6.768   2.012  0.4615 -0.0223 -0.1502
 1825SOL    HW1 8367   7.919   6.839   2.061  1.9008 -1.4746  0.8377
 1825SOL    HW2 8368   7.784   6.787   2.018  0.6964  0.7644  1.7887
 1826SOL     OW 8369   6.983   4.409   0.522  0.2978 -0.4215 -0.0566
 1826SOL    HW1 8370   6.890   4.396   0.504  0.6677 -3.6357 -0.2255
 1826SOL    HW2 8371   6.999   4.502   0.503 -2.7225  0.0945 -0.5069
 1827SOL     OW 8372   3.645   9.030   1.396  0.4709 -0.5484 -0.2681
 1827SOL    HW1 8373   3.737   9.052   1.413  0.3379 -0.3292  0.1929
 1827SOL    HW2 8374   3.597   9.079   1.462  0.0354 -0.8433 -0.3667
 1828SOL     OW 8375   8.327   7.348   4.029 -0.2026 -0.3011 -0.4640
 1828SOL    HW1 8376   8.296   7.304   3.949 -0.0807  0.4631 -0.9475
 1828SOL    HW2 8377   8.295   7.438   4.020 -0.5171 -0.3086  0.5422
 1829SOL     OW 8378   5.927   0.846   4.735  0.4681  0.0735 -0.4814
 1829SOL    HW1 8379   5.902   0.938   4.736  1.2607  0.3199  1.1336
 1829SOL    HW2 8380   5.998   0.840   4.671  0.2295  0.5242 -0.7892
 1830SOL     OW 8381   3.333   8.673   3.106  0.0514  0.4189 -0.4093
 1830SOL    HW1 8382   3.402   8.736   3.084  2.2561 -2.0953 -1.0932
 1830SOL    HW2 8383   3.333   8.669   3.201 -0.5986  1.8800 -0.3149
 1831SOL     OW 8384   3.196   6.266   5.991 -0.0345 -0.0488  0.5006
 1831SOL    HW1 8385   3.262   6.312   6.044 -1.4739  0.7056  1.7497
 1831SOL    HW2 8386   3.113   6.284   6.037 -1.1045 -0.9591 -1.0006
 1832SOL     OW 8387   4.370   7.472   6.804 -0.1355  0.8430 -0.2159
 1832SOL    HW1 8388   4.350   7.517   6.886  0.1134 -1.7927  1.4082
 1832SOL    HW2 8389   4.462   7.494   6.787  0.2821  0.2699  1.0871
 1833SOL     OW 8390   3.830   4.559   6.011 -0.3949 -0.1932 -0.6147
 1833SOL    HW1 8391   3.919   4.524   6.003  0.1727  0.8460  0.7649
 1833SOL    HW2 8392   3.809   4.592   5.924  1.1135  0.7391 -0.6496
 1834SOL     OW 8393   0.269   0.200   9.184 -0.0830 -0.2123  0.3705
 1834SOL    HW1 8394   0.214   0.238   9.253  0.3803 -1.1709  1.3006
 1834SOL    HW2 8395   0.309   0.124   9.225  0.9150 -0.2869 -0.7023
 1835SOL     OW 8396   2.036   3.113   1.030  0.2597 -0.0456 -0.1960
 1835SOL    HW1 8397   2.130   3.123   1.016  0.3291 -0.5713 -0.1441
 1835SOL    HW2 8398   2.008   3.195   1.070  0.5791  0.3608 -0.7955
 1836SOL     OW 8399   0.534   4.842   0.571  0.1535 -0.3254 -0.1354
 1836SOL    HW1 8400   0.475   4.912   0.546  0.1126 -0.3756 -0.1777
 1836SOL    HW2 8401   0.478   4.765   0.583  0.2568 -0.4629 -0.5316
 1837SOL     OW 8402   3.510   4.352   2.648 -0.4464 -0.2165  0.5702
 1837SOL    HW1 8403   3.435   4.397   2.608  0.1916  0.6127  0.2897
 1837SOL    HW2 8404   3.508   4.379   2.740  0.3802  1.0307  0.2449
 1838SOL     OW 8405   5.133   7.737   6.071 -0.0576  0.2328  0.0762
 1838SOL    HW1 8406   5.156   7.741   5.978  2.7069  1.0388  0.7147
 1838SOL    HW2 8407   5.096   7.650   6.083  0.6651 -0.3333 -1.5419
 1839SOL     OW 8408   6.671   2.625   0.344  0.4151 -0.1982 -0.3506
 1839SOL    HW1 8409   6.688   2.691   0.277  0.1987  0.7265  0.4905
 1839SOL    HW2 8410   6.601   2.571   0.308  0.9602 -0.3180 -1.2691
 1840SOL     OW 8411   8.160   3.851   9.225  0.1001  0.5570 -0.2661
 1840SOL    HW1 8412   8.081   3.807   9.192  0.5796 -1.4830  1.1096
 1840SOL    HW2 8413   8.231   3.815   9.171  0.6336 -1.3163  1.5414
 1841SOL     OW 8414   5.599   1.688   5.327  0.3328 -0.0107 -0.3875
 1841SOL    HW1 8415   5.610   1.603   5.284 -2.4120 -1.2846  1.1320
 1841SOL    HW2 8416   5.688   1.721   5.338  1.4178 -2.1085 -2.1223
 1842SOL     OW 8417   5.196   4.234   4.102 -0.0551  0.3593  0.1666
 1842SOL    HW1 8418   5.220   4.185   4.182 -1.1689 -2.3900 -1.0657
 1842SOL    HW2 8419   5.277   4.236   4.051  0.0207 -0.1453  0.2615
 1843SOL     OW 8420   9.065   3.679   5.023  0.0333 -0.5079 -0.1052
 1843SOL    HW1 8421   8.972   3.657   5.020 -0.0212 -0.4351  0.7688
 1843SOL    HW2 8422   9.095   3.641   5.105  0.6907 -0.1924 -0.2001
 1844SOL     OW 8423   7.559   5.763   5.494 -0.2135 -0.8491  0.5348
 1844SOL    HW1 8424   7.632   5.733   5.440  1.4275  1.5651  1.2189
 1844SOL    HW2 8425   7.519   5.683   5.527  2.2300 -2.3113  0.2482
 1845SOL     OW 8426   2.842   0.253   3.429 -0.3447  0.5202  0.5237
 1845SOL    HW1 8427   2.845   0.173   3.481  0.5517 -0.6818 -1.2838
 1845SOL    HW2 8428   2.806   0.226   3.345 -1.6063  2.3707  0.4163
 1846SOL     OW 8429   9.197   7.309   3.969  0.2516 -0.3910  0.1417
 1846SOL    HW1 8430   9.105   7.336   3.967 -0.1859 -1.7429 -1.4310
 1846SOL    HW2 8431   9.193   7.213   3.965  1.7156 -0.4527 -0.5602
 1847SOL     OW 8432   4.154   5.043   1.654 -0.4664  0.0380 -0.3309
 1847SOL    HW1 8433   4.136   4.949   1.660 -0.2825 -0.0018 -0.4162
 1847SOL    HW2 8434   4.121   5.079   1.737 -0.0389 -0.1812 -0.0653
 1848SOL     OW 8435   7.580   8.707   7.007  0.0602  0.3096  0.6039
 1848SOL    HW1 8436   7.547   8.631   7.055 -0.0771  0.8826  1.4450
 1848SOL    HW2 8437   7.563   8.781   7.065  1.6054  0.7949  0.4891
 1849SOL     OW 8438   6.886   0.047   5.493 -0.2815 -0.0881  0.1171
 1849SOL    HW1 8439   6.914  -0.039   5.462  1.8320  0.1958  1.0617
 1849SOL    HW2 8440   6.908   0.048   5.586 -3.3198  0.3152  0.9287
 1850SOL     OW 8441   5.012   4.203   7.399 -0.2270  0.0578  0.2788
 1850SOL    HW1 8442   5.061   4.146   7.459 -1.8329  1.0634  2.7244
 1850SOL    HW2 8443   4.977   4.143   7.333  0.2025 -1.4139  1.3321
 1851SOL     OW 8444   6.244   4.945   8.540 -0.5438 -1.0443 -0.1207
 1851SOL    HW1 8445   6.330   4.965   8.501 -0.2511 -1.6471  0.2002
 1851SOL    HW2 8446   6.250   4.979   8.629 -0.5004 -1.4163  0.0206
 1852SOL     OW 8447   5.191   8.605   9.020  0.2727  0.4754 -0.2270
 1852SOL    HW1 8448   5.160   8.527   9.067  0.2460  1.7141  1.9296
 1852SOL    HW2 8449   5.280   8.618   9.052  0.1004  1.6048 -0.1822
 1853SOL     OW 8450   5.226   4.413   5.455  0.2089  1.0313  0.0698
 1853SOL    HW1 8451   5.199   4.501   5.481 -1.2874  0.4811  0.4486
 1853SOL    HW2 8452   5.245   4.369   5.537 -0.0988  0.6705 -0.0516
 1854SOL     OW 8453   5.382   1.787   1.906 -0.3038 -0.0122 -0.4550
 1854SOL    HW1 8454   5.467   1.801   1.947  0.0734  0.8033 -1.4877
 1854SOL    HW2 8455   5.384   1.695   1.878  0.1337 -0.0671 -0.2539
 1855SOL     OW 8456   2.376   4.571   2.098 -0.1663  0.0807  0.1754
 1855SOL    HW1 8457   2.423   4.570   2.181  0.4877  0.8530 -0.1805
 1855SOL    HW2 8458   2.441   4.546   2.032 -1.0344 -2.0795  0.0384
 1856SOL     OW 8459   7.738   3.783   3.425  0.1561 -0.1656  0.1807
 1856SOL    HW1 8460   7.754   3.860   3.479 -0.6731 -0.3769  0.7581
 1856SOL    HW2 8461   7.650   3.754   3.451  0.7081 -1.6758  0.4372
 1857SOL     OW 8462   0.816   5.485   1.327  0.3542 -0.5899 -0.6410
 1857SOL    HW1 8463   0.861   5.503   1.245  0.8782 -1.1361 -0.4796
 1857SOL    HW2 8464   0.734   5.442   1.301  1.1508 -2.0489 -0.8363
 1858SOL     OW 8465   3.452   4.020   4.056  0.2321  0.8713 -0.5521
 1858SOL    HW1 8466   3.447   3.931   4.021  1.6870  1.4744 -2.4458
 1858SOL    HW2 8467   3.414   4.075   3.987  0.3625  1.8240  0.1262
 1859SOL     OW 8468   3.529   3.674   2.824  0.3364  1.0378 -0.2560
 1859SOL    HW1 8469   3.448   3.623   2.824  0.3669  0.8827  2.1605
 1859SOL    HW2 8470   3.598   3.609   2.827  0.4244  1.1660  1.0379
 1860SOL     OW 8471   4.547   6.727   1.784 -0.3577 -0.0963  0.0039
 1860SOL    HW1 8472   4.489   6.795   1.818 -1.3031 -1.1739  0.6527
 1860SOL    HW2 8473   4.500   6.692   1.708  0.4163  0.3815 -0.7099
 1861SOL     OW 8474   1.801   2.106   8.996 -0.1964  0.1256 -0.1441
 1861SOL    HW1 8475   1.740   2.107   9.069  0.0458 -0.3111  0.0651
 1861SOL    HW2 8476   1.787   2.190   8.952 -0.4441  0.3279  0.3179
 1862SOL     OW 8477   2.204   5.363   4.161  0.4606  0.2674  0.6182
 1862SOL    HW1 8478   2.142   5.380   4.232 -0.5099 -0.4850 -0.0302
 1862SOL    HW2 8479   2.237   5.450   4.137 -2.2195  1.0360 -0.6958
 1863SOL     OW 8480   7.109   1.588   6.925  0.2696  0.6379 -0.2831
 1863SOL    HW1 8481   7.142   1.640   6.851  1.1393 -0.0236 -0.3892
 1863SOL    HW2 8482   7.144   1.500   6.908  0.0924  0.3806  0.6772
 1864SOL     OW 8483   6.571   2.784   4.811  0.4129  0.1580 -0.0877
 1864SOL    HW1 8484   6.582   2.812   4.902 -0.8109  0.3864  0.0056
 1864SOL    HW2 8485   6.644   2.724   4.796  0.1448 -0.5851  1.3402
 1865SOL     OW 8486   6.570   2.140   7.591  0.0269 -0.4301 -0.5635
 1865SOL    HW1 8487   6.581   2.094   7.673 -1.2700 -1.0621 -0.7220
 1865SOL    HW2 8488   6.509   2.086   7.540 -0.0446  0.4883 -1.5050
 1866SOL     OW 8489   5.542   5.665   1.018 -0.3694 -0.4117 -0.1143
 1866SOL    HW1 8490   5.495   5.740   0.981 -1.4216 -0.3910  1.1799
 1866SOL    HW2 8491   5.529   5.674   1.112 -0.8553 -2.4308  0.0485
 1867SOL     OW 8492   5.829   5.367   6.640 -0.6107 -0.0654  0.4357
 1867SOL    HW1 8493   5.915   5.356   6.599 -0.3456 -0.6736  1.1386
 1867SOL    HW2 8494   5.848   5.404   6.726 -1.1291  0.7328  0.2121
 1868SOL     OW 8495   0.347   8.171   7.021  0.3907  0.0053 -0.1632
 1868SOL    HW1 8496   0.435   8.161   6.984 -0.3164 -1.8773 -1.4784
 1868SOL    HW2 8497   0.363   8.198   7.112  2.3887 -1.5622  0.0272
 1869SOL     OW 8498   2.749   7.211   7.791 -0.1166  0.2315 -0.0977
 1869SOL    HW1 8499   2.666   7.254   7.810 -1.8283 -1.0856 -3.7153
 1869SOL    HW2 8500   2.753   7.207   7.696  2.1177 -3.4272 -0.0363
 1870SOL     OW 8501   3.721   0.067   5.825  0.4998 -0.3536 -0.1438
 1870SOL    HW1 8502   3.726   0.040   5.917  0.9826 -0.1306 -0.1019
 1870SOL    HW2 8503   3.737  -0.014   5.776 -0.4681 -0.6186 -0.0463
 1871SOL     OW 8504   6.247   6.745   8.455 -0.0554 -0.7684  0.0750
 1871SOL    HW1 8505   6.239   6.651   8.469 -1.5070 -0.7938 -0.7951
 1871SOL    HW2 8506   6.158   6.779   8.458  0.5027  0.7525  1.3176
 1872SOL     OW 8507   5.470   0.990   3.942 -0.4031  0.1851  0.2451
 1872SOL    HW1 8508   5.502   0.943   4.019 -0.2036  1.2340  0.8159
 1872SOL    HW2 8509   5.377   0.965   3.936 -0.1233 -0.8989  0.0476
 1873SOL     OW 8510   7.257   1.193   9.048 -0.3325  0.5619 -0.2685
 1873SOL    HW1 8511   7.286   1.104   9.028 -0.3865  0.0632  1.7189
 1873SOL    HW2 8512   7.328   1.249   9.016  0.7619 -0.3479  0.5148
 1874SOL     OW 8513   4.284   6.200   7.534 -0.2547 -0.4549 -0.1560
 1874SOL    HW1 8514   4.330   6.283   7.521 -1.6324  0.1452 -1.6064
 1874SOL    HW2 8515   4.321   6.141   7.468  1.1721 -1.2426  1.2874
 1875SOL     OW 8516   2.612   8.868   1.150  0.0223 -0.7226  0.1642
 1875SOL    HW1 8517   2.703   8.898   1.155 -0.1058 -0.4982  1.9443
 1875SOL    HW2 8518   2.570   8.931   1.092  0.5695  0.4181  0.9648
 1876SOL     OW 8519   3.187   0.204   1.290  0.6972 -0.8071 -0.4828
 1876SOL    HW1 8520   3.112   0.203   1.231  0.4768  1.0820 -0.3222
 1876SOL    HW2 8521   3.223   0.293   1.281  1.2024 -0.7538  1.5122
 1877SOL     OW 8522   7.301   9.118   6.132 -0.1747  0.2841 -0.5083
 1877SOL    HW1 8523   7.368   9.053   6.154 -0.4115 -0.8243 -2.7532
 1877SOL    HW2 8524   7.255   9.135   6.215  1.4457 -0.5907  0.6063
 1878SOL     OW 8525   6.672   3.552   7.844  0.0998 -0.0242  0.3885
 1878SOL    HW1 8526   6.703   3.491   7.778 -0.6210 -0.2274  0.2311
 1878SOL    HW2 8527   6.748   3.607   7.863  1.0608 -1.5659  1.2305
 1879SOL     OW 8528   0.630   0.407   5.822 -0.0226 -0.6057 -0.2644
 1879SOL    HW1 8529   0.685   0.329   5.814  1.0215 -0.2343  2.3544
 1879SOL    HW2 8530   0.580   0.393   5.903  1.4741  2.1030  1.2630
 1880SOL     OW 8531   2.654   2.016   8.533  0.2616 -0.4192 -0.3024
 1880SOL    HW1 8532   2.611   1.931   8.529 -2.4440  0.9032 -1.6216
 1880SOL    HW2 8533   2.740   1.997   8.572 -0.3095 -3.6701 -0.3276
 1881SOL     OW 8534   7.889   3.650   4.307 -0.0700 -0.6144  0.5736
 1881SOL    HW1 8535   7.888   3.630   4.401  0.5391 -0.5909  0.5840
 1881SOL    HW2 8536   7.839   3.579   4.267 -0.7470 -0.3662  0.9636
 1882SOL     OW 8537   8.429   1.715   4.423 -0.3513 -0.0742  0.1972
 1882SOL    HW1 8538   8.482   1.793   4.405  1.8736 -1.2337  1.3632
 1882SOL    HW2 8539   8.483   1.642   4.393 -0.1587 -1.4925  3.6227
 1883SOL     OW 8540   7.061   4.920   5.500  0.6113  0.7470  0.7321
 1883SOL    HW1 8541   7.145   4.896   5.539  0.8381  1.1754  0.5169
 1883SOL    HW2 8542   7.052   5.014   5.519 -0.8457  0.2788  2.6707
 1884SOL     OW 8543   4.966   8.856   3.168  0.1608 -0.3340 -0.1402
 1884SOL    HW1 8544   5.024   8.872   3.093  1.5245  2.4448  1.3118
 1884SOL    HW2 8545   4.985   8.929   3.228 -1.0830 -2.2167  2.7669
 1885SOL     OW 8546   7.294   6.271   3.423  0.1887  0.2444  0.3631
 1885SOL    HW1 8547   7.238   6.335   3.467  1.7007  1.4253  0.6680
 1885SOL    HW2 8548   7.245   6.247   3.344 -1.1017  0.5783  1.0237
 1886SOL     OW 8549   2.970   5.725   6.233 -0.0534 -0.0956  0.4397
 1886SOL    HW1 8550   2.979   5.630   6.239 -0.9653 -0.2155  0.0595
 1886SOL    HW2 8551   2.907   5.739   6.162 -0.1545  0.7783  0.6905
 1887SOL     OW 8552   7.816   4.014   3.070  0.2484 -0.2349  0.0348
 1887SOL    HW1 8553   7.756   4.038   2.999  0.6136  0.6750  0.0220
 1887SOL    HW2 8554   7.848   4.097   3.104 -0.1211 -0.6487  1.4550
 1888SOL     OW 8555   2.920   7.815   9.073  0.0465  0.3463  0.1698
 1888SOL    HW1 8556   2.877   7.896   9.047 -1.3391 -0.5143 -0.3030
 1888SOL    HW2 8557   2.975   7.792   8.998 -0.2935  0.3532 -0.0817
 1889SOL     OW 8558   0.866   9.044   7.609 -0.2482 -0.0704  0.1412
 1889SOL    HW1 8559   0.882   9.025   7.701  2.6791  1.7670  0.1317
 1889SOL    HW2 8560   0.855   8.958   7.568 -2.0130 -0.9097  2.1949
 1890SOL     OW 8561   0.475   3.115   0.594 -0.2013 -0.6377  0.0783
 1890SOL    HW1 8562   0.384   3.141   0.608 -0.5122 -2.3330  1.5212
 1890SOL    HW2 8563   0.505   3.173   0.523 -2.4234 -0.1390 -0.5566
 1891SOL     OW 8564   2.660   0.457   2.000 -0.1666 -0.0739 -0.3035
 1891SOL    HW1 8565   2.587   0.516   1.984 -1.0490 -0.3376  2.3667
 1891SOL    HW2 8566   2.697   0.486   2.083  2.2846 -0.4733 -1.1696
 1892SOL     OW 8567   6.736   0.214   1.177  0.5547  0.0573  0.0961
 1892SOL    HW1 8568   6.690   0.153   1.119  2.6073 -2.8323  1.2507
 1892SOL    HW2 8569   6.818   0.232   1.132  1.0562 -0.1329  0.9064
 1893SOL     OW 8570   3.662   7.972   3.175  0.2369  0.7224 -0.4739
 1893SOL    HW1 8571   3.601   7.909   3.214 -1.4023  3.3902  1.6397
 1893SOL    HW2 8572   3.624   7.993   3.090 -0.9834  1.1336  0.1463
 1894SOL     OW 8573   1.910   1.556   7.856  0.1860 -0.1591 -0.1724
 1894SOL    HW1 8574   1.833   1.612   7.845 -0.4805 -1.0599 -0.3114
 1894SOL    HW2 8575   1.926   1.520   7.769  1.0130  0.3154 -0.2256
 1895SOL     OW 8576   8.994   2.996   7.246  0.0194  0.3684 -0.0803
 1895SOL    HW1 8577   9.037   3.082   7.240  1.3435 -0.2587 -0.1254
 1895SOL    HW2 8578   9.039   2.953   7.318  0.9633 -1.0964 -1.4674
 1896SOL     OW 8579   8.165   8.309   0.463  0.1534 -0.3991  0.7113
 1896SOL    HW1 8580   8.080   8.264   0.454  0.8379 -1.4402 -0.9860
 1896SOL    HW2 8581   8.230   8.242   0.440  1.3268  0.9187  0.0395
 1897SOL     OW 8582   5.820   3.186   5.559  0.1338 -0.1747  0.5813
 1897SOL    HW1 8583   5.753   3.215   5.497 -0.4415 -1.8922  0.3551
 1897SOL    HW2 8584   5.803   3.237   5.638  0.3178  1.3998 -0.3357
 1898SOL     OW 8585   8.684   0.286   7.611 -0.2061 -0.5029 -0.2080
 1898SOL    HW1 8586   8.666   0.369   7.567 -2.0001  0.0873  1.5080
 1898SOL    HW2 8587   8.653   0.219   7.550 -0.0660  0.1377 -1.0024
 1899SOL     OW 8588   3.715   1.168   5.528 -0.7321 -0.5483 -0.0388
 1899SOL    HW1 8589   3.680   1.227   5.594  1.0361 -0.8030  1.1870
 1899SOL    HW2 8590   3.755   1.226   5.463  1.3763 -0.3212  1.3763
 1900SOL     OW 8591   3.144   0.841   9.028  0.0629 -0.0421  0.0881
 1900SOL    HW1 8592   3.163   0.923   9.074  1.1576 -0.0581 -0.3027
 1900SOL    HW2 8593   3.052   0.848   9.003 -0.6110 -0.0795  2.3612
 1901SOL     OW 8594   6.972   5.264   3.276 -0.8548  0.6117  0.0108
 1901SOL    HW1 8595   7.004   5.346   3.238 -1.7869  0.4062 -1.2682
 1901SOL    HW2 8596   6.977   5.200   3.204  0.6943 -0.7169  1.2046
 1902SOL     OW 8597   1.733   4.606   4.743 -0.1628  0.4319 -0.1456
 1902SOL    HW1 8598   1.680   4.628   4.821  2.4685  0.1650  1.8437
 1902SOL    HW2 8599   1.700   4.520   4.716  1.1633 -1.2733  3.0235
 1903SOL     OW 8600   2.187   7.173   8.071  0.2107 -0.2753  0.0382
 1903SOL    HW1 8601   2.152   7.092   8.033  1.1354 -0.1986 -1.0491
 1903SOL    HW2 8602   2.224   7.146   8.155 -2.5219 -0.3281  1.3658
 1904SOL     OW 8603   0.467   3.273   0.826 -0.2215  0.0951 -0.2960
 1904SOL    HW1 8604   0.480   3.246   0.735 -1.8370  0.1891 -0.5792
 1904SOL    HW2 8605   0.403   3.211   0.861  0.7260 -0.2230  0.9402
 1905SOL     OW 8606   8.078   5.995   2.481  0.4379 -0.1187  0.1664
 1905SOL    HW1 8607   8.094   6.012   2.389 -0.6956 -1.9252 -0.4317
 1905SOL    HW2 8608   8.027   6.070   2.512 -1.5862 -0.7173 -1.4553
 1906SOL     OW 8609   6.350   2.519   4.051 -0.0537 -0.0177 -0.2316
 1906SOL    HW1 8610   6.345   2.468   4.131 -0.8227  0.2799 -0.0875
 1906SOL    HW2 8611   6.354   2.454   3.981  1.7560 -0.3066  0.0770
 1907SOL     OW 8612   8.685   8.703   4.371  0.2647  0.2160 -0.5116
 1907SOL    HW1 8613   8.629   8.775   4.341  0.7495  0.2192 -1.4259
 1907SOL    HW2 8614   8.768   8.746   4.394  0.0906  0.1342  0.3084
 1908SOL     OW 8615   4.805   3.003   3.588 -0.1028 -0.2070 -0.2682
 1908SOL    HW1 8616   4.722   2.957   3.602 -0.1140 -0.1712 -0.2159
 1908SOL    HW2 8617   4.853   2.947   3.528 -0.5844  0.2867 -1.1285
 1909SOL     OW 8618   3.321   9.201   3.144  0.3881  0.5594 -0.0146
 1909SOL    HW1 8619   3.379   9.219   3.069  2.0763 -2.4970  0.3947
 1909SOL    HW2 8620   3.380   9.175   3.215 -1.2894  1.4727  1.8051
 1910SOL     OW 8621   1.040   6.119   3.697  0.0925  0.0356  0.0130
 1910SOL    HW1 8622   1.024   6.212   3.711 -1.0942 -0.1354 -0.1431
 1910SOL    HW2 8623   1.096   6.093   3.770 -0.3329  0.6740  0.5801
 1911SOL     OW 8624   0.047   5.367   2.181 -0.3082  0.1595  0.2244
 1911SOL    HW1 8625   0.086   5.376   2.094 -1.1564  0.1385 -0.1718
 1911SOL    HW2 8626   0.122   5.361   2.241  0.2844 -0.1641 -0.5353
 1912SOL     OW 8627   7.008   3.899   8.255  0.2469 -0.0416  0.0440
 1912SOL    HW1 8628   7.000   3.867   8.165 -3.3108  0.3995  0.0437
 1912SOL    HW2 8629   6.971   3.829   8.308  0.3439  0.5515  0.9102
 1913SOL     OW 8630   2.318   5.646   6.315 -0.4907  0.4692 -0.0090
 1913SOL    HW1 8631   2.301   5.554   6.298 -0.0057  0.3598  0.0808
 1913SOL    HW2 8632   2.243   5.676   6.366 -1.7154  0.6762 -1.8644
 1914SOL     OW 8633   4.597   0.814   2.744 -0.3133 -0.9059  0.6031
 1914SOL    HW1 8634   4.655   0.777   2.811 -0.7245 -0.0410  1.4684
 1914SOL    HW2 8635   4.641   0.894   2.716 -0.3007 -1.1002  0.0497
 1915SOL     OW 8636   5.999   1.769   0.781 -0.6912  0.3831  0.0912
 1915SOL    HW1 8637   5.964   1.845   0.827 -1.1400  1.3453 -1.7266
 1915SOL    HW2 8638   5.970   1.780   0.690  2.8845  0.4177 -1.2449
 1916SOL     OW 8639   8.947   8.246   8.219 -0.3138 -0.2324 -0.4107
 1916SOL    HW1 8640   8.952   8.325   8.273  1.6342 -0.2151 -0.5622
 1916SOL    HW2 8641   8.956   8.277   8.129  2.6612 -0.7014 -0.3855
 1917SOL     OW 8642   5.182   1.226   0.402  0.7448 -0.3508 -0.3787
 1917SOL    HW1 8643   5.112   1.235   0.467  1.1761 -2.3568  0.4449
 1917SOL    HW2 8644   5.233   1.151   0.433  1.4609 -0.8477 -2.6079
 1918SOL     OW 8645   2.475   3.827   0.098 -0.4485 -0.6868  0.2702
 1918SOL    HW1 8646   2.500   3.785   0.016  1.1854 -0.0291  0.3873
 1918SOL    HW2 8647   2.380   3.829   0.096 -0.4562 -0.8340 -1.5415
 1919SOL     OW 8648   6.462   1.872   2.253  0.2762 -0.6388 -0.3181
 1919SOL    HW1 8649   6.528   1.823   2.204  2.6072  1.2053  0.7837
 1919SOL    HW2 8650   6.390   1.810   2.265  1.6370 -2.6518 -1.8462
 1920SOL     OW 8651   4.515   0.032   6.005 -0.2471  0.4114  0.2624
 1920SOL    HW1 8652   4.606   0.003   6.016  1.3055  4.6069  0.1573
 1920SOL    HW2 8653   4.504   0.038   5.910 -0.8632 -0.5206  0.2596
 1921SOL     OW 8654   0.355   0.539   5.567 -0.3381 -0.0180 -0.0300
 1921SOL    HW1 8655   0.351   0.443   5.561 -2.9001  0.0316 -0.4234
 1921SOL    HW2 8656   0.332   0.558   5.658  0.5489  0.2415  0.1499
 1922SOL     OW 8657   3.459   5.822   5.951 -0.5504  0.0545 -0.1926
 1922SOL    HW1 8658   3.406   5.778   6.018 -0.7658 -0.4977 -0.7124
 1922SOL    HW2 8659   3.448   5.915   5.968  0.3903 -0.0769  1.3088
 1923SOL     OW 8660   2.435   6.501   1.976  0.2564 -0.1312 -0.1834
 1923SOL    HW1 8661   2.488   6.516   2.055  1.1296 -0.4515 -0.6987
 1923SOL    HW2 8662   2.361   6.449   2.007  0.1262  0.4937  0.5863
 1924SOL     OW 8663   9.254   0.489   4.225  0.0731 -0.7015 -0.0323
 1924SOL    HW1 8664   9.216   0.563   4.272  1.1934  0.1851 -0.4689
 1924SOL    HW2 8665   9.333   0.467   4.274  2.5090  1.6803 -2.5603
 1925SOL     OW 8666   6.264   2.502   0.435 -0.5227  0.4429 -0.3114
 1925SOL    HW1 8667   6.230   2.589   0.456  0.3297  0.5631  0.6633
 1925SOL    HW2 8668   6.339   2.491   0.493 -1.1161 -1.2934  0.1916
 1926SOL     OW 8669   0.643   6.056   4.589  0.0950 -0.0555 -0.5320
 1926SOL    HW1 8670   0.641   6.078   4.496 -0.7294  2.9316  0.0711
 1926SOL    HW2 8671   0.724   6.095   4.621 -0.0264 -0.3308  0.1326
 1927SOL     OW 8672   1.398   8.219   5.270  0.2874  0.9326 -0.0630
 1927SOL    HW1 8673   1.393   8.160   5.345  0.1766  0.7658 -0.2005
 1927SOL    HW2 8674   1.491   8.221   5.246  0.0899 -0.4809 -1.0803
 1928SOL     OW 8675   4.650   3.517   3.038 -0.6763 -0.4814 -0.3955
 1928SOL    HW1 8676   4.610   3.446   3.087 -0.2507 -0.5216 -0.1060
 1928SOL    HW2 8677   4.581   3.547   2.978 -0.4511 -2.0197 -1.4904
 1929SOL     OW 8678   5.237   8.503   0.871 -0.6785  0.1608 -0.1918
 1929SOL    HW1 8679   5.152   8.489   0.911 -0.5573 -2.7585 -0.7596
 1929SOL    HW2 8680   5.300   8.486   0.941 -0.5431 -1.0250 -0.5770
 1930SOL     OW 8681   4.296   2.351   6.208 -0.0392  0.0801 -0.6411
 1930SOL    HW1 8682   4.299   2.268   6.257  0.3758 -0.6384 -1.8250
 1930SOL    HW2 8683   4.205   2.360   6.182 -0.1380  0.1334 -0.2791
 1931SOL     OW 8684   5.604   8.123   6.878 -0.0725  0.2336 -0.2879
 1931SOL    HW1 8685   5.556   8.057   6.828 -2.8851  0.2249  2.1817
 1931SOL    HW2 8686   5.684   8.079   6.907 -0.4854 -1.1077 -1.1368
 1932SOL     OW 8687   3.340   5.401   6.142 -0.7515 -0.0757  0.6256
 1932SOL    HW1 8688   3.326   5.492   6.167 -0.9536 -0.4045  1.7759
 1932SOL    HW2 8689   3.252   5.367   6.122 -0.4315  0.7228 -2.6725
 1933SOL     OW 8690   7.744   2.299   4.950  0.7091 -0.4414  0.0506
 1933SOL    HW1 8691   7.771   2.240   4.879 -0.3737 -0.5873 -0.2573
 1933SOL    HW2 8692   7.735   2.242   5.026  0.9114 -0.4541  0.0658
 1934SOL     OW 8693   5.807   2.943   5.366  0.3773  0.3990  0.1490
 1934SOL    HW1 8694   5.811   2.971   5.274 -0.2490  2.2277  0.6366
 1934SOL    HW2 8695   5.873   2.996   5.410 -0.2630  0.5313  0.9791
 1935SOL     OW 8696   2.746   0.314   8.671 -0.2064 -0.0610 -0.0548
 1935SOL    HW1 8697   2.681   0.245   8.687  0.2481 -0.6473 -0.6494
 1935SOL    HW2 8698   2.773   0.342   8.758 -0.7012 -0.3549  0.1958
 1936SOL     OW 8699   4.763   2.439   7.792  0.4045 -0.1182 -0.2301
 1936SOL    HW1 8700   4.794   2.361   7.747  2.6266  0.8691 -0.5094
 1936SOL    HW2 8701   4.807   2.437   7.877 -1.4948 -0.4417  0.8135
 1937SOL     OW 8702   4.556   7.558   1.667 -0.4964 -0.3173 -0.1250
 1937SOL    HW1 8703   4.520   7.638   1.704  2.0536  0.1076  1.7668
 1937SOL    HW2 8704   4.542   7.492   1.736  0.7005 -0.5355 -0.0673
 1938SOL     OW 8705   8.744   3.154   8.979 -0.0884 -0.0120 -0.1087
 1938SOL    HW1 8706   8.748   3.249   8.993 -0.2895 -0.1904  1.4420
 1938SOL    HW2 8707   8.814   3.119   9.034 -0.4788 -0.7959 -0.0971
 1939SOL     OW 8708   1.767   3.066   8.462  0.4426  0.0839  0.2019
 1939SOL    HW1 8709   1.733   3.124   8.530  0.7982 -0.3833  0.7871
 1939SOL    HW2 8710   1.700   3.067   8.394 -0.2317  0.0239  0.8557
 1940SOL     OW 8711   7.277   4.687   6.628  0.1665  0.3152  0.0095
 1940SOL    HW1 8712   7.269   4.662   6.721  0.5158 -1.3882 -0.3737
 1940SOL    HW2 8713   7.307   4.778   6.630  0.3982  0.2375  1.5752
 1941SOL     OW 8714   4.340   3.612   7.880 -0.1785  0.2031 -0.2392
 1941SOL    HW1 8715   4.343   3.521   7.909 -0.9357  0.3726  0.4046
 1941SOL    HW2 8716   4.291   3.658   7.949 -0.0208  1.0524 -0.6732
 1942SOL     OW 8717   4.327   1.443   8.190  0.2209  0.0185  0.4731
 1942SOL    HW1 8718   4.297   1.442   8.099 -0.4508 -1.3274  0.6864
 1942SOL    HW2 8719   4.279   1.514   8.231  1.6805  1.6732 -0.5669
 1943SOL     OW 8720   4.405   1.809   1.567 -0.0161 -0.0393 -0.0254
 1943SOL    HW1 8721   4.380   1.762   1.647 -0.6120 -0.1378 -0.2672
 1943SOL    HW2 8722   4.474   1.754   1.528 -1.6354 -1.4737 -1.0233
 1944SOL     OW 8723   2.887   6.635   4.030 -0.9406  0.1833  0.0571
 1944SOL    HW1 8724   2.959   6.577   4.055 -0.3703  0.4392 -0.9484
 1944SOL    HW2 8725   2.844   6.590   3.957 -0.8895  0.7208 -0.3110
 1945SOL     OW 8726   2.388   4.406   1.066  0.2932 -0.2039  0.1343
 1945SOL    HW1 8727   2.308   4.364   1.034 -0.1072 -0.7228  1.7264
 1945SOL    HW2 8728   2.418   4.349   1.137 -0.2500  2.1014  2.3717
 1946SOL     OW 8729   7.171   7.519   7.500 -0.6636  0.6091 -0.1812
 1946SOL    HW1 8730   7.230   7.570   7.445 -0.9455  0.5813 -0.5169
 1946SOL    HW2 8731   7.134   7.453   7.440 -1.4065  0.9403 -0.0979
 1947SOL     OW 8732   4.371   3.246   1.781 -0.8343 -0.1215  0.4108
 1947SOL    HW1 8733   4.324   3.219   1.860 -1.6984 -2.2794 -0.7445
 1947SOL    HW2 8734   4.405   3.164   1.744  1.4776  1.0846 -0.2944
 1948SOL     OW 8735   1.583   3.733   8.310 -0.5490 -0.1406  0.0953
 1948SOL    HW1 8736   1.649   3.680   8.354  2.1269  1.5260 -1.5947
 1948SOL    HW2 8737   1.562   3.684   8.231  1.5504  0.9318 -1.2162
 1949SOL     OW 8738   1.874   3.179   0.519 -0.1495  0.0831  0.4725
 1949SOL    HW1 8739   1.868   3.086   0.496  0.6272  0.1356  0.0227
 1949SOL    HW2 8740   1.967   3.195   0.528 -0.3599  0.4006  2.3571
 1950SOL     OW 8741   0.827   0.643   3.671  0.0662 -0.0598  0.0470
 1950SOL    HW1 8742   0.896   0.577   3.662  0.3579  0.4950 -2.7489
 1950SOL    HW2 8743   0.872   0.717   3.712  0.4077 -0.6764  0.8068
 1951SOL     OW 8744   3.527   5.050   8.151  0.3756 -0.1944  0.4760
 1951SOL    HW1 8745   3.503   4.964   8.186 -1.0434 -0.0933 -0.2083
 1951SOL    HW2 8746   3.613   5.067   8.189 -0.2428 -0.9588  2.3659
 1952SOL     OW 8747   6.666   5.879   5.907  0.0629 -0.4853 -0.2726
 1952SOL    HW1 8748   6.600   5.817   5.938  0.4993 -1.1818 -0.7102
 1952SOL    HW2 8749   6.648   5.959   5.956 -1.9661 -0.2042 -1.3317
 1953SOL     OW 8750   2.883   2.829   1.021  0.2211  0.3200  0.7564
 1953SOL    HW1 8751   2.865   2.919   0.995 -0.8458  0.2823  1.2982
 1953SOL    HW2 8752   2.856   2.776   0.946 -1.8277  0.2874  1.4334
 1954SOL     OW 8753   0.010   0.709   8.631  0.3777 -0.2186  0.1378
 1954SOL    HW1 8754   0.013   0.714   8.726 -0.2238  0.1979  0.1421
 1954SOL    HW2 8755   0.006   0.616   8.611 -1.0550 -0.2816  0.5865
 1955SOL     OW 8756   8.285   4.370   1.265  0.1449  0.1785  0.3675
 1955SOL    HW1 8757   8.238   4.298   1.223 -0.1419  1.0791 -0.9207
 1955SOL    HW2 8758   8.264   4.447   1.212 -1.2925  1.6935  2.9176
 1956SOL     OW 8759   8.916   2.681   5.785 -0.3904 -0.2143 -0.3597
 1956SOL    HW1 8760   8.999   2.729   5.789 -0.7364  0.4346 -0.7227
 1956SOL    HW2 8761   8.921   2.619   5.858  0.1956  0.1683 -0.0602
 1957SOL     OW 8762   8.532   6.581   6.989 -0.7610  0.4916 -0.0613
 1957SOL    HW1 8763   8.536   6.493   6.951  1.3927  1.0671 -1.3497
 1957SOL    HW2 8764   8.515   6.639   6.915 -1.0263  1.2668  0.5907
 1958SOL     OW 8765   5.927   7.511   7.602  0.1659 -0.0452  0.1709
 1958SOL    HW1 8766   6.021   7.493   7.612  0.0688 -0.2713  0.6792
 1958SOL    HW2 8767   5.912   7.591   7.653 -0.1633 -0.7313  1.1772
 1959SOL     OW 8768   9.012   6.253   6.129 -0.1641  0.2179  0.3924
 1959SOL    HW1 8769   8.960   6.316   6.079 -0.7821 -0.1103  0.6178
 1959SOL    HW2 8770   8.958   6.174   6.130  0.5366 -0.2660  0.2492
 1960SOL     OW 8771   3.578   6.537   8.500  0.5334 -0.7316 -0.6972
 1960SOL    HW1 8772   3.604   6.510   8.412  0.3416 -0.7055 -0.7626
 1960SOL    HW2 8773   3.498   6.487   8.518 -0.9397  1.1597 -1.5755
 1961SOL     OW 8774   6.454   0.742   4.482 -0.1744  0.2537  0.3185
 1961SOL    HW1 8775   6.395   0.667   4.473 -1.7928  1.5800 -1.0244
 1961SOL    HW2 8776   6.418   0.808   4.421  1.6848  1.7936  0.7787
 1962SOL     OW 8777   0.667   0.878   6.152 -0.8602  0.5254 -0.2800
 1962SOL    HW1 8778   0.590   0.879   6.210 -2.2397  1.4870 -2.0300
 1962SOL    HW2 8779   0.686   0.785   6.139  0.8576  0.1781  3.2885
 1963SOL     OW 8780   5.872   4.226   1.215 -0.7328  0.8273  0.4670
 1963SOL    HW1 8781   5.913   4.310   1.235 -0.1443  0.7213 -0.2219
 1963SOL    HW2 8782   5.778   4.244   1.220 -0.6123  1.2394  1.4367
 1964SOL     OW 8783   0.250   0.861   0.545  0.1890 -0.3733  0.3991
 1964SOL    HW1 8784   0.315   0.895   0.606  0.6629  0.2093 -0.4131
 1964SOL    HW2 8785   0.298   0.798   0.491 -0.3838 -1.3993  1.0525
 1965SOL     OW 8786   6.265   0.786   5.988 -0.3257 -0.0891  0.1609
 1965SOL    HW1 8787   6.330   0.727   6.026 -0.3455  0.4028  1.0007
 1965SOL    HW2 8788   6.313   0.868   5.974 -0.3919 -0.1820 -0.6303
 1966SOL     OW 8789   7.983   6.201   2.624 -0.4889  0.1425  0.4704
 1966SOL    HW1 8790   8.073   6.230   2.640 -0.4446 -0.7267  1.9303
 1966SOL    HW2 8791   7.933   6.282   2.616  0.2355  0.6291  0.7412
 1967SOL     OW 8792   9.252   1.213   1.752 -0.0876 -0.0365  0.2601
 1967SOL    HW1 8793   9.331   1.266   1.758 -0.6158  0.7178  0.7501
 1967SOL    HW2 8794   9.281   1.123   1.766  0.9063  0.0383 -1.0767
 1968SOL     OW 8795   0.411   3.784   6.529 -0.4515 -0.2509  0.2978
 1968SOL    HW1 8796   0.318   3.797   6.546  0.1456  3.1470  1.8202
 1968SOL    HW2 8797   0.451   3.785   6.616  1.0415 -1.7994 -0.3204
 1969SOL     OW 8798   8.532   1.446   6.064 -0.0346  0.0345 -0.3243
 1969SOL    HW1 8799   8.529   1.429   6.158  0.0707 -0.1555 -0.3544
 1969SOL    HW2 8800   8.616   1.410   6.036  0.1581  0.5424 -0.4052
 1970SOL     OW 8801   4.314   4.041   0.152 -0.0209 -0.0500  0.1090
 1970SOL    HW1 8802   4.301   3.949   0.126 -1.3531 -0.7752  3.0095
 1970SOL    HW2 8803   4.226   4.075   0.164  0.4385  1.8847 -1.5177
 1971SOL     OW 8804   6.822   4.540   2.878  0.7569  0.2781 -0.0897
 1971SOL    HW1 8805   6.902   4.530   2.930  2.0805 -0.5217 -2.1537
 1971SOL    HW2 8806   6.752   4.509   2.935  2.0712 -0.2060  1.3355
 1972SOL     OW 8807   6.504   6.465   0.929 -0.0335  0.2935  0.0966
 1972SOL    HW1 8808   6.526   6.469   1.022 -0.0720 -1.5634  0.2376
 1972SOL    HW2 8809   6.408   6.465   0.927 -0.0366  1.2543 -0.0188
 1973SOL     OW 8810   1.852   5.569   2.259  0.2128 -0.6702 -0.6501
 1973SOL    HW1 8811   1.840   5.510   2.333 -0.2550 -0.8794 -0.8867
 1973SOL    HW2 8812   1.774   5.556   2.205 -0.2427  0.6757 -0.3637
 1974SOL     OW 8813   2.791   5.378   1.634 -0.1388  0.5391 -0.2945
 1974SOL    HW1 8814   2.702   5.391   1.664  0.7142  0.4513  2.5690
 1974SOL    HW2 8815   2.785   5.305   1.572 -1.7959 -1.1826  1.7210
 1975SOL     OW 8816   6.059   8.840   1.651  0.1509  0.6776 -0.4339
 1975SOL    HW1 8817   6.121   8.827   1.579  0.3888 -1.1550  0.0390
 1975SOL    HW2 8818   5.990   8.776   1.634  0.6893 -0.4695  1.4480
 1976SOL     OW 8819   5.590   2.789   6.957 -0.4930  0.3587  0.3547
 1976SOL    HW1 8820   5.625   2.796   6.869 -2.8538  0.5946 -0.6213
 1976SOL    HW2 8821   5.567   2.878   6.982  0.6461  0.3701  1.4489
 1977SOL     OW 8822   3.794   0.223   0.434  0.2371  0.1396 -0.6393
 1977SOL    HW1 8823   3.817   0.240   0.343  0.2675 -0.5575 -0.7623
 1977SOL    HW2 8824   3.703   0.254   0.442 -0.0601 -0.5698 -1.1317
 1978SOL     OW 8825   6.317   8.897   9.256  0.1868 -0.6578  0.2270
 1978SOL    HW1 8826   6.266   8.819   9.235 -0.3007 -0.3045  0.0615
 1978SOL    HW2 8827   6.251   8.966   9.266  0.5105 -0.5131  1.5484
 1979SOL     OW 8828   1.313   1.447   0.426  0.2433  0.3805 -0.1431
 1979SOL    HW1 8829   1.362   1.516   0.381 -0.6488 -0.3110 -2.3241
 1979SOL    HW2 8830   1.296   1.482   0.513  2.4497  1.6273 -0.1330
 1980SOL     OW 8831   6.277   6.952   3.174  0.4561  0.0259  0.2242
 1980SOL    HW1 8832   6.248   7.003   3.250 -1.0958  0.7288 -0.8031
 1980SOL    HW2 8833   6.355   6.906   3.205  1.3824  2.2825  1.4866
 1981SOL     OW 8834   7.248   4.465   7.458  0.2227  0.1611 -0.0153
 1981SOL    HW1 8835   7.227   4.519   7.534 -0.0783 -1.1307  0.8599
 1981SOL    HW2 8836   7.165   4.425   7.433  0.9671 -2.9030  1.8158
 1982SOL     OW 8837   4.012   1.718   5.158  0.4745 -0.4044  0.1580
 1982SOL    HW1 8838   4.020   1.811   5.137 -0.9651  0.1953  2.0621
 1982SOL    HW2 8839   4.096   1.696   5.198  1.1190 -0.1622 -1.0041
 1983SOL     OW 8840   5.893   4.413   4.331 -0.2884  0.0492 -0.0721
 1983SOL    HW1 8841   5.951   4.452   4.396  0.1789 -0.4677 -0.1651
 1983SOL    HW2 8842   5.857   4.487   4.282  0.4093  0.3711 -0.1038
 1984SOL     OW 8843   3.722   1.920   7.844  0.2363 -0.0294 -0.5294
 1984SOL    HW1 8844   3.704   1.881   7.930  0.9740 -1.0098 -0.8043
 1984SOL    HW2 8845   3.648   1.894   7.790  0.1344 -0.0380 -0.3856
 1985SOL     OW 8846   1.737   7.300   0.452  0.3660  0.0308  0.3067
 1985SOL    HW1 8847   1.655   7.292   0.404 -0.5407  1.3285  1.5587
 1985SOL    HW2 8848   1.763   7.391   0.440  1.0917 -0.1059  0.7608
 1986SOL     OW 8849   3.732   2.835   1.158  0.1812  0.4328 -0.7164
 1986SOL    HW1 8850   3.784   2.817   1.236  0.4029 -0.1576 -0.9941
 1986SOL    HW2 8851   3.761   2.922   1.130 -0.7033  1.1389  0.4875
 1987SOL     OW 8852   0.125   3.990   3.172 -0.0651 -0.3060  0.3451
 1987SOL    HW1 8853   0.078   4.067   3.139 -0.0120 -0.3608  0.1426
 1987SOL    HW2 8854   0.216   4.006   3.147 -0.0499 -0.4242  0.3281
 1988SOL     OW 8855   6.017   8.476   2.835 -0.2095 -0.7414 -0.1879
 1988SOL    HW1 8856   6.001   8.522   2.918 -1.7913 -1.5467 -0.0030
 1988SOL    HW2 8857   6.090   8.418   2.853 -0.0520 -0.3621  0.4200
 1989SOL     OW 8858   0.850   0.858   2.031 -1.1080  0.3776  0.1145
 1989SOL    HW1 8859   0.757   0.857   2.006 -1.4380  2.3668  1.0510
 1989SOL    HW2 8860   0.889   0.924   1.974 -0.2138 -0.5424 -0.3650
 1990SOL     OW 8861   6.798   7.420   9.249 -0.0842  0.2250  0.7940
 1990SOL    HW1 8862   6.721   7.423   9.306 -0.6110  0.4879  0.0763
 1990SOL    HW2 8863   6.793   7.500   9.196 -0.7895 -1.0391 -1.1363
 1991SOL     OW 8864   0.180   2.501   4.765  0.1853  0.0209 -0.1605
 1991SOL    HW1 8865   0.227   2.422   4.741 -0.5959  0.0777 -2.0450
 1991SOL    HW2 8866   0.204   2.565   4.698 -1.8114  0.3065 -0.6988
 1992SOL     OW 8867   8.157   4.118   1.240  0.1594  0.7301  0.4124
 1992SOL    HW1 8868   8.188   4.090   1.154 -0.1370  1.7764 -0.0475
 1992SOL    HW2 8869   8.119   4.039   1.279  1.8994 -0.2033  0.3321
 1993SOL     OW 8870   8.920   0.018   2.621 -0.4012 -0.5516 -0.1170
 1993SOL    HW1 8871   8.931  -0.074   2.596  2.1260  0.1525 -1.9990
 1993SOL    HW2 8872   8.967   0.026   2.704 -2.6548 -1.3774  1.3237
 1994SOL     OW 8873   6.445   7.364   6.220 -0.2101  0.0411  0.2388
 1994SOL    HW1 8874   6.378   7.416   6.263 -1.2355 -0.1001 -1.1316
 1994SOL    HW2 8875   6.401   7.324   6.145  1.3777 -0.1085 -0.6758
 1995SOL     OW 8876   3.729   4.097   4.429 -0.9913  0.2272 -0.0220
 1995SOL    HW1 8877   3.730   4.133   4.517  1.1844  0.1481  0.0382
 1995SOL    HW2 8878   3.724   4.002   4.442  1.7153  0.0205  0.2101
 1996SOL     OW 8879   7.420   8.379   2.694 -0.0458 -0.0466 -0.4509
 1996SOL    HW1 8880   7.436   8.465   2.731  0.5197  0.4761 -1.8660
 1996SOL    HW2 8881   7.386   8.396   2.606 -3.1646 -1.1968  0.3871
 1997SOL     OW 8882   4.089   8.827   4.442  0.9532  0.9017 -0.0901
 1997SOL    HW1 8883   4.091   8.732   4.453  0.1153  0.9461  0.5092
 1997SOL    HW2 8884   4.146   8.843   4.367  0.7608 -0.1135 -0.4748
 1998SOL     OW 8885   0.973   8.989   8.816 -0.1215  0.4990  0.6354
 1998SOL    HW1 8886   1.044   9.049   8.837  1.1921 -0.7870  0.0335
 1998SOL    HW2 8887   0.947   9.012   8.727  0.0471  0.5153  0.5892
 1999SOL     OW 8888   8.360   3.041   8.455  0.1634  0.5262  0.3196
 1999SOL    HW1 8889   8.412   2.970   8.417  1.1169  1.0495  0.6199
 1999SOL    HW2 8890   8.281   2.997   8.488  0.8711 -0.4523  0.7668
 2000SOL     OW 8891   4.697   3.698   8.440 -0.0868  0.2773  0.2830
 2000SOL    HW1 8892   4.624   3.717   8.499  0.3063 -0.5566  1.0538
 2000SOL    HW2 8893   4.775   3.707   8.495  0.2977 -0.2942 -0.1612
 2001SOL     OW 8894   6.106   1.359   4.370  0.5955 -0.6261  0.1824
 2001SOL    HW1 8895   6.090   1.413   4.448 -0.1037  1.0228 -1.0444
 2001SOL    HW2 8896   6.193   1.322   4.384  1.0850  0.7879  1.1082
 2002SOL     OW 8897   2.227   6.833   0.597 -0.0369 -0.6128 -0.7056
 2002SOL    HW1 8898   2.284   6.792   0.532 -0.0668 -0.4305 -0.8470
 2002SOL    HW2 8899   2.158   6.769   0.612  0.8985 -1.3888  0.4281
 2003SOL     OW 8900   6.891   0.458   7.286 -0.0562  0.0717  0.2351
 2003SOL    HW1 8901   6.850   0.534   7.328 -1.5314 -1.6916  2.1711
 2003SOL    HW2 8902   6.824   0.422   7.228  0.3145 -0.3070  0.0277
 2004SOL     OW 8903   4.513   2.666   4.494  0.0449  0.3631 -0.0743
 2004SOL    HW1 8904   4.503   2.712   4.411  0.1365  0.2187 -0.1655
 2004SOL    HW2 8905   4.427   2.627   4.511 -0.7769  2.5444  1.1958
 2005SOL     OW 8906   5.992   7.649   2.867 -0.5009 -0.4144 -0.0274
 2005SOL    HW1 8907   6.044   7.577   2.904 -0.4916 -0.6071 -0.4087
 2005SOL    HW2 8908   5.941   7.682   2.941  1.5174  1.0038  0.8178
 2006SOL     OW 8909   0.901   1.431   8.761  0.4346 -0.0313  0.2633
 2006SOL    HW1 8910   0.935   1.504   8.710 -1.1585  0.1010 -0.6778
 2006SOL    HW2 8911   0.976   1.399   8.810  1.3830  1.6414 -0.0098
 2007SOL     OW 8912   3.015   9.144   5.337  0.3201  0.1360  0.2110
 2007SOL    HW1 8913   3.100   9.181   5.361  0.4317  0.8097 -1.1082
 2007SOL    HW2 8914   2.966   9.219   5.303 -0.6425 -0.3312  0.5463
 2008SOL     OW 8915   8.198   2.505   2.039  0.2654 -0.3798  0.1168
 2008SOL    HW1 8916   8.153   2.472   1.961 -2.7251  0.2274  1.4422
 2008SOL    HW2 8917   8.249   2.579   2.008  2.0543 -2.2578 -1.7995
 2009SOL     OW 8918   6.733   7.369   8.787 -0.4543  0.0088  0.6030
 2009SOL    HW1 8919   6.787   7.362   8.866  1.1312 -1.3847 -0.5233
 2009SOL    HW2 8920   6.643   7.377   8.819  0.2092  0.2717  2.5333
 2010SOL     OW 8921   9.082   3.236   3.900  0.2399 -0.2080 -0.4296
 2010SOL    HW1 8922   9.009   3.295   3.883  0.8046  1.5316  2.5959
 2010SOL    HW2 8923   9.049   3.149   3.875 -2.4767  0.6796 -0.1770
 2011SOL     OW 8924   9.218   5.161   1.835  0.1506  0.4120 -0.0983
 2011SOL    HW1 8925   9.245   5.253   1.841 -0.5388  0.5540  1.3418
 2011SOL    HW2 8926   9.270   5.117   1.902  2.4437 -0.8162 -2.4936
 2012SOL     OW 8927   7.941   8.238   5.535  0.1311  0.0455 -0.1326
 2012SOL    HW1 8928   7.946   8.252   5.441  0.7373  1.6988  0.1042
 2012SOL    HW2 8929   7.983   8.154   5.550 -0.1141 -0.3011 -1.3506
 2013SOL     OW 8930   2.349   4.744   6.625 -0.5964  0.3507 -0.0674
 2013SOL    HW1 8931   2.427   4.746   6.680 -2.6119 -0.7614  3.0689
 2013SOL    HW2 8932   2.364   4.672   6.564  0.2362 -0.8395  1.4799
 2014SOL     OW 8933   6.389   4.982   4.483 -0.6365 -0.4466  0.6629
 2014SOL    HW1 8934   6.325   4.924   4.443 -1.9599  0.4086  1.4802
 2014SOL    HW2 8935   6.355   4.998   4.571  0.4971  0.3536  0.9724
 2015SOL     OW 8936   1.872   2.123   3.847 -0.0865 -0.7363  0.6737
 2015SOL    HW1 8937   1.941   2.106   3.910 -0.7183  1.0259  1.9148
 2015SOL    HW2 8938   1.794   2.142   3.900 -0.5132  1.3723 -0.5602
 2016SOL     OW 8939   4.924   4.663   8.937 -0.1850 -0.1609  0.0294
 2016SOL    HW1 8940   4.879   4.582   8.962 -0.9045  0.0350 -0.5993
 2016SOL    HW2 8941   4.886   4.730   8.992  1.1612 -0.3986  1.3077
 2017SOL     OW 8942   6.489   5.652   7.931 -0.1500 -0.4451 -0.3753
 2017SOL    HW1 8943   6.407   5.626   7.973  0.1897 -0.6879  0.1474
 2017SOL    HW2 8944   6.474   5.638   7.838 -1.0343  0.4198 -0.3761
 2018SOL     OW 8945   6.886   0.196   5.185 -0.6002  0.3716  0.3798
 2018SOL    HW1 8946   6.889   0.155   5.271 -2.5073  0.0511  0.3411
 2018SOL    HW2 8947   6.900   0.124   5.124 -0.7017  0.3449  0.3879
 2019SOL     OW 8948   8.804   4.550   4.294  0.2902 -0.0381 -0.0287
 2019SOL    HW1 8949   8.877   4.582   4.242  0.5596 -0.6689 -0.0454
 2019SOL    HW2 8950   8.735   4.531   4.230  1.0451 -2.0140 -0.3462
 2020SOL     OW 8951   1.947   4.324   6.534 -0.1960  0.2157  0.1558
 2020SOL    HW1 8952   1.893   4.382   6.586  0.3687  0.2674  0.6891
 2020SOL    HW2 8953   2.021   4.377   6.507  0.0520 -0.1045  0.1979
 2021SOL     OW 8954   4.143   8.082   5.601  0.2921 -0.4487 -0.1354
 2021SOL    HW1 8955   4.195   8.086   5.681 -2.3428 -1.5021  1.7593
 2021SOL    HW2 8956   4.165   7.998   5.562  0.9482 -0.3150 -0.0671
 2022SOL     OW 8957   1.752   6.643   0.736  0.1661  0.7911 -0.5506
 2022SOL    HW1 8958   1.796   6.637   0.652 -0.5767  0.0412 -0.9025
 2022SOL    HW2 8959   1.739   6.737   0.750  0.7332  0.9471 -1.0296
 2023SOL     OW 8960   6.487   2.771   7.823 -0.2646  0.3447 -0.1385
 2023SOL    HW1 8961   6.414   2.763   7.762 -0.8943 -0.1642  0.6461
 2023SOL    HW2 8962   6.476   2.696   7.882  1.8074 -0.6594 -0.9457
 2024SOL     OW 8963   1.887   8.811   7.057 -0.0207  0.5490  0.1152
 2024SOL    HW1 8964   1.928   8.727   7.034 -0.5441 -0.2297  1.8369
 2024SOL    HW2 8965   1.847   8.795   7.143 -0.5486  2.4368  0.2604
 2025SOL     OW 8966   4.455   1.564   3.230 -0.3681 -0.2799 -0.0049
 2025SOL    HW1 8967   4.377   1.546   3.178 -0.8572  3.7560 -1.0340
 2025SOL    HW2 8968   4.422   1.602   3.311  0.5320 -1.1800  0.8167
 2026SOL     OW 8969   7.897   3.217   2.111  0.1091 -0.3276 -0.0877
 2026SOL    HW1 8970   7.861   3.243   2.026  0.1538 -0.1799 -0.0625
 2026SOL    HW2 8971   7.825   3.171   2.155 -0.7031  1.6186  0.7329
 2027SOL     OW 8972   4.960   7.833   5.319  0.0852  0.1112  0.8985
 2027SOL    HW1 8973   4.959   7.768   5.248  2.0231 -1.6507  2.3637
 2027SOL    HW2 8974   4.898   7.900   5.291 -1.3609 -1.9354 -1.1107
 2028SOL     OW 8975   6.121   6.790   1.529 -0.2167 -0.1221  0.4243
 2028SOL    HW1 8976   6.151   6.860   1.587  0.8344 -0.5617  0.4410
 2028SOL    HW2 8977   6.033   6.816   1.503  0.1355  1.1767  0.4738
 2029SOL     OW 8978   0.121   2.810   0.513  0.2001  0.0252 -0.2045
 2029SOL    HW1 8979   0.147   2.837   0.601  0.2869 -2.6947  0.7209
 2029SOL    HW2 8980   0.203   2.792   0.468  0.1441 -1.0712  0.0875
 2030SOL     OW 8981   7.010   3.277   4.680 -0.4132  0.5247 -0.2217
 2030SOL    HW1 8982   6.920   3.244   4.676 -0.9571  1.7440  1.1158
 2030SOL    HW2 8983   7.003   3.361   4.725  1.7546 -0.8295  3.0552
 2031SOL     OW 8984   4.120   2.616   3.191 -0.1230 -0.4537 -0.6547
 2031SOL    HW1 8985   4.178   2.542   3.172 -0.7094 -0.5411 -2.2371
 2031SOL    HW2 8986   4.071   2.589   3.269  0.4738 -1.2457 -0.5379
 2032SOL     OW 8987   2.513   4.052   6.175 -0.2563  0.0585 -0.0537
 2032SOL    HW1 8988   2.592   4.082   6.131 -0.1066 -0.7041 -0.3101
 2032SOL    HW2 8989   2.476   3.986   6.117 -0.6546 -0.1646  0.4410
 2033SOL     OW 8990   8.210   4.127   9.205  0.1758  0.3569 -0.2474
 2033SOL    HW1 8991   8.139   4.190   9.193 -0.1951 -0.1205 -0.6273
 2033SOL    HW2 8992   8.172   4.058   9.259  0.2971  0.0166 -0.5906
 2034SOL     OW 8993   3.824   5.714   7.805  0.4137  0.5219 -0.4528
 2034SOL    HW1 8994   3.808   5.621   7.822  0.8517  0.5833  0.2968
 2034SOL    HW2 8995   3.796   5.758   7.884  1.9350  0.8574 -0.0727
 2035SOL     OW 8996   7.247   5.744   5.454 -0.3873  0.2106 -0.1721
 2035SOL    HW1 8997   7.265   5.740   5.360 -0.3652 -2.8581 -0.1324
 2035SOL    HW2 8998   7.169   5.799   5.461  0.5560  1.8661 -1.7702
 2036SOL     OW 8999   3.534   5.142   1.974 -0.1582 -0.1496 -0.3274
 2036SOL    HW1 9000   3.447   5.108   1.996  0.6535 -1.5942  0.8992
 2036SOL    HW2 9001   3.550   5.112   1.885 -1.4069  1.2462 -1.0615
 2037SOL     OW 9002   7.965   2.868   2.282  0.0481  0.0597  0.0547
 2037SOL    HW1 9003   8.046   2.826   2.313  1.3662  1.4832 -1.3075
 2037SOL    HW2 9004   7.975   2.960   2.306 -0.0367  0.7164 -2.2257
 2038SOL     OW 9005   0.408   7.054   0.942  0.3544 -0.0107 -0.2481
 2038SOL    HW1 9006   0.469   7.125   0.923  1.3141 -0.6358  0.3726
 2038SOL    HW2 9007   0.377   7.073   1.031 -0.4220  0.3443 -0.5909
 2039SOL     OW 9008   4.289   8.941   5.709 -0.3607  0.0230 -0.2048
 2039SOL    HW1 9009   4.360   8.931   5.645 -0.5505  0.1901 -0.4445
 2039SOL    HW2 9010   4.333   8.937   5.794 -0.0365  0.2981 -0.3548
 2040SOL     OW 9011   5.288   5.655   5.193  0.2755 -0.0432 -1.1922
 2040SOL    HW1 9012   5.272   5.742   5.157  0.8104 -0.0507 -1.4519
 2040SOL    HW2 9013   5.304   5.600   5.116 -2.6681 -0.9657 -1.2608
 2041SOL     OW 9014   5.721   9.004   3.581 -0.1244 -0.7789  0.4952
 2041SOL    HW1 9015   5.804   9.010   3.533  0.4572 -0.5904  1.4791
 2041SOL    HW2 9016   5.654   8.999   3.514  0.6771 -0.7224 -0.3266
 2042SOL     OW 9017   3.293   6.077   8.988  0.1720  0.2731  0.1767
 2042SOL    HW1 9018   3.213   6.035   9.020  1.1549 -2.5179 -0.7466
 2042SOL    HW2 9019   3.335   6.011   8.934  2.4591  2.1296 -0.4909
 2043SOL     OW 9020   4.707   7.303   6.803  0.2439  0.0290 -0.0954
 2043SOL    HW1 9021   4.688   7.397   6.798 -0.0447 -0.0806 -1.4017
 2043SOL    HW2 9022   4.625   7.260   6.779  0.8693 -0.5130 -1.3934
 2044SOL     OW 9023   5.516   7.814   1.750 -0.4389  0.1679  0.1711
 2044SOL    HW1 9024   5.575   7.803   1.824 -0.5329  2.7306  0.7220
 2044SOL    HW2 9025   5.554   7.885   1.699 -2.7248  1.5459  0.2643
 2045SOL     OW 9026   7.966   0.962   7.184  0.0610  0.2251 -0.1273
 2045SOL    HW1 9027   7.997   0.958   7.275 -0.8475  0.8223  0.2204
 2045SOL    HW2 9028   8.044   0.945   7.132  0.6688  0.2117  0.7588
 2046SOL     OW 9029   8.899   1.600   2.588  0.3831 -0.0147 -0.3221
 2046SOL    HW1 9030   8.950   1.664   2.539 -1.0299  0.8066 -0.7986
 2046SOL    HW2 9031   8.960   1.562   2.651  1.5048  1.0512 -0.7437
 2047SOL     OW 9032   3.408   6.125   5.204  0.8025 -0.7441 -0.2100
 2047SOL    HW1 9033   3.406   6.156   5.295 -1.0580  1.1000 -0.7945
 2047SOL    HW2 9034   3.466   6.187   5.159 -0.0715 -0.2495 -0.6881
 2048SOL     OW 9035   2.803   6.866   9.055 -0.2023 -0.3458 -0.3196
 2048SOL    HW1 9036   2.713   6.840   9.035 -0.3324  0.0082 -0.2075
 2048SOL    HW2 9037   2.827   6.815   9.132 -0.1564 -0.7583 -0.6055
 2049SOL     OW 9038   2.321   0.988   5.886  0.2267  0.0010 -0.4735
 2049SOL    HW1 9039   2.269   0.915   5.852 -0.5276  0.7969 -1.0945
 2049SOL    HW2 9040   2.412   0.963   5.870  0.1875 -2.1635  2.1020
 2050SOL     OW 9041   0.049   5.695   6.200  0.1768  0.2362  0.0174
 2050SOL    HW1 9042   0.058   5.749   6.279  0.0531  0.5841 -0.2053
 2050SOL    HW2 9043   0.130   5.710   6.152  1.5295 -2.1049  1.3674
 2051SOL     OW 9044   0.277   6.580   5.829  0.4222  0.2685  0.0897
 2051SOL    HW1 9045   0.199   6.564   5.883  0.1040  0.4916 -0.2964
 2051SOL    HW2 9046   0.261   6.667   5.791  1.5015  0.9430  1.1175
 2052SOL     OW 9047   2.854   3.665   2.203  0.2051  0.0527 -0.2927
 2052SOL    HW1 9048   2.876   3.754   2.174 -1.4989  1.7814  3.1323
 2052SOL    HW2 9049   2.760   3.657   2.189 -0.1785 -0.0435  2.0356
 2053SOL     OW 9050   3.305   0.143   5.625  0.0436  0.0725  0.5084
 2053SOL    HW1 9051   3.381   0.201   5.631 -0.4992  0.7138  1.4072
 2053SOL    HW2 9052   3.281   0.125   5.716 -1.4970  0.7075  0.2592
 2054SOL     OW 9053   4.826   8.592   7.153  0.1421  0.4814 -0.1449
 2054SOL    HW1 9054   4.768   8.662   7.184 -2.2520 -1.2522 -0.4238
 2054SOL    HW2 9055   4.853   8.546   7.233  0.7855  1.0101 -0.0504
 2055SOL     OW 9056   7.798   3.419   7.544 -0.0982 -0.0452  0.1099
 2055SOL    HW1 9057   7.796   3.387   7.454  0.0447  2.6939 -0.9748
 2055SOL    HW2 9058   7.891   3.433   7.562 -0.0923 -1.0111  0.8715
 2056SOL     OW 9059   1.381   5.561   0.296 -0.0981  0.1969  0.3356
 2056SOL    HW1 9060   1.438   5.626   0.255 -0.5457  0.3600 -0.0288
 2056SOL    HW2 9061   1.441   5.491   0.323  0.4900  1.0504  1.3438
 2057SOL     OW 9062   0.590   6.182   1.877  0.1715  0.0187  0.8505
 2057SOL    HW1 9063   0.505   6.208   1.843  0.2494 -1.4814 -0.5969
 2057SOL    HW2 9064   0.610   6.248   1.944 -0.9100  1.9427 -0.6095
 2058SOL     OW 9065   6.094   7.762   4.961  0.2589  0.2372 -0.2700
 2058SOL    HW1 9066   6.154   7.688   4.956  0.5730  0.3984  0.7839
 2058SOL    HW2 9067   6.024   7.733   5.019 -0.4908  0.1959 -1.1664
 2059SOL     OW 9068   0.778   1.607   0.933 -0.4877  0.1993 -0.4293
 2059SOL    HW1 9069   0.748   1.609   0.842 -1.9777  0.2614  0.0334
 2059SOL    HW2 9070   0.699   1.589   0.984  0.1674  1.0027  0.9228
 2060SOL     OW 9071   0.546   0.231   2.670 -0.0838  0.0720 -0.3696
 2060SOL    HW1 9072   0.504   0.266   2.748  0.4864 -2.0782  1.0212
 2060SOL    HW2 9073   0.475   0.190   2.621 -0.2976  0.5718 -0.4829
 2061SOL     OW 9074   3.662   4.304   6.494  0.2372  0.4552  0.0198
 2061SOL    HW1 9075   3.728   4.284   6.427  2.1625  2.1872  1.2822
 2061SOL    HW2 9076   3.646   4.220   6.537  2.0806  0.0501  0.0146
 2062SOL     OW 9077   3.176   0.076   7.561 -0.2008 -0.6947 -0.2321
 2062SOL    HW1 9078   3.193   0.170   7.570  1.7626 -1.0812  0.4514
 2062SOL    HW2 9079   3.204   0.054   7.472  0.8103 -0.9123  0.1338
 2063SOL     OW 9080   2.868   5.028   8.099 -0.1457 -0.4392 -0.6728
 2063SOL    HW1 9081   2.820   5.024   8.181 -0.0632 -0.1605 -0.6067
 2063SOL    HW2 9082   2.807   4.994   8.033 -0.3518 -0.3022 -0.5555
 2064SOL     OW 9083   2.302   1.222   2.053  0.2553  0.0407 -0.4286
 2064SOL    HW1 9084   2.331   1.205   1.963  0.0804  1.3025 -0.7389
 2064SOL    HW2 9085   2.377   1.265   2.094  0.0853  0.0951 -0.1763
 2065SOL     OW 9086   6.676   7.655   3.274 -0.2801 -0.4361  0.1076
 2065SOL    HW1 9087   6.768   7.668   3.295  0.4613 -1.0713 -2.4635
 2065SOL    HW2 9088   6.631   7.725   3.322  1.6391  0.5768  0.5308
 2066SOL     OW 9089   7.068   3.535   1.329  0.1009  0.2412  0.0556
 2066SOL    HW1 9090   7.073   3.460   1.269 -0.5024 -0.4533  0.8468
 2066SOL    HW2 9091   7.107   3.607   1.280  0.3592 -0.4985 -0.8688
 2067SOL     OW 9092   4.236   2.854   4.895 -0.6282  0.0883  0.3547
 2067SOL    HW1 9093   4.150   2.896   4.897 -1.0829 -0.8131  2.6682
 2067SOL    HW2 9094   4.245   2.813   4.981  1.5685 -0.9832 -0.3076
 2068SOL     OW 9095   5.821   5.370   2.698  0.8247 -0.3274  0.3464
 2068SOL    HW1 9096   5.748   5.351   2.640  0.0053  0.1393  1.2093
 2068SOL    HW2 9097   5.786   5.360   2.786  1.1547  2.0959  0.8257
 2069SOL     OW 9098   8.955   5.466   3.144 -0.3799 -0.6701 -0.2301
 2069SOL    HW1 9099   9.028   5.409   3.120 -0.4562 -0.8641 -0.0022
 2069SOL    HW2 9100   8.885   5.407   3.171 -1.0617 -0.5372 -1.6276
 2070SOL     OW 9101   1.965   0.634   6.973 -0.6471 -0.2801  0.3996
 2070SOL    HW1 9102   1.873   0.651   6.958 -0.9198 -0.3755  1.8202
 2070SOL    HW2 9103   1.995   0.589   6.894 -2.4023 -2.4167  0.8685
 2071SOL     OW 9104   5.212   6.990   2.751 -0.1068 -0.3990 -0.0802
 2071SOL    HW1 9105   5.260   7.071   2.735  1.3041 -1.0456  0.7080
 2071SOL    HW2 9106   5.214   6.944   2.668  0.1106 -0.1484 -0.2154
 2072SOL     OW 9107   3.183   9.160   2.719 -0.2433  0.4458  0.1467
 2072SOL    HW1 9108   3.232   9.104   2.659 -0.8792 -1.4181  1.2817
 2072SOL    HW2 9109   3.192   9.248   2.682 -0.2400 -0.5367 -2.3870
 2073SOL     OW 9110   5.669   8.659   7.787 -0.2408 -0.0055  0.2168
 2073SOL    HW1 9111   5.762   8.676   7.805 -0.1443  1.6617 -1.5086
 2073SOL    HW2 9112   5.634   8.744   7.761 -2.5101 -0.4124  1.6922
 2074SOL     OW 9113   6.072   2.352   8.166  0.2487 -0.4794  0.6524
 2074SOL    HW1 9114   6.051   2.329   8.075  0.7498 -0.4624  0.5301
 2074SOL    HW2 9115   6.146   2.295   8.189  0.4922 -0.0878  0.8581
 2075SOL     OW 9116   5.804   7.716   4.774 -0.0124 -0.1698  1.5939
 2075SOL    HW1 9117   5.831   7.625   4.781  2.0745  0.3095  0.5527
 2075SOL    HW2 9118   5.733   7.725   4.837 -0.4775 -2.5692  1.5048
 2076SOL     OW 9119   3.597   2.094   3.091 -0.0050  0.1788 -0.0126
 2076SOL    HW1 9120   3.592   2.072   3.184 -0.5188  1.6372  0.3278
 2076SOL    HW2 9121   3.625   2.185   3.089 -1.3835  0.6107 -1.2548
 2077SOL     OW 9122   2.383   3.638   5.989  0.2412 -0.1831  0.4363
 2077SOL    HW1 9123   2.344   3.718   6.024 -0.8892 -1.1842  1.5537
 2077SOL    HW2 9124   2.356   3.569   6.050  1.4151 -1.3847 -0.3429
 2078SOL     OW 9125   5.224   3.855   4.119  0.3672  0.3114  0.2763
 2078SOL    HW1 9126   5.234   3.791   4.049  0.0929  0.2372  0.3058
 2078SOL    HW2 9127   5.314   3.873   4.147  0.4170 -0.5373  0.6976
 2079SOL     OW 9128   3.505   4.091   2.550 -0.0058 -0.4631 -0.0783
 2079SOL    HW1 9129   3.513   4.087   2.454  0.0468 -0.5235 -0.0711
 2079SOL    HW2 9130   3.531   4.180   2.573  1.2392 -0.8378  0.0065
 2080SOL     OW 9131   2.150   0.814   6.642  0.0343 -0.3295 -0.1745
 2080SOL    HW1 9132   2.191   0.732   6.615 -1.7023 -2.3255  2.7812
 2080SOL    HW2 9133   2.215   0.881   6.622  2.0680 -2.5489 -1.4538
 2081SOL     OW 9134   8.205   2.948   6.017  0.4451  0.0497  0.2025
 2081SOL    HW1 9135   8.260   3.022   6.039  0.8526  0.3606 -1.6597
 2081SOL    HW2 9136   8.135   2.948   6.082  2.0103  0.3135  1.9401
 2082SOL     OW 9137   9.108   0.801   1.141 -0.4893 -0.0325 -0.1076
 2082SOL    HW1 9138   9.203   0.804   1.148 -0.4138 -1.0228 -0.4727
 2082SOL    HW2 9139   9.091   0.799   1.047 -0.7176 -2.5382 -0.0792
 2083SOL     OW 9140   3.316   0.947   8.319  0.2521  0.5377 -0.1895
 2083SOL    HW1 9141   3.300   1.041   8.323 -3.0594  0.1152 -0.6978
 2083SOL    HW2 9142   3.341   0.932   8.227 -0.7328  0.7690 -0.5096
 2084SOL     OW 9143   2.993   7.722   6.130 -0.0358  0.1048 -0.0685
 2084SOL    HW1 9144   2.983   7.675   6.046 -0.0057 -1.3708  0.7156
 2084SOL    HW2 9145   3.066   7.677   6.173 -1.0635 -0.2022  1.4115
 2085SOL     OW 9146   1.353   3.350   8.383 -0.1865 -0.2156 -0.1237
 2085SOL    HW1 9147   1.330   3.390   8.299 -1.5507 -0.9813 -0.1355
 2085SOL    HW2 9148   1.376   3.424   8.439  1.9470  0.2354 -1.4835
 2086SOL     OW 9149   8.231   2.129   3.556  0.2465  1.1856 -0.4072
 2086SOL    HW1 9150   8.136   2.120   3.555  0.4375 -1.6754 -1.7952
 2086SOL    HW2 9151   8.259   2.096   3.641  0.0661  1.1947 -0.3453
 2087SOL     OW 9152   4.474   9.238   6.737 -0.0923  0.2997  0.2179
 2087SOL    HW1 9153   4.509   9.324   6.711 -0.0934  0.6670  1.3791
 2087SOL    HW2 9154   4.457   9.193   6.654  1.3074  0.8494 -0.3972
 2088SOL     OW 9155   3.334   5.841   2.719  0.2874 -0.0704  0.3084
 2088SOL    HW1 9156   3.250   5.871   2.684  0.3066  1.5826  1.5521
 2088SOL    HW2 9157   3.391   5.836   2.642 -0.2590  1.3673 -0.2321
 2089SOL     OW 9158   4.533   1.871   3.187 -0.0737 -0.1193 -0.6007
 2089SOL    HW1 9159   4.463   1.826   3.139 -1.2117  0.7158  0.2320
 2089SOL    HW2 9160   4.500   1.878   3.277  1.6888 -0.9638  0.1722
 2090SOL     OW 9161   4.927   2.639   9.088  0.0870 -0.1744  0.1280
 2090SOL    HW1 9162   4.985   2.590   9.147  1.0238 -0.9292 -1.3407
 2090SOL    HW2 9163   4.977   2.647   9.007 -1.4649  0.0943 -0.8502
 2091SOL     OW 9164   1.314   2.476   5.491 -0.3973 -0.1855 -0.3858
 2091SOL    HW1 9165   1.266   2.405   5.533  0.0307 -0.1295  0.1951
 2091SOL    HW2 9166   1.398   2.480   5.536 -0.3760  0.6257 -0.4742
 2092SOL     OW 9167   2.631   5.996   2.706  1.0057 -0.4957 -0.3602
 2092SOL    HW1 9168   2.713   5.947   2.697  2.0451  0.7808  1.5470
 2092SOL    HW2 9169   2.607   5.987   2.798  0.5987  1.5332 -0.2134
 2093SOL     OW 9170   7.935   8.523   7.688  0.2618  0.2717 -0.0891
 2093SOL    HW1 9171   7.949   8.570   7.770  0.1606 -1.0580  0.7306
 2093SOL    HW2 9172   7.853   8.559   7.653 -0.0288  0.4094  0.7232
 2094SOL     OW 9173   8.173   8.161   2.386  0.0774 -0.3407  0.2172
 2094SOL    HW1 9174   8.199   8.069   2.387  0.2406 -0.3414 -1.5106
 2094SOL    HW2 9175   8.078   8.159   2.399  0.1852 -0.6957  0.9798
 2095SOL     OW 9176   6.003   0.230   5.783 -0.5063 -0.4086  0.1352
 2095SOL    HW1 9177   6.081   0.175   5.787  0.2600  0.6592  0.5683
 2095SOL    HW2 9178   5.973   0.223   5.692  0.1531 -0.7539 -0.0628
 2096SOL     OW 9179   5.770   5.615   1.882 -0.2331 -0.0343 -0.1226
 2096SOL    HW1 9180   5.803   5.668   1.810  2.7877 -0.4718  0.8262
 2096SOL    HW2 9181   5.794   5.663   1.961 -0.8003 -1.0021  0.6678
 2097SOL     OW 9182   0.014   0.835   7.983  0.5497 -0.4376 -0.5005
 2097SOL    HW1 9183   0.034   0.813   7.892  0.2136 -1.1794 -0.4057
 2097SOL    HW2 9184   0.066   0.913   8.001  0.9990 -0.5702 -1.1795
 2098SOL     OW 9185   0.991   4.031   6.223 -0.0048  0.1975 -0.2088
 2098SOL    HW1 9186   1.070   4.040   6.170 -0.8288  0.5087 -1.4219
 2098SOL    HW2 9187   0.947   3.954   6.188 -0.7447  0.6232 -0.2464
 2099SOL     OW 9188   3.337   4.993   7.621  0.3153  0.3167 -0.2786
 2099SOL    HW1 9189   3.277   4.931   7.580  0.0983  0.4488 -0.1640
 2099SOL    HW2 9190   3.370   4.947   7.698  0.2306  0.3049 -0.2490
 2100SOL     OW 9191   5.660   1.822   3.704 -0.1346 -0.4952  0.1285
 2100SOL    HW1 9192   5.676   1.758   3.773  0.6643  0.5366  0.9301
 2100SOL    HW2 9193   5.566   1.816   3.688 -0.0603 -1.9407  0.0936
 2101SOL     OW 9194   2.030   3.492   6.062 -0.0561 -0.3641 -0.4515
 2101SOL    HW1 9195   1.955   3.520   6.114  0.5357 -1.1894  0.9056
 2101SOL    HW2 9196   2.062   3.571   6.020 -1.8166 -0.0330 -1.2589
 2102SOL     OW 9197   2.905   4.309   4.232 -0.5708  0.2217 -0.2375
 2102SOL    HW1 9198   3.001   4.306   4.233 -0.5763 -0.1431 -0.4424
 2102SOL    HW2 9199   2.881   4.258   4.155 -0.9196  0.7057 -0.4488
 2103SOL     OW 9200   5.769   3.223   3.184 -0.1056  0.2902  0.1253
 2103SOL    HW1 9201   5.716   3.144   3.195 -0.4227  0.7135  1.9609
 2103SOL    HW2 9202   5.712   3.294   3.210  0.3876  1.0821 -0.8858
 2104SOL     OW 9203   7.518   0.092   7.807 -0.2387 -0.2573  0.1879
 2104SOL    HW1 9204   7.497   0.159   7.872 -1.2443 -0.6301  0.2696
 2104SOL    HW2 9205   7.603   0.119   7.771 -0.5564  0.9892  0.3053
 2105SOL     OW 9206   1.461   6.835   7.901  0.0341 -0.5079  0.5320
 2105SOL    HW1 9207   1.371   6.840   7.933 -0.3280 -0.9883 -0.3649
 2105SOL    HW2 9208   1.483   6.925   7.875  0.3003 -0.1283  1.9691
 2106SOL     OW 9209   7.770   7.705   2.383  0.0025 -0.6638 -0.3401
 2106SOL    HW1 9210   7.853   7.691   2.428  1.0619  0.3823 -1.8585
 2106SOL    HW2 9211   7.724   7.621   2.389  1.3300 -1.3764  0.2043
 2107SOL     OW 9212   8.157   1.626   6.117 -0.3427  0.2289 -0.1219
 2107SOL    HW1 9213   8.110   1.656   6.039  0.7687 -0.6090 -1.1546
 2107SOL    HW2 9214   8.248   1.619   6.088  0.1280  0.1529  1.3376
 2108SOL     OW 9215   2.391   8.814   4.820  0.1706 -0.3141 -0.0653
 2108SOL    HW1 9216   2.368   8.906   4.809  2.0851  0.5425  2.1431
 2108SOL    HW2 9217   2.344   8.786   4.899  0.5734 -0.8371  0.0010
 2109SOL     OW 9218   0.840   0.424   4.306 -0.1739 -0.4026  0.1399
 2109SOL    HW1 9219   0.826   0.442   4.213 -1.8232  0.3601  0.4931
 2109SOL    HW2 9220   0.798   0.339   4.319  0.1238 -0.5443  0.1746
 2110SOL     OW 9221   5.913   2.001   7.569  0.2182 -0.1192 -1.1218
 2110SOL    HW1 9222   5.829   2.034   7.540 -0.1623 -1.0706 -1.1446
 2110SOL    HW2 9223   5.974   2.074   7.555 -0.7007  0.7801 -0.5362
 2111SOL     OW 9224   5.102   0.640   9.072 -0.2319  0.0878 -0.3711
 2111SOL    HW1 9225   5.095   0.556   9.028 -0.3170 -0.1377  0.0631
 2111SOL    HW2 9226   5.184   0.678   9.040  0.9318 -1.1113  1.0419
 2112SOL     OW 9227   2.393   5.137   2.657  0.0891 -0.0578  0.2597
 2112SOL    HW1 9228   2.357   5.189   2.730  1.3875  0.7522  0.3684
 2112SOL    HW2 9229   2.487   5.156   2.659  0.5237 -1.9688 -0.0953
 2113SOL     OW 9230   7.557   5.203   2.821  0.2444 -1.0089  0.0973
 2113SOL    HW1 9231   7.493   5.231   2.886 -0.5164 -2.0899 -0.1612
 2113SOL    HW2 9232   7.507   5.196   2.739  0.6511 -1.9585 -0.0845
 2114SOL     OW 9233   6.544   2.215   2.065  0.3611  0.1042 -0.6515
 2114SOL    HW1 9234   6.570   2.291   2.013 -1.0233  0.5173 -0.7860
 2114SOL    HW2 9235   6.515   2.251   2.148 -0.8969 -0.1966 -0.9401
 2115SOL     OW 9236   6.444   8.681   1.743  0.1963 -0.4320  0.2921
 2115SOL    HW1 9237   6.526   8.653   1.702  0.1174  0.7471 -0.7269
 2115SOL    HW2 9238   6.386   8.605   1.735  0.3175 -0.3736 -1.4543
 2116SOL     OW 9239   6.485   3.614   5.682 -0.0282 -0.6061 -0.5214
 2116SOL    HW1 9240   6.578   3.638   5.677 -0.3603  1.9648  2.3416
 2116SOL    HW2 9241   6.441   3.678   5.625 -0.2147 -0.0864  0.1912
 2117SOL     OW 9242   4.093   5.435   2.141 -0.4077  0.6241 -0.7072
 2117SOL    HW1 9243   4.120   5.362   2.086  1.2535  0.9950 -0.4427
 2117SOL    HW2 9244   4.083   5.397   2.228 -3.1581  0.0108 -1.1766
 2118SOL     OW 9245   2.610   2.359   4.575 -0.7856  0.1809  0.1704
 2118SOL    HW1 9246   2.655   2.284   4.614 -1.8722 -2.0342 -2.5117
 2118SOL    HW2 9247   2.523   2.326   4.553 -1.7549  2.6495 -0.0271
 2119SOL     OW 9248   1.285   5.339   3.199  0.0025  0.3806 -0.1080
 2119SOL    HW1 9249   1.200   5.382   3.214  0.9754  2.1118  0.6983
 2119SOL    HW2 9250   1.311   5.367   3.112 -0.0803  0.1292 -0.2154
 2120SOL     OW 9251   0.048   1.362   9.031  0.3839 -0.0324  0.2731
 2120SOL    HW1 9252   0.024   1.389   8.943  2.1693  0.4280 -0.1270
 2120SOL    HW2 9253   0.089   1.439   9.069 -0.7719 -0.0889  1.6883
 2121SOL     OW 9254   5.316   3.622   3.986  0.1444  0.4524  0.5164
 2121SOL    HW1 9255   5.326   3.529   4.005 -0.0814  0.3987  0.3785
 2121SOL    HW2 9256   5.262   3.624   3.907 -0.0905  0.7077  0.6844
 2122SOL     OW 9257   2.303   3.023   2.289  0.2991  0.3403  0.3492
 2122SOL    HW1 9258   2.217   3.066   2.290  0.0617 -0.1182 -0.1053
 2122SOL    HW2 9259   2.284   2.931   2.272  0.8168  0.0620  1.2294
 2123SOL     OW 9260   4.344   4.943   8.727 -0.1788 -0.7537  0.1867
 2123SOL    HW1 9261   4.428   4.906   8.701 -1.0186 -1.5525 -1.5775
 2123SOL    HW2 9262   4.346   5.033   8.693 -0.5077 -1.1797 -1.0033
 2124SOL     OW 9263   0.256   0.131   3.644 -0.4355  0.4388 -0.0724
 2124SOL    HW1 9264   0.311   0.055   3.625 -0.9603 -0.1909  0.8411
 2124SOL    HW2 9265   0.318   0.199   3.672  0.1175  0.6379 -1.6879
 2125SOL     OW 9266   8.255   2.377   6.750  0.3557  0.3754  0.6204
 2125SOL    HW1 9267   8.342   2.381   6.710  0.2165 -1.4113  0.0598
 2125SOL    HW2 9268   8.217   2.464   6.733  1.6301  0.8255 -0.0416
 2126SOL     OW 9269   4.726   2.389   5.096  0.3394  0.6441 -0.0898
 2126SOL    HW1 9270   4.657   2.435   5.048 -0.1312  1.3110  1.1905
 2126SOL    HW2 9271   4.798   2.382   5.033 -0.3652  1.2319 -0.9826
 2127SOL     OW 9272   1.094   8.455   8.999  0.0672  0.1378  0.0566
 2127SOL    HW1 9273   1.083   8.550   9.001 -1.4914 -0.0261  0.6219
 2127SOL    HW2 9274   1.073   8.426   9.087 -0.8329 -0.8438 -0.4500
 2128SOL     OW 9275   2.558   4.239   4.764 -0.3394 -0.1694 -0.8875
 2128SOL    HW1 9276   2.498   4.171   4.794 -1.3189  1.4602  1.1363
 2128SOL    HW2 9277   2.510   4.284   4.694 -1.0864  0.4659  0.0107
 2129SOL     OW 9278   7.277   3.240   8.649 -0.5195 -1.0086  0.4152
 2129SOL    HW1 9279   7.231   3.158   8.670 -1.9645  0.1730  2.3314
 2129SOL    HW2 9280   7.214   3.309   8.673  1.1815  0.6748  0.2910
 2130SOL     OW 9281   2.190   0.610   4.641 -0.1646 -0.2058  0.1352
 2130SOL    HW1 9282   2.139   0.638   4.717  0.0718 -1.4335  0.7761
 2130SOL    HW2 9283   2.126   0.576   4.579 -0.1588 -1.7610  0.9452
 2131SOL     OW 9284   6.507   0.907   0.521  0.1822 -0.3654 -0.0558
 2131SOL    HW1 9285   6.533   0.989   0.481  0.2641 -0.3623  0.0022
 2131SOL    HW2 9286   6.496   0.846   0.448  0.7280 -0.4710 -0.0601
 2132SOL     OW 9287   4.560   7.185   3.001  0.0831  0.3748 -0.6439
 2132SOL    HW1 9288   4.509   7.259   2.969 -0.5151  0.1256 -0.2814
 2132SOL    HW2 9289   4.497   7.132   3.050  0.2779 -0.9100 -1.7512
 2133SOL     OW 9290   6.227   3.590   8.661  0.6605  0.6510  0.5190
 2133SOL    HW1 9291   6.222   3.507   8.614  0.8070  0.7874  0.2572
 2133SOL    HW2 9292   6.173   3.578   8.739  0.2169  0.5065  0.1890
 2134SOL     OW 9293   9.235   2.273   3.223  0.0791 -0.1159  0.5558
 2134SOL    HW1 9294   9.235   2.310   3.134 -2.5770 -0.4977  0.3319
 2134SOL    HW2 9295   9.280   2.189   3.214  1.8331  0.8226  0.0828
 2135SOL     OW 9296   6.856   0.238   4.174 -0.3585  0.4438  0.7029
 2135SOL    HW1 9297   6.904   0.156   4.191  0.2091  0.6634  0.1882
 2135SOL    HW2 9298   6.912   0.286   4.113 -1.8447  0.1445 -0.9491
 2136SOL     OW 9299   6.335   1.479   5.884  0.5716 -0.2327 -0.0410
 2136SOL    HW1 9300   6.419   1.446   5.853  0.8130  2.0828 -2.1680
 2136SOL    HW2 9301   6.345   1.574   5.886 -1.5165  0.0383  1.2052
 2137SOL     OW 9302   1.222   1.122   7.573 -0.1996  0.2293 -0.1672
 2137SOL    HW1 9303   1.284   1.171   7.518 -0.6241  1.3247  0.2956
 2137SOL    HW2 9304   1.274   1.051   7.611 -0.0495 -1.0286 -2.5332
 2138SOL     OW 9305   0.566   6.884   0.501  0.1321 -0.7617 -0.0633
 2138SOL    HW1 9306   0.568   6.788   0.503 -0.1831 -0.7586  1.2465
 2138SOL    HW2 9307   0.654   6.909   0.471  0.8884 -1.4442  1.4718
 2139SOL     OW 9308   3.128   0.974   3.848  0.2118 -0.2643 -0.2389
 2139SOL    HW1 9309   3.116   1.027   3.927 -2.0564  1.1320 -1.4129
 2139SOL    HW2 9310   3.212   0.930   3.861 -0.5971 -0.9675  3.4023
 2140SOL     OW 9311   7.503   2.699   6.863  0.0666  0.3631 -0.1541
 2140SOL    HW1 9312   7.459   2.754   6.798 -0.5671 -1.1735 -1.0608
 2140SOL    HW2 9313   7.593   2.691   6.830 -0.3113 -0.6018 -1.0094
 2141SOL     OW 9314   8.321   3.409   7.614  0.2846 -0.1987  0.0376
 2141SOL    HW1 9315   8.306   3.490   7.564 -2.3843  0.4329  1.6589
 2141SOL    HW2 9316   8.344   3.439   7.702  1.7494 -1.2647  0.0522
 2142SOL     OW 9317   2.761   4.114   3.085  0.0180 -0.5833  0.1957
 2142SOL    HW1 9318   2.754   4.020   3.101  1.0707 -0.8140 -0.5803
 2142SOL    HW2 9319   2.809   4.120   3.002  0.4323  0.6522  0.5126
 2143SOL     OW 9320   6.277   8.623   5.706  0.1945  0.0594 -0.4320
 2143SOL    HW1 9321   6.301   8.663   5.790 -2.4891 -2.6054  1.8584
 2143SOL    HW2 9322   6.238   8.695   5.656  0.3731  1.4377  1.2755
 2144SOL     OW 9323   5.056   1.349   7.262 -0.3222  0.1906 -0.6465
 2144SOL    HW1 9324   5.105   1.318   7.186  1.6613  1.2357  0.1242
 2144SOL    HW2 9325   5.017   1.270   7.300 -0.4526 -0.4773 -2.1347
 2145SOL     OW 9326   5.234   8.163   2.853 -0.2997 -0.4435  0.3404
 2145SOL    HW1 9327   5.250   8.096   2.919 -1.4399 -0.3149  0.7847
 2145SOL    HW2 9328   5.163   8.216   2.890 -0.7984 -0.2217 -0.8792
 2146SOL     OW 9329   0.038   0.107   6.296  0.4433 -0.3263  0.5431
 2146SOL    HW1 9330   0.017   0.181   6.239 -1.4079  0.2640  1.9007
 2146SOL    HW2 9331   0.020   0.139   6.384 -0.4220 -2.4049  1.1728
 2147SOL     OW 9332   2.752   9.060   3.296 -0.3062 -0.4261  0.0943
 2147SOL    HW1 9333   2.836   9.101   3.311 -0.1848 -0.9258  0.8411
 2147SOL    HW2 9334   2.754   9.032   3.205 -0.9467  2.4341 -0.9003
 2148SOL     OW 9335   0.068   5.642   4.458  0.6842  0.2781  0.1134
 2148SOL    HW1 9336  -0.004   5.681   4.408  0.1983 -0.2434  0.3951
 2148SOL    HW2 9337   0.140   5.705   4.450 -0.0072  1.1074  0.3724
 2149SOL     OW 9338   5.236   7.067   6.291 -0.1052 -0.8154 -0.1156
 2149SOL    HW1 9339   5.163   7.005   6.292 -0.0675 -0.8595 -0.1132
 2149SOL    HW2 9340   5.270   7.064   6.381 -0.2431 -0.6278 -0.0551
 2150SOL     OW 9341   5.172   4.959   7.208  0.3291 -0.1059  0.3569
 2150SOL    HW1 9342   5.214   4.875   7.223 -0.2454 -0.1700  1.8377
 2150SOL    HW2 9343   5.231   5.007   7.150 -0.1899 -2.1675 -2.0423
 2151SOL     OW 9344   3.308   8.232   0.335 -0.4686 -0.0443  0.3026
 2151SOL    HW1 9345   3.223   8.218   0.376 -0.7863 -0.9757 -0.6153
 2151SOL    HW2 9346   3.287   8.259   0.245  0.2038  0.9947  0.4389
 2152SOL     OW 9347   4.278   4.624   4.040 -0.1557 -0.0402 -0.3549
 2152SOL    HW1 9348   4.338   4.609   3.967 -0.5868 -0.8051 -0.5596
 2152SOL    HW2 9349   4.313   4.701   4.084  1.6875 -1.1881  0.2810
 2153SOL     OW 9350   0.576   3.598   7.476 -0.4882  0.1625  0.5743
 2153SOL    HW1 9351   0.593   3.591   7.570  0.0444 -1.5746  0.3791
 2153SOL    HW2 9352   0.551   3.510   7.449 -0.8474  0.6783 -0.8846
 2154SOL     OW 9353   2.378   2.222   4.614  0.4564 -0.3160  0.2674
 2154SOL    HW1 9354   2.303   2.163   4.617  1.7101 -2.0735 -0.6226
 2154SOL    HW2 9355   2.350   2.301   4.660 -1.3690 -1.5390  1.3432
 2155SOL     OW 9356   4.768   6.303   8.847  0.5761  0.6976 -0.1183
 2155SOL    HW1 9357   4.860   6.328   8.862  0.6350  1.2346 -1.2569
 2155SOL    HW2 9358   4.717   6.368   8.896  0.7970  0.2655  0.6996
 2156SOL     OW 9359   0.829   2.379   2.947  0.1544  0.2295 -0.1148
 2156SOL    HW1 9360   0.837   2.319   2.872 -2.6243  0.1094 -0.4093
 2156SOL    HW2 9361   0.898   2.443   2.933  1.5674 -1.4123 -1.1956
 2157SOL     OW 9362   7.916   8.891   7.268 -0.0143  0.1010 -0.1191
 2157SOL    HW1 9363   7.826   8.866   7.249 -0.2979  1.3280 -0.4886
 2157SOL    HW2 9364   7.919   8.899   7.363  0.0976 -1.3115  0.0135
 2158SOL     OW 9365   3.117   2.746   0.209 -0.2108 -0.5976  0.1559
 2158SOL    HW1 9366   3.062   2.720   0.135 -0.8968 -0.3797  0.5856
 2158SOL    HW2 9367   3.207   2.735   0.176 -0.4639  1.2769 -1.3821
 2159SOL     OW 9368   3.747   0.649   5.935  0.2166 -0.1956  0.1754
 2159SOL    HW1 9369   3.686   0.695   5.991  1.0551  2.4100 -0.8777
 2159SOL    HW2 9370   3.824   0.635   5.990 -0.4524 -1.4439  0.8350
 2160SOL     OW 9371   4.226   4.886   4.428 -0.4933 -0.1800 -0.0915
 2160SOL    HW1 9372   4.180   4.967   4.406 -0.3914  0.2430  1.1465
 2160SOL    HW2 9373   4.221   4.833   4.349 -1.1207  0.7790 -0.7158
 2161SOL     OW 9374   7.143   0.201   4.422  0.5908  0.3128  0.3098
 2161SOL    HW1 9375   7.076   0.258   4.459  0.6274  0.0202  0.8328
 2161SOL    HW2 9376   7.179   0.154   4.497  1.8058  0.9007  0.1244
 2162SOL     OW 9377   3.251   6.477   6.694 -0.0781 -0.6928  0.1319
 2162SOL    HW1 9378   3.336   6.443   6.724 -0.3342  0.8481  2.9716
 2162SOL    HW2 9379   3.191   6.458   6.767 -1.6627  0.2610 -0.8697
 2163SOL     OW 9380   3.973   8.558   8.261 -0.3771 -0.0284 -0.1923
 2163SOL    HW1 9381   4.020   8.489   8.214 -0.0874  0.1214 -0.1216
 2163SOL    HW2 9382   3.880   8.536   8.248 -0.3140  0.1555 -1.0604
 2164SOL     OW 9383   8.258   5.464   3.173 -0.3889  0.5110 -0.8665
 2164SOL    HW1 9384   8.336   5.428   3.214 -0.5034  0.7406 -0.4429
 2164SOL    HW2 9385   8.196   5.391   3.168 -0.2947  0.4296 -0.8277
 2165SOL     OW 9386   2.443   5.276   1.057 -0.0298  0.1455 -0.2388
 2165SOL    HW1 9387   2.421   5.184   1.046 -0.9598  0.3414 -0.1215
 2165SOL    HW2 9388   2.415   5.297   1.147 -0.1026  0.6111 -0.3650
 2166SOL     OW 9389   2.014   1.894   5.608 -0.4218 -0.2810  0.3978
 2166SOL    HW1 9390   2.097   1.912   5.563 -0.6663  0.2738  0.1591
 2166SOL    HW2 9391   1.952   1.877   5.537 -0.9113  1.0277  0.4775
 2167SOL     OW 9392   5.209   2.463   6.070  0.6371 -0.3291  0.3883
 2167SOL    HW1 9393   5.257   2.507   6.140 -0.2683 -0.5884  1.1813
 2167SOL    HW2 9394   5.182   2.380   6.108  1.1190 -0.9874 -0.6440
 2168SOL     OW 9395   1.682   8.054   9.033  0.4609 -0.0259 -0.4618
 2168SOL    HW1 9396   1.774   8.035   9.015  0.7072 -0.0745  0.7811
 2168SOL    HW2 9397   1.683   8.098   9.118 -0.7855 -1.2518  0.2251
 2169SOL     OW 9398   8.339   0.791   3.681  0.0496  0.0296 -0.4015
 2169SOL    HW1 9399   8.422   0.840   3.685 -0.1881  0.3357  1.1854
 2169SOL    HW2 9400   8.299   0.820   3.599  1.4902 -0.1112 -1.2013
 2170SOL     OW 9401   2.651   4.913   2.600 -0.0822  0.1421 -0.5786
 2170SOL    HW1 9402   2.601   4.918   2.518  1.3880  0.7244 -1.4786
 2170SOL    HW2 9403   2.666   4.820   2.614 -1.6851 -0.0777 -0.0879
 2171SOL     OW 9404   8.177   6.192   4.264 -0.1054  0.0054 -0.0724
 2171SOL    HW1 9405   8.122   6.190   4.186  1.5546 -0.7707 -1.3003
 2171SOL    HW2 9406   8.253   6.246   4.238 -0.3005  1.1546  1.5927
 2172SOL     OW 9407   5.067   8.486   7.899  0.7546  0.1088 -0.3306
 2172SOL    HW1 9408   5.124   8.511   7.972 -0.1038  0.4733  0.2320
 2172SOL    HW2 9409   4.983   8.526   7.920  0.2448 -0.5576 -1.0685
 2173SOL     OW 9410   3.668   8.271   6.677 -0.3307  0.8103  0.5665
 2173SOL    HW1 9411   3.707   8.250   6.593 -0.8725  1.8416  0.0435
 2173SOL    HW2 9412   3.588   8.220   6.680  0.3051 -0.1928  1.0167
 2174SOL     OW 9413   6.065   0.971   4.261 -0.5484 -0.7814 -0.4881
 2174SOL    HW1 9414   6.018   1.021   4.328 -0.1495 -0.2172 -0.6187
 2174SOL    HW2 9415   6.040   1.012   4.179  2.7246  1.8457 -0.4001
 2175SOL     OW 9416   0.980   8.743   2.958 -0.5565  0.5716 -0.1123
 2175SOL    HW1 9417   0.893   8.776   2.979 -0.5212  0.2451  0.5602
 2175SOL    HW2 9418   0.987   8.661   3.007  0.6589  1.2807  0.9500
 2176SOL     OW 9419   1.369   7.804   7.435  0.0277 -0.4574  0.4334
 2176SOL    HW1 9420   1.389   7.723   7.390  0.5280 -0.1646  0.1236
 2176SOL    HW2 9421   1.449   7.857   7.428 -1.0454  1.0503 -1.5046
 2177SOL     OW 9422   0.447   3.046   2.813  0.2956  0.1144  0.1415
 2177SOL    HW1 9423   0.442   3.017   2.722  0.3957 -0.5343  0.3321
 2177SOL    HW2 9424   0.374   3.108   2.823 -0.3000 -0.5229 -0.1354
 2178SOL     OW 9425   2.327   1.491   3.818  0.0678  0.7146  0.6933
 2178SOL    HW1 9426   2.373   1.567   3.856 -1.1878  1.3412  1.0230
 2178SOL    HW2 9427   2.273   1.528   3.749  1.2183 -0.2326 -0.7729
 2179SOL     OW 9428   4.772   3.159   7.461  0.1819  0.5605 -0.1164
 2179SOL    HW1 9429   4.844   3.221   7.476 -0.4071  0.8547  1.7713
 2179SOL    HW2 9430   4.723   3.159   7.544 -0.9852 -0.9438 -0.7655
 2180SOL     OW 9431   3.217   5.928   5.470  0.3325  0.4346 -0.0098
 2180SOL    HW1 9432   3.249   5.869   5.402  0.7930  0.6002  0.0583
 2180SOL    HW2 9433   3.219   5.875   5.550 -1.4775 -0.1753 -0.3395
 2181SOL     OW 9434   5.189   3.733   7.400  0.7548  0.4142 -0.0326
 2181SOL    HW1 9435   5.130   3.661   7.377  0.7518  0.2025  0.6104
 2181SOL    HW2 9436   5.269   3.715   7.350  0.7176  0.0178  0.0472
 2182SOL     OW 9437   6.210   6.475   1.013 -0.1253  0.0524  0.3816
 2182SOL    HW1 9438   6.194   6.543   1.079 -0.6370 -0.3760  0.7123
 2182SOL    HW2 9439   6.203   6.392   1.062 -1.4807 -0.3121 -0.3821
 2183SOL     OW 9440   6.975   2.208   2.759  0.7312 -0.2589  0.3327
 2183SOL    HW1 9441   6.918   2.133   2.776 -0.1255  0.5331  1.0845
 2183SOL    HW2 9442   7.061   2.169   2.738 -0.1170 -1.4783 -1.0781
 2184SOL     OW 9443   2.650   6.757   0.978 -0.7539  0.5155 -0.2356
 2184SOL    HW1 9444   2.561   6.758   1.014 -1.4269  1.0795 -1.8413
 2184SOL    HW2 9445   2.647   6.695   0.906 -0.3691  1.9143 -1.5046
 2185SOL     OW 9446   2.682   6.865   7.152 -0.0912  0.5878  0.2206
 2185SOL    HW1 9447   2.606   6.846   7.096 -0.6312 -0.5437  1.2678
 2185SOL    HW2 9448   2.750   6.806   7.120  0.7044  2.2823 -1.3429
 2186SOL     OW 9449   0.293   3.522   7.410 -0.2120  0.0918  0.3702
 2186SOL    HW1 9450   0.341   3.605   7.412  0.3474 -0.2076 -0.2534
 2186SOL    HW2 9451   0.354   3.460   7.371 -0.8024 -0.5011  0.3671
 2187SOL     OW 9452   6.821   2.604   2.393  0.3468  0.0836  0.5191
 2187SOL    HW1 9453   6.897   2.546   2.390  0.6887  0.5180  0.6610
 2187SOL    HW2 9454   6.749   2.549   2.425  0.9002 -0.0178  1.6254
 2188SOL     OW 9455   8.149   5.464   5.242  0.0672  0.1313  0.2004
 2188SOL    HW1 9456   8.231   5.496   5.205  0.8729 -0.1203  1.6753
 2188SOL    HW2 9457   8.134   5.380   5.199  0.6199  0.1577 -0.0529
 2189SOL     OW 9458   8.875   1.788   4.214  0.0897 -0.0239 -0.0655
 2189SOL    HW1 9459   8.853   1.696   4.196  0.2044 -0.7035  2.8174
 2189SOL    HW2 9460   8.970   1.793   4.205  0.1630 -0.3834  0.4767
 2190SOL     OW 9461   6.651   4.814   2.163  0.0416 -0.1047  0.6095
 2190SOL    HW1 9462   6.609   4.873   2.100  0.8138  0.5671  0.7161
 2190SOL    HW2 9463   6.743   4.841   2.164  0.1830 -0.5933  1.4826
 2191SOL     OW 9464   6.806   7.455   4.685  0.0443 -0.7554  0.1957
 2191SOL    HW1 9465   6.736   7.509   4.720 -1.1703 -3.3482  2.0938
 2191SOL    HW2 9466   6.883   7.479   4.737  0.4030  1.3237 -1.1664
 2192SOL     OW 9467   1.045   4.776   2.719 -0.2322 -0.4076 -0.3418
 2192SOL    HW1 9468   1.047   4.868   2.742 -0.1321 -0.3106 -0.7404
 2192SOL    HW2 9469   0.958   4.746   2.747 -1.0259  0.2697 -1.9815
 2193SOL     OW 9470   5.929   2.536   2.365 -0.6227 -0.1093 -0.0750
 2193SOL    HW1 9471   5.882   2.505   2.442  1.4431  0.8232  1.6791
 2193SOL    HW2 9472   6.010   2.485   2.365  0.5472  1.6606 -0.0766
 2194SOL     OW 9473   5.372   2.065   5.436 -1.1129 -0.1454 -0.1537
 2194SOL    HW1 9474   5.338   2.109   5.513  0.0740  0.1219  0.2310
 2194SOL    HW2 9475   5.296   2.020   5.399 -1.7395 -0.1011  1.0359
 2195SOL     OW 9476   5.673   1.768   1.941 -0.1810 -0.3538 -0.6339
 2195SOL    HW1 9477   5.702   1.686   1.900 -2.0306 -0.5154 -1.7789
 2195SOL    HW2 9478   5.736   1.833   1.912  0.6927 -1.1759 -0.6212
 2196SOL     OW 9479   1.216   3.170   1.024  0.0006  0.1332 -0.1415
 2196SOL    HW1 9480   1.233   3.230   1.096  1.0846  0.5821 -0.7537
 2196SOL    HW2 9481   1.178   3.092   1.065  0.1782  0.5598  0.8474
 2197SOL     OW 9482   7.509   4.254   3.321  0.0486 -0.2341  0.0589
 2197SOL    HW1 9483   7.558   4.253   3.403  0.1044  0.5630  0.0444
 2197SOL    HW2 9484   7.487   4.346   3.307  0.3337 -0.3049 -0.9898
 2198SOL     OW 9485   6.742   0.845   6.559  0.5854 -0.4623  0.5402
 2198SOL    HW1 9486   6.827   0.800   6.563 -0.0973 -1.7441  1.8897
 2198SOL    HW2 9487   6.687   0.787   6.506  0.9272  1.1546 -1.7242
 2199SOL     OW 9488   6.078   3.504   0.546  0.2585 -0.0113 -0.1063
 2199SOL    HW1 9489   6.039   3.444   0.481 -2.3218 -0.4646  1.6666
 2199SOL    HW2 9490   6.040   3.589   0.525 -1.4810 -0.3686  1.3685
 2200SOL     OW 9491   1.582   0.415   6.559  0.3682 -0.9543 -0.0261
 2200SOL    HW1 9492   1.518   0.457   6.502 -0.7655 -0.6185  1.4567
 2200SOL    HW2 9493   1.552   0.324   6.566 -0.2715 -0.6633  1.1074
 2201SOL     OW 9494   8.562   8.006   2.839  0.0480  0.6136 -0.2601
 2201SOL    HW1 9495   8.645   7.973   2.873 -0.5295 -0.9447 -0.3100
 2201SOL    HW2 9496   8.583   8.093   2.804  1.2953  0.9608  1.2491
 2202SOL     OW 9497   0.592   0.631   2.820 -0.3654 -0.1870 -0.3055
 2202SOL    HW1 9498   0.681   0.665   2.812 -0.0056  0.0448  3.0847
 2202SOL    HW2 9499   0.557   0.676   2.897 -2.6309 -1.9259 -0.2285
 2203SOL     OW 9500   5.503   4.433   4.715 -0.6080  0.5556 -0.0447
 2203SOL    HW1 9501   5.415   4.452   4.681 -0.7540  0.3022  0.1849
 2203SOL    HW2 9502   5.512   4.490   4.792 -0.0137  1.6344 -0.8785
 2204SOL     OW 9503   3.833   6.691   3.074 -0.2305 -0.1913 -0.2344
 2204SOL    HW1 9504   3.872   6.700   2.987 -1.6236 -0.0258 -0.8767
 2204SOL    HW2 9505   3.862   6.605   3.105  0.5510 -0.1099 -0.7023
 2205SOL     OW 9506   7.190   4.514   2.244 -0.6468  0.0029 -0.3848
 2205SOL    HW1 9507   7.244   4.436   2.230 -3.2619 -2.0891  0.2321
 2205SOL    HW2 9508   7.239   4.568   2.305  0.1053 -2.5311  1.4005
 2206SOL     OW 9509   8.391   1.462   1.733 -0.6794 -0.2153 -0.1494
 2206SOL    HW1 9510   8.482   1.454   1.703 -0.8412  0.5965 -0.8876
 2206SOL    HW2 9511   8.342   1.489   1.656 -1.4289  0.0619  0.4076
 2207SOL     OW 9512   0.057   9.249   8.455  0.0378 -0.0250 -0.4467
 2207SOL    HW1 9513  -0.021   9.248   8.398  1.4799  0.4792 -2.5525
 2207SOL    HW2 9514   0.058   9.163   8.495 -1.0516 -0.4204 -1.2006
 2208SOL     OW 9515   2.419   4.236   8.904  0.5779 -0.1239  0.1042
 2208SOL    HW1 9516   2.357   4.289   8.954  0.4618 -0.1291 -0.0318
 2208SOL    HW2 9517   2.488   4.213   8.966  0.2249 -0.4798  0.3653
 2209SOL     OW 9518   1.980   8.669   1.213  0.5366 -0.3365 -0.2315
 2209SOL    HW1 9519   2.023   8.700   1.293 -0.2417 -0.9472  0.4586
 2209SOL    HW2 9520   1.969   8.575   1.228 -1.7931 -0.0867  0.0469
 2210SOL     OW 9521   5.172   5.214   3.607 -0.2221  0.5072 -0.0350
 2210SOL    HW1 9522   5.192   5.261   3.526 -0.9920 -1.2581 -1.3132
 2210SOL    HW2 9523   5.258   5.194   3.644  0.1577  0.8757 -0.6942
 2211SOL     OW 9524   6.169   2.236   7.139  0.2828 -0.0260 -0.2524
 2211SOL    HW1 9525   6.113   2.205   7.211  1.6900  0.6486  1.2026
 2211SOL    HW2 9526   6.111   2.289   7.085 -0.8988 -0.8123  0.1933
 2212SOL     OW 9527   6.105   8.134   1.916 -0.0778  0.0321 -0.8001
 2212SOL    HW1 9528   6.114   8.061   1.977  1.1409  0.0243 -0.9666
 2212SOL    HW2 9529   6.079   8.208   1.971 -2.5466 -0.7700 -0.7995
 2213SOL     OW 9530   2.208   2.994   8.939  0.2067 -0.4036  0.2152
 2213SOL    HW1 9531   2.143   3.044   8.989  0.4736  0.7199 -0.5338
 2213SOL    HW2 9532   2.245   3.057   8.878 -1.5961 -2.1889 -2.9536
 2214SOL     OW 9533   1.448   5.499   1.441 -0.5681 -0.3603  0.2889
 2214SOL    HW1 9534   1.503   5.561   1.489 -0.3571 -0.8040  0.6246
 2214SOL    HW2 9535   1.369   5.548   1.421 -0.6314 -0.1502  1.0290
 2215SOL     OW 9536   1.978   0.181   1.793  0.1341 -0.8772  0.1506
 2215SOL    HW1 9537   2.070   0.186   1.769  0.7493  2.0076  2.4597
 2215SOL    HW2 9538   1.933   0.238   1.731  0.0789 -1.4033 -0.2945
 2216SOL     OW 9539   6.894   9.249   5.026 -0.0892 -0.0489  0.1880
 2216SOL    HW1 9540   6.873   9.272   4.936  0.5266 -1.6429 -0.4017
 2216SOL    HW2 9541   6.979   9.206   5.020  1.1716  1.9920  1.8689
 2217SOL     OW 9542   6.184   6.909   1.160  0.0802  0.5197  0.2272
 2217SOL    HW1 9543   6.100   6.924   1.203 -1.3333 -1.0572 -1.7540
 2217SOL    HW2 9544   6.201   6.815   1.172  0.9842  0.6012 -0.3170
 2218SOL     OW 9545   2.713   5.152   4.518 -0.2699 -0.1633 -0.2086
 2218SOL    HW1 9546   2.685   5.069   4.557  1.2323 -1.3158 -1.4948
 2218SOL    HW2 9547   2.646   5.170   4.452 -1.7934  0.8410  1.4859
 2219SOL     OW 9548   0.071   6.997   1.221 -0.1000 -0.2773  0.0078
 2219SOL    HW1 9549   0.048   7.043   1.140 -0.7960 -0.2401  0.2241
 2219SOL    HW2 9550   0.039   6.908   1.208 -0.7945 -0.1046  0.4936
 2220SOL     OW 9551   1.461   8.587   3.681 -0.6363  0.3050 -0.0837
 2220SOL    HW1 9552   1.552   8.616   3.674 -0.1270 -1.0414  0.4971
 2220SOL    HW2 9553   1.439   8.560   3.592 -0.0526 -0.4618 -0.0110
 2221SOL     OW 9554   3.618   1.371   4.362 -0.2969  0.2417  0.8278
 2221SOL    HW1 9555   3.541   1.414   4.399 -0.3469  0.6700  0.2498
 2221SOL    HW2 9556   3.611   1.386   4.268  0.9442  1.0492  0.8411
 2222SOL     OW 9557   1.581   2.111   7.402 -0.4982  0.1552 -0.4700
 2222SOL    HW1 9558   1.509   2.064   7.360  0.7264 -1.4320 -0.8923
 2222SOL    HW2 9559   1.656   2.099   7.343  0.9014 -0.8940  1.4058
 2223SOL     OW 9560   5.215   3.276   0.208 -0.1366 -0.3400 -0.3557
 2223SOL    HW1 9561   5.143   3.280   0.146 -0.4700 -2.2991 -0.1302
 2223SOL    HW2 9562   5.180   3.230   0.284  0.7104  0.6716  0.6950
 2224SOL     OW 9563   7.938   2.443   6.675 -0.5436  0.4655 -0.0707
 2224SOL    HW1 9564   7.886   2.434   6.756  0.8696  0.7757  0.9050
 2224SOL    HW2 9565   7.992   2.520   6.691  0.0952  0.2428 -1.1402
 2225SOL     OW 9566   7.013   1.659   0.952 -0.0794  0.0882  0.4195
 2225SOL    HW1 9567   6.947   1.700   0.895 -0.4506 -1.5955 -0.4236
 2225SOL    HW2 9568   7.081   1.629   0.892  0.2733 -0.3689  1.0397
 2226SOL     OW 9569   5.145   5.813   8.933 -0.8938  0.0240  0.0660
 2226SOL    HW1 9570   5.095   5.753   8.877  1.3363  0.1562 -2.2349
 2226SOL    HW2 9571   5.113   5.900   8.911 -2.7488 -0.0759  1.9859
 2227SOL     OW 9572   3.588   1.388   5.641  0.0142 -0.5945  0.0546
 2227SOL    HW1 9573   3.636   1.451   5.696  2.2669 -2.1217  0.0046
 2227SOL    HW2 9574   3.496   1.401   5.664  0.4096  2.3313  0.3835
 2228SOL     OW 9575   1.674   6.273   9.159  0.5400 -0.2347 -0.2998
 2228SOL    HW1 9576   1.761   6.269   9.119  0.4057  2.2821 -1.0476
 2228SOL    HW2 9577   1.691   6.273   9.253  1.6403  2.4830 -0.4003
 2229SOL     OW 9578   8.460   8.615   6.568  0.2734  0.4178 -0.8208
 2229SOL    HW1 9579   8.541   8.574   6.598  0.1895  0.3336 -0.7029
 2229SOL    HW2 9580   8.398   8.542   6.561 -0.1759  0.6545  0.4204
 2230SOL     OW 9581   0.452   0.483   0.501  0.2069  0.0359 -0.4651
 2230SOL    HW1 9582   0.401   0.402   0.499  0.0239  0.0662  1.2714
 2230SOL    HW2 9583   0.406   0.543   0.443 -1.6611 -0.0104  0.8915
 2231SOL     OW 9584   9.016   7.691   7.731 -0.1516 -0.0022 -0.0149
 2231SOL    HW1 9585   8.991   7.630   7.800 -0.4149  0.3308  0.1844
 2231SOL    HW2 9586   9.112   7.697   7.737 -0.2125  0.3706  0.6147
 2232SOL     OW 9587   1.874   9.250   4.168  0.1421 -0.1124 -0.1429
 2232SOL    HW1 9588   1.848   9.286   4.252 -1.5768 -0.6037 -0.4346
 2232SOL    HW2 9589   1.930   9.318   4.129 -0.1448  0.6903  0.8060
 2233SOL     OW 9590   7.579   7.440   6.541 -0.0926 -0.8433 -0.1724
 2233SOL    HW1 9591   7.577   7.401   6.628 -0.2330  0.7041  0.5566
 2233SOL    HW2 9592   7.603   7.368   6.482 -1.8895 -2.3715  0.8673
 2234SOL     OW 9593   0.628   0.450   0.837  0.0576 -0.1699  0.3991
 2234SOL    HW1 9594   0.681   0.431   0.915  0.0996  0.0462  0.4230
 2234SOL    HW2 9595   0.553   0.392   0.845  0.8648 -1.3537 -0.2402
 2235SOL     OW 9596   8.964   4.383   1.856 -0.0534  0.2572 -0.1372
 2235SOL    HW1 9597   8.890   4.410   1.910  1.3852  0.9712  1.5801
 2235SOL    HW2 9598   8.961   4.287   1.858 -0.2480  0.2754  0.9160
 2236SOL     OW 9599   8.642   0.448   5.088 -0.0127 -0.3064  0.2192
 2236SOL    HW1 9600   8.706   0.476   5.023 -1.5872  1.2710 -0.7039
 2236SOL    HW2 9601   8.601   0.529   5.118  0.2039 -1.0414  2.7364
 2237SOL     OW 9602   2.250   8.613   6.492 -0.1434  0.0861  0.0132
 2237SOL    HW1 9603   2.270   8.520   6.503 -0.2097 -0.0227 -0.7589
 2237SOL    HW2 9604   2.291   8.655   6.568 -0.1556 -0.5734  0.3934
 2238SOL     OW 9605   7.029   6.335   5.854 -0.4823  0.1423  0.3027
 2238SOL    HW1 9606   6.980   6.418   5.857 -1.7848 -0.5186  4.7944
 2238SOL    HW2 9607   6.967   6.273   5.816 -1.4497  0.3008  1.5395
 2239SOL     OW 9608   5.455   5.862   8.414  0.2045 -0.2396 -0.6024
 2239SOL    HW1 9609   5.530   5.886   8.468  0.9827 -1.5325 -1.0653
 2239SOL    HW2 9610   5.436   5.941   8.363  0.3914  0.5270  0.4818
 2240SOL     OW 9611   0.435   2.309   5.839 -0.2201  0.3818 -0.6180
 2240SOL    HW1 9612   0.510   2.304   5.779  1.9530 -0.2634  1.9447
 2240SOL    HW2 9613   0.405   2.218   5.847  1.1119  0.0271  1.0341
 2241SOL     OW 9614   3.331   4.809   9.263 -0.0990 -0.1035 -0.4255
 2241SOL    HW1 9615   3.248   4.778   9.300 -0.1107 -0.7021 -0.9261
 2241SOL    HW2 9616   3.344   4.755   9.185 -0.2164  1.3140 -1.4604
 2242SOL     OW 9617   9.142   2.004   2.762  0.4158  0.3219  0.0726
 2242SOL    HW1 9618   9.117   1.982   2.673  0.1464  0.2437  0.1672
 2242SOL    HW2 9619   9.100   1.937   2.816 -1.0991  1.5028  0.4383
 2243SOL     OW 9620   5.124   4.842   3.379 -0.2825 -0.0927 -0.0506
 2243SOL    HW1 9621   5.205   4.893   3.380  0.3032 -0.9570 -1.3457
 2243SOL    HW2 9622   5.148   4.757   3.414 -0.5263 -0.4800 -0.7957
 2244SOL     OW 9623   6.367   8.913   3.682  0.0484  0.7013  0.0185
 2244SOL    HW1 9624   6.371   8.878   3.771  0.9376  1.0390  0.1169
 2244SOL    HW2 9625   6.317   8.994   3.691 -0.6468  0.2832  0.0486
 2245SOL     OW 9626   0.319   3.659   4.138 -0.2573  0.3013  0.6353
 2245SOL    HW1 9627   0.254   3.610   4.087 -0.9156  0.3371  1.4136
 2245SOL    HW2 9628   0.348   3.597   4.205  0.1068  0.4603  0.6229
 2246SOL     OW 9629   1.240   2.588   5.826 -0.0961 -0.1437 -0.3925
 2246SOL    HW1 9630   1.192   2.593   5.743 -0.8053 -0.9308 -0.0410
 2246SOL    HW2 9631   1.202   2.657   5.880 -0.1330 -0.1122 -0.4584
 2247SOL     OW 9632   8.728   5.932   4.298  0.2159 -0.1450  0.6797
 2247SOL    HW1 9633   8.716   5.852   4.246 -0.9711  0.2813  0.2756
 2247SOL    HW2 9634   8.662   5.926   4.367  1.7506 -0.6844  2.1809
 2248SOL     OW 9635   4.757   4.542   2.468 -0.2193  0.7116 -0.2046
 2248SOL    HW1 9636   4.667   4.513   2.479 -0.8116  2.4155 -0.2779
 2248SOL    HW2 9637   4.786   4.565   2.556  0.6435 -1.1019  0.0299
 2249SOL     OW 9638   6.646   0.595   9.131 -0.3594 -0.4947 -0.4906
 2249SOL    HW1 9639   6.589   0.614   9.205 -0.3832  0.1907 -0.6781
 2249SOL    HW2 9640   6.693   0.516   9.156 -0.2440 -0.1715  0.3296
 2250SOL     OW 9641   2.339   6.151   4.526  0.7144  0.1368 -0.0771
 2250SOL    HW1 9642   2.434   6.165   4.523  0.6069  1.2256  0.7934
 2250SOL    HW2 9643   2.327   6.060   4.500  2.0339 -0.1374  0.1997
 2251SOL     OW 9644   2.785   2.314   2.977  0.1890 -0.6154  0.1452
 2251SOL    HW1 9645   2.710   2.361   3.014 -0.7443 -1.4712 -0.6166
 2251SOL    HW2 9646   2.861   2.353   3.020 -0.3387  2.9228 -1.7513
 2252SOL     OW 9647   0.346   3.728   5.038  0.5756 -0.0048 -0.0213
 2252SOL    HW1 9648   0.439   3.747   5.051  0.4072  0.6984  0.2068
 2252SOL    HW2 9649   0.309   3.727   5.126  0.0185  1.6364 -0.2043
 2253SOL     OW 9650   3.480   0.665   7.015  0.3181 -0.1005  1.0487
 2253SOL    HW1 9651   3.392   0.628   7.006  1.1470 -2.1668  0.9095
 2253SOL    HW2 9652   3.465   0.759   7.022 -1.8550 -0.3248  0.3518
 2254SOL     OW 9653   0.285   3.049   6.177 -0.1365 -0.2043 -0.1359
 2254SOL    HW1 9654   0.237   2.976   6.217 -1.2662  0.2712 -0.5942
 2254SOL    HW2 9655   0.217   3.105   6.140  0.8011  0.2575 -1.2062
 2255SOL     OW 9656   7.587   6.565   8.237 -0.1103  0.3849  0.0376
 2255SOL    HW1 9657   7.654   6.616   8.282  0.9436 -0.8616 -0.0585
 2255SOL    HW2 9658   7.558   6.501   8.302 -2.2003  1.7265  0.5170
 2256SOL     OW 9659   6.631   2.443   2.517  0.1343 -0.0435 -0.0343
 2256SOL    HW1 9660   6.548   2.466   2.556  0.2095 -1.6999  1.2044
 2256SOL    HW2 9661   6.691   2.433   2.591  1.1079 -0.0841 -0.8048
 2257SOL     OW 9662   3.166   4.827   4.581  0.1326  0.1446 -0.4327
 2257SOL    HW1 9663   3.245   4.792   4.540  1.2442  1.9531  0.0229
 2257SOL    HW2 9664   3.141   4.902   4.526 -0.9200 -0.0373 -0.2266
 2258SOL     OW 9665   5.202   1.347   0.149 -0.5861 -0.1026  0.4524
 2258SOL    HW1 9666   5.220   1.296   0.229 -0.7532  1.2546  1.3907
 2258SOL    HW2 9667   5.288   1.365   0.112 -0.5054 -0.7203  0.3290
 2259SOL     OW 9668   6.810   5.231   5.582  0.3372 -0.1424 -0.1310
 2259SOL    HW1 9669   6.763   5.201   5.659  0.6717 -1.6075 -0.4580
 2259SOL    HW2 9670   6.789   5.167   5.514  0.7766  0.6014 -0.9979
 2260SOL     OW 9671   0.087   2.237   4.126  0.3101 -0.4353  0.1809
 2260SOL    HW1 9672   0.151   2.235   4.197  1.1300 -0.7554 -0.5419
 2260SOL    HW2 9673   0.117   2.170   4.065  0.5498  0.9006 -1.2303
 2261SOL     OW 9674   0.706   7.016   0.794 -0.6979  0.0966 -0.3565
 2261SOL    HW1 9675   0.646   7.090   0.803 -0.8000 -0.0664  0.2982
 2261SOL    HW2 9676   0.707   6.975   0.880 -2.2005 -1.8694 -1.2017
 2262SOL     OW 9677   3.662   2.202   3.959  0.0372 -0.4344  0.4934
 2262SOL    HW1 9678   3.746   2.191   4.004  1.5447  1.8522 -1.5634
 2262SOL    HW2 9679   3.608   2.251   4.021  0.3716 -1.3887  1.5837
 2263SOL     OW 9680   5.282   1.989   6.070  0.1896 -0.0238  0.2989
 2263SOL    HW1 9681   5.337   1.915   6.096  2.7416  1.3568 -0.7490
 2263SOL    HW2 9682   5.266   1.976   5.977 -1.3843 -0.4189  0.5957
 2264SOL     OW 9683   1.147   7.194   0.868  0.0886  0.0023  0.2775
 2264SOL    HW1 9684   1.186   7.114   0.836 -0.3229 -0.9521  2.0219
 2264SOL    HW2 9685   1.124   7.243   0.789  0.5812 -1.4659 -0.8198
 2265SOL     OW 9686   1.471   3.794   1.511 -0.2827  0.0214  0.3046
 2265SOL    HW1 9687   1.447   3.755   1.427 -1.9699  0.4414  0.5584
 2265SOL    HW2 9688   1.557   3.833   1.496 -0.3022 -0.4289 -1.0509
 2266SOL     OW 9689   3.297   3.852   6.599  0.1313 -0.2096 -0.4209
 2266SOL    HW1 9690   3.391   3.834   6.587  0.6844  2.2513 -0.5250
 2266SOL    HW2 9691   3.258   3.768   6.620  2.5137 -1.1870  0.3901
 2267SOL     OW 9692   7.142   5.284   6.375  0.3428  0.2429 -0.1319
 2267SOL    HW1 9693   7.098   5.256   6.295  1.9172  1.0320 -1.3296
 2267SOL    HW2 9694   7.228   5.241   6.371  0.9035  1.2620  0.5195
 2268SOL     OW 9695   8.408   7.453   7.462  0.1300 -0.2771  0.4269
 2268SOL    HW1 9696   8.414   7.495   7.547  0.5134  1.0432 -0.2221
 2268SOL    HW2 9697   8.315   7.457   7.439  0.0589 -0.4471  0.6802
 2269SOL     OW 9698   2.801   7.003   2.559  0.1169 -0.0162 -0.3789
 2269SOL    HW1 9699   2.798   7.088   2.515 -0.6386 -0.5510 -1.3929
 2269SOL    HW2 9700   2.709   6.977   2.566  0.1427  0.3140  2.0866
 2270SOL     OW 9701   0.176   2.707   3.114 -0.0498  0.2433  0.0141
 2270SOL    HW1 9702   0.230   2.712   3.192 -0.0785  2.1995 -0.0309
 2270SOL    HW2 9703   0.236   2.727   3.042 -0.1376 -1.0136 -0.4400
 2271SOL     OW 9704   8.957   3.180   4.744  0.0818  0.4462  0.0443
 2271SOL    HW1 9705   8.965   3.252   4.681 -1.5726 -0.0840 -0.8108
 2271SOL    HW2 9706   9.048   3.151   4.757  0.4251 -0.8515 -3.8005
 2272SOL     OW 9707   5.685   3.634   4.421  0.4699  0.3589  0.1284
 2272SOL    HW1 9708   5.625   3.659   4.491  1.3052 -0.2482  1.1046
 2272SOL    HW2 9709   5.753   3.702   4.422  0.8606 -0.0247  0.4075
 2273SOL     OW 9710   4.358   6.400   1.402 -0.1171 -0.4452 -0.0578
 2273SOL    HW1 9711   4.296   6.336   1.368  0.3332 -0.4219 -0.9367
 2273SOL    HW2 9712   4.339   6.481   1.355  0.9177 -0.5747 -0.7518
 2274SOL     OW 9713   1.592   0.909   7.790  0.3227  0.4000  0.3013
 2274SOL    HW1 9714   1.502   0.886   7.767  1.3557 -0.8489 -3.0962
 2274SOL    HW2 9715   1.592   1.005   7.791 -0.8065  0.4495 -1.0394
 2275SOL     OW 9716   5.120   5.215   2.572 -0.0588 -0.5632 -0.2914
 2275SOL    HW1 9717   5.066   5.210   2.493  0.0600 -0.7931 -0.3603
 2275SOL    HW2 9718   5.112   5.128   2.612 -2.0410  0.2695  1.2481
 2276SOL     OW 9719   1.711   6.731   4.519  0.5205  0.3790 -0.6649
 2276SOL    HW1 9720   1.626   6.692   4.501  0.7122 -0.2755 -0.1912
 2276SOL    HW2 9721   1.722   6.798   4.451 -0.1843  0.1873 -0.9725
 2277SOL     OW 9722   5.672   6.134   2.528  0.3199  1.0903 -0.3542
 2277SOL    HW1 9723   5.589   6.159   2.487 -2.8673 -1.1346  3.9647
 2277SOL    HW2 9724   5.700   6.056   2.480 -2.6447 -0.7804  0.6823
 2278SOL     OW 9725   8.507   8.616   1.884 -0.4154  0.1071  0.4283
 2278SOL    HW1 9726   8.456   8.541   1.914  1.5862 -1.4605  0.1206
 2278SOL    HW2 9727   8.468   8.640   1.800 -1.8057  0.2088  1.0751
 2279SOL     OW 9728   2.005   5.076   0.493  0.1884  0.1678 -0.1513
 2279SOL    HW1 9729   2.005   5.057   0.587  0.2069 -0.0489 -0.1946
 2279SOL    HW2 9730   1.943   5.148   0.483  0.2944  0.2869  0.0464
 2280SOL     OW 9731   9.047   0.199   9.081 -0.3106  0.2203 -0.2265
 2280SOL    HW1 9732   9.095   0.254   9.019 -0.8972 -0.9501 -1.7884
 2280SOL    HW2 9733   9.083   0.111   9.068 -1.1245 -0.2192  0.3829
 2281SOL     OW 9734   7.961   8.095   4.088  0.2300  0.4991  0.2565
 2281SOL    HW1 9735   8.050   8.085   4.121 -0.4621 -0.5028  1.9086
 2281SOL    HW2 9736   7.928   8.173   4.132 -0.7058 -0.8562  2.0643
 2282SOL     OW 9737   4.226   2.060   8.234  0.2755 -0.1842  0.5487
 2282SOL    HW1 9738   4.253   1.975   8.198  2.1486  0.5760  0.0471
 2282SOL    HW2 9739   4.300   2.088   8.286 -0.9509  0.4681  1.9911
 2283SOL     OW 9740   6.610   7.645   9.025 -0.1796 -0.7865  0.7576
 2283SOL    HW1 9741   6.573   7.576   8.971  0.4418 -0.7537  0.2775
 2283SOL    HW2 9742   6.559   7.723   9.004  0.8677 -0.4697 -0.7772
 2284SOL     OW 9743   8.710   8.121   8.319  0.4210 -0.4637  0.0200
 2284SOL    HW1 9744   8.789   8.146   8.271  1.0358 -0.4804  0.9837
 2284SOL    HW2 9745   8.649   8.194   8.304  0.0338 -1.1320 -1.9477
 2285SOL     OW 9746   6.714   5.404   6.690  0.4778 -0.0626  0.3276
 2285SOL    HW1 9747   6.784   5.462   6.658 -0.6911  1.3082  0.1319
 2285SOL    HW2 9748   6.658   5.461   6.742  0.1782 -1.4179  1.5549
 2286SOL     OW 9749   6.285   6.763   3.522  0.0586 -0.1004  0.4253
 2286SOL    HW1 9750   6.355   6.713   3.564 -0.0604 -0.1323  0.5852
 2286SOL    HW2 9751   6.328   6.845   3.497 -0.5377  1.2745  3.3947
 2287SOL     OW 9752   2.811   6.250   5.280  0.0675  0.0069  0.1341
 2287SOL    HW1 9753   2.834   6.241   5.373  0.8455 -1.4594 -0.1600
 2287SOL    HW2 9754   2.716   6.239   5.278  0.2365 -1.9050  0.5953
 2288SOL     OW 9755   8.596   3.934   6.498 -0.0371 -0.0860 -0.0981
 2288SOL    HW1 9756   8.617   3.978   6.415  0.1722  0.6557  0.3496
 2288SOL    HW2 9757   8.632   3.845   6.486 -2.1143 -0.7934 -1.7347
 2289SOL     OW 9758   7.952   6.714   1.073 -0.3903  0.0521  0.4922
 2289SOL    HW1 9759   7.904   6.715   1.156 -0.3404  0.7477  0.5125
 2289SOL    HW2 9760   8.034   6.758   1.092 -0.3265  0.1063  0.1022
 2290SOL     OW 9761   6.856   4.441   1.326  0.0043  0.4106  0.3061
 2290SOL    HW1 9762   6.894   4.506   1.386  1.9432 -0.4212  0.0349
 2290SOL    HW2 9763   6.863   4.482   1.240  0.3101  0.2372  0.2500
 2291SOL     OW 9764   4.327   4.958   7.841 -0.2807  1.4140  0.1085
 2291SOL    HW1 9765   4.401   4.899   7.851 -0.8928  0.7529  0.9916
 2291SOL    HW2 9766   4.358   5.028   7.783  1.0254  1.1651  0.4842
 2292SOL     OW 9767   1.292   6.463   0.799  0.0804 -0.0145 -0.3736
 2292SOL    HW1 9768   1.279   6.558   0.805 -2.1991 -0.0239 -3.0645
 2292SOL    HW2 9769   1.279   6.432   0.888  1.5287  2.2134  0.7088
 2293SOL     OW 9770   5.745   8.517   6.686 -0.6112  0.1886 -0.1190
 2293SOL    HW1 9771   5.767   8.438   6.637  0.8961  0.5628 -0.1066
 2293SOL    HW2 9772   5.792   8.507   6.769 -2.0626  0.1686  0.7345
 2294SOL     OW 9773   8.122   6.538   5.953  0.2445  0.3653  0.3158
 2294SOL    HW1 9774   8.198   6.482   5.936  0.2265  0.5463 -0.3913
 2294SOL    HW2 9775   8.098   6.573   5.867 -1.2097 -0.4101  0.3707
 2295SOL     OW 9776   5.289   1.197   3.160 -0.3379  0.1337  0.1021
 2295SOL    HW1 9777   5.251   1.111   3.180 -0.0847 -0.0396 -0.1540
 2295SOL    HW2 9778   5.351   1.180   3.089 -0.5900  0.5982 -0.2360
 2296SOL     OW 9779   4.575   6.403   0.808 -0.2155 -0.2225  0.3095
 2296SOL    HW1 9780   4.595   6.496   0.799  0.6423 -0.3186  1.1245
 2296SOL    HW2 9781   4.542   6.378   0.721 -0.1781  0.7622 -0.0080
 2297SOL     OW 9782   4.278   3.778   4.013  0.3095 -0.0848 -0.4254
 2297SOL    HW1 9783   4.282   3.689   3.977  1.9500  0.4569 -1.6827
 2297SOL    HW2 9784   4.207   3.820   3.964 -0.5165 -0.6871  0.2175
 2298SOL     OW 9785   1.898   7.190   5.075 -0.5090 -0.0080 -1.2003
 2298SOL    HW1 9786   1.810   7.182   5.112 -0.8983  1.6086 -1.6787
 2298SOL    HW2 9787   1.893   7.267   5.018  1.0780 -0.2056 -1.6556
 2299SOL     OW 9788   1.095   1.981   2.743  0.7588 -0.4187 -0.0536
 2299SOL    HW1 9789   1.137   1.925   2.678  2.2432  0.6010 -0.0028
 2299SOL    HW2 9790   1.059   2.054   2.693  3.4474  1.3069  0.3479
 2300SOL     OW 9791   4.190   5.561   0.802  0.7515 -0.4966  0.8891
 2300SOL    HW1 9792   4.256   5.590   0.865 -0.4018  1.3482  1.3352
 2300SOL    HW2 9793   4.208   5.611   0.723  1.1898 -1.6009  0.2683
 2301SOL     OW 9794   3.391   3.698   7.141 -0.4561 -0.5856 -0.5064
 2301SOL    HW1 9795   3.430   3.730   7.059  0.5261 -1.3041 -0.3323
 2301SOL    HW2 9796   3.301   3.677   7.117 -0.8377  1.2455 -0.8831
 2302SOL     OW 9797   8.623   1.185   4.166 -0.6497 -0.4198  0.2313
 2302SOL    HW1 9798   8.550   1.160   4.222 -1.3836  0.7996 -0.1396
 2302SOL    HW2 9799   8.626   1.118   4.098 -0.5491 -1.2198  1.0037
 2303SOL     OW 9800   4.983   6.480   8.848  0.1976  0.4373  0.2911
 2303SOL    HW1 9801   5.077   6.462   8.844 -0.0043 -1.3098  2.1238
 2303SOL    HW2 9802   4.965   6.527   8.766  2.5766  0.5123 -0.2758
 2304SOL     OW 9803   1.334   8.426   6.843  0.3546  0.5317 -0.1888
 2304SOL    HW1 9804   1.261   8.435   6.783  0.3201  2.2645  0.0755
 2304SOL    HW2 9805   1.323   8.339   6.881 -1.5366  0.7311 -0.2021
 2305SOL     OW 9806   8.788   2.079   7.137 -0.0947 -0.3041 -0.6096
 2305SOL    HW1 9807   8.855   2.127   7.186 -0.6264  0.2811 -0.4464
 2305SOL    HW2 9808   8.788   2.120   7.051 -2.8927  2.3959  0.4807
 2306SOL     OW 9809   2.114   5.211   8.561 -0.0428  0.5994  0.0719
 2306SOL    HW1 9810   2.162   5.156   8.623  0.8381  2.2377  0.9251
 2306SOL    HW2 9811   2.111   5.160   8.480  2.0496 -0.0994  0.3699
 2307SOL     OW 9812   6.449   5.490   1.768 -0.5870  0.1145  0.5982
 2307SOL    HW1 9813   6.496   5.419   1.725  2.0181  0.8541  2.0151
 2307SOL    HW2 9814   6.422   5.548   1.697 -1.1213 -1.3020 -0.4095
 2308SOL     OW 9815   6.241   5.712   4.663 -0.1290 -0.7193 -0.2710
 2308SOL    HW1 9816   6.163   5.737   4.712 -0.1100 -0.9663 -0.1118
 2308SOL    HW2 9817   6.219   5.625   4.627  1.0089 -1.9722  1.8916
 2309SOL     OW 9818   0.170   9.162   5.213  0.0326  0.0661  0.1072
 2309SOL    HW1 9819   0.082   9.141   5.245  0.9201 -2.6346  1.0425
 2309SOL    HW2 9820   0.163   9.154   5.118 -0.5258 -1.3342  0.2347
 2310SOL     OW 9821   6.485   1.834   9.199  0.2558 -0.2479  0.1469
 2310SOL    HW1 9822   6.527   1.920   9.200 -0.5451  0.1938 -1.5405
 2310SOL    HW2 9823   6.391   1.853   9.204  0.1167 -1.1486  2.0416
 2311SOL     OW 9824   8.375   6.270   6.543  0.1231 -0.8445 -0.5239
 2311SOL    HW1 9825   8.307   6.326   6.504  1.4281  0.1045 -1.5306
 2311SOL    HW2 9826   8.367   6.187   6.495  0.7693 -0.1594 -1.8914
 2312SOL     OW 9827   7.882   7.694   8.976 -0.2918  0.1171  0.1904
 2312SOL    HW1 9828   7.891   7.692   8.881 -2.6632 -1.6852 -0.1116
 2312SOL    HW2 9829   7.831   7.772   8.994 -0.3293  0.1572 -0.0861
 2313SOL     OW 9830   4.628   8.411   8.133  0.2823 -0.3465  0.0252
 2313SOL    HW1 9831   4.559   8.473   8.156  0.9830  0.2427  0.6058
 2313SOL    HW2 9832   4.677   8.457   8.064  1.9612  0.6291  1.7641
 2314SOL     OW 9833   5.708   8.719   8.378  0.2216 -0.1527 -0.2380
 2314SOL    HW1 9834   5.693   8.716   8.473 -0.9389 -1.5926 -0.4183
 2314SOL    HW2 9835   5.640   8.662   8.342  2.0455 -1.4656 -1.7640
 2315SOL     OW 9836   4.716   7.312   3.560  0.1615  0.5505  0.1572
 2315SOL    HW1 9837   4.787   7.372   3.580 -0.5396  1.6617 -0.5756
 2315SOL    HW2 9838   4.678   7.346   3.479 -0.4459 -0.7182 -0.1150
 2316SOL     OW 9839   3.348   0.662   4.939 -0.2592  0.1287 -0.2850
 2316SOL    HW1 9840   3.343   0.626   4.851 -0.5748  0.5262 -0.4344
 2316SOL    HW2 9841   3.340   0.757   4.927 -4.4227  0.0440  0.4132
 2317SOL     OW 9842   5.790   9.046   4.046  0.2868  0.1383  1.0773
 2317SOL    HW1 9843   5.860   9.102   4.013  0.8093 -0.9261  0.3413
 2317SOL    HW2 9844   5.744   9.017   3.967  1.1118 -1.8667  1.2881
 2318SOL     OW 9845   2.474   6.980   7.815 -0.3258 -0.6510  0.0817
 2318SOL    HW1 9846   2.541   6.915   7.791  1.0883  1.1842 -1.2676
 2318SOL    HW2 9847   2.417   6.984   7.738 -1.3951 -1.3959  0.7966
 2319SOL     OW 9848   7.574   2.610   4.754 -0.6271  0.2170  0.1991
 2319SOL    HW1 9849   7.621   2.662   4.819  2.4212 -0.2804 -1.4259
 2319SOL    HW2 9850   7.538   2.537   4.804  2.8492 -0.9703  1.2967
 2320SOL     OW 9851   5.891   0.948   3.308 -0.4675  0.2456  0.0526
 2320SOL    HW1 9852   5.799   0.938   3.334 -0.3606  0.7682  0.6584
 2320SOL    HW2 9853   5.915   0.862   3.273 -0.4686 -0.7133  2.2188
 2321SOL     OW 9854   7.881   8.442   4.953 -0.2777  0.0636 -0.1689
 2321SOL    HW1 9855   7.822   8.375   4.918  0.5120 -0.7676  0.0246
 2321SOL    HW2 9856   7.858   8.522   4.906  0.9333 -1.0529 -2.9254
 2322SOL     OW 9857   2.106   6.506   4.227 -0.0162 -0.0013 -0.3661
 2322SOL    HW1 9858   2.074   6.515   4.137  0.9329 -1.0286 -0.8207
 2322SOL    HW2 9859   2.102   6.412   4.245  1.2382  0.0167  0.1146
 2323SOL     OW 9860   3.385   7.579   3.960  0.6541 -0.3457 -0.2157
 2323SOL    HW1 9861   3.456   7.526   3.997  2.1583  0.7236 -1.3899
 2323SOL    HW2 9862   3.378   7.548   3.869  2.2418  1.9862 -1.2292
 2324SOL     OW 9863   1.987   5.457   5.773  0.3737  0.0821 -0.5766
 2324SOL    HW1 9864   1.959   5.433   5.684  0.6162  0.3439 -0.7281
 2324SOL    HW2 9865   1.914   5.506   5.809  0.8387  1.2424 -1.1705
 2325SOL     OW 9866   4.479   4.817   2.584 -0.0044 -0.0387  0.0522
 2325SOL    HW1 9867   4.498   4.836   2.492 -0.5037 -2.5632 -0.6546
 2325SOL    HW2 9868   4.555   4.851   2.632  0.8652  0.2017 -1.4280
 2326SOL     OW 9869   1.714   1.236   6.220  0.0859 -0.0823 -0.1097
 2326SOL    HW1 9870   1.808   1.223   6.218 -0.0573 -1.2113 -0.0015
 2326SOL    HW2 9871   1.680   1.160   6.268 -0.9392 -0.0923 -0.8171
 2327SOL     OW 9872   5.165   4.667   5.499  0.8599 -0.1914 -0.1645
 2327SOL    HW1 9873   5.099   4.705   5.557  0.2191 -1.7273  0.1564
 2327SOL    HW2 9874   5.152   4.712   5.416  0.3969  0.5636  0.3036
 2328SOL     OW 9875   3.341   0.598   3.822  0.0851 -0.0566  0.2287
 2328SOL    HW1 9876   3.337   0.684   3.865  1.1615 -0.1075  0.4636
 2328SOL    HW2 9877   3.264   0.596   3.766 -0.3727  0.7534  0.8020
 2329SOL     OW 9878   8.575   8.224   3.305  0.0387  0.0522 -0.3846
 2329SOL    HW1 9879   8.522   8.285   3.254  0.4295  0.6165 -0.1199
 2329SOL    HW2 9880   8.514   8.186   3.368  0.2201  1.7118  0.8292
 2330SOL     OW 9881   6.223   5.385   6.468 -0.2220 -0.2867  0.1810
 2330SOL    HW1 9882   6.138   5.374   6.425 -0.4557  0.5107  0.4370
 2330SOL    HW2 9883   6.235   5.304   6.518 -1.7667  0.4209  1.7861
 2331SOL     OW 9884   5.639   2.173   2.670 -0.2363  0.2395 -0.3231
 2331SOL    HW1 9885   5.554   2.138   2.643 -0.2009 -1.4060  1.4020
 2331SOL    HW2 9886   5.702   2.129   2.613 -0.5158  1.4763 -1.6191
 2332SOL     OW 9887   6.366   5.421   7.305 -0.6048  0.5304 -0.6845
 2332SOL    HW1 9888   6.306   5.383   7.241  0.4595 -1.3294 -0.6407
 2332SOL    HW2 9889   6.453   5.396   7.274 -0.0642 -0.6358  1.5717
 2333SOL     OW 9890   0.122   4.352   2.684  0.5333 -0.3936 -0.4883
 2333SOL    HW1 9891   0.117   4.328   2.591 -1.1038  1.2584 -0.8991
 2333SOL    HW2 9892   0.051   4.416   2.696  2.3363  1.4286  1.2986
 2334SOL     OW 9893   1.536   8.975   8.808 -0.4528 -0.0980  0.3701
 2334SOL    HW1 9894   1.544   9.062   8.769  0.5117 -0.3273  0.0405
 2334SOL    HW2 9895   1.626   8.950   8.830 -0.5408 -1.6232 -0.8732
 2335SOL     OW 9896   5.387   0.153   5.573 -0.3603 -0.2271 -0.3441
 2335SOL    HW1 9897   5.367   0.144   5.479 -1.4046 -0.5319 -0.1100
 2335SOL    HW2 9898   5.305   0.129   5.617  0.6565 -1.9562  0.7172
 2336SOL     OW 9899   4.529   1.844   8.777 -0.0967 -0.3533  0.1545
 2336SOL    HW1 9900   4.552   1.848   8.870  0.7080  0.5659 -0.0710
 2336SOL    HW2 9901   4.608   1.812   8.734  0.0169  0.6010 -0.3695
 2337SOL     OW 9902   3.781   2.366   5.699 -0.1770  0.4585 -0.0542
 2337SOL    HW1 9903   3.850   2.301   5.706 -0.2624  0.3800  0.0803
 2337SOL    HW2 9904   3.731   2.341   5.622  0.4130  0.9737 -0.6097
 2338SOL     OW 9905   6.886   8.025   2.842  0.1089 -0.3675  0.6370
 2338SOL    HW1 9906   6.982   8.027   2.843  0.1951  0.9215 -2.1440
 2338SOL    HW2 9907   6.861   8.097   2.901  1.0027  1.5969 -1.2413
 2339SOL     OW 9908   5.920   3.163   5.263 -0.1415 -0.1036 -0.5358
 2339SOL    HW1 9909   5.967   3.240   5.292 -0.4070  0.8257 -2.4208
 2339SOL    HW2 9910   5.828   3.185   5.276 -0.1840 -0.8512  0.6057
 2340SOL     OW 9911   0.376   5.935   2.272  0.1024 -0.1368 -0.0784
 2340SOL    HW1 9912   0.460   5.944   2.227  0.7872 -0.1805  1.1393
 2340SOL    HW2 9913   0.377   5.846   2.308 -0.7988 -0.4018 -0.6824
 2341SOL     OW 9914   0.219   8.354   0.284 -0.1783  0.6569 -0.5814
 2341SOL    HW1 9915   0.136   8.306   0.292 -0.0770  0.6419  0.7323
 2341SOL    HW2 9916   0.278   8.309   0.345  0.6927  0.8772 -1.2512
 2342SOL     OW 9917   5.127   5.828   7.395  0.0399 -0.3398  0.3467
 2342SOL    HW1 9918   5.205   5.788   7.356 -0.8052 -1.1781 -0.5436
 2342SOL    HW2 9919   5.118   5.911   7.348 -0.5531 -1.0152 -0.7811
 2343SOL     OW 9920   8.088   5.894   1.379 -0.0851 -0.1700 -0.1156
 2343SOL    HW1 9921   8.150   5.822   1.392  0.3627  0.1474 -0.4714
 2343SOL    HW2 9922   8.009   5.867   1.427  0.3649 -0.5269  0.4386
 2344SOL     OW 9923   3.381   5.971   2.121  0.0656  0.8298 -0.0110
 2344SOL    HW1 9924   3.414   6.044   2.174  1.9735 -1.6442  2.5528
 2344SOL    HW2 9925   3.402   5.995   2.031  1.3175  3.1020  0.8014
 2345SOL     OW 9926   4.822   4.592   2.732  0.0414 -0.4617 -0.6209
 2345SOL    HW1 9927   4.737   4.612   2.772  0.6149  2.0870 -0.5002
 2345SOL    HW2 9928   4.863   4.530   2.793  0.2992  2.2094  2.1920
 2346SOL     OW 9929   2.419   0.139   8.255  0.2838 -0.4939 -0.3952
 2346SOL    HW1 9930   2.331   0.133   8.291  1.0170  2.4488  2.3831
 2346SOL    HW2 9931   2.451   0.049   8.254 -1.4931 -1.2455  2.0779
 2347SOL     OW 9932   0.412   8.512   4.703  0.1226 -0.5484  0.3566
 2347SOL    HW1 9933   0.411   8.421   4.673  0.5991 -0.1497 -0.9456
 2347SOL    HW2 9934   0.502   8.542   4.687  0.2409 -0.1185  1.6765
 2348SOL     OW 9935   4.521   0.406   8.950 -0.1453 -0.6639 -0.2195
 2348SOL    HW1 9936   4.607   0.387   8.911  0.0004  1.6782 -1.1955
 2348SOL    HW2 9937   4.540   0.426   9.041  0.6644  1.5140 -0.7996
 2349SOL     OW 9938   0.368   2.178   3.075 -0.2522 -0.4184 -0.1212
 2349SOL    HW1 9939   0.364   2.090   3.038 -3.2594  0.1775 -1.4493
 2349SOL    HW2 9940   0.345   2.166   3.167 -0.5959 -1.0332 -0.2809
 2350SOL     OW 9941   2.250   5.861   8.256 -0.2722  0.0701  0.2485
 2350SOL    HW1 9942   2.320   5.924   8.240 -0.1078  0.0878  0.9770
 2350SOL    HW2 9943   2.179   5.889   8.198  1.1588 -1.4473 -2.4137
 2351SOL     OW 9944   2.714   3.065   2.453 -0.1583 -0.3651  0.0891
 2351SOL    HW1 9945   2.720   3.141   2.396 -2.3436 -0.6706 -0.6425
 2351SOL    HW2 9946   2.626   3.070   2.490  0.3588 -1.4940  1.5696
 2352SOL     OW 9947   7.272   7.196   3.109  0.1945 -0.5469 -0.2195
 2352SOL    HW1 9948   7.349   7.196   3.166  1.8347 -1.1676 -2.3144
 2352SOL    HW2 9949   7.211   7.137   3.153  0.9543 -0.1821  1.4167
 2353SOL     OW 9950   7.358   4.928   4.394 -0.4024 -0.6685 -1.1239
 2353SOL    HW1 9951   7.329   4.864   4.459  0.0320 -1.1625 -1.4110
 2353SOL    HW2 9952   7.377   5.007   4.444  0.0892 -1.0994 -0.6299
 2354SOL     OW 9953   4.779   0.508   6.709 -0.0436 -0.1576  0.5775
 2354SOL    HW1 9954   4.789   0.501   6.804 -2.2930  0.1955  0.9091
 2354SOL    HW2 9955   4.685   0.498   6.694  0.1865  0.3209 -1.5700
 2355SOL     OW 9956   5.130   7.689   6.633  0.7505 -0.2924  0.6190
 2355SOL    HW1 9957   5.217   7.675   6.669  0.7997  0.8434  0.9608
 2355SOL    HW2 9958   5.134   7.774   6.590 -0.5606  0.4554  1.8660
 2356SOL     OW 9959   3.311   1.006   0.666 -0.6861 -0.8968  0.3403
 2356SOL    HW1 9960   3.352   1.007   0.579 -2.9519  0.7540 -0.8593
 2356SOL    HW2 9961   3.261   0.925   0.668  0.6566 -1.7370  0.8189
 2357SOL     OW 9962   1.812   7.071   4.558  0.0521  0.0083  0.0869
 2357SOL    HW1 9963   1.798   7.009   4.629  2.6681 -1.5287 -0.6198
 2357SOL    HW2 9964   1.775   7.029   4.481 -1.5084  1.0526  0.2117
 2358SOL     OW 9965   9.185   7.351   1.656  0.2112  0.4165  0.3924
 2358SOL    HW1 9966   9.201   7.428   1.710  0.9213  0.6399 -0.1325
 2358SOL    HW2 9967   9.229   7.369   1.573 -1.1285  0.2217 -0.3988
 2359SOL     OW 9968   2.128   8.842   7.775  0.2410 -0.1004 -0.1348
 2359SOL    HW1 9969   2.033   8.839   7.766  0.0747  0.9686  1.0297
 2359SOL    HW2 9970   2.148   8.934   7.796  1.1650 -0.9097  3.1309
 2360SOL     OW 9971   3.735   0.157   8.246 -0.0425 -0.5238 -0.5233
 2360SOL    HW1 9972   3.674   0.105   8.194 -1.8365  0.6543  0.2741
 2360SOL    HW2 9973   3.699   0.156   8.335  1.6521 -0.5604  0.2086
 2361SOL     OW 9974   1.668   1.716   7.767 -0.1148  0.6678  0.2251
 2361SOL    HW1 9975   1.639   1.805   7.749  0.3025  0.5324 -1.2121
 2361SOL    HW2 9976   1.589   1.663   7.760 -0.0075  0.6510 -1.0669
 2362SOL     OW 9977   0.446   7.955   1.057  0.1308 -0.4586 -0.5085
 2362SOL    HW1 9978   0.446   7.966   1.152  0.2642 -1.1376 -0.4206
 2362SOL    HW2 9979   0.415   8.038   1.022  0.1120 -0.1966  0.1298
 2363SOL     OW 9980   7.947   1.258   5.333  0.0944  0.2732  0.3667
 2363SOL    HW1 9981   7.938   1.168   5.364 -0.0090  0.2266  0.2021
 2363SOL    HW2 9982   7.969   1.309   5.412  0.9130 -0.0115  0.3344
 2364SOL     OW 9983   8.225   4.514   2.534  0.0112 -0.4034  0.4972
 2364SOL    HW1 9984   8.242   4.579   2.602 -1.5179  1.0148 -0.3812
 2364SOL    HW2 9985   8.305   4.514   2.481  0.0848  0.7319  0.5707
 2365SOL     OW 9986   8.574   8.624   4.775  0.1804  0.2040  0.3534
 2365SOL    HW1 9987   8.499   8.594   4.826  0.3289  1.0325  1.0914
 2365SOL    HW2 9988   8.587   8.556   4.709 -1.0117 -0.1054  0.4147
 2366SOL     OW 9989   1.223   3.898   4.777  0.5991 -0.0844  0.3702
 2366SOL    HW1 9990   1.154   3.833   4.789 -0.7952  0.7776 -2.3202
 2366SOL    HW2 9991   1.303   3.847   4.763 -0.2365 -1.2148 -0.4165
 2367SOL     OW 9992   5.449   3.551   3.462  0.4576  0.2829  0.3382
 2367SOL    HW1 9993   5.456   3.599   3.380  1.1524 -0.2136  0.0982
 2367SOL    HW2 9994   5.358   3.522   3.466 -0.3212  2.5945  1.0560
 2368SOL     OW 9995   4.898   1.805   6.277  0.2310  0.0742  0.1032
 2368SOL    HW1 9996   4.932   1.884   6.235 -0.0397  0.2261  0.1702
 2368SOL    HW2 9997   4.924   1.814   6.368 -1.8056  1.2341  0.6313
 2369SOL     OW 9998   1.587   2.587   0.394  0.6888  0.5352  0.2419
 2369SOL    HW1 9999   1.654   2.648   0.426  1.1678  0.7310 -1.0608
 2369SOL    HW210000   1.577   2.609   0.301  1.3355 -1.8011 -0.4339
 2370SOL     OW10001   4.748   4.147   5.515  0.0387  0.2047  0.3092
 2370SOL    HW110002   4.719   4.237   5.502 -1.6670 -0.5659 -1.7192
 2370SOL    HW210003   4.670   4.094   5.499  1.3200 -1.7103  0.0722
 2371SOL     OW10004   4.734   1.292   1.692  0.2012 -0.4208 -0.2490
 2371SOL    HW110005   4.707   1.348   1.619 -1.6003  1.4504  1.6822
 2371SOL    HW210006   4.828   1.277   1.677 -0.2297 -0.6832 -3.2292
 2372SOL     OW10007   5.315   7.059   2.484  0.6282  0.6276  0.7918
 2372SOL    HW110008   5.343   7.119   2.415  1.1780 -0.1429  0.3298
 2372SOL    HW210009   5.385   6.994   2.489 -0.8118 -1.0674 -0.0491
 2373SOL     OW10010   8.171   7.734   4.598  0.4766 -0.0777  0.1169
 2373SOL    HW110011   8.112   7.690   4.537  0.3800  0.3569 -0.1101
 2373SOL    HW210012   8.212   7.663   4.647 -1.8197 -0.3696  1.7811
 2374SOL     OW10013   3.140   4.979   3.104 -0.1598 -0.0846  0.0489
 2374SOL    HW110014   3.232   4.954   3.097 -0.3135 -0.8822  0.7701
 2374SOL    HW210015   3.142   5.064   3.147  0.3823  1.4219 -2.6790
 2375SOL     OW10016   6.777   7.392   6.686  0.1838  0.0497 -0.5911
 2375SOL    HW110017   6.777   7.430   6.774  0.0670 -0.0067 -0.5670
 2375SOL    HW210018   6.767   7.298   6.701  1.1700 -0.0716 -0.6139
 2376SOL     OW10019   3.799   7.256   6.766 -0.2884  0.2251  0.0250
 2376SOL    HW110020   3.886   7.279   6.731 -0.7998 -0.2432 -1.6354
 2376SOL    HW210021   3.808   7.164   6.792  0.0170  0.5005  0.9478
 2377SOL     OW10022   1.481   8.684   7.979 -0.2782  0.5437  0.4276
 2377SOL    HW110023   1.509   8.706   8.068  0.0822  0.0347  0.4415
 2377SOL    HW210024   1.405   8.628   7.990  1.0634 -1.3479  0.4784
 2378SOL     OW10025   4.751   6.202   0.060 -0.1396 -0.3781 -0.5579
 2378SOL    HW110026   4.755   6.145  -0.016 -1.6801  1.1057 -1.8400
 2378SOL    HW210027   4.658   6.199   0.087  0.1699 -0.0626  0.6251
 2379SOL     OW10028   0.230   7.915   7.012 -0.0201  0.1604 -0.1025
 2379SOL    HW110029   0.252   8.007   7.028  1.8356  0.4132 -3.1850
 2379SOL    HW210030   0.303   7.882   6.960 -1.6191 -2.4833 -0.8712
 2380SOL     OW10031   0.756   8.353   8.231 -0.0722  0.3545  0.0510
 2380SOL    HW110032   0.818   8.328   8.162 -0.1439  0.5708 -0.0923
 2380SOL    HW210033   0.729   8.442   8.209  0.3385  0.6414  0.6793
 2381SOL     OW10034   0.288   7.270   2.289  0.2390  0.3966  0.5937
 2381SOL    HW110035   0.193   7.267   2.283  0.1073 -0.5688  2.3388
 2381SOL    HW210036   0.319   7.268   2.199 -1.3840  0.2551  0.0193
 2382SOL     OW10037   4.812   8.046   5.256 -0.6246  0.1910 -0.2773
 2382SOL    HW110038   4.813   8.037   5.160 -0.7849 -0.4491 -0.2235
 2382SOL    HW210039   4.799   8.139   5.271  0.4199  0.4562 -0.8858
 2383SOL     OW10040   8.776   7.329   5.021 -0.0314 -1.1793 -0.0595
 2383SOL    HW110041   8.695   7.365   4.986 -0.7186 -1.3245  1.3237
 2383SOL    HW210042   8.748   7.265   5.086  1.1587  0.0954  1.7953
 2384SOL     OW10043   1.056   4.567   3.277  0.0266  0.1449  0.2893
 2384SOL    HW110044   1.017   4.550   3.191 -0.6808  0.0391  0.6177
 2384SOL    HW210045   0.986   4.611   3.326 -0.3005 -1.5623  1.4507
 2385SOL     OW10046   1.281   0.298   2.519  0.1892  0.4275 -0.3915
 2385SOL    HW110047   1.346   0.369   2.515  0.8990 -0.1724  0.1127
 2385SOL    HW210048   1.272   0.280   2.613  0.8336 -0.8786 -0.5608
 2386SOL     OW10049   7.720   8.627   7.595  0.4949 -0.0944 -0.5971
 2386SOL    HW110050   7.659   8.701   7.595 -0.0506 -0.5050  0.8434
 2386SOL    HW210051   7.685   8.568   7.528 -0.6685 -0.2599  0.1060
 2387SOL     OW10052   3.895   7.089   3.128  0.3651  0.1689  0.2582
 2387SOL    HW110053   3.977   7.057   3.164  0.9088  1.4293  0.1773
 2387SOL    HW210054   3.896   7.061   3.036  0.8571  0.4480  0.1750
 2388SOL     OW10055   5.954   8.481   4.102 -0.6835  0.2978 -0.4014
 2388SOL    HW110056   5.932   8.562   4.056 -1.1482 -1.1451 -2.9201
 2388SOL    HW210057   5.963   8.416   4.033 -0.6057 -1.8931  1.5415
 2389SOL     OW10058   7.095   3.407   0.684 -0.1267 -0.4321  0.3001
 2389SOL    HW110059   7.053   3.402   0.599  0.5166 -0.7909 -0.0072
 2389SOL    HW210060   7.117   3.500   0.695  1.2016 -0.6007 -0.6462
 2390SOL     OW10061   4.489   2.555   7.213 -0.1351  0.0818  0.4356
 2390SOL    HW110062   4.560   2.563   7.276  0.0024  0.2529  0.2582
 2390SOL    HW210063   4.425   2.621   7.241  0.2994  0.7473 -0.0960
 2391SOL     OW10064   8.642   3.688   6.236 -0.3008  0.1916 -0.3839
 2391SOL    HW110065   8.721   3.634   6.244  0.3432  0.9442 -1.3411
 2391SOL    HW210066   8.572   3.626   6.218  0.4712 -0.3399 -1.7374
 2392SOL     OW10067   1.913   1.537   4.376  0.1957  0.0294  0.2787
 2392SOL    HW110068   1.985   1.575   4.426  0.1153 -1.2053  1.3730
 2392SOL    HW210069   1.856   1.612   4.355  1.2924  0.8717  0.2219
 2393SOL     OW10070   3.684   0.574   0.509 -0.0613  0.0059  0.0799
 2393SOL    HW110071   3.591   0.566   0.487 -0.0993 -0.2611  0.3415
 2393SOL    HW210072   3.686   0.588   0.603  0.2415 -1.5295  0.3134
 2394SOL     OW10073   3.869   2.531   8.846  0.0207 -0.6752 -0.3790
 2394SOL    HW110074   3.916   2.449   8.836  1.5512  0.1595 -0.3723
 2394SOL    HW210075   3.800   2.512   8.910  1.2225 -1.6277  0.6934
 2395SOL     OW10076   2.575   0.835   3.933  0.5280  0.1100 -0.3403
 2395SOL    HW110077   2.663   0.869   3.952  1.1926 -1.1283 -1.0324
 2395SOL    HW210078   2.537   0.818   4.019  0.7933  1.0644 -0.0238
 2396SOL     OW10079   6.885   3.215   6.747  0.3200  0.5140  0.4568
 2396SOL    HW110080   6.943   3.213   6.671 -1.1085  0.2209 -0.6662
 2396SOL    HW210081   6.817   3.278   6.724 -0.6533 -0.2631  1.0848
 2397SOL     OW10082   1.591   5.821   4.353  0.1531 -0.3242 -0.1069
 2397SOL    HW110083   1.589   5.839   4.259  3.1874 -1.5753 -0.5307
 2397SOL    HW210084   1.550   5.735   4.362 -2.2606  0.7819  0.1089
 2398SOL     OW10085   5.500   8.710   7.455 -0.1861  0.8438  0.0480
 2398SOL    HW110086   5.467   8.754   7.377 -0.0466  0.0342 -0.4807
 2398SOL    HW210087   5.532   8.781   7.510 -2.3428  1.6281  0.3890
 2399SOL     OW10088   7.182   3.053   5.880 -0.1938 -0.0471  0.2916
 2399SOL    HW110089   7.112   3.063   5.815 -0.7912  0.5727  1.0133
 2399SOL    HW210090   7.219   3.140   5.889 -0.5101  0.0058  1.2047
 2400SOL     OW10091   5.107   0.972   5.045 -0.2703  0.3960 -0.2811
 2400SOL    HW110092   5.024   0.934   5.017 -0.0815  0.9855 -1.7229
 2400SOL    HW210093   5.123   1.044   4.984  0.3346  1.5685  1.1899
 2401SOL     OW10094   3.542   4.883   0.544 -0.0937 -0.8261  0.1766
 2401SOL    HW110095   3.589   4.962   0.520 -0.6247 -0.3730  0.6086
 2401SOL    HW210096   3.595   4.843   0.613 -0.8738  0.2700  1.4687
 2402SOL     OW10097   3.922   7.061   2.479  0.8276 -0.6536 -0.2838
 2402SOL    HW110098   3.891   6.981   2.523  1.9274 -0.6708  0.4832
 2402SOL    HW210099   3.928   7.036   2.387  1.0605 -1.4234 -0.0685
 2403SOL     OW10100   5.285   1.991   6.393  0.0817  0.0031  0.6851
 2403SOL    HW110101   5.195   1.959   6.405 -0.5783  0.3622 -2.3623
 2403SOL    HW210102   5.338   1.911   6.388 -0.0580 -0.2203  2.2099
 2404SOL     OW10103   7.749   8.496   7.965  0.1042  0.1002  0.3882
 2404SOL    HW110104   7.809   8.555   8.009 -1.1246  2.9835 -1.4792
 2404SOL    HW210105   7.793   8.473   7.883  0.3356 -1.1728  0.8489
 2405SOL     OW10106   2.426   1.607   0.960  0.7936  0.1206 -0.0635
 2405SOL    HW110107   2.456   1.675   1.020  1.8591 -0.5363  0.1729
 2405SOL    HW210108   2.363   1.651   0.903 -0.6894  0.6343  1.8670
 2406SOL     OW10109   5.515   4.587   8.438 -0.4410 -0.5068  0.4012
 2406SOL    HW110110   5.575   4.513   8.447  0.3929  0.0761 -0.1526
 2406SOL    HW210111   5.572   4.664   8.437 -1.2017  0.0714 -0.0751
 2407SOL     OW10112   1.084   5.945   5.030  0.6605  0.6482 -0.1441
 2407SOL    HW110113   1.077   5.891   5.109 -0.5083  0.4192 -0.3996
 2407SOL    HW210114   1.127   5.888   4.966 -0.6261 -0.0141 -0.4341
 2408SOL     OW10115   3.041   4.631   5.019 -0.1845 -0.2137  0.2601
 2408SOL    HW110116   3.100   4.672   4.956 -2.0547  0.4176 -1.2171
 2408SOL    HW210117   3.075   4.543   5.030  0.7113 -0.0582 -1.0022
 2409SOL     OW10118   8.257   8.761   5.851  0.0404 -0.7175  0.5774
 2409SOL    HW110119   8.164   8.754   5.829 -0.0543 -1.0971  1.0775
 2409SOL    HW210120   8.303   8.738   5.771 -0.2917  0.2629  0.0824
 2410SOL     OW10121   5.205   2.712   2.745 -0.7167  0.0715 -0.0860
 2410SOL    HW110122   5.188   2.805   2.729 -1.5509 -0.1220 -0.3484
 2410SOL    HW210123   5.160   2.666   2.673 -0.5423 -0.5522  0.1933
 2411SOL     OW10124   2.691   8.602   7.085  0.2562  0.0339 -0.5332
 2411SOL    HW110125   2.764   8.619   7.026  0.4669  0.9895 -0.0334
 2411SOL    HW210126   2.665   8.512   7.068  1.4967 -0.2867 -0.7829
 2412SOL     OW10127   1.779   8.977   5.546  0.1415  0.1938 -0.1427
 2412SOL    HW110128   1.856   8.942   5.592  1.0969 -1.8733 -3.0303
 2412SOL    HW210129   1.815   9.045   5.488 -0.7359  1.4154  0.7023
 2413SOL     OW10130   8.386   3.578   3.816  0.0548  0.7564 -0.2276
 2413SOL    HW110131   8.473   3.567   3.777  0.1956  1.3248 -0.0765
 2413SOL    HW210132   8.402   3.576   3.910 -0.0404  1.2876 -0.1987
 2414SOL     OW10133   6.094   5.932   2.151 -0.4259  0.0114 -0.1585
 2414SOL    HW110134   6.177   5.974   2.128  0.4357 -0.7474  1.3918
 2414SOL    HW210135   6.106   5.841   2.126 -0.9885 -0.0163 -0.3443
 2415SOL     OW10136   3.937   4.308   6.819 -0.2232  0.1599  0.1582
 2415SOL    HW110137   3.872   4.311   6.889  0.2894 -0.2197  0.6540
 2415SOL    HW210138   3.912   4.231   6.767  0.6612 -0.8709  1.1894
 2416SOL     OW10139   1.089   6.339   0.053 -0.4216 -0.7242 -0.3085
 2416SOL    HW110140   1.038   6.293   0.120 -0.4435 -0.3772 -0.0878
 2416SOL    HW210141   1.050   6.426   0.049 -1.2628 -1.1156 -1.6646
 2417SOL     OW10142   4.425   0.309   6.052 -0.1966 -0.4589  0.9153
 2417SOL    HW110143   4.355   0.315   5.987  0.6084  1.1520  0.1393
 2417SOL    HW210144   4.464   0.223   6.038 -1.3484 -0.9515  0.6620
 2418SOL     OW10145   9.175   2.129   7.936 -0.4804 -0.6935  0.0685
 2418SOL    HW110146   9.158   2.129   8.031  1.3078  1.6398  0.4830
 2418SOL    HW210147   9.246   2.066   7.925  0.9782  0.7600  0.7242
 2419SOL     OW10148   1.028   7.180   2.697 -0.2749 -0.1681  0.1494
 2419SOL    HW110149   1.114   7.179   2.655  0.9850 -0.2410  2.5543
 2419SOL    HW210150   1.007   7.273   2.706 -0.8353 -0.1520 -1.0797
 2420SOL     OW10151   8.520   0.878   7.999  0.0147  0.2622 -0.2291
 2420SOL    HW110152   8.571   0.950   7.961  0.4067 -0.2136 -0.6090
 2420SOL    HW210153   8.447   0.922   8.043  0.8589  0.9812  0.5204
 2421SOL     OW10154   3.417   7.925   2.131 -0.1352  0.0219  0.4253
 2421SOL    HW110155   3.510   7.916   2.153 -0.0776  0.3376  0.3174
 2421SOL    HW210156   3.405   7.865   2.057 -0.0126 -0.0030  0.4250
 2422SOL     OW10157   0.177   2.026   2.514 -0.5871  0.2143  0.1145
 2422SOL    HW110158   0.272   2.035   2.503 -0.5140  1.1139  1.2197
 2422SOL    HW210159   0.167   1.949   2.570 -0.6105 -0.7401 -1.1709
 2423SOL     OW10160   4.194   5.737   5.809 -0.1954  0.3838 -0.2879
 2423SOL    HW110161   4.158   5.653   5.838 -1.0737  1.3165  1.4576
 2423SOL    HW210162   4.118   5.793   5.795  0.3930  1.0126 -1.0855
 2424SOL     OW10163   5.497   8.518   7.938 -0.4274  0.3853 -0.3988
 2424SOL    HW110164   5.544   8.435   7.930 -1.9421 -0.3521 -2.4083
 2424SOL    HW210165   5.557   8.584   7.904 -0.0670 -0.2304 -0.9651
 2425SOL     OW10166   6.247   4.978   6.835  0.1296 -0.3480  0.3408
 2425SOL    HW110167   6.160   4.972   6.798  0.7215 -1.7225 -0.9247
 2425SOL    HW210168   6.234   5.013   6.923 -1.7289 -0.9403  0.3324
 2426SOL     OW10169   8.588   8.412   9.181 -0.1099 -0.3916  0.2180
 2426SOL    HW110170   8.622   8.425   9.270 -0.1642  0.1314  0.1608
 2426SOL    HW210171   8.624   8.327   9.155  0.3562 -0.2955  0.5318
 2427SOL     OW10172   7.844   3.668   1.756 -0.0027  0.5425 -0.3148
 2427SOL    HW110173   7.822   3.583   1.795  1.2136 -1.0030 -2.7434
 2427SOL    HW210174   7.771   3.688   1.697 -0.5615  1.5249  0.6725
 2428SOL     OW10175   2.480   4.842   5.228 -0.3070  0.2020  0.2149
 2428SOL    HW110176   2.409   4.895   5.193  0.5589  1.2752  0.0507
 2428SOL    HW210177   2.440   4.792   5.299 -1.1630  0.9952  0.3019
 2429SOL     OW10178   5.129   3.973   7.528 -0.0294 -0.0393 -0.2952
 2429SOL    HW110179   5.150   3.895   7.477 -0.7771 -0.2661 -0.2659
 2429SOL    HW210180   5.037   3.962   7.552  0.3144  0.0406  1.1472
 2430SOL     OW10181   2.286   5.299   6.991  0.4870  0.1846 -0.1295
 2430SOL    HW110182   2.322   5.222   7.034  1.3075  1.4873  1.6222
 2430SOL    HW210183   2.204   5.317   7.037 -0.5568 -0.5274 -1.6005
 2431SOL     OW10184   6.392   6.733   5.049  0.2409 -0.4980 -0.2972
 2431SOL    HW110185   6.352   6.774   4.972 -0.2919 -2.2764 -1.0068
 2431SOL    HW210186   6.356   6.645   5.051 -0.2658 -0.3154  2.3925
 2432SOL     OW10187   0.446   5.599   0.889  0.3956 -0.2290  0.2127
 2432SOL    HW110188   0.503   5.659   0.936 -0.0923  0.2260  0.2343
 2432SOL    HW210189   0.439   5.636   0.801 -0.4072  0.1128  0.4015
 2433SOL     OW10190   1.257   7.109   2.372  0.0364 -0.1588  0.4604
 2433SOL    HW110191   1.349   7.131   2.387 -0.4691  2.8854 -0.1438
 2433SOL    HW210192   1.233   7.054   2.447  2.0036  0.1177  1.3564
 2434SOL     OW10193   0.513   1.324   0.549  0.1161 -0.3820  0.7716
 2434SOL    HW110194   0.566   1.380   0.492 -3.6002  0.5069 -2.2293
 2434SOL    HW210195   0.549   1.236   0.536  1.1157  0.2022 -0.7977
 2435SOL     OW10196   6.264   0.755   1.033 -0.2376  0.0656  0.0196
 2435SOL    HW110197   6.349   0.778   1.070 -0.5835  0.7198  0.4331
 2435SOL    HW210198   6.262   0.797   0.947  0.7644 -1.8624 -0.9889
 2436SOL     OW10199   6.639   6.969   8.760 -0.0055  0.9431  0.5063
 2436SOL    HW110200   6.571   6.904   8.776  0.5562  0.1800 -0.1163
 2436SOL    HW210201   6.591   7.049   8.740 -0.8937 -0.3243 -3.2152
 2437SOL     OW10202   6.658   2.938   0.257 -0.1827  0.3598 -0.2888
 2437SOL    HW110203   6.573   2.954   0.298 -0.4361 -0.4118 -0.4836
 2437SOL    HW210204   6.722   2.967   0.321 -0.5774 -0.3826  0.4617
 2438SOL     OW10205   6.435   1.495   2.427  0.0452 -0.0078 -0.1151
 2438SOL    HW110206   6.387   1.543   2.359  0.3886 -0.1139 -0.4349
 2438SOL    HW210207   6.517   1.542   2.436 -0.0132  0.0264  0.2573
 2439SOL     OW10208   5.348   7.890   1.444  0.1537  0.7265  0.0828
 2439SOL    HW110209   5.412   7.819   1.444 -0.1517  0.4337 -0.7656
 2439SOL    HW210210   5.271   7.852   1.400 -0.4446  1.2033  0.7058
 2440SOL     OW10211   7.609   7.338   2.897 -0.0174  0.0992 -0.0561
 2440SOL    HW110212   7.678   7.272   2.895  0.6817  0.7316  1.3429
 2440SOL    HW210213   7.638   7.405   2.835  0.3892  0.1300  0.1653
 2441SOL     OW10214   2.652   5.992   5.589 -0.1256 -0.2356  0.0689
 2441SOL    HW110215   2.602   5.998   5.508  0.0339 -0.2628 -0.0317
 2441SOL    HW210216   2.594   6.030   5.656  0.2562  1.0275 -0.2839
 2442SOL     OW10217   0.886   8.784   7.521  0.4521 -0.0777  0.0129
 2442SOL    HW110218   0.853   8.741   7.441 -2.3394  0.1897  0.9017
 2442SOL    HW210219   0.890   8.713   7.585  1.0441  0.0235  0.0873
 2443SOL     OW10220   6.585   2.476   0.570  0.2053  0.1774  0.1006
 2443SOL    HW110221   6.636   2.479   0.489  1.2154 -1.1046  0.6616
 2443SOL    HW210222   6.649   2.456   0.638 -0.9466 -0.8509  0.9165
 2444SOL     OW10223   2.270   4.498   7.551 -0.1323  0.2002 -0.0800
 2444SOL    HW110224   2.363   4.481   7.565  0.1684  2.6494  1.7308
 2444SOL    HW210225   2.225   4.431   7.602  0.6539 -0.6460 -0.4823
 2445SOL     OW10226   0.010   5.072   4.536 -0.4829 -0.2827  0.0661
 2445SOL    HW110227  -0.016   5.005   4.599  1.3681 -1.8689 -0.7258
 2445SOL    HW210228   0.079   5.121   4.581 -0.9924  0.3274  0.1988
 2446SOL     OW10229   7.452   1.401   3.606 -0.3006  0.3418 -0.4664
 2446SOL    HW110230   7.361   1.371   3.600 -0.6013  0.9262  0.7945
 2446SOL    HW210231   7.445   1.497   3.607  0.3635  0.3970 -0.7134
 2447SOL     OW10232   6.093   5.834   5.956 -0.2903  0.1709  0.3162
 2447SOL    HW110233   6.008   5.868   5.984  0.5615  2.6620  0.1513
 2447SOL    HW210234   6.157   5.897   5.991  1.4214 -1.0838 -0.3932
 2448SOL     OW10235   4.176   4.093   4.041 -0.6252  0.3276 -0.0809
 2448SOL    HW110236   4.083   4.105   4.024 -0.4678 -0.5498 -1.7732
 2448SOL    HW210237   4.188   4.121   4.132 -2.5745  0.1695  0.2604
 2449SOL     OW10238   5.043   2.700   0.180 -0.6617  0.0483  0.4895
 2449SOL    HW110239   4.970   2.640   0.198 -1.1409  0.1208 -1.1419
 2449SOL    HW210240   5.114   2.643   0.149 -0.7376  0.2088  0.0217
 2450SOL     OW10241   5.473   3.319   8.460 -0.1241 -0.0828 -0.3060
 2450SOL    HW110242   5.425   3.292   8.382  0.3189 -1.1604 -0.2191
 2450SOL    HW210243   5.531   3.246   8.479  2.5499  1.6585 -1.1717
 2451SOL     OW10244   4.406   0.648   4.747  0.8963  0.0836  0.1716
 2451SOL    HW110245   4.478   0.636   4.809  0.7116  0.5443  0.4804
 2451SOL    HW210246   4.327   0.631   4.799  0.5743  2.9638  0.7802
 2452SOL     OW10247   2.965   6.262   1.152 -0.5776 -0.4265 -0.0872
 2452SOL    HW110248   2.916   6.180   1.153 -0.6920 -0.3568  0.0287
 2452SOL    HW210249   2.901   6.329   1.128 -0.3796 -0.4371 -0.6639
 2453SOL     OW10250   7.837   6.883   8.811  0.0472  0.0915 -0.0359
 2453SOL    HW110251   7.754   6.929   8.826 -0.3455  0.4561 -2.8871
 2453SOL    HW210252   7.858   6.901   8.720  1.9440 -2.1609 -0.1174
 2454SOL     OW10253   6.297   8.198   7.849  0.0173  0.0181  0.4634
 2454SOL    HW110254   6.230   8.149   7.801  0.2978 -0.1087  0.1950
 2454SOL    HW210255   6.373   8.139   7.851  0.1118  0.1438  0.7980
 2455SOL     OW10256   4.952   1.643   2.161 -0.2611 -0.1268  0.3024
 2455SOL    HW110257   5.044   1.643   2.134 -0.3738 -1.4674 -0.1478
 2455SOL    HW210258   4.953   1.685   2.247  0.5044  1.5547 -0.4970
 2456SOL     OW10259   1.337   4.975   4.059  0.0732  0.3954  0.5684
 2456SOL    HW110260   1.288   5.008   3.984 -0.4312 -0.6240  0.4253
 2456SOL    HW210261   1.361   5.053   4.109  0.5640  1.1161 -0.7328
 2457SOL     OW10262   0.048   3.472   5.894 -0.5229 -0.5064  0.0109
 2457SOL    HW110263  -0.013   3.493   5.965  0.0687 -1.2628  0.7648
 2457SOL    HW210264   0.047   3.376   5.890 -0.9388 -0.4596 -1.3610
 2458SOL     OW10265   6.203   7.507   7.603  0.0213  0.0902 -0.1519
 2458SOL    HW110266   6.226   7.600   7.602 -1.3167  0.4392 -0.6216
 2458SOL    HW210267   6.261   7.468   7.537  0.7433  0.5389  0.2027
 2459SOL     OW10268   8.829   2.206   0.527 -0.2787 -0.4972  0.2537
 2459SOL    HW110269   8.795   2.205   0.438  0.2111 -0.1337  0.0507
 2459SOL    HW210270   8.924   2.210   0.516 -0.2592  1.3746  0.7636
 2460SOL     OW10271   3.380   8.666   6.807 -0.0233  1.1596  0.1328
 2460SOL    HW110272   3.438   8.730   6.847 -0.6702  1.6105  0.3798
 2460SOL    HW210273   3.375   8.595   6.872 -0.9797  1.8384  0.8331
 2461SOL     OW10274   1.855   1.870   0.880 -0.3636  0.4185 -0.1104
 2461SOL    HW110275   1.776   1.870   0.826 -0.0225  2.2283 -0.6746
 2461SOL    HW210276   1.927   1.873   0.817  0.1487 -0.2376  0.4202
 2462SOL     OW10277   4.599   6.285   3.278  0.3109  0.4375 -0.6827
 2462SOL    HW110278   4.647   6.203   3.288  0.7868  0.8506  0.6363
 2462SOL    HW210279   4.521   6.274   3.332 -1.0627 -0.1490 -2.6495
 2463SOL     OW10280   1.194   6.815   4.689 -0.5602  0.2876 -0.0085
 2463SOL    HW110281   1.128   6.754   4.657  0.6446 -0.7387 -0.6373
 2463SOL    HW210282   1.221   6.864   4.611  2.0108 -1.8578 -0.6081
 2464SOL     OW10283   0.813   4.169   0.940 -0.1986 -0.5249 -0.4063
 2464SOL    HW110284   0.897   4.146   0.899 -0.8662  1.0746 -2.9057
 2464SOL    HW210285   0.812   4.264   0.943 -1.5575 -0.5314  0.4363
 2465SOL     OW10286   6.966   1.453   4.182  0.6255 -0.0699 -0.1395
 2465SOL    HW110287   7.028   1.436   4.110 -0.0638  0.2308 -0.8245
 2465SOL    HW210288   6.900   1.384   4.172  1.6082 -1.3126  1.5038
 2466SOL     OW10289   4.596   4.370   4.923  0.4615 -0.4187  0.2660
 2466SOL    HW110290   4.660   4.393   4.856 -1.6410  0.9799 -1.4149
 2466SOL    HW210291   4.518   4.347   4.874  0.2630 -4.4817  2.1348
 2467SOL     OW10292   2.498   8.828   5.960  1.0912 -0.1035  0.1073
 2467SOL    HW110293   2.551   8.818   6.039 -0.3661 -2.8190  0.8523
 2467SOL    HW210294   2.417   8.780   5.978 -0.2398  1.0775 -2.2240
 2468SOL     OW10295   4.840   3.565   2.136  0.2048  0.9295 -0.1604
 2468SOL    HW110296   4.933   3.586   2.145  0.1118  0.8648  1.2842
 2468SOL    HW210297   4.802   3.585   2.222 -0.7378 -0.8427 -0.0955
 2469SOL     OW10298   7.111   6.519   6.852  0.1413 -0.0594 -0.2786
 2469SOL    HW110299   7.106   6.518   6.757  0.9181  1.3997 -0.3577
 2469SOL    HW210300   7.169   6.591   6.873  0.9855 -1.1270  1.2830
 2470SOL     OW10301   5.134   7.773   7.403  0.4810 -0.0084  0.0462
 2470SOL    HW110302   5.221   7.813   7.407  0.1234  0.7020  1.1161
 2470SOL    HW210303   5.142   7.693   7.454 -0.1814  1.4902  2.6894
 2471SOL     OW10304   7.399   0.269   1.530  0.0234 -0.0637  0.6794
 2471SOL    HW110305   7.398   0.351   1.581  0.2836  1.5595 -1.7485
 2471SOL    HW210306   7.315   0.268   1.485  0.6198 -0.3115 -0.4721
 2472SOL     OW10307   6.799   8.297   8.891  0.0620 -0.3189 -0.2479
 2472SOL    HW110308   6.821   8.240   8.965  2.1865 -0.2083 -0.7234
 2472SOL    HW210309   6.866   8.278   8.825  0.5401  2.2994 -0.6411
 2473SOL     OW10310   0.142   9.096   8.954 -0.3902 -0.4749 -0.1308
 2473SOL    HW110311   0.212   9.108   9.018  0.1167  2.0298 -1.0648
 2473SOL    HW210312   0.065   9.134   8.995 -0.2928  0.2464 -0.6045
 2474SOL     OW10313   3.366   9.199   7.690 -0.4049  0.1446 -0.1351
 2474SOL    HW110314   3.294   9.249   7.653 -0.9130 -0.5373 -0.0872
 2474SOL    HW210315   3.325   9.120   7.725  0.3908 -0.3416 -0.2753
 2475SOL     OW10316   0.083   2.773   5.988 -0.1254  0.1843 -0.2745
 2475SOL    HW110317   0.024   2.723   6.045  0.3604 -0.1609 -0.0663
 2475SOL    HW210318   0.125   2.707   5.933  0.1915  0.4083 -0.3063
 2476SOL     OW10319   7.928   2.515   0.211  0.0864  0.0057  0.1969
 2476SOL    HW110320   7.857   2.463   0.172 -0.6891  1.2442 -0.1015
 2476SOL    HW210321   7.959   2.571   0.140  1.1189 -0.2369  0.4354
 2477SOL     OW10322   1.661   0.259   3.010  0.5487  0.3764 -0.3824
 2477SOL    HW110323   1.595   0.236   3.075  1.5323  0.1870  0.5870
 2477SOL    HW210324   1.624   0.230   2.927  1.1597 -3.7845  0.5853
 2478SOL     OW10325   9.176   8.763   8.543  0.0214  0.6326  0.2003
 2478SOL    HW110326   9.261   8.753   8.585  0.1366  3.4749  0.9102
 2478SOL    HW210327   9.195   8.807   8.460 -0.6331 -0.3944 -0.5192
 2479SOL     OW10328   7.290   0.294   7.042  0.7211  0.3312 -0.0843
 2479SOL    HW110329   7.384   0.309   7.046  0.5499  1.2687  0.7858
 2479SOL    HW210330   7.253   0.352   7.109 -0.4582 -0.1566 -0.2811
 2480SOL     OW10331   3.058   2.159   3.802  0.1366  0.0366  0.3915
 2480SOL    HW110332   3.044   2.176   3.709  0.9781 -2.3044 -0.2430
 2480SOL    HW210333   2.999   2.218   3.848  1.0618  2.6091 -1.5508
 2481SOL     OW10334   6.755   1.384   5.355 -0.2140  0.4556  0.8899
 2481SOL    HW110335   6.730   1.330   5.279  1.6659 -2.9672  2.4771
 2481SOL    HW210336   6.849   1.397   5.345 -0.4739  2.8933  1.0249
 2482SOL     OW10337   0.344   8.186   0.980 -0.0351 -0.3827 -0.3098
 2482SOL    HW110338   0.355   8.160   0.888  2.0340 -0.6981 -0.0255
 2482SOL    HW210339   0.268   8.244   0.979  0.3029  0.1188 -2.3375
 2483SOL     OW10340   0.409   4.284   4.762  0.1611  0.1974  0.4439
 2483SOL    HW110341   0.367   4.215   4.813 -1.4698 -0.3371 -1.4737
 2483SOL    HW210342   0.494   4.248   4.737  0.5614  0.0841  1.8875
 2484SOL     OW10343   1.263   2.686   4.686 -0.1373 -0.4878  0.5322
 2484SOL    HW110344   1.287   2.603   4.726 -1.7162 -0.7163  1.0875
 2484SOL    HW210345   1.299   2.752   4.744  0.0298 -0.7944  0.7822
 2485SOL     OW10346   0.212   0.201   5.301  0.6311 -0.3471  0.1719
 2485SOL    HW110347   0.117   0.209   5.298  0.3680 -2.3307  1.2665
 2485SOL    HW210348   0.239   0.255   5.375  0.2832 -0.2468  0.2230
 2486SOL     OW10349   6.978   2.902   9.104  0.2869  0.2023 -0.2001
 2486SOL    HW110350   7.059   2.919   9.055  0.3592 -1.1935 -0.5849
 2486SOL    HW210351   6.910   2.945   9.053  0.6192  0.3802 -0.5001
 2487SOL     OW10352   5.592   8.715   6.030  0.1910 -0.0840 -0.7309
 2487SOL    HW110353   5.548   8.725   5.946  0.0736 -1.0967 -0.8109
 2487SOL    HW210354   5.630   8.627   6.027  0.5515  0.0291  0.1062
 2488SOL     OW10355   0.930   1.405   0.338 -0.1736 -0.1491 -0.0262
 2488SOL    HW110356   0.940   1.387   0.245 -0.5278  0.0891 -0.1155
 2488SOL    HW210357   0.992   1.347   0.382  0.1240 -0.1297 -0.4212
 2489SOL     OW10358   3.611   1.429   0.730  0.3598  0.4160 -0.0900
 2489SOL    HW110359   3.676   1.427   0.800  0.2964 -1.1272 -0.0621
 2489SOL    HW210360   3.648   1.491   0.666  0.5970  1.5543  1.0892
 2490SOL     OW10361   3.243   4.941   0.509 -0.0303  0.2625 -0.1547
 2490SOL    HW110362   3.199   4.909   0.588  1.8501 -3.2396 -0.3033
 2490SOL    HW210363   3.334   4.912   0.519  0.7011  1.3304 -2.7966
 2491SOL     OW10364   2.183   4.073   3.808 -0.2494  0.8033 -0.3522
 2491SOL    HW110365   2.121   4.072   3.735  0.4330 -0.6398 -0.9396
 2491SOL    HW210366   2.269   4.059   3.767 -0.0310 -1.8999  0.8669
 2492SOL     OW10367   0.309   8.053   8.995  0.0222 -0.4410 -0.5308
 2492SOL    HW110368   0.322   8.127   8.935 -0.2386 -1.5121 -1.9559
 2492SOL    HW210369   0.276   8.093   9.076  1.7872  1.2023 -0.5457
 2493SOL     OW10370   0.220   0.929   5.008 -0.0436 -0.2517  0.4123
 2493SOL    HW110371   0.232   1.020   4.980  1.9648 -0.6924 -0.3091
 2493SOL    HW210372   0.229   0.931   5.103 -0.8432  0.4112  0.4789
 2494SOL     OW10373   6.822   6.919   0.057 -0.6547  0.0230 -0.1373
 2494SOL    HW110374   6.841   6.976  -0.017 -1.0144  0.4285  0.0835
 2494SOL    HW210375   6.738   6.949   0.091 -0.6051 -0.3089  0.2950
 2495SOL     OW10376   6.637   2.522   3.269  0.0952 -0.0997  0.5091
 2495SOL    HW110377   6.547   2.553   3.278 -0.6535 -0.9759 -2.7451
 2495SOL    HW210378   6.653   2.472   3.349 -2.1752  0.3816  1.3398
 2496SOL     OW10379   3.619   6.899   3.598 -0.8265  0.2913  0.0516
 2496SOL    HW110380   3.599   6.867   3.686  0.6080 -0.2742  0.1978
 2496SOL    HW210381   3.645   6.990   3.610  1.8088 -0.4465  0.6195
 2497SOL     OW10382   7.264   0.168   7.662  0.1100 -0.0030 -0.0044
 2497SOL    HW110383   7.228   0.186   7.749  0.2265 -1.0705  0.2805
 2497SOL    HW210384   7.359   0.165   7.676  0.2143  1.0521 -0.4158
 2498SOL     OW10385   5.311   6.392   8.112 -0.1152  0.1493 -0.4798
 2498SOL    HW110386   5.321   6.401   8.206 -1.0467  1.5747 -0.4783
 2498SOL    HW210387   5.387   6.340   8.084 -0.3174 -1.0620  1.1433
 2499SOL     OW10388   5.030   4.527   0.523 -0.1954 -0.2414  0.0688
 2499SOL    HW110389   5.067   4.525   0.612  0.0532  1.7277  0.0439
 2499SOL    HW210390   4.942   4.490   0.534 -0.5424  0.8686  1.3504
 2500SOL     OW10391   6.190   3.834   5.637  0.1182 -0.8590  0.0402
 2500SOL    HW110392   6.218   3.846   5.727 -1.2754  0.0432  0.3786
 2500SOL    HW210393   6.190   3.922   5.600 -0.2240 -1.1128 -0.5752
 2501SOL     OW10394   7.853   7.640   7.790 -0.2564 -0.2543  0.5535
 2501SOL    HW110395   7.942   7.675   7.794  0.0910 -1.1587  1.0023
 2501SOL    HW210396   7.811   7.689   7.719  1.0748 -0.8748 -0.7210
 2502SOL     OW10397   5.112   3.638   1.979 -0.4171 -0.3569 -0.4313
 2502SOL    HW110398   5.053   3.627   1.905 -0.8923 -0.0953 -0.0942
 2502SOL    HW210399   5.194   3.669   1.940 -0.8322  0.3117 -0.7970
 2503SOL     OW10400   8.277   7.340   0.714 -0.2316  0.1234  0.3232
 2503SOL    HW110401   8.261   7.253   0.750  2.0947 -0.1662  0.7944
 2503SOL    HW210402   8.354   7.373   0.762 -0.9823  2.4092  0.0966
 2504SOL     OW10403   1.935   2.213   6.018  0.1554  0.0714  0.3022
 2504SOL    HW110404   1.866   2.147   6.012 -0.7485  1.0626 -0.5890
 2504SOL    HW210405   1.998   2.188   5.951  1.0008 -1.1532  1.4831
 2505SOL     OW10406   1.259   2.674   3.645  0.6094  0.2381 -0.7315
 2505SOL    HW110407   1.181   2.674   3.590  1.0275  1.7983 -1.3833
 2505SOL    HW210408   1.309   2.750   3.616  1.5298  0.2950  0.8715
 2506SOL     OW10409   2.696   5.600   8.196 -0.1603 -0.0868  0.4921
 2506SOL    HW110410   2.607   5.634   8.205 -0.3897 -0.7080  0.5609
 2506SOL    HW210411   2.690   5.508   8.219  0.5384 -0.0924  0.6853
 2507SOL     OW10412   7.512   0.450   8.877 -0.3018 -0.3817 -0.9377
 2507SOL    HW110413   7.582   0.481   8.934 -0.6728 -0.1443 -0.6126
 2507SOL    HW210414   7.442   0.422   8.936 -0.9569  0.4894 -1.2719
 2508SOL     OW10415   4.093   1.823   6.209 -0.0084  0.0733 -0.0658
 2508SOL    HW110416   4.066   1.910   6.239  1.1231  1.0875 -1.8224
 2508SOL    HW210417   4.018   1.790   6.160 -0.7439 -0.3197  1.2779
 2509SOL     OW10418   7.281   7.383   4.488 -0.0087 -0.0599 -0.7071
 2509SOL    HW110419   7.191   7.404   4.513 -0.3770 -1.6689 -0.5689
 2509SOL    HW210420   7.324   7.362   4.571  0.5435  0.7831 -0.7620
 2510SOL     OW10421   4.615   4.392   1.046  0.3833 -0.0638  0.1435
 2510SOL    HW110422   4.568   4.465   1.006  1.8309  2.2001  2.2974
 2510SOL    HW210423   4.553   4.355   1.109  0.1673  0.3217  0.1592
 2511SOL     OW10424   5.819   7.127   5.580 -0.0234 -0.4637 -0.9708
 2511SOL    HW110425   5.816   7.186   5.505  0.8891 -1.6238 -1.9601
 2511SOL    HW210426   5.748   7.065   5.566  0.0416 -0.5839 -0.7820
 2512SOL     OW10427   9.034   1.423   0.407  0.0090 -0.3276 -0.3895
 2512SOL    HW110428   8.941   1.416   0.429  0.0473  1.2907  0.4803
 2512SOL    HW210429   9.037   1.409   0.312 -1.1514 -0.2189 -0.4612
 2513SOL     OW10430   7.483   2.514   9.240  0.0165  0.6194 -0.1527
 2513SOL    HW110431   7.519   2.565   9.313  0.6775  0.4381 -0.3457
 2513SOL    HW210432   7.462   2.579   9.173  1.1312  0.6371 -0.5149
 2514SOL     OW10433   4.279   2.545   4.591 -0.3881 -0.3144  0.4714
 2514SOL    HW110434   4.194   2.590   4.591 -1.5941 -2.0895 -3.5149
 2514SOL    HW210435   4.260   2.458   4.626 -0.3819 -0.8069 -0.6740
 2515SOL     OW10436   4.106   5.848   8.591  0.0801 -0.4693 -0.3413
 2515SOL    HW110437   4.051   5.822   8.516  0.4008 -2.3113  0.0106
 2515SOL    HW210438   4.184   5.792   8.583  0.2676 -0.4478  1.1828
 2516SOL     OW10439   6.019   6.540   1.902  0.4179 -0.1080 -0.1378
 2516SOL    HW110440   6.070   6.534   1.821  0.5148 -1.9787  0.0268
 2516SOL    HW210441   6.083   6.566   1.968  1.0380 -1.6933 -0.0802
 2517SOL     OW10442   4.096   8.344   5.951  0.2408  0.1155 -0.3202
 2517SOL    HW110443   4.001   8.343   5.958  0.2300  0.2496 -0.4441
 2517SOL    HW210444   4.116   8.422   5.899  0.3512 -0.5445 -1.2927
 2518SOL     OW10445   6.461   4.505   5.512 -0.3937 -0.0419  0.0652
 2518SOL    HW110446   6.368   4.490   5.493 -0.0302 -0.1269 -1.9308
 2518SOL    HW210447   6.470   4.600   5.513 -0.2852 -0.0266 -1.1143
 2519SOL     OW10448   5.331   5.967   5.662  0.2088 -0.1808 -0.0287
 2519SOL    HW110449   5.289   6.049   5.688  1.0157  0.9050 -1.8893
 2519SOL    HW210450   5.260   5.915   5.623 -0.0311  0.2865 -0.2271
 2520SOL     OW10451   4.944   6.550   0.585 -0.0370 -0.1185  0.2015
 2520SOL    HW110452   4.871   6.489   0.579 -0.7981  0.8997 -1.3966
 2520SOL    HW210453   4.988   6.544   0.500  0.8134  0.4100  0.5909
 2521SOL     OW10454   5.158   6.959   7.762 -0.0531 -0.4618 -0.2791
 2521SOL    HW110455   5.120   7.024   7.703  0.3458 -0.9331 -1.0832
 2521SOL    HW210456   5.186   6.888   7.704 -0.1446 -1.1850  0.5376
 2522SOL     OW10457   1.203   3.843   7.494 -1.4187 -0.1224 -0.2948
 2522SOL    HW110458   1.169   3.873   7.579 -0.3505  0.0726  0.0797
 2522SOL    HW210459   1.170   3.754   7.486 -1.0648 -0.3477  0.6031
 2523SOL     OW10460   6.035   4.516   7.769  0.1561  0.4071  0.4619
 2523SOL    HW110461   6.032   4.436   7.717 -2.8840 -0.0661  1.1435
 2523SOL    HW210462   5.996   4.583   7.712  3.0937  1.6075 -0.2795
 2524SOL     OW10463   9.207   8.188   7.928 -0.2451 -0.4966  0.1077
 2524SOL    HW110464   9.266   8.262   7.940  0.8549 -1.3348  0.0590
 2524SOL    HW210465   9.121   8.227   7.910  0.1063  0.7456  1.0555
 2525SOL     OW10466   8.498   6.543   1.723  0.3381 -0.0943 -0.3489
 2525SOL    HW110467   8.551   6.587   1.789  1.0316 -0.9709 -0.2886
 2525SOL    HW210468   8.558   6.528   1.650 -0.1255 -0.1156 -0.7321
 2526SOL     OW10469   1.708   7.711   8.241  0.3033  0.0989 -0.4727
 2526SOL    HW110470   1.649   7.786   8.251  0.4572  0.0512  1.0313
 2526SOL    HW210471   1.653   7.635   8.260  0.5395 -0.0368 -0.3252
 2527SOL     OW10472   0.716   3.792   3.153 -0.5701 -0.6336  0.0439
 2527SOL    HW110473   0.688   3.718   3.099 -0.9420  1.8154 -3.4421
 2527SOL    HW210474   0.636   3.820   3.198 -1.5154  0.1817 -2.0121
 2528SOL     OW10475   1.236   7.709   4.613 -0.5166 -0.0445  0.0984
 2528SOL    HW110476   1.210   7.729   4.523  2.7784 -0.5363 -1.0694
 2528SOL    HW210477   1.320   7.752   4.624 -0.3071 -0.9302  2.6053
 2529SOL     OW10478   0.383   2.135   2.076 -0.4728 -0.0495  0.0989
 2529SOL    HW110479   0.361   2.078   2.002  1.0914 -0.2892 -0.2144
 2529SOL    HW210480   0.312   2.200   2.078 -1.8903 -1.5400  0.0088
 2530SOL     OW10481   6.755   0.630   8.717 -0.0166  0.2713  0.1739
 2530SOL    HW110482   6.774   0.537   8.705  0.2538  0.4143 -0.5545
 2530SOL    HW210483   6.753   0.666   8.628  1.4813  1.2733  0.5046
 2531SOL     OW10484   6.787   7.497   6.450  0.0229  0.5570 -0.2204
 2531SOL    HW110485   6.781   7.446   6.531  2.6715 -1.4089 -1.1388
 2531SOL    HW210486   6.780   7.588   6.479  1.1770 -0.0594  2.2895
 2532SOL     OW10487   2.582   7.129   8.049  0.0707  0.2242  0.6412
 2532SOL    HW110488   2.562   7.112   7.956  1.5933 -1.1213  0.5128
 2532SOL    HW210489   2.534   7.061   8.096  1.6628 -0.9988  0.5724
 2533SOL     OW10490   2.003   5.014   2.879  0.4470 -0.1876 -0.0340
 2533SOL    HW110491   2.041   5.061   2.954 -0.7800 -0.2993  0.6911
 2533SOL    HW210492   2.016   5.072   2.805 -1.6273  1.7039  0.9524
 2534SOL     OW10493   2.343   3.233   3.763  0.5725  0.1832  0.0628
 2534SOL    HW110494   2.382   3.207   3.846  1.3446  0.4001 -0.2270
 2534SOL    HW210495   2.413   3.222   3.699 -0.7953 -2.8670 -1.1198
 2535SOL     OW10496   1.171   3.778   0.441 -0.0996 -0.4152 -0.1643
 2535SOL    HW110497   1.165   3.840   0.368 -0.9674  0.2242  0.4340
 2535SOL    HW210498   1.229   3.819   0.504 -1.7666  0.4914  0.8603
 2536SOL     OW10499   9.195   8.906   1.925  0.1180  0.0652  0.5585
 2536SOL    HW110500   9.199   8.943   2.014 -1.7638  0.5410  0.4828
 2536SOL    HW210501   9.102   8.901   1.905  0.4593  2.2908 -2.3304
 2537SOL     OW10502   6.298   0.842   0.741 -0.2556  0.2305 -0.2749
 2537SOL    HW110503   6.360   0.772   0.760 -1.4933 -1.0341 -0.7138
 2537SOL    HW210504   6.337   0.891   0.668 -0.2556 -1.2067 -1.2727
 2538SOL     OW10505   4.327   4.604   8.489  0.3567 -0.4295 -0.2072
 2538SOL    HW110506   4.278   4.677   8.454 -0.0350 -1.2668 -1.4560
 2538SOL    HW210507   4.342   4.627   8.581 -0.5381  0.7815 -0.3465
 2539SOL     OW10508   8.801   2.320   4.420 -0.2949 -0.0358  0.2836
 2539SOL    HW110509   8.823   2.320   4.513  1.2539 -0.5321 -0.0493
 2539SOL    HW210510   8.813   2.229   4.393  3.6370  0.7234 -1.2776
 2540SOL     OW10511   8.168   1.705   8.688  0.0339 -0.4738  0.4167
 2540SOL    HW110512   8.250   1.751   8.707 -0.2471 -0.5428  2.0176
 2540SOL    HW210513   8.192   1.613   8.681  0.0515 -0.5789  1.5362
 2541SOL     OW10514   3.561   7.233   8.728  0.5010  0.1299  0.4586
 2541SOL    HW110515   3.580   7.176   8.653 -1.2520  1.6962 -1.2739
 2541SOL    HW210516   3.645   7.274   8.749  0.9364 -0.0265 -0.9205
 2542SOL     OW10517   3.397   3.559   5.601 -0.1121 -0.3083 -0.3775
 2542SOL    HW110518   3.427   3.470   5.582 -2.5957 -1.0049 -1.3956
 2542SOL    HW210519   3.439   3.612   5.533 -0.2307 -1.0455 -1.0517
 2543SOL     OW10520   5.740   3.179   9.157  0.1931  0.2421 -0.0472
 2543SOL    HW110521   5.680   3.232   9.104  0.6196  0.0112 -0.7762
 2543SOL    HW210522   5.686   3.105   9.186 -0.1147  0.5046  0.0574
 2544SOL     OW10523   1.873   7.277   3.144 -0.2698 -0.4397 -0.1836
 2544SOL    HW110524   1.957   7.323   3.146  0.0220 -0.8921 -1.4074
 2544SOL    HW210525   1.846   7.279   3.052 -0.7387 -1.8234 -0.1037
 2545SOL     OW10526   2.559   4.658   7.118 -0.4772  0.0021  0.1728
 2545SOL    HW110527   2.562   4.593   7.189  1.2432 -1.5127 -1.1764
 2545SOL    HW210528   2.599   4.736   7.155 -1.8189  0.0758  1.5744
 2546SOL     OW10529   8.116   7.754   7.744 -0.0689  0.3041  0.2142
 2546SOL    HW110530   8.187   7.792   7.796 -1.4385  1.5526  1.2655
 2546SOL    HW210531   8.087   7.825   7.687  0.4663 -0.6340 -1.2815
 2547SOL     OW10532   2.326   3.832   1.605  0.2603 -0.1363  0.0912
 2547SOL    HW110533   2.401   3.780   1.576 -0.5535 -0.3486 -1.8494
 2547SOL    HW210534   2.319   3.902   1.539 -0.9387  0.1521  0.4930
 2548SOL     OW10535   4.602   4.640   7.377  0.0992  0.2204  0.4686
 2548SOL    HW110536   4.651   4.710   7.335 -0.0010  0.1248  0.1937
 2548SOL    HW210537   4.664   4.567   7.385 -0.0199  0.0698  0.0434
 2549SOL     OW10538   2.277   6.896   6.617 -0.6275 -0.4886 -0.4640
 2549SOL    HW110539   2.208   6.852   6.667 -1.0983  1.6974  0.9376
 2549SOL    HW210540   2.241   6.906   6.529 -0.9002 -1.9233 -0.5372
 2550SOL     OW10541   2.138   1.151   6.518 -0.1033  0.4826 -0.3824
 2550SOL    HW110542   2.130   1.243   6.540  0.3273  0.4471 -0.0669
 2550SOL    HW210543   2.095   1.105   6.591  1.3023  0.3664  0.4151
 2551SOL     OW10544   2.769   3.279   3.315 -0.2242 -0.6293  0.0874
 2551SOL    HW110545   2.832   3.216   3.280  0.9711  1.5422 -1.9248
 2551SOL    HW210546   2.688   3.229   3.324  0.7301 -2.5175 -1.1137
 2552SOL     OW10547   5.595   4.428   5.898  0.1088 -0.5937 -0.3424
 2552SOL    HW110548   5.618   4.446   5.807 -1.1586  0.1540 -0.5368
 2552SOL    HW210549   5.663   4.368   5.929 -0.5187 -2.4883 -2.3699
 2553SOL     OW10550   7.844   6.939   5.450 -0.2256  0.7465  0.2091
 2553SOL    HW110551   7.757   6.931   5.490 -0.7253  0.5508 -0.8830
 2553SOL    HW210552   7.832   7.006   5.382  0.1197 -0.2601 -0.8667
 2554SOL     OW10553   0.222   5.203   1.545  0.0747 -0.0913 -0.1059
 2554SOL    HW110554   0.149   5.263   1.561  0.0597  0.5029 -2.1775
 2554SOL    HW210555   0.279   5.214   1.621 -0.1914  2.1954 -0.1643
 2555SOL     OW10556   8.362   4.919   6.189 -0.0543 -0.8259  0.0296
 2555SOL    HW110557   8.382   4.904   6.096  0.8874 -0.6880  0.2006
 2555SOL    HW210558   8.298   4.990   6.189  1.6653  0.8068 -0.4415
 2556SOL     OW10559   4.019   8.300   0.037  0.3252  0.0465 -0.0988
 2556SOL    HW110560   4.000   8.394   0.039 -0.4020 -0.0764 -0.7156
 2556SOL    HW210561   4.012   8.272   0.129 -0.0680  0.4794  0.0059
 2557SOL     OW10562   4.293   1.237   2.898  0.4455  0.1296  0.6018
 2557SOL    HW110563   4.347   1.241   2.819  1.5110  0.8791  1.3433
 2557SOL    HW210564   4.258   1.148   2.899 -1.2377  0.6533 -1.7614
 2558SOL     OW10565   3.324   0.065   0.694  0.0939 -0.1116  0.3245
 2558SOL    HW110566   3.408   0.023   0.678  0.0047 -0.9443  1.7801
 2558SOL    HW210567   3.286   0.015   0.766 -1.4159  0.5797  0.0538
 2559SOL     OW10568   1.069   7.391   3.510 -0.8913 -0.4366  0.0803
 2559SOL    HW110569   1.034   7.457   3.450  0.6757  0.3118 -0.0678
 2559SOL    HW210570   1.087   7.315   3.454 -0.7450 -0.2394 -0.1425
 2560SOL     OW10571   7.302   6.711   3.715 -0.1696 -0.3264  0.7047
 2560SOL    HW110572   7.335   6.763   3.788 -0.7221 -0.5018  1.0854
 2560SOL    HW210573   7.348   6.746   3.638  0.3569 -0.0886  1.1189
 2561SOL     OW10574   3.250   6.992   2.047 -0.4405 -0.0353  0.4458
 2561SOL    HW110575   3.187   6.978   1.976 -1.2737  3.0280  0.4544
 2561SOL    HW210576   3.232   6.921   2.109 -1.5976 -1.1490 -1.0745
 2562SOL     OW10577   6.733   4.821   6.948  0.0038  0.2826 -0.6839
 2562SOL    HW110578   6.638   4.820   6.945  0.0101  0.2183 -0.8297
 2562SOL    HW210579   6.754   4.845   7.039 -0.1558  1.0264 -0.8399
 2563SOL     OW10580   5.802   2.051   3.904 -0.1337 -0.0764 -0.0172
 2563SOL    HW110581   5.885   2.043   3.950 -0.7690  0.3439  1.2768
 2563SOL    HW210582   5.740   2.079   3.972 -1.1948  0.2440 -1.0772
 2564SOL     OW10583   4.538   0.519   4.556 -0.0012 -0.0207 -0.0023
 2564SOL    HW110584   4.627   0.527   4.590  0.4586 -1.8392 -0.6415
 2564SOL    HW210585   4.485   0.575   4.613  1.6127  1.4955  0.0776
 2565SOL     OW10586   0.216   3.479   4.461 -0.0542 -0.1327 -0.1621
 2565SOL    HW110587   0.245   3.400   4.415  0.1578  0.0500 -0.3450
 2565SOL    HW210588   0.135   3.453   4.504  0.8107 -0.8876  1.0672
 2566SOL     OW10589   7.802   7.273   2.622 -0.4099  0.1208 -0.7221
 2566SOL    HW110590   7.725   7.228   2.586 -0.0454  0.0636 -1.4640
 2566SOL    HW210591   7.863   7.276   2.549 -0.2220  1.3630 -0.5384
 2567SOL     OW10592   4.922   4.639   4.971  0.7950  0.0441 -0.1303
 2567SOL    HW110593   4.944   4.547   4.984  2.8235  0.7155  1.7314
 2567SOL    HW210594   4.906   4.673   5.059 -1.1667  1.2442 -0.8678
 2568SOL     OW10595   6.062   2.975   4.805 -0.4098  0.6125  0.3309
 2568SOL    HW110596   6.071   3.001   4.897 -1.3993  0.2123  0.5551
 2568SOL    HW210597   5.974   3.003   4.782 -0.8608 -0.9644  0.0585
 2569SOL     OW10598   0.103   5.382   1.904 -0.1289 -0.1352 -0.4077
 2569SOL    HW110599   0.022   5.431   1.891 -0.0885  0.0344 -0.0263
 2569SOL    HW210600   0.170   5.435   1.862 -0.3930 -0.8770 -1.8166
 2570SOL     OW10601   8.252   3.610   0.751  0.3916  0.2078  0.1515
 2570SOL    HW110602   8.200   3.544   0.705  1.2011 -1.1531  1.1204
 2570SOL    HW210603   8.294   3.660   0.681 -1.1464  0.4932 -0.6274
 2571SOL     OW10604   8.524   3.601   6.654 -0.0402 -0.3339  0.4646
 2571SOL    HW110605   8.438   3.625   6.690 -1.1769 -1.9202 -1.0010
 2571SOL    HW210606   8.577   3.579   6.730 -0.7065  1.3230  1.4473
 2572SOL     OW10607   1.794   7.601   2.329 -0.5476  0.8520  0.0720
 2572SOL    HW110608   1.823   7.685   2.366 -0.8599  0.9704  0.0515
 2572SOL    HW210609   1.779   7.620   2.237  1.6035  0.2237 -0.4647
 2573SOL     OW10610   3.278   3.664   0.247 -0.0542  0.1021 -0.0748
 2573SOL    HW110611   3.262   3.756   0.223 -0.4995 -0.3995 -1.9211
 2573SOL    HW210612   3.191   3.626   0.255  0.1137  0.0251  1.5823
 2574SOL     OW10613   1.553   6.738   5.336 -0.9331 -0.3632  0.3127
 2574SOL    HW110614   1.619   6.782   5.390 -1.3342  1.0891 -0.3258
 2574SOL    HW210615   1.532   6.657   5.384  0.0777 -0.0289  1.3626
 2575SOL     OW10616   4.273   5.390   3.350  0.2386  0.5550 -0.0551
 2575SOL    HW110617   4.261   5.323   3.417 -1.4083  0.9163  0.0536
 2575SOL    HW210618   4.291   5.341   3.269 -1.3095 -0.0628 -0.0537
 2576SOL     OW10619   3.074   3.167   7.077  0.0811  0.4083  0.1322
 2576SOL    HW110620   3.046   3.218   7.001  0.6377  0.5464  0.0150
 2576SOL    HW210621   3.024   3.086   7.072 -0.5960  0.8179  0.1581
 2577SOL     OW10622   5.648   1.111   2.326  0.0036  0.1946 -0.2404
 2577SOL    HW110623   5.685   1.024   2.335 -1.1391 -0.1398  1.8267
 2577SOL    HW210624   5.697   1.151   2.254  1.4179 -1.6783 -0.3851
 2578SOL     OW10625   4.262   2.024   3.830  0.2100 -0.1929 -0.1994
 2578SOL    HW110626   4.223   2.044   3.746  1.9544 -2.6308 -1.7210
 2578SOL    HW210627   4.266   2.108   3.876 -0.2267  1.3326 -2.7823
 2579SOL     OW10628   4.454   6.842   6.672 -0.0557 -0.7485  0.2327
 2579SOL    HW110629   4.527   6.790   6.705  0.1624  0.3236  1.4929
 2579SOL    HW210630   4.495   6.923   6.639 -0.6834  0.0193  1.2858
 2580SOL     OW10631   5.102   3.530   0.894 -0.1910 -0.7167 -0.6221
 2580SOL    HW110632   5.151   3.452   0.918  0.1622 -0.5001 -0.6369
 2580SOL    HW210633   5.142   3.560   0.812  0.8985  0.5308  0.3301
 2581SOL     OW10634   1.980   3.814   0.330 -0.5581  0.0502 -0.3305
 2581SOL    HW110635   2.002   3.904   0.304 -1.4368 -0.1328 -1.8065
 2581SOL    HW210636   2.064   3.768   0.329 -0.3690  0.3973 -1.5354
 2582SOL     OW10637   4.435   7.132   7.069 -0.0829 -0.3236 -0.4108
 2582SOL    HW110638   4.427   7.129   7.164 -0.0345 -1.6603 -0.4432
 2582SOL    HW210639   4.489   7.210   7.053 -0.6870  0.3274  0.6032
 2583SOL     OW10640   7.728   1.097   7.364  0.2599 -0.3719 -0.4090
 2583SOL    HW110641   7.795   1.066   7.303 -0.2832 -1.9712 -0.2176
 2583SOL    HW210642   7.759   1.067   7.450 -1.4692 -2.5918 -0.4878
 2584SOL     OW10643   0.836   7.829   4.226 -0.0433  0.0060 -0.2329
 2584SOL    HW110644   0.897   7.793   4.291  1.2741 -1.2810 -2.0732
 2584SOL    HW210645   0.761   7.769   4.228 -0.1905  0.2055  0.3747
 2585SOL     OW10646   8.192   0.827   4.778  0.0730  0.0242 -0.2585
 2585SOL    HW110647   8.113   0.778   4.758 -1.2043  1.5568  0.7669
 2585SOL    HW210648   8.220   0.863   4.694 -1.0679  0.4908 -0.4575
 2586SOL     OW10649   7.002   0.946   2.426  0.1141  0.1159  0.5074
 2586SOL    HW110650   7.049   0.867   2.450 -0.5688 -0.2964  0.5246
 2586SOL    HW210651   6.920   0.941   2.476  0.0029  0.7564  0.3938
 2587SOL     OW10652   4.233   9.044   6.600 -0.2839 -0.6201 -0.1341
 2587SOL    HW110653   4.318   9.043   6.556  0.3083 -0.5400  0.9730
 2587SOL    HW210654   4.179   9.102   6.546  0.3241 -0.7762 -0.9209
 2588SOL     OW10655   7.223   7.298   1.479  0.5996  0.3527 -0.4549
 2588SOL    HW110656   7.179   7.354   1.415 -0.4585 -1.3303 -1.2542
 2588SOL    HW210657   7.295   7.258   1.430  0.8847  0.4164 -0.0930
 2589SOL     OW10658   3.059   0.429   0.323  0.2038  0.1886  0.5429
 2589SOL    HW110659   3.135   0.377   0.350  0.2733 -1.0271 -1.7633
 2589SOL    HW210660   3.097   0.512   0.293  0.2469  0.9703  2.5846
 2590SOL     OW10661   5.762   0.128   4.530 -0.1127 -0.2507  0.5944
 2590SOL    HW110662   5.682   0.159   4.571 -0.0434 -0.7901  1.1456
 2590SOL    HW210663   5.783   0.195   4.464 -0.6644  0.2071  0.8800
 2591SOL     OW10664   4.149   2.848   0.568 -0.5885  0.8293 -0.3668
 2591SOL    HW110665   4.239   2.833   0.538  0.2547  1.0330  1.8930
 2591SOL    HW210666   4.158   2.907   0.643 -2.3485 -1.2374  1.5920
 2592SOL     OW10667   9.056   7.656   3.893  0.5304 -0.0959 -0.1293
 2592SOL    HW110668   9.054   7.615   3.980  1.0860  1.2894  0.5743
 2592SOL    HW210669   9.123   7.608   3.845  1.5168  0.2580  0.8457
 2593SOL     OW10670   8.664   8.831   1.942 -1.0305 -0.1742  0.2446
 2593SOL    HW110671   8.618   8.886   2.006  1.8810  1.9491  0.7086
 2593SOL    HW210672   8.601   8.762   1.921 -3.4232  1.0455  2.6963
 2594SOL     OW10673   9.130   8.081   6.052 -0.5152 -0.4457  0.2337
 2594SOL    HW110674   9.056   8.137   6.074 -0.7862 -0.8479  0.3450
 2594SOL    HW210675   9.115   8.055   5.961  0.9885  1.8273 -0.7476
 2595SOL     OW10676   1.875   6.906   6.528 -0.1295 -0.1214 -0.0119
 2595SOL    HW110677   1.908   6.958   6.454  0.8517  0.9501  1.1338
 2595SOL    HW210678   1.809   6.962   6.569  1.8117  0.8694  1.9813
 2596SOL     OW10679   5.714   4.425   6.528  0.3862 -0.5152  0.5592
 2596SOL    HW110680   5.661   4.345   6.519  0.2382 -0.7270  2.7975
 2596SOL    HW210681   5.666   4.478   6.591  0.3451  1.5230 -1.0932
 2597SOL     OW10682   5.074   1.126   9.133 -0.1325 -0.1649  0.0245
 2597SOL    HW110683   5.058   1.065   9.061 -1.5958 -0.1463  0.3042
 2597SOL    HW210684   5.147   1.088   9.181  1.3307  0.1693 -1.8292
 2598SOL     OW10685   2.436   5.697   2.520  0.0467 -0.6830  0.4136
 2598SOL    HW110686   2.525   5.728   2.506  0.0109 -1.0847 -0.8885
 2598SOL    HW210687   2.388   5.773   2.552  0.6439 -0.2046  0.1853
 2599SOL     OW10688   2.856   4.918   2.276 -0.2058 -0.1473  0.0175
 2599SOL    HW110689   2.896   4.921   2.363 -0.6054 -0.5460  0.2175
 2599SOL    HW210690   2.918   4.964   2.220  0.4631 -0.6044  0.3598
 2600SOL     OW10691   2.215   8.713   0.183 -0.0152 -0.2753  0.1313
 2600SOL    HW110692   2.211   8.806   0.208 -0.0609 -0.6484  1.6268
 2600SOL    HW210693   2.153   8.705   0.110 -0.2803  0.8013  0.2141
 2601SOL     OW10694   4.872   4.189   5.270  0.0180  0.2200  0.4127
 2601SOL    HW110695   4.949   4.133   5.279  0.1392  0.4851  1.0737
 2601SOL    HW210696   4.824   4.177   5.352 -0.7342 -0.0672 -0.0617
 2602SOL     OW10697   3.138   4.955   7.985 -0.7223 -0.1485  0.2323
 2602SOL    HW110698   3.058   4.969   8.036  0.1303 -0.2514  1.6637
 2602SOL    HW210699   3.128   4.867   7.949 -1.4997  0.0606 -0.0918
 2603SOL     OW10700   6.806   5.386   9.110 -0.4686 -0.2515  0.8216
 2603SOL    HW110701   6.756   5.468   9.109 -0.0825 -0.0159  0.6627
 2603SOL    HW210702   6.793   5.351   9.198 -0.1996  0.2494  1.0625
 2604SOL     OW10703   6.069   8.007   3.943 -0.3264  0.2989  0.0943
 2604SOL    HW110704   5.998   8.041   3.998  0.8762 -0.2823  2.1242
 2604SOL    HW210705   6.065   7.912   3.955  0.4130  0.2209 -0.2440
 2605SOL     OW10706   0.230   5.368   5.190  0.3059  0.1496  0.4144
 2605SOL    HW110707   0.286   5.384   5.265 -1.8163  0.8665  1.9602
 2605SOL    HW210708   0.240   5.446   5.135  0.6561  0.3667  0.7889
 2606SOL     OW10709   3.660   6.423   4.532  0.0355 -0.0253  0.0839
 2606SOL    HW110710   3.752   6.436   4.557  0.3742  0.4990 -1.3645
 2606SOL    HW210711   3.657   6.446   4.439 -1.5105 -0.3273  0.0421
 2607SOL     OW10712   7.129   9.029   4.110  0.0552 -0.1801  0.0484
 2607SOL    HW110713   7.099   9.112   4.145  1.8786  0.2133  0.7612
 2607SOL    HW210714   7.091   8.963   4.169  0.4205  0.2821  0.8149
 2608SOL     OW10715   8.354   2.653   7.076  0.3316  0.3384  0.2594
 2608SOL    HW110716   8.338   2.745   7.096 -1.4521  0.4617 -1.3948
 2608SOL    HW210717   8.274   2.624   7.032  0.6381 -2.1700  1.1876
 2609SOL     OW10718   5.677   0.372   4.794 -0.5305  0.3051  0.5297
 2609SOL    HW110719   5.723   0.428   4.732  1.1241  0.3822  1.7496
 2609SOL    HW210720   5.631   0.433   4.852 -2.1364  0.2308 -0.6345
 2610SOL     OW10721   4.676   5.326   9.156 -0.1149 -0.2611 -0.1775
 2610SOL    HW110722   4.590   5.346   9.192  1.0430  2.8045  1.1889
 2610SOL    HW210723   4.678   5.369   9.071  0.6379  1.2671  0.5789
 2611SOL     OW10724   5.016   8.334   0.197 -0.7328  0.2980  0.1553
 2611SOL    HW110725   5.082   8.331   0.267 -1.5995  0.3519  1.0035
 2611SOL    HW210726   4.964   8.411   0.217 -0.5134  0.7767 -1.0304
 2612SOL     OW10727   0.421   1.469   3.532 -0.8072 -0.3485 -0.3611
 2612SOL    HW110728   0.361   1.505   3.466  0.7566  2.6879 -0.2995
 2612SOL    HW210729   0.390   1.507   3.615  0.9408  1.0735 -0.2964
 2613SOL     OW10730   3.278   1.954   9.187 -0.3232  1.0700 -0.2447
 2613SOL    HW110731   3.361   1.998   9.170  0.1410 -0.4361 -2.2227
 2613SOL    HW210732   3.212   2.022   9.172  0.4786  1.9030 -0.1135
 2614SOL     OW10733   2.387   6.015   0.724  0.0017  0.2859 -0.0337
 2614SOL    HW110734   2.417   5.924   0.735 -2.4594 -0.5684  0.4326
 2614SOL    HW210735   2.467   6.067   0.727  1.3013 -1.4854  3.8452
 2615SOL     OW10736   5.267   5.052   5.514  0.2785 -0.3059 -0.4723
 2615SOL    HW110737   5.253   5.086   5.602  0.4441 -1.1568 -0.0981
 2615SOL    HW210738   5.262   5.128   5.457  1.1380  0.4106  0.3687
 2616SOL     OW10739   3.088   5.409   1.431 -0.2581  0.0024 -0.3778
 2616SOL    HW110740   3.054   5.330   1.472 -0.7124 -0.2147 -1.1503
 2616SOL    HW210741   3.162   5.379   1.378  0.5988  0.3430  0.5847
 2617SOL     OW10742   0.653   0.516   8.069  0.9159  0.2998  0.1864
 2617SOL    HW110743   0.646   0.555   8.156  1.1915 -3.3878  2.0378
 2617SOL    HW210744   0.563   0.499   8.043  0.8681 -1.5604  1.3488
 2618SOL     OW10745   2.037   8.760   2.569  0.4954  0.4975  0.6890
 2618SOL    HW110746   2.008   8.707   2.495 -0.1023  2.0317 -0.2277
 2618SOL    HW210747   1.956   8.791   2.609  0.7887 -0.8349  2.4300
 2619SOL     OW10748   5.447   7.769   1.124 -0.2934  0.1816 -0.2882
 2619SOL    HW110749   5.478   7.806   1.207 -1.7238  1.5151 -0.2965
 2619SOL    HW210750   5.487   7.825   1.057  0.1492 -0.3442 -0.4688
 2620SOL     OW10751   4.948   3.372   1.152 -0.3372 -0.2042 -0.0834
 2620SOL    HW110752   4.975   3.309   1.084 -0.0736  1.3779 -1.4981
 2620SOL    HW210753   4.926   3.451   1.104 -1.1856  0.6348  1.6249
 2621SOL     OW10754   1.270   6.043   1.308  0.0203 -0.1375  0.0162
 2621SOL    HW110755   1.358   6.025   1.342 -0.0697 -1.8504 -0.5647
 2621SOL    HW210756   1.226   6.088   1.379  0.2592 -2.4239  1.7323
 2622SOL     OW10757   7.806   8.286   3.100  0.0213  0.0712 -0.5023
 2622SOL    HW110758   7.733   8.262   3.158  0.5120 -2.9288 -0.9279
 2622SOL    HW210759   7.790   8.234   3.020  1.2787  1.3267 -1.6109
 2623SOL     OW10760   2.823   4.623   5.214 -0.1723 -0.4444 -0.1679
 2623SOL    HW110761   2.815   4.639   5.308  0.5124 -2.2928  0.2375
 2623SOL    HW210762   2.918   4.621   5.198 -0.2763 -0.7936 -0.7707
 2624SOL     OW10763   8.324   0.229   7.061  0.4729 -0.1758 -0.6675
 2624SOL    HW110764   8.363   0.214   6.975 -0.0929  0.2497 -1.0100
 2624SOL    HW210765   8.348   0.320   7.082 -0.6523  0.2388 -1.0747
 2625SOL     OW10766   7.041   1.705   3.548 -0.2843 -0.2443 -0.8700
 2625SOL    HW110767   6.956   1.725   3.587 -1.0094 -1.5670 -1.6688
 2625SOL    HW210768   7.097   1.684   3.623 -0.3032  1.7708 -0.2492
 2626SOL     OW10769   9.173   1.321   1.469 -0.1857 -0.2253 -0.1109
 2626SOL    HW110770   9.197   1.230   1.448  0.2885  0.0591 -0.8683
 2626SOL    HW210771   9.175   1.325   1.564  2.2963 -0.4052 -0.0700
 2627SOL     OW10772   9.091   9.021   1.660  0.1217 -0.1763 -0.6901
 2627SOL    HW110773   9.159   9.023   1.727 -0.2978 -1.4679 -0.1968
 2627SOL    HW210774   9.018   9.070   1.698  0.0554 -0.5092 -0.3804
 2628SOL     OW10775   0.162   7.109   5.152  0.6490  0.0382  0.6121
 2628SOL    HW110776   0.205   7.178   5.202  1.0751  0.6105 -0.5112
 2628SOL    HW210777   0.070   7.113   5.179  0.4526  1.7728 -0.2083
 2629SOL     OW10778   7.866   0.589   4.970  0.2402 -0.6533  0.5904
 2629SOL    HW110779   7.820   0.669   4.945  0.0649 -1.0359 -0.3677
 2629SOL    HW210780   7.872   0.593   5.065 -1.8137 -0.6156  0.7547
 2630SOL     OW10781   4.625   6.364   2.074  0.1370  0.4271  0.4278
 2630SOL    HW110782   4.532   6.385   2.074  0.1083  0.3816 -0.9832
 2630SOL    HW210783   4.669   6.448   2.090 -0.0402  1.3625 -3.2335
 2631SOL     OW10784   7.911   7.192   4.043  1.3463  0.3281 -0.4869
 2631SOL    HW110785   7.975   7.121   4.049  0.1031 -0.7451  0.5824
 2631SOL    HW210786   7.895   7.218   4.133  0.7835  1.0612 -0.7914
 2632SOL     OW10787   1.515   8.467   0.525  0.0417 -0.0265  0.4813
 2632SOL    HW110788   1.578   8.513   0.469  0.6068 -0.8320  0.4422
 2632SOL    HW210789   1.460   8.417   0.465 -0.2052  0.1449  0.5618
 2633SOL     OW10790   6.032   1.919   4.652 -0.0833 -0.0763  0.4333
 2633SOL    HW110791   5.938   1.897   4.651 -0.3974  1.1559  0.7625
 2633SOL    HW210792   6.034   2.015   4.648  1.2284 -0.1428 -1.6229
 2634SOL     OW10793   6.897   1.158   0.757  0.9301 -0.2694 -0.0020
 2634SOL    HW110794   6.815   1.189   0.718  1.2371 -0.9171 -1.2277
 2634SOL    HW210795   6.962   1.169   0.688  1.5007 -1.4676  0.3159
 2635SOL     OW10796   7.956   2.851   3.753 -0.4225  0.2356  0.5688
 2635SOL    HW110797   7.885   2.806   3.799 -0.6598  2.3649  2.4095
 2635SOL    HW210798   7.914   2.923   3.707  0.0875 -0.7245 -1.5641
 2636SOL     OW10799   6.799   8.596   6.124  0.1463 -0.3690  0.1323
 2636SOL    HW110800   6.859   8.603   6.199 -0.2186  2.0634  0.2558
 2636SOL    HW210801   6.846   8.637   6.052 -1.4391  1.9188  0.3196
 2637SOL     OW10802   3.649   9.111   5.520  0.3303 -0.0798 -0.6503
 2637SOL    HW110803   3.729   9.126   5.569  0.1920  0.2143 -0.5102
 2637SOL    HW210804   3.579   9.117   5.585  0.1253  0.6151 -0.9237
 2638SOL     OW10805   7.408   4.759   4.015 -0.3466  0.2446  0.0224
 2638SOL    HW110806   7.322   4.793   4.039  0.1288  0.6381  1.2757
 2638SOL    HW210807   7.393   4.667   3.995 -0.5497 -0.8806  4.2411
 2639SOL     OW10808   0.073   7.947   2.140  0.1225 -0.1641  0.1748
 2639SOL    HW110809   0.153   7.995   2.162 -1.3991  2.3281  0.5959
 2639SOL    HW210810   0.095   7.856   2.159  3.4366  0.1309 -1.4331
 2640SOL     OW10811   5.627   0.081   5.163 -0.6765 -0.4649 -0.5129
 2640SOL    HW110812   5.617  -0.014   5.165  1.2132 -0.7287 -1.1775
 2640SOL    HW210813   5.597   0.108   5.077 -1.9366 -0.3415 -0.0472
 2641SOL     OW10814   2.041   8.483   5.535  0.3715 -0.0228  0.9206
 2641SOL    HW110815   2.011   8.426   5.606  2.2457  1.1366  2.7708
 2641SOL    HW210816   2.124   8.445   5.507  0.8654  0.9027  1.0989
 2642SOL     OW10817   6.211   2.786   4.936 -0.2915  0.3340 -0.6518
 2642SOL    HW110818   6.161   2.840   4.874 -0.9556  0.6037  0.1079
 2642SOL    HW210819   6.145   2.743   4.989  0.2193 -1.5601 -1.4830
 2643SOL     OW10820   0.034   8.902   3.624 -0.3096 -0.5079 -0.2375
 2643SOL    HW110821   0.035   8.876   3.531  2.0563  0.0038 -0.4242
 2643SOL    HW210822   0.022   8.820   3.672  0.3904 -1.0472 -0.9606
 2644SOL     OW10823   7.605   0.062   1.059  0.0495  0.4221 -0.2455
 2644SOL    HW110824   7.540   0.124   1.027 -0.8471  0.3903  1.4128
 2644SOL    HW210825   7.583  -0.021   1.018 -2.4141 -0.1309  1.9387
 2645SOL     OW10826   5.468   0.226   3.584 -0.5287 -0.3007  0.1549
 2645SOL    HW110827   5.382   0.246   3.547  0.1647  1.2607 -0.7043
 2645SOL    HW210828   5.456   0.234   3.678 -1.5153 -0.9573  0.0991
 2646SOL     OW10829   3.805   8.148   5.613 -0.1501 -0.0940 -0.1569
 2646SOL    HW110830   3.772   8.237   5.625  1.6744  0.6769 -0.6363
 2646SOL    HW210831   3.741   8.107   5.555 -1.3473  0.6787  0.5613
 2647SOL     OW10832   9.235   4.913   4.027 -0.0166 -0.3203  0.4992
 2647SOL    HW110833   9.257   4.841   4.085  1.0607 -0.9934 -0.7112
 2647SOL    HW210834   9.242   4.991   4.082  3.4307 -0.6639  0.7548
 2648SOL     OW10835   4.080   4.282   9.220  0.4045  0.1002  0.3770
 2648SOL    HW110836   4.063   4.207   9.163  0.6802 -0.4692  1.0173
 2648SOL    HW210837   4.175   4.281   9.233  0.4256  0.6433  0.2827
 2649SOL     OW10838   2.732   8.516   1.469  0.0427  0.1851 -0.0753
 2649SOL    HW110839   2.698   8.444   1.523  2.2063  1.2081  2.9272
 2649SOL    HW210840   2.825   8.495   1.458  0.1755  1.3158 -1.2847
 2650SOL     OW10841   1.207   1.129   3.453 -0.3033 -0.1482  0.1054
 2650SOL    HW110842   1.228   1.139   3.360 -1.1859 -0.4974 -0.1492
 2650SOL    HW210843   1.186   1.217   3.483 -0.5434 -0.1127 -0.1679
 2651SOL     OW10844   7.666   3.716   8.152 -0.0593  0.5263  0.1292
 2651SOL    HW110845   7.685   3.767   8.231 -1.1691  1.4376 -0.1679
 2651SOL    HW210846   7.739   3.735   8.093 -0.4145  1.7303  0.0594
 2652SOL     OW10847   8.958   6.318   8.497  0.3931 -0.1797 -0.4101
 2652SOL    HW110848   8.918   6.321   8.411 -0.8710  0.0078  0.1607
 2652SOL    HW210849   8.901   6.372   8.552  1.0948 -0.4111  0.5739
 2653SOL     OW10850   2.746   3.187   7.008 -0.0202 -0.3577  0.6599
 2653SOL    HW110851   2.660   3.147   7.012  0.9576 -2.7421 -0.6089
 2653SOL    HW210852   2.737   3.259   6.946 -1.3207  0.1090  1.3698
 2654SOL     OW10853   8.875   8.637   6.807  0.0905  0.2081  0.3020
 2654SOL    HW110854   8.936   8.614   6.877  0.0261  2.8235  1.3337
 2654SOL    HW210855   8.789   8.616   6.842  0.1307  0.4425  0.5436
 2655SOL     OW10856   7.177   1.976   1.893 -0.4937 -0.0619 -0.4801
 2655SOL    HW110857   7.185   1.939   1.981  0.1541 -0.2195 -0.6020
 2655SOL    HW210858   7.131   1.909   1.843  0.2335 -0.5078 -0.5733
 2656SOL     OW10859   7.842   3.157   3.266  0.1698  0.3432  0.7644
 2656SOL    HW110860   7.788   3.234   3.285  0.2888  0.7129 -0.3369
 2656SOL    HW210861   7.928   3.179   3.302  0.8683  1.7549 -1.5633
 2657SOL     OW10862   5.479   7.175   7.099 -0.2162  0.0020  0.3290
 2657SOL    HW110863   5.435   7.260   7.100 -1.4143 -0.5681  2.2922
 2657SOL    HW210864   5.568   7.194   7.069 -0.2790  2.0431  1.3019
 2658SOL     OW10865   4.375   5.999   4.246  0.2210  0.0875 -0.6508
 2658SOL    HW110866   4.470   6.008   4.240  0.6097 -3.0459 -0.8604
 2658SOL    HW210867   4.357   5.913   4.210 -2.6240  0.2121  0.2420
 2659SOL     OW10868   8.934   8.913   5.759  0.3388 -0.1416  0.3940
 2659SOL    HW110869   8.919   8.914   5.853 -0.1499 -1.0231  0.3374
 2659SOL    HW210870   8.907   8.826   5.731  1.7687 -0.3734 -0.3614
 2660SOL     OW10871   4.487   8.648   6.905 -0.3070  0.8339  0.1599
 2660SOL    HW110872   4.465   8.585   6.974 -0.9603 -0.3798 -1.0978
 2660SOL    HW210873   4.468   8.734   6.943 -0.4810  0.2141  1.5315
 2661SOL     OW10874   0.624   2.400   4.806 -0.5334 -0.1342 -0.5653
 2661SOL    HW110875   0.718   2.397   4.788 -0.4276 -1.0245  0.0782
 2661SOL    HW210876   0.616   2.461   4.880 -0.5481  0.5032 -1.0854
 2662SOL     OW10877   5.574   3.122   2.079  0.5213  0.5786 -0.0099
 2662SOL    HW110878   5.651   3.109   2.022 -1.2096 -0.3589 -2.2952
 2662SOL    HW210879   5.514   3.174   2.026 -1.2652 -0.5063  0.8619
 2663SOL     OW10880   6.297   1.193   2.999  0.1719  0.6501  0.0641
 2663SOL    HW110881   6.204   1.177   3.019  0.3568  0.5432  0.8754
 2663SOL    HW210882   6.303   1.181   2.904 -0.6115  0.4921  0.0223
 2664SOL     OW10883   3.595   4.523   8.894  0.4214 -0.4397 -0.0722
 2664SOL    HW110884   3.679   4.547   8.933  0.5216  0.1153 -0.6029
 2664SOL    HW210885   3.566   4.603   8.849  0.5880 -1.2091 -1.6078
 2665SOL     OW10886   5.574   0.693   7.248 -0.0446  0.5167  0.0063
 2665SOL    HW110887   5.614   0.672   7.333 -0.1683 -0.7296 -0.2261
 2665SOL    HW210888   5.588   0.787   7.237 -0.2520  0.7501  1.5302
 2666SOL     OW10889   0.023   4.198   1.290  0.0951 -0.0663  0.2705
 2666SOL    HW110890   0.074   4.223   1.367 -1.2704  0.7692  0.9409
 2666SOL    HW210891   0.002   4.105   1.305 -3.9167  1.0373  3.3059
 2667SOL     OW10892   6.801   9.001   2.050  0.2415  0.5131  0.1607
 2667SOL    HW110893   6.717   8.965   2.020  0.6245  0.3184 -0.7077
 2667SOL    HW210894   6.820   9.072   1.989  0.9565  0.2243  0.0397
 2668SOL     OW10895   1.470   0.839   6.692  0.2048 -0.4012  0.4843
 2668SOL    HW110896   1.449   0.931   6.677  2.2481  0.2502  1.3704
 2668SOL    HW210897   1.391   0.803   6.734 -1.0992  0.5922 -1.0193
 2669SOL     OW10898   0.297   3.323   7.620  0.4112 -0.6679  0.3159
 2669SOL    HW110899   0.281   3.352   7.710  3.3742 -1.5784  1.2460
 2669SOL    HW210900   0.287   3.403   7.568 -0.0462  0.1813  1.6425
 2670SOL     OW10901   8.112   8.045   1.190  0.3708 -0.0826  0.0440
 2670SOL    HW110902   8.139   8.040   1.099  0.7974 -1.9057  0.2347
 2670SOL    HW210903   8.165   8.116   1.227 -0.4244  1.2731 -1.2840
 2671SOL     OW10904   1.859   8.539   4.076 -0.2398 -0.2444  0.2925
 2671SOL    HW110905   1.897   8.455   4.102 -2.0218 -1.1510  0.1719
 2671SOL    HW210906   1.853   8.533   3.980 -0.9312 -0.2500  0.3319
 2672SOL     OW10907   3.206   0.513   4.662  0.0003 -0.5269 -0.1168
 2672SOL    HW110908   3.122   0.559   4.653 -0.1418 -0.5018  1.1122
 2672SOL    HW210909   3.182   0.422   4.678  0.1796 -0.4826  0.4577
 2673SOL     OW10910   7.465   7.297   8.302 -0.3631  0.4343  0.5152
 2673SOL    HW110911   7.471   7.278   8.208 -0.9617  0.0161  0.5558
 2673SOL    HW210912   7.394   7.241   8.333  0.6417 -0.3487  1.4721
 2674SOL     OW10913   7.879   0.244   4.407 -0.1482  0.4485  0.0834
 2674SOL    HW110914   7.867   0.334   4.378  1.7987  0.9156  0.6295
 2674SOL    HW210915   7.796   0.201   4.385 -0.7106  2.0830 -1.1938
 2675SOL     OW10916   3.876   3.762   0.341  0.4782  0.2451 -0.0134
 2675SOL    HW110917   3.832   3.690   0.296  2.6715 -0.5327 -1.0183
 2675SOL    HW210918   3.804   3.819   0.370 -1.3670 -2.4309  1.0780
 2676SOL     OW10919   0.251   3.392   1.991  0.5515  0.2495  0.5713
 2676SOL    HW110920   0.319   3.341   2.034  0.6969 -1.5009 -1.6078
 2676SOL    HW210921   0.178   3.392   2.054  1.0118 -1.5526  1.1492
 2677SOL     OW10922   5.004   5.642   7.713  0.1677 -0.0779  0.3023
 2677SOL    HW110923   5.043   5.707   7.654 -0.6380  0.4747  0.3789
 2677SOL    HW210924   5.057   5.563   7.698 -0.5495 -0.2202 -1.8299
 2678SOL     OW10925   2.268   2.789   4.536 -0.4155  0.1918 -0.1222
 2678SOL    HW110926   2.233   2.857   4.593  0.0752 -1.2665  2.0442
 2678SOL    HW210927   2.363   2.791   4.551 -0.2339 -0.0000 -1.1651
 2679SOL     OW10928   4.709   7.006   7.421 -0.0442 -0.1881  0.8320
 2679SOL    HW110929   4.774   6.951   7.379 -0.7309  0.0662 -0.6078
 2679SOL    HW210930   4.745   7.023   7.508  1.6702 -0.2822  0.1794
 2680SOL     OW10931   1.992   2.429   8.742  0.3427 -0.2416 -0.2487
 2680SOL    HW110932   1.925   2.403   8.679  0.1327  0.4186 -0.3128
 2680SOL    HW210933   2.071   2.384   8.713 -0.1463 -1.3160  0.0361
 2681SOL     OW10934   4.806   2.167   0.361 -0.3573 -0.1482  0.3649
 2681SOL    HW110935   4.793   2.187   0.268 -0.4454  2.1430  0.8057
 2681SOL    HW210936   4.883   2.111   0.363 -0.9370 -1.0704 -1.1365
 2682SOL     OW10937   9.116   2.763   2.706  1.1428 -0.3801  0.4721
 2682SOL    HW110938   9.055   2.836   2.720 -0.1587 -1.2874 -0.2806
 2682SOL    HW210939   9.171   2.792   2.633 -0.3869 -0.7307 -0.8769
 2683SOL     OW10940   9.222   4.072   3.767  0.1162 -0.0713 -0.4532
 2683SOL    HW110941   9.185   4.109   3.847  1.9570 -1.0583  0.9377
 2683SOL    HW210942   9.151   4.021   3.729 -1.5809  2.4389 -0.8787
 2684SOL     OW10943   2.168   1.254   0.517 -0.4605 -0.4935 -0.3813
 2684SOL    HW110944   2.164   1.204   0.599  0.5712 -0.3269 -0.2137
 2684SOL    HW210945   2.108   1.328   0.532 -0.2955 -0.4716  0.2268
 2685SOL     OW10946   2.330   2.467   7.710 -0.8173 -0.1085 -0.5993
 2685SOL    HW110947   2.382   2.490   7.787 -2.2721 -1.1955  0.7590
 2685SOL    HW210948   2.389   2.415   7.656 -0.2018 -0.5475  0.4665
 2686SOL     OW10949   6.687   0.663   4.374  0.0701  0.0903  0.2536
 2686SOL    HW110950   6.738   0.602   4.428 -0.4296  1.4424  2.3820
 2686SOL    HW210951   6.605   0.675   4.423 -0.4698  1.2890 -0.8877
 2687SOL     OW10952   0.688   8.746   9.062  0.2599 -0.0672 -0.3782
 2687SOL    HW110953   0.727   8.774   8.979 -1.0698 -1.2967 -1.4702
 2687SOL    HW210954   0.739   8.792   9.129  0.7619  1.7195 -1.8896
 2688SOL     OW10955   5.111   9.081   3.330 -0.0233  0.2776  0.1344
 2688SOL    HW110956   5.172   9.142   3.288  1.7029 -0.8021  0.9462
 2688SOL    HW210957   5.057   9.136   3.386 -0.0791  1.3178 -0.9059
 2689SOL     OW10958   1.062   4.113   3.225 -0.0766  0.0084 -0.5171
 2689SOL    HW110959   1.020   4.074   3.303  0.4539  0.5423  0.0485
 2689SOL    HW210960   1.097   4.196   3.257 -1.3942  1.0794 -1.7584
 2690SOL     OW10961   6.708   9.028   7.577  0.4860  0.4357 -0.2012
 2690SOL    HW110962   6.655   9.001   7.502  0.1504  0.0081  0.1828
 2690SOL    HW210963   6.711   9.123   7.572  0.7537  0.3962 -0.9533
 2691SOL     OW10964   3.888   0.716   8.404  0.4611  0.3737  0.3633
 2691SOL    HW110965   3.850   0.741   8.319  1.2692 -0.8983 -0.3994
 2691SOL    HW210966   3.815   0.723   8.465 -0.7166 -0.8231 -0.8339
 2692SOL     OW10967   8.956   1.776   8.994  0.0561 -0.1760  0.5280
 2692SOL    HW110968   8.950   1.680   8.989  3.8692 -0.4979 -2.5139
 2692SOL    HW210969   8.901   1.808   8.923  0.0929 -0.2322  0.4743
 2693SOL     OW10970   1.382   0.819   3.170 -0.2380  0.1915 -0.1137
 2693SOL    HW110971   1.310   0.883   3.161  1.0465  1.5472 -1.1620
 2693SOL    HW210972   1.388   0.805   3.265 -1.5546  0.4149  0.0352
 2694SOL     OW10973   8.502   2.549   5.731  0.6108 -0.1466 -0.0416
 2694SOL    HW110974   8.464   2.636   5.723  1.6869  0.2394 -1.3401
 2694SOL    HW210975   8.450   2.495   5.671 -1.6478 -1.0431  2.5338
 2695SOL     OW10976   4.680   8.759   4.858  0.1155  0.6626 -0.3416
 2695SOL    HW110977   4.685   8.805   4.941  2.8913  2.5271 -1.3962
 2695SOL    HW210978   4.614   8.691   4.872 -1.0821  2.2418  2.6523
 2696SOL     OW10979   0.666   5.064   2.573  0.4454  0.0082  0.2932
 2696SOL    HW110980   0.753   5.057   2.534 -0.1005  0.0049 -0.9549
 2696SOL    HW210981   0.654   5.158   2.586  1.5688 -0.1010  2.7266
 2697SOL     OW10982   1.397   6.117   0.246  0.1372 -0.2266  0.2617
 2697SOL    HW110983   1.428   6.059   0.315  3.1211 -1.4166 -1.8466
 2697SOL    HW210984   1.419   6.071   0.165 -2.6519  1.3445 -1.5594
 2698SOL     OW10985   0.198   8.621   8.877  0.5110  0.1717  0.2580
 2698SOL    HW110986   0.147   8.544   8.852  0.0365  0.4833  0.2550
 2698SOL    HW210987   0.272   8.586   8.926 -0.5937 -0.1877  1.7560
 2699SOL     OW10988   5.190   7.881   0.871 -0.0075  0.1890  0.0314
 2699SOL    HW110989   5.203   7.947   0.939 -1.6839  0.4479  0.1506
 2699SOL    HW210990   5.108   7.838   0.895  0.0978 -0.6669 -1.0702
 2700SOL     OW10991   4.895   8.758   3.791  0.0280  0.1988 -0.1876
 2700SOL    HW110992   4.803   8.736   3.780 -0.2650  1.2128  0.1536
 2700SOL    HW210993   4.920   8.801   3.710 -0.2181  1.2777  0.2901
 2701SOL     OW10994   8.741   0.875   4.487 -0.4535 -0.0892  0.1744
 2701SOL    HW110995   8.648   0.870   4.507 -0.7621  1.1841 -0.8197
 2701SOL    HW210996   8.746   0.861   4.392  0.5703 -1.9839  0.4596
 2702SOL     OW10997   1.895   0.398   6.106 -0.0919  0.1675 -0.1649
 2702SOL    HW110998   1.878   0.445   6.187 -1.8719 -1.8984  0.7529
 2702SOL    HW210999   1.871   0.307   6.125 -1.9979 -0.1512 -3.4053
 2703SOL     OW11000   0.958   1.281   6.380  0.0492 -0.2403 -0.1056
 2703SOL    HW111001   0.951   1.195   6.339 -0.3283 -0.9258  1.3396
 2703SOL    HW211002   0.872   1.296   6.419  0.6000  0.0571  1.0398
 2704SOL     OW11003   0.099   6.570   0.714 -0.3895  0.5940 -0.2025
 2704SOL    HW111004   0.164   6.639   0.724 -1.1675  1.4397 -0.7714
 2704SOL    HW211005   0.051   6.594   0.635 -1.2274 -0.1326  0.0668
 2705SOL     OW11006   1.250   0.960   1.155  0.0776 -0.2953  0.5481
 2705SOL    HW111007   1.273   1.037   1.206 -1.2104 -0.5076  1.4795
 2705SOL    HW211008   1.314   0.894   1.182  1.6572  0.6097 -0.7974
 2706SOL     OW11009   7.411   8.387   0.409 -0.2981  0.2450 -0.5655
 2706SOL    HW111010   7.385   8.361   0.497  0.8623  0.6249 -0.0900
 2706SOL    HW211011   7.396   8.310   0.355 -0.3309 -0.2280  0.1106
 2707SOL     OW11012   1.237   8.887   5.832 -0.0540 -0.6915  0.3342
 2707SOL    HW111013   1.319   8.935   5.819  0.9452 -2.6009 -0.7411
 2707SOL    HW211014   1.221   8.842   5.749 -1.5049 -1.3865  0.9521
 2708SOL     OW11015   1.376   2.229   4.610 -0.2202 -0.3239  0.2279
 2708SOL    HW111016   1.438   2.255   4.678  1.1602 -0.8168 -0.7969
 2708SOL    HW211017   1.374   2.133   4.615 -0.9835 -0.3159  0.2905
 2709SOL     OW11018   0.572   1.448   2.139  0.3483  0.4632 -0.1592
 2709SOL    HW111019   0.505   1.384   2.114 -1.5306  1.5881  1.6755
 2709SOL    HW211020   0.578   1.440   2.234  3.9085 -0.5429 -0.3464
 2710SOL     OW11021   6.131   5.889   0.917  0.3591 -0.0694 -0.3778
 2710SOL    HW111022   6.165   5.827   0.853  1.7733  1.0353 -0.7577
 2710SOL    HW211023   6.067   5.942   0.868  1.2919  0.6428 -0.8493
 2711SOL     OW11024   0.834   8.005   0.558  0.5412 -0.2220 -1.0253
 2711SOL    HW111025   0.787   8.022   0.641  0.0627 -0.7422 -1.1824
 2711SOL    HW211026   0.906   7.947   0.583  0.8813  0.2742 -0.8436
 2712SOL     OW11027   7.427   0.631   1.282  0.4410 -0.2149 -0.2884
 2712SOL    HW111028   7.473   0.566   1.335  0.6103 -0.4940 -0.7692
 2712SOL    HW211029   7.457   0.615   1.193 -0.8223 -0.6099 -0.6684
 2713SOL     OW11030   8.528   4.261   3.703 -0.3597 -0.7949  0.1248
 2713SOL    HW111031   8.453   4.229   3.653 -2.0669 -0.6434  2.4015
 2713SOL    HW211032   8.534   4.354   3.681  0.9190 -1.3501 -2.0882
 2714SOL     OW11033   0.994   2.769   8.899  0.0365  0.1878 -0.2536
 2714SOL    HW111034   0.932   2.697   8.893 -0.8451  1.0143 -1.6482
 2714SOL    HW211035   0.956   2.830   8.962 -0.3359  0.4643 -0.7412
 2715SOL     OW11036   2.762   8.762   0.137 -0.1784 -0.0574  0.4231
 2715SOL    HW111037   2.681   8.793   0.096 -0.1237  0.0072  0.3618
 2715SOL    HW211038   2.831   8.814   0.094 -0.1188 -0.0008  0.5874
 2716SOL     OW11039   0.257   4.803   3.774  0.2483 -0.2748  0.3860
 2716SOL    HW111040   0.260   4.771   3.864  0.0921 -0.5317  0.3005
 2716SOL    HW211041   0.184   4.756   3.734  1.1990 -1.2479 -0.2818
 2717SOL     OW11042   5.783   0.812   4.083  0.1502  0.6401 -0.3526
 2717SOL    HW111043   5.696   0.841   4.111  0.4364  0.3350  0.9061
 2717SOL    HW211044   5.775   0.716   4.077  0.8668  0.4180  1.5756
 2718SOL     OW11045   2.933   1.376   1.919  0.4527  0.4548 -0.6105
 2718SOL    HW111046   2.983   1.318   1.861 -1.4675 -0.2199 -1.6837
 2718SOL    HW211047   2.905   1.319   1.991  0.5996  0.6386 -0.4086
 2719SOL     OW11048   8.717   2.090   6.242  0.0390  0.3170 -0.3977
 2719SOL    HW111049   8.798   2.049   6.273  0.0390 -0.6664 -1.6210
 2719SOL    HW211050   8.648   2.029   6.269 -0.2540  0.8919  0.1775
 2720SOL     OW11051   0.956   2.777   0.765 -0.0637 -0.0471 -0.2775
 2720SOL    HW111052   0.900   2.796   0.840  0.1884 -2.5975  0.6369
 2720SOL    HW211053   0.895   2.749   0.696 -0.1159 -0.1965 -0.1718
 2721SOL     OW11054   6.844   7.460   2.471  0.0878 -0.2677 -0.1189
 2721SOL    HW111055   6.863   7.554   2.476  1.2659 -0.3553 -1.8462
 2721SOL    HW211056   6.886   7.423   2.549 -0.5242  0.6337  0.6620
 2722SOL     OW11057   7.746   9.039   7.607 -0.2049 -0.3750  0.1287
 2722SOL    HW111058   7.808   8.985   7.558  0.0269 -0.5536  0.6112
 2722SOL    HW211059   7.797   9.116   7.633 -0.4516 -0.0647 -0.2943
 2723SOL     OW11060   7.034   4.486   4.080 -0.4886  0.8767  0.4282
 2723SOL    HW111061   7.126   4.461   4.089 -0.8464 -0.4857  0.4100
 2723SOL    HW211062   7.034   4.550   4.008  0.6056  1.9591  1.3304
 2724SOL     OW11063   1.842   7.299   7.827 -0.2984 -0.0590  0.4697
 2724SOL    HW111064   1.922   7.328   7.784 -0.0330  0.7610  1.4748
 2724SOL    HW211065   1.821   7.369   7.889 -1.5617 -0.4559  0.5145
 2725SOL     OW11066   1.698   6.777   1.787  0.0747 -0.3214  0.4762
 2725SOL    HW111067   1.631   6.713   1.810 -0.4747 -0.0431 -0.3305
 2725SOL    HW211068   1.722   6.817   1.871 -1.3446  0.1416  0.6813
 2726SOL     OW11069   2.384   5.586   0.551  0.5011  0.7034  0.0064
 2726SOL    HW111070   2.380   5.552   0.640  0.1935 -0.6676 -0.5144
 2726SOL    HW211071   2.448   5.658   0.556  3.1360 -1.5202  0.6341
 2727SOL     OW11072   1.614   8.579   4.316  0.0185  0.1100  0.1189
 2727SOL    HW111073   1.533   8.532   4.296 -0.8789  1.5939  0.0969
 2727SOL    HW211074   1.680   8.537   4.262 -0.8188 -0.8611 -0.1885
 2728SOL     OW11075   3.588   8.003   3.830 -0.6271  0.4966  0.1385
 2728SOL    HW111076   3.682   8.017   3.834 -0.1633 -1.2404 -2.4859
 2728SOL    HW211077   3.566   7.958   3.912  0.6207  1.5605  1.1091
 2729SOL     OW11078   3.881   5.816   6.921 -0.0986 -0.3092  0.2715
 2729SOL    HW111079   3.973   5.829   6.943  0.4504 -1.9994 -0.7812
 2729SOL    HW211080   3.843   5.904   6.920  1.8580  0.5770 -0.6728
 2730SOL     OW11081   7.150   8.498   6.754  0.0462 -0.8197 -0.1379
 2730SOL    HW111082   7.176   8.564   6.819  1.5979  2.1573 -3.4608
 2730SOL    HW211083   7.059   8.478   6.775 -0.9860  3.4918  0.3680
 2731SOL     OW11084   2.516   7.504   1.553  0.4567  0.1144 -0.3181
 2731SOL    HW111085   2.443   7.559   1.527  1.0419  1.1887  0.2681
 2731SOL    HW211086   2.491   7.416   1.524  0.3538  0.9661 -3.0106
 2732SOL     OW11087   8.599   5.966   5.547  0.2492 -0.3375 -0.2912
 2732SOL    HW111088   8.683   5.921   5.538  0.8182  0.8307 -1.0755
 2732SOL    HW211089   8.604   6.040   5.487 -1.2837 -0.1357 -0.2274
 2733SOL     OW11090   8.272   8.605   7.923  0.2556 -0.5923 -0.0395
 2733SOL    HW111091   8.286   8.518   7.886 -2.4031 -0.8899 -0.5533
 2733SOL    HW211092   8.215   8.590   7.998 -0.0644  0.7012 -0.0060
 2734SOL     OW11093   8.878   0.692   8.147 -0.2307  0.0508  0.0537
 2734SOL    HW111094   8.917   0.764   8.098 -1.4814  0.4048 -0.4555
 2734SOL    HW211095   8.926   0.614   8.117 -0.2969  0.3905 -0.9892
 2735SOL     OW11096   7.003   7.441   5.123 -0.0335  0.2834 -0.0552
 2735SOL    HW111097   6.973   7.490   5.199  2.9744  0.9684  0.8178
 2735SOL    HW211098   6.959   7.356   5.131  1.7956 -0.5028  3.7613
 2736SOL     OW11099   7.924   6.601   7.936  0.2049  0.1533 -0.1963
 2736SOL    HW111100   7.990   6.650   7.887  0.4084 -1.9351 -2.1894
 2736SOL    HW211101   7.968   6.573   8.016  1.5456 -0.5507 -1.1337
 2737SOL     OW11102   9.209   2.553   6.097 -0.8375 -0.4967  0.5451
 2737SOL    HW111103   9.223   2.462   6.122  0.6469 -0.6951 -0.8146
 2737SOL    HW211104   9.186   2.549   6.004  1.8145  0.5896 -0.2479
 2738SOL     OW11105   7.558   7.898   7.747 -0.2295  0.3333 -0.1922
 2738SOL    HW111106   7.522   7.987   7.746  0.0642  0.4600  0.3098
 2738SOL    HW211107   7.596   7.888   7.834 -0.4674 -0.3704 -0.1635
 2739SOL     OW11108   4.113   1.980   5.914 -0.7885  0.0480 -0.6233
 2739SOL    HW111109   4.147   1.928   5.841 -1.1825 -1.4599  0.2047
 2739SOL    HW211110   4.050   1.922   5.956 -0.5272  0.8480  0.9454
 2740SOL     OW11111   3.965   0.384   4.716 -0.2334  0.0998 -0.2735
 2740SOL    HW111112   3.908   0.317   4.753  1.7952 -1.7950 -0.3973
 2740SOL    HW211113   3.929   0.400   4.628 -1.8649  0.6498  0.4531
 2741SOL     OW11114   2.471   6.796   5.628  0.4972 -0.2363 -0.8608
 2741SOL    HW111115   2.553   6.768   5.668  0.8931  0.6123 -1.0425
 2741SOL    HW211116   2.480   6.774   5.536  0.6515  0.1169 -0.9340
 2742SOL     OW11117   8.473   8.953   2.102 -0.1723  0.3352  0.2971
 2742SOL    HW111118   8.406   8.915   2.046  1.8515 -3.2204 -0.0261
 2742SOL    HW211119   8.491   8.885   2.167  4.5912 -0.0622 -1.0409
 2743SOL     OW11120   4.098   0.087   6.023 -0.2932  0.1875  0.0826
 2743SOL    HW111121   4.014   0.055   5.991  0.4747 -0.3391 -1.5310
 2743SOL    HW211122   4.101   0.061   6.115 -0.9922 -1.7075 -0.3801
 2744SOL     OW11123   6.624   3.084   6.858 -0.0139  0.0761  0.1501
 2744SOL    HW111124   6.553   3.134   6.897 -1.7842  0.3980 -3.1352
 2744SOL    HW211125   6.693   3.148   6.843 -0.3216  0.4746  0.4158
 2745SOL     OW11126   5.369   7.197   5.826 -0.5072  0.2342  0.0097
 2745SOL    HW111127   5.428   7.272   5.814  0.9303 -0.8549 -0.0412
 2745SOL    HW211128   5.320   7.218   5.905 -0.1401  1.2262 -0.0052
 2746SOL     OW11129   6.303   5.049   1.958  0.6869  0.0702 -0.0196
 2746SOL    HW111130   6.281   5.124   1.902  0.3204  0.2926  0.4116
 2746SOL    HW211131   6.356   5.087   2.028  1.4069 -0.2599 -0.3834
 2747SOL     OW11132   6.936   4.523   0.075  0.2210  0.2975 -0.5989
 2747SOL    HW111133   6.891   4.541   0.158 -1.3578 -1.0903 -1.1061
 2747SOL    HW211134   7.015   4.577   0.079 -1.4947  2.9885  0.3057
 2748SOL     OW11135   7.178   1.865   2.511  0.4921 -0.0371  0.3872
 2748SOL    HW111136   7.083   1.855   2.521  0.6666 -0.1738  2.2056
 2748SOL    HW211137   7.207   1.784   2.470 -0.1162 -0.1551  0.1865
 2749SOL     OW11138   0.428   8.509   8.319 -0.1079 -0.3438  0.4418
 2749SOL    HW111139   0.453   8.487   8.409 -1.9359 -1.3023  0.7829
 2749SOL    HW211140   0.351   8.454   8.302 -0.6050  0.7974 -1.2440
 2750SOL     OW11141   0.333   1.249   2.645  0.6788 -0.2802  0.1401
 2750SOL    HW111142   0.322   1.322   2.705  1.6674  0.1300 -0.1504
 2750SOL    HW211143   0.247   1.235   2.607  0.3387  0.3031  0.6833
 2751SOL     OW11144   2.750   5.044   5.714  0.3664  0.3627  0.3065
 2751SOL    HW111145   2.818   5.035   5.648  0.9889 -1.7138  1.1317
 2751SOL    HW211146   2.731   4.954   5.741 -1.8451  0.9720  0.9785
 2752SOL     OW11147   8.257   2.237   1.414  0.1814 -0.0573 -0.1001
 2752SOL    HW111148   8.267   2.328   1.442 -2.4703  0.5644 -0.8625
 2752SOL    HW211149   8.203   2.196   1.482  0.5024 -0.7918 -0.2736
 2753SOL     OW11150   3.292   2.196   1.664 -0.4219 -0.1631  0.4541
 2753SOL    HW111151   3.370   2.141   1.661 -0.1610  0.2291 -0.2520
 2753SOL    HW211152   3.232   2.156   1.601 -1.0600 -0.8427  1.4707
 2754SOL     OW11153   9.225   8.222   6.443 -0.6316  0.0467 -0.6887
 2754SOL    HW111154   9.217   8.203   6.536 -0.1834  0.0518 -0.6482
 2754SOL    HW211155   9.197   8.313   6.434 -2.1832 -0.4013 -0.7922
 2755SOL     OW11156   5.276   8.856   1.086  0.1393  0.5037 -0.0016
 2755SOL    HW111157   5.271   8.777   1.140  1.5434 -0.8236 -1.6890
 2755SOL    HW211158   5.283   8.928   1.149  1.0971 -0.9141  1.5951
 2756SOL     OW11159   4.377   8.543   8.171  0.4047 -0.2969 -0.0939
 2756SOL    HW111160   4.317   8.582   8.107  0.7651 -0.5763 -0.6124
 2756SOL    HW211161   4.327   8.541   8.253 -0.4193 -0.8450 -0.6000
 2757SOL     OW11162   6.365   0.622   7.023  0.5306  0.0905 -0.1215
 2757SOL    HW111163   6.352   0.552   6.959 -0.2241  1.1033 -1.1078
 2757SOL    HW211164   6.293   0.683   7.007  0.5097  0.5241  1.4945
 2758SOL     OW11165   1.020   3.944   9.082 -0.3592  0.0351  0.2854
 2758SOL    HW111166   0.945   3.889   9.103 -0.3573  0.0826  0.4179
 2758SOL    HW211167   1.093   3.906   9.132  0.0556 -0.9255 -1.0059
 2759SOL     OW11168   2.674   7.032   6.680  0.2385  0.3123  0.6319
 2759SOL    HW111169   2.712   7.055   6.595  1.6308  0.1235  1.1796
 2759SOL    HW211170   2.749   7.023   6.739 -0.6527 -0.1971  1.7400
 2760SOL     OW11171   3.604   6.514   0.666  0.2905  0.3892 -0.3476
 2760SOL    HW111172   3.522   6.464   0.658 -0.8913  2.2045 -0.1089
 2760SOL    HW211173   3.596   6.560   0.749  2.0739 -0.2161  0.2045
 2761SOL     OW11174   3.063   8.195   2.962  0.7339  0.4124  0.0894
 2761SOL    HW111175   3.056   8.111   3.008  3.1284 -0.1229 -0.3507
 2761SOL    HW211176   3.157   8.206   2.948  0.4910  3.1290  0.0094
 2762SOL     OW11177   2.352   7.985   6.187 -0.3697  0.1347  0.1414
 2762SOL    HW111178   2.437   8.024   6.166 -0.1079 -0.1412  0.6689
 2762SOL    HW211179   2.289   8.040   6.141  0.1875 -0.5953 -1.5759
 2763SOL     OW11180   6.866   3.941   7.747  0.0533 -0.7661 -0.0163
 2763SOL    HW111181   6.841   3.963   7.657  2.0614  0.2149 -0.3874
 2763SOL    HW211182   6.783   3.934   7.794 -0.9913  2.1134 -1.1841
 2764SOL     OW11183   8.718   0.862   1.632 -0.0960  0.6325 -0.1902
 2764SOL    HW111184   8.756   0.938   1.676 -1.0847  1.3218 -0.4949
 2764SOL    HW211185   8.781   0.791   1.648 -0.4614  0.7848  2.5023
 2765SOL     OW11186   8.602   7.704   8.837  0.3244 -0.2800  0.1033
 2765SOL    HW111187   8.523   7.759   8.837  0.3268 -0.2208  1.7817
 2765SOL    HW211188   8.609   7.673   8.747  1.6465  4.3138 -1.7013
 2766SOL     OW11189   0.974   0.807   7.635  0.0139 -0.1065  0.4448
 2766SOL    HW111190   1.006   0.876   7.576  2.5443  0.6771  2.5093
 2766SOL    HW211191   0.881   0.827   7.647  0.3795  2.2346 -0.0377
 2767SOL     OW11192   1.703   0.923   4.058  0.2660 -0.4316  0.4110
 2767SOL    HW111193   1.743   0.980   4.124 -0.0998 -0.3640  0.5762
 2767SOL    HW211194   1.613   0.912   4.088  0.4979 -1.6131  0.7368
 2768SOL     OW11195   3.579   1.446   4.952  0.3496  0.0600  0.5854
 2768SOL    HW111196   3.654   1.490   4.991 -0.4785  0.6374  1.5956
 2768SOL    HW211197   3.603   1.353   4.953  1.7959  0.3752 -0.8687
 2769SOL     OW11198   7.433   7.289   7.936 -0.3723 -0.7954 -0.1153
 2769SOL    HW111199   7.372   7.215   7.937  0.2171 -1.2918  0.6113
 2769SOL    HW211200   7.400   7.347   7.867 -1.3029 -1.3476 -0.1513
 2770SOL     OW11201   3.891   0.825   9.101 -0.2528  0.2978 -0.2201
 2770SOL    HW111202   3.863   0.898   9.045 -1.3298  0.8719  1.0258
 2770SOL    HW211203   3.950   0.774   9.045  1.0445  2.4335 -0.9472
 2771SOL     OW11204   1.249   3.556   7.031  0.2526 -0.0862 -0.1059
 2771SOL    HW111205   1.297   3.581   7.110  2.1424 -0.1759 -1.1723
 2771SOL    HW211206   1.174   3.616   7.029 -0.3475 -0.6578  2.1764
 2772SOL     OW11207   2.171   2.800   5.034  0.6525 -0.3322  0.2098
 2772SOL    HW111208   2.185   2.841   4.948  1.7552 -2.0882 -0.4987
 2772SOL    HW211209   2.077   2.779   5.034  0.7505 -0.8692 -0.8543
 2773SOL     OW11210   3.811   1.244   4.166 -0.2237  0.2012  0.0962
 2773SOL    HW111211   3.789   1.157   4.132  0.1018 -0.5235  1.6530
 2773SOL    HW211212   3.809   1.234   4.261  1.9168  1.3424  0.3191
 2774SOL     OW11213   8.506   7.392   4.966  0.1688  0.2789  0.1833
 2774SOL    HW111214   8.457   7.401   4.885 -0.6888 -1.9265  0.3890
 2774SOL    HW211215   8.453   7.333   5.020  2.0519 -0.5389  1.2358
 2775SOL     OW11216   5.158   8.568   4.926  0.3104  0.0103  0.2971
 2775SOL    HW111217   5.208   8.627   4.869  0.5866 -0.6881 -0.1998
 2775SOL    HW211218   5.066   8.591   4.910  0.2639 -1.2782 -1.7391
 2776SOL     OW11219   0.956   7.357   5.927 -0.4107  0.5526 -0.5061
 2776SOL    HW111220   0.926   7.396   6.009 -0.7672  3.0436 -1.7345
 2776SOL    HW211221   1.035   7.308   5.950 -1.1965  0.1597  1.4962
 2777SOL     OW11222   8.548   2.578   8.985  0.8578 -0.4903 -0.1095
 2777SOL    HW111223   8.610   2.555   8.916 -0.3547 -0.0967 -1.3900
 2777SOL    HW211224   8.528   2.494   9.028  0.5787 -0.9881 -1.1691
 2778SOL     OW11225   1.837   6.624   6.845  0.1250  0.1809 -0.2892
 2778SOL    HW111226   1.754   6.643   6.800 -0.0326  1.6545  0.5298
 2778SOL    HW211227   1.820   6.544   6.894 -1.3740  1.2477  1.0544
 2779SOL     OW11228   5.778   8.912   1.119 -0.5117 -0.5012  0.0250
 2779SOL    HW111229   5.709   8.938   1.057 -0.0425  0.1477 -0.2412
 2779SOL    HW211230   5.833   8.990   1.127  1.0557 -1.4505 -0.9264
 2780SOL     OW11231   5.285   1.671   6.931 -0.0380 -0.1779  0.1363
 2780SOL    HW111232   5.298   1.764   6.951 -0.2633 -0.4467  1.6255
 2780SOL    HW211233   5.299   1.626   7.014 -0.8473 -1.3914 -0.3570
 2781SOL     OW11234   4.509   1.937   1.841  0.2192  0.4002  0.1787
 2781SOL    HW111235   4.430   1.955   1.892  1.5524 -0.7146  2.8377
 2781SOL    HW211236   4.494   1.849   1.805  0.0746  0.3485  0.3600
 2782SOL     OW11237   2.467   4.522   8.009  0.5530 -0.0645 -0.3097
 2782SOL    HW111238   2.402   4.590   7.994 -0.3130 -0.8171 -0.0857
 2782SOL    HW211239   2.443   4.451   7.950  0.3832 -0.8648  0.6786
 2783SOL     OW11240   9.179   3.896   4.562 -0.0203 -0.4316  0.2564
 2783SOL    HW111241   9.263   3.940   4.572 -0.6290  0.5570  1.2928
 2783SOL    HW211242   9.198   3.818   4.510  1.0047  1.3016 -2.1222
 2784SOL     OW11243   5.049   7.868   0.472 -0.2720  0.1854  0.4058
 2784SOL    HW111244   5.109   7.929   0.515  0.4780  0.0567 -0.4417
 2784SOL    HW211245   5.035   7.906   0.386 -1.1826  0.0555  0.4872
 2785SOL     OW11246   3.680   0.776   5.547  0.1894 -0.1155 -0.4749
 2785SOL    HW111247   3.707   0.685   5.558  1.1301 -0.1216 -2.4577
 2785SOL    HW211248   3.759   0.822   5.519 -0.5158  1.1089 -0.5494
 2786SOL     OW11249   6.209   3.494   4.608  0.0504  0.1213  0.2098
 2786SOL    HW111250   6.138   3.534   4.558  0.2479 -0.0838 -0.2372
 2786SOL    HW211251   6.288   3.538   4.577  0.3352 -0.9906 -0.6981
 2787SOL     OW11252   4.197   2.118   2.456  0.0001 -0.0546  0.4449
 2787SOL    HW111253   4.249   2.198   2.450 -1.5811  0.9654 -0.4396
 2787SOL    HW211254   4.220   2.069   2.377 -2.5182  1.8446 -1.6681
 2788SOL     OW11255   5.662   4.774   8.118  0.3791  0.1762  0.1376
 2788SOL    HW111256   5.691   4.697   8.166  1.9551 -0.5123 -1.8106
 2788SOL    HW211257   5.609   4.739   8.046  0.0438  1.0144 -0.0354
 2789SOL     OW11258   2.419   4.681   2.572  0.0518  0.1303  0.0845
 2789SOL    HW111259   2.377   4.602   2.540 -2.5847  0.7731  1.6357
 2789SOL    HW211260   2.455   4.657   2.657  0.2722  0.3038  0.0422
 2790SOL     OW11261   5.703   0.476   4.502  0.2940  0.6113  0.9520
 2790SOL    HW111262   5.772   0.438   4.448  0.1205  1.4960  0.0647
 2790SOL    HW211263   5.741   0.557   4.536 -0.6607  1.7234 -0.5119
 2791SOL     OW11264   0.481   5.888   4.411  0.5546  0.0898 -0.0970
 2791SOL    HW111265   0.493   5.847   4.325 -0.6945  0.4837 -0.4841
 2791SOL    HW211266   0.386   5.890   4.423  0.6089  1.9746  0.3491
 2792SOL     OW11267   2.535   0.165   2.111 -0.0945  0.4972 -0.1727
 2792SOL    HW111268   2.522   0.093   2.049  1.4114 -0.5230  0.6359
 2792SOL    HW211269   2.523   0.244   2.059  0.8685 -0.3290 -1.7387
 2793SOL     OW11270   9.042   6.376   2.773  0.0542 -0.4926 -0.0908
 2793SOL    HW111271   8.963   6.424   2.748  0.3071 -0.2886 -0.5117
 2793SOL    HW211272   9.073   6.421   2.851  0.1156 -0.1577 -0.3040
 2794SOL     OW11273   8.542   0.563   4.469 -0.0818 -0.2642  0.2302
 2794SOL    HW111274   8.632   0.542   4.491 -0.4314 -1.6611  0.4510
 2794SOL    HW211275   8.537   0.555   4.374  0.3265  1.1369  0.0762
 2795SOL     OW11276   5.967   7.711   8.377 -0.4130 -0.0395 -0.3713
 2795SOL    HW111277   5.941   7.794   8.416  0.3980  0.9267 -1.7667
 2795SOL    HW211278   5.962   7.647   8.448 -1.9516  1.0031  0.5136
 2796SOL     OW11279   3.122   0.631   1.308 -0.5071  0.3481 -0.2982
 2796SOL    HW111280   3.064   0.558   1.329 -0.7641  0.4030 -0.8098
 2796SOL    HW211281   3.097   0.700   1.369 -0.3880  0.0739  0.0632
 2797SOL     OW11282   5.514   6.231   0.602 -0.2771  0.4802  0.3503
 2797SOL    HW111283   5.471   6.261   0.682 -0.4154  1.5721 -0.1101
 2797SOL    HW211284   5.600   6.273   0.605  0.0983 -0.2905  0.4182
 2798SOL     OW11285   7.192   3.272   7.421  0.1201 -0.1428 -0.0580
 2798SOL    HW111286   7.167   3.209   7.353  2.0304  0.5440 -1.4728
 2798SOL    HW211287   7.232   3.218   7.489 -0.0059 -0.6462 -0.3708
 2799SOL     OW11288   2.214   6.476   0.785  0.6188 -0.0466 -0.2002
 2799SOL    HW111289   2.163   6.485   0.866 -0.7068 -2.1911 -0.7193
 2799SOL    HW211290   2.297   6.520   0.804 -0.7683  2.1162  1.2600
 2800SOL     OW11291   4.779   6.418   2.894 -0.1621 -0.3559  0.0195
 2800SOL    HW111292   4.763   6.408   2.800 -0.9923  2.3062 -0.1906
 2800SOL    HW211293   4.823   6.336   2.919  0.4556 -0.9795 -2.7438
 2801SOL     OW11294   0.546   8.885   2.166  0.0242  0.1968  0.1581
 2801SOL    HW111295   0.623   8.941   2.164  0.5425 -0.5234 -0.3378
 2801SOL    HW211296   0.472   8.946   2.174  0.5363  0.9681 -0.8437
 2802SOL     OW11297   1.649   2.142   1.200 -0.2154  0.4787 -0.4983
 2802SOL    HW111298   1.570   2.088   1.187  0.2133 -0.6704  1.3883
 2802SOL    HW211299   1.714   2.102   1.141 -0.4257  0.0849 -0.4706
 2803SOL     OW11300   5.089   3.198   0.452  0.3118 -0.0663  0.2705
 2803SOL    HW111301   5.078   3.234   0.540  0.8728 -0.1892  0.3901
 2803SOL    HW211302   5.022   3.244   0.400 -1.0883 -1.1119  1.0680
 2804SOL     OW11303   4.338   0.786   6.600 -0.4788 -0.0227 -0.5462
 2804SOL    HW111304   4.335   0.872   6.643 -1.9626 -0.8627  1.1920
 2804SOL    HW211305   4.430   0.759   6.606 -0.3310  0.6571  0.5702
 2805SOL     OW11306   0.596   0.487   0.089 -0.9522  0.4201  0.1050
 2805SOL    HW111307   0.569   0.461   0.000  0.3095  0.8065 -0.4027
 2805SOL    HW211308   0.534   0.442   0.146 -1.1079 -0.7274 -0.9215
 2806SOL     OW11309   8.174   7.682   4.977  0.1514  0.0506 -0.4940
 2806SOL    HW111310   8.162   7.634   4.895  2.5235 -0.2813 -0.7092
 2806SOL    HW211311   8.185   7.613   5.043  2.5767  0.2155 -0.6440
 2807SOL     OW11312   3.448   2.064   2.896  0.1902 -0.1895  0.2595
 2807SOL    HW111313   3.507   2.080   2.969  0.6273  0.5176 -0.2258
 2807SOL    HW211314   3.409   1.979   2.914 -0.2049  0.2611  1.6305
 2808SOL     OW11315   3.596   1.805   3.657 -0.0870  0.3901 -0.1481
 2808SOL    HW111316   3.548   1.792   3.738  1.1090 -0.3020  0.4746
 2808SOL    HW211317   3.687   1.819   3.684  0.1404  1.3649 -1.3053
 2809SOL     OW11318   4.889   5.765   5.143  0.0014 -0.3934  0.2426
 2809SOL    HW111319   4.934   5.694   5.188  1.3949 -1.3158 -2.3621
 2809SOL    HW211320   4.803   5.729   5.122 -0.6669  0.0553  2.0699
 2810SOL     OW11321   7.567   4.330   0.806 -0.0816  0.6444  0.1967
 2810SOL    HW111322   7.554   4.338   0.712 -2.3812  0.0154  0.4012
 2810SOL    HW211323   7.525   4.407   0.843  0.0729  0.4706  0.7399
 2811SOL     OW11324   8.536   1.437   4.324  0.0248 -0.2807 -0.5399
 2811SOL    HW111325   8.527   1.410   4.233 -0.2293 -1.3448 -0.2144
 2811SOL    HW211326   8.566   1.358   4.369 -1.5283 -0.2598  0.5978
 2812SOL     OW11327   1.237   1.217   6.025 -0.1211  0.0966  0.2594
 2812SOL    HW111328   1.212   1.163   5.950 -0.2457 -0.7184  0.8751
 2812SOL    HW211329   1.288   1.159   6.081 -0.7507  0.4377  1.2195
 2813SOL     OW11330   6.358   3.259   0.705  0.0283  0.4796 -0.4579
 2813SOL    HW111331   6.402   3.176   0.725 -1.9633 -1.0312 -1.8656
 2813SOL    HW211332   6.361   3.308   0.787 -0.6386 -1.9359  1.1461
 2814SOL     OW11333   4.208   5.719   1.759  0.0188 -0.2220 -0.0740
 2814SOL    HW111334   4.193   5.710   1.853  1.7074 -2.8828  0.0530
 2814SOL    HW211335   4.295   5.758   1.752 -0.2145  0.2145 -0.5367
 2815SOL     OW11336   2.229   0.526   6.386  0.2108 -0.0511 -0.2065
 2815SOL    HW111337   2.298   0.569   6.436  0.2737  0.2716 -0.5721
 2815SOL    HW211338   2.255   0.534   6.295 -0.8773  1.1099 -0.4394
 2816SOL     OW11339   7.155   5.735   7.067  0.2092 -0.4114 -0.5032
 2816SOL    HW111340   7.171   5.681   7.145  1.5652 -0.8050 -1.0252
 2816SOL    HW211341   7.231   5.719   7.011 -0.1967  0.7421 -1.4186
 2817SOL     OW11342   7.306   4.832   5.588  0.0272  0.0659  0.7582
 2817SOL    HW111343   7.381   4.774   5.574  0.7548  1.2833 -0.7520
 2817SOL    HW211344   7.336   4.918   5.557 -1.1017  1.2262  2.6584
 2818SOL     OW11345   5.794   6.320   7.833 -0.3100  0.3761 -0.2610
 2818SOL    HW111346   5.755   6.260   7.769 -0.3169  0.0957  0.0050
 2818SOL    HW211347   5.812   6.266   7.909 -0.8596  0.8268  0.2049
 2819SOL     OW11348   4.131   2.031   4.634  0.2206  0.3307  0.2357
 2819SOL    HW111349   4.209   2.015   4.580 -1.2840  0.1810 -2.0168
 2819SOL    HW211350   4.082   1.948   4.631 -1.5016  1.3431 -0.9721
 2820SOL     OW11351   2.259   1.557   9.062 -0.3823  0.1923 -0.1856
 2820SOL    HW111352   2.317   1.604   9.122 -1.7324  0.6463  0.8170
 2820SOL    HW211353   2.217   1.491   9.117 -0.5650 -0.3504 -0.9709
 2821SOL     OW11354   7.618   6.192   5.824 -0.3547 -0.1545  0.4371
 2821SOL    HW111355   7.634   6.213   5.732 -2.3995  0.9543  0.2470
 2821SOL    HW211356   7.670   6.256   5.872 -1.0900  0.8484 -0.0406
 2822SOL     OW11357   1.991   7.329   4.291  0.3855 -0.4891  0.0281
 2822SOL    HW111358   2.021   7.391   4.358 -1.2664  0.2124  0.1734
 2822SOL    HW211359   2.066   7.272   4.275  3.2091  3.4966 -2.5603
 2823SOL     OW11360   2.576   2.150   6.932 -0.1359 -0.0436 -0.5330
 2823SOL    HW111361   2.533   2.098   6.864  2.0800  0.7558 -2.7210
 2823SOL    HW211362   2.659   2.105   6.948  0.0407  0.6175  0.5010
 2824SOL     OW11363   9.205   5.550   8.954 -0.2485 -0.0187  0.2125
 2824SOL    HW111364   9.165   5.549   9.040 -0.4330 -1.5845  0.1226
 2824SOL    HW211365   9.144   5.504   8.898 -0.2821  1.2510 -0.8542
 2825SOL     OW11366   8.389   1.945   7.805 -0.3005  0.2199 -0.3559
 2825SOL    HW111367   8.376   2.039   7.800  1.4638  0.4569 -2.1782
 2825SOL    HW211368   8.340   1.917   7.882 -2.3813  2.3195 -0.8200
 2826SOL     OW11369   4.119   3.175   7.106 -0.3293 -0.3782  0.3677
 2826SOL    HW111370   4.108   3.189   7.012  1.4939 -0.1982  0.1353
 2826SOL    HW211371   4.041   3.127   7.133 -1.0344 -0.1543 -1.1632
 2827SOL     OW11372   3.126   6.621   2.923 -0.2506 -0.8853  0.0992
 2827SOL    HW111373   3.032   6.615   2.904 -0.8616  0.1808  2.4944
 2827SOL    HW211374   3.137   6.575   3.005  1.5780 -1.9844 -0.7105
 2828SOL     OW11375   7.744   1.584   4.499 -0.1908  0.1042  0.1976
 2828SOL    HW111376   7.779   1.538   4.423 -1.4412  1.3166 -1.1900
 2828SOL    HW211377   7.690   1.519   4.544  0.4989 -0.6019  0.0143
 2829SOL     OW11378   5.925   5.957   1.863 -0.6164 -0.4336 -0.1697
 2829SOL    HW111379   5.900   6.037   1.817  1.3992 -1.0071 -2.4468
 2829SOL    HW211380   6.018   5.967   1.880 -0.3835 -2.2065 -0.2786
 2830SOL     OW11381   6.892   7.610   8.755 -0.3193 -0.0808  0.1216
 2830SOL    HW111382   6.822   7.552   8.787 -1.1731  0.6381 -0.3728
 2830SOL    HW211383   6.880   7.611   8.660  0.4650 -0.0519  0.0167
 2831SOL     OW11384   4.623   1.059   9.147 -0.0602  0.0845 -0.3207
 2831SOL    HW111385   4.528   1.052   9.149 -0.1944  1.3894 -1.2562
 2831SOL    HW211386   4.654   0.969   9.163 -1.4128 -0.2287  0.7579
 2832SOL     OW11387   6.244   7.719   5.311 -0.5964 -0.0925  0.3187
 2832SOL    HW111388   6.239   7.783   5.241 -1.4094  1.4483  1.7121
 2832SOL    HW211389   6.306   7.653   5.280  3.4149  3.2677  0.2772
 2833SOL     OW11390   4.483   1.134   1.572  0.2067  0.1212 -0.1058
 2833SOL    HW111391   4.427   1.156   1.497  0.1382 -0.3656 -0.2027
 2833SOL    HW211392   4.425   1.134   1.647  0.4525  1.5901  0.1260
 2834SOL     OW11393   5.949   6.850   0.450 -0.1879 -0.4570  0.2697
 2834SOL    HW111394   6.017   6.917   0.442 -0.5836 -0.1380 -0.5412
 2834SOL    HW211395   5.867   6.899   0.448 -0.5045 -0.9832 -0.8813
 2835SOL     OW11396   3.610   2.402   3.495 -0.0776 -0.1525 -0.0994
 2835SOL    HW111397   3.553   2.325   3.503  0.8269 -0.9284 -0.9126
 2835SOL    HW211398   3.609   2.423   3.402  1.1419 -0.3083 -0.1504
 2836SOL     OW11399   3.413   6.091   5.891 -0.0006  0.3437  0.0927
 2836SOL    HW111400   3.386   6.174   5.931 -1.0657 -0.2351  0.6125
 2836SOL    HW211401   3.337   6.063   5.840  0.2994 -0.3938  0.0323
 2837SOL     OW11402   1.456   9.255   6.749  0.1851 -0.0497 -0.2403
 2837SOL    HW111403   1.486   9.330   6.697 -3.1634  0.3277 -1.8553
 2837SOL    HW211404   1.361   9.260   6.747 -0.1531 -2.9584  1.7641
 2838SOL     OW11405   5.668   1.564   4.062 -0.2216  0.5434  0.5194
 2838SOL    HW111406   5.737   1.512   4.103  0.0660 -0.7388 -1.4648
 2838SOL    HW211407   5.638   1.622   4.132  1.2112 -0.5088  2.1084
 2839SOL     OW11408   5.649   5.104   0.413  0.0796 -0.0665  0.3921
 2839SOL    HW111409   5.710   5.068   0.348 -1.4540 -1.8760 -0.1524
 2839SOL    HW211410   5.704   5.122   0.489  1.5910  0.1524 -0.6984
 2840SOL     OW11411   3.478   2.963   5.673  0.2159 -0.5472  0.3319
 2840SOL    HW111412   3.386   2.987   5.667  0.0703 -1.2065 -0.2042
 2840SOL    HW211413   3.492   2.904   5.599  0.5820 -2.0172  1.5156
 2841SOL     OW11414   8.860   4.308   6.141  0.2712 -0.0822  0.0573
 2841SOL    HW111415   8.830   4.354   6.219 -0.9193 -1.7566  0.6459
 2841SOL    HW211416   8.894   4.377   6.084 -1.7061  1.5487  0.7460
 2842SOL     OW11417   5.413   6.650   0.930  0.0701 -0.4924  0.6910
 2842SOL    HW111418   5.484   6.597   0.968 -0.2720 -3.1494 -1.9968
 2842SOL    HW211419   5.443   6.668   0.841 -1.8330 -0.0151  0.1200
 2843SOL     OW11420   7.379   3.249   8.920 -0.1692  0.2359 -0.1311
 2843SOL    HW111421   7.326   3.277   8.846 -1.1973 -1.6707 -0.1815
 2843SOL    HW211422   7.460   3.216   8.881  1.1617  3.0878 -0.0584
 2844SOL     OW11423   0.108   4.475   3.261 -0.5677  0.1750  0.1970
 2844SOL    HW111424   0.049   4.523   3.319 -1.7939 -1.6920  0.5885
 2844SOL    HW211425   0.082   4.500   3.173 -1.0418  0.3912  0.3961
 2845SOL     OW11426   4.036   8.458   6.825 -0.1013  0.0126 -0.5427
 2845SOL    HW111427   4.131   8.447   6.824  0.0601  1.2552 -2.2384
 2845SOL    HW211428   4.001   8.369   6.822  0.9572 -0.5129  1.0959
 2846SOL     OW11429   3.283   8.976   2.153 -0.3646  0.3133  0.4853
 2846SOL    HW111430   3.201   8.929   2.168 -0.3056 -0.7168 -1.8964
 2846SOL    HW211431   3.351   8.909   2.161  0.0373  0.6974  0.3472
 2847SOL     OW11432   3.308   6.860   0.695  0.1710 -0.3509 -0.0172
 2847SOL    HW111433   3.226   6.908   0.708 -1.7727 -3.7532  1.6401
 2847SOL    HW211434   3.331   6.876   0.603 -3.0570 -0.2525 -0.9190
 2848SOL     OW11435   8.052   0.154   7.662  0.2317 -0.0239 -0.2917
 2848SOL    HW111436   8.138   0.119   7.641 -0.4457 -1.9363 -0.1600
 2848SOL    HW211437   8.037   0.224   7.599  1.0917 -0.9694 -1.5830
 2849SOL     OW11438   5.574   4.133   7.519 -0.0653  0.1273 -0.2498
 2849SOL    HW111439   5.643   4.135   7.585  0.2975  0.6505 -0.6388
 2849SOL    HW211440   5.585   4.214   7.469 -1.4352  0.6002  0.1610
 2850SOL     OW11441   1.327   8.940   0.128  0.1934 -0.3360  0.1113
 2850SOL    HW111442   1.363   9.007   0.186  0.5406  0.3895 -0.9068
 2850SOL    HW211443   1.379   8.947   0.048 -0.7976 -0.7415 -0.5942
 2851SOL     OW11444   4.156   4.547   3.627  0.6552  0.0132  0.7428
 2851SOL    HW111445   4.206   4.558   3.707  0.1675 -1.6771  1.3318
 2851SOL    HW211446   4.122   4.457   3.632 -1.6381  0.7581 -0.0528
 2852SOL     OW11447   6.497   8.499   1.989  0.4155  0.2172  0.0166
 2852SOL    HW111448   6.551   8.422   1.973  1.7097  0.8256  1.1874
 2852SOL    HW211449   6.548   8.572   1.954  0.2812  0.7829  0.9413
 2853SOL     OW11450   1.027   8.960   1.572 -0.1719 -0.0458 -0.0975
 2853SOL    HW111451   0.973   9.001   1.505  1.3632  2.5891  0.1427
 2853SOL    HW211452   1.103   8.925   1.524 -0.3527 -0.5444 -0.0258
 2854SOL     OW11453   7.714   7.944   1.806  0.3365  0.0869 -0.3348
 2854SOL    HW111454   7.624   7.917   1.824  0.3601 -1.0523 -1.7895
 2854SOL    HW211455   7.725   8.025   1.857 -1.4115  0.1052  0.0715
 2855SOL     OW11456   2.601   6.819   6.071 -0.3931 -0.4292  0.2330
 2855SOL    HW111457   2.539   6.879   6.029 -0.0524  0.8304  1.4654
 2855SOL    HW211458   2.682   6.829   6.021 -0.5398 -0.3938  0.0014
 2856SOL     OW11459   2.033   7.060   6.988  0.2913  0.1348 -0.5583
 2856SOL    HW111460   1.957   7.117   6.999  0.6115  0.3857  0.5443
 2856SOL    HW211461   2.014   7.008   6.911 -0.4688  1.0247 -0.9893
 2857SOL     OW11462   6.645   2.594   7.383 -0.1370 -0.2103 -0.3890
 2857SOL    HW111463   6.688   2.592   7.469  1.4445  0.8773 -1.1096
 2857SOL    HW211464   6.666   2.509   7.344  0.9870  0.0983 -0.5140
 2858SOL     OW11465   6.409   3.006   5.564  1.3043 -0.5371 -0.0828
 2858SOL    HW111466   6.359   3.087   5.564 -1.6501 -2.1882 -1.8305
 2858SOL    HW211467   6.400   2.972   5.653 -1.5446 -1.1370 -0.4941
 2859SOL     OW11468   3.817   1.133   0.889  0.0817 -0.5160  0.5828
 2859SOL    HW111469   3.722   1.131   0.883  0.1827 -1.6126 -1.9236
 2859SOL    HW211470   3.842   1.217   0.850  0.1536  0.2623  2.2176
 2860SOL     OW11471   7.630   8.402   6.600 -0.0612  0.6989  0.2564
 2860SOL    HW111472   7.618   8.308   6.618 -0.8271  0.1219 -2.8061
 2860SOL    HW211473   7.553   8.443   6.638  0.1561  0.0836  1.4151
 2861SOL     OW11474   9.012   7.844   0.957  0.0826 -0.9147  0.0006
 2861SOL    HW111475   8.994   7.927   1.001  0.6199 -1.8664  2.1697
 2861SOL    HW211476   8.949   7.782   0.996 -0.6554 -1.4501 -1.9381
 2862SOL     OW11477   9.018   0.167   5.249 -0.3232  0.6025 -0.1330
 2862SOL    HW111478   8.970   0.249   5.263 -2.5836 -0.2086 -2.4051
 2862SOL    HW211479   8.950   0.100   5.249  1.2243 -1.0159 -0.3983
 2863SOL     OW11480   1.338   6.892   6.744 -0.6191 -0.4706  0.4740
 2863SOL    HW111481   1.342   6.985   6.722 -0.8481 -0.4575  0.4864
 2863SOL    HW211482   1.254   6.862   6.710 -0.7274 -0.5794  0.8257
 2864SOL     OW11483   4.177   7.603   5.982 -0.0088 -0.2656  0.4026
 2864SOL    HW111484   4.151   7.695   5.990  0.4299 -0.2418  2.0440
 2864SOL    HW211485   4.193   7.590   5.889 -2.2001  0.7136 -0.1623
 2865SOL     OW11486   9.031   1.824   7.155  0.3961  0.2333 -0.2137
 2865SOL    HW111487   9.012   1.893   7.217 -1.8170 -0.3209 -0.2081
 2865SOL    HW211488   8.966   1.834   7.085  1.4377 -0.4878 -1.3421
 2866SOL     OW11489   5.393   7.439   7.085 -0.1093  0.0632 -0.4578
 2866SOL    HW111490   5.440   7.451   7.167 -0.2627  0.2326 -0.3949
 2866SOL    HW211491   5.453   7.472   7.018  1.1966 -2.5870 -0.7305
 2867SOL     OW11492   5.541   0.027   0.332  0.5453 -0.5862  0.2660
 2867SOL    HW111493   5.486   0.025   0.411  0.7464 -0.4602  0.4095
 2867SOL    HW211494   5.481   0.056   0.263  1.0578  2.4228  0.9412
 2868SOL     OW11495   1.328   3.429   0.375 -0.2456  0.2821 -0.1602
 2868SOL    HW111496   1.291   3.458   0.292 -0.8545 -0.9184 -0.3285
 2868SOL    HW211497   1.418   3.461   0.374 -0.5894  1.2542 -0.7740
 2869SOL     OW11498   7.242   2.099   3.651 -0.5745  0.2350 -0.0783
 2869SOL    HW111499   7.240   2.176   3.594  1.1102 -0.5220 -1.2598
 2869SOL    HW211500   7.307   2.121   3.719  0.9950 -0.5927 -1.2289
 2870SOL     OW11501   5.322   3.740   7.017  0.0059  0.5368  0.1002
 2870SOL    HW111502   5.369   3.744   7.100  0.3799 -0.8393 -0.0171
 2870SOL    HW211503   5.243   3.792   7.032 -0.3124 -0.3038  1.5794
 2871SOL     OW11504   3.480   3.056   4.539 -0.0086 -0.0079  0.1305
 2871SOL    HW111505   3.448   3.115   4.607 -0.1648  0.6735 -0.5112
 2871SOL    HW211506   3.470   2.968   4.575  0.6289  0.3745  1.2776
 2872SOL     OW11507   7.219   8.997   3.266 -0.1216  0.0492 -0.5917
 2872SOL    HW111508   7.194   9.090   3.270  0.6995  0.3099 -1.3151
 2872SOL    HW211509   7.276   8.985   3.342 -0.6433 -0.0050 -0.1988
 2873SOL     OW11510   5.397   4.127   9.181 -0.1664 -0.1645 -0.5015
 2873SOL    HW111511   5.385   4.211   9.136  0.0589  0.3409  0.3412
 2873SOL    HW211512   5.492   4.122   9.196 -0.3145  0.0557  0.5808
 2874SOL     OW11513   6.737   6.237   0.972 -0.0839  0.6090  0.1859
 2874SOL    HW111514   6.733   6.163   1.033  4.7072  1.0212  1.3636
 2874SOL    HW211515   6.698   6.310   1.021  0.0941  0.0484  1.2004
 2875SOL     OW11516   5.033   7.580   0.475 -0.1353 -0.4768 -0.1876
 2875SOL    HW111517   5.089   7.558   0.401 -0.3162  0.1111 -0.5024
 2875SOL    HW211518   5.029   7.676   0.475 -1.4377 -0.5207 -0.3840
 2876SOL     OW11519   1.919   0.660   1.747 -0.2137 -0.3030  0.2576
 2876SOL    HW111520   1.990   0.693   1.692 -0.6783  0.2672 -0.0120
 2876SOL    HW211521   1.963   0.615   1.819  0.4085 -1.2583 -0.6788
 2877SOL     OW11522   4.822   0.955   4.925  0.1606 -0.3189 -0.2666
 2877SOL    HW111523   4.728   0.941   4.919  0.4746 -2.8918 -0.7134
 2877SOL    HW211524   4.849   0.978   4.835 -0.0113  0.1517 -0.1965
 2878SOL     OW11525   7.092   4.098   2.928  0.4626 -0.0208  0.1360
 2878SOL    HW111526   7.165   4.043   2.902  1.6380  0.7457  1.6460
 2878SOL    HW211527   7.060   4.136   2.846 -0.2575 -2.6941 -0.9217
 2879SOL     OW11528   4.949   0.640   5.224 -0.2181 -0.3310  0.5654
 2879SOL    HW111529   4.962   0.578   5.296 -0.2235  0.2719  1.1016
 2879SOL    HW211530   4.999   0.718   5.251  0.5935 -0.4466 -0.5495
 2880SOL     OW11531   3.501   3.244   2.110 -0.6062 -0.3894  0.4408
 2880SOL    HW111532   3.585   3.283   2.136 -0.9470  1.4146 -0.9706
 2880SOL    HW211533   3.472   3.197   2.188  1.2149 -0.2035  1.2966
 2881SOL     OW11534   2.733   2.414   1.182  0.0596 -0.2931 -0.3378
 2881SOL    HW111535   2.707   2.501   1.153  1.4162 -0.2198 -1.4294
 2881SOL    HW211536   2.717   2.414   1.277  1.4469  1.6858 -0.0579
 2882SOL     OW11537   0.669   7.626   4.736  0.4314  0.2964  0.1003
 2882SOL    HW111538   0.613   7.550   4.753  3.2311 -1.8201  0.5222
 2882SOL    HW211539   0.662   7.679   4.815 -1.2946  0.3763 -0.0607
 2883SOL     OW11540   4.204   3.829   2.580 -0.4820 -0.0342 -0.3468
 2883SOL    HW111541   4.236   3.876   2.503  1.5083  0.7365  0.8539
 2883SOL    HW211542   4.257   3.750   2.584 -2.1241 -1.2103 -0.9697
 2884SOL     OW11543   2.708   4.703   0.997  0.0491  0.3084 -0.9432
 2884SOL    HW111544   2.622   4.678   0.965 -0.0869  0.1422 -0.4617
 2884SOL    HW211545   2.731   4.634   1.060  0.8521 -0.0468 -1.6042
 2885SOL     OW11546   7.949   4.292   1.874  0.2440  0.5627 -0.4776
 2885SOL    HW111547   7.997   4.312   1.793  1.3675 -2.5000 -0.6990
 2885SOL    HW211548   8.013   4.308   1.944  1.3338 -2.2902 -0.6898
 2886SOL     OW11549   7.261   4.926   7.243 -0.2981 -0.0805 -0.0299
 2886SOL    HW111550   7.314   4.929   7.164  1.9928 -0.0134  1.4292
 2886SOL    HW211551   7.301   4.858   7.297 -0.6100  1.1546  1.8686
 2887SOL     OW11552   7.334   3.980   6.223  0.2495  0.4688 -0.0607
 2887SOL    HW111553   7.341   3.979   6.319  1.9274  0.7424 -0.1554
 2887SOL    HW211554   7.243   3.954   6.206 -0.0926  0.4359  1.5964
 2888SOL     OW11555   3.182   6.546   5.720 -0.0197 -0.2298  0.1737
 2888SOL    HW111556   3.228   6.553   5.636  0.6180 -3.2919  0.1263
 2888SOL    HW211557   3.244   6.580   5.785  0.5322 -0.2171 -0.3520
 2889SOL     OW11558   7.513   8.117   1.229  0.2036  0.7654  0.1001
 2889SOL    HW111559   7.507   8.021   1.233  0.9273  0.7507  2.0074
 2889SOL    HW211560   7.447   8.143   1.165  0.2473 -1.0224 -0.7213
 2890SOL     OW11561   3.362   3.703   0.954 -0.4711  0.3494  0.6132
 2890SOL    HW111562   3.365   3.711   1.049  1.6896  0.0755  0.6275
 2890SOL    HW211563   3.337   3.612   0.938  0.6159 -0.0345  0.9889
 2891SOL     OW11564   5.053   7.365   3.307 -0.3532 -0.3261 -0.0621
 2891SOL    HW111565   5.053   7.303   3.235 -1.9687  2.4766 -2.7258
 2891SOL    HW211566   5.133   7.416   3.296 -0.3949 -0.1592  0.3847
 2892SOL     OW11567   3.245   3.155   9.231 -0.1842  0.4089  0.4006
 2892SOL    HW111568   3.174   3.097   9.207  0.7131 -0.5685  0.0446
 2892SOL    HW211569   3.277   3.122   9.314 -0.1849  0.8983  0.6032
 2893SOL     OW11570   3.056   7.133   6.613 -0.2913  0.0563 -0.5783
 2893SOL    HW111571   3.089   7.215   6.650 -0.5695  0.3115 -0.8819
 2893SOL    HW211572   3.134   7.081   6.594 -0.0855  0.4807 -0.9065
 2894SOL     OW11573   3.928   5.387   3.697  0.0334  0.3970 -0.1877
 2894SOL    HW111574   3.972   5.324   3.753  0.3186  1.5062  0.8838
 2894SOL    HW211575   3.999   5.438   3.657 -0.1732 -0.2542 -1.4276
 2895SOL     OW11576   6.237   1.905   4.438 -0.2374 -0.2196  0.0531
 2895SOL    HW111577   6.192   1.844   4.381  1.2175 -2.0224  0.7328
 2895SOL    HW211578   6.208   1.882   4.527 -0.7676  1.0610  0.2370
 2896SOL     OW11579   8.962   8.023   7.925 -0.0743 -0.0567  0.3738
 2896SOL    HW111580   8.936   8.114   7.917  0.0528  0.0286  0.8755
 2896SOL    HW211581   8.955   7.987   7.836  0.8852  0.7062 -0.0336
 2897SOL     OW11582   1.448   1.677   0.375 -0.1327  0.0355 -0.4779
 2897SOL    HW111583   1.423   1.760   0.335  0.5882  0.9684  0.8830
 2897SOL    HW211584   1.458   1.698   0.468 -1.2479 -1.9032  0.1341
 2898SOL     OW11585   2.551   5.948   3.715  0.3373  0.0528  0.4654
 2898SOL    HW111586   2.473   5.958   3.660  0.2972 -1.0150  0.3123
 2898SOL    HW211587   2.624   5.957   3.654  0.3557  1.2344  0.6374
 2899SOL     OW11588   7.942   2.017   5.238 -0.0539  0.4397  0.3441
 2899SOL    HW111589   7.861   1.987   5.280 -0.5686  0.8343 -0.3312
 2899SOL    HW211590   7.960   2.102   5.277 -1.9576  2.0310 -1.9353
 2900SOL     OW11591   7.270   1.406   7.474 -0.4796 -0.5780 -0.3770
 2900SOL    HW111592   7.214   1.483   7.473  1.0610  0.6069 -0.0962
 2900SOL    HW211593   7.316   1.408   7.390  0.2035 -0.6905 -0.0132
 2901SOL     OW11594   3.234   0.145   7.953 -0.1195 -0.1978  0.1920
 2901SOL    HW111595   3.277   0.198   7.886  0.2630  1.2006  1.4954
 2901SOL    HW211596   3.282   0.062   7.952  0.7849  0.3169 -0.2961
 2902SOL     OW11597   8.005   3.324   3.057 -0.2349  0.1477 -0.2379
 2902SOL    HW111598   7.967   3.251   3.008  0.2804  0.0675 -0.5266
 2902SOL    HW211599   7.993   3.300   3.149  0.0584 -0.3748 -0.3305
 2903SOL     OW11600   4.514   3.137   4.858  0.0027 -0.1639  0.0314
 2903SOL    HW111601   4.494   3.099   4.944  0.2830 -2.1607 -0.7340
 2903SOL    HW211602   4.432   3.128   4.809  0.1232  0.0465 -0.2084
 2904SOL     OW11603   2.020   1.043   8.695 -0.1875  0.5135  0.0314
 2904SOL    HW111604   2.019   1.139   8.688  1.9381  0.4738 -1.8817
 2904SOL    HW211605   1.982   1.013   8.613 -2.3229 -0.3904  1.2553
 2905SOL     OW11606   2.115   2.473   4.933  0.1588 -0.3656 -0.3702
 2905SOL    HW111607   2.075   2.437   5.013  2.9339  0.5052  1.5718
 2905SOL    HW211608   2.043   2.516   4.888 -1.3684  0.0305  2.2148
 2906SOL     OW11609   5.010   2.878   4.160 -0.4456  0.3493  0.3110
 2906SOL    HW111610   5.055   2.794   4.151 -0.8836  0.1348  0.1188
 2906SOL    HW211611   5.074   2.934   4.204 -0.2721 -0.1799  0.7468
 2907SOL     OW11612   5.415   7.971   7.117 -0.9403 -0.2807  0.1080
 2907SOL    HW111613   5.343   7.930   7.069 -0.5982  0.1722 -0.8298
 2907SOL    HW211614   5.470   7.897   7.144 -0.7312 -0.5094 -0.8949
 2908SOL     OW11615   4.413   0.911   8.711 -0.1164  0.1817 -0.9014
 2908SOL    HW111616   4.480   0.859   8.666 -1.5122 -0.4111 -2.3877
 2908SOL    HW211617   4.375   0.850   8.774 -0.5425 -0.0820 -1.4024
 2909SOL     OW11618   3.921   1.834   4.665  0.2260 -0.1808  0.1262
 2909SOL    HW111619   3.891   1.757   4.715  0.4560 -0.0187  0.5166
 2909SOL    HW211620   3.871   1.907   4.703  0.9953  0.0690  0.6786
 2910SOL     OW11621   0.694   3.702   0.123 -0.5247  0.3826  0.2317
 2910SOL    HW111622   0.688   3.653   0.041 -1.6262  1.9387 -0.6520
 2910SOL    HW211623   0.784   3.687   0.153 -0.2484 -0.5930 -0.9996
 2911SOL     OW11624   7.484   0.770   3.316  0.1926  0.7811  0.2077
 2911SOL    HW111625   7.552   0.830   3.346 -0.1463  1.3156 -0.0784
 2911SOL    HW211626   7.501   0.760   3.222  1.4743 -1.1724  0.5793
 2912SOL     OW11627   5.699   8.426   8.495 -0.1159  0.4805  0.4269
 2912SOL    HW111628   5.619   8.376   8.478  1.1065 -1.0564 -1.3258
 2912SOL    HW211629   5.695   8.447   8.588 -1.4332 -1.6165  0.9252
 2913SOL     OW11630   4.707   8.000   8.435 -0.3212  0.4732 -0.6729
 2913SOL    HW111631   4.637   8.013   8.372 -2.0341  1.8554  1.3971
 2913SOL    HW211632   4.672   8.032   8.518  2.3643  0.1698  0.7029
 2914SOL     OW11633   7.532   4.950   3.067  0.1747 -0.1842 -0.0875
 2914SOL    HW111634   7.603   5.014   3.079  1.2388 -1.1129 -1.2386
 2914SOL    HW211635   7.559   4.898   2.992 -1.7763 -0.5352 -0.5914
 2915SOL     OW11636   0.291   0.104   2.526  0.3989  0.6622 -0.1177
 2915SOL    HW111637   0.302   0.151   2.443  1.7504 -1.3393 -1.1985
 2915SOL    HW211638   0.203   0.067   2.522  0.5875  0.2633 -0.8939
 2916SOL     OW11639   4.827   8.964   8.056  0.5284  0.8191 -0.3701
 2916SOL    HW111640   4.887   8.981   7.983 -0.3988  1.2937 -1.0361
 2916SOL    HW211641   4.864   9.013   8.129  0.2613  2.1817 -1.1227
 2917SOL     OW11642   8.869   9.070   2.863  0.4430  0.0022 -0.1580
 2917SOL    HW111643   8.942   9.132   2.865 -0.2469  0.8545  1.8480
 2917SOL    HW211644   8.910   8.984   2.862  1.5546  0.4462  1.8841
 2918SOL     OW11645   0.016   8.172   3.261  0.3030  0.1316  0.1116
 2918SOL    HW111646   0.007   8.255   3.308 -0.5201 -0.0338  0.2557
 2918SOL    HW211647  -0.071   8.132   3.266 -0.9315  1.6126 -4.4152
 2919SOL     OW11648   2.644   1.476   4.507 -0.1440 -0.1124 -0.2782
 2919SOL    HW111649   2.707   1.444   4.572  0.4075  1.9939  0.3131
 2919SOL    HW211650   2.697   1.528   4.446 -0.7389 -1.6055 -2.1543
 2920SOL     OW11651   2.326   0.564   7.979 -0.5125  0.7141  0.0595
 2920SOL    HW111652   2.393   0.520   8.030 -0.0885  0.1996 -0.9140
 2920SOL    HW211653   2.321   0.652   8.015 -1.5086 -0.1477  2.1747
 2921SOL     OW11654   8.614   2.413   2.637 -0.1966 -0.0082  0.9456
 2921SOL    HW111655   8.556   2.438   2.709 -0.5170 -0.3372  0.8084
 2921SOL    HW211656   8.572   2.336   2.599  1.8784 -2.2424  2.7991
 2922SOL     OW11657   3.959   4.624   7.448 -0.3115  0.5189  0.1888
 2922SOL    HW111658   3.952   4.615   7.353 -1.1662  0.6136  0.2338
 2922SOL    HW211659   4.022   4.695   7.461  1.1557 -0.6394 -0.2609
 2923SOL     OW11660   0.700   8.129   1.016 -0.6929  0.4499  0.1990
 2923SOL    HW111661   0.689   8.156   0.924 -0.4388 -0.3275 -0.0695
 2923SOL    HW211662   0.621   8.078   1.035  0.7490 -2.4146 -0.7351
 2924SOL     OW11663   3.362   6.161   5.506  0.6001 -0.7796 -0.6269
 2924SOL    HW111664   3.327   6.073   5.491 -0.6880 -0.1618 -1.4716
 2924SOL    HW211665   3.329   6.185   5.593  0.8162 -1.0672 -0.4642
 2925SOL     OW11666   3.874   0.423   6.917  0.0421  0.0319  0.0305
 2925SOL    HW111667   3.900   0.515   6.908  0.6713 -0.3176 -2.0396
 2925SOL    HW211668   3.954   0.373   6.901 -1.0210 -0.9560 -2.8385
 2926SOL     OW11669   5.464   0.598   8.428  0.3575 -0.1493  0.7661
 2926SOL    HW111670   5.398   0.529   8.418  0.0312  0.2231  0.3259
 2926SOL    HW211671   5.499   0.585   8.516  2.0142 -2.3913 -0.1123
 2927SOL     OW11672   2.793   4.126   7.469  0.2697 -0.3546 -0.5666
 2927SOL    HW111673   2.768   4.114   7.560 -0.8841 -2.1807 -1.0884
 2927SOL    HW211674   2.889   4.124   7.470  0.2742 -2.9110  0.3369
 2928SOL     OW11675   6.006   4.159   1.473  0.0051  0.0735 -0.2688
 2928SOL    HW111676   6.015   4.065   1.456 -1.7607 -0.6126  2.1267
 2928SOL    HW211677   5.948   4.190   1.403 -0.1145 -0.8126 -0.5733
 2929SOL     OW11678   3.764   3.610   0.162  0.5277  0.1141 -0.1131
 2929SOL    HW111679   3.675   3.581   0.182  0.3771 -0.4527 -1.5107
 2929SOL    HW211680   3.756   3.657   0.079  1.7065 -1.0216 -0.9139
 2930SOL     OW11681   3.243   2.050   4.060  0.2837  0.4407 -0.2356
 2930SOL    HW111682   3.238   2.073   3.967 -0.0316 -0.7201 -0.5196
 2930SOL    HW211683   3.316   1.989   4.066  0.0155  0.1566  0.2038
 2931SOL     OW11684   5.455   7.767   6.434 -0.2481  0.4591 -0.3250
 2931SOL    HW111685   5.404   7.794   6.357 -0.4506 -2.0659 -1.1744
 2931SOL    HW211686   5.471   7.674   6.420  1.6455  0.4245  1.6425
 2932SOL     OW11687   6.474   7.359   6.892  0.1485 -0.0969 -0.1964
 2932SOL    HW111688   6.491   7.416   6.967 -2.2005 -0.2125  0.5201
 2932SOL    HW211689   6.450   7.418   6.821 -0.0047 -0.0855 -0.1356
 2933SOL     OW11690   1.986   6.679   8.879 -0.5030 -0.1941  0.2616
 2933SOL    HW111691   2.058   6.620   8.902  0.1689  0.1114 -0.9915
 2933SOL    HW211692   1.941   6.635   8.807 -1.6408 -0.4176  1.0868
 2934SOL     OW11693   2.712   8.186   3.208  0.4256  0.0591 -0.2657
 2934SOL    HW111694   2.804   8.190   3.234  0.2233  1.1027  0.3393
 2934SOL    HW211695   2.699   8.095   3.181  0.7399 -1.1119  3.0424
 2935SOL     OW11696   4.817   0.526   6.222  0.0397 -0.3425 -0.1996
 2935SOL    HW111697   4.877   0.541   6.148  0.9708 -2.7567 -0.0225
 2935SOL    HW211698   4.859   0.571   6.295  0.9700 -0.8947 -0.3787
 2936SOL     OW11699   6.520   7.107   0.047  0.0013  0.4068 -0.1409
 2936SOL    HW111700   6.593   7.139   0.102  0.4759 -0.3656 -0.3104
 2936SOL    HW211701   6.441   7.136   0.093  0.3919 -0.1893  0.9347
 2937SOL     OW11702   0.524   7.262   3.661 -0.2980  0.2723  0.3011
 2937SOL    HW111703   0.555   7.177   3.691 -1.1263  0.5172  1.9429
 2937SOL    HW211704   0.555   7.268   3.571  1.0129 -1.1376  0.6219
 2938SOL     OW11705   3.914   5.931   6.351  0.0290  0.0835  0.2162
 2938SOL    HW111706   3.839   5.987   6.337  0.3077  0.7924  1.3533
 2938SOL    HW211707   3.895   5.886   6.433 -0.3487 -1.7832 -0.8533
 2939SOL     OW11708   0.180   8.996   7.465 -0.8701 -0.0064 -0.2214
 2939SOL    HW111709   0.088   8.981   7.446 -0.6514 -2.2161  0.1270
 2939SOL    HW211710   0.224   8.918   7.430  1.1367  1.8335 -2.0563
 2940SOL     OW11711   4.006   6.902   8.607 -0.0142  0.3401 -0.1580
 2940SOL    HW111712   3.932   6.963   8.614  0.1885  0.5504  0.1580
 2940SOL    HW211713   3.990   6.855   8.525  0.5610  1.8217 -1.1702
 2941SOL     OW11714   1.688   0.296   4.120  0.8896 -0.3036 -0.4699
 2941SOL    HW111715   1.704   0.299   4.215 -2.5286  1.0853  0.1929
 2941SOL    HW211716   1.705   0.385   4.090  0.6775 -0.4141 -0.9174
 2942SOL     OW11717   1.372   0.329   8.511 -0.4397  0.3865 -0.2746
 2942SOL    HW111718   1.440   0.277   8.469  0.7822  1.8846 -0.2104
 2942SOL    HW211719   1.356   0.285   8.595 -1.4848 -1.4769 -1.3725
 2943SOL     OW11720   6.608   4.890   0.546  0.0642  0.7340  0.5552
 2943SOL    HW111721   6.696   4.895   0.510 -0.3448  4.2152 -0.3141
 2943SOL    HW211722   6.551   4.886   0.470 -0.6096 -0.1269  1.0851
 2944SOL     OW11723   2.992   3.856   6.824 -0.5189 -0.3021 -0.1243
 2944SOL    HW111724   2.901   3.884   6.830 -0.1768  1.1963 -1.2702
 2944SOL    HW211725   3.037   3.928   6.780  1.3843 -0.6753  1.0803
 2945SOL     OW11726   1.942   1.995   0.125 -0.6817  0.2144 -0.2125
 2945SOL    HW111727   1.937   2.014   0.219  0.7747 -0.6403  0.0695
 2945SOL    HW211728   1.851   1.982   0.098 -1.1886  1.2551  0.8988
 2946SOL     OW11729   2.254   8.201   7.949  0.3720 -0.2198 -0.3888
 2946SOL    HW111730   2.295   8.178   7.866 -0.2883 -0.3520 -0.6838
 2946SOL    HW211731   2.223   8.291   7.937  0.5724 -0.1174 -0.1641
 2947SOL     OW11732   7.417   7.248   0.790 -0.1755 -0.2227 -0.2365
 2947SOL    HW111733   7.371   7.295   0.721  1.7994  0.5274 -1.1081
 2947SOL    HW211734   7.460   7.175   0.746  0.2077 -0.3833  0.3783
 2948SOL     OW11735   8.159   3.948   4.225 -0.4614 -0.3275  0.4417
 2948SOL    HW111736   8.150   3.910   4.137  1.2199  0.6725 -0.2171
 2948SOL    HW211737   8.072   3.940   4.264 -1.1526 -1.1391 -1.1801
 2949SOL     OW11738   7.170   6.506   6.584 -0.9990 -0.3876 -0.1477
 2949SOL    HW111739   7.178   6.431   6.526  1.2474 -1.3330  1.2770
 2949SOL    HW211740   7.243   6.564   6.559 -1.2641  0.1825  0.3608
 2950SOL     OW11741   5.661   0.783   1.821 -0.6311 -0.7745  0.5659
 2950SOL    HW111742   5.645   0.689   1.821 -1.5798 -0.6232  0.5955
 2950SOL    HW211743   5.623   0.814   1.739  0.8815 -0.5902 -0.1033
 2951SOL     OW11744   1.561   3.970   6.355  0.2356 -0.5158 -0.0301
 2951SOL    HW111745   1.532   3.904   6.418 -1.5832 -0.7371 -1.0280
 2951SOL    HW211746   1.656   3.957   6.350  0.3720 -0.8426  2.2140
 2952SOL     OW11747   8.003   0.952   2.334  0.4813  0.2617 -0.3668
 2952SOL    HW111748   7.982   1.033   2.288  0.3072  0.7908  0.6133
 2952SOL    HW211749   7.921   0.902   2.333  0.3017  0.5443 -0.0987
 2953SOL     OW11750   3.287   7.505   4.865 -0.0050 -0.1616  0.6505
 2953SOL    HW111751   3.337   7.518   4.945 -0.4882  2.4918  0.6296
 2953SOL    HW211752   3.239   7.587   4.854 -1.1167 -1.0284 -1.5597
 2954SOL     OW11753   4.224   0.515   7.804 -0.4251  0.1169  0.7715
 2954SOL    HW111754   4.254   0.431   7.840 -0.0493  0.9838  2.5669
 2954SOL    HW211755   4.235   0.577   7.876  1.0642  2.1177 -1.0663
 2955SOL     OW11756   5.455   0.888   6.390  0.1788 -0.2030 -0.2308
 2955SOL    HW111757   5.483   0.853   6.305  0.1525  1.2672 -0.8750
 2955SOL    HW211758   5.365   0.857   6.400  0.3655 -0.8371 -0.4759
 2956SOL     OW11759   4.728   1.287   3.779  0.3235 -0.6818 -0.0128
 2956SOL    HW111760   4.746   1.374   3.815  0.4142 -0.8444  0.3438
 2956SOL    HW211761   4.789   1.278   3.706  1.1662 -0.9223  0.7066
 2957SOL     OW11762   5.599   8.452   6.343  0.2636 -0.6183 -0.0111
 2957SOL    HW111763   5.689   8.444   6.375  0.2970  1.8041  0.6778
 2957SOL    HW211764   5.545   8.423   6.417  0.4414 -1.3140 -0.1443
 2958SOL     OW11765   3.935   2.612   8.469 -0.7991  0.2468  0.1025
 2958SOL    HW111766   3.978   2.543   8.418 -0.1507  0.4992  0.3004
 2958SOL    HW211767   3.842   2.589   8.467 -0.5915 -0.6264  0.1540
 2959SOL     OW11768   7.876   1.443   3.290  0.3297  0.0784  0.0548
 2959SOL    HW111769   7.786   1.417   3.267  1.1728 -1.8204 -1.3291
 2959SOL    HW211770   7.864   1.510   3.357 -2.1107 -0.7481  0.5683
 2960SOL     OW11771   4.066   7.506   3.418  0.5183  0.2636  0.3928
 2960SOL    HW111772   3.998   7.560   3.380  1.5198  1.2484 -0.0720
 2960SOL    HW211773   4.052   7.512   3.513 -1.3848 -1.4063  0.2760
 2961SOL     OW11774   7.237   5.716   6.748 -0.4806  0.1476  0.0745
 2961SOL    HW111775   7.216   5.624   6.763 -0.1617  0.3177  1.8026
 2961SOL    HW211776   7.300   5.715   6.676  0.9421 -1.1616  1.2622
 2962SOL     OW11777   0.382   9.080   1.188  0.5190  0.4454 -0.7673
 2962SOL    HW111778   0.346   9.029   1.260  2.8999  0.4258  0.5128
 2962SOL    HW211779   0.410   9.162   1.229 -1.3081  1.9923 -2.3865
 2963SOL     OW11780   0.697   3.121   5.835 -0.3727  0.1777 -0.5834
 2963SOL    HW111781   0.650   3.048   5.876 -0.7515  1.3184  1.0929
 2963SOL    HW211782   0.675   3.197   5.888  0.0646  1.5346 -2.2519
 2964SOL     OW11783   8.601   5.514   5.462  0.9935 -0.6390  0.1551
 2964SOL    HW111784   8.530   5.572   5.490 -0.1899 -1.4682 -0.9952
 2964SOL    HW211785   8.646   5.490   5.543 -0.0739 -0.1322  0.9202
 2965SOL     OW11786   1.623   7.747   7.672 -0.2851  0.0675  0.0279
 2965SOL    HW111787   1.701   7.735   7.727  0.9545  0.2546 -1.6014
 2965SOL    HW211788   1.562   7.796   7.726  0.4660 -0.6440  1.5809
 2966SOL     OW11789   4.049   3.588   1.123  0.1425  0.1276 -0.1495
 2966SOL    HW111790   3.982   3.579   1.190 -1.1296 -3.0726 -1.6518
 2966SOL    HW211791   4.128   3.552   1.163 -0.0127  0.3835  0.3857
 2967SOL     OW11792   3.127   7.853   7.397  0.3602  0.1250 -0.3221
 2967SOL    HW111793   3.068   7.790   7.355  0.4026 -0.9724  1.1629
 2967SOL    HW211794   3.176   7.892   7.325  1.0427 -2.2902 -1.2716
 2968SOL     OW11795   7.468   8.030   4.920 -0.1067 -0.3221 -0.0866
 2968SOL    HW111796   7.491   8.050   5.011 -1.2169  2.0832 -0.2546
 2968SOL    HW211797   7.551   8.032   4.873  0.2796  0.3270  0.5953
 2969SOL     OW11798   0.944   4.043   6.815  0.0196 -0.3814 -0.4312
 2969SOL    HW111799   1.023   4.025   6.763 -0.5805 -0.7829 -1.2264
 2969SOL    HW211800   0.945   4.138   6.828  0.2669 -0.2949 -1.0507
 2970SOL     OW11801   3.286   6.538   9.050  0.0660  0.7108 -0.4358
 2970SOL    HW111802   3.236   6.606   9.003  0.5536  1.3623 -0.0340
 2970SOL    HW211803   3.293   6.466   8.988 -2.2488  0.1684 -0.1685
 2971SOL     OW11804   7.634   7.794   4.968 -0.8179 -0.2598 -0.0436
 2971SOL    HW111805   7.657   7.717   4.915  0.4377 -0.7381  1.1209
 2971SOL    HW211806   7.545   7.816   4.942 -0.7266 -1.3136 -1.3446
 2972SOL     OW11807   5.385   3.911   5.337  0.1930 -0.1721 -0.0583
 2972SOL    HW111808   5.475   3.942   5.339  0.5099 -1.0660  0.1019
 2972SOL    HW211809   5.376   3.866   5.252  0.8462 -2.7008  1.1012
 2973SOL     OW11810   0.342   8.173   6.423  0.5439 -0.3923  0.0802
 2973SOL    HW111811   0.283   8.249   6.430  1.9619  0.7032  0.6522
 2973SOL    HW211812   0.340   8.134   6.510  0.1071 -0.8046 -0.1093
 2974SOL     OW11813   4.547   6.632   4.153 -0.0436  0.2156  0.7223
 2974SOL    HW111814   4.605   6.680   4.212 -0.1173  1.9915 -0.5745
 2974SOL    HW211815   4.602   6.564   4.115  0.6111  0.5098  1.1280
 2975SOL     OW11816   2.684   3.509   3.404  0.3809 -0.2726  0.3062
 2975SOL    HW111817   2.722   3.442   3.348  0.0969 -0.2969  0.1358
 2975SOL    HW211818   2.613   3.546   3.352 -0.3070 -0.7395  0.8855
 2976SOL     OW11819   1.481   2.980   3.996  0.1645 -0.9955 -0.3049
 2976SOL    HW111820   1.426   3.058   3.990  0.4105 -0.8384 -0.5462
 2976SOL    HW211821   1.435   2.924   4.058  0.9318  0.1172  1.3209
 2977SOL     OW11822   8.655   4.123   0.811  0.4326  0.1101 -0.0158
 2977SOL    HW111823   8.711   4.193   0.844 -0.9768  1.2254  0.1050
 2977SOL    HW211824   8.626   4.076   0.889  0.3881  0.1802  0.0105
 2978SOL     OW11825   4.968   5.710   7.961  0.5309  0.7273 -0.2157
 2978SOL    HW111826   4.905   5.642   7.987 -1.2801  1.8830 -1.3094
 2978SOL    HW211827   4.981   5.695   7.867  1.4098  0.8916 -0.1216
 2979SOL     OW11828   8.574   0.674   5.918  0.4268  0.0069  0.4924
 2979SOL    HW111829   8.533   0.615   5.981  0.4291  1.0772  1.5245
 2979SOL    HW211830   8.630   0.731   5.970 -0.2796  1.5326 -0.3409
 2980SOL     OW11831   7.805   3.329   6.479  0.3836  0.4906  0.0727
 2980SOL    HW111832   7.868   3.319   6.550  0.1633 -0.3988  0.1549
 2980SOL    HW211833   7.857   3.321   6.399  0.4054 -0.1105  0.1408
 2981SOL     OW11834   5.608   7.487   8.166 -0.0661  0.3965  0.6084
 2981SOL    HW111835   5.619   7.419   8.232 -1.6708  0.7251  1.2821
 2981SOL    HW211836   5.689   7.538   8.170  0.5122 -0.5382  1.1935
 2982SOL     OW11837   2.858   8.218   6.192  0.2563  0.1518 -0.1392
 2982SOL    HW111838   2.838   8.289   6.132 -0.3002 -0.4807 -0.7241
 2982SOL    HW211839   2.941   8.182   6.160  0.7663  0.7990  0.4196
 2983SOL     OW11840   5.728   4.938   8.721  0.2683  0.0185 -0.4009
 2983SOL    HW111841   5.708   4.845   8.721  0.9347 -0.1278 -0.5341
 2983SOL    HW211842   5.821   4.943   8.699 -0.0903  0.7929 -1.8417
 2984SOL     OW11843   7.573   7.680   0.924 -0.4279  0.0540  0.1616
 2984SOL    HW111844   7.566   7.585   0.937 -1.3949  0.1371  0.3467
 2984SOL    HW211845   7.501   7.701   0.865 -0.6879  0.7779  0.7211
 2985SOL     OW11846   5.988   7.524   5.766 -0.3656  0.7186 -0.3642
 2985SOL    HW111847   6.005   7.557   5.677  0.0174  1.7249  0.0650
 2985SOL    HW211848   6.076   7.505   5.801 -0.5030  0.5374 -0.1156
 2986SOL     OW11849   5.375   3.328   1.965 -0.1392  0.1885 -0.1340
 2986SOL    HW111850   5.291   3.311   1.923 -0.4606  0.6269  0.3235
 2986SOL    HW211851   5.420   3.388   1.905  0.5894 -1.4090 -1.2560
 2987SOL     OW11852   0.587   0.735   0.706  0.3303 -0.3357 -0.0058
 2987SOL    HW111853   0.642   0.771   0.776  0.0329  1.3785 -0.6017
 2987SOL    HW211854   0.499   0.769   0.725  0.3807  0.7770 -1.5762
 2988SOL     OW11855   0.882   0.437   9.012 -0.2907  0.4871 -0.0471
 2988SOL    HW111856   0.866   0.391   8.930 -0.1703 -3.1115  1.7674
 2988SOL    HW211857   0.963   0.486   8.997  0.5544 -1.2965 -1.6234
 2989SOL     OW11858   4.743   2.590   6.309  0.1762 -0.5188 -0.5149
 2989SOL    HW111859   4.819   2.642   6.335 -1.4050  1.4557  0.4771
 2989SOL    HW211860   4.767   2.554   6.224  1.9444  0.6415 -0.5663
 2990SOL     OW11861   2.247   4.664   7.938 -0.2255 -0.2845  0.2418
 2990SOL    HW111862   2.262   4.712   7.856  2.4849 -0.2442  0.6828
 2990SOL    HW211863   2.193   4.724   7.991  0.6180  1.0506 -0.3375
 2991SOL     OW11864   7.288   4.044   2.522 -0.0578 -0.0253  0.2630
 2991SOL    HW111865   7.371   4.067   2.482 -0.1620  1.5229  0.8469
 2991SOL    HW211866   7.246   4.129   2.539 -2.1297 -0.7836 -0.7830
 2992SOL     OW11867   3.643   6.116   8.940  0.3607 -0.7054 -0.0779
 2992SOL    HW111868   3.673   6.080   8.856  0.1118 -1.5286  0.1847
 2992SOL    HW211869   3.555   6.147   8.922  0.6693  0.0224 -0.3700
 2993SOL     OW11870   5.878   4.400   1.574 -0.0896  0.5816  0.3431
 2993SOL    HW111871   5.949   4.443   1.621 -0.5084  0.3119  1.2473
 2993SOL    HW211872   5.907   4.309   1.566 -0.1679  0.5517  0.3934
 2994SOL     OW11873   6.551   3.995   7.048 -0.0627  0.4154  0.1527
 2994SOL    HW111874   6.628   4.023   7.098 -0.7688  2.4871  0.1774
 2994SOL    HW211875   6.587   3.940   6.978  1.1708 -0.6122  1.5386
 2995SOL     OW11876   2.700   3.773   6.270 -0.4195  0.3752 -0.4271
 2995SOL    HW111877   2.744   3.834   6.329 -0.3993 -0.5484  0.5444
 2995SOL    HW211878   2.668   3.828   6.198 -2.3208  1.9111  1.4809
 2996SOL     OW11879   6.545   1.967   8.830 -0.6114 -0.3334 -0.1427
 2996SOL    HW111880   6.455   1.995   8.811 -0.9730 -0.0071  1.8098
 2996SOL    HW211881   6.581   2.038   8.883  0.8282 -0.4514 -0.9278
 2997SOL     OW11882   3.660   9.152   1.926  0.3660 -0.1015 -0.2435
 2997SOL    HW111883   3.662   9.177   2.018 -0.7723  0.0250 -0.2332
 2997SOL    HW211884   3.751   9.136   1.902  0.4967 -2.7776  1.6187
 2998SOL     OW11885   1.603   0.972   6.316  0.1664  0.3243  0.2322
 2998SOL    HW111886   1.666   0.983   6.388  1.1711  1.3262 -0.7636
 2998SOL    HW211887   1.643   0.905   6.260  0.3280  0.9034 -0.3579
 2999SOL     OW11888   5.369   6.770   6.426 -0.1422 -0.5643 -0.2018
 2999SOL    HW111889   5.349   6.839   6.363 -0.2063  0.4976  0.9547
 2999SOL    HW211890   5.284   6.739   6.456 -0.1149 -1.1762 -0.7039
 3000SOL     OW11891   5.693   2.469   5.631  0.4180  0.1691  0.1064
 3000SOL    HW111892   5.652   2.533   5.689  1.1646  0.2485  0.5622
 3000SOL    HW211893   5.707   2.517   5.549  0.0210  0.2757  0.1004
 3001SOL     OW11894   8.316   8.457   4.562  0.3329 -0.2366 -0.1547
 3001SOL    HW111895   8.300   8.376   4.514 -1.0323  0.2137 -0.5008
 3001SOL    HW211896   8.332   8.428   4.652  0.5885 -0.9296 -0.4173
 3002SOL     OW11897   5.123   7.623   5.379  0.5925 -0.2620 -0.4806
 3002SOL    HW111898   5.206   7.664   5.405  0.1471 -0.1017  0.7434
 3002SOL    HW211899   5.063   7.696   5.367  0.2137 -0.4593  0.1722
 3003SOL     OW11900   7.961   6.624   1.507  0.3933  0.2162  0.3378
 3003SOL    HW111901   7.923   6.690   1.449  0.6051  0.6878  0.7210
 3003SOL    HW211902   8.055   6.643   1.507  0.4925 -0.2704  0.2259
 3004SOL     OW11903   4.060   1.629   7.521  0.2624 -1.1751 -0.1309
 3004SOL    HW111904   3.967   1.646   7.507  0.6645  0.5697 -0.9107
 3004SOL    HW211905   4.068   1.622   7.616 -0.2095  2.0636  0.2670
 3005SOL     OW11906   5.442   7.207   7.801 -0.2393 -0.5025  0.1711
 3005SOL    HW111907   5.514   7.269   7.809 -0.4692 -0.1662 -0.3200
 3005SOL    HW211908   5.448   7.153   7.880  0.9961 -0.9670 -0.2215
 3006SOL     OW11909   4.319   1.074   7.919  0.6073  0.2658 -0.7385
 3006SOL    HW111910   4.291   1.135   7.851  0.6711  0.6286 -0.4351
 3006SOL    HW211911   4.238   1.035   7.951  0.6072 -0.3152 -1.3977
 3007SOL     OW11912   6.528   8.081   8.870  0.0632 -0.1685  0.1353
 3007SOL    HW111913   6.516   7.996   8.914 -1.5948 -0.6379 -1.1364
 3007SOL    HW211914   6.554   8.140   8.940  0.6144 -1.5736  1.1766
 3008SOL     OW11915   2.856   9.002   1.157  0.3062 -0.4596 -0.4608
 3008SOL    HW111916   2.839   9.077   1.100 -0.3967 -0.4780 -0.2909
 3008SOL    HW211917   2.950   9.001   1.170  0.2149  1.1062  0.4985
 3009SOL     OW11918   6.899   7.828   4.970  0.2637  0.3341 -0.2100
 3009SOL    HW111919   6.812   7.864   4.951  0.3547  2.0219  2.0818
 3009SOL    HW211920   6.955   7.861   4.900 -0.4163  1.6462 -0.1617
 3010SOL     OW11921   5.158   9.264   1.809 -0.3990 -0.4817  0.0212
 3010SOL    HW111922   5.249   9.292   1.798 -0.3316 -0.7369 -0.0784
 3010SOL    HW211923   5.141   9.276   1.902 -0.8577  1.3487 -0.2652
 3011SOL     OW11924   6.289   2.497   3.237  0.0692  0.5955 -0.1576
 3011SOL    HW111925   6.259   2.530   3.152 -0.5677 -0.9765 -0.5973
 3011SOL    HW211926   6.253   2.557   3.301 -0.9776  0.8005 -0.9164
 3012SOL     OW11927   7.735   8.962   7.877  0.0669  0.6127  0.1026
 3012SOL    HW111928   7.657   9.001   7.916 -0.4290  0.4625 -0.7054
 3012SOL    HW211929   7.740   9.000   7.789  0.7335  0.3956  0.0370
 3013SOL     OW11930   3.766   0.589   2.192 -0.1799  0.2000  0.0879
 3013SOL    HW111931   3.747   0.507   2.146 -0.7599  0.3365  0.0782
 3013SOL    HW211932   3.859   0.606   2.173  0.0982 -0.7286  0.5336
 3014SOL     OW11933   3.148   2.756   0.608  0.1796 -0.1628 -0.0962
 3014SOL    HW111934   3.130   2.709   0.690 -1.0749  1.4042  0.5805
 3014SOL    HW211935   3.157   2.687   0.543  0.4764 -1.4252  1.2125
 3015SOL     OW11936   7.948   2.330   7.294  0.0110 -0.5304 -0.2911
 3015SOL    HW111937   7.946   2.337   7.198  0.5031 -1.0761 -0.3526
 3015SOL    HW211938   8.034   2.292   7.312  0.7953  1.5230  0.5177
 3016SOL     OW11939   0.698   6.744   5.121 -0.3875 -0.0714 -0.6049
 3016SOL    HW111940   0.707   6.671   5.060  1.9455  0.1642 -0.6360
 3016SOL    HW211941   0.785   6.754   5.159 -0.8186  2.2635 -0.0913
 3017SOL     OW11942   4.023   4.390   7.574 -0.3358 -0.2680 -0.0295
 3017SOL    HW111943   4.029   4.477   7.536 -0.2440 -1.1614 -2.1859
 3017SOL    HW211944   3.929   4.372   7.580 -0.3566 -0.0295  0.4775
 3018SOL     OW11945   5.148   8.570   7.189 -0.0883  0.5890  0.1923
 3018SOL    HW111946   5.054   8.553   7.195  0.0443 -0.2385  0.0361
 3018SOL    HW211947   5.178   8.568   7.280 -0.0625 -0.1592  0.1778
 3019SOL     OW11948   4.715   7.851   2.805 -0.3554  0.3935  0.2096
 3019SOL    HW111949   4.798   7.820   2.842 -0.2662 -1.2797 -1.2241
 3019SOL    HW211950   4.656   7.776   2.813 -0.4749  0.1248 -2.4502
 3020SOL     OW11951   4.610   7.886   2.248  0.0971 -0.6168  0.9784
 3020SOL    HW111952   4.696   7.847   2.234 -0.6651 -1.3523 -2.7491
 3020SOL    HW211953   4.625   7.981   2.243  0.6039 -0.7539 -1.1907
 3021SOL     OW11954   4.878   6.507   3.595  0.0710  0.6223  0.1459
 3021SOL    HW111955   4.800   6.485   3.543 -0.5380  1.5618  0.6392
 3021SOL    HW211956   4.925   6.571   3.542 -0.5101  1.5221  0.6939
 3022SOL     OW11957   0.689   5.077   1.274 -0.0890  0.3576 -0.2139
 3022SOL    HW111958   0.661   5.159   1.232 -2.2507  0.1135  0.6034
 3022SOL    HW211959   0.764   5.048   1.222 -0.3771  1.9356 -1.6140
 3023SOL     OW11960   1.659   4.969   5.467  0.2705 -0.6682 -0.7393
 3023SOL    HW111961   1.637   4.946   5.557 -1.7902  0.6253 -0.8699
 3023SOL    HW211962   1.577   4.999   5.428  1.1620 -0.9406 -2.9855
 3024SOL     OW11963   2.993   0.599   4.102 -0.3091  0.4477 -0.3218
 3024SOL    HW111964   2.952   0.626   4.020 -2.8414 -1.2600  0.2764
 3024SOL    HW211965   3.043   0.676   4.130 -2.4772  2.4283 -1.5328
 3025SOL     OW11966   6.135   8.056   2.893  0.3160  0.7084 -0.8008
 3025SOL    HW111967   6.145   8.055   2.798  2.0959 -0.5447 -0.6546
 3025SOL    HW211968   6.167   7.970   2.921 -1.7120  0.4144  0.8205
 3026SOL     OW11969   1.801   3.341   6.892 -0.0748  0.8039 -0.2170
 3026SOL    HW111970   1.810   3.397   6.814  1.2842 -0.6692 -1.1824
 3026SOL    HW211971   1.711   3.309   6.888 -0.0679  0.8576 -1.1128
 3027SOL     OW11972   0.624   4.945   2.813  0.5615  0.3289  0.6144
 3027SOL    HW111973   0.535   4.911   2.806  0.2050  1.4852 -1.1246
 3027SOL    HW211974   0.645   4.976   2.725  2.6429  0.2253  1.0232
 3028SOL     OW11975   5.454   8.930   8.606  0.5294 -0.2240 -0.6355
 3028SOL    HW111976   5.484   9.017   8.634 -0.4589  0.1919 -0.8133
 3028SOL    HW211977   5.456   8.934   8.510 -0.6228  0.0238 -0.6626
 3029SOL     OW11978   5.882   2.820   2.434  0.0888 -0.7187 -0.4295
 3029SOL    HW111979   5.829   2.855   2.362 -0.3522 -1.0023 -0.2523
 3029SOL    HW211980   5.915   2.737   2.402 -0.1904 -0.8930 -0.2748
 3030SOL     OW11981   2.804   5.266   2.867 -0.1590  0.2019  0.5156
 3030SOL    HW111982   2.720   5.255   2.821 -0.7760  0.1110  1.6423
 3030SOL    HW211983   2.832   5.177   2.886 -0.7486  0.2785  1.7980
 3031SOL     OW11984   7.909   7.768   5.758  0.0249  0.0905 -0.0542
 3031SOL    HW111985   7.990   7.720   5.776 -0.4843 -1.1983 -1.0426
 3031SOL    HW211986   7.847   7.735   5.822 -0.1856 -0.2254 -0.4137
 3032SOL     OW11987   2.519   5.374   7.541 -0.2504  0.0370 -0.3431
 3032SOL    HW111988   2.472   5.447   7.582 -0.3105  0.9147 -1.8847
 3032SOL    HW211989   2.569   5.415   7.470 -0.6345 -1.4774 -1.5408
 3033SOL     OW11990   1.671   5.012   2.708  0.8416  0.0269 -0.4003
 3033SOL    HW111991   1.699   5.074   2.640  0.5564 -1.0523 -1.5293
 3033SOL    HW211992   1.579   4.995   2.687 -0.0857  1.7072  1.8598
 3034SOL     OW11993   0.381   6.623   3.974 -0.6365  0.2493  0.1489
 3034SOL    HW111994   0.397   6.618   4.068 -1.1413 -0.6856  0.1939
 3034SOL    HW211995   0.297   6.578   3.961 -0.1300 -0.4486 -0.8577
 3035SOL     OW11996   0.487   6.522   1.931  0.2550 -0.1679 -0.5664
 3035SOL    HW111997   0.506   6.479   2.015  1.0750 -1.3796 -1.3344
 3035SOL    HW211998   0.556   6.588   1.922 -0.8476  1.1772  0.4927
 3036SOL     OW11999   3.427   4.173   2.235  0.3685  0.1957  1.0627
 3036SOL    HW112000   3.370   4.179   2.158  1.6680  0.4578  0.0814
 3036SOL    HW212001   3.410   4.086   2.271 -1.9290  0.9203  1.8704
 3037SOL     OW12002   1.728   6.528   2.272 -0.5486 -0.1729  0.3434
 3037SOL    HW112003   1.700   6.437   2.271  1.7465 -1.0019  1.9937
 3037SOL    HW212004   1.693   6.564   2.353 -1.9957  0.6603 -0.6098
 3038SOL     OW12005   6.673   7.283   1.409  0.1116 -0.8395 -0.3705
 3038SOL    HW112006   6.736   7.224   1.451  0.4807 -1.1159 -1.2882
 3038SOL    HW212007   6.684   7.267   1.315  2.1617  2.5698 -0.8885
 3039SOL     OW12008   6.538   5.158   3.064 -0.7460 -0.6219 -0.1022
 3039SOL    HW112009   6.595   5.118   3.129 -2.0321 -0.8018  0.9393
 3039SOL    HW212010   6.458   5.181   3.111 -0.2367  2.9314 -0.7030
 3040SOL     OW12011   2.976   8.656   4.560  0.6512  0.1849  0.6650
 3040SOL    HW112012   2.906   8.635   4.621  0.7750 -0.5700  0.5473
 3040SOL    HW212013   2.988   8.577   4.508 -0.1447  1.1010 -1.0442
 3041SOL     OW12014   2.812   0.956   3.988  0.0690 -0.1253 -0.3508
 3041SOL    HW112015   2.769   1.024   4.038 -1.0329  0.1178 -1.5733
 3041SOL    HW212016   2.904   0.981   3.987 -0.1052  0.5744  0.3882
 3042SOL     OW12017   2.059   1.050   7.219 -0.1639  0.3250  0.1053
 3042SOL    HW112018   2.096   0.973   7.261  0.6868  0.6832  0.0275
 3042SOL    HW212019   2.044   1.024   7.129  0.1992  0.2775  0.0597
 3043SOL     OW12020   7.362   2.537   5.664 -0.0885  0.2681  0.2156
 3043SOL    HW112021   7.350   2.616   5.612  0.1244 -0.2020 -0.5554
 3043SOL    HW212022   7.429   2.561   5.728 -1.7340  1.4627  1.5980
 3044SOL     OW12023   5.842   6.253   0.900 -0.1480  0.1733  0.2404
 3044SOL    HW112024   5.863   6.293   0.984 -0.7865  0.1918  0.3904
 3044SOL    HW212025   5.774   6.188   0.919 -0.1898  0.0688 -0.2352
 3045SOL     OW12026   9.258   3.411   0.861 -0.4951  0.4179  0.0906
 3045SOL    HW112027   9.229   3.320   0.867  0.0697  0.1382 -1.0981
 3045SOL    HW212028   9.217   3.444   0.780 -0.5050  1.1462  0.3828
 3046SOL     OW12029   4.277   5.232   8.926 -0.3230 -0.3300  0.3881
 3046SOL    HW112030   4.370   5.225   8.946  0.2495  2.1059 -1.0113
 3046SOL    HW212031   4.237   5.156   8.970  1.8766  0.0794  3.4098
 3047SOL     OW12032   7.905   6.160   6.462 -0.7069 -0.6266 -0.3246
 3047SOL    HW112033   7.873   6.159   6.553 -1.1748  1.6670 -0.4018
 3047SOL    HW212034   7.830   6.189   6.411  0.3578  1.0509 -1.0214
 3048SOL     OW12035   8.806   6.860   5.335  0.8067  0.9434  0.2542
 3048SOL    HW112036   8.867   6.807   5.386 -0.2332  0.7615  1.3693
 3048SOL    HW212037   8.767   6.919   5.400 -2.6632 -1.1807  0.3203
 3049SOL     OW12038   2.252   7.539   4.128 -0.5094 -0.1482 -0.1650
 3049SOL    HW112039   2.310   7.560   4.055  0.0874 -0.6876  0.1490
 3049SOL    HW212040   2.283   7.454   4.160 -0.5993  0.1945  0.8694
 3050SOL     OW12041   6.482   6.127   0.886  0.0340 -0.2772 -0.0526
 3050SOL    HW112042   6.562   6.175   0.866 -0.5328 -0.0895 -2.1084
 3050SOL    HW212043   6.412   6.177   0.844 -1.0590 -0.9460  0.8965
 3051SOL     OW12044   1.862   0.920   1.858 -0.0507  0.6474 -0.0275
 3051SOL    HW112045   1.883   0.853   1.793 -0.3938  0.3581  0.1588
 3051SOL    HW212046   1.852   0.872   1.940 -1.4096  0.7621 -0.0948
 3052SOL     OW12047   4.511   8.649   2.962  0.0373  0.3915 -0.0087
 3052SOL    HW112048   4.540   8.573   2.911  0.6023  0.9932 -0.6085
 3052SOL    HW212049   4.592   8.685   2.998 -0.2711  0.5029  0.5740
 3053SOL     OW12050   4.319   3.907   8.869  0.1130  0.1696 -0.3618
 3053SOL    HW112051   4.311   3.982   8.810 -1.0748  0.0070 -0.4399
 3053SOL    HW212052   4.312   3.831   8.811  2.1293 -0.0333 -0.3856
 3054SOL     OW12053   3.309   1.067   1.143 -0.3374  0.1825 -0.3862
 3054SOL    HW112054   3.305   1.004   1.071  0.1072 -0.4729  0.1535
 3054SOL    HW212055   3.222   1.062   1.184  0.0278 -0.8390  0.2829
 3055SOL     OW12056   6.505   6.589   3.569  0.2506  0.1261 -0.1167
 3055SOL    HW112057   6.584   6.592   3.516  1.3692  0.5609  1.4797
 3055SOL    HW212058   6.528   6.534   3.644 -1.9963 -2.3244 -1.1014
 3056SOL     OW12059   6.024   8.223   0.799 -0.3291  0.2464  0.3162
 3056SOL    HW112060   5.965   8.198   0.728 -0.7713 -0.4390  0.9195
 3056SOL    HW212061   6.057   8.309   0.773  0.0778 -0.3030 -1.0685
 3057SOL     OW12062   7.005   8.986   7.999  0.5411  0.1898  0.1282
 3057SOL    HW112063   6.965   8.954   7.918  1.0936 -0.5108  0.1225
 3057SOL    HW212064   7.022   9.079   7.982 -1.0196  0.5029  0.1194
 3058SOL     OW12065   2.680   9.133   4.812 -0.5041  0.2911  0.2563
 3058SOL    HW112066   2.637   9.083   4.743  0.1854 -0.6949  0.5177
 3058SOL    HW212067   2.680   9.075   4.888 -1.1885  1.3248  1.0967
 3059SOL     OW12068   1.778   1.765   0.359 -0.1893 -0.0960 -0.3516
 3059SOL    HW112069   1.694   1.744   0.398  0.4314 -0.7629  0.6834
 3059SOL    HW212070   1.771   1.856   0.331 -0.5563  0.5284  1.6558
 3060SOL     OW12071   1.479   0.460   8.862  0.5700 -0.2404  0.2629
 3060SOL    HW112072   1.504   0.442   8.771  0.7711  0.7784  0.1056
 3060SOL    HW212073   1.522   0.542   8.883 -0.1183 -0.0570  1.0224
 3061SOL     OW12074   2.682   1.411   7.699 -1.0128  0.7518 -0.0527
 3061SOL    HW112075   2.677   1.506   7.700 -3.4857  0.8115 -3.0676
 3061SOL    HW212076   2.739   1.391   7.624 -0.5785 -0.1734  0.4994
 3062SOL     OW12077   1.175   3.930   3.900 -0.2325  0.1387  0.1008
 3062SOL    HW112078   1.149   3.950   3.811  0.5650  0.2512 -0.1143
 3062SOL    HW212079   1.132   3.847   3.920 -1.0529  0.5048 -0.0982
 3063SOL     OW12080   1.824   8.366   1.052 -0.2652 -0.4149  0.0282
 3063SOL    HW112081   1.882   8.359   1.128  0.8771 -1.3160 -0.8702
 3063SOL    HW212082   1.747   8.316   1.076  0.2751 -1.0618  0.4556
 3064SOL     OW12083   4.395   0.952   6.849 -0.2852  0.1720 -0.3351
 3064SOL    HW112084   4.387   1.016   6.778  1.2971 -1.0782 -1.7173
 3064SOL    HW212085   4.486   0.921   6.844  0.6995  1.6645  3.7351
 3065SOL     OW12086   0.049   6.419   3.199 -0.3561 -0.6569 -0.2054
 3065SOL    HW112087   0.046   6.514   3.210  0.9685 -0.2701 -2.4340
 3065SOL    HW212088  -0.036   6.388   3.230 -0.7203  1.2120  0.7830
 3066SOL     OW12089   7.583   7.391   0.941 -0.0944 -0.0880  0.2923
 3066SOL    HW112090   7.527   7.329   0.894 -0.0361 -0.1804  0.3425
 3066SOL    HW212091   7.575   7.365   1.033 -1.2598  0.9351  0.5026
 3067SOL     OW12092   1.376   1.092   2.314  0.1315  0.1534  0.1540
 3067SOL    HW112093   1.322   1.166   2.343 -0.4709  0.0354 -0.6238
 3067SOL    HW212094   1.450   1.092   2.373 -1.2105 -0.2948  1.9136
 3068SOL     OW12095   6.799   6.583   7.654  0.2384 -0.0761 -0.0406
 3068SOL    HW112096   6.801   6.643   7.580 -1.2035 -1.4696 -1.2725
 3068SOL    HW212097   6.807   6.640   7.731  2.3704  1.3555 -1.2151
 3069SOL     OW12098   3.178   7.566   2.069 -0.6259 -0.1844 -0.4295
 3069SOL    HW112099   3.216   7.479   2.077 -2.1780 -1.0553 -1.7633
 3069SOL    HW212100   3.174   7.599   2.159  1.1378 -0.9377 -0.0333
 3070SOL     OW12101   0.822   6.622   2.171 -0.3619  0.3878  0.2059
 3070SOL    HW112102   0.847   6.615   2.263 -0.0276 -0.3222  0.0656
 3070SOL    HW212103   0.903   6.603   2.123 -0.3693  1.3974 -0.2357
 3071SOL     OW12104   6.666   5.629   2.732  0.3573  0.0212  0.1783
 3071SOL    HW112105   6.731   5.596   2.794 -1.1044 -0.1198  1.7067
 3071SOL    HW212106   6.652   5.556   2.672  0.6584 -0.4249  0.6414
 3072SOL     OW12107   1.600   6.545   6.489 -0.1780 -0.2305  0.6012
 3072SOL    HW112108   1.633   6.599   6.417  2.0189 -1.9814  0.1505
 3072SOL    HW212109   1.599   6.603   6.564  0.4299  0.8758 -0.2146
 3073SOL     OW12110   6.611   5.171   5.136  0.2152 -0.3639 -0.1530
 3073SOL    HW112111   6.689   5.160   5.190  0.1058  1.6754  0.5051
 3073SOL    HW212112   6.540   5.183   5.200 -0.2187  0.3005 -0.7561
 3074SOL     OW12113   2.922   2.164   4.295  0.8063  0.5120  0.1797
 3074SOL    HW112114   2.978   2.188   4.368  1.0419 -0.3754  0.2975
 3074SOL    HW212115   2.849   2.116   4.335  0.7119  0.3963 -0.1268
 3075SOL     OW12116   2.558   7.117   8.894 -0.1190  0.3868  0.8894
 3075SOL    HW112117   2.511   7.195   8.865  0.2558  0.3625  0.1993
 3075SOL    HW212118   2.619   7.149   8.960  0.2226  0.7287  0.4161
 3076SOL     OW12119   5.005   4.225   1.664  0.2330  0.0635 -0.0630
 3076SOL    HW112120   5.019   4.155   1.728 -3.2508 -0.7919 -0.0132
 3076SOL    HW212121   4.950   4.288   1.710  1.6661  1.9071 -0.7678
 3077SOL     OW12122   9.020   2.783   4.638  0.2407 -0.0311 -0.0083
 3077SOL    HW112123   9.044   2.690   4.634  2.4836  0.5226 -1.4327
 3077SOL    HW212124   9.104   2.828   4.650 -0.8747  1.8165  1.3390
 3078SOL     OW12125   8.024   1.178   0.761  0.1801 -0.0692 -0.2796
 3078SOL    HW112126   7.998   1.157   0.671 -1.4101 -1.5154  0.4556
 3078SOL    HW212127   8.017   1.274   0.766  1.6080  0.1687 -2.0371
 3079SOL     OW12128   4.840   6.481   7.276  0.3607  0.5760 -0.1476
 3079SOL    HW112129   4.812   6.477   7.368  0.8292  0.3132 -0.0159
 3079SOL    HW212130   4.813   6.568   7.247 -3.5304 -0.6731 -0.9517
 3080SOL     OW12131   2.086   3.741   5.863  0.9262  1.0917 -0.2213
 3080SOL    HW112132   2.004   3.776   5.828  0.0174 -0.6331  0.0699
 3080SOL    HW212133   2.136   3.818   5.891  0.2024  2.2913 -2.0874
 3081SOL     OW12134   1.575   4.919   4.267  0.1241 -0.4911  0.4912
 3081SOL    HW112135   1.651   4.895   4.320  1.2333  0.7047 -0.4741
 3081SOL    HW212136   1.587   4.871   4.185  0.9458  1.1704 -0.4240
 3082SOL     OW12137   8.448   1.687   5.995  0.1532 -0.2222  0.0970
 3082SOL    HW112138   8.446   1.657   5.904  0.3942  0.6981 -0.2265
 3082SOL    HW212139   8.501   1.623   6.041  0.1652 -0.6114 -0.4490
 3083SOL     OW12140   5.856   5.642   4.691 -0.0483 -0.6863  0.4083
 3083SOL    HW112141   5.895   5.563   4.654  1.5796 -0.0137  0.6265
 3083SOL    HW212142   5.924   5.679   4.747 -0.1535  1.7344 -0.9433
 3084SOL     OW12143   8.326   3.998   6.449 -0.0101  0.1720  0.0920
 3084SOL    HW112144   8.408   3.983   6.496  0.5421  2.9311  0.1704
 3084SOL    HW212145   8.353   4.029   6.362 -1.0141 -1.2870 -0.7790
 3085SOL     OW12146   9.145   7.950   0.404 -0.3488  0.2432  0.0127
 3085SOL    HW112147   9.207   7.877   0.400  1.1029  1.3911  0.4765
 3085SOL    HW212148   9.085   7.935   0.331 -0.7651 -1.9639  0.7613
 3086SOL     OW12149   9.234   3.066   0.019  0.8034  0.1238 -0.0727
 3086SOL    HW112150   9.279   2.992   0.059 -0.2219  1.3040  3.6679
 3086SOL    HW212151   9.305   3.117  -0.022  2.0329 -0.9548  0.6350
 3087SOL     OW12152   4.993   4.053   5.579 -0.5877  1.4895 -0.1447
 3087SOL    HW112153   5.028   4.023   5.663 -0.8494  1.6119  0.0104
 3087SOL    HW212154   4.903   4.082   5.599 -0.9598  0.7022 -0.6295
 3088SOL     OW12155   3.863   8.765   0.477 -0.3130 -0.3363  0.2293
 3088SOL    HW112156   3.797   8.809   0.423 -0.4545  0.0012  0.6740
 3088SOL    HW212157   3.946   8.784   0.434 -0.3691  0.3865  0.4323
 3089SOL     OW12158   7.767   9.109   6.817  0.6111 -0.0622 -0.3614
 3089SOL    HW112159   7.705   9.179   6.794  0.8256  0.4497  0.5634
 3089SOL    HW212160   7.848   9.133   6.772  0.5220 -0.0154 -0.4973
 3090SOL     OW12161   0.963   1.649   8.544  0.3940  0.3995 -0.5836
 3090SOL    HW112162   0.871   1.642   8.518  0.6454 -0.5014 -1.2819
 3090SOL    HW212163   0.973   1.741   8.571 -1.1244  0.1271  1.1753
 3091SOL     OW12164   4.256   6.275   0.347 -0.1448 -0.0103 -0.0915
 3091SOL    HW112165   4.203   6.351   0.372  0.2167  0.3223 -0.3145
 3091SOL    HW212166   4.340   6.289   0.390  0.8559  1.1142 -2.2485
 3092SOL     OW12167   6.761   6.117   3.132  0.1562  0.2475  0.6160
 3092SOL    HW112168   6.746   6.026   3.157 -2.3394  0.9988  2.2421
 3092SOL    HW212169   6.821   6.150   3.199  0.4780 -0.0142  0.4577
 3093SOL     OW12170   5.309   3.262   3.725  0.3239  0.6546  0.0870
 3093SOL    HW112171   5.370   3.197   3.691  0.1577  1.2297 -1.3982
 3093SOL    HW212172   5.227   3.244   3.680 -0.6719 -0.1487  2.1119
 3094SOL     OW12173   5.290   3.334   4.016 -0.5488 -0.3539 -0.1588
 3094SOL    HW112174   5.342   3.293   3.947 -0.7639 -1.1068  0.1188
 3094SOL    HW212175   5.199   3.308   3.997 -0.9262  1.3899 -0.9547
 3095SOL     OW12176   3.313   8.549   7.053 -0.3975 -0.2701  0.1897
 3095SOL    HW112177   3.307   8.525   7.146 -0.7297  0.6744  0.4231
 3095SOL    HW212178   3.304   8.466   7.007  1.4768 -0.9899  1.0287
 3096SOL     OW12179   0.289   1.934   1.247  0.3167 -0.0551 -0.1446
 3096SOL    HW112180   0.336   1.878   1.186 -1.2089 -1.1164 -0.4221
 3096SOL    HW212181   0.357   1.986   1.290  1.5666 -0.4874 -1.5297
 3097SOL     OW12182   8.003   0.261   4.644  0.5180 -0.0613  0.1058
 3097SOL    HW112183   8.011   0.182   4.698  0.6966 -0.8138 -0.9749
 3097SOL    HW212184   7.952   0.232   4.568 -0.4487  1.1862  0.2622
 3098SOL     OW12185   0.558   1.223   4.543  0.2690  0.1503  0.7738
 3098SOL    HW112186   0.514   1.260   4.619 -0.4742 -0.7798  0.8050
 3098SOL    HW212187   0.566   1.297   4.482  0.3628  0.7632  1.5182
 3099SOL     OW12188   0.049   1.928   5.410 -0.0856  0.1344 -0.2552
 3099SOL    HW112189   0.116   1.996   5.406 -0.7617  0.8295 -0.2235
 3099SOL    HW212190   0.006   1.932   5.325 -0.0077 -0.3917 -0.3205
 3100SOL     OW12191   2.237   2.141   5.339 -0.0069  0.2885 -0.3860
 3100SOL    HW112192   2.156   2.104   5.304 -0.2038  1.0749 -0.7896
 3100SOL    HW212193   2.278   2.184   5.264 -0.8633  2.7836  0.4651
 3101SOL     OW12194   5.351   8.355   0.350  0.2878  0.1795 -0.1547
 3101SOL    HW112195   5.439   8.357   0.387  0.8364  1.5444 -1.3979
 3101SOL    HW212196   5.328   8.447   0.338 -1.3006 -0.1501  0.0920
 3102SOL     OW12197   3.857   6.784   1.808  0.1778  0.2161 -0.0454
 3102SOL    HW112198   3.771   6.827   1.814 -0.0000 -0.2495  0.9667
 3102SOL    HW212199   3.863   6.732   1.887 -0.1427 -2.6367 -1.7734
 3103SOL     OW12200   5.650   0.808   0.274 -0.8958  0.1816 -0.8068
 3103SOL    HW112201   5.723   0.767   0.229  0.2918  1.8599 -0.4788
 3103SOL    HW212202   5.658   0.779   0.365 -2.8707 -2.6123 -1.3748
 3104SOL     OW12203   4.583   1.150   1.126  0.2152  0.3341 -0.5989
 3104SOL    HW112204   4.597   1.219   1.061 -1.1935  1.5853  0.3574
 3104SOL    HW212205   4.490   1.130   1.119  0.8414 -2.6009 -1.8820
 3105SOL     OW12206   2.681   0.232   6.133 -0.1553 -0.1566 -0.1142
 3105SOL    HW112207   2.762   0.217   6.183 -0.7573  0.0698  0.9594
 3105SOL    HW212208   2.615   0.180   6.178 -1.4125  2.4060  1.2632
 3106SOL     OW12209   1.134   3.644   5.810 -0.1452 -0.2462  0.0945
 3106SOL    HW112210   1.062   3.587   5.839 -0.4043 -0.0438 -0.1464
 3106SOL    HW212211   1.116   3.728   5.852 -0.6406  0.1137 -0.7967
 3107SOL     OW12212   2.380   1.993   4.189  0.0479 -0.2285  0.4302
 3107SOL    HW112213   2.434   1.914   4.186  1.6453  0.8466 -0.3881
 3107SOL    HW212214   2.322   1.986   4.114  0.0302 -0.7207  0.4877
 3108SOL     OW12215   6.026   7.483   8.880  0.0084 -0.0958  0.0569
 3108SOL    HW112216   6.092   7.414   8.890  1.6687  1.5522  1.1146
 3108SOL    HW212217   6.053   7.531   8.803 -0.5576 -0.0026 -0.0870
 3109SOL     OW12218   4.547   4.885   5.214  0.0894 -0.2870 -0.1404
 3109SOL    HW112219   4.640   4.905   5.223  0.0494 -0.8817  2.2331
 3109SOL    HW212220   4.545   4.793   5.189  0.1740 -0.7300  1.3693
 3110SOL     OW12221   7.061   1.749   0.541  0.1422  0.5158 -0.0840
 3110SOL    HW112222   7.083   1.831   0.496  1.3402 -0.0459 -0.5751
 3110SOL    HW212223   7.006   1.776   0.614  0.2592  1.7299 -0.4164
 3111SOL     OW12224   9.236   8.579   4.091  0.0343 -0.2593 -0.3031
 3111SOL    HW112225   9.278   8.618   4.167 -0.0983 -1.0744  0.2014
 3111SOL    HW212226   9.152   8.548   4.122  0.5558 -1.8934 -0.3913
 3112SOL     OW12227   6.159   8.117   1.645 -0.9444 -0.3912 -0.4493
 3112SOL    HW112228   6.127   8.131   1.734  0.6982 -2.3950  0.5569
 3112SOL    HW212229   6.253   8.132   1.651 -0.9562  0.5237 -2.1350
 3113SOL     OW12230   2.521   2.584   2.761 -0.6657  0.4032 -0.5500
 3113SOL    HW112231   2.587   2.574   2.830 -1.9150  1.9324  0.9779
 3113SOL    HW212232   2.558   2.650   2.702 -1.2116  2.1197  0.9233
 3114SOL     OW12233   0.788   0.926   8.508 -0.0106  0.1240  0.3127
 3114SOL    HW112234   0.774   1.001   8.566  0.4871  0.6228 -0.1913
 3114SOL    HW212235   0.877   0.939   8.474  0.8585 -1.7542  1.7143
 3115SOL     OW12236   4.605   2.909   6.668  0.3092 -0.0173 -0.0631
 3115SOL    HW112237   4.591   2.817   6.692  0.3691  0.2771  1.1644
 3115SOL    HW212238   4.604   2.956   6.751  0.8313  1.0313 -0.6275
 3116SOL     OW12239   5.376   5.659   2.163 -0.1993 -0.1260 -0.0483
 3116SOL    HW112240   5.327   5.715   2.222 -1.8156 -2.7567  1.3183
 3116SOL    HW212241   5.312   5.630   2.098  0.8669  0.4403 -1.4202
 3117SOL     OW12242   3.917   6.281   3.371 -0.3631  0.1262  0.4241
 3117SOL    HW112243   3.964   6.210   3.414  0.2170  0.4916  0.4008
 3117SOL    HW212244   3.841   6.297   3.427 -0.0628  0.0381  0.8614
 3118SOL     OW12245   8.274   4.413   0.806  0.4922 -0.1344 -0.5967
 3118SOL    HW112246   8.323   4.345   0.759  1.0901  0.7082 -1.2078
 3118SOL    HW212247   8.325   4.493   0.793 -0.5836  0.5867 -0.4955
 3119SOL     OW12248   2.473   6.963   1.258  0.1585  0.2589 -0.2158
 3119SOL    HW112249   2.560   6.934   1.288  0.5271  2.4222  0.9677
 3119SOL    HW212250   2.491   7.015   1.180 -0.2948 -0.7702 -1.0366
 3120SOL     OW12251   9.157   0.838   0.603  0.1188 -0.4107 -0.4760
 3120SOL    HW112252   9.109   0.806   0.527 -0.3433 -2.1734  0.4935
 3120SOL    HW212253   9.248   0.816   0.586 -0.0469 -1.2319 -0.3346
 3121SOL     OW12254   1.716   6.102   7.195  0.0968  0.1064 -0.2091
 3121SOL    HW112255   1.630   6.134   7.166  0.2888  0.4515 -0.4046
 3121SOL    HW212256   1.700   6.065   7.282 -0.4476 -0.7472 -0.6572
 3122SOL     OW12257   2.809   6.222   4.791 -0.2895 -0.0719  0.4244
 3122SOL    HW112258   2.791   6.183   4.877 -2.0159  0.6005  0.4159
 3122SOL    HW212259   2.855   6.303   4.810 -0.2848 -0.1364  0.6875
 3123SOL     OW12260   6.867   5.759   1.969  0.2102 -0.0299  0.1439
 3123SOL    HW112261   6.812   5.763   1.890 -1.2584  2.7192  1.1876
 3123SOL    HW212262   6.815   5.708   2.031  0.7040 -0.9188 -0.1581
 3124SOL     OW12263   6.324   5.819   5.778  0.7490  0.0081  0.5732
 3124SOL    HW112264   6.243   5.804   5.827 -0.1649  0.1347 -0.8307
 3124SOL    HW212265   6.342   5.912   5.789  1.1408 -0.1786  1.5309
 3125SOL     OW12266   6.222   1.042   1.952  0.1994  0.3274 -0.5240
 3125SOL    HW112267   6.293   1.055   2.014 -1.4559  2.9449  1.0391
 3125SOL    HW212268   6.196   1.131   1.926 -0.9364 -0.6107 -2.9317
 3126SOL     OW12269   4.837   4.309   0.556  0.1632  0.0732 -0.0258
 3126SOL    HW112270   4.837   4.300   0.651 -0.9464  0.6587  0.0505
 3126SOL    HW212271   4.746   4.330   0.534  0.5526  0.6622 -1.1504
 3127SOL     OW12272   7.057   3.432   8.014  0.1608 -0.3633 -0.1820
 3127SOL    HW112273   7.070   3.479   8.096 -0.6195 -0.6588  0.1275
 3127SOL    HW212274   7.073   3.497   7.946  2.6690 -0.5798  0.1366
 3128SOL     OW12275   3.585   2.323   4.635  0.6215 -0.2961  0.4396
 3128SOL    HW112276   3.508   2.269   4.620  0.4451  0.1216 -0.2193
 3128SOL    HW212277   3.586   2.339   4.729 -0.9356  0.8867  0.3069
 3129SOL     OW12278   2.624   2.429   1.445  0.0282 -0.0238 -0.6083
 3129SOL    HW112279   2.562   2.493   1.407 -2.1079 -1.8300 -0.3790
 3129SOL    HW212280   2.578   2.394   1.522  2.0406 -0.3307  0.5275
 3130SOL     OW12281   0.177   2.918   5.380  0.2818  0.0188  0.2991
 3130SOL    HW112282   0.121   2.889   5.308  0.5071 -1.0369  0.5381
 3130SOL    HW212283   0.253   2.958   5.337  0.9960 -1.6885 -0.0972
 3131SOL     OW12284   1.717   6.741   0.220 -0.2050 -0.0296  0.5573
 3131SOL    HW112285   1.702   6.710   0.130 -0.9344  1.4538  0.1263
 3131SOL    HW212286   1.806   6.775   0.219  0.5240 -1.8268  0.9765
 3132SOL     OW12287   1.748   8.170   1.399  0.5850 -0.5934 -0.1148
 3132SOL    HW112288   1.724   8.148   1.309  0.0575 -0.4856  0.0005
 3132SOL    HW212289   1.688   8.119   1.453  0.1216  0.2358  0.1637
 3133SOL     OW12290   4.542   4.613   3.606  0.2380  0.6116  0.1749
 3133SOL    HW112291   4.634   4.600   3.627 -0.3467 -0.5958  2.2886
 3133SOL    HW212292   4.510   4.526   3.585 -0.5078  0.9719 -0.2190
 3134SOL     OW12293   7.325   8.494   9.212  0.3279  0.1232 -0.2979
 3134SOL    HW112294   7.335   8.459   9.123 -1.3297  0.2378 -0.5665
 3134SOL    HW212295   7.236   8.468   9.238  0.4314  0.9373  0.9512
 3135SOL     OW12296   6.141   3.541   2.594 -0.0081 -0.3574  0.1112
 3135SOL    HW112297   6.175   3.457   2.561 -0.7835 -1.2811  1.5610
 3135SOL    HW212298   6.053   3.547   2.557  0.0753 -0.1543 -0.0514
 3136SOL     OW12299   2.980   1.243   4.552 -0.3666  0.7731  0.4864
 3136SOL    HW112300   3.041   1.288   4.494 -0.8195  1.8203  0.7867
 3136SOL    HW212301   2.918   1.200   4.493  1.1861 -1.1492  0.1502
 3137SOL     OW12302   4.367   7.829   7.730 -1.0354  0.2971 -0.1978
 3137SOL    HW112303   4.320   7.785   7.660 -0.8034 -1.4997  0.7318
 3137SOL    HW212304   4.331   7.793   7.811 -0.5103  1.4836  0.6044
 3138SOL     OW12305   9.264   0.433   0.317 -0.3358 -0.5174 -0.0788
 3138SOL    HW112306   9.189   0.447   0.258  0.5901 -0.6059 -1.3085
 3138SOL    HW212307   9.248   0.346   0.355 -0.9952 -0.4208 -0.1117
 3139SOL     OW12308   3.411   0.052   3.996  0.1299  0.4642 -0.0077
 3139SOL    HW112309   3.446  -0.024   4.042  0.6118 -0.7722 -2.2874
 3139SOL    HW212310   3.488   0.105   3.975 -0.2963  2.2476  2.5384
 3140SOL     OW12311   0.183   2.232   5.152 -0.0495  0.4544  0.3497
 3140SOL    HW112312   0.236   2.186   5.218  2.1056 -0.2216 -1.7211
 3140SOL    HW212313   0.243   2.294   5.112 -1.1304  0.4587 -1.3572
 3141SOL     OW12314   5.045   5.651   8.248  0.4706  0.5137 -0.2238
 3141SOL    HW112315   5.032   5.664   8.154  0.0055 -1.8299 -0.5421
 3141SOL    HW212316   5.139   5.640   8.258  0.3922 -0.6346 -0.6472
 3142SOL     OW12317   8.689   4.216   1.977 -0.0718 -0.0820  0.5857
 3142SOL    HW112318   8.620   4.202   1.912  0.4778  0.1145 -0.0591
 3142SOL    HW212319   8.687   4.310   1.995  0.0983 -0.0588  0.4842
 3143SOL     OW12320   1.135   2.835   6.884  0.2878 -0.4674  0.3891
 3143SOL    HW112321   1.108   2.871   6.969  2.4033 -0.1845  0.9815
 3143SOL    HW212322   1.229   2.824   6.891  0.6935  0.5194 -2.3055
 3144SOL     OW12323   0.373   1.513   5.714 -1.0490  0.2409 -0.5878
 3144SOL    HW112324   0.337   1.576   5.652  0.0143 -0.2968 -1.7872
 3144SOL    HW212325   0.464   1.539   5.726 -0.9777 -0.2318  0.0029
 3145SOL     OW12326   2.926   5.004   4.720 -0.4732 -0.1182 -0.2588
 3145SOL    HW112327   3.005   5.012   4.668 -1.4651  1.2863 -1.6648
 3145SOL    HW212328   2.881   4.927   4.686  0.8146 -1.6999  1.4063
 3146SOL     OW12329   6.220   5.339   7.116  0.5675 -0.2981  0.4914
 3146SOL    HW112330   6.248   5.317   7.027  0.6854  0.7456  0.2559
 3146SOL    HW212331   6.126   5.319   7.118  0.5082 -0.0738  0.0388
 3147SOL     OW12332   6.058   4.711   8.309 -0.5411  0.0696 -0.4158
 3147SOL    HW112333   6.022   4.629   8.344 -2.7276  1.3957  0.6532
 3147SOL    HW212334   5.988   4.774   8.320  1.4734  2.3974 -0.1560
 3148SOL     OW12335   1.847   0.006   3.524  0.5213  0.4121 -0.0405
 3148SOL    HW112336   1.814   0.082   3.572 -1.2086 -0.7817  0.7755
 3148SOL    HW212337   1.803   0.010   3.439 -0.4750 -0.2630  0.4252
 3149SOL     OW12338   2.355   5.478   2.636  0.1280  0.7831 -0.2163
 3149SOL    HW112339   2.400   5.550   2.591 -0.5039  0.6513 -1.0842
 3149SOL    HW212340   2.278   5.461   2.583  1.2808 -1.9083 -1.2419
 3150SOL     OW12341   7.165   4.053   6.957 -0.2060  0.2036  0.1484
 3150SOL    HW112342   7.196   4.091   7.039 -1.7929 -0.7951  1.2866
 3150SOL    HW212343   7.089   4.107   6.933  0.5053  0.7557 -0.9190
 3151SOL     OW12344   3.241   3.476   1.791  0.0111  0.2509 -0.1848
 3151SOL    HW112345   3.326   3.489   1.833 -1.1120  0.8963  2.0971
 3151SOL    HW212346   3.215   3.563   1.762 -0.1297  0.1609 -0.3327
 3152SOL     OW12347   2.611   0.092   1.721 -0.0172  0.1005 -0.5667
 3152SOL    HW112348   2.612   0.184   1.748  0.8443 -0.0995  0.1456
 3152SOL    HW212349   2.640   0.044   1.799  3.3580 -0.4470 -1.9675
 3153SOL     OW12350   2.913   0.614   3.042 -0.2904  0.3098  0.5970
 3153SOL    HW112351   2.981   0.554   3.011 -2.1701  0.4212 -4.6833
 3153SOL    HW212352   2.957   0.698   3.053  0.8752 -0.1611 -0.3327
 3154SOL     OW12353   3.661   5.472   6.105 -0.0286 -0.7235  0.1099
 3154SOL    HW112354   3.709   5.425   6.173  0.2532 -0.2674  0.2317
 3154SOL    HW212355   3.659   5.563   6.135  1.6622 -0.1395 -1.3059
 3155SOL     OW12356   5.917   6.612   3.032  0.2956 -0.3527  0.0031
 3155SOL    HW112357   5.971   6.592   2.955  0.3736  1.2439 -0.3897
 3155SOL    HW212358   5.831   6.632   2.997 -0.1157 -1.1815  0.4928
 3156SOL     OW12359   2.668   2.752   0.042 -0.9027 -0.0904  0.2531
 3156SOL    HW112360   2.622   2.725  -0.038  0.2776  0.5252 -0.6716
 3156SOL    HW212361   2.657   2.678   0.102 -1.6363 -0.6537 -0.5487
 3157SOL     OW12362   3.964   0.109   0.610  0.7370  0.7247  0.0678
 3157SOL    HW112363   3.911   0.106   0.690  1.1303 -1.1525  0.3140
 3157SOL    HW212364   3.904   0.142   0.543 -0.6609 -0.8818  0.4389
 3158SOL     OW12365   7.910   6.418   5.368  0.9691  0.1272 -0.0200
 3158SOL    HW112366   7.860   6.498   5.380 -0.2063 -0.4522 -0.9089
 3158SOL    HW212367   7.847   6.354   5.335  2.0755 -0.9111 -0.2156
 3159SOL     OW12368   0.992   3.741   5.148 -0.1858  0.0562 -0.6425
 3159SOL    HW112369   0.997   3.834   5.126 -1.2163  0.2581 -0.0462
 3159SOL    HW212370   1.067   3.727   5.206  0.0735  0.4652 -0.8660
 3160SOL     OW12371   3.863   8.894   6.593 -0.2011  0.2351 -0.3215
 3160SOL    HW112372   3.919   8.817   6.603  0.5408  0.7986 -0.0532
 3160SOL    HW212373   3.775   8.861   6.607  0.1385 -0.4946  0.1893
 3161SOL     OW12374   7.669   3.252   1.175 -0.6367  0.3960  0.9261
 3161SOL    HW112375   7.669   3.183   1.241 -2.2232 -0.4371  0.1165
 3161SOL    HW212376   7.738   3.226   1.114 -2.1075 -1.2745 -0.1114
 3162SOL     OW12377   1.323   7.103   9.047 -0.1781  0.1514  0.5222
 3162SOL    HW112378   1.300   7.021   9.090  1.4061  0.1303  1.4104
 3162SOL    HW212379   1.240   7.139   9.016 -1.1452 -0.7715  1.9472
 3163SOL     OW12380   8.047   5.940   5.273 -0.8641  0.0132  0.2000
 3163SOL    HW112381   8.061   5.856   5.317 -2.0197 -0.7333 -0.8037
 3163SOL    HW212382   7.970   5.926   5.218 -1.0463  1.7256 -0.0350
 3164SOL     OW12383   5.549   3.098   4.283  0.1913 -0.1553 -0.1092
 3164SOL    HW112384   5.527   3.163   4.349  0.2066 -0.0802 -0.1788
 3164SOL    HW212385   5.612   3.141   4.226  0.3539 -0.2962 -0.0392
 3165SOL     OW12386   2.193   4.787   8.549 -0.3097 -0.9183 -0.1443
 3165SOL    HW112387   2.112   4.813   8.594  0.4724 -0.7095  1.1689
 3165SOL    HW212388   2.252   4.861   8.561  0.3905 -1.4419 -0.3160
 3166SOL     OW12389   3.002   7.098   2.944  0.6465  0.0863  0.1137
 3166SOL    HW112390   3.017   7.188   2.917  2.3579 -0.5377 -1.1485
 3166SOL    HW212391   2.999   7.048   2.863 -0.3992 -1.0074  0.7840
 3167SOL     OW12392   7.502   7.209   3.321  0.3500  0.0876  0.2952
 3167SOL    HW112393   7.536   7.297   3.335 -0.1606  0.2601  0.4842
 3167SOL    HW212394   7.551   7.154   3.381  0.1864  0.3582  0.6833
 3168SOL     OW12395   1.022   3.565   4.599 -0.1670 -0.0992  0.0219
 3168SOL    HW112396   1.104   3.514   4.600 -1.2004 -1.8815 -0.6424
 3168SOL    HW212397   1.019   3.609   4.684  0.9874 -0.8256  0.4609
 3169SOL     OW12398   1.305   0.026   4.834 -0.2757 -0.1698  0.2181
 3169SOL    HW112399   1.232  -0.022   4.872 -1.5203 -0.6046 -2.4602
 3169SOL    HW212400   1.281   0.118   4.844 -0.1984 -0.2389  1.1194
 3170SOL     OW12401   8.669   4.396   5.201 -0.3960  0.1851  0.1733
 3170SOL    HW112402   8.678   4.332   5.131  2.1929 -0.6362  1.1418
 3170SOL    HW212403   8.679   4.481   5.158 -0.2704 -0.2427 -0.6561
 3171SOL     OW12404   4.246   2.964   6.687  0.0525  0.0272  0.1014
 3171SOL    HW112405   4.244   2.881   6.638 -0.5633  0.5543 -0.8037
 3171SOL    HW212406   4.317   2.953   6.750  1.0280 -0.6105 -1.0565
 3172SOL     OW12407   1.400   1.295   7.048  1.0292  0.3765 -0.4809
 3172SOL    HW112408   1.374   1.340   6.968  1.3168 -0.6473 -1.1806
 3172SOL    HW212409   1.333   1.319   7.112  0.3004  0.5337 -1.2732
 3173SOL     OW12410   0.261   7.108   4.385 -0.5198  0.1786 -0.6319
 3173SOL    HW112411   0.315   7.133   4.310 -0.3621 -0.0453 -0.5945
 3173SOL    HW212412   0.321   7.113   4.460 -0.6307  0.2274 -0.5460
 3174SOL     OW12413   0.136   2.268   0.765 -0.6643 -0.0596  0.3153
 3174SOL    HW112414   0.132   2.362   0.748  3.1620  0.1041 -0.7674
 3174SOL    HW212415   0.091   2.228   0.690  1.4800  0.9616 -1.6528
 3175SOL     OW12416   0.730   2.630   3.535  0.2219  0.6257  0.1523
 3175SOL    HW112417   0.651   2.583   3.563  1.1662 -1.6480 -0.7670
 3175SOL    HW212418   0.800   2.592   3.588  0.8258  2.1413  0.4843
 3176SOL     OW12419   3.135   6.445   8.219 -0.5054 -0.6200 -0.0063
 3176SOL    HW112420   3.171   6.393   8.147  0.5319 -0.0688  0.1006
 3176SOL    HW212421   3.188   6.420   8.295  0.4569  1.0724 -0.0884
 3177SOL     OW12422   0.035   7.757   6.260 -0.1410  0.5071  0.3250
 3177SOL    HW112423  -0.012   7.732   6.181  0.5692  0.3198 -0.0459
 3177SOL    HW212424   0.074   7.842   6.239  2.0145 -0.5954 -0.4085
 3178SOL     OW12425   2.386   0.927   0.983 -0.0701 -0.0828  0.1313
 3178SOL    HW112426   2.429   0.844   1.002 -1.5117 -0.7052  0.8665
 3178SOL    HW212427   2.293   0.906   0.983 -0.6288  1.8829  2.4415
 3179SOL     OW12428   4.226   7.457   1.646 -0.1552 -0.2993 -0.6070
 3179SOL    HW112429   4.255   7.372   1.680  0.8510  0.0980 -0.4324
 3179SOL    HW212430   4.193   7.503   1.723  0.2845 -0.1472 -0.5015
 3180SOL     OW12431   3.007   8.477   0.759  0.4748  0.4267 -0.2066
 3180SOL    HW112432   2.957   8.484   0.678 -0.5306 -1.9382  0.1442
 3180SOL    HW212433   3.098   8.493   0.734  0.5024 -2.3333 -2.2569
 3181SOL     OW12434   7.431   7.128   1.887 -0.5003 -0.7502 -0.1888
 3181SOL    HW112435   7.419   7.223   1.888  0.2512 -0.6186 -1.3454
 3181SOL    HW212436   7.476   7.108   1.969 -1.0734 -0.1733  0.2704
 3182SOL     OW12437   7.029   0.873   4.823 -0.3253  0.1142  0.3506
 3182SOL    HW112438   7.100   0.826   4.780  0.0369  0.2503  0.7822
 3182SOL    HW212439   7.062   0.889   4.912 -0.5911  0.8376  0.3251
 3183SOL     OW12440   8.701   0.850   6.068 -0.3048  0.1616  0.2968
 3183SOL    HW112441   8.768   0.903   6.026  1.4188 -0.3839  2.2164
 3183SOL    HW212442   8.692   0.886   6.156  0.1214 -1.9710  1.2826
 3184SOL     OW12443   2.507   8.674   1.916 -0.3067  0.3468 -0.1844
 3184SOL    HW112444   2.563   8.738   1.958 -0.7982  0.8852 -0.3396
 3184SOL    HW212445   2.535   8.672   1.825 -0.3607  0.4211 -0.2029
 3185SOL     OW12446   0.322   7.080   4.714 -0.0379 -0.1873  0.3558
 3185SOL    HW112447   0.361   7.063   4.800  0.2441 -1.5037 -0.0033
 3185SOL    HW212448   0.397   7.090   4.655 -0.2086 -0.9062 -0.0046
 3186SOL     OW12449   5.640   9.095   1.712 -0.0299 -0.5711  0.3951
 3186SOL    HW112450   5.718   9.096   1.655  0.3028  1.7101  0.8269
 3186SOL    HW212451   5.674   9.116   1.799 -1.2230  1.3422  0.4286
 3187SOL     OW12452   1.018   7.442   2.846  0.1276  0.1073  0.0302
 3187SOL    HW112453   0.977   7.529   2.844 -0.1543 -0.0459 -1.0783
 3187SOL    HW212454   0.970   7.395   2.914 -0.2630  0.5495  0.0652
 3188SOL     OW12455   7.133   0.688   2.178 -0.4241 -0.1007  0.4774
 3188SOL    HW112456   7.052   0.725   2.145  0.6181 -0.1178 -2.3579
 3188SOL    HW212457   7.190   0.764   2.193 -0.4979 -0.1706  1.1340
 3189SOL     OW12458   9.110   5.015   3.780  0.4818 -0.7827 -0.0720
 3189SOL    HW112459   9.170   5.034   3.708  0.1374  0.0602 -0.1509
 3189SOL    HW212460   9.155   4.950   3.833  2.0820  0.8302  0.6280
 3190SOL     OW12461   8.380   6.798   6.547  0.4773 -0.0664 -0.6391
 3190SOL    HW112462   8.305   6.741   6.529  1.5599 -1.4974 -0.7900
 3190SOL    HW212463   8.438   6.785   6.473  0.7206  1.3562 -0.7323
 3191SOL     OW12464   4.617   4.118   6.749  0.3399  0.4626  0.2276
 3191SOL    HW112465   4.582   4.205   6.767  1.6036  1.4096 -1.5730
 3191SOL    HW212466   4.710   4.125   6.770  0.1860 -0.9409  1.5237
 3192SOL     OW12467   0.303   1.508   8.738  0.0051 -0.1144  0.1610
 3192SOL    HW112468   0.293   1.448   8.664  0.5976 -1.4059  1.0886
 3192SOL    HW212469   0.361   1.577   8.706  0.8534 -1.0502 -0.3683
 3193SOL     OW12470   2.606   2.678   3.625  0.2506  0.3857 -0.3631
 3193SOL    HW112471   2.542   2.693   3.556 -0.2590 -0.1714 -0.0228
 3193SOL    HW212472   2.607   2.759   3.676 -0.7928  0.0999  0.1206
 3194SOL     OW12473   6.573   6.584   6.117  0.3816  0.0105  0.2958
 3194SOL    HW112474   6.519   6.640   6.173 -1.1952  0.4363 -1.5425
 3194SOL    HW212475   6.542   6.495   6.134 -1.6673  0.3265 -1.4237
 3195SOL     OW12476   6.875   3.705   7.958 -0.1373  0.1945 -0.2508
 3195SOL    HW112477   6.964   3.711   7.923  1.0803  0.2743  2.5485
 3195SOL    HW212478   6.848   3.796   7.970 -0.6869  0.1712 -1.2544
 3196SOL     OW12479   0.905   5.322   2.052 -0.4471 -0.0925  0.6636
 3196SOL    HW112480   0.926   5.396   2.109  1.2964  0.3141 -0.3997
 3196SOL    HW212481   0.942   5.347   1.967 -1.6870 -1.2941 -0.2655
 3197SOL     OW12482   0.862   3.758   8.199  0.3425 -0.2767 -0.1341
 3197SOL    HW112483   0.957   3.761   8.210  0.1972  0.6814  1.0489
 3197SOL    HW212484   0.839   3.667   8.213  0.9100 -0.2084  1.3851
 3198SOL     OW12485   0.272   8.100   6.694 -0.2456 -0.0147 -0.3042
 3198SOL    HW112486   0.210   8.027   6.695 -1.2773  0.8349  0.2950
 3198SOL    HW212487   0.225   8.172   6.738  0.6795  1.0529 -1.0090
 3199SOL     OW12488   4.627   0.222   7.765 -0.5687 -0.4614 -0.1929
 3199SOL    HW112489   4.709   0.222   7.813 -0.9280 -2.1555  0.4943
 3199SOL    HW212490   4.563   0.261   7.825 -0.2683  1.0402 -0.8005
 3200SOL     OW12491   5.500   6.224   8.032  0.9398 -0.5304 -0.3018
 3200SOL    HW112492   5.592   6.200   8.040  0.9684 -0.1497  0.5931
 3200SOL    HW212493   5.470   6.176   7.955  1.3889 -2.2578  0.5331
 3201SOL     OW12494   4.886   4.055   7.218  0.3119 -0.0533  0.5874
 3201SOL    HW112495   4.815   4.000   7.248 -0.7117  0.7099 -0.3732
 3201SOL    HW212496   4.861   4.083   7.130  1.5310  0.6798  0.4355
 3202SOL     OW12497   5.261   4.063   7.875  0.0562 -0.0246  0.1014
 3202SOL    HW112498   5.284   4.125   7.805 -0.6588 -2.0204 -2.0112
 3202SOL    HW212499   5.178   4.097   7.910  0.1867  0.7540 -0.3065
 3203SOL     OW12500   5.977   3.397   4.218 -0.0071 -0.4475  0.1150
 3203SOL    HW112501   5.935   3.476   4.184 -2.6075 -0.5922  2.5770
 3203SOL    HW212502   5.938   3.325   4.167 -0.2097 -0.3507  0.1321
 3204SOL     OW12503   5.657   6.677   1.206  0.2934 -0.0606  0.0517
 3204SOL    HW112504   5.691   6.713   1.124  2.5468 -0.9520  0.5065
 3204SOL    HW212505   5.597   6.744   1.239 -2.9182 -0.8213 -3.5865
 3205SOL     OW12506   6.726   1.484   2.394 -0.4754 -0.0818  0.2404
 3205SOL    HW112507   6.814   1.485   2.356 -0.3995 -0.6138  0.3873
 3205SOL    HW212508   6.741   1.469   2.487 -0.6647  1.1422  0.4773
 3206SOL     OW12509   0.359   2.596   0.466  0.4240 -0.2348  0.5949
 3206SOL    HW112510   0.361   2.690   0.450  1.7739 -0.4304 -0.5876
 3206SOL    HW212511   0.383   2.586   0.558  1.9738  0.5176  0.3041
 3207SOL     OW12512   7.289   6.261   2.391  0.6934  0.0033  0.2550
 3207SOL    HW112513   7.239   6.303   2.321 -0.5225 -2.6249 -0.6126
 3207SOL    HW212514   7.255   6.300   2.472 -0.2099  0.8050 -0.4912
 3208SOL     OW12515   5.196   0.755   6.381 -0.2619  0.0257 -0.1191
 3208SOL    HW112516   5.145   0.704   6.445 -0.5753  0.0639 -0.3388
 3208SOL    HW212517   5.219   0.692   6.313 -0.3634  0.0991 -0.2222
 3209SOL     OW12518   7.184   7.615   6.893 -0.2252 -0.2547 -0.0477
 3209SOL    HW112519   7.160   7.660   6.812 -1.1906 -1.9158 -0.7229
 3209SOL    HW212520   7.181   7.522   6.871  3.5286 -0.7328  0.7829
 3210SOL     OW12521   0.019   5.225   5.312  0.0075  0.1842  0.0935
 3210SOL    HW112522   0.086   5.275   5.265 -0.2489 -0.8431 -1.4211
 3210SOL    HW212523   0.046   5.134   5.304 -1.3264 -0.2054 -0.1355
 3211SOL     OW12524   8.775   7.784   9.027 -0.8394  0.2825  0.2026
 3211SOL    HW112525   8.757   7.694   9.052 -0.5673  0.3157  0.5300
 3211SOL    HW212526   8.748   7.790   8.935 -1.7392  0.1263  0.4481
 3212SOL     OW12527   7.910   3.848   2.238  0.1394 -0.1077  0.1482
 3212SOL    HW112528   7.936   3.845   2.330 -1.7725  0.5069  0.7654
 3212SOL    HW212529   7.869   3.934   2.228 -0.5809 -0.5634 -0.9998
 3213SOL     OW12530   5.997   1.165   2.787 -0.2983 -0.8227  0.4210
 3213SOL    HW112531   5.962   1.091   2.837  0.2315 -0.7169  0.9572
 3213SOL    HW212532   5.950   1.241   2.822 -2.3630 -1.0872 -1.5325
 3214SOL     OW12533   2.727   8.360   9.078  0.1877  0.3438 -0.0781
 3214SOL    HW112534   2.812   8.404   9.087  0.4812  0.1599 -1.6954
 3214SOL    HW212535   2.672   8.422   9.031  0.5406 -0.8534 -2.1877
 3215SOL     OW12536   8.870   1.031   5.214  0.2975 -0.1487 -0.4831
 3215SOL    HW112537   8.935   0.962   5.229  1.4356  0.6852 -1.4108
 3215SOL    HW212538   8.821   1.001   5.137 -1.5714 -1.5576  1.1474
 3216SOL     OW12539   5.301   8.982   2.390  0.3126  0.1348 -0.0164
 3216SOL    HW112540   5.320   9.074   2.375 -0.2150  0.2308 -0.1386
 3216SOL    HW212541   5.270   8.950   2.305 -0.3527  0.0706  0.2450
 3217SOL     OW12542   3.737   0.849   8.220 -0.2127  0.2267 -0.5461
 3217SOL    HW112543   3.729   0.921   8.282  0.9833  0.5347 -0.7157
 3217SOL    HW212544   3.659   0.796   8.233  0.0000  0.2958  1.2020
 3218SOL     OW12545   6.123   6.027   3.341  0.2595  0.1046 -0.1763
 3218SOL    HW112546   6.033   6.059   3.341 -0.2625 -1.0269  2.7792
 3218SOL    HW212547   6.130   5.976   3.260 -1.1562  1.6437 -1.3337
 3219SOL     OW12548   1.199   1.993   0.689 -0.3464  0.6617 -0.2301
 3219SOL    HW112549   1.291   1.976   0.671  0.0802  0.1106  2.0970
 3219SOL    HW212550   1.159   1.906   0.694 -0.2998  0.7034  1.7325
 3220SOL     OW12551   3.166   2.099   8.690 -0.2285  0.1266  0.3364
 3220SOL    HW112552   3.081   2.076   8.652 -0.5108 -0.1786  1.1359
 3220SOL    HW212553   3.213   2.144   8.619 -1.0708  0.3354 -0.0953
 3221SOL     OW12554   3.784   6.049   4.775  0.0468 -0.1608  0.0485
 3221SOL    HW112555   3.765   6.143   4.769  1.9967  0.4249  1.7539
 3221SOL    HW212556   3.853   6.034   4.711  0.7164 -0.1189  0.7547
 3222SOL     OW12557   1.267   7.790   0.894  0.6989  0.1991  0.0723
 3222SOL    HW112558   1.298   7.807   0.983  0.4495 -1.8841  0.5867
 3222SOL    HW212559   1.344   7.756   0.848  0.3879 -0.4324  0.0099
 3223SOL     OW12560   6.261   4.250   4.709  0.2907  0.0792  0.0280
 3223SOL    HW112561   6.206   4.171   4.712 -0.6338  0.6654 -0.9109
 3223SOL    HW212562   6.300   4.255   4.796 -0.0865 -1.1020  0.2815
 3224SOL     OW12563   1.801   5.281   0.406 -0.7974  0.1713  0.4096
 3224SOL    HW112564   1.800   5.353   0.469 -1.2768  0.8996 -0.4024
 3224SOL    HW212565   1.848   5.317   0.330 -2.0769  0.0515 -0.4662
 3225SOL     OW12566   5.449   2.884   4.131 -0.6672  0.2495  0.3737
 3225SOL    HW112567   5.467   2.967   4.175 -0.4095  1.0416 -1.1679
 3225SOL    HW212568   5.523   2.871   4.072  0.3651 -2.1579  2.0293
 3226SOL     OW12569   0.215   7.856   7.825  0.4558 -0.5831  0.0824
 3226SOL    HW112570   0.230   7.801   7.748  0.2749 -2.3086  1.2297
 3226SOL    HW212571   0.228   7.797   7.899  0.1258  0.9157  1.3699
 3227SOL     OW12572   3.413   0.353   4.952 -0.3986  0.5026 -0.3563
 3227SOL    HW112573   3.322   0.382   4.959 -0.6811 -0.4398  0.0321
 3227SOL    HW212574   3.443   0.346   5.043  0.2956  1.4926 -0.4955
 3228SOL     OW12575   8.450   5.341   0.987  0.4476 -0.5006 -0.0381
 3228SOL    HW112576   8.492   5.258   1.009  1.1094 -0.5273 -1.3313
 3228SOL    HW212577   8.361   5.317   0.962  0.9525 -0.9766 -1.4645
 3229SOL     OW12578   2.176   5.583   3.057 -0.2134  0.1613 -0.3558
 3229SOL    HW112579   2.212   5.672   3.057 -0.0214  0.0891 -1.4126
 3229SOL    HW212580   2.240   5.532   3.107  1.1987  0.0363 -2.2081
 3230SOL     OW12581   7.961   1.308   3.765 -0.2336 -0.7085 -0.0865
 3230SOL    HW112582   7.873   1.285   3.796  0.1795 -1.4114  0.5861
 3230SOL    HW212583   8.006   1.224   3.757  0.4691 -0.3261 -0.1499
 3231SOL     OW12584   3.314   8.543   2.859  0.4971  0.0986  0.3391
 3231SOL    HW112585   3.233   8.570   2.816  1.1382  0.4056 -0.6975
 3231SOL    HW212586   3.317   8.595   2.939 -0.6929 -0.4531  0.7671
 3232SOL     OW12587   0.543   5.335   3.433  0.4743  0.0910  0.3201
 3232SOL    HW112588   0.484   5.265   3.404  1.1107  0.5017 -2.1712
 3232SOL    HW212589   0.498   5.374   3.508 -1.9846 -0.2449 -0.8781
 3233SOL     OW12590   3.113   2.770   5.832  0.3520  0.1131 -0.0374
 3233SOL    HW112591   3.140   2.861   5.830  0.5891  0.2163  2.9486
 3233SOL    HW212592   3.022   2.771   5.803  0.6021  1.1563 -0.8326
 3234SOL     OW12593   4.825   8.229   3.141  0.5097  0.5748 -0.3609
 3234SOL    HW112594   4.750   8.179   3.107  0.1218  0.6362  0.3759
 3234SOL    HW212595   4.786   8.308   3.179  1.1935  1.8769 -2.2411
 3235SOL     OW12596   7.300   6.568   5.744  0.6744 -0.7808 -0.1811
 3235SOL    HW112597   7.207   6.585   5.732  0.4047 -0.6583  1.7895
 3235SOL    HW212598   7.325   6.619   5.821  2.3298 -0.9825 -0.5396
 3236SOL     OW12599   4.001   7.260   1.776  0.2322  0.0815  0.4373
 3236SOL    HW112600   3.919   7.213   1.758  0.1469 -0.1498  1.3558
 3236SOL    HW212601   4.025   7.300   1.692 -1.4777  1.1830  0.4105
 3237SOL     OW12602   5.878   6.391   7.198  0.4957  0.0971 -0.1831
 3237SOL    HW112603   5.936   6.450   7.149  1.0478 -0.1739  0.1380
 3237SOL    HW212604   5.837   6.446   7.264  1.8395 -0.0684  0.8367
 3238SOL     OW12605   1.524   4.405   8.168  0.3957 -0.4982  1.5584
 3238SOL    HW112606   1.586   4.465   8.210  0.0058  0.0592  1.3629
 3238SOL    HW212607   1.440   4.452   8.170  0.6263  0.2299 -1.1325
 3239SOL     OW12608   5.391   7.876   6.830  0.0256 -0.0106  0.0453
 3239SOL    HW112609   5.433   7.832   6.756  0.4316  1.3725 -0.5808
 3239SOL    HW212610   5.450   7.862   6.903 -0.7011 -1.9558  0.3009
 3240SOL     OW12611   0.601   2.670   4.178  0.1682 -0.0892 -0.0372
 3240SOL    HW112612   0.638   2.738   4.234 -0.7685 -0.1373  0.6709
 3240SOL    HW212613   0.587   2.595   4.237 -1.1063 -0.0404 -0.2431
 3241SOL     OW12614   7.143   7.097   3.914 -0.2036 -0.0121 -0.1956
 3241SOL    HW112615   7.228   7.054   3.928 -0.5336 -2.1340 -3.7255
 3241SOL    HW212616   7.159   7.189   3.938  2.5364 -0.6743  0.9311
 3242SOL     OW12617   2.292   5.179   7.938 -0.1462  0.1426 -0.1497
 3242SOL    HW112618   2.215   5.149   7.889 -0.8905 -0.1638  1.1573
 3242SOL    HW212619   2.310   5.108   8.000 -0.1491  1.1427  1.0337
 3243SOL     OW12620   1.997   7.810   0.060 -0.6174  0.1840  0.7619
 3243SOL    HW112621   2.016   7.729   0.012 -2.7996  0.3201 -0.4815
 3243SOL    HW212622   2.052   7.876   0.017 -1.0805 -0.0764 -0.2610
 3244SOL     OW12623   6.189   4.094   8.016  0.2887 -0.8150 -0.2098
 3244SOL    HW112624   6.199   4.189   8.009  1.9024 -0.8989  0.4852
 3244SOL    HW212625   6.191   4.076   8.110 -2.9743 -1.3165 -0.1125
 3245SOL     OW12626   2.927   5.094   6.190 -0.0273 -0.5263 -0.4683
 3245SOL    HW112627   2.965   5.134   6.268  0.3746 -0.2727 -0.7971
 3245SOL    HW212628   2.872   5.023   6.224 -0.3277 -0.0324  0.0799
 3246SOL     OW12629   5.358   9.164   6.681 -0.4312  0.0850  0.3822
 3246SOL    HW112630   5.368   9.094   6.745  0.3037  0.2127  0.4217
 3246SOL    HW212631   5.374   9.121   6.597  0.6516  0.3116  0.4536
 3247SOL     OW12632   4.280   7.819   3.440 -0.6551 -0.2695 -0.1296
 3247SOL    HW112633   4.319   7.735   3.463 -1.0823 -0.5331 -0.3540
 3247SOL    HW212634   4.352   7.882   3.448 -0.4959 -0.5432  0.7250
 3248SOL     OW12635   4.609   7.956   4.325 -0.2523  0.0861 -0.1466
 3248SOL    HW112636   4.516   7.938   4.319 -0.2393  0.3174 -1.3840
 3248SOL    HW212637   4.641   7.945   4.235  0.8163  0.4841  0.1689
 3249SOL     OW12638   4.123   5.918   0.821 -0.3309 -0.2794 -0.3120
 3249SOL    HW112639   4.215   5.918   0.849 -0.2610 -1.6057 -0.4830
 3249SOL    HW212640   4.087   5.838   0.858 -1.4783  0.3088 -0.1155
 3250SOL     OW12641   0.575   8.897   6.164 -0.1392 -0.1422 -0.0611
 3250SOL    HW112642   0.506   8.921   6.102 -0.5923  0.3803  0.6413
 3250SOL    HW212643   0.546   8.813   6.201 -1.7337  1.2706  2.1274
 3251SOL     OW12644   2.134   6.121   0.672 -0.8933  0.2494 -0.1886
 3251SOL    HW112645   2.200   6.060   0.705  0.8103  1.8832 -0.4185
 3251SOL    HW212646   2.065   6.120   0.738  1.4986  1.9310  2.5268
 3252SOL     OW12647   0.375   5.007   2.538  0.8727  0.0542  0.1082
 3252SOL    HW112648   0.423   5.035   2.616  1.2516 -1.3665  0.4088
 3252SOL    HW212649   0.415   4.924   2.513  0.6425  0.3940 -1.5133
 3253SOL     OW12650   5.130   6.165   1.141 -0.2741  0.1246 -0.0021
 3253SOL    HW112651   5.193   6.237   1.149 -3.0712  2.7651  0.3205
 3253SOL    HW212652   5.115   6.137   1.231 -0.7514  0.6683  0.0957
 3254SOL     OW12653   9.073   1.532   1.352 -0.3685 -0.1752  0.5930
 3254SOL    HW112654   9.056   1.509   1.260 -0.7699  1.6128  0.1918
 3254SOL    HW212655   9.095   1.449   1.393  0.1552 -0.9728 -1.1989
 3255SOL     OW12656   3.408   8.241   8.856  0.3807 -0.2762  0.2600
 3255SOL    HW112657   3.407   8.330   8.819 -1.4262  0.8858  2.8030
 3255SOL    HW212658   3.365   8.187   8.789 -0.0577  1.0875 -0.6090
 3256SOL     OW12659   1.786   0.138   8.639  0.0735 -0.1348 -0.6957
 3256SOL    HW112660   1.809   0.204   8.573  0.5421  1.5515  1.0524
 3256SOL    HW212661   1.870   0.109   8.675 -0.2156  0.4190  0.4776
 3257SOL     OW12662   4.310   4.417   6.130  0.0382  0.0375 -0.1196
 3257SOL    HW112663   4.308   4.485   6.197  1.8805  0.2902 -0.2769
 3257SOL    HW212664   4.398   4.380   6.135 -0.1196 -0.6532 -1.7026
 3258SOL     OW12665   5.178   3.125   8.666 -0.2971  0.1845 -0.0011
 3258SOL    HW112666   5.232   3.205   8.664  0.7661 -0.4686  1.3984
 3258SOL    HW212667   5.229   3.061   8.616 -0.5365  0.0025 -0.0140
 3259SOL     OW12668   0.272   8.340   5.785  0.3207 -0.5450 -0.0711
 3259SOL    HW112669   0.235   8.301   5.705 -0.2044 -3.3485  1.4207
 3259SOL    HW212670   0.229   8.425   5.791 -0.9764 -1.0053 -1.8353
 3260SOL     OW12671   2.562   4.899   0.318  0.4701 -0.4025 -0.2199
 3260SOL    HW112672   2.655   4.881   0.333  0.1446  0.3605  3.8375
 3260SOL    HW212673   2.551   4.991   0.344 -1.6549 -0.9406  0.9849
 3261SOL     OW12674   3.354   3.040   5.259  0.4897 -0.1465  0.2911
 3261SOL    HW112675   3.272   3.088   5.257  0.8259  0.4944  1.0753
 3261SOL    HW212676   3.363   3.003   5.171 -0.2938  0.3501 -0.0074
 3262SOL     OW12677   8.858   5.525   3.913  0.2592  0.0540 -0.2522
 3262SOL    HW112678   8.779   5.477   3.938  0.0581  0.3840 -0.2588
 3262SOL    HW212679   8.917   5.456   3.881 -0.3939 -0.0928 -1.2021
 3263SOL     OW12680   6.037   1.804   1.279  0.7598 -0.3722  0.1896
 3263SOL    HW112681   5.973   1.844   1.221  0.9807  1.7258  1.3046
 3263SOL    HW212682   6.088   1.745   1.223 -0.9001 -0.6586 -1.0829
 3264SOL     OW12683   7.597   7.619   0.148  0.0585 -0.2665  0.1637
 3264SOL    HW112684   7.642   7.535   0.144 -0.1079 -0.3626  0.2778
 3264SOL    HW212685   7.507   7.597   0.174 -0.7492 -0.3348 -2.3520
 3265SOL     OW12686   1.768   2.026   8.208 -0.1851  0.3828 -0.1670
 3265SOL    HW112687   1.743   2.062   8.123  1.2983 -1.2396 -1.3640
 3265SOL    HW212688   1.721   2.080   8.271 -1.3879  1.6146 -1.9960
 3266SOL     OW12689   2.890   6.915   5.370 -0.0902  0.3103  0.0807
 3266SOL    HW112690   2.866   7.006   5.354  0.2858  0.5346  0.7619
 3266SOL    HW212691   2.837   6.865   5.308 -0.8357  0.9410  0.1990
 3267SOL     OW12692   5.333   1.973   3.879 -0.0304  0.0303 -0.1531
 3267SOL    HW112693   5.239   1.988   3.875  0.2271  1.8967  0.0679
 3267SOL    HW212694   5.352   1.919   3.802 -1.2055 -0.0372 -0.4147
 3268SOL     OW12695   3.652   5.212   7.265 -0.1683 -0.9146  0.1233
 3268SOL    HW112696   3.648   5.161   7.346  1.6950 -2.6930 -0.8175
 3268SOL    HW212697   3.728   5.177   7.219  1.0986  2.5979 -0.7254
 3269SOL     OW12698   3.942   3.354   7.366 -0.5345  0.6779 -0.5696
 3269SOL    HW112699   3.949   3.375   7.273  0.2404  0.6380 -0.5305
 3269SOL    HW212700   3.850   3.329   7.379 -0.6340  0.6316 -1.3305
 3270SOL     OW12701   3.808   5.207   0.057 -0.0585 -0.4189 -0.7376
 3270SOL    HW112702   3.736   5.184   0.115 -0.1717  2.1133  0.2830
 3270SOL    HW212703   3.784   5.172  -0.028 -1.8282 -0.8042 -0.1112
 3271SOL     OW12704   6.188   8.562   1.998  0.3324  0.3421 -0.4762
 3271SOL    HW112705   6.148   8.557   1.911  1.0313 -0.0907 -0.7874
 3271SOL    HW212706   6.282   8.567   1.980  0.3830  2.8471  0.1766
 3272SOL     OW12707   5.458   0.709   4.540 -0.2070 -0.1517 -0.0309
 3272SOL    HW112708   5.417   0.636   4.585 -0.8891  0.4743  0.3795
 3272SOL    HW212709   5.551   0.685   4.533 -0.4226 -1.0398  0.1029
 3273SOL     OW12710   6.410   6.651   6.778 -0.0407 -0.5156 -0.6566
 3273SOL    HW112711   6.443   6.576   6.728  1.2574  0.0224 -0.6374
 3273SOL    HW212712   6.316   6.653   6.759 -0.2438 -2.5647 -0.1049
 3274SOL     OW12713   3.853   7.582   0.510 -0.1892 -0.1259  0.0559
 3274SOL    HW112714   3.840   7.675   0.490  0.9026  0.0782  0.2269
 3274SOL    HW212715   3.934   7.559   0.464  0.3843 -0.5850  1.2597
 3275SOL     OW12716   7.914   0.401   7.000  0.7488  0.0230  0.3236
 3275SOL    HW112717   7.863   0.429   7.075  0.4513  0.5914 -0.0864
 3275SOL    HW212718   7.992   0.456   7.001  0.4991  0.3925 -0.0756
 3276SOL     OW12719   8.649   4.278   6.655  0.2875 -0.2509 -0.1287
 3276SOL    HW112720   8.585   4.335   6.613 -0.1312 -0.2481  0.4959
 3276SOL    HW212721   8.691   4.231   6.583  1.0940  1.3050 -0.7276
 3277SOL     OW12722   6.828   0.543   0.152  0.2958 -0.1154 -0.3637
 3277SOL    HW112723   6.752   0.582   0.196 -1.3901 -2.4254 -1.0298
 3277SOL    HW212724   6.900   0.556   0.212 -1.8440 -3.0570  3.2752
 3278SOL     OW12725   5.000   5.976   1.606  0.4274 -0.2046 -0.2282
 3278SOL    HW112726   5.009   5.982   1.701 -1.1649  3.1974 -0.1474
 3278SOL    HW212727   4.906   5.963   1.592  0.7646 -1.6238 -1.3795
 3279SOL     OW12728   3.589   3.860   1.890  0.2975 -0.3581 -0.0031
 3279SOL    HW112729   3.585   3.778   1.939 -0.1625  0.4785  1.4590
 3279SOL    HW212730   3.498   3.890   1.887  0.3140 -0.4099 -1.4534
 3280SOL     OW12731   0.960   8.226   2.173 -0.7507 -0.3757 -0.6884
 3280SOL    HW112732   0.939   8.273   2.092  0.0578  0.6479 -0.3259
 3280SOL    HW212733   0.953   8.293   2.242  0.3587 -0.7956 -0.1518
 3281SOL     OW12734   8.649   1.135   0.553 -0.3396 -0.3290  0.2262
 3281SOL    HW112735   8.662   1.048   0.592  0.0206  0.2978  1.5383
 3281SOL    HW212736   8.611   1.188   0.623 -0.7878  0.5172 -0.6385
 3282SOL     OW12737   3.108   0.869   4.198  0.2751  0.1255  0.5821
 3282SOL    HW112738   3.146   0.955   4.218  0.8980 -0.4140  1.8125
 3282SOL    HW212739   3.018   0.874   4.229 -0.2791  0.9208 -1.0185
 3283SOL     OW12740   1.300   3.607   5.017  0.1746 -0.0968  0.5632
 3283SOL    HW112741   1.340   3.670   4.957 -0.3482 -0.5802 -0.3195
 3283SOL    HW212742   1.277   3.658   5.094 -1.1551  1.0202 -0.5273
 3284SOL     OW12743   0.109   1.494   6.544  0.2044 -0.3749 -0.0100
 3284SOL    HW112744   0.064   1.576   6.566 -0.4566 -0.8644  0.5145
 3284SOL    HW212745   0.099   1.440   6.623 -0.0908 -1.2727 -0.6468
 3285SOL     OW12746   0.323   0.231   1.676  0.1376  0.0536  0.7431
 3285SOL    HW112747   0.347   0.150   1.720 -1.3645  0.0203  1.5745
 3285SOL    HW212748   0.377   0.298   1.718  1.5889 -0.5227 -0.1378
 3286SOL     OW12749   6.982   4.052   8.485 -0.3715  0.3181  0.3223
 3286SOL    HW112750   6.921   4.010   8.425 -2.0570  1.6372  1.0127
 3286SOL    HW212751   7.042   4.102   8.429 -2.0822  1.7497 -0.3245
 3287SOL     OW12752   3.659   0.575   7.784  0.2892  0.1052  0.2562
 3287SOL    HW112753   3.607   0.537   7.855  0.6494  0.5167  0.7488
 3287SOL    HW212754   3.676   0.502   7.725 -0.9193 -0.0134  0.0434
 3288SOL     OW12755   9.230   0.633   3.245  0.0036  0.4346  0.3854
 3288SOL    HW112756   9.246   0.627   3.339 -0.4411  2.9276  0.6786
 3288SOL    HW212757   9.308   0.675   3.210  0.3920 -0.9367 -0.4818
 3289SOL     OW12758   7.169   8.005   6.313 -0.3735 -0.3371  0.0236
 3289SOL    HW112759   7.081   7.989   6.279 -2.1225  0.7702  3.5395
 3289SOL    HW212760   7.172   7.956   6.395  0.8071  2.6273  1.9188
 3290SOL     OW12761   4.663   2.605   3.708 -0.7375 -0.1802 -0.5258
 3290SOL    HW112762   4.719   2.540   3.665 -0.1550 -0.3076  0.3901
 3290SOL    HW212763   4.688   2.600   3.800 -0.4746  1.5331 -0.4792
 3291SOL     OW12764   8.302   2.917   1.178 -0.3112  0.2959  0.1692
 3291SOL    HW112765   8.242   2.845   1.159  0.4882 -0.3381  0.0283
 3291SOL    HW212766   8.318   2.959   1.094 -0.9602  0.8054  0.2846
 3292SOL     OW12767   5.631   8.938   6.649  0.0681 -0.9307 -0.0015
 3292SOL    HW112768   5.621   8.982   6.564  2.0019 -1.2210 -0.4274
 3292SOL    HW212769   5.677   8.857   6.627  2.6868  0.0218  1.5387
 3293SOL     OW12770   0.856   9.197   1.288  0.3199  0.2612  0.5299
 3293SOL    HW112771   0.810   9.221   1.208 -0.3752 -2.0713  0.1534
 3293SOL    HW212772   0.792   9.147   1.338  2.4106 -3.6384 -0.2836
 3294SOL     OW12773   7.722   7.049   4.688 -0.0846  0.2549 -0.2342
 3294SOL    HW112774   7.682   7.016   4.769  0.1620 -2.2643 -1.0530
 3294SOL    HW212775   7.814   7.062   4.711 -0.1080 -0.0008  0.0172
 3295SOL     OW12776   0.107   0.701   7.396 -0.5154  0.3885  0.5766
 3295SOL    HW112777   0.157   0.727   7.319 -2.2164  1.1158 -0.3332
 3295SOL    HW212778   0.036   0.766   7.402 -0.3519  0.4521  2.8429
 3296SOL     OW12779   6.612   8.232   3.765  0.4020  0.1670 -0.4321
 3296SOL    HW112780   6.666   8.225   3.686  0.6099 -1.0623 -0.1999
 3296SOL    HW212781   6.666   8.282   3.826  0.6151  0.3401 -0.7592
 3297SOL     OW12782   8.990   5.571   7.912 -0.1528 -0.4499  0.5290
 3297SOL    HW112783   8.918   5.509   7.912 -0.2571 -0.3448 -0.6632
 3297SOL    HW212784   8.953   5.651   7.875  0.8734 -0.7916 -1.3903
 3298SOL     OW12785   0.653   1.588   4.657  0.0314  0.1406 -0.3672
 3298SOL    HW112786   0.744   1.557   4.654 -0.6010 -2.1355  1.2557
 3298SOL    HW212787   0.617   1.563   4.572  0.0658 -2.0337  0.2130
 3299SOL     OW12788   3.120   1.178   0.838  0.0182  0.1693 -0.3153
 3299SOL    HW112789   3.191   1.144   0.784 -0.6032  0.2546 -1.2135
 3299SOL    HW212790   3.095   1.105   0.894  1.9261  0.6261  1.2547
 3300SOL     OW12791   4.416   8.495   3.505 -0.5393 -0.0644  0.8395
 3300SOL    HW112792   4.487   8.464   3.449 -1.8763 -2.5558  0.3818
 3300SOL    HW212793   4.394   8.419   3.559 -3.4575  0.3030  0.2975
 3301SOL     OW12794   2.493   3.650   7.633  0.0219 -0.4735  0.3158
 3301SOL    HW112795   2.437   3.689   7.700  1.0074 -0.1503  0.9938
 3301SOL    HW212796   2.493   3.557   7.654  0.4009 -0.3631  0.8505
 3302SOL     OW12797   6.088   2.588   1.605 -0.2871 -0.3907 -0.1437
 3302SOL    HW112798   6.111   2.663   1.660 -0.1587 -1.9920  2.1137
 3302SOL    HW212799   6.167   2.571   1.554 -0.3974  1.1247 -0.8757
 3303SOL     OW12800   1.830   6.114   0.796 -0.5409 -0.0306 -0.0331
 3303SOL    HW112801   1.835   6.024   0.764 -0.3983  0.1083 -0.4124
 3303SOL    HW212802   1.836   6.168   0.717  2.3293  0.4070  0.3743
 3304SOL     OW12803   8.274   5.132   4.463  0.1666 -0.3170  0.3713
 3304SOL    HW112804   8.272   5.064   4.396 -2.1283 -0.4304  0.4481
 3304SOL    HW212805   8.219   5.096   4.534  0.2429  0.9425  1.0982
 3305SOL     OW12806   1.303   4.501   0.451 -0.2454  0.0335  0.1090
 3305SOL    HW112807   1.262   4.587   0.467 -1.8944 -0.6953  0.0465
 3305SOL    HW212808   1.312   4.462   0.538  0.3899  0.2143  0.1263
 3306SOL     OW12809   1.420   7.788   5.980 -0.1776 -0.1753  0.0887
 3306SOL    HW112810   1.381   7.705   6.009  3.4388 -2.2453 -0.3639
 3306SOL    HW212811   1.439   7.773   5.887  0.3798  1.2666 -0.0385
 3307SOL     OW12812   3.021   5.294   7.465  0.0115 -0.0918 -0.4425
 3307SOL    HW112813   2.938   5.248   7.477  0.9257 -1.1916  2.2751
 3307SOL    HW212814   3.068   5.242   7.399 -1.5964  0.8891 -2.4781
 3308SOL     OW12815   6.790   7.745   4.275  0.0141  0.0063 -0.5573
 3308SOL    HW112816   6.850   7.678   4.306 -0.5946 -0.4286 -0.3073
 3308SOL    HW212817   6.772   7.799   4.352 -0.9969 -0.6948 -0.2818
 3309SOL     OW12818   9.057   2.525   4.706 -0.4824  0.5703 -0.0497
 3309SOL    HW112819   9.108   2.540   4.786 -0.3676  0.0629 -0.0271
 3309SOL    HW212820   8.984   2.470   4.733 -0.3247  0.2158 -0.3334
 3310SOL     OW12821   1.549   4.304   5.239 -0.4843  0.0245 -0.4562
 3310SOL    HW112822   1.491   4.331   5.311  0.0509  2.3111 -0.7936
 3310SOL    HW212823   1.515   4.351   5.163  0.3799 -0.5122 -1.1822
 3311SOL     OW12824   8.090   6.155   3.096 -0.1220  0.2455 -0.5377
 3311SOL    HW112825   8.133   6.112   3.170  1.7155  1.1739 -1.0132
 3311SOL    HW212826   8.080   6.086   3.031 -0.9161 -0.3697  0.2287
 3312SOL     OW12827   6.625   1.829   1.126 -0.7878 -0.5508 -0.4102
 3312SOL    HW112828   6.536   1.840   1.092 -0.5576 -0.2121 -0.9119
 3312SOL    HW212829   6.679   1.887   1.073 -0.4436  0.1575  0.6629
 3313SOL     OW12830   0.995   4.919   0.667  0.7839  0.0392 -0.2651
 3313SOL    HW112831   0.915   4.950   0.710  0.3595 -0.3769 -0.7463
 3313SOL    HW212832   0.976   4.926   0.573  1.7070  0.9505 -0.4023
 3314SOL     OW12833   1.581   4.691   4.945  0.4069 -0.0504 -0.5818
 3314SOL    HW112834   1.532   4.656   5.019 -0.0745  1.1401 -0.3080
 3314SOL    HW212835   1.652   4.741   4.985 -0.0983  0.9436 -0.8972
 3315SOL     OW12836   1.492   5.545   2.419  0.0390 -0.1293 -0.0111
 3315SOL    HW112837   1.405   5.525   2.452  0.4325  0.1113  1.2163
 3315SOL    HW212838   1.531   5.460   2.398  0.6116 -0.5276  2.3541
 3316SOL     OW12839   6.785   1.753   2.265 -0.1852 -0.2248  0.1695
 3316SOL    HW112840   6.804   1.758   2.359  0.3562 -1.2582  0.1342
 3316SOL    HW212841   6.862   1.789   2.223 -0.9554  1.4403  0.1241
 3317SOL     OW12842   8.863   0.862   0.282 -0.3784 -0.4479  0.5977
 3317SOL    HW112843   8.892   0.773   0.306 -0.7129 -1.0275 -1.0321
 3317SOL    HW212844   8.941   0.916   0.294 -0.1337 -0.9701  1.4976
 3318SOL     OW12845   7.377   1.660   2.716  0.1575  0.4390 -0.4060
 3318SOL    HW112846   7.452   1.654   2.775  0.5496  3.3077 -0.4726
 3318SOL    HW212847   7.319   1.724   2.757 -1.1932 -0.0448 -1.4860
 3319SOL     OW12848   0.409   3.457   5.532 -0.2316  0.4513 -0.1408
 3319SOL    HW112849   0.450   3.495   5.609 -1.7908 -0.2145  1.0922
 3319SOL    HW212850   0.480   3.411   5.487  0.8163  1.3117  0.5821
 3320SOL     OW12851   4.353   3.245   4.305 -0.6969  0.1188 -0.1784
 3320SOL    HW112852   4.312   3.304   4.369 -0.7874  0.4977 -0.5772
 3320SOL    HW212853   4.380   3.169   4.356  2.1236  1.7166  0.9790
 3321SOL     OW12854   3.846   0.450   4.463 -0.1648 -0.0239 -0.1640
 3321SOL    HW112855   3.891   0.473   4.382 -0.2858  2.1557  0.3465
 3321SOL    HW212856   3.810   0.363   4.445  0.7052 -0.0551 -2.0599
 3322SOL     OW12857   5.277   0.420   8.391 -0.0699 -0.1848  0.1638
 3322SOL    HW112858   5.228   0.476   8.451  0.6810  3.1344 -2.0478
 3322SOL    HW212859   5.212   0.388   8.330 -0.2645 -0.2336  0.3962
 3323SOL     OW12860   4.529   7.212   0.262 -0.5867  0.1603 -0.2754
 3323SOL    HW112861   4.565   7.243   0.345 -0.3877  0.3634 -0.4346
 3323SOL    HW212862   4.589   7.247   0.196 -1.7324  1.5299 -0.6446
 3324SOL     OW12863   1.957   8.948   6.744 -0.4424  0.5284 -0.0515
 3324SOL    HW112864   1.908   8.961   6.825 -0.9124  0.8532 -0.3789
 3324SOL    HW212865   1.908   8.999   6.679 -0.4340 -0.2441 -0.6775
 3325SOL     OW12866   8.980   6.650   0.540 -0.1453 -0.6243  0.2831
 3325SOL    HW112867   8.972   6.634   0.634  0.0813 -0.8585  0.2669
 3325SOL    HW212868   8.959   6.742   0.529  2.1655  0.0529  0.9027
 3326SOL     OW12869   7.130   6.607   7.370  0.4722  0.6029 -0.2195
 3326SOL    HW112870   7.047   6.627   7.413  1.3152 -0.4642  2.0722
 3326SOL    HW212871   7.194   6.659   7.417  1.5458 -1.1617  0.3682
 3327SOL     OW12872   5.428   7.144   3.435  0.5896 -0.2197 -0.0627
 3327SOL    HW112873   5.385   7.061   3.457 -0.8241  0.8437  1.4767
 3327SOL    HW212874   5.501   7.149   3.496  1.7515 -1.0925 -1.3271
 3328SOL     OW12875   2.617   5.403   4.310  0.5772 -0.2549 -0.0805
 3328SOL    HW112876   2.637   5.486   4.267 -1.2818  1.1974  1.7380
 3328SOL    HW212877   2.634   5.418   4.402  0.7710 -2.1126  0.2341
 3329SOL     OW12878   8.716   4.201   7.962  0.1422 -0.2793  0.3428
 3329SOL    HW112879   8.674   4.280   7.928  0.5720 -0.5612 -0.8826
 3329SOL    HW212880   8.790   4.234   8.012 -0.2250  0.1256  0.6383
 3330SOL     OW12881   7.589   3.126   0.879 -0.5492 -0.1461  0.0418
 3330SOL    HW112882   7.677   3.151   0.908 -0.5757  1.1578 -0.9252
 3330SOL    HW212883   7.545   3.096   0.959  0.9159 -1.3562  0.4505
 3331SOL     OW12884   3.307   7.941   1.242 -0.2078 -0.7507 -0.9475
 3331SOL    HW112885   3.392   7.933   1.197 -0.2563  0.4365 -1.2829
 3331SOL    HW212886   3.251   7.987   1.179 -0.5134  0.2149  0.0152
 3332SOL     OW12887   4.217   2.831   5.176  0.0406  0.1284  0.3264
 3332SOL    HW112888   4.139   2.878   5.205 -0.9632 -0.6293 -0.9787
 3332SOL    HW212889   4.212   2.746   5.221  0.7820  0.5122  1.1613
 3333SOL     OW12890   4.917   2.730   4.723  0.2792  0.4858 -0.1637
 3333SOL    HW112891   4.991   2.762   4.775  0.9645 -1.3816  0.0799
 3333SOL    HW212892   4.855   2.696   4.787 -0.5489  1.5116 -0.4015
 3334SOL     OW12893   8.617   4.350   3.355  0.2326  0.4720 -0.2716
 3334SOL    HW112894   8.562   4.280   3.391  0.2323 -0.0083 -1.1731
 3334SOL    HW212895   8.587   4.359   3.264  2.6327 -0.8799 -1.3012
 3335SOL     OW12896   5.023   1.469   0.716 -0.2297 -0.3313  0.3454
 3335SOL    HW112897   5.028   1.461   0.811  1.3836 -0.3907  0.2761
 3335SOL    HW212898   5.030   1.563   0.700  1.0326 -0.4389  0.2236
 3336SOL     OW12899   0.006   5.916   4.689 -0.2611  0.4773 -0.6659
 3336SOL    HW112900  -0.035   5.998   4.716 -0.6422  0.0718 -0.0026
 3336SOL    HW212901   0.011   5.922   4.593  1.8473  2.2852 -0.5307
 3337SOL     OW12902   8.767   7.290   3.004 -0.2057  0.2952 -0.1871
 3337SOL    HW112903   8.767   7.346   2.926  1.5307  0.8680  0.1679
 3337SOL    HW212904   8.674   7.276   3.024 -0.7798  3.5511  0.0337
 3338SOL     OW12905   4.263   1.671   5.256  0.1157 -0.2916  0.1928
 3338SOL    HW112906   4.328   1.601   5.245  1.0853  0.7978 -1.5541
 3338SOL    HW212907   4.314   1.752   5.251 -1.2007  0.5852  0.3779
 3339SOL     OW12908   4.270   8.783   6.424 -0.5176 -0.4595 -0.4691
 3339SOL    HW112909   4.207   8.802   6.494  0.0718  1.1510 -0.3393
 3339SOL    HW212910   4.348   8.751   6.469 -1.1092 -2.2140 -0.6142
 3340SOL     OW12911   8.592   1.703   8.672  0.1478  0.1780 -0.2881
 3340SOL    HW112912   8.576   1.762   8.598 -0.1478  0.7000  0.1807
 3340SOL    HW212913   8.530   1.733   8.739 -1.0116 -1.5548 -0.5142
 3341SOL     OW12914   7.941   5.843   4.734 -0.4358  0.0105 -0.0895
 3341SOL    HW112915   7.962   5.881   4.819 -0.2835 -0.8911  0.2833
 3341SOL    HW212916   7.923   5.751   4.752 -0.1743 -0.2455 -1.0645
 3342SOL     OW12917   0.741   0.715   8.320 -0.6377  0.1121 -0.8007
 3342SOL    HW112918   0.831   0.684   8.315 -0.1999  1.3673 -1.0614
 3342SOL    HW212919   0.741   0.778   8.392 -1.2406  0.3050 -0.9628
 3343SOL     OW12920   5.713   3.228   4.105  0.3009  0.2702 -0.3513
 3343SOL    HW112921   5.677   3.311   4.137  0.8894  0.3893  0.0200
 3343SOL    HW212922   5.737   3.245   4.014  3.0177  1.4081  0.4515
 3344SOL     OW12923   1.863   5.142   6.388 -0.0377 -0.5136 -0.3517
 3344SOL    HW112924   1.946   5.125   6.343 -1.2125  0.6678 -3.1982
 3344SOL    HW212925   1.819   5.057   6.389  0.1527 -0.6279 -1.1363
 3345SOL     OW12926   6.662   3.022   7.450  0.6353 -0.1073 -0.7200
 3345SOL    HW112927   6.577   3.057   7.474  0.7300 -0.7977  0.7907
 3345SOL    HW212928   6.713   3.027   7.531  1.6398 -0.8098 -1.2838
 3346SOL     OW12929   8.975   7.709   2.464 -0.6652 -0.0563  0.2690
 3346SOL    HW112930   9.065   7.737   2.483 -1.1259  0.6293  1.5862
 3346SOL    HW212931   8.947   7.767   2.393 -0.3021  0.1899  0.3217
 3347SOL     OW12932   8.155   4.067   2.319  0.6246  0.1528 -0.4878
 3347SOL    HW112933   8.124   4.047   2.231  1.0489 -1.3114 -0.3251
 3347SOL    HW212934   8.133   3.990   2.371  0.0155  1.1535  0.8013
 3348SOL     OW12935   0.050   7.245   0.865  0.2540 -0.4142  0.2950
 3348SOL    HW112936   0.097   7.170   0.827  0.3922  0.3001 -0.9878
 3348SOL    HW212937  -0.030   7.207   0.900  0.6877 -1.2862  0.3825
 3349SOL     OW12938   4.377   0.297   1.501  0.1156  0.0581  0.3004
 3349SOL    HW112939   4.387   0.385   1.467 -1.2727 -0.3736 -1.3392
 3349SOL    HW212940   4.360   0.309   1.595 -4.1305  1.8958 -0.4790
 3350SOL     OW12941   2.333   1.813   1.836 -0.3975  0.0474  0.2349
 3350SOL    HW112942   2.362   1.830   1.925 -1.1491 -0.1017  0.5188
 3350SOL    HW212943   2.352   1.721   1.821  1.0196  0.4008 -0.2722
 3351SOL     OW12944   5.621   8.066   5.927 -0.5202 -0.0964 -0.3245
 3351SOL    HW112945   5.609   7.976   5.956 -0.0539 -0.0148  0.1299
 3351SOL    HW212946   5.645   8.114   6.006 -0.2956  0.3365 -0.6525
 3352SOL     OW12947   8.673   1.695   6.796 -0.4710  0.3414 -0.0117
 3352SOL    HW112948   8.689   1.739   6.712  0.3818  1.0433  0.5010
 3352SOL    HW212949   8.578   1.680   6.797 -0.3825 -0.5351 -1.5007
 3353SOL     OW12950   5.640   5.647   3.764 -0.4584 -0.4258 -0.4548
 3353SOL    HW112951   5.729   5.615   3.750 -0.5287  0.0775 -2.3765
 3353SOL    HW212952   5.587   5.568   3.773 -0.2027 -0.8399 -2.2036
 3354SOL     OW12953   3.543   7.384   2.231 -0.0687 -0.0674 -0.0407
 3354SOL    HW112954   3.543   7.472   2.269 -0.6798  0.5523 -1.4174
 3354SOL    HW212955   3.636   7.360   2.227  0.3400  1.5474 -1.8623
 3355SOL     OW12956   1.082   0.687   1.299 -0.0112  0.6275  0.5700
 3355SOL    HW112957   1.165   0.686   1.250 -0.4859 -0.5268 -0.2424
 3355SOL    HW212958   1.066   0.780   1.315  1.4995  0.8630  0.8511
 3356SOL     OW12959   2.996   5.361   6.450  0.4702  0.8320 -0.2692
 3356SOL    HW112960   3.057   5.405   6.509 -0.7977  1.0674  0.8931
 3356SOL    HW212961   3.040   5.279   6.428  1.3189  1.1088  0.3335
 3357SOL     OW12962   5.929   5.234   6.118 -0.2245  0.3325  0.8185
 3357SOL    HW112963   5.907   5.146   6.149 -1.8921  0.2623 -0.4404
 3357SOL    HW212964   5.862   5.254   6.052  1.9058  1.3217 -1.1677
 3358SOL     OW12965   4.122   1.547   6.847 -0.3619  0.3152  0.0439
 3358SOL    HW112966   4.046   1.556   6.789  1.7004  2.5025 -2.5413
 3358SOL    HW212967   4.114   1.621   6.908 -0.8041 -0.0683  0.4640
 3359SOL     OW12968   5.249   5.716   6.981 -0.7534  0.1482  0.0123
 3359SOL    HW112969   5.267   5.629   7.019  1.4121  1.2041  1.6168
 3359SOL    HW212970   5.296   5.716   6.898  2.1274  0.8285  1.5171
 3360SOL     OW12971   3.783   2.001   4.294 -0.1172 -0.0294  0.1066
 3360SOL    HW112972   3.804   1.951   4.372  1.8136  1.0379  0.3373
 3360SOL    HW212973   3.797   1.940   4.222  2.5527  0.1833  0.3554
 3361SOL     OW12974   7.672   5.375   4.334  0.0782  0.4940  0.0833
 3361SOL    HW112975   7.655   5.318   4.408  1.0197  1.0586  0.7515
 3361SOL    HW212976   7.767   5.373   4.323  0.5772  4.3527  2.1684
 3362SOL     OW12977   7.565   0.631   5.203  0.2549  0.3433 -0.0424
 3362SOL    HW112978   7.538   0.570   5.271  0.7846 -0.7742 -0.7844
 3362SOL    HW212979   7.610   0.702   5.249  3.1523 -1.7514  0.6859
 3363SOL     OW12980   8.331   5.564   2.939  0.4225 -0.3563 -0.3557
 3363SOL    HW112981   8.304   5.558   3.031 -0.0660 -0.9129 -0.5304
 3363SOL    HW212982   8.303   5.481   2.900 -0.9662  0.5571 -1.4130
 3364SOL     OW12983   5.508   1.204   8.165  0.1551  0.2388 -0.4176
 3364SOL    HW112984   5.495   1.279   8.223  2.5146 -0.8753  1.7466
 3364SOL    HW212985   5.447   1.219   8.092 -0.1774  3.6950  0.3957
 3365SOL     OW12986   8.639   5.583   4.726 -0.2697 -0.0928 -0.4616
 3365SOL    HW112987   8.602   5.549   4.807  0.2229  1.1042  0.3069
 3365SOL    HW212988   8.706   5.519   4.701  1.8118  0.9882  1.8475
 3366SOL     OW12989   7.914   0.247   3.612 -0.3286  0.2418 -0.2611
 3366SOL    HW112990   7.862   0.221   3.536 -1.3812  0.4663  0.3591
 3366SOL    HW212991   7.933   0.340   3.598 -0.0468  0.1467 -0.5149
 3367SOL     OW12992   5.380   9.031   5.325 -0.2416 -0.5102  0.1369
 3367SOL    HW112993   5.314   9.099   5.316 -0.3468 -0.4660  1.0972
 3367SOL    HW212994   5.390   9.021   5.420  3.4631  1.7666  0.1740
 3368SOL     OW12995   7.540   7.536   7.331  0.2198  0.2583  0.3147
 3368SOL    HW112996   7.556   7.613   7.384 -0.2549  2.0271 -1.9393
 3368SOL    HW212997   7.450   7.545   7.301  0.2506 -1.0122 -0.2536
 3369SOL     OW12998   5.413   2.747   6.377  0.1145 -0.5437  0.4931
 3369SOL    HW112999   5.465   2.699   6.442  0.8745  1.2913  1.2929
 3369SOL    HW213000   5.325   2.711   6.387  0.9340 -2.9579 -0.1387
 3370SOL     OW13001   7.094   6.835   7.135 -0.1064  0.3360 -0.0022
 3370SOL    HW113002   7.104   6.922   7.174  0.1438  0.8822 -1.2324
 3370SOL    HW213003   7.133   6.776   7.199  1.8277  1.3851 -0.1285
 3371SOL     OW13004   4.621   8.370   3.396  0.2043  0.1139  0.7061
 3371SOL    HW113005   4.648   8.296   3.450  1.4151 -0.8292 -1.0700
 3371SOL    HW213006   4.702   8.417   3.377 -0.1607  0.3451 -0.3510
 3372SOL     OW13007   7.574   5.352   0.461  0.6821  0.7845  0.6846
 3372SOL    HW113008   7.653   5.372   0.512  1.8768  0.1655 -0.8476
 3372SOL    HW213009   7.505   5.404   0.503  1.8034  1.0635  2.2957
 3373SOL     OW13010   4.012   0.616   3.600 -0.4021  1.0385  0.2363
 3373SOL    HW113011   3.956   0.641   3.527  0.5760 -0.5023 -1.0939
 3373SOL    HW213012   4.093   0.666   3.587 -0.0097  0.3312 -0.0719
 3374SOL     OW13013   3.531   8.273   2.061 -0.4811 -0.8200  1.4396
 3374SOL    HW113014   3.552   8.227   1.980  0.8860  1.1732  0.5775
 3374SOL    HW213015   3.439   8.252   2.077 -1.2767 -0.1294 -1.4835
 3375SOL     OW13016   3.291   8.697   0.043 -0.6886 -0.1271  0.2015
 3375SOL    HW113017   3.231   8.695   0.118  1.5690 -0.9088  2.1324
 3375SOL    HW213018   3.323   8.787   0.040 -0.9774 -0.0302  0.0060
 3376SOL     OW13019   1.441   0.033   8.550 -0.1736 -0.0443  0.1777
 3376SOL    HW113020   1.503   0.006   8.617  0.1012  0.5789  0.1831
 3376SOL    HW213021   1.355   0.024   8.591 -0.1251 -1.1882  0.0751
 3377SOL     OW13022   2.137   5.438   2.505  0.2653  0.3830 -0.1245
 3377SOL    HW113023   2.144   5.408   2.415 -0.6996  1.0521 -0.4514
 3377SOL    HW213024   2.112   5.530   2.497  2.1635  1.0291  0.8329
 3378SOL     OW13025   4.668   1.115   7.837 -0.8795 -0.3080 -0.0858
 3378SOL    HW113026   4.607   1.101   7.909  0.3352 -1.3626  0.7614
 3378SOL    HW213027   4.648   1.204   7.806  0.2918  1.3077  3.2774
 3379SOL     OW13028   2.307   9.184   4.464 -0.1711 -0.4240  0.2346
 3379SOL    HW113029   2.245   9.253   4.487 -0.5201 -0.5178 -0.4033
 3379SOL    HW213030   2.304   9.180   4.369 -0.1119 -1.2828  0.2622
 3380SOL     OW13031   7.146   6.670   1.484 -0.1398 -0.4153  0.4351
 3380SOL    HW113032   7.105   6.593   1.444  0.6954 -0.5289 -0.2377
 3380SOL    HW213033   7.214   6.695   1.421  1.3427 -0.7083  1.8660
 3381SOL     OW13034   7.250   5.498   1.029  0.2365  0.1948  0.9127
 3381SOL    HW113035   7.304   5.466   1.101  0.6417 -0.5578  0.2932
 3381SOL    HW213036   7.195   5.423   1.005 -0.1329  0.5410  0.6598
 3382SOL     OW13037   5.756   4.742   3.051 -0.0017  0.1418 -0.4561
 3382SOL    HW113038   5.843   4.731   3.089 -0.4090 -0.9898  0.1780
 3382SOL    HW213039   5.765   4.710   2.961  0.3614  0.5494 -0.5703
 3383SOL     OW13040   3.281   4.192   0.151  0.2297 -0.0398 -0.2119
 3383SOL    HW113041   3.201   4.190   0.098  0.5857  0.0993 -0.7627
 3383SOL    HW213042   3.347   4.230   0.093  0.9600 -1.1396 -0.1289
 3384SOL     OW13043   4.138   5.948   8.830  0.1259 -0.3889 -0.5563
 3384SOL    HW113044   4.122   5.912   8.743  0.2730 -0.2126 -0.6567
 3384SOL    HW213045   4.071   5.908   8.886 -1.4881  1.2586 -1.2032
 3385SOL     OW13046   6.739   6.160   9.087 -0.1179 -0.0076  0.7157
 3385SOL    HW113047   6.754   6.207   9.169 -1.1993 -0.5638  1.2547
 3385SOL    HW213048   6.808   6.094   9.085  1.5737  1.6837 -0.1677
 3386SOL     OW13049   3.233   5.117   2.741 -0.1760 -0.3463 -0.2263
 3386SOL    HW113050   3.224   5.026   2.712  1.0782 -0.9522  1.1638
 3386SOL    HW213051   3.272   5.162   2.665 -1.8429 -0.6787 -1.3312
 3387SOL     OW13052   7.439   8.357   4.976 -0.6978  0.5069  0.2169
 3387SOL    HW113053   7.477   8.306   5.047 -0.7815 -1.3753 -1.0053
 3387SOL    HW213054   7.345   8.341   4.982 -0.7446  0.6600 -0.0609
 3388SOL     OW13055   5.402   5.057   0.483  0.2044 -0.0354  0.0206
 3388SOL    HW113056   5.377   5.015   0.400  2.3709 -1.7212  0.0940
 3388SOL    HW213057   5.495   5.077   0.471  0.1761  1.1071  1.5218
 3389SOL     OW13058   1.066   2.070   5.104 -0.3239 -0.2018  0.2461
 3389SOL    HW113059   0.973   2.050   5.114  0.0867 -1.2203  2.6476
 3389SOL    HW213060   1.070   2.166   5.095 -1.5245 -0.0373  1.3005
 3390SOL     OW13061   6.530   2.405   4.513  0.6913 -0.1370 -0.0808
 3390SOL    HW113062   6.518   2.476   4.576  0.5037 -0.6378  0.4514
 3390SOL    HW213063   6.589   2.442   4.447 -0.4735  0.9596 -0.5312
 3391SOL     OW13064   8.368   7.405   1.696 -0.3266 -0.1364  0.3478
 3391SOL    HW113065   8.396   7.459   1.622 -1.3939 -1.9903 -1.5029
 3391SOL    HW213066   8.294   7.453   1.733  0.1496  0.7562  0.1811
 3392SOL     OW13067   4.786   3.434   7.641 -0.0242 -0.0912  0.1087
 3392SOL    HW113068   4.711   3.377   7.625  0.1405 -0.7262  1.4308
 3392SOL    HW213069   4.748   3.519   7.662 -0.3300 -0.1285 -0.2849
 3393SOL     OW13070   7.678   2.159   9.181 -0.0935 -0.0718 -0.2667
 3393SOL    HW113071   7.678   2.116   9.096  0.9471 -2.4861  0.8403
 3393SOL    HW213072   7.595   2.132   9.222 -0.6183  1.1245 -0.5192
 3394SOL     OW13073   2.797   2.761   2.677  0.4780 -0.2287  0.5332
 3394SOL    HW113074   2.875   2.806   2.642  1.3571  0.2856  2.9709
 3394SOL    HW213075   2.827   2.721   2.758 -1.1178 -2.5848  0.0456
 3395SOL     OW13076   4.407   2.560   8.552 -0.1219  0.1988  0.0170
 3395SOL    HW113077   4.451   2.584   8.634 -2.6687 -0.2162  1.6468
 3395SOL    HW213078   4.350   2.634   8.532  0.3668  0.2318 -1.3291
 3396SOL     OW13079   1.632   1.170   7.101 -0.0762  0.3288 -0.3997
 3396SOL    HW113080   1.565   1.238   7.095  0.3412  0.6374 -2.0144
 3396SOL    HW213081   1.582   1.089   7.114 -0.7573  0.6185 -1.0907
 3397SOL     OW13082   1.227   6.987   4.023  0.0669  0.4271 -0.2677
 3397SOL    HW113083   1.196   7.077   4.024  0.3952  0.5565  0.9679
 3397SOL    HW213084   1.250   6.970   3.932 -2.0128  0.8544 -0.9214
 3398SOL     OW13085   1.635   7.098   8.843 -0.4328 -0.3101 -0.8545
 3398SOL    HW113086   1.580   7.025   8.814 -0.7582 -0.5543  0.3137
 3398SOL    HW213087   1.710   7.098   8.784  0.4294 -2.6619  0.1370
 3399SOL     OW13088   6.173   2.480   1.221 -0.3463  0.0074 -0.1241
 3399SOL    HW113089   6.100   2.496   1.281 -1.2125 -0.4401 -1.0138
 3399SOL    HW213090   6.138   2.418   1.157  1.2078 -1.1531  0.1041
 3400SOL     OW13091   2.877   7.369   0.435  0.5484 -0.3372 -0.0869
 3400SOL    HW113092   2.955   7.353   0.382  0.8032  0.5240  0.0091
 3400SOL    HW213093   2.808   7.317   0.393  0.7360  0.3318 -1.2877
 3401SOL     OW13094   1.356   0.175   1.580 -0.0868 -0.0205  0.9556
 3401SOL    HW113095   1.289   0.109   1.563 -0.7091  0.2785  2.1433
 3401SOL    HW213096   1.375   0.213   1.494  0.0973 -1.5412  0.2949
 3402SOL     OW13097   4.366   1.706   0.595  0.0142 -0.6894 -1.0350
 3402SOL    HW113098   4.457   1.683   0.575 -0.6630 -3.5795 -1.2178
 3402SOL    HW213099   4.325   1.623   0.620 -2.1608  0.8178  0.8470
 3403SOL     OW13100   1.819   5.719   4.196 -0.1651  0.4721  0.0534
 3403SOL    HW113101   1.776   5.634   4.183  0.5313 -0.0825  1.2226
 3403SOL    HW213102   1.755   5.783   4.165 -0.5489 -0.4784 -1.2322
 3404SOL     OW13103   3.990   6.049   1.971  0.3020  0.2261 -0.3496
 3404SOL    HW113104   3.961   5.958   1.969  0.9803 -0.0368  0.6385
 3404SOL    HW213105   4.035   6.062   1.888 -0.1055 -0.2329 -0.6460
 3405SOL     OW13106   8.130   7.109   5.217 -0.5337 -0.5038  0.2185
 3405SOL    HW113107   8.055   7.162   5.245 -0.3755 -0.3583  0.3697
 3405SOL    HW213108   8.099   7.019   5.221 -1.9831 -0.3439 -3.3130
 3406SOL     OW13109   3.446   2.792   7.591  0.4913 -0.2675 -0.9463
 3406SOL    HW113110   3.434   2.883   7.620 -0.9934 -0.0921 -1.9985
 3406SOL    HW213111   3.479   2.800   7.502  0.9712 -0.7857 -0.8181
 3407SOL     OW13112   7.004   5.104   6.659 -0.2198 -0.2387 -0.0037
 3407SOL    HW113113   6.947   5.171   6.622 -0.3251 -0.5883 -0.4756
 3407SOL    HW213114   7.032   5.141   6.743  0.1156  0.5985 -0.4777
 3408SOL     OW13115   3.648   4.609   7.649 -0.1283  0.2702  0.8352
 3408SOL    HW113116   3.583   4.671   7.682 -0.6930  0.9938 -1.4596
 3408SOL    HW213117   3.729   4.660   7.642 -0.3077  0.4667  0.0440
 3409SOL     OW13118   6.457   3.608   8.016  0.1913 -0.2238 -0.0244
 3409SOL    HW113119   6.516   3.588   7.944  1.7594  1.2964  0.7650
 3409SOL    HW213120   6.490   3.558   8.091 -1.0127 -1.2545 -0.1397
 3410SOL     OW13121   4.407   4.915   1.257 -0.0161  0.1475 -0.5340
 3410SOL    HW113122   4.479   4.962   1.215 -1.4072  0.3415 -2.9005
 3410SOL    HW213123   4.342   4.984   1.276 -0.6729 -0.3636 -0.8946
 3411SOL     OW13124   4.298   6.055   3.415  0.4556 -0.1269 -0.4895
 3411SOL    HW113125   4.336   5.985   3.468 -0.9048  0.9716  2.1433
 3411SOL    HW213126   4.358   6.129   3.425 -0.9124  0.8227  1.6436
 3412SOL     OW13127   5.236   0.070   7.847  0.3211  0.0143 -0.5055
 3412SOL    HW113128   5.274  -0.010   7.810  1.5949  0.9897 -1.3915
 3412SOL    HW213129   5.298   0.139   7.823  0.1359  1.0228  1.6887
 3413SOL     OW13130   8.213   6.464   1.759 -0.1106  0.0582  0.3385
 3413SOL    HW113131   8.287   6.442   1.815 -0.4092 -0.1193  0.6731
 3413SOL    HW213132   8.143   6.487   1.821 -0.0087  1.3011  0.0151
 3414SOL     OW13133   1.230   0.722   6.724 -0.5770  0.1075 -0.1670
 3414SOL    HW113134   1.196   0.647   6.676  0.6570  0.1451 -1.1750
 3414SOL    HW213135   1.243   0.691   6.813 -1.5563 -0.4005 -0.1985
 3415SOL     OW13136   0.295   8.041   5.229 -0.5063 -0.2948 -0.4464
 3415SOL    HW113137   0.351   8.097   5.175 -0.0960 -1.6137 -1.4516
 3415SOL    HW213138   0.280   7.963   5.175 -0.5636 -1.4156  1.1065
 3416SOL     OW13139   7.570   7.630   8.725 -0.1079  0.4762  0.0976
 3416SOL    HW113140   7.523   7.699   8.678  1.7603  1.8547  0.1283
 3416SOL    HW213141   7.578   7.559   8.662 -1.8832  0.3345 -0.0095
 3417SOL     OW13142   7.243   8.689   6.916 -0.4124  0.7523 -0.1296
 3417SOL    HW113143   7.263   8.645   6.999 -1.2186  0.5088 -0.0504
 3417SOL    HW213144   7.291   8.771   6.919 -2.1045  1.7572  1.5508
 3418SOL     OW13145   4.430   4.660   0.376  0.4658 -0.0683 -0.2723
 3418SOL    HW113146   4.396   4.592   0.318 -1.3056  0.7533 -0.2474
 3418SOL    HW213147   4.522   4.670   0.349  0.6275 -2.0693 -0.6194
 3419SOL     OW13148   1.868   1.427   5.782  0.4932  0.0170 -0.2953
 3419SOL    HW113149   1.963   1.419   5.790  0.2917 -1.3064  1.4647
 3419SOL    HW213150   1.851   1.521   5.785  1.6248  0.2230  1.7818
 3420SOL     OW13151   3.142   1.635   8.062  0.7297 -0.3196 -0.5670
 3420SOL    HW113152   3.081   1.562   8.044  1.2300 -0.3985 -2.1039
 3420SOL    HW213153   3.104   1.679   8.138  0.1401 -1.8843  0.0926
 3421SOL     OW13154   5.195   8.057   6.941  0.1639  0.0289 -0.1952
 3421SOL    HW113155   5.262   7.998   6.905 -0.6351 -0.1122 -1.5119
 3421SOL    HW213156   5.114   8.008   6.935 -0.8195  1.7642 -2.8498
 3422SOL     OW13157   5.539   0.971   1.289 -0.5651 -0.2480  0.0517
 3422SOL    HW113158   5.532   1.056   1.246 -0.7870  0.0669  0.6966
 3422SOL    HW213159   5.581   0.915   1.224  0.0544  0.4806 -0.1953
 3423SOL     OW13160   2.286   1.354   2.754  0.1249 -0.1275  0.4809
 3423SOL    HW113161   2.300   1.354   2.660  3.9795 -0.4913  0.8892
 3423SOL    HW213162   2.277   1.262   2.777  1.6270 -0.2554  0.6616
 3424SOL     OW13163   5.839   8.856   5.425 -0.6050 -0.0476 -0.2388
 3424SOL    HW113164   5.774   8.872   5.494  0.4441 -0.4937  0.9022
 3424SOL    HW213165   5.788   8.835   5.347 -1.8484 -1.5064  0.9053
 3425SOL     OW13166   3.464   4.632   0.900  0.2822  0.2193  0.9543
 3425SOL    HW113167   3.531   4.635   0.967 -0.7764 -0.1595  2.0639
 3425SOL    HW213168   3.437   4.723   0.887  1.1667  0.4011  0.3166
 3426SOL     OW13169   1.166   2.371   1.536 -0.2484  0.6876  0.2521
 3426SOL    HW113170   1.071   2.373   1.548 -0.1352  1.7210  1.1671
 3426SOL    HW213171   1.200   2.343   1.621  0.2310 -1.5602 -0.5974
 3427SOL     OW13172   1.133   9.190   1.301  0.4897  0.2065 -0.4871
 3427SOL    HW113173   1.149   9.096   1.289  0.4475 -0.0457  1.2111
 3427SOL    HW213174   1.038   9.199   1.295  0.1430 -0.4284  2.4842
 3428SOL     OW13175   2.749   2.107   4.669 -0.4384 -0.2336  0.2393
 3428SOL    HW113176   2.735   2.069   4.582  0.0961 -0.6264  0.3262
 3428SOL    HW213177   2.741   2.033   4.729 -1.2778  0.1140  0.5743
 3429SOL     OW13178   2.854   7.484   0.133 -0.4108 -0.0833  0.7737
 3429SOL    HW113179   2.906   7.480   0.052 -0.7069 -0.7178  0.6041
 3429SOL    HW213180   2.845   7.393   0.160  0.6026  0.1831  2.1340
 3430SOL     OW13181   1.640   7.809   3.074  0.3725 -0.1217  0.3354
 3430SOL    HW113182   1.708   7.814   3.141  0.2796 -1.1161  0.5202
 3430SOL    HW213183   1.572   7.754   3.113  0.0380 -0.1960 -0.3420
 3431SOL     OW13184   1.717   8.708   0.886 -0.1656 -0.7430 -0.2368
 3431SOL    HW113185   1.792   8.760   0.916  0.3880 -2.0384  0.7227
 3431SOL    HW213186   1.756   8.628   0.851 -1.0790 -1.3928  0.1882
 3432SOL     OW13187   0.007   0.884   1.994 -0.3557  0.6249  0.1855
 3432SOL    HW113188  -0.024   0.835   2.070  1.0689 -0.3890  0.1633
 3432SOL    HW213189   0.035   0.968   2.028  0.6483  0.0305  0.8782
 3433SOL     OW13190   3.637   2.105   6.848  0.2256  0.0747  1.1751
 3433SOL    HW113191   3.570   2.040   6.869  0.0617  0.0541  0.6059
 3433SOL    HW213192   3.720   2.058   6.859  0.0835 -0.6719 -0.5817
 3434SOL     OW13193   5.358   0.585   7.687 -1.2177  0.1297 -0.7190
 3434SOL    HW113194   5.361   0.492   7.710  2.2685  0.6237  1.5537
 3434SOL    HW213195   5.448   0.605   7.659 -1.5432  3.0561  0.0536
 3435SOL     OW13196   7.037   9.194   2.103 -0.2329  0.3393  0.7940
 3435SOL    HW113197   7.125   9.162   2.120 -0.0981  0.9250  1.2453
 3435SOL    HW213198   6.981   9.117   2.113  0.4008 -0.4663 -1.4115
 3436SOL     OW13199   6.966   7.337   7.436  0.2830 -0.6234  0.4065
 3436SOL    HW113200   6.891   7.390   7.407 -1.1642 -2.0292  1.4250
 3436SOL    HW213201   6.977   7.272   7.367  0.4414 -0.5337  0.3479
 3437SOL     OW13202   5.381   1.965   2.266 -0.1960  0.4515 -0.2743
 3437SOL    HW113203   5.414   2.034   2.208 -0.6277  0.8986  0.0022
 3437SOL    HW213204   5.288   1.985   2.276 -0.6013 -0.8892 -1.1821
 3438SOL     OW13205   4.521   6.440   5.674 -0.0039  0.2438 -0.4806
 3438SOL    HW113206   4.441   6.415   5.627  0.5964 -0.3099 -1.2326
 3438SOL    HW213207   4.489   6.488   5.750 -1.0068  1.9906 -1.8901
 3439SOL     OW13208   4.807   6.720   7.808 -0.3422 -0.2852 -0.0680
 3439SOL    HW113209   4.891   6.752   7.840 -0.5695  0.1119  0.1387
 3439SOL    HW213210   4.759   6.695   7.886 -1.1761  1.3573  0.0092
 3440SOL     OW13211   5.113   0.006   0.854 -0.1823  0.1710  0.3648
 3440SOL    HW113212   5.113  -0.089   0.841 -1.3900  0.3066 -0.9358
 3440SOL    HW213213   5.150   0.018   0.941 -1.8763 -1.6472  1.4261
 3441SOL     OW13214   7.746   2.941   6.888 -0.3469 -0.4023  0.0009
 3441SOL    HW113215   7.684   2.889   6.837 -1.1512  0.1452  0.4098
 3441SOL    HW213216   7.693   2.986   6.953  0.3733  0.6543 -0.1136
 3442SOL     OW13217   8.241   2.843   1.529 -0.1809 -0.7886 -0.0003
 3442SOL    HW113218   8.309   2.813   1.469  1.5356  1.3956  0.7086
 3442SOL    HW213219   8.281   2.839   1.616 -0.9452  0.4700  0.4500
 3443SOL     OW13220   6.487   3.370   1.716 -0.5773 -0.0513  0.1585
 3443SOL    HW113221   6.536   3.294   1.685  0.2422  0.7680 -0.6048
 3443SOL    HW213222   6.553   3.429   1.753 -1.3243 -0.1600  1.7511
 3444SOL     OW13223   9.083   6.979   2.724 -0.4103  0.7194 -0.2395
 3444SOL    HW113224   9.025   6.985   2.800  0.6963 -1.2422  0.8567
 3444SOL    HW213225   9.131   7.062   2.723  0.7013  0.1826  2.2354
 3445SOL     OW13226   3.891   8.340   5.166 -0.4576  0.2239 -0.4508
 3445SOL    HW113227   3.943   8.280   5.221 -2.3728  0.0077  1.2556
 3445SOL    HW213228   3.924   8.427   5.188 -0.8248  0.0969  0.6835
 3446SOL     OW13229   8.591   9.256   4.896  0.6504 -0.3148  0.1687
 3446SOL    HW113230   8.529   9.328   4.882  0.7104 -0.6089 -2.0955
 3446SOL    HW213231   8.537   9.177   4.892  1.1284 -0.6222 -2.5856
 3447SOL     OW13232   8.431   8.333   1.078  0.0360 -0.8003 -0.1196
 3447SOL    HW113233   8.500   8.269   1.096  2.0113  2.0051  3.4681
 3447SOL    HW213234   8.464   8.383   1.004  0.9974 -0.6742  0.3749
 3448SOL     OW13235   8.667   6.421   6.159  0.2045  0.4230  0.1171
 3448SOL    HW113236   8.624   6.464   6.232  0.7685  0.6803  0.3052
 3448SOL    HW213237   8.617   6.340   6.146 -0.3744  0.7467  0.2745
 3449SOL     OW13238   8.562   2.081   2.947 -0.2548 -0.1724  0.4995
 3449SOL    HW113239   8.653   2.058   2.928 -0.0281  0.2716  1.0364
 3449SOL    HW213240   8.548   2.050   3.037 -0.2423  0.8918  0.8790
 3450SOL     OW13241   0.252   8.823   1.041 -0.3790  0.5073  0.6207
 3450SOL    HW113242   0.170   8.777   1.059 -0.0014  0.1672  1.5005
 3450SOL    HW213243   0.320   8.768   1.080  0.3694  0.3501 -0.8480
 3451SOL     OW13244   6.604   2.162   8.025  0.1534  0.1326  0.2697
 3451SOL    HW113245   6.546   2.112   7.967  0.4181 -1.4093  1.2677
 3451SOL    HW213246   6.689   2.161   7.981 -0.0836  0.5909 -0.2031
 3452SOL     OW13247   1.676   7.804   7.412 -0.2592  0.4601  0.7451
 3452SOL    HW113248   1.684   7.784   7.505  0.0381  0.6723  0.7668
 3452SOL    HW213249   1.702   7.723   7.368  1.3209  0.8800  0.8254
 3453SOL     OW13250   5.243   4.893   6.224 -0.0976 -0.3830  0.0425
 3453SOL    HW113251   5.322   4.845   6.249  0.7055 -0.1278 -1.7850
 3453SOL    HW213252   5.273   4.954   6.157 -1.7470  0.1628 -0.2449
 3454SOL     OW13253   4.578   3.838   5.345 -0.0656 -0.0450  0.3099
 3454SOL    HW113254   4.519   3.767   5.371 -0.6665 -0.1196 -1.1719
 3454SOL    HW213255   4.608   3.813   5.257  1.0790  0.6900  0.4773
 3455SOL     OW13256   4.186   4.043   2.379  0.3256 -0.6928 -0.0741
 3455SOL    HW113257   4.186   4.098   2.300  0.2397 -0.9157 -0.2304
 3455SOL    HW213258   4.152   3.959   2.349 -0.8629 -0.4166  0.4495
 3456SOL     OW13259   0.901   5.033   7.754 -0.2347 -0.1754  0.4007
 3456SOL    HW113260   0.972   4.970   7.764  0.7707  0.9397  0.4554
 3456SOL    HW213261   0.840   5.011   7.825  1.4756  0.6800  2.2432
 3457SOL     OW13262   0.604   0.360   5.121  0.4693  0.0216  0.0656
 3457SOL    HW113263   0.680   0.373   5.178  0.1429  0.8530  0.3389
 3457SOL    HW213264   0.539   0.422   5.154 -0.3694 -0.7596 -0.0982
 3458SOL     OW13265   8.982   7.773   4.820 -0.2972  0.0046  0.1310
 3458SOL    HW113266   8.954   7.690   4.781 -0.2123  0.1218 -0.1760
 3458SOL    HW213267   8.974   7.837   4.750 -0.6597  0.3210  0.4516
 3459SOL     OW13268   0.276   6.306   3.385 -0.2264  0.3528  0.6532
 3459SOL    HW113269   0.218   6.349   3.323  0.8443  0.3767 -0.3657
 3459SOL    HW213270   0.255   6.213   3.377  1.8360 -0.0085 -1.9498
 3460SOL     OW13271   2.480   1.335   5.505  0.3130 -0.4511  0.1186
 3460SOL    HW113272   2.520   1.325   5.591  1.4235  0.0295 -0.3277
 3460SOL    HW213273   2.443   1.423   5.505  0.6786 -0.2976 -0.0439
 3461SOL     OW13274   9.118   8.773   6.488 -0.3498  0.2478 -0.2382
 3461SOL    HW113275   9.211   8.752   6.497  0.0385  1.9954  0.0852
 3461SOL    HW213276   9.109   8.861   6.525 -2.0737  0.2522 -0.5821
 3462SOL     OW13277   7.527   3.715   7.083 -0.2831 -0.3496  0.0555
 3462SOL    HW113278   7.462   3.648   7.103 -0.7879  0.1581  0.1373
 3462SOL    HW213279   7.608   3.681   7.121 -0.1610 -1.6620 -1.2873
 3463SOL     OW13280   6.316   0.844   4.274  0.1737 -0.1142 -0.3957
 3463SOL    HW113281   6.343   0.826   4.184  1.1617  0.1822 -0.1708
 3463SOL    HW213282   6.229   0.882   4.266  0.1534 -0.3219 -1.2099
 3464SOL     OW13283   2.637   8.107   2.361 -0.8759 -0.1504  0.2869
 3464SOL    HW113284   2.646   8.057   2.441 -1.2975 -0.0692  0.3893
 3464SOL    HW213285   2.654   8.044   2.291 -1.6125 -0.4942  0.4081
 3465SOL     OW13286   8.726   2.609   8.542 -0.3679  0.1502  0.1645
 3465SOL    HW113287   8.633   2.629   8.531  0.0155  1.4269 -1.0959
 3465SOL    HW213288   8.751   2.565   8.461 -0.3160 -2.2364  1.3766
 3466SOL     OW13289   7.466   2.391   3.494 -0.0928  0.3079  0.1579
 3466SOL    HW113290   7.503   2.335   3.427  1.2983  0.1624  1.0027
 3466SOL    HW213291   7.521   2.376   3.571 -0.2639  2.1054  0.6791
 3467SOL     OW13292   3.763   1.692   6.281  0.2231  0.8735  0.6664
 3467SOL    HW113293   3.750   1.764   6.219  0.5192  0.4803  0.1395
 3467SOL    HW213294   3.760   1.613   6.227  0.6872  0.5357  1.1240
 3468SOL     OW13295   6.152   0.542   5.018  0.3603  0.4019  0.0494
 3468SOL    HW113296   6.223   0.528   4.956  0.5592  1.2438  0.0790
 3468SOL    HW213297   6.163   0.632   5.048 -0.2795  0.3024  0.6131
 3469SOL     OW13298   5.668   2.709   8.545 -0.2390  0.2731 -0.2280
 3469SOL    HW113299   5.658   2.647   8.472  0.0533 -0.7565  0.5918
 3469SOL    HW213300   5.583   2.753   8.551 -0.8634 -0.9195 -0.0479
 3470SOL     OW13301   2.504   2.319   5.692  0.1362 -0.1862 -0.0992
 3470SOL    HW113302   2.550   2.265   5.628  1.1413 -0.4217  0.7767
 3470SOL    HW213303   2.533   2.409   5.673  2.5123 -0.4932  1.5675
 3471SOL     OW13304   7.929   3.196   1.389  0.1414 -0.0770  0.0848
 3471SOL    HW113305   7.837   3.180   1.367  0.5837 -0.8752 -1.3464
 3471SOL    HW213306   7.945   3.141   1.466 -0.5992  0.1402  0.3996
 3472SOL     OW13307   3.863   5.448   8.544  0.2706 -0.5859  0.0705
 3472SOL    HW113308   3.803   5.504   8.594  0.9614  0.0436  0.2053
 3472SOL    HW213309   3.822   5.441   8.457  1.1620  1.8661 -0.6388
 3473SOL     OW13310   6.261   5.941   1.349  0.7795 -0.3799 -0.1961
 3473SOL    HW113311   6.339   5.892   1.324  1.4469  1.3691 -1.8035
 3473SOL    HW213312   6.192   5.905   1.293  1.3875  0.7694 -1.7782
 3474SOL     OW13313   2.361   4.573   8.833 -0.5184 -0.4862  0.1099
 3474SOL    HW113314   2.444   4.612   8.806 -1.7036  0.3174 -2.6342
 3474SOL    HW213315   2.349   4.499   8.774 -1.9714 -0.2876  0.1255
 3475SOL     OW13316   3.500   5.351   5.876 -0.3260 -0.1765  0.4635
 3475SOL    HW113317   3.409   5.352   5.846 -0.5017 -1.1779  0.9261
 3475SOL    HW213318   3.539   5.430   5.837 -1.4546  0.4164  0.4914
 3476SOL     OW13319   5.757   8.487   6.000  0.4827 -0.4472 -0.5215
 3476SOL    HW113320   5.826   8.509   6.062  0.8941 -1.0894 -0.7435
 3476SOL    HW213321   5.788   8.408   5.956 -0.4049 -0.7617 -0.6005
 3477SOL     OW13322   6.142   4.834   4.875  0.1169  0.2096 -0.2089
 3477SOL    HW113323   6.069   4.873   4.828  0.5165  1.3209  0.0614
 3477SOL    HW213324   6.107   4.810   4.960 -0.8423 -2.6149 -1.2789
 3478SOL     OW13325   9.229   0.292   2.661 -0.1602 -0.4149 -0.5429
 3478SOL    HW113326   9.279   0.231   2.714 -1.3289 -0.8072  0.1390
 3478SOL    HW213327   9.187   0.238   2.595 -0.1046 -0.1541 -0.7958
 3479SOL     OW13328   9.222   5.980   5.368 -0.4288  0.3945 -0.4084
 3479SOL    HW113329   9.276   6.051   5.402 -1.3907  1.9410 -1.9196
 3479SOL    HW213330   9.243   5.904   5.423  0.7875  1.7851  1.1243
 3480SOL     OW13331   6.272   7.734   9.176  0.1907  0.0737  0.1147
 3480SOL    HW113332   6.290   7.719   9.269  0.6838  1.3554  0.2424
 3480SOL    HW213333   6.194   7.681   9.158  0.0923 -0.1915  1.2484
 3481SOL     OW13334   8.605   8.042   8.540 -0.5610  0.1898 -0.0997
 3481SOL    HW113335   8.645   8.084   8.464 -1.3541 -0.9987 -1.2366
 3481SOL    HW213336   8.571   7.959   8.506 -0.5453 -0.5950  1.6694
 3482SOL     OW13337   2.769   8.203   5.510  0.1702  0.2656 -0.5539
 3482SOL    HW113338   2.760   8.291   5.474 -0.4670  0.0428 -0.9564
 3482SOL    HW213339   2.679   8.173   5.523  0.3862  0.0597  0.5507
 3483SOL     OW13340   8.459   5.851   6.069  0.3256 -0.0179  0.0785
 3483SOL    HW113341   8.475   5.780   6.006 -1.3917 -0.8764  0.5351
 3483SOL    HW213342   8.433   5.925   6.014 -1.2437 -0.7814 -0.2918
 3484SOL     OW13343   2.736   4.842   4.516 -0.2067 -0.0113  0.0924
 3484SOL    HW113344   2.747   4.747   4.517  0.8213  0.1015  0.1516
 3484SOL    HW213345   2.641   4.855   4.517 -0.3666 -1.0381 -0.6004
 3485SOL     OW13346   1.023   1.753   7.699 -0.4370  0.0668 -0.5931
 3485SOL    HW113347   1.102   1.726   7.652 -0.0902  2.7772 -1.7913
 3485SOL    HW213348   0.951   1.725   7.643 -0.4556 -2.7290  0.6701
 3486SOL     OW13349   6.390   6.291   8.232 -0.2613 -0.3489 -0.1431
 3486SOL    HW113350   6.434   6.320   8.312 -0.3571 -0.9650  0.1399
 3486SOL    HW213351   6.348   6.370   8.198  0.6669  0.1437 -0.1671
 3487SOL     OW13352   4.092   8.112   4.722 -0.3284  0.1761 -0.1652
 3487SOL    HW113353   4.092   8.036   4.663 -0.3106 -0.1919  0.2954
 3487SOL    HW213354   4.013   8.160   4.700 -0.0679  0.3016 -0.8176
 3488SOL     OW13355   7.366   1.853   5.890  0.4671  0.2220  0.6268
 3488SOL    HW113356   7.380   1.948   5.892 -0.8323  0.4410  0.3584
 3488SOL    HW213357   7.276   1.842   5.921 -0.6496 -0.6277 -2.5562
 3489SOL     OW13358   6.931   3.983   5.031  0.0717  1.0842  0.2806
 3489SOL    HW113359   6.994   3.951   4.967  0.1098  2.1648 -0.2415
 3489SOL    HW213360   6.854   3.926   5.019  0.1254  1.1973 -0.6386
 3490SOL     OW13361   2.419   7.823   7.598 -0.1382  0.3319  0.4247
 3490SOL    HW113362   2.446   7.795   7.511 -1.5450 -1.4040  0.4808
 3490SOL    HW213363   2.448   7.753   7.656 -0.6610  0.6776  1.1217
 3491SOL     OW13364   9.108   3.205   1.617 -0.1736 -0.2524 -0.3911
 3491SOL    HW113365   9.071   3.152   1.688 -1.0519 -2.2560 -2.2437
 3491SOL    HW213366   9.201   3.180   1.615 -0.0059  0.2591  0.3924
 3492SOL     OW13367   3.372   1.410   6.306 -0.1066 -0.1400  0.2649
 3492SOL    HW113368   3.321   1.429   6.228 -0.6902  0.3489  0.7525
 3492SOL    HW213369   3.336   1.469   6.373  0.6490 -0.2635  0.7924
 3493SOL     OW13370   4.987   5.336   4.257  0.0714  0.1273 -0.3990
 3493SOL    HW113371   4.982   5.409   4.319 -1.0981  0.4617 -0.8579
 3493SOL    HW213372   4.951   5.371   4.175  0.0894 -0.7764 -0.8082
 3494SOL     OW13373   0.571   8.048   2.882 -0.0899 -0.3551 -0.5266
 3494SOL    HW113374   0.518   8.004   2.949  1.1283  0.4404  1.0342
 3494SOL    HW213375   0.513   8.114   2.845 -0.0311  1.0666  1.7367
 3495SOL     OW13376   4.440   2.931   1.379  0.6144  0.1434 -0.1476
 3495SOL    HW113377   4.355   2.915   1.338  0.4410  1.1970 -0.2114
 3495SOL    HW213378   4.496   2.860   1.347  0.7111  1.3295 -2.8711
 3496SOL     OW13379   4.289   0.031   1.763 -0.3014 -0.3937  0.3405
 3496SOL    HW113380   4.289   0.096   1.833  1.8356  0.2790 -0.2015
 3496SOL    HW213381   4.258  -0.049   1.805 -0.1672  0.2713  1.7798
 3497SOL     OW13382   3.746   1.209   2.077  0.2400 -0.5794 -0.0640
 3497SOL    HW113383   3.788   1.127   2.050 -0.1557 -0.7520 -0.1652
 3497SOL    HW213384   3.660   1.207   2.034 -0.0318 -0.4272  0.4632
 3498SOL     OW13385   8.917   8.910   1.934 -0.4019  0.2671 -0.0703
 3498SOL    HW113386   8.830   8.884   1.966 -0.5921  0.4850 -0.3974
 3498SOL    HW213387   8.904   9.000   1.904  0.1339  0.5804  0.6234
 3499SOL     OW13388   8.681   0.948   7.448  0.3441  0.2362  0.5104
 3499SOL    HW113389   8.652   1.023   7.395  0.1177  0.8304  1.4494
 3499SOL    HW213390   8.644   0.872   7.403 -1.3559  0.8581  0.7564
 3500SOL     OW13391   8.197   2.326   7.583  0.2082 -0.0037  0.3234
 3500SOL    HW113392   8.209   2.307   7.490 -0.5242  0.7196  0.0740
 3500SOL    HW213393   8.247   2.406   7.599 -2.0959  1.6066 -0.1614
 3501SOL     OW13394   3.165   1.249   1.887  0.5475  0.1307  0.0329
 3501SOL    HW113395   3.238   1.280   1.940  1.6772 -1.8160 -0.2883
 3501SOL    HW213396   3.196   1.168   1.848 -2.1540 -1.4172  0.7802
 3502SOL     OW13397   3.721   8.568   2.384  0.1540  0.0117 -0.1083
 3502SOL    HW113398   3.785   8.591   2.318  0.6746 -0.4255  0.2314
 3502SOL    HW213399   3.772   8.562   2.465 -0.2866 -0.4868  0.1365
 3503SOL     OW13400   6.666   1.440   1.950 -0.4688  0.2018  0.1397
 3503SOL    HW113401   6.728   1.475   2.014  3.3743 -2.8715 -1.5444
 3503SOL    HW213402   6.640   1.516   1.898  1.8218  1.6579  1.0021
 3504SOL     OW13403   6.657   3.756   5.508 -0.6289 -0.3351  0.1569
 3504SOL    HW113404   6.582   3.724   5.458 -0.0458 -0.4622 -0.6717
 3504SOL    HW213405   6.627   3.836   5.549 -1.4041 -0.7201  0.3460
 3505SOL     OW13406   6.772   0.059   0.764  0.3978  0.4807 -0.3112
 3505SOL    HW113407   6.712   0.097   0.699  0.3125 -0.7553 -0.9804
 3505SOL    HW213408   6.857   0.061   0.721  0.0998 -1.7197 -1.1100
 3506SOL     OW13409   7.788   7.734   5.508  0.0095 -0.6937 -0.0368
 3506SOL    HW113410   7.837   7.775   5.579 -3.6251  0.1736  2.2131
 3506SOL    HW213411   7.722   7.680   5.552 -3.2318  0.8373 -2.6003
 3507SOL     OW13412   4.980   1.331   4.065  0.4395 -0.2745 -0.1852
 3507SOL    HW113413   4.918   1.352   4.136  0.3800 -0.8357 -0.0700
 3507SOL    HW213414   5.030   1.412   4.053 -0.7281  0.3930 -0.7035
 3508SOL     OW13415   3.057   9.007   2.394 -0.1784  0.1333  0.3245
 3508SOL    HW113416   3.033   8.923   2.354  0.4709 -0.0280  0.2773
 3508SOL    HW213417   3.019   9.003   2.482 -0.1583 -0.2024  0.3209
 3509SOL     OW13418   8.276   1.063   3.809  0.2157 -0.1219  0.4951
 3509SOL    HW113419   8.311   0.975   3.824  1.3464 -0.1736 -1.9840
 3509SOL    HW213420   8.350   1.113   3.774 -1.3889  0.5564 -2.2539
 3510SOL     OW13421   1.946   4.651   2.957  0.1030 -0.5797 -0.1573
 3510SOL    HW113422   2.031   4.653   2.914 -0.2364  0.2857 -0.8299
 3510SOL    HW213423   1.960   4.600   3.037  1.7589  1.2104  0.7836
 3511SOL     OW13424   5.552   4.288   3.687  0.2522 -0.1127  0.3249
 3511SOL    HW113425   5.528   4.245   3.605  0.6900  0.2654 -0.0067
 3511SOL    HW213426   5.642   4.318   3.674  0.1543  0.3931  0.7572
 3512SOL     OW13427   3.020   5.258   7.938 -0.1308  0.3368  0.4895
 3512SOL    HW113428   2.939   5.300   7.909  0.5269  0.4118 -1.3391
 3512SOL    HW213429   2.991   5.193   8.003 -2.0955 -1.9437 -2.4186
 3513SOL     OW13430   3.199   5.477   7.394 -0.1880 -0.0755 -0.3499
 3513SOL    HW113431   3.260   5.486   7.321  0.3334 -2.0972 -0.2261
 3513SOL    HW213432   3.117   5.448   7.354 -0.2179 -0.1389 -0.2438
 3514SOL     OW13433   4.821   1.812   4.415  0.4941 -0.5269 -0.2110
 3514SOL    HW113434   4.860   1.738   4.369  0.3202 -1.0459  0.4652
 3514SOL    HW213435   4.866   1.814   4.500 -0.9163 -1.1356  0.5853
 3515SOL     OW13436   3.340   3.480   0.633  0.2950 -0.1528 -0.5429
 3515SOL    HW113437   3.357   3.467   0.726 -1.2131  1.2703  0.0027
 3515SOL    HW213438   3.395   3.555   0.608 -0.4627  0.4916 -0.3492
 3516SOL     OW13439   6.870   5.495   2.826 -0.4263 -0.3034  0.3160
 3516SOL    HW113440   6.823   5.440   2.888 -1.2352  0.6520  0.5817
 3516SOL    HW213441   6.898   5.435   2.757  0.0094 -1.2927  1.3096
 3517SOL     OW13442   8.572   1.009   8.260 -0.1976 -0.2408 -0.3074
 3517SOL    HW113443   8.559   1.094   8.218 -0.1351 -0.1471 -0.1384
 3517SOL    HW213444   8.594   0.949   8.188 -0.1706 -0.0987 -0.4169
 3518SOL     OW13445   5.648   2.909   5.618  0.4983 -0.1050 -0.0230
 3518SOL    HW113446   5.673   2.904   5.526  1.1205 -1.2421  0.1910
 3518SOL    HW213447   5.730   2.924   5.665 -0.1020  3.1321  0.2048
 3519SOL     OW13448   0.767   5.975   1.457  0.1243  0.2666  0.3279
 3519SOL    HW113449   0.764   5.880   1.448 -1.0416  0.3341 -0.2085
 3519SOL    HW213450   0.853   5.993   1.494 -0.2963 -1.1282  2.1261
 3520SOL     OW13451   3.839   8.890   4.588 -0.0856 -0.2065  0.3154
 3520SOL    HW113452   3.927   8.885   4.551 -0.8839  0.3883 -1.8433
 3520SOL    HW213453   3.789   8.825   4.538 -1.2143  0.5667  0.4023
 3521SOL     OW13454   7.493   6.841   3.526  0.4044 -0.3308  0.0161
 3521SOL    HW113455   7.560   6.889   3.478  2.4312 -1.6463  1.3602
 3521SOL    HW213456   7.453   6.906   3.584  1.8128  0.1268  0.5040
 3522SOL     OW13457   2.286   2.503   9.069 -0.3134 -0.0849  0.2777
 3522SOL    HW113458   2.312   2.412   9.084  0.6033  0.0325 -0.5346
 3522SOL    HW213459   2.241   2.501   8.984 -0.3308  0.2155  0.2789
 3523SOL     OW13460   4.200   8.460   1.481 -0.1002  0.4361  0.0644
 3523SOL    HW113461   4.176   8.420   1.565 -2.6400 -0.6714 -1.0906
 3523SOL    HW213462   4.137   8.530   1.468 -0.1062  0.2291 -1.1711
 3524SOL     OW13463   8.225   3.591   1.456 -0.1921 -0.0815  0.5371
 3524SOL    HW113464   8.311   3.549   1.458  0.0059  0.3267  0.7856
 3524SOL    HW213465   8.188   3.566   1.371  0.6784  0.7264 -0.1035
 3525SOL     OW13466   7.281   6.258   4.487 -0.2111 -0.4048 -0.4427
 3525SOL    HW113467   7.344   6.330   4.485 -1.2716  0.5430 -0.5722
 3525SOL    HW213468   7.317   6.196   4.551  1.0147 -0.0608 -0.7664
 3526SOL     OW13469   4.110   6.672   7.264  0.1077 -0.1390 -0.4882
 3526SOL    HW113470   4.123   6.697   7.172  0.0250  0.3196 -0.3778
 3526SOL    HW213471   4.190   6.702   7.308  0.7514 -1.5433 -0.6324
 3527SOL     OW13472   5.729   2.890   3.457 -0.1641  0.5862 -0.3223
 3527SOL    HW113473   5.733   2.943   3.537 -2.8584  0.7472 -0.1956
 3527SOL    HW213474   5.637   2.891   3.433  0.4267 -0.3184 -2.8988
 3528SOL     OW13475   1.638   6.764   8.872 -0.1852 -0.3352 -0.3468
 3528SOL    HW113476   1.712   6.795   8.924 -0.7565 -1.0989  0.9709
 3528SOL    HW213477   1.629   6.671   8.896 -1.9207 -0.1247 -0.0087
 3529SOL     OW13478   5.667   4.732   1.836 -0.0048  0.0338 -0.0916
 3529SOL    HW113479   5.670   4.665   1.768 -0.9523  0.3797 -0.4972
 3529SOL    HW213480   5.690   4.686   1.917 -1.6146 -1.0396 -0.1918
 3530SOL     OW13481   6.530   1.954   1.954 -0.1831  0.8492  0.3888
 3530SOL    HW113482   6.505   2.016   2.022 -1.4766  1.3551 -0.5083
 3530SOL    HW213483   6.476   1.978   1.879 -0.5600 -1.2184 -0.0607
 3531SOL     OW13484   7.769   9.107   5.394  0.4782  0.2944  0.0430
 3531SOL    HW113485   7.757   9.093   5.300  1.2812  0.5671 -0.1071
 3531SOL    HW213486   7.864   9.113   5.405  0.5155 -1.5097  1.1198
 3532SOL     OW13487   1.224   2.502   8.025 -0.2434  0.5688  0.1632
 3532SOL    HW113488   1.228   2.489   7.930  1.8663 -1.2536  0.3886
 3532SOL    HW213489   1.137   2.472   8.050 -0.4757  0.1230 -1.0951
 3533SOL     OW13490   6.822   6.622   4.476  0.5503 -0.4989  0.0313
 3533SOL    HW113491   6.766   6.696   4.451  3.7508  2.5712  1.0867
 3533SOL    HW213492   6.770   6.572   4.539 -1.5273  1.2367 -0.2112
 3534SOL     OW13493   8.296   2.705   2.951 -0.4488 -0.2491 -0.2604
 3534SOL    HW113494   8.346   2.775   2.908  1.2026 -1.9457 -1.2173
 3534SOL    HW213495   8.205   2.722   2.926 -0.1818  1.8208 -0.0449
 3535SOL     OW13496   2.270   9.177   3.343  0.6455  0.5899 -0.1445
 3535SOL    HW113497   2.211   9.250   3.325  0.1629  0.0992 -0.5855
 3535SOL    HW213498   2.357   9.217   3.353  0.0295  1.5092  2.0887
 3536SOL     OW13499   9.115   6.285   2.343  0.2966 -0.0775 -0.2650
 3536SOL    HW113500   9.206   6.300   2.368 -0.2833 -0.4606  2.3850
 3536SOL    HW213501   9.069   6.363   2.373 -0.5859 -0.9077  0.5998
 3537SOL     OW13502   2.859   6.636   0.668 -0.2860  0.1965  0.3818
 3537SOL    HW113503   2.889   6.682   0.746  1.9524 -1.9388  0.9005
 3537SOL    HW213504   2.791   6.576   0.698 -1.5807  1.4697  0.0985
 3538SOL     OW13505   5.869   7.057   7.164 -0.2602  0.5216  0.1824
 3538SOL    HW113506   5.843   7.012   7.084  1.4651  1.6143 -1.0706
 3538SOL    HW213507   5.886   7.147   7.136  1.4351  0.6685  1.5192
 3539SOL     OW13508   4.055   0.992   2.641  0.9857 -0.2009  0.1065
 3539SOL    HW113509   4.010   1.028   2.717 -0.2045 -1.2037 -0.0994
 3539SOL    HW213510   4.138   0.959   2.676  0.4432 -0.6663  0.9903
 3540SOL     OW13511   5.602   4.232   1.220  0.2229 -0.1824 -0.3377
 3540SOL    HW113512   5.547   4.170   1.173  0.1211 -0.5371  0.2349
 3540SOL    HW213513   5.563   4.317   1.203  0.7591 -0.1901 -1.6928
 3541SOL     OW13514   4.679   1.612   4.666 -0.3541 -0.2279  0.5833
 3541SOL    HW113515   4.720   1.580   4.747 -1.1238  0.2475  1.1712
 3541SOL    HW213516   4.716   1.557   4.597  1.1124  0.0375  1.1199
 3542SOL     OW13517   7.519   4.365   0.534 -0.0638  0.1670 -0.1419
 3542SOL    HW113518   7.445   4.424   0.549  0.4322  1.0815 -1.1221
 3542SOL    HW213519   7.549   4.387   0.446  1.3847 -0.1699  0.2430
 3543SOL     OW13520   3.825   7.829   4.779  0.3162  0.5528  0.3965
 3543SOL    HW113521   3.766   7.895   4.740 -0.3856 -0.3814 -0.1712
 3543SOL    HW213522   3.775   7.747   4.775  1.5657 -0.2195  0.1445
 3544SOL     OW13523   7.672   1.815   1.982 -0.0172  0.2721 -0.4585
 3544SOL    HW113524   7.688   1.871   2.057 -1.5927 -0.0059  0.1103
 3544SOL    HW213525   7.682   1.726   2.016 -0.8727  0.1429 -0.5271
 3545SOL     OW13526   7.372   4.546   9.047  0.0964  0.2433  0.4810
 3545SOL    HW113527   7.304   4.479   9.049  0.0859  0.2727  1.4747
 3545SOL    HW213528   7.394   4.562   9.139  0.2883  1.4114  0.2581
 3546SOL     OW13529   8.835   2.761   6.163 -0.0535  0.0620  0.0130
 3546SOL    HW113530   8.765   2.793   6.107 -0.0709  0.7497  0.4161
 3546SOL    HW213531   8.907   2.742   6.102 -0.1350  0.6169 -0.2639
 3547SOL     OW13532   6.970   6.530   2.298  0.0753 -0.2448 -0.2320
 3547SOL    HW113533   7.034   6.485   2.243  1.4969  0.1253  1.0589
 3547SOL    HW213534   6.935   6.599   2.241  1.8395  0.4195 -0.5746
 3548SOL     OW13535   1.073   8.460   4.203 -0.0345  0.3820  0.6766
 3548SOL    HW113536   1.123   8.384   4.235 -2.4888 -1.2523  0.8881
 3548SOL    HW213537   1.102   8.471   4.113  0.7878 -0.4379  0.8201
 3549SOL     OW13538   8.262   9.106   6.744 -0.3716  0.7155 -0.1218
 3549SOL    HW113539   8.289   9.044   6.811 -1.5241  2.0421  1.6622
 3549SOL    HW213540   8.320   9.089   6.670 -0.5822 -2.3686  0.3068
 3550SOL     OW13541   3.652   6.834   6.937 -0.5361  0.1956  0.1758
 3550SOL    HW113542   3.696   6.750   6.949  0.1730  0.1428 -2.2898
 3550SOL    HW213543   3.561   6.811   6.915 -0.2603  0.0134 -0.8452
 3551SOL     OW13544   7.457   2.751   7.383 -0.1296 -1.1631 -0.3363
 3551SOL    HW113545   7.501   2.718   7.305  0.5931 -0.8870 -0.0552
 3551SOL    HW213546   7.504   2.711   7.456 -0.7630 -1.3744 -0.0385
 3552SOL     OW13547   8.091   5.102   5.877 -0.2910 -0.3266  0.0771
 3552SOL    HW113548   7.998   5.122   5.867  0.1327  1.0357 -1.5888
 3552SOL    HW213549   8.134   5.152   5.807  1.6471 -1.3027  0.5046
 3553SOL     OW13550   4.365   1.575   2.760  0.0995 -0.6288 -0.3365
 3553SOL    HW113551   4.421   1.499   2.743 -1.1987 -1.8761  0.7635
 3553SOL    HW213552   4.280   1.552   2.723 -0.3832  0.1723  0.2343
 3554SOL     OW13553   1.575   7.086   4.821 -0.0133 -0.2123  0.1496
 3554SOL    HW113554   1.561   7.042   4.738  0.0694 -2.0292  1.0335
 3554SOL    HW213555   1.666   7.066   4.844 -0.2439 -0.3612  0.9969
 3555SOL     OW13556   3.219   3.331   1.537  0.3210  0.1469  0.4772
 3555SOL    HW113557   3.276   3.254   1.546  1.4054  1.0258  1.5075
 3555SOL    HW213558   3.238   3.384   1.615 -2.1247  0.3663  0.9992
 3556SOL     OW13559   6.939   7.561   4.419 -0.4117  0.2855  0.3319
 3556SOL    HW113560   6.897   7.489   4.466 -0.6956  0.0437 -0.2885
 3556SOL    HW213561   6.966   7.523   4.335  0.4189  0.6177  0.4370
 3557SOL     OW13562   9.158   4.157   1.644  0.0714 -0.0308 -0.2490
 3557SOL    HW113563   9.254   4.152   1.643  0.0869 -0.1339  0.5715
 3557SOL    HW213564   9.139   4.236   1.694 -0.2806  1.1756 -2.1863
 3558SOL     OW13565   5.259   0.522   0.136  0.3011 -0.5849  0.1773
 3558SOL    HW113566   5.332   0.461   0.136  0.6508 -0.1997  1.5749
 3558SOL    HW213567   5.202   0.492   0.065  2.0314 -0.6149 -1.2629
 3559SOL     OW13568   8.327   1.077   0.736 -0.4382 -0.0977  0.3249
 3559SOL    HW113569   8.302   1.168   0.746 -0.2360  0.4309 -2.8636
 3559SOL    HW213570   8.369   1.073   0.650  1.7574 -2.7646  1.3580
 3560SOL     OW13571   4.602   2.786   5.204  0.0528 -0.2600  0.2908
 3560SOL    HW113572   4.587   2.843   5.279  1.6256 -0.6187  0.9033
 3560SOL    HW213573   4.666   2.721   5.234  0.4441 -0.6356 -1.2429
 3561SOL     OW13574   2.914   3.920   0.583 -0.4839 -0.0512 -0.3796
 3561SOL    HW113575   2.900   3.995   0.641 -0.6174 -0.8553  0.6567
 3561SOL    HW213576   2.958   3.957   0.506  1.8837  0.7017  1.2250
 3562SOL     OW13577   7.337   0.790   4.164 -0.4503 -0.4594  0.5475
 3562SOL    HW113578   7.417   0.795   4.112 -0.9586 -2.1061 -0.4681
 3562SOL    HW213579   7.331   0.875   4.208 -0.1341  1.1445 -2.3012
 3563SOL     OW13580   5.610   1.737   1.167 -0.0877  0.3068 -0.6685
 3563SOL    HW113581   5.658   1.660   1.199  0.7136  2.0825  2.9144
 3563SOL    HW213582   5.531   1.740   1.221 -0.4634  1.6111 -1.2526
 3564SOL     OW13583   1.042   5.376   4.518  0.0212  0.3263  0.0336
 3564SOL    HW113584   0.963   5.370   4.464  0.5379 -1.4355 -0.6120
 3564SOL    HW213585   1.012   5.357   4.607 -0.0133 -3.0767 -0.5470
 3565SOL     OW13586   4.486   8.895   7.402  0.1110 -0.4950  0.1341
 3565SOL    HW113587   4.456   8.984   7.384  0.8479 -0.3148 -0.2043
 3565SOL    HW213588   4.416   8.839   7.368  0.1703 -0.0734 -0.6863
 3566SOL     OW13589   0.474   9.191   2.448  0.0235 -0.3117  0.0531
 3566SOL    HW113590   0.398   9.243   2.473 -0.5011 -1.1079  0.1592
 3566SOL    HW213591   0.543   9.255   2.433 -0.4737  0.3798  0.6416
 3567SOL     OW13592   8.860   8.055   0.703 -0.2445  0.1792  0.4797
 3567SOL    HW113593   8.888   7.964   0.714  0.6235  0.3945  0.1209
 3567SOL    HW213594   8.876   8.074   0.611  1.3526  1.2551  0.9450
 3568SOL     OW13595   1.860   0.093   5.126  0.0814  0.7709  0.2365
 3568SOL    HW113596   1.908   0.138   5.195  0.0846  2.3631 -0.7541
 3568SOL    HW213597   1.920   0.092   5.051 -0.4687  0.4348 -0.2098
 3569SOL     OW13598   3.588   3.007   2.955  0.1554 -0.3410  1.0513
 3569SOL    HW113599   3.517   2.951   2.985  0.0293 -0.3470  0.7355
 3569SOL    HW213600   3.668   2.958   2.977  0.0427 -1.7795 -1.3739
 3570SOL     OW13601   0.155   3.357   9.261  0.2588 -0.2403  0.0691
 3570SOL    HW113602   0.185   3.303   9.188  0.6161  1.7750 -1.3888
 3570SOL    HW213603   0.063   3.376   9.241  0.5945  1.0426 -0.3885
 3571SOL     OW13604   5.192   7.018   0.181 -0.7344  0.3359  0.2092
 3571SOL    HW113605   5.202   7.108   0.211 -1.1822  0.3199  0.4154
 3571SOL    HW213606   5.276   6.996   0.142  0.3040 -0.0243  2.4661
 3572SOL     OW13607   6.411   6.454   9.263 -0.4431 -0.4305 -0.0251
 3572SOL    HW113608   6.463   6.419   9.336 -0.4133 -0.2560  0.0380
 3572SOL    HW213609   6.325   6.414   9.273 -1.5914  2.2327  2.2160
 3573SOL     OW13610   4.036   5.335   4.704  0.6071  0.0721 -0.0146
 3573SOL    HW113611   3.942   5.353   4.705  0.6877  0.5165 -0.1289
 3573SOL    HW213612   4.047   5.261   4.763  0.3794  1.0927  1.3693
 3574SOL     OW13613   7.549   3.659   1.748  0.7114 -0.3164 -0.5640
 3574SOL    HW113614   7.550   3.602   1.671  1.4972  1.0932 -1.6344
 3574SOL    HW213615   7.569   3.746   1.714 -0.9124  0.7275  0.9413
 3575SOL     OW13616   6.826   3.189   7.191 -0.1548 -0.1473 -0.0019
 3575SOL    HW113617   6.746   3.240   7.208  0.4825  1.4076 -1.3722
 3575SOL    HW213618   6.851   3.155   7.277 -2.4405 -0.9674  0.4286
 3576SOL     OW13619   3.063   8.659   3.576  0.0055 -0.6942  0.1932
 3576SOL    HW113620   3.051   8.677   3.669  0.4480 -1.6774  0.4567
 3576SOL    HW213621   3.109   8.575   3.574 -0.2153 -0.8016 -0.9163
 3577SOL     OW13622   3.180   5.845   3.960 -0.1826 -0.0157 -0.3749
 3577SOL    HW113623   3.210   5.877   3.875  1.0848 -0.2837 -0.0573
 3577SOL    HW213624   3.110   5.784   3.940  0.2768 -0.2672 -1.2445
 3578SOL     OW13625   5.315   5.850   6.665 -0.5976 -0.4362 -0.4278
 3578SOL    HW113626   5.394   5.806   6.697 -1.1068 -1.2736 -0.2868
 3578SOL    HW213627   5.322   5.847   6.570 -1.0932 -1.7150 -0.4372
 3579SOL     OW13628   1.754   1.733   4.408 -0.2069 -0.3681 -0.3132
 3579SOL    HW113629   1.668   1.756   4.374  0.0652 -0.1336 -0.8529
 3579SOL    HW213630   1.794   1.817   4.432 -1.0944 -0.6122  2.3715
 3580SOL     OW13631   1.528   2.747   3.492  0.1863  0.0951 -0.5595
 3580SOL    HW113632   1.499   2.815   3.431  3.1213 -0.1156 -2.3722
 3580SOL    HW213633   1.548   2.672   3.436  1.3906 -0.6919  0.8626
 3581SOL     OW13634   0.040   8.414   9.134 -0.1328  0.2083  0.2696
 3581SOL    HW113635   0.080   8.335   9.172 -1.6770  0.0394  1.6493
 3581SOL    HW213636  -0.005   8.382   9.055 -1.0455 -0.3862  1.0117
 3582SOL     OW13637   1.504   9.259   4.314 -0.7131 -0.0136  0.7815
 3582SOL    HW113638   1.481   9.350   4.294  0.3539  0.5260  1.8649
 3582SOL    HW213639   1.553   9.229   4.237 -2.0536 -0.0717 -0.0768
 3583SOL     OW13640   8.662   4.668   2.900 -0.4881 -0.4472 -0.3070
 3583SOL    HW113641   8.676   4.761   2.918 -0.4338 -0.6049  0.5184
 3583SOL    HW213642   8.734   4.624   2.945  1.3680 -0.7187 -3.3145
 3584SOL     OW13643   3.847   0.289   5.740  0.5604  0.3975 -0.2628
 3584SOL    HW113644   3.913   0.258   5.678  2.4985  1.6879  1.0233
 3584SOL    HW213645   3.804   0.210   5.771  4.3546 -1.0898  1.8941
 3585SOL     OW13646   0.539   3.536   2.458  0.0391  0.1195 -0.3677
 3585SOL    HW113647   0.498   3.533   2.372 -0.7204  0.1967 -0.0168
 3585SOL    HW213648   0.610   3.599   2.449  0.0602  0.0154 -0.9744
 3586SOL     OW13649   4.897   0.664   4.971  0.1737  0.6113 -0.1773
 3586SOL    HW113650   4.924   0.683   5.061 -0.2370  0.2846  0.0167
 3586SOL    HW213651   4.921   0.742   4.922  1.0661  0.5142  0.0753
 3587SOL     OW13652   6.266   4.600   3.895 -0.0621  0.0364  0.3435
 3587SOL    HW113653   6.267   4.547   3.815  1.3179 -0.7031  0.8151
 3587SOL    HW213654   6.353   4.639   3.899 -0.6182  1.2806  0.7187
 3588SOL     OW13655   2.809   3.440   3.085  0.2984 -0.2311  0.4911
 3588SOL    HW113656   2.799   3.374   3.154 -1.3917 -0.7010 -0.1356
 3588SOL    HW213657   2.721   3.474   3.072  0.7083  0.3532 -0.9434
 3589SOL     OW13658   4.524   6.131   7.859 -0.3160  1.0558 -0.0453
 3589SOL    HW113659   4.527   6.068   7.930 -0.0093  1.0511 -0.0605
 3589SOL    HW213660   4.541   6.216   7.901  2.6879  0.7552 -0.4655
 3590SOL     OW13661   2.431   9.202   5.873 -0.3088 -0.3675  0.4299
 3590SOL    HW113662   2.491   9.135   5.905 -0.1968 -0.0906  0.8119
 3590SOL    HW213663   2.378   9.158   5.807  0.0733 -0.7087  0.3473
 3591SOL     OW13664   7.214   3.193   3.816  0.6591 -0.6487  0.3126
 3591SOL    HW113665   7.167   3.238   3.746 -2.1496 -1.5303  1.4980
 3591SOL    HW213666   7.306   3.218   3.803 -0.1067  1.3683 -1.9994
 3592SOL     OW13667   1.951   7.933   6.035  0.2202  0.0418 -0.0530
 3592SOL    HW113668   2.003   7.853   6.030  0.2452 -0.1498  2.1026
 3592SOL    HW213669   1.864   7.905   6.063  0.4780  0.7701  1.6722
 3593SOL     OW13670   3.038   0.135   6.685 -0.5241  0.0183  0.2399
 3593SOL    HW113671   3.059   0.097   6.600 -0.1261 -0.9002  0.7301
 3593SOL    HW213672   3.036   0.060   6.745  0.3213  0.7818  1.2529
 3594SOL     OW13673   5.478   5.627   8.955 -0.0968  0.1118  0.2863
 3594SOL    HW113674   5.424   5.589   9.025 -0.3034  1.5481  0.9465
 3594SOL    HW213675   5.425   5.616   8.876 -0.2655 -0.7028  0.4996
 3595SOL     OW13676   3.986   0.577   7.647  0.5969  0.3009  0.0643
 3595SOL    HW113677   4.035   0.599   7.568  0.0300  0.0482 -0.3641
 3595SOL    HW213678   4.053   0.570   7.715  1.2471 -0.7078 -0.6407
 3596SOL     OW13679   8.820   6.788   3.948 -0.2282 -0.0820  0.1818
 3596SOL    HW113680   8.892   6.734   3.916 -0.4956 -0.7455  0.6854
 3596SOL    HW213681   8.862   6.867   3.981  0.2306 -0.2689  0.0534
 3597SOL     OW13682   8.841   2.411   1.652  0.2943  0.1367 -0.0929
 3597SOL    HW113683   8.848   2.336   1.593 -3.3464 -1.0388  0.7508
 3597SOL    HW213684   8.853   2.374   1.739 -0.2693  0.7685  0.2598
 3598SOL     OW13685   0.711   2.083   9.096 -0.4700 -0.0789  0.3241
 3598SOL    HW113686   0.706   2.163   9.147 -0.8562  0.5751 -0.6989
 3598SOL    HW213687   0.654   2.099   9.020  0.7285 -0.6822 -0.7371
 3599SOL     OW13688   3.213   6.610   7.628  0.4594  0.3467  0.6666
 3599SOL    HW113689   3.127   6.636   7.596  0.1624 -0.4609  0.8047
 3599SOL    HW213690   3.265   6.598   7.548  0.7576  1.8248  0.6049
 3600SOL     OW13691   8.717   1.624   7.686  0.4107 -0.3959  0.5969
 3600SOL    HW113692   8.706   1.712   7.722 -0.8831 -1.5384  3.3539
 3600SOL    HW213693   8.700   1.634   7.593 -0.1651  2.2069  0.8924
 3601SOL     OW13694   7.000   6.093   6.034  0.2467 -0.2744  0.2161
 3601SOL    HW113695   6.906   6.112   6.034  0.4945  1.2680  2.1021
 3601SOL    HW213696   7.034   6.139   5.957 -0.1879  1.3266  0.9558
 3602SOL     OW13697   0.344   3.659   2.040  0.4749  0.1073  0.0036
 3602SOL    HW113698   0.295   3.734   2.007  0.6709 -0.5916 -1.9981
 3602SOL    HW213699   0.295   3.583   2.010  1.2433 -0.5876  0.4683
 3603SOL     OW13700   2.092   8.672   3.289 -0.1421  0.3911 -0.5105
 3603SOL    HW113701   2.114   8.650   3.380  1.5284 -1.4165 -1.2692
 3603SOL    HW213702   2.146   8.748   3.268  0.4357  0.0326 -0.3480
 3604SOL     OW13703   2.925   5.713   8.650 -0.2385 -0.4269  0.2579
 3604SOL    HW113704   2.949   5.801   8.681  0.4376 -0.2819 -0.6026
 3604SOL    HW213705   2.839   5.696   8.688 -1.1991  1.3511 -0.9634
 3605SOL     OW13706   0.915   8.995   1.035  0.2213 -0.2847 -0.5183
 3605SOL    HW113707   0.880   8.927   0.979 -1.0627  0.9882 -1.3305
 3605SOL    HW213708   0.858   8.994   1.112 -1.4206  1.4819 -1.6374
 3606SOL     OW13709   6.411   8.316   6.000  0.1048  0.6082  0.6793
 3606SOL    HW113710   6.336   8.331   6.058 -2.0683  0.8993 -2.0016
 3606SOL    HW213711   6.445   8.403   5.981 -0.7285  0.7469 -0.2943
 3607SOL     OW13712   3.083   0.763   1.935  0.2171 -0.1035  0.6692
 3607SOL    HW113713   3.121   0.679   1.912 -0.6825  0.0708 -1.7390
 3607SOL    HW213714   3.043   0.749   2.021  0.7200 -1.8850  0.6475
 3608SOL     OW13715   1.918   2.639   3.042  0.5350 -0.6250 -0.0695
 3608SOL    HW113716   1.905   2.554   3.085  0.2015 -0.7134 -0.3332
 3608SOL    HW213717   1.891   2.624   2.951  0.5554 -0.2584 -0.1379
 3609SOL     OW13718   4.947   1.575   5.261  0.6096 -0.0677  0.3706
 3609SOL    HW113719   5.008   1.649   5.260  1.3644 -0.6857 -0.7982
 3609SOL    HW213720   4.860   1.615   5.269  1.0288  0.9259  0.0011
 3610SOL     OW13721   7.620   2.149   6.123  0.2800 -0.5863 -0.0909
 3610SOL    HW113722   7.528   2.124   6.117  0.3919 -0.7238 -1.9304
 3610SOL    HW213723   7.620   2.230   6.173 -0.8421 -0.5791 -0.0760
 3611SOL     OW13724   6.668   7.027   2.560  0.0773 -0.4937 -0.0719
 3611SOL    HW113725   6.580   7.035   2.523  0.6242  1.2244 -1.1308
 3611SOL    HW213726   6.679   7.107   2.611  0.7630 -1.0523  0.6755
 3612SOL     OW13727   4.951   7.396   5.093 -0.4517 -0.7712  0.1014
 3612SOL    HW113728   4.873   7.353   5.128 -1.7447 -0.1839 -1.8786
 3612SOL    HW213729   4.977   7.342   5.018 -2.4579  1.9570 -2.8168
 3613SOL     OW13730   5.506   2.575   6.734 -0.6643 -0.0119 -0.0086
 3613SOL    HW113731   5.415   2.565   6.762 -1.1484  0.4435 -1.3577
 3613SOL    HW213732   5.523   2.498   6.680 -0.9727  0.9642 -1.5557
 3614SOL     OW13733   6.951   0.368   8.482  0.6567 -0.7919  0.4563
 3614SOL    HW113734   6.866   0.369   8.525  0.0205 -2.3022 -0.6745
 3614SOL    HW213735   6.996   0.292   8.520  0.8904 -0.9174 -0.0683
 3615SOL     OW13736   2.318   6.541   6.942  0.1101  0.6206  0.0038
 3615SOL    HW113737   2.322   6.524   6.847  0.6596  1.3283 -0.1086
 3615SOL    HW213738   2.376   6.616   6.955  1.2875 -0.4709  1.1420
 3616SOL     OW13739   3.794   8.775   0.095 -0.4510 -0.0391 -0.5982
 3616SOL    HW113740   3.830   8.852   0.050 -0.8792  0.5279  0.0036
 3616SOL    HW213741   3.760   8.810   0.177  0.6924 -1.1169  0.3658
 3617SOL     OW13742   4.787   6.978   7.678  0.1074  0.5961 -0.0273
 3617SOL    HW113743   4.783   6.882   7.677 -0.3429  0.6045 -1.9032
 3617SOL    HW213744   4.720   7.004   7.742  0.3746 -0.3233  0.6468
 3618SOL     OW13745   6.847   2.825   0.809  0.1153  0.2371  0.3002
 3618SOL    HW113746   6.906   2.752   0.828  2.6037  2.4379  1.8326
 3618SOL    HW213747   6.770   2.785   0.768  1.9720 -3.0142 -0.3382
 3619SOL     OW13748   7.632   1.925   8.699 -0.1752 -0.2831 -0.3443
 3619SOL    HW113749   7.694   1.854   8.684  0.1028  0.0088 -0.5823
 3619SOL    HW213750   7.553   1.881   8.731  0.5834 -0.5499  1.2668
 3620SOL     OW13751   6.911   7.021   8.411  0.2739 -0.7156 -0.5895
 3620SOL    HW113752   6.882   6.946   8.464  1.5121 -0.4084  0.5840
 3620SOL    HW213753   6.831   7.057   8.374 -0.9129  0.0162  2.3752
 3621SOL     OW13754   1.498   4.035   2.515 -0.2341  0.7493  0.4747
 3621SOL    HW113755   1.568   4.079   2.468  0.1382  0.6645  0.9416
 3621SOL    HW213756   1.418   4.064   2.471  0.0281  1.6087  0.5452
 3622SOL     OW13757   1.878   0.826   6.637 -0.2227  0.0795 -0.2297
 3622SOL    HW113758   1.849   0.741   6.603  0.0787  0.1615 -0.7039
 3622SOL    HW213759   1.973   0.818   6.642 -0.3707 -1.0071  3.4813
 3623SOL     OW13760   8.934   3.990   4.671  0.2412  0.4605 -0.5332
 3623SOL    HW113761   9.019   3.959   4.639  0.2798  0.0544 -0.0616
 3623SOL    HW213762   8.875   3.916   4.656  0.3740  0.0622  0.7905
 3624SOL     OW13763   6.855   1.956   2.817  0.8971 -0.3587  0.1405
 3624SOL    HW113764   6.785   1.975   2.879 -0.6082 -2.2559 -0.8476
 3624SOL    HW213765   6.860   1.860   2.816  1.3790 -0.3604 -2.0867
 3625SOL     OW13766   5.939   2.703   4.247  0.0563 -0.0373  0.1757
 3625SOL    HW113767   5.876   2.671   4.183  1.1192  0.2183 -1.0484
 3625SOL    HW213768   5.893   2.770   4.297 -0.2557  1.0951 -1.5817
 3626SOL     OW13769   6.490   7.511   5.957 -0.1663  0.3050 -0.4774
 3626SOL    HW113770   6.483   7.586   6.015 -0.7359  0.1885 -0.3915
 3626SOL    HW213771   6.561   7.458   5.994 -0.2684  0.4240 -0.1098
 3627SOL     OW13772   4.843   1.826   3.714  0.1945 -0.1817  0.0275
 3627SOL    HW113773   4.793   1.747   3.730  1.5185 -1.2146 -0.7655
 3627SOL    HW213774   4.800   1.867   3.639 -1.1738  0.4845  1.1344
 3628SOL     OW13775   7.174   7.900   1.431  0.1374 -0.5245 -0.7228
 3628SOL    HW113776   7.111   7.890   1.502  0.0761  0.1354 -0.6697
 3628SOL    HW213777   7.237   7.830   1.444 -1.2535 -1.9964 -1.5101
 3629SOL     OW13778   8.977   1.625   5.289  0.5188  0.0125 -0.3482
 3629SOL    HW113779   9.034   1.550   5.308 -2.1299 -1.8665  0.7540
 3629SOL    HW213780   8.964   1.667   5.374 -0.2942 -0.0405 -0.4349
 3630SOL     OW13781   3.666   1.802   4.953 -0.1243 -0.4659 -0.1987
 3630SOL    HW113782   3.581   1.786   4.993 -0.4607  3.7185  1.2588
 3630SOL    HW213783   3.646   1.831   4.864 -0.3526  1.2918  0.4006
 3631SOL     OW13784   1.211   0.198   6.042  0.5966  0.1240  0.4506
 3631SOL    HW113785   1.170   0.153   5.969  1.9818 -1.9599  0.8920
 3631SOL    HW213786   1.302   0.211   6.015  0.4178  2.1474  0.6096
 3632SOL     OW13787   0.147   6.590   1.334 -0.3152 -0.3821 -0.4806
 3632SOL    HW113788   0.159   6.559   1.424  0.6540 -0.8111 -0.7467
 3632SOL    HW213789   0.062   6.634   1.336  0.8369  2.0472  1.3487
 3633SOL     OW13790   6.377   5.629   6.975  0.1253  0.2448  0.0210
 3633SOL    HW113791   6.306   5.667   7.025 -1.1238  0.3586 -1.7492
 3633SOL    HW213792   6.360   5.535   6.976 -1.2345  0.4108 -2.0132
 3634SOL     OW13793   5.385   1.746   6.056  0.1355  0.2259 -0.0532
 3634SOL    HW113794   5.334   1.671   6.025 -0.6600  0.9871 -0.6156
 3634SOL    HW213795   5.460   1.707   6.100 -1.5794 -0.9444  1.9950
 3635SOL     OW13796   0.288   6.871   1.408 -0.3531  0.1200  0.2150
 3635SOL    HW113797   0.196   6.846   1.413 -0.2777 -0.8035 -1.7937
 3635SOL    HW213798   0.310   6.902   1.496 -2.3266 -0.4782  0.9689
 3636SOL     OW13799   7.342   3.682   0.367  0.2217 -0.1503 -0.1144
 3636SOL    HW113800   7.363   3.773   0.387  0.6132  0.1424 -1.7218
 3636SOL    HW213801   7.411   3.632   0.410 -0.1112  0.2774  0.9566
 3637SOL     OW13802   8.060   6.071   8.459  0.7289  0.2690 -0.1579
 3637SOL    HW113803   8.092   6.033   8.541 -0.2420 -0.3176 -0.0387
 3637SOL    HW213804   8.014   6.150   8.486 -0.1143 -0.2409 -0.0552
 3638SOL     OW13805   3.200   9.030   7.072  0.0328 -0.2267  0.6844
 3638SOL    HW113806   3.261   9.103   7.087 -0.3929 -0.1932  2.5303
 3638SOL    HW213807   3.119   9.058   7.114 -0.6199 -1.1249  0.0436
 3639SOL     OW13808   1.216   6.700   1.917 -0.3027 -0.3913  0.5720
 3639SOL    HW113809   1.279   6.687   1.846 -2.4553  0.7752 -1.7094
 3639SOL    HW213810   1.231   6.790   1.945 -1.0042 -0.0706 -0.0622
 3640SOL     OW13811   5.388   0.594   3.124 -0.3958 -0.0191  0.3451
 3640SOL    HW113812   5.381   0.526   3.057 -2.1393  0.9734 -0.5547
 3640SOL    HW213813   5.385   0.546   3.207 -1.3517 -1.0605 -0.2622
 3641SOL     OW13814   0.095   7.323   1.921  0.2027 -0.0991 -0.3582
 3641SOL    HW113815   0.155   7.320   1.995 -0.9023  1.7992  0.6897
 3641SOL    HW213816   0.036   7.249   1.934  1.2478 -0.9729 -0.4749
 3642SOL     OW13817   5.387   8.436   2.640 -0.8250  0.2073 -0.0710
 3642SOL    HW113818   5.356   8.435   2.730  0.7206  1.2291  0.5115
 3642SOL    HW213819   5.430   8.351   2.628 -0.8017  0.1750  0.2515
 3643SOL     OW13820   5.023   2.359   2.912 -0.5773 -0.0064 -0.2340
 3643SOL    HW113821   5.114   2.350   2.883 -0.2756 -1.3079  1.0422
 3643SOL    HW213822   4.971   2.347   2.832  0.3328 -0.1241 -0.8199
 3644SOL     OW13823   3.960   5.312   6.018 -0.6522  0.4310 -0.0645
 3644SOL    HW113824   3.947   5.261   6.097 -0.1088 -0.3661 -0.4787
 3644SOL    HW213825   3.938   5.402   6.043 -2.4058 -0.1112  0.4562
 3645SOL     OW13826   4.614   0.315   6.988  0.5898 -0.4028  0.1620
 3645SOL    HW113827   4.594   0.225   7.014 -0.2714 -0.0879  0.6485
 3645SOL    HW213828   4.704   0.312   6.957 -0.1311 -1.8949 -2.0297
 3646SOL     OW13829   3.598   8.751   4.486  0.0269  0.4545  0.0729
 3646SOL    HW113830   3.642   8.682   4.435  0.0300 -0.0404  0.7342
 3646SOL    HW213831   3.538   8.791   4.423  1.0208  0.7835 -0.6970
 3647SOL     OW13832   3.113   4.911   6.062  0.1033  0.5189  0.3608
 3647SOL    HW113833   3.162   4.950   5.989  0.3141  0.9739  0.7451
 3647SOL    HW213834   3.044   4.974   6.081 -0.4244  0.0384  0.0498
 3648SOL     OW13835   7.952   6.277   1.806  0.4837 -0.1460  0.4359
 3648SOL    HW113836   7.949   6.373   1.805  1.9809 -0.0773  0.0892
 3648SOL    HW213837   7.876   6.251   1.857  0.0215  1.2295  0.4837
 3649SOL     OW13838   2.724   1.028   8.388  0.5681 -0.6804 -0.2780
 3649SOL    HW113839   2.790   1.093   8.366  0.2743 -0.5989 -0.9564
 3649SOL    HW213840   2.698   0.991   8.303 -1.5201  0.5439 -0.2588
 3650SOL     OW13841   2.442   7.831   8.589 -0.2870 -0.0466  0.4306
 3650SOL    HW113842   2.478   7.848   8.675 -1.5210  1.0493  0.7631
 3650SOL    HW213843   2.491   7.889   8.530  0.2166 -0.4359  0.4601
 3651SOL     OW13844   3.262   8.660   1.010 -0.8772  0.0456  0.3799
 3651SOL    HW113845   3.255   8.755   0.997  0.5350  0.2771  1.1357
 3651SOL    HW213846   3.300   8.627   0.929 -1.2465  0.1255  0.1683
 3652SOL     OW13847   4.868   0.112   0.894  0.3834 -0.1974 -0.2620
 3652SOL    HW113848   4.818   0.031   0.899  0.9094 -0.5168 -0.0440
 3652SOL    HW213849   4.959   0.084   0.894  0.5621  0.3411 -1.2274
 3653SOL     OW13850   1.725   4.348   9.013 -0.0776 -0.1367  0.0104
 3653SOL    HW113851   1.768   4.391   8.939  0.4892 -2.1020 -0.8652
 3653SOL    HW213852   1.633   4.342   8.987  0.1381 -0.9070 -0.5873
 3654SOL     OW13853   2.700   4.843   0.632  0.4305  0.3168  0.7005
 3654SOL    HW113854   2.782   4.893   0.621  0.7658 -0.3349  0.1995
 3654SOL    HW213855   2.664   4.876   0.714  2.2858 -0.8828  2.0961
 3655SOL     OW13856   3.372   3.264   4.654  0.3451 -0.3004  0.2445
 3655SOL    HW113857   3.378   3.244   4.748  1.4910 -1.7865 -0.0995
 3655SOL    HW213858   3.282   3.294   4.641 -0.9223 -3.2898  1.2589
 3656SOL     OW13859   3.416   6.657   3.602 -0.1697  0.1547  0.2295
 3656SOL    HW113860   3.507   6.683   3.589 -0.1745 -0.0387 -0.2156
 3656SOL    HW213861   3.390   6.620   3.518 -1.0986  1.5418 -0.1386
 3657SOL     OW13862   0.171   9.261   1.378 -0.9653  0.1168 -0.0470
 3657SOL    HW113863   0.218   9.324   1.433 -1.6721 -0.0157  0.7389
 3657SOL    HW213864   0.185   9.177   1.421  0.6860 -0.4425 -1.5571
 3658SOL     OW13865   1.358   6.595   5.884 -0.1158 -0.0321  0.6112
 3658SOL    HW113866   1.366   6.536   5.959 -0.4913  0.7280  1.2701
 3658SOL    HW213867   1.303   6.667   5.916 -0.4375  0.2192 -0.4523
 3659SOL     OW13868   7.133   1.727   8.661  0.0442  0.1731  0.0672
 3659SOL    HW113869   7.157   1.674   8.585 -1.3016 -1.4405  0.7112
 3659SOL    HW213870   7.205   1.790   8.669  3.1787 -3.1435  0.7583
 3660SOL     OW13871   7.074   0.309   1.731 -0.1534  0.1097 -0.4657
 3660SOL    HW113872   7.100   0.231   1.684 -0.8335 -0.7347  0.5151
 3660SOL    HW213873   7.125   0.307   1.812  0.1159  0.8913 -0.6045
 3661SOL     OW13874   8.333   8.208   7.486 -0.2558  0.1064 -0.3851
 3661SOL    HW113875   8.303   8.119   7.465 -0.2472  0.2488 -1.0225
 3661SOL    HW213876   8.254   8.253   7.516  0.1716 -0.7977  2.3774
 3662SOL     OW13877   3.067   1.255   6.547  0.0469 -0.3239  0.2793
 3662SOL    HW113878   3.036   1.225   6.461  0.2217  0.9249 -0.2349
 3662SOL    HW213879   2.989   1.254   6.602  0.3025 -3.1405  0.7398
 3663SOL     OW13880   0.767   7.269   1.825  0.0579 -0.2484 -1.0044
 3663SOL    HW113881   0.694   7.239   1.770  1.7043 -1.4206 -2.6904
 3663SOL    HW213882   0.845   7.234   1.782  1.5803  0.1752  1.2259
 3664SOL     OW13883   8.317   7.896   2.705  0.6448 -0.2914 -0.3322
 3664SOL    HW113884   8.325   7.907   2.610  0.5840  0.2133 -0.2858
 3664SOL    HW213885   8.407   7.901   2.738  0.5523  1.0520 -0.2250
 3665SOL     OW13886   6.003   7.535   8.579 -0.2673  0.3971 -0.8621
 3665SOL    HW113887   6.084   7.488   8.557  0.3065  0.1816  1.4676
 3665SOL    HW213888   5.940   7.466   8.598 -0.0849  0.5487  0.3386
 3666SOL     OW13889   7.213   7.016   1.392  0.2081 -0.1102  0.0393
 3666SOL    HW113890   7.212   7.019   1.488  0.7829  1.3332  0.0295
 3666SOL    HW213891   7.301   7.046   1.368  0.3792 -1.3198 -0.9372
 3667SOL     OW13892   1.984   0.363   8.260 -1.2489 -0.4232  0.7100
 3667SOL    HW113893   2.019   0.358   8.171 -0.0999 -2.1943  1.2163
 3667SOL    HW213894   1.975   0.457   8.277  4.0762  0.3432  0.7810
 3668SOL     OW13895   8.940   4.538   0.823  0.4388 -0.1458  0.5963
 3668SOL    HW113896   8.967   4.456   0.864  0.8812 -1.0096 -1.3025
 3668SOL    HW213897   9.023   4.585   0.808  0.4297 -0.4609 -0.5143
 3669SOL     OW13898   2.955   3.552   3.708  0.3025  0.8500 -0.9657
 3669SOL    HW113899   3.014   3.604   3.763 -0.5693 -0.7527  1.6511
 3669SOL    HW213900   2.932   3.476   3.762 -4.1252  1.3248 -1.7923
 3670SOL     OW13901   0.924   0.466   3.358  1.0551 -0.4598 -0.3390
 3670SOL    HW113902   0.956   0.450   3.447 -1.2013 -0.5860  0.5219
 3670SOL    HW213903   0.931   0.382   3.314 -0.4823 -1.1650  0.6746
 3671SOL     OW13904   5.720   8.032   1.948 -0.0919 -0.5554 -0.7437
 3671SOL    HW113905   5.628   8.008   1.960  0.0666 -0.6923  0.3185
 3671SOL    HW213906   5.734   8.105   2.008 -0.0464  0.9425 -2.4976
 3672SOL     OW13907   4.286   1.138   1.768 -0.2476 -0.4536  0.1126
 3672SOL    HW113908   4.277   1.138   1.863  4.8966 -1.1194  0.8918
 3672SOL    HW213909   4.251   1.054   1.740 -1.8864 -0.2261  1.3318
 3673SOL     OW13910   8.983   8.744   6.103  0.4435 -0.6799 -0.3883
 3673SOL    HW113911   8.929   8.671   6.072 -0.0145  0.2233 -1.8384
 3673SOL    HW213912   9.040   8.705   6.169 -2.6175 -1.4852  1.9980
 3674SOL     OW13913   1.379   3.511   3.241  0.1365 -0.2593  0.2696
 3674SOL    HW113914   1.321   3.484   3.312 -0.0267 -0.7637 -0.0557
 3674SOL    HW213915   1.329   3.576   3.192 -1.3015 -2.6864 -1.6866
 3675SOL     OW13916   2.699   6.969   1.920  0.3346  0.8881 -0.5286
 3675SOL    HW113917   2.759   6.974   1.995 -0.5745  1.5309  0.1721
 3675SOL    HW213918   2.724   6.888   1.876  1.1843  0.7225  0.2156
 3676SOL     OW13919   0.955   3.699   2.651  0.7161 -0.2271  0.1695
 3676SOL    HW113920   0.940   3.641   2.725  1.2665  0.0859  0.5289
 3676SOL    HW213921   0.945   3.643   2.574  0.1527 -0.5546  0.4771
 3677SOL     OW13922   5.603   5.678   6.304  0.1153  0.1305  0.5490
 3677SOL    HW113923   5.546   5.633   6.365  2.3356 -3.3618  0.3615
 3677SOL    HW213924   5.552   5.685   6.223 -2.0104  2.6753  1.9693
 3678SOL     OW13925   8.826   8.181   0.435 -0.0756 -0.3060  0.4244
 3678SOL    HW113926   8.815   8.151   0.345  2.0544  2.7056 -1.0198
 3678SOL    HW213927   8.921   8.176   0.450 -0.2909  0.1740  2.1516
 3679SOL     OW13928   9.229   4.309   9.204 -0.1863 -0.0978  0.0296
 3679SOL    HW113929   9.154   4.290   9.260 -0.8271 -0.8692 -1.0465
 3679SOL    HW213930   9.210   4.395   9.166 -0.0057  0.1829  0.5598
 3680SOL     OW13931   7.718   8.436   7.393  0.3642  0.1916  0.2418
 3680SOL    HW113932   7.811   8.422   7.375  0.6198  1.9285 -0.0239
 3680SOL    HW213933   7.678   8.441   7.306 -0.2351 -1.8393  0.3592
 3681SOL     OW13934   8.548   6.598   2.318  0.3310  0.2427 -0.4419
 3681SOL    HW113935   8.574   6.689   2.306 -1.1489  0.8978  0.9342
 3681SOL    HW213936   8.596   6.568   2.395 -1.7144  1.0030  1.2193
 3682SOL     OW13937   8.060   3.835   1.683 -0.4055  0.2488  0.6638
 3682SOL    HW113938   8.148   3.806   1.706 -0.3915 -0.1887  0.0827
 3682SOL    HW213939   8.004   3.760   1.705 -0.7612  0.8381  1.8537
 3683SOL     OW13940   0.890   8.712   8.860  0.4287 -0.1168  0.5598
 3683SOL    HW113941   0.915   8.651   8.791  2.6700 -0.1254  1.3126
 3683SOL    HW213942   0.943   8.790   8.844  1.3352 -0.2751  2.4667
 3684SOL     OW13943   6.602   5.724   0.016 -0.2701 -0.3712 -0.4558
 3684SOL    HW113944   6.530   5.662   0.006 -0.5144 -0.2520  0.4552
 3684SOL    HW213945   6.561   5.810   0.005 -0.2825 -0.3007  0.1390
 3685SOL     OW13946   8.806   0.367   2.003  0.3282  0.0949 -0.3524
 3685SOL    HW113947   8.723   0.371   2.049  0.2951  0.2370 -0.4228
 3685SOL    HW213948   8.784   0.339   1.914  0.4316 -0.5548 -0.1831
 3686SOL     OW13949   0.765   5.069   6.110 -0.7791 -0.0889  0.6589
 3686SOL    HW113950   0.759   5.081   6.205 -0.5066 -1.1635  0.8221
 3686SOL    HW213951   0.710   4.993   6.092 -0.5624 -0.0943 -0.0072
 3687SOL     OW13952   6.964   2.254   7.434 -0.4917 -0.0280  0.2426
 3687SOL    HW113953   6.966   2.164   7.404  0.3057  0.3316 -0.8661
 3687SOL    HW213954   6.883   2.290   7.397 -0.9726 -0.3572  0.9495
 3688SOL     OW13955   3.909   1.084   2.875 -0.2747 -0.4031 -0.3940
 3688SOL    HW113956   3.859   1.002   2.873  0.4791 -0.8873 -0.0518
 3688SOL    HW213957   3.896   1.117   2.964  0.9234 -1.1316  0.0774
 3689SOL     OW13958   8.098   7.579   8.545 -0.6639  0.1248 -0.1889
 3689SOL    HW113959   8.073   7.659   8.592 -0.5517 -0.3909  0.7846
 3689SOL    HW213960   8.028   7.565   8.482 -0.1083  1.6256 -1.2049
 3690SOL     OW13961   0.062   7.751   0.329 -0.1552 -0.5470  0.0783
 3690SOL    HW113962   0.011   7.698   0.268  1.8828 -2.4364 -0.0975
 3690SOL    HW213963   0.123   7.800   0.274  1.6044 -2.1654  0.4875
 3691SOL     OW13964   4.814   5.578   0.479  0.3953  0.3249 -0.0090
 3691SOL    HW113965   4.741   5.622   0.436  0.0049  1.6785  1.9120
 3691SOL    HW213966   4.891   5.605   0.429 -0.0251  1.9875  0.1704
 3692SOL     OW13967   6.337   0.589   8.269 -0.4513  0.8301 -0.5121
 3692SOL    HW113968   6.378   0.663   8.315 -0.8990  0.2921  0.7962
 3692SOL    HW213969   6.243   0.610   8.270 -0.5243  0.5154 -0.6311
 3693SOL     OW13970   4.930   4.802   6.800  0.4508 -0.1554 -0.1930
 3693SOL    HW113971   5.000   4.865   6.782  1.3299 -0.9427  0.4026
 3693SOL    HW213972   4.910   4.763   6.714  0.7783  0.0337 -0.3557
 3694SOL     OW13973   6.319   2.229   8.249  0.5257 -0.1273  0.3374
 3694SOL    HW113974   6.264   2.182   8.311  1.4882 -0.9755  0.5802
 3694SOL    HW213975   6.396   2.256   8.300  1.8165 -1.7211 -0.6672
 3695SOL     OW13976   5.723   6.516   4.945 -0.1680 -0.3948 -0.0840
 3695SOL    HW113977   5.751   6.548   4.859 -0.4373 -0.6605 -0.2674
 3695SOL    HW213978   5.633   6.545   4.953  0.9372  3.1625  1.7674
 3696SOL     OW13979   5.526   5.789   1.994 -0.3638 -0.0372 -0.0466
 3696SOL    HW113980   5.621   5.799   1.991 -0.6086  3.0657 -0.1881
 3696SOL    HW213981   5.509   5.740   2.074  1.2624  1.9262  1.5917
 3697SOL     OW13982   2.381   7.506   8.246 -0.0311 -0.7907 -0.0678
 3697SOL    HW113983   2.396   7.598   8.221  1.3121 -1.4096 -1.7280
 3697SOL    HW213984   2.325   7.471   8.176 -0.5163 -1.2506  0.5434
 3698SOL     OW13985   3.267   3.767   2.525 -0.1520  0.5498 -0.0743
 3698SOL    HW113986   3.197   3.713   2.488 -0.2631  0.8833 -0.3585
 3698SOL    HW213987   3.294   3.721   2.605  2.8520 -2.3963 -2.4992
 3699SOL     OW13988   1.704   6.063   4.407 -0.5903 -0.2785 -0.2832
 3699SOL    HW113989   1.666   5.992   4.355 -3.2930  1.0889 -0.3253
 3699SOL    HW213990   1.749   6.118   4.343 -0.2363 -0.8399 -0.5302
 3700SOL     OW13991   7.616   6.639   0.595 -0.0099 -0.2325  0.0174
 3700SOL    HW113992   7.557   6.709   0.567  0.2866 -0.0821 -0.2278
 3700SOL    HW213993   7.683   6.683   0.648  1.3289 -0.0143 -1.7820
 3701SOL     OW13994   2.714   7.248   5.953 -1.0480 -0.5733 -0.0888
 3701SOL    HW113995   2.770   7.179   5.917  1.0344  1.8867 -1.9342
 3701SOL    HW213996   2.697   7.220   6.043  3.1434 -1.6003  0.5912
 3702SOL     OW13997   7.360   1.134   2.750 -0.0621  0.1467  0.7473
 3702SOL    HW113998   7.332   1.047   2.780  1.7090 -0.6492  0.2522
 3702SOL    HW213999   7.424   1.163   2.814  0.0868  0.6508  0.3819
 3703SOL     OW14000   9.143   3.274   0.188  0.3430 -0.7402 -0.2800
 3703SOL    HW114001   9.121   3.230   0.270  2.0559  0.2514  0.7702
 3703SOL    HW214002   9.149   3.203   0.124 -0.4458 -1.6043  0.5744
 3704SOL     OW14003   5.763   3.064   3.671  0.2210  1.0691 -0.4830
 3704SOL    HW114004   5.812   3.135   3.630  3.4412 -1.2566 -1.0694
 3704SOL    HW214005   5.822   3.030   3.738 -0.4101 -2.0181 -1.3379
 3705SOL     OW14006   4.738   7.957   7.942  0.4528 -0.3016  0.2051
 3705SOL    HW114007   4.813   8.017   7.951  0.8105 -0.7406  0.1954
 3705SOL    HW214008   4.725   7.950   7.848  0.0567  0.1885  0.2185
 3706SOL     OW14009   5.141   6.237   2.769 -0.1395 -0.0367  0.2950
 3706SOL    HW114010   5.056   6.221   2.810  0.1827  0.8329  1.3583
 3706SOL    HW214011   5.202   6.246   2.842  0.9616 -1.0558 -0.4566
 3707SOL     OW14012   8.895   6.114   2.323  0.1067 -0.0621  0.0616
 3707SOL    HW114013   8.908   6.090   2.414  0.8505 -3.4382 -0.8029
 3707SOL    HW214014   8.975   6.161   2.298 -0.5955  1.9407  1.3615
 3708SOL     OW14015   7.757   3.407   6.883  0.4369  0.1090 -0.0863
 3708SOL    HW114016   7.821   3.402   6.953 -0.0686 -2.5200  0.2979
 3708SOL    HW214017   7.676   3.374   6.922 -0.1776 -0.2090 -1.5435
 3709SOL     OW14018   7.836   2.844   1.199  0.1199  0.5766 -0.0061
 3709SOL    HW114019   7.749   2.806   1.186 -0.0094  0.7688  0.2895
 3709SOL    HW214020   7.827   2.935   1.171 -0.2304  1.0704  1.6102
 3710SOL     OW14021   3.325   0.382   3.409  0.2701  0.2316  0.4907
 3710SOL    HW114022   3.365   0.298   3.388 -0.3438  0.2272 -0.7092
 3710SOL    HW214023   3.277   0.365   3.490  0.7917 -0.3579  0.6891
 3711SOL     OW14024   7.958   0.644   0.467 -0.4092 -0.3838 -0.2239
 3711SOL    HW114025   7.958   0.612   0.377 -0.0355 -2.1739  0.3855
 3711SOL    HW214026   8.047   0.628   0.499  0.3100  2.7059 -0.3175
 3712SOL     OW14027   3.224   3.027   4.731  0.2329  0.0686 -0.2952
 3712SOL    HW114028   3.218   3.066   4.818  0.0974  0.4061 -0.4538
 3712SOL    HW214029   3.166   3.080   4.677 -0.6148 -0.8766 -0.3315
 3713SOL     OW14030   7.096   2.078   8.955  0.0268 -0.0203  0.4523
 3713SOL    HW114031   7.188   2.063   8.934 -0.5314 -1.3210 -1.2875
 3713SOL    HW214032   7.056   1.991   8.946 -1.1898  0.3003  2.2934
 3714SOL     OW14033   6.549   1.239   2.430 -0.0247  0.1976  0.0295
 3714SOL    HW114034   6.515   1.328   2.419  1.4628  0.8163  0.2011
 3714SOL    HW214035   6.630   1.238   2.379  0.5949 -0.6785  0.9926
 3715SOL     OW14036   7.242   3.470   1.966 -0.2155 -0.0336 -0.1264
 3715SOL    HW114037   7.303   3.401   1.939 -0.2796 -1.0605  2.1240
 3715SOL    HW214038   7.295   3.549   1.971  0.8748 -0.8179  1.3641
 3716SOL     OW14039   6.270   0.614   2.979 -0.5122  0.0031  0.0878
 3716SOL    HW114040   6.175   0.613   2.993 -0.7432 -0.1399 -1.3664
 3716SOL    HW214041   6.281   0.658   2.895  0.6912 -0.3422  0.0498
 3717SOL     OW14042   0.232   4.061   8.425  0.4269 -0.2003 -0.4438
 3717SOL    HW114043   0.222   4.155   8.439  1.7825 -0.2058  0.7883
 3717SOL    HW214044   0.157   4.036   8.370 -0.9134  1.2683  0.6494
 3718SOL     OW14045   6.333   4.334   7.591 -0.2931 -0.4032 -0.1373
 3718SOL    HW114046   6.418   4.307   7.556 -2.4406 -2.6869 -4.3699
 3718SOL    HW214047   6.324   4.425   7.563  0.5649 -0.2350  0.0791
 3719SOL     OW14048   1.389   7.301   0.619  0.3245  0.0990  0.2491
 3719SOL    HW114049   1.437   7.383   0.607  0.0584  0.1819 -0.2802
 3719SOL    HW214050   1.446   7.249   0.675  1.3995 -0.0846 -0.9427
 3720SOL     OW14051   3.477   0.491   7.994 -0.2491  0.6315  0.4369
 3720SOL    HW114052   3.423   0.439   7.935 -0.7139  0.1826  1.2353
 3720SOL    HW214053   3.415   0.543   8.044 -0.0274 -0.4064  1.8622
 3721SOL     OW14054   4.734   3.653   3.272 -0.8736 -0.0420 -0.3380
 3721SOL    HW114055   4.695   3.630   3.187  1.2028  1.3440 -1.7583
 3721SOL    HW214056   4.710   3.744   3.285  0.4270  0.3192 -0.4017
 3722SOL     OW14057   4.821   1.287   2.613  0.5674 -0.5348 -0.3009
 3722SOL    HW114058   4.867   1.323   2.537 -0.0086 -0.7320 -0.7507
 3722SOL    HW214059   4.890   1.257   2.671  1.0085 -0.8299 -0.9697
 3723SOL     OW14060   7.654   0.943   4.191 -0.0892 -0.3195  0.2495
 3723SOL    HW114061   7.624   0.853   4.182 -0.3869 -0.2573  0.6105
 3723SOL    HW214062   7.605   0.992   4.125 -0.6125 -0.2593  0.6800
 3724SOL     OW14063   6.400   3.768   8.217 -0.3938  0.2232 -1.0013
 3724SOL    HW114064   6.382   3.680   8.249  1.1608  0.3252  0.2014
 3724SOL    HW214065   6.427   3.755   8.126  0.4957 -0.6197 -0.6284
 3725SOL     OW14066   2.873   5.614   7.070 -0.1891  0.1634 -0.1529
 3725SOL    HW114067   2.959   5.630   7.108 -0.7310  0.2059  1.1172
 3725SOL    HW214068   2.859   5.687   7.009  0.5456  0.3064 -0.1520
 3726SOL     OW14069   1.994   4.132   1.883  0.1057 -0.2508 -0.1356
 3726SOL    HW114070   1.974   4.170   1.968 -0.5005  1.4524 -0.9842
 3726SOL    HW214071   2.026   4.044   1.902 -0.5769 -0.1124  1.7940
 3727SOL     OW14072   6.514   4.649   4.971  1.0076 -0.2330 -0.0511
 3727SOL    HW114073   6.521   4.726   4.914  2.7841 -0.6639 -0.4668
 3727SOL    HW214074   6.521   4.684   5.060  0.6113  0.1873 -0.1782
 3728SOL     OW14075   3.664   6.250   0.548  0.5375  0.4474 -0.4406
 3728SOL    HW114076   3.675   6.329   0.601  1.4952  0.1606 -0.1865
 3728SOL    HW214077   3.587   6.268   0.494 -2.1177 -0.2622  2.8278
 3729SOL     OW14078   3.556   0.848   9.201 -0.3212 -0.1936  0.3423
 3729SOL    HW114079   3.621   0.881   9.263  0.2032  2.0516 -1.2300
 3729SOL    HW214080   3.592   0.766   9.169  0.8597  0.1100  0.8477
 3730SOL     OW14081   0.595   6.594   0.478 -0.2162  0.0699 -0.0141
 3730SOL    HW114082   0.666   6.581   0.542 -0.7115  2.2254  1.0760
 3730SOL    HW214083   0.529   6.530   0.502  0.7523 -1.0230 -0.1621
 3731SOL     OW14084   7.560   1.586   1.673  0.1244  0.6364 -0.0658
 3731SOL    HW114085   7.582   1.679   1.672  1.1001  0.4212 -0.1603
 3731SOL    HW214086   7.471   1.582   1.707  0.7917  1.4642  1.9182
 3732SOL     OW14087   1.021   2.547   5.381 -0.1684 -0.3917  0.1728
 3732SOL    HW114088   1.065   2.624   5.345 -0.8253  0.0629  0.3136
 3732SOL    HW214089   1.057   2.473   5.332 -0.0475  0.0794 -0.4621
 3733SOL     OW14090   0.219   3.684   2.771 -0.0593  0.0043  0.0479
 3733SOL    HW114091   0.306   3.673   2.733 -0.0970  0.2478 -0.1055
 3733SOL    HW214092   0.228   3.754   2.835 -0.4109  0.8594 -0.8201
 3734SOL     OW14093   8.518   5.947   0.895  0.3791 -0.0992 -0.3491
 3734SOL    HW114094   8.593   5.889   0.878  1.3749  0.7858  0.7951
 3734SOL    HW214095   8.458   5.893   0.946  2.1056  0.2930  2.2995
 3735SOL     OW14096   8.842   1.302   8.844  0.0412  0.0128  0.6762
 3735SOL    HW114097   8.904   1.236   8.875  0.3069 -0.0269  0.0608
 3735SOL    HW214098   8.771   1.252   8.805  0.5690  0.1006 -0.4123
 3736SOL     OW14099   4.471   1.607   2.413  0.0991  0.0480 -0.1465
 3736SOL    HW114100   4.525   1.551   2.470 -0.4443  0.0608  0.3998
 3736SOL    HW214101   4.427   1.667   2.474 -0.4475  0.1023 -0.5845
 3737SOL     OW14102   1.367   4.516   2.247  0.2070  0.3044 -0.1435
 3737SOL    HW114103   1.436   4.455   2.222  1.6134  1.5419  0.5318
 3737SOL    HW214104   1.381   4.530   2.341 -0.8710  0.6941 -0.0313
 3738SOL     OW14105   5.872   5.520   9.170  0.0623  0.1808  0.4545
 3738SOL    HW114106   5.912   5.469   9.100  0.2776  0.7277  0.1668
 3738SOL    HW214107   5.823   5.457   9.222  3.1248 -0.9672  2.2249
 3739SOL     OW14108   1.897   5.948   4.905  0.3698 -0.3170  0.0756
 3739SOL    HW114109   1.834   5.939   4.977  0.1988  1.6664  0.2295
 3739SOL    HW214110   1.874   6.032   4.865  2.5754  0.1862 -0.2119
 3740SOL     OW14111   8.452   0.718   6.233  0.0244 -0.2449  0.0944
 3740SOL    HW114112   8.504   0.641   6.209 -0.6358 -1.1752  1.5354
 3740SOL    HW214113   8.373   0.711   6.179 -0.8249 -1.5628  1.4491
 3741SOL     OW14114   2.583   4.527   7.373 -0.0116 -0.0191 -0.4741
 3741SOL    HW114115   2.678   4.519   7.383  0.2945  4.0228  2.6259
 3741SOL    HW214116   2.547   4.466   7.437  0.5912 -0.2482 -0.3467
 3742SOL     OW14117   2.714   8.056   2.884  0.3961  0.7213  0.5967
 3742SOL    HW114118   2.669   8.133   2.918  2.0686  1.4597  1.2240
 3742SOL    HW214119   2.750   8.012   2.961 -0.9704 -1.0321  0.3084
 3743SOL     OW14120   7.254   2.668   1.286 -0.2252 -0.2286  0.1676
 3743SOL    HW114121   7.167   2.672   1.246 -1.4701 -3.2220  2.1556
 3743SOL    HW214122   7.241   2.702   1.375  1.4344  2.1106 -0.3779
 3744SOL     OW14123   4.353   2.005   9.002 -0.0923 -0.0512  0.3513
 3744SOL    HW114124   4.325   2.026   8.913 -1.0791  0.8946  0.8716
 3744SOL    HW214125   4.323   1.915   9.016 -2.0278  0.5801  0.5263
 3745SOL     OW14126   4.546   0.634   5.948 -0.3355  0.2791 -0.8614
 3745SOL    HW114127   4.545   0.714   6.001 -0.8579 -0.5060  0.3367
 3745SOL    HW214128   4.454   0.617   5.929 -0.1288  0.8443 -2.5178
 3746SOL     OW14129   7.774   0.906   1.338 -0.0811 -0.2884  0.4477
 3746SOL    HW114130   7.749   0.841   1.272 -0.2982  1.8835 -1.7670
 3746SOL    HW214131   7.834   0.860   1.396 -0.3133 -2.4731 -0.9360
 3747SOL     OW14132   5.114   8.600   1.732 -0.3961 -0.0423  0.6257
 3747SOL    HW114133   5.149   8.607   1.644 -0.4350 -0.6219  0.5605
 3747SOL    HW214134   5.180   8.551   1.781 -0.5508 -0.0660  0.8144
 3748SOL     OW14135   5.088   6.116   1.390 -0.4383 -0.1115 -0.2188
 3748SOL    HW114136   4.998   6.135   1.363 -0.0840 -0.0621 -1.4121
 3748SOL    HW214137   5.079   6.083   1.480 -1.5481  0.7971  0.0315
 3749SOL     OW14138   1.596   5.531   4.895  0.0178 -0.1607  0.3279
 3749SOL    HW114139   1.566   5.605   4.842 -3.0904 -2.7147 -1.9421
 3749SOL    HW214140   1.533   5.527   4.967  0.7124 -0.0719  0.9402
 3750SOL     OW14141   8.822   5.399   5.317 -0.1440 -0.2572 -0.5680
 3750SOL    HW114142   8.744   5.446   5.346 -1.0511 -0.9350 -1.8081
 3750SOL    HW214143   8.794   5.309   5.306  0.8854 -0.5721 -0.7750
 3751SOL     OW14144   2.740   1.234   4.021  0.0603 -0.8119  0.1483
 3751SOL    HW114145   2.785   1.288   3.956  1.9126 -2.3032  0.0959
 3751SOL    HW214146   2.751   1.283   4.103  1.3892 -0.8838  0.0423
 3752SOL     OW14147   2.522   3.327   5.110  0.2461  0.1405  0.4030
 3752SOL    HW114148   2.609   3.331   5.150 -0.1177 -2.5522  1.7427
 3752SOL    HW214149   2.499   3.234   5.114 -2.8982  0.8262  0.5018
 3753SOL     OW14150   8.264   7.373   5.999 -0.2374  0.0216  0.3032
 3753SOL    HW114151   8.220   7.443   6.047 -1.2913 -0.2544 -0.2340
 3753SOL    HW214152   8.209   7.295   6.014  1.0534 -0.7802  1.1177
 3754SOL     OW14153   1.415   2.276   3.861 -0.0998  0.0544  0.1912
 3754SOL    HW114154   1.437   2.362   3.826  0.2828 -0.1572 -0.0991
 3754SOL    HW214155   1.349   2.242   3.801 -0.4932  0.2751  0.4913
 3755SOL     OW14156   3.760   4.222   7.511  0.3954 -0.3182  0.2638
 3755SOL    HW114157   3.767   4.262   7.425  0.1730  0.1293  0.4486
 3755SOL    HW214158   3.811   4.142   7.505 -0.0698 -0.5712 -0.4522
 3756SOL     OW14159   2.168   3.427   4.856 -0.2051  0.3726  0.2795
 3756SOL    HW114160   2.264   3.419   4.851 -0.3167 -1.2849  0.0858
 3756SOL    HW214161   2.142   3.461   4.771  0.2554  1.4519  0.5594
 3757SOL     OW14162   5.716   4.296   2.821 -0.7852  0.1281 -0.0516
 3757SOL    HW114163   5.676   4.254   2.745  0.7945 -0.3842 -0.6213
 3757SOL    HW214164   5.660   4.372   2.838 -0.7834  0.6546 -2.1462
 3758SOL     OW14165   7.105   3.123   1.517 -0.1574 -0.1939  0.0203
 3758SOL    HW114166   7.146   3.052   1.567  0.4442  0.4291  0.4184
 3758SOL    HW214167   7.134   3.203   1.560 -0.4271  0.3185 -0.7353
 3759SOL     OW14168   8.984   8.474   8.814 -0.5198 -0.1508 -1.0544
 3759SOL    HW114169   8.973   8.513   8.727  0.0010 -0.4143 -1.2452
 3759SOL    HW214170   8.919   8.518   8.868 -1.4690 -0.6256 -1.7833
 3760SOL     OW14171   7.158   8.109   5.204 -0.3026 -0.1621 -0.1232
 3760SOL    HW114172   7.091   8.091   5.270  0.4525 -0.1119  0.6794
 3760SOL    HW214173   7.221   8.038   5.213  0.6749  0.7478  0.3754
 3761SOL     OW14174   6.553   3.573   6.494  0.0447 -0.2749 -0.2260
 3761SOL    HW114175   6.574   3.649   6.548 -1.0381  0.7905 -1.2399
 3761SOL    HW214176   6.476   3.534   6.535 -0.3438  0.1059 -0.5929
 3762SOL     OW14177   5.053   4.911   8.283  0.1586 -0.1309 -0.4110
 3762SOL    HW114178   5.142   4.883   8.260 -0.1323 -0.5767 -1.0095
 3762SOL    HW214179   4.997   4.840   8.254 -0.3582 -0.1101  0.4803
 3763SOL     OW14180   2.568   8.926   0.048  0.2884 -0.3851 -0.0011
 3763SOL    HW114181   2.611   9.009   0.070 -1.6225 -0.1288  3.4954
 3763SOL    HW214182   2.482   8.952   0.015  0.5601 -0.9933 -1.2367
 3764SOL     OW14183   3.399   5.308   7.178  0.1329 -0.1495 -0.4091
 3764SOL    HW114184   3.480   5.265   7.204 -1.1253 -1.0350  2.3885
 3764SOL    HW214185   3.411   5.399   7.204  1.1055  0.3309 -2.3197
 3765SOL     OW14186   8.706   3.985   1.394 -0.4687  0.1209 -0.5604
 3765SOL    HW114187   8.801   3.984   1.396 -0.3614 -3.9940  0.9527
 3765SOL    HW214188   8.683   3.959   1.305 -0.0680 -1.1041 -0.3221
 3766SOL     OW14189   6.085   0.963   2.330 -0.2163 -0.2324 -0.4275
 3766SOL    HW114190   6.046   1.044   2.296  0.2593  0.4777  0.6494
 3766SOL    HW214191   6.120   0.988   2.416  0.1130 -1.5428 -0.1611
 3767SOL     OW14192   1.564   5.332   0.781  0.4894 -0.2672  0.1614
 3767SOL    HW114193   1.653   5.367   0.785  0.6933 -0.8937  2.5997
 3767SOL    HW214194   1.512   5.390   0.836 -0.7531  0.2899 -1.4856
 3768SOL     OW14195   6.753   7.865   2.664 -0.0198  0.1626  0.1672
 3768SOL    HW114196   6.749   7.786   2.718  0.0235  0.2344  0.2782
 3768SOL    HW214197   6.799   7.929   2.719 -1.3049  0.7061  0.6563
 3769SOL     OW14198   3.519   4.715   4.758  0.5758 -0.5267  0.2785
 3769SOL    HW114199   3.567   4.632   4.758 -1.3412 -1.7033 -0.2341
 3769SOL    HW214200   3.475   4.717   4.673 -0.3156  0.4782  0.7488
 3770SOL     OW14201   6.369   4.288   7.068 -0.1151 -0.0571 -0.1944
 3770SOL    HW114202   6.449   4.286   7.016 -0.1947 -1.7526 -0.2990
 3770SOL    HW214203   6.298   4.291   7.004 -0.1693 -0.3041 -0.1478
 3771SOL     OW14204   2.103   8.727   5.429  0.0876  0.2962 -0.4212
 3771SOL    HW114205   2.067   8.638   5.436  0.6449  0.1326  0.5007
 3771SOL    HW214206   2.058   8.764   5.353 -0.9582 -0.3925 -0.1726
 3772SOL     OW14207   9.225   2.779   3.416  0.0083  0.4187  0.1453
 3772SOL    HW114208   9.307   2.808   3.454  0.0486  0.4944  0.0015
 3772SOL    HW214209   9.246   2.696   3.373 -0.5167 -0.8938  2.2422
 3773SOL     OW14210   4.347   4.262   5.643  0.1742 -0.0449  0.2823
 3773SOL    HW114211   4.430   4.244   5.598  0.7707  1.6598  0.6308
 3773SOL    HW214212   4.364   4.236   5.734  0.1002 -0.2932  0.2275
 3774SOL     OW14213   4.047   8.860   2.019  0.1951  0.0345 -0.0365
 3774SOL    HW114214   4.128   8.833   2.063 -0.3236 -2.3738 -0.4254
 3774SOL    HW214215   4.050   8.816   1.934 -1.3675  0.1562 -0.1881
 3775SOL     OW14216   6.981   5.794   4.786 -0.0138  0.3634 -0.1365
 3775SOL    HW114217   7.065   5.748   4.793  0.7562  1.7934  0.3241
 3775SOL    HW214218   6.915   5.724   4.795  1.1096 -0.5787  1.2190
 3776SOL     OW14219   0.411   8.066   8.129  0.2553  0.5069 -0.2244
 3776SOL    HW114220   0.476   8.092   8.195  0.7487  0.2252 -0.5944
 3776SOL    HW214221   0.330   8.055   8.179  0.8008 -0.4656  0.4860
 3777SOL     OW14222   6.005   8.674   8.805  0.1857  0.2729  0.2024
 3777SOL    HW114223   6.070   8.607   8.784  0.4670  0.6107 -0.0051
 3777SOL    HW214224   6.036   8.712   8.887  0.8199  1.1457 -0.4253
 3778SOL     OW14225   4.972   6.709   3.458  0.0549  0.5358  0.0149
 3778SOL    HW114226   4.922   6.704   3.377 -0.5774  0.3861  0.4040
 3778SOL    HW214227   5.025   6.788   3.449  2.3760 -1.0680 -1.8596
 3779SOL     OW14228   8.869   3.110   0.771  0.3690 -0.0053 -0.5413
 3779SOL    HW114229   8.878   3.022   0.734  0.1246 -0.0695 -0.4530
 3779SOL    HW214230   8.784   3.142   0.738  0.9389  0.6224 -1.4376
 3780SOL     OW14231   0.319   3.095   0.295 -0.0801  0.3246  0.3872
 3780SOL    HW114232   0.398   3.137   0.329  2.6649 -0.1368 -4.4842
 3780SOL    HW214233   0.263   3.168   0.269 -1.1190  0.6543  3.1819
 3781SOL     OW14234   7.203   4.131   5.854 -0.4171 -0.1383  0.4147
 3781SOL    HW114235   7.298   4.143   5.862 -0.2478 -1.6414  0.9053
 3781SOL    HW214236   7.193   4.069   5.781 -0.6761 -3.5823  3.1061
 3782SOL     OW14237   6.271   5.349   8.699  0.0466 -0.0984 -0.1470
 3782SOL    HW114238   6.345   5.408   8.685  1.0681 -1.3772 -0.3729
 3782SOL    HW214239   6.197   5.391   8.655  0.4026  1.6664  0.8974
 3783SOL     OW14240   4.801   7.552   2.913  0.2576 -0.2732 -0.0648
 3783SOL    HW114241   4.843   7.545   2.827  0.2497  1.3021 -0.2396
 3783SOL    HW214242   4.855   7.616   2.960 -1.4854  1.2559 -0.0369
 3784SOL     OW14243   4.291   5.576   7.555  0.1896 -0.1277 -0.4603
 3784SOL    HW114244   4.334   5.637   7.495  0.7744 -0.9209 -0.8585
 3784SOL    HW214245   4.214   5.624   7.586 -0.8104 -0.1137 -2.7654
 3785SOL     OW14246   2.119   1.546   7.635 -0.2105  0.5656  0.2394
 3785SOL    HW114247   2.169   1.534   7.716 -1.0679  0.2405  0.7333
 3785SOL    HW214248   2.165   1.491   7.571  1.0264  1.5552  0.2408
 3786SOL     OW14249   5.504   4.856   5.887 -0.5281  0.1887  0.8275
 3786SOL    HW114250   5.481   4.824   5.800  0.4659  0.3380  0.5045
 3786SOL    HW214251   5.597   4.874   5.883 -0.6054  0.8696  1.7230
 3787SOL     OW14252   7.922   4.182   1.480 -0.2559 -0.6303  0.1870
 3787SOL    HW114253   7.892   4.156   1.567  1.3213 -1.1171  0.6118
 3787SOL    HW214254   7.930   4.277   1.485 -0.7357 -0.5943  0.3705
 3788SOL     OW14255   2.947   0.634   4.746 -0.6490  0.2001 -0.1545
 3788SOL    HW114256   2.891   0.602   4.676 -0.2054 -0.1213 -0.3657
 3788SOL    HW214257   2.933   0.729   4.747  0.1995  0.3585 -1.4430
 3789SOL     OW14258   7.766   0.074   2.609 -0.5973  0.1263  0.3140
 3789SOL    HW114259   7.691   0.014   2.614 -1.8780  1.6950  0.9164
 3789SOL    HW214260   7.730   0.154   2.571  1.2061  0.3557 -1.0288
 3790SOL     OW14261   8.668   3.850   3.607  0.0176  0.1707 -0.1678
 3790SOL    HW114262   8.580   3.835   3.572 -1.8713  2.6392  2.9017
 3790SOL    HW214263   8.687   3.772   3.659 -0.9187  0.1142  0.1112
 3791SOL     OW14264   6.730   0.889   4.237  0.2531 -0.5407 -0.0042
 3791SOL    HW114265   6.722   0.806   4.284  1.0723 -0.2481  0.6843
 3791SOL    HW214266   6.644   0.930   4.245 -0.5577 -1.8396 -1.4080
 3792SOL     OW14267   0.898   7.894   1.009 -0.4530  0.0505 -0.0479
 3792SOL    HW114268   0.860   7.814   1.045 -3.3990 -0.1786 -3.1049
 3792SOL    HW214269   0.841   7.964   1.042  0.3317  0.5491  0.2743
 3793SOL     OW14270   7.111   2.601   7.102  0.1420 -0.4271  0.3697
 3793SOL    HW114271   7.199   2.633   7.085 -0.1562 -0.2344 -0.8864
 3793SOL    HW214272   7.060   2.679   7.122  0.2248 -0.5349  1.0553
 3794SOL     OW14273   3.016   5.986   8.779  0.1965 -0.6627  0.1979
 3794SOL    HW114274   2.999   6.028   8.694  0.2732 -1.0877 -0.0287
 3794SOL    HW214275   3.016   6.059   8.841  1.3466 -0.1888 -0.3221
 3795SOL     OW14276   6.036   3.241   1.738  0.0421 -0.8568 -0.5162
 3795SOL    HW114277   6.074   3.278   1.819 -0.6981 -0.0014 -0.5402
 3795SOL    HW214278   6.104   3.184   1.704  0.3297 -1.3427  0.7849
 3796SOL     OW14279   6.250   7.391   9.223  0.1396 -0.0543 -0.3226
 3796SOL    HW114280   6.241   7.318   9.284 -0.2969  0.3210  0.0773
 3796SOL    HW214281   6.170   7.443   9.236  1.1129  1.3256  0.5083
 3797SOL     OW14282   7.262   7.715   6.123  0.5412 -0.3404 -0.3311
 3797SOL    HW114283   7.230   7.797   6.162  2.2490  0.1042  0.2576
 3797SOL    HW214284   7.251   7.728   6.029  1.0447  0.7009 -0.2676
 3798SOL     OW14285   7.976   2.881   6.783  0.3120  0.1794  0.0556
 3798SOL    HW114286   7.897   2.928   6.808  0.9196  1.3379 -0.1486
 3798SOL    HW214287   8.013   2.932   6.710  0.7027 -0.9158 -0.5412
 3799SOL     OW14288   8.112   5.126   3.389  0.2698  0.7577 -0.7672
 3799SOL    HW114289   8.157   5.170   3.461  0.0732  1.1926 -0.9028
 3799SOL    HW214290   8.019   5.133   3.411  0.2789 -0.3359 -0.3738
 3800SOL     OW14291   0.919   5.664   4.633 -0.1177  0.4614  0.5147
 3800SOL    HW114292   0.860   5.601   4.590  0.4238  1.0029 -1.1023
 3800SOL    HW214293   0.864   5.707   4.698 -0.4123 -1.9083  1.9642
 3801SOL     OW14294   0.419   4.360   1.440  0.5313 -0.2692  0.0377
 3801SOL    HW114295   0.438   4.330   1.529 -1.5738  0.5515  0.8322
 3801SOL    HW214296   0.411   4.455   1.448 -0.3000 -0.2510 -0.8956
 3802SOL     OW14297   7.118   0.025   1.154  0.3487  0.6837 -0.1714
 3802SOL    HW114298   7.106   0.119   1.145 -1.4085  0.5477  0.3770
 3802SOL    HW214299   7.079  -0.012   1.074  0.5394  0.3989 -0.1334
 3803SOL     OW14300   6.888   2.206   6.958  0.4507  0.5514  0.3201
 3803SOL    HW114301   6.869   2.267   6.888  1.1493  0.6660  0.2268
 3803SOL    HW214302   6.948   2.253   7.015 -1.1200  0.9672  1.7332
 3804SOL     OW14303   3.185   2.799   1.918  0.4941  0.2343 -0.1129
 3804SOL    HW114304   3.197   2.711   1.883 -0.8963 -0.1679  0.3397
 3804SOL    HW214305   3.256   2.850   1.880  0.4103 -0.7287 -1.6466
 3805SOL     OW14306   0.241   3.533   0.902 -0.2047  0.4645  0.2430
 3805SOL    HW114307   0.199   3.613   0.935  1.3977 -0.1077  4.1527
 3805SOL    HW214308   0.168   3.477   0.876 -1.6189  1.5149  1.7338
 3806SOL     OW14309   4.019   7.818   1.249  0.6599  0.2994 -0.2308
 3806SOL    HW114310   4.113   7.831   1.237  0.6012 -0.1793 -1.2738
 3806SOL    HW214311   3.984   7.906   1.264  1.2173  0.5198 -0.1934
 3807SOL     OW14312   8.574   4.488   5.604 -0.2619  0.1800  0.2723
 3807SOL    HW114313   8.491   4.445   5.626  0.9049 -1.7330  1.2773
 3807SOL    HW214314   8.622   4.422   5.553  1.2087  0.6687  0.9560
 3808SOL     OW14315   0.106   1.340   0.090  0.1167  0.2101 -0.0474
 3808SOL    HW114316   0.155   1.390   0.025 -0.3774  0.4147 -0.2665
 3808SOL    HW214317   0.172   1.309   0.152  0.4920  0.6740 -0.2132
 3809SOL     OW14318   5.651   1.065   5.884 -0.2932 -0.1342 -0.3533
 3809SOL    HW114319   5.629   1.111   5.965 -1.2597 -1.2694  0.0646
 3809SOL    HW214320   5.746   1.074   5.876 -0.2182  0.2101  0.7840
 3810SOL     OW14321   4.047   9.209   8.851 -0.6962 -0.1803 -0.4790
 3810SOL    HW114322   4.032   9.173   8.938  1.7215  1.5103  0.7613
 3810SOL    HW214323   4.015   9.299   8.856 -0.4514 -0.0409 -1.2837
 3811SOL     OW14324   6.512   3.453   4.843 -0.5946  0.1057 -0.7027
 3811SOL    HW114325   6.462   3.421   4.918  1.9630 -0.7090  0.7963
 3811SOL    HW214326   6.507   3.383   4.778  1.6373 -1.7675  0.9758
 3812SOL     OW14327   6.022   7.794   8.820  0.4205 -0.3363  0.3757
 3812SOL    HW114328   5.977   7.730   8.765  0.2573 -0.4214  0.6081
 3812SOL    HW214329   6.056   7.859   8.759 -0.1151 -0.2097  0.2136
 3813SOL     OW14330   5.906   6.792   4.665 -0.8073  0.2499  0.3412
 3813SOL    HW114331   5.820   6.832   4.654 -1.2988 -1.1682 -1.3792
 3813SOL    HW214332   5.963   6.840   4.605 -0.9561 -0.3389 -0.2815
 3814SOL     OW14333   2.010   6.344   8.243  0.0316  0.1610  0.2781
 3814SOL    HW114334   1.952   6.271   8.267 -1.2523  1.2661  0.6578
 3814SOL    HW214335   1.994   6.358   8.150 -0.0815  0.2626  0.3121
 3815SOL     OW14336   2.840   3.599   1.176  0.0295  0.0410  0.5532
 3815SOL    HW114337   2.864   3.553   1.095  0.7556  0.3225  0.6071
 3815SOL    HW214338   2.745   3.607   1.171 -0.1801 -1.7729  0.6971
 3816SOL     OW14339   0.888   9.093   6.508  0.2112  0.0343 -0.0860
 3816SOL    HW114340   0.874   9.022   6.445 -1.6401 -0.0548  0.3841
 3816SOL    HW214341   0.847   9.063   6.589  1.1952  0.8047  0.7330
 3817SOL     OW14342   2.970   7.681   4.354 -0.0912  0.3935 -0.1335
 3817SOL    HW114343   2.893   7.669   4.409 -0.7660  0.4804 -1.0297
 3817SOL    HW214344   2.944   7.748   4.291  0.8877  0.7653 -0.1544
 3818SOL     OW14345   2.476   1.833   2.057 -0.3195 -0.2294 -1.1124
 3818SOL    HW114346   2.498   1.915   2.100  0.9271 -1.4983  0.8393
 3818SOL    HW214347   2.540   1.770   2.091 -1.1262 -1.9902 -2.6570
 3819SOL     OW14348   7.807   4.637   8.360  0.3774  0.3000  0.3181
 3819SOL    HW114349   7.896   4.654   8.331  0.3941  0.7355  0.6169
 3819SOL    HW214350   7.756   4.711   8.327  0.0210 -0.2131 -0.3111
 3820SOL     OW14351   6.469   7.093   2.827  0.2257  0.2806  0.2794
 3820SOL    HW114352   6.525   7.019   2.803 -0.9227 -0.2124 -0.9732
 3820SOL    HW214353   6.493   7.112   2.918  1.8272 -0.4433  0.0508
 3821SOL     OW14354   5.585   7.270   3.810 -0.2209 -0.6797 -0.1469
 3821SOL    HW114355   5.561   7.178   3.822  0.7239 -1.1488 -1.5906
 3821SOL    HW214356   5.579   7.308   3.898 -0.6753 -2.1011  0.4664
 3822SOL     OW14357   0.866   3.472   3.166  0.0490 -0.0738 -0.0037
 3822SOL    HW114358   0.889   3.384   3.193 -0.7818 -0.4813 -0.5824
 3822SOL    HW214359   0.938   3.499   3.109 -0.7191 -1.2357 -1.5956
 3823SOL     OW14360   5.736   8.147   5.258  0.6873 -0.4728  0.3262
 3823SOL    HW114361   5.649   8.164   5.292 -0.4154 -4.8056  0.3369
 3823SOL    HW214362   5.781   8.101   5.330  0.6995 -3.6727 -1.5046
 3824SOL     OW14363   3.184   7.612   4.495  0.3225  0.2796 -0.1217
 3824SOL    HW114364   3.112   7.626   4.433  1.6040 -0.4500 -1.8691
 3824SOL    HW214365   3.161   7.532   4.541  1.0212 -1.3283 -2.3581
 3825SOL     OW14366   5.552   4.017   2.759 -0.1452  0.5628 -0.2722
 3825SOL    HW114367   5.501   4.064   2.693 -2.1835 -0.8646  0.1787
 3825SOL    HW214368   5.601   3.951   2.709 -1.8206 -0.6338 -0.4341
 3826SOL     OW14369   8.505   8.969   4.954  0.6552  0.1875 -0.0437
 3826SOL    HW114370   8.438   8.917   4.997  1.2042 -0.6229 -0.1361
 3826SOL    HW214371   8.496   8.948   4.861  0.7522  0.4169 -0.1064
 3827SOL     OW14372   0.887   4.299   8.927  0.2320  0.0742 -0.5325
 3827SOL    HW114373   0.825   4.368   8.904  0.2703  0.3741  0.2583
 3827SOL    HW214374   0.854   4.263   9.010  0.4727 -0.5468 -0.6961
 3828SOL     OW14375   7.611   0.701   0.164 -0.6505  0.0279  0.1190
 3828SOL    HW114376   7.531   0.751   0.155  0.0269  1.2874  0.8197
 3828SOL    HW214377   7.681   0.766   0.155  0.2879 -0.9849 -0.1450
 3829SOL     OW14378   1.964   6.171   3.531 -0.1879  0.2559  0.4169
 3829SOL    HW114379   2.011   6.234   3.586  0.9424 -1.2045  1.2138
 3829SOL    HW214380   1.882   6.154   3.577  0.1066  0.1350  0.9024
 3830SOL     OW14381   2.877   8.715   0.857  0.2744  0.0408 -0.1408
 3830SOL    HW114382   2.790   8.690   0.826 -0.5054  0.2658  1.7108
 3830SOL    HW214383   2.920   8.632   0.878 -0.4660  0.0110  1.3389
 3831SOL     OW14384   7.239   4.814   3.340 -0.3713 -0.7815  0.4262
 3831SOL    HW114385   7.249   4.883   3.274 -0.0894 -1.1802  0.0440
 3831SOL    HW214386   7.322   4.814   3.387 -0.9106  0.1383  1.4216
 3832SOL     OW14387   7.758   0.699   7.820  0.1143 -0.0033  0.4804
 3832SOL    HW114388   7.823   0.629   7.815 -1.9703 -2.1531  1.1895
 3832SOL    HW214389   7.692   0.666   7.881 -1.4696  2.2114  0.0989
 3833SOL     OW14390   2.102   0.315   2.612 -0.1946 -0.6249 -0.2562
 3833SOL    HW114391   2.111   0.220   2.612 -2.4096 -0.9660 -3.0655
 3833SOL    HW214392   2.022   0.331   2.663  0.3503 -0.2037  0.4861
 3834SOL     OW14393   8.549   6.895   0.038  0.1226  0.3438  0.2337
 3834SOL    HW114394   8.540   6.800   0.031 -0.9798  0.3369  1.3631
 3834SOL    HW214395   8.532   6.928  -0.051  2.6223 -0.5997 -0.6705
 3835SOL     OW14396   0.725   8.193   8.626 -0.2596  0.1317  0.1745
 3835SOL    HW114397   0.743   8.243   8.705 -1.1317  0.5038  0.1480
 3835SOL    HW214398   0.645   8.143   8.646 -1.3594  1.3616 -0.9556
 3836SOL     OW14399   1.319   3.142   2.455 -0.4094  0.1429 -0.2484
 3836SOL    HW114400   1.318   3.237   2.466  0.5015 -0.0864  2.6208
 3836SOL    HW214401   1.256   3.110   2.520  1.3519 -1.2816  0.8469
 3837SOL     OW14402   6.228   8.552   1.501  0.1026  0.0316 -0.1941
 3837SOL    HW114403   6.235   8.617   1.432  0.6984 -0.0505 -0.2107
 3837SOL    HW214404   6.213   8.469   1.456 -0.3751  0.1123 -0.1852
 3838SOL     OW14405   5.108   1.033   6.387  0.3509  0.0372  0.2406
 3838SOL    HW114406   5.093   1.028   6.482  1.0331  1.6259  0.4737
 3838SOL    HW214407   5.163   0.958   6.368  1.5151  0.5479  1.4181
 3839SOL     OW14408   1.427   5.285   3.450 -0.4397  0.0295  0.0365
 3839SOL    HW114409   1.473   5.201   3.438 -1.6307 -0.7603  0.7710
 3839SOL    HW214410   1.366   5.290   3.377 -1.4424 -0.5132  0.8003
 3840SOL     OW14411   0.339   3.762   1.557  0.2745  0.2817 -0.2251
 3840SOL    HW114412   0.429   3.797   1.558  0.1649  0.5669  0.8964
 3840SOL    HW214413   0.350   3.669   1.541  0.8066  0.2395  0.3581
 3841SOL     OW14414   6.090   0.683   1.330 -0.0458 -0.2565 -0.2810
 3841SOL    HW114415   6.126   0.664   1.417  0.3055  0.6927 -0.2092
 3841SOL    HW214416   6.142   0.628   1.271  2.1724  1.6869 -0.2766
 3842SOL     OW14417   2.932   1.863   1.464  0.1225  0.3180  0.5226
 3842SOL    HW114418   2.873   1.862   1.388 -0.6618  1.5099  1.0947
 3842SOL    HW214419   2.991   1.789   1.449  0.7042  1.1815 -1.8000
 3843SOL     OW14420   2.926   3.303   2.847  0.2751 -0.0059  0.2059
 3843SOL    HW114421   3.011   3.271   2.878  1.2464  2.0881 -0.0797
 3843SOL    HW214422   2.893   3.356   2.920 -0.5402 -0.3737  0.1108
 3844SOL     OW14423   8.181   6.772   1.374  0.0578  0.3238 -0.2973
 3844SOL    HW114424   8.120   6.838   1.341  0.7377  1.2054  0.1787
 3844SOL    HW214425   8.213   6.808   1.456 -0.5700 -1.2338  0.6621
 3845SOL     OW14426   5.609   6.176   3.261 -0.1080  0.8333 -0.1098
 3845SOL    HW114427   5.700   6.203   3.273 -0.4328  1.5886  0.7530
 3845SOL    HW214428   5.599   6.169   3.166  1.0665 -0.0679 -0.1930
 3846SOL     OW14429   0.428   7.252   6.631  0.2463 -0.5211 -0.0467
 3846SOL    HW114430   0.484   7.268   6.708  0.4320 -2.3636  0.2434
 3846SOL    HW214431   0.487   7.213   6.567 -0.2034 -0.2483 -0.6280
 3847SOL     OW14432   3.660   1.525   8.494  0.3095  0.2164 -0.2523
 3847SOL    HW114433   3.612   1.467   8.553  1.6711 -1.9538 -1.1592
 3847SOL    HW214434   3.721   1.573   8.551  0.6820 -0.8716  0.2915
 3848SOL     OW14435   3.458   2.000   5.391  0.2096 -0.1925  0.3998
 3848SOL    HW114436   3.487   1.910   5.373 -0.3454 -0.1571 -0.7975
 3848SOL    HW214437   3.388   2.015   5.327  2.9646  2.5084 -2.3327
 3849SOL     OW14438   3.744   9.168   8.878 -0.1695 -0.0446  0.3257
 3849SOL    HW114439   3.747   9.263   8.868  0.7015 -0.0446  0.4889
 3849SOL    HW214440   3.822   9.147   8.930 -0.1229 -0.8920 -0.0698
 3850SOL     OW14441   4.260   2.158   3.293  0.1366  0.1972 -0.0991
 3850SOL    HW114442   4.259   2.234   3.352 -0.5930  0.6873 -0.7190
 3850SOL    HW214443   4.188   2.175   3.232  2.0596  0.7065 -2.3897
 3851SOL     OW14444   8.757   8.866   8.454 -0.1635 -0.3010  0.3530
 3851SOL    HW114445   8.719   8.783   8.483  0.4259 -0.4087  0.8354
 3851SOL    HW214446   8.831   8.880   8.513  1.1039 -0.5450 -1.1348
 3852SOL     OW14447   6.307   8.633   8.356 -0.1213 -0.2520  0.1506
 3852SOL    HW114448   6.307   8.728   8.366 -0.0844 -0.2818  0.4266
 3852SOL    HW214449   6.390   8.614   8.312 -0.1887 -0.1450 -0.0251
 3853SOL     OW14450   8.291   2.905   2.272 -0.1463 -0.0005  0.4639
 3853SOL    HW114451   8.275   2.863   2.187 -1.9973  0.7496  0.3948
 3853SOL    HW214452   8.296   2.999   2.251  1.7470  0.0363  0.9013
 3854SOL     OW14453   6.067   0.188   8.900  0.3151 -0.5739  0.1299
 3854SOL    HW114454   6.058   0.266   8.845  1.2633 -0.3789  0.2280
 3854SOL    HW214455   6.136   0.137   8.858  0.5212 -0.7880  0.7126
 3855SOL     OW14456   5.676   7.386   1.640  0.3006  0.5383  0.2780
 3855SOL    HW114457   5.721   7.361   1.559  0.8496 -0.0872  0.7616
 3855SOL    HW214458   5.744   7.383   1.707 -0.5090 -0.7595  1.0872
 3856SOL     OW14459   9.046   3.479   8.129  0.3759 -0.2316  0.0733
 3856SOL    HW114460   8.951   3.471   8.119  0.2102 -0.4216  1.5738
 3856SOL    HW214461   9.059   3.569   8.160  0.5676 -0.5559  0.9634
 3857SOL     OW14462   0.442   3.037   9.109 -0.4025 -0.2516  0.3186
 3857SOL    HW114463   0.485   3.117   9.140 -0.0500 -0.5635  0.6484
 3857SOL    HW214464   0.495   2.966   9.146 -0.0752 -0.6367 -0.8238
 3858SOL     OW14465   4.528   9.240   4.598 -0.3708  0.0411 -0.1080
 3858SOL    HW114466   4.479   9.193   4.530 -1.1467  1.3527 -0.4983
 3858SOL    HW214467   4.570   9.313   4.551  2.0705 -1.0704  0.2051
 3859SOL     OW14468   0.657   3.410   5.360 -0.4513  0.0419 -0.5084
 3859SOL    HW114469   0.742   3.444   5.335 -1.2569  0.2650 -3.2175
 3859SOL    HW214470   0.669   3.315   5.362 -0.2083  0.0609 -1.0986
 3860SOL     OW14471   4.209   8.045   2.641  0.3447 -0.4628  0.7022
 3860SOL    HW114472   4.118   8.038   2.670  0.5457  0.4713  1.6017
 3860SOL    HW214473   4.215   8.131   2.601  1.1173 -0.0086  1.7436
 3861SOL     OW14474   4.163   1.584   1.866  0.3402 -0.1403 -0.1826
 3861SOL    HW114475   4.105   1.627   1.930 -1.6962 -0.5190 -1.6607
 3861SOL    HW214476   4.214   1.523   1.918 -0.3205  0.4678  1.2666
 3862SOL     OW14477   4.453   2.331   2.063  0.2269  0.1881 -0.1421
 3862SOL    HW114478   4.431   2.313   1.971  0.2533 -1.5629  0.1596
 3862SOL    HW214479   4.368   2.343   2.105 -0.0814 -2.5215  0.2277
 3863SOL     OW14480   0.210   7.318   2.774  0.2049  0.3053 -0.3893
 3863SOL    HW114481   0.260   7.355   2.702 -1.0487  0.4930 -1.1943
 3863SOL    HW214482   0.235   7.370   2.850 -0.6592  2.1100 -1.2706
 3864SOL     OW14483   0.332   8.906   4.883 -0.2184 -0.2375  0.2334
 3864SOL    HW114484   0.383   8.903   4.963 -1.0318 -0.4394  0.7546
 3864SOL    HW214485   0.267   8.836   4.892 -0.2177 -0.3753 -0.6736
 3865SOL     OW14486   1.961   6.562   0.029  0.1685 -0.1509  0.4217
 3865SOL    HW114487   1.904   6.547  -0.047  1.0424 -1.5340  0.0034
 3865SOL    HW214488   1.973   6.657   0.032 -0.1269 -0.0476 -0.9851
 3866SOL     OW14489   0.082   5.767   2.504 -0.4733 -0.1205 -0.9215
 3866SOL    HW114490   0.033   5.793   2.582  0.9851  0.2682 -0.0900
 3866SOL    HW214491   0.131   5.846   2.480  2.3105 -1.3225  0.3116
 3867SOL     OW14492   6.046   2.973   2.593  0.3743 -0.0342 -0.2130
 3867SOL    HW114493   6.004   2.915   2.530  0.2617 -0.4152  0.2052
 3867SOL    HW214494   5.979   2.990   2.659  0.8288 -0.5756  0.4125
 3868SOL     OW14495   5.874   1.326   2.552 -0.0463  0.2525 -0.2801
 3868SOL    HW114496   5.836   1.387   2.615  1.8555  1.7288 -0.4603
 3868SOL    HW214497   5.936   1.274   2.604 -1.0648 -1.0075 -0.2868
 3869SOL     OW14498   5.119   8.902   6.382  0.1451 -0.1234  0.4147
 3869SOL    HW114499   5.048   8.955   6.418 -0.7811 -1.5089  0.7066
 3869SOL    HW214500   5.196   8.925   6.434 -0.2334  0.8977  0.5408
 3870SOL     OW14501   7.902   3.725   9.172  0.0867  0.2717 -0.1382
 3870SOL    HW114502   7.879   3.655   9.233 -0.1158  0.9621  0.5930
 3870SOL    HW214503   7.895   3.684   9.085  2.4849 -1.3485  0.3411
 3871SOL     OW14504   5.393   7.327   0.505 -0.3281  0.9744  0.2257
 3871SOL    HW114505   5.357   7.267   0.571 -0.2282  1.5875  0.8434
 3871SOL    HW214506   5.317   7.354   0.453 -0.2999 -0.0923 -0.4026
 3872SOL     OW14507   2.474   5.267   2.285 -0.4219  0.2952  0.9534
 3872SOL    HW114508   2.511   5.180   2.272 -0.4917  0.5430 -1.3259
 3872SOL    HW214509   2.546   5.318   2.322  1.1836  0.3518 -1.9141
 3873SOL     OW14510   3.124   2.678   3.168  0.5358  0.3319 -0.1847
 3873SOL    HW114511   3.141   2.651   3.259 -0.7133  0.4963  0.1072
 3873SOL    HW214512   3.211   2.702   3.135  1.2975 -1.3563  0.4143
 3874SOL     OW14513   3.138   4.004   1.632  0.6595 -0.2872 -0.2448
 3874SOL    HW114514   3.135   4.085   1.581 -0.1989  0.4446  0.9073
 3874SOL    HW214515   3.082   3.943   1.584 -0.6097  0.5726  0.0841
 3875SOL     OW14516   1.296   3.141   5.564 -0.4266  0.2766  0.0751
 3875SOL    HW114517   1.297   3.133   5.468  0.8519  0.1469  0.0798
 3875SOL    HW214518   1.258   3.058   5.594 -1.8508  0.7605 -0.3357
 3876SOL     OW14519   5.466   0.805   6.097  0.0655  0.2514  0.5623
 3876SOL    HW114520   5.454   0.814   6.002 -0.0036 -1.0748  0.4292
 3876SOL    HW214521   5.559   0.820   6.111  0.2161 -0.3052  0.1821
 3877SOL     OW14522   6.246   1.765   4.725  0.4210 -0.5526  0.4868
 3877SOL    HW114523   6.273   1.803   4.809  0.0636 -1.9841  1.2783
 3877SOL    HW214524   6.163   1.808   4.705 -0.3412 -1.4123  1.7257
 3878SOL     OW14525   4.820   0.544   9.050  0.4899 -0.1831  0.8034
 3878SOL    HW114526   4.788   0.614   9.107 -0.9291 -0.2982  0.1893
 3878SOL    HW214527   4.913   0.536   9.072  0.2001  0.4304  2.4068
 3879SOL     OW14528   7.549   7.868   6.702 -0.0251  0.4550 -0.6880
 3879SOL    HW114529   7.477   7.804   6.699 -0.3001  0.7945 -2.0237
 3879SOL    HW214530   7.621   7.821   6.744 -0.5948 -0.3495 -0.5837
 3880SOL     OW14531   4.816   3.380   9.172  0.1719 -0.2292 -0.0369
 3880SOL    HW114532   4.845   3.456   9.121  3.1857 -0.1753  1.5498
 3880SOL    HW214533   4.848   3.305   9.122 -2.6971 -0.5785 -1.5385
 3881SOL     OW14534   2.928   0.779   0.713 -0.1221  0.1733  0.1111
 3881SOL    HW114535   2.858   0.778   0.647 -0.8129 -1.2863  0.8150
 3881SOL    HW214536   2.923   0.866   0.752  0.4976  1.1942 -1.9286
 3882SOL     OW14537   3.860   3.291   3.895 -1.2174  0.6184  0.1582
 3882SOL    HW114538   3.898   3.208   3.867 -2.2514 -0.7580  2.5120
 3882SOL    HW214539   3.776   3.295   3.849 -1.0547  0.4983 -0.1538
 3883SOL     OW14540   1.740   0.222   1.034 -0.5804  0.4983 -0.1865
 3883SOL    HW114541   1.790   0.236   0.953 -1.6727  1.3251 -0.7368
 3883SOL    HW214542   1.746   0.305   1.081  0.2775 -0.0638  0.7425
 3884SOL     OW14543   6.980   4.265   6.911  0.0941  0.2007 -0.5075
 3884SOL    HW114544   6.938   4.312   6.983 -1.1885  0.7691 -1.5731
 3884SOL    HW214545   6.917   4.271   6.839  0.2438 -2.4622 -0.9567
 3885SOL     OW14546   7.214   6.126   6.738  0.6421 -0.1860  0.8320
 3885SOL    HW114547   7.275   6.066   6.780 -1.5336 -0.6080  3.7533
 3885SOL    HW214548   7.260   6.210   6.737  2.2544 -1.0420  0.3668
 3886SOL     OW14549   5.309   7.180   8.859  0.0844  0.4719  0.0067
 3886SOL    HW114550   5.242   7.249   8.855 -1.1348 -0.5809  1.4665
 3886SOL    HW214551   5.305   7.139   8.773 -0.6321  0.8927 -0.1727
 3887SOL     OW14552   4.718   3.873   3.970 -0.0046  0.1652  0.4977
 3887SOL    HW114553   4.708   3.810   3.897 -2.5202  1.1367 -0.1106
 3887SOL    HW214554   4.681   3.827   4.046 -1.7248  0.7652  0.0802
 3888SOL     OW14555   3.511   7.893   7.848 -0.0900  0.3374 -0.5339
 3888SOL    HW114556   3.570   7.922   7.779  0.9473  1.1531  0.6390
 3888SOL    HW214557   3.537   7.944   7.925 -3.4005  1.9894 -0.3011
 3889SOL     OW14558   8.791   1.079   5.903 -0.8580  0.5094 -0.0470
 3889SOL    HW114559   8.884   1.060   5.916 -0.6509 -0.6603 -2.5255
 3889SOL    HW214560   8.787   1.173   5.884 -0.4429  0.9153  1.7408
 3890SOL     OW14561   3.978   2.675   3.884  0.0652 -0.1444 -0.4213
 3890SOL    HW114562   3.929   2.721   3.952  0.6901  0.5751 -0.4395
 3890SOL    HW214563   3.953   2.583   3.893 -1.3915  0.2135 -0.5263
 3891SOL     OW14564   6.520   0.213   0.880  0.2264  0.0231  0.1041
 3891SOL    HW114565   6.434   0.209   0.839  0.3145 -0.9351 -0.0067
 3891SOL    HW214566   6.539   0.123   0.906  2.0859 -0.1914 -1.7255
 3892SOL     OW14567   9.028   2.520   0.238  0.1205 -0.2178  0.0248
 3892SOL    HW114568   8.950   2.485   0.280 -0.8082  0.8092 -0.7679
 3892SOL    HW214569   9.045   2.602   0.284 -1.1827  1.1612 -1.7530
 3893SOL     OW14570   7.968   4.539   3.416 -0.6900  0.5008  0.0786
 3893SOL    HW114571   7.999   4.608   3.358 -1.0467 -0.3460 -1.1631
 3893SOL    HW214572   8.047   4.507   3.459  0.1529 -1.0802 -2.4382
 3894SOL     OW14573   8.840   0.151   6.483 -0.1457 -0.4320  0.1991
 3894SOL    HW114574   8.852   0.104   6.400 -1.8874 -0.4331 -0.0892
 3894SOL    HW214575   8.912   0.214   6.485  0.9718 -1.6308 -0.4383
 3895SOL     OW14576   5.412   5.144   4.024  0.0679  0.2229  0.6157
 3895SOL    HW114577   5.413   5.063   4.076 -0.2306  0.1696  0.5424
 3895SOL    HW214578   5.440   5.211   4.085 -0.7398  0.2373  0.9929
 3896SOL     OW14579   0.113   1.622   6.196  0.3653  0.3940  0.6144
 3896SOL    HW114580   0.052   1.584   6.259  0.8232 -0.8723  0.3362
 3896SOL    HW214581   0.122   1.554   6.128  2.5149  0.2697  0.9500
 3897SOL     OW14582   8.668   3.155   8.390  0.1846  0.3674  0.0954
 3897SOL    HW114583   8.619   3.082   8.354  0.3762  0.3170 -0.0635
 3897SOL    HW214584   8.643   3.158   8.482  0.9870 -0.5676  0.3581
 3898SOL     OW14585   0.713   2.268   8.758 -0.4250  0.1312  0.3248
 3898SOL    HW114586   0.745   2.206   8.693 -0.5551  0.0166  0.3710
 3898SOL    HW214587   0.649   2.219   8.809  0.5768 -0.1588  1.3522
 3899SOL     OW14588   7.213   5.516   4.767 -0.1181 -0.4758 -0.3263
 3899SOL    HW114589   7.271   5.574   4.817  0.9299 -0.1686 -1.8134
 3899SOL    HW214590   7.268   5.440   4.746 -0.8973 -1.1382 -0.0260
 3900SOL     OW14591   3.060   6.257   2.220  0.1452  0.0019  0.4117
 3900SOL    HW114592   3.081   6.203   2.296 -0.8752 -0.2688  0.5103
 3900SOL    HW214593   2.983   6.217   2.182  2.3765 -1.7565 -2.6522
 3901SOL     OW14594   6.717   6.352   2.646  0.0145  0.0068 -0.4647
 3901SOL    HW114595   6.694   6.409   2.719  0.1366 -0.4146 -0.0911
 3901SOL    HW214596   6.672   6.270   2.664 -1.4843  0.4842 -1.8351
 3902SOL     OW14597   5.769   7.309   7.036 -0.0348 -0.2811  0.0220
 3902SOL    HW114598   5.816   7.387   7.066  2.4803 -2.1544  1.4263
 3902SOL    HW214599   5.773   7.313   6.941  0.8857  0.8387  0.0899
 3903SOL     OW14600   8.256   8.723   7.414 -0.3455  0.7204 -0.4462
 3903SOL    HW114601   8.350   8.710   7.411 -0.3870 -0.2075  1.1707
 3903SOL    HW214602   8.235   8.728   7.507 -2.0157 -0.0795 -0.7392
 3904SOL     OW14603   3.181   2.102   6.507 -0.5768 -0.4113 -0.1740
 3904SOL    HW114604   3.186   2.036   6.576  0.0178 -1.0671 -0.8240
 3904SOL    HW214605   3.211   2.057   6.429 -0.7164  0.4756 -0.7534
 3905SOL     OW14606   4.618   0.572   3.932 -0.0643 -0.7244 -0.0953
 3905SOL    HW114607   4.588   0.489   3.896  0.3025 -1.0176  0.2687
 3905SOL    HW214608   4.714   0.567   3.928 -0.0331 -0.0146 -0.7626
 3906SOL     OW14609   8.238   2.225   2.516 -0.4252 -0.3731 -0.4616
 3906SOL    HW114610   8.322   2.214   2.561 -0.0170 -0.4414 -1.2280
 3906SOL    HW214611   8.261   2.251   2.427 -1.2034 -0.7698 -0.7948
 3907SOL     OW14612   3.187   6.056   4.126 -0.3109  0.2310  0.4653
 3907SOL    HW114613   3.188   5.972   4.080  2.1396 -0.3127  1.3284
 3907SOL    HW214614   3.180   6.032   4.219  0.4993  0.9528  0.7282
 3908SOL     OW14615   2.002   0.251   5.336  0.1644 -0.1134  0.2268
 3908SOL    HW114616   1.974   0.336   5.302  0.4627 -0.1489 -0.1081
 3908SOL    HW214617   2.097   0.254   5.333  0.1886 -0.2392  0.7607
 3909SOL     OW14618   9.225   6.055   1.454 -0.0393  0.0969  0.0347
 3909SOL    HW114619   9.248   6.064   1.546  0.7651  2.0542 -0.3115
 3909SOL    HW214620   9.187   5.967   1.447 -0.4909  0.0597  2.2858
 3910SOL     OW14621   1.938   6.201   5.880 -0.4778 -0.1854  0.7218
 3910SOL    HW114622   1.848   6.209   5.848 -0.1649 -1.4238 -0.5888
 3910SOL    HW214623   1.932   6.215   5.974 -1.7035  1.9284  0.4025
 3911SOL     OW14624   0.561   1.684   7.079 -0.3149  0.8380 -0.6004
 3911SOL    HW114625   0.546   1.591   7.096  1.8758  0.7589  1.4172
 3911SOL    HW214626   0.473   1.722   7.074 -1.2690 -0.9102  1.3996
 3912SOL     OW14627   5.079   9.185   5.977  0.0996  0.3400  0.5423
 3912SOL    HW114628   5.018   9.115   5.951  0.4220  0.3655 -0.3322
 3912SOL    HW214629   5.051   9.211   6.064 -0.2541 -0.6321  0.7224
 3913SOL     OW14630   6.665   2.220   0.026 -0.8338 -0.3384  0.3299
 3913SOL    HW114631   6.724   2.290  -0.002  0.1038 -0.7822  1.1310
 3913SOL    HW214632   6.681   2.149  -0.037 -0.2532 -0.5775  0.7353
 3914SOL     OW14633   5.948   3.727   0.212  0.0555 -0.2179  0.5946
 3914SOL    HW114634   5.963   3.633   0.219  1.5273 -0.0645 -0.1461
 3914SOL    HW214635   5.856   3.734   0.186 -0.4161 -1.3822  1.8144
 3915SOL     OW14636   5.520   5.819   0.621  0.1634  0.1319 -0.5687
 3915SOL    HW114637   5.589   5.877   0.653  0.3566  0.3774 -1.4071
 3915SOL    HW214638   5.559   5.774   0.546 -0.0012 -1.0520  0.0328
 3916SOL     OW14639   5.125   3.625   6.582 -0.4124  0.2200  0.0169
 3916SOL    HW114640   5.136   3.660   6.494 -0.5458 -0.9542 -0.4883
 3916SOL    HW214641   5.194   3.668   6.634 -1.2910  2.0696 -0.2744
 3917SOL     OW14642   7.375   0.715   0.724  0.1323  0.2843 -0.2043
 3917SOL    HW114643   7.390   0.637   0.672  4.2678 -0.3688  1.5941
 3917SOL    HW214644   7.439   0.779   0.692 -0.5489  1.5754  0.8709
 3918SOL     OW14645   2.721   1.606   1.105 -0.6017  0.1892  0.5163
 3918SOL    HW114646   2.693   1.573   1.020 -0.0599  2.4159 -0.6003
 3918SOL    HW214647   2.767   1.533   1.146 -0.3166 -0.7271 -1.3665
 3919SOL     OW14648   0.457   1.035   2.776  0.1335  0.7364  0.2951
 3919SOL    HW114649   0.484   0.973   2.708  0.9682  1.5331 -0.1161
 3919SOL    HW214650   0.426   1.111   2.728  0.6531  1.2749  0.8063
 3920SOL     OW14651   2.709   5.804   7.410  0.3171 -0.0410  0.8116
 3920SOL    HW114652   2.721   5.864   7.484 -1.9211 -0.3984  1.5232
 3920SOL    HW214653   2.739   5.719   7.443  0.0354 -0.0496  1.0460
 3921SOL     OW14654   4.279   7.812   0.060  0.0446 -0.0038 -0.0530
 3921SOL    HW114655   4.369   7.845   0.068  1.4937 -3.7514  1.2367
 3921SOL    HW214656   4.276   7.769  -0.025 -0.4063 -0.3106  0.1161
 3922SOL     OW14657   7.185   8.235   1.673  0.6746  0.4870 -0.4767
 3922SOL    HW114658   7.165   8.308   1.732  0.4943 -0.0335  0.1151
 3922SOL    HW214659   7.194   8.159   1.730 -1.4067 -0.4239 -1.2385
 3923SOL     OW14660   2.954   4.979   4.439 -0.2506  0.1523  0.0344
 3923SOL    HW114661   2.866   4.943   4.450 -0.5148  0.4793 -0.9672
 3923SOL    HW214662   2.948   5.068   4.474 -0.5517  0.4686 -0.7897
 3924SOL     OW14663   0.719   7.524   8.741  0.0595  0.3889  0.1402
 3924SOL    HW114664   0.791   7.516   8.804 -1.0938  0.0784  1.4717
 3924SOL    HW214665   0.724   7.614   8.710  0.2820  0.7382  1.1540
 3925SOL     OW14666   0.256   5.850   1.811  0.1678 -0.6827 -0.2540
 3925SOL    HW114667   0.180   5.792   1.806 -1.8136  1.8216 -3.3773
 3925SOL    HW214668   0.247   5.894   1.895 -1.4844 -0.9159 -0.2733
 3926SOL     OW14669   4.547   5.648   1.354  0.1630 -0.2732 -0.2101
 3926SOL    HW114670   4.615   5.710   1.328 -0.6274  0.7400  0.0757
 3926SOL    HW214671   4.469   5.701   1.365 -0.0208 -0.9132  2.3273
 3927SOL     OW14672   5.022   4.291   2.034  0.2868 -0.0454 -0.6603
 3927SOL    HW114673   5.083   4.349   2.080 -0.3989 -0.0835  0.3231
 3927SOL    HW214674   4.968   4.350   1.982  0.3454  0.0921 -0.5669
 3928SOL     OW14675   2.068   8.901   8.694 -0.0416 -0.1043  0.3313
 3928SOL    HW114676   2.014   8.937   8.624  1.2967  1.6728  0.1437
 3928SOL    HW214677   2.151   8.879   8.652  0.3704 -0.1275  1.1298
 3929SOL     OW14678   5.540   5.564   4.367 -0.2615 -0.5376 -0.4621
 3929SOL    HW114679   5.565   5.509   4.441 -0.6716 -0.1321 -0.0159
 3929SOL    HW214680   5.616   5.621   4.353 -0.8461  0.5710  0.7743
 3930SOL     OW14681   8.190   6.752   5.000 -0.0274 -0.2867  0.2372
 3930SOL    HW114682   8.234   6.683   4.951 -1.3738 -0.9131 -0.1449
 3930SOL    HW214683   8.236   6.832   4.977  0.4432 -0.8187 -0.7167
 3931SOL     OW14684   6.358   8.918   7.954  0.3170  0.9292  0.0490
 3931SOL    HW114685   6.441   8.938   7.910  0.6973 -0.2010  0.2255
 3931SOL    HW214686   6.366   8.827   7.980 -0.1759  1.3650  1.8646
 3932SOL     OW14687   0.659   0.397   1.162 -0.2878 -0.1800  0.1269
 3932SOL    HW114688   0.724   0.334   1.131  1.3107 -0.1608  3.0324
 3932SOL    HW214689   0.699   0.482   1.147 -0.1647 -0.1105  0.8208
 3933SOL     OW14690   5.573   6.614   2.213  0.0300 -0.6474  0.3306
 3933SOL    HW114691   5.516   6.539   2.201  0.4083 -1.0791  1.1344
 3933SOL    HW214692   5.649   6.580   2.259  0.0784  0.2740  0.9733
 3934SOL     OW14693   0.546   4.535   7.662  0.4813  0.5743 -0.6118
 3934SOL    HW114694   0.589   4.560   7.580  0.0657 -0.0200 -1.0167
 3934SOL    HW214695   0.553   4.439   7.665 -0.5827  0.4851 -0.5635
 3935SOL     OW14696   5.655   7.698   0.107 -0.5146  0.1270 -0.1697
 3935SOL    HW114697   5.578   7.674   0.159  0.6129 -1.5967  0.7854
 3935SOL    HW214698   5.684   7.616   0.068  0.2750  0.9279 -1.3558
 3936SOL     OW14699   2.499   9.113   6.463 -0.3478  0.5946  0.4752
 3936SOL    HW114700   2.590   9.137   6.447 -0.4060  1.0409  0.7750
 3936SOL    HW214701   2.489   9.026   6.426  0.2327  0.4983  0.5502
 3937SOL     OW14702   3.092   1.802   5.703  0.1540 -0.0689 -0.4450
 3937SOL    HW114703   3.081   1.886   5.748 -0.4256 -0.9662  1.1919
 3937SOL    HW214704   3.108   1.825   5.612  0.4167  1.8232  0.0367
 3938SOL     OW14705   2.155   2.909   5.313  0.2946 -0.1987 -0.1650
 3938SOL    HW114706   2.203   2.991   5.323  1.6534 -0.8731 -0.7771
 3938SOL    HW214707   2.138   2.902   5.219  0.6537 -0.8530 -0.1886
 3939SOL     OW14708   0.044   6.835   5.545 -0.4972 -0.4072 -0.0803
 3939SOL    HW114709   0.083   6.748   5.541 -1.9007 -1.0553 -0.3630
 3939SOL    HW214710   0.119   6.895   5.538  0.3349 -1.5730 -2.0699
 3940SOL     OW14711   5.906   2.642   7.656 -0.4348  0.3515 -0.6589
 3940SOL    HW114712   5.888   2.591   7.736 -1.7485 -0.9694 -1.7525
 3940SOL    HW214713   5.945   2.723   7.689 -0.4231 -0.3696  1.2953
 3941SOL     OW14714   5.599   5.602   2.755  0.7332  0.1946  0.0134
 3941SOL    HW114715   5.655   5.581   2.829 -0.6731  0.5228  1.2166
 3941SOL    HW214716   5.656   5.649   2.694  1.8356  0.2298  1.0377
 3942SOL     OW14717   5.459   1.831   3.065 -0.8233  0.1427 -0.1443
 3942SOL    HW114718   5.445   1.740   3.039 -1.7310  0.4507 -0.7905
 3942SOL    HW214719   5.465   1.879   2.983  3.4822  0.2369 -0.0121
 3943SOL     OW14720   5.365   4.687   4.298 -0.1593  0.3372  0.0980
 3943SOL    HW114721   5.307   4.719   4.367 -0.2986 -0.4934  0.3710
 3943SOL    HW214722   5.322   4.609   4.264  0.7832 -0.2809  0.2927
 3944SOL     OW14723   7.281   1.724   5.117 -0.0065  0.1952  0.0216
 3944SOL    HW114724   7.252   1.764   5.035  0.5191 -0.7670 -0.6697
 3944SOL    HW214725   7.302   1.797   5.174 -0.9668  0.8879 -0.4839
 3945SOL     OW14726   4.238   7.835   1.620  0.1575  0.1114 -0.0782
 3945SOL    HW114727   4.284   7.833   1.704  1.0720 -0.9596 -0.5783
 3945SOL    HW214728   4.307   7.828   1.555 -0.3522  2.8505 -1.0411
 3946SOL     OW14729   0.829   4.107   8.357  0.5110 -0.0720 -0.2526
 3946SOL    HW114730   0.834   4.198   8.385 -1.0154  0.3701 -1.2951
 3946SOL    HW214731   0.859   4.057   8.433  1.0887  1.2799  0.4363
 3947SOL     OW14732   4.211   6.769   5.122 -0.3647  0.5943 -0.4221
 3947SOL    HW114733   4.239   6.761   5.031  1.2455 -0.0841  0.0874
 3947SOL    HW214734   4.280   6.823   5.163 -0.1243 -0.5530  0.7471
 3948SOL     OW14735   4.037   8.609   5.538  0.1791 -0.4661  0.1599
 3948SOL    HW114736   3.992   8.690   5.515 -1.2098 -0.9343  1.1311
 3948SOL    HW214737   4.054   8.567   5.454  0.8048  0.7400 -0.3538
 3949SOL     OW14738   1.034   0.163   8.516  0.2586  0.0962  0.1749
 3949SOL    HW114739   1.103   0.112   8.558 -0.2091 -0.6141  0.0984
 3949SOL    HW214740   0.953   0.116   8.537 -0.3778  1.6816  1.4516
 3950SOL     OW14741   7.595   5.220   5.516 -0.1554  0.4674 -0.4204
 3950SOL    HW114742   7.688   5.236   5.530 -0.1911 -0.7286  1.6431
 3950SOL    HW214743   7.561   5.199   5.603 -2.5263  1.5736 -0.9895
 3951SOL     OW14744   6.259   2.444   6.544 -0.0428  0.2733  0.1558
 3951SOL    HW114745   6.176   2.420   6.503  0.3827 -0.1625 -0.4495
 3951SOL    HW214746   6.242   2.530   6.584 -1.1701 -0.3831  1.1675
 3952SOL     OW14747   5.243   2.704   4.172 -0.3286  0.0687  0.4314
 3952SOL    HW114748   5.325   2.754   4.172  0.3124 -0.9447  0.2238
 3952SOL    HW214749   5.250   2.646   4.248 -1.0165  0.2242  0.6168
 3953SOL     OW14750   5.612   2.675   5.777 -0.3158 -0.0729 -0.0689
 3953SOL    HW114751   5.629   2.762   5.741 -1.2241  0.6330  1.1322
 3953SOL    HW214752   5.596   2.690   5.870 -1.9461 -1.3435 -0.0961
 3954SOL     OW14753   0.217   4.030   3.876  0.1373 -0.2554  0.2377
 3954SOL    HW114754   0.220   4.125   3.885 -0.5846 -0.0362 -1.3642
 3954SOL    HW214755   0.135   4.003   3.916 -0.8443  0.1356 -1.4027
 3955SOL     OW14756   6.854   4.331   3.417 -0.6699 -0.2371 -0.1044
 3955SOL    HW114757   6.925   4.283   3.376 -0.1887  0.1014  0.3211
 3955SOL    HW214758   6.786   4.265   3.432 -0.5060 -0.5304 -0.6421
 3956SOL     OW14759   8.233   2.779   4.403  0.2395 -0.0468 -0.1587
 3956SOL    HW114760   8.234   2.703   4.462 -0.4549  0.1523  0.1272
 3956SOL    HW214761   8.300   2.838   4.439 -1.0925  0.6709  1.2779
 3957SOL     OW14762   6.275   3.209   2.961 -0.0806  0.3860 -0.0466
 3957SOL    HW114763   6.188   3.244   2.983  0.5665  1.4606  0.9400
 3957SOL    HW214764   6.303   3.165   3.041  0.3847  0.2513 -0.2844
 3958SOL     OW14765   8.535   3.611   5.321 -0.3840  0.1372 -0.3461
 3958SOL    HW114766   8.590   3.574   5.391 -1.2352 -0.2213  0.1515
 3958SOL    HW214767   8.454   3.561   5.326 -1.2348  1.4689 -0.2566
 3959SOL     OW14768   2.945   1.700   0.206 -0.1667 -0.0163 -0.1607
 3959SOL    HW114769   2.897   1.620   0.182  2.6185 -1.9401  0.2871
 3959SOL    HW214770   2.994   1.676   0.284  1.3928  1.8733 -0.4871
 3960SOL     OW14771   6.030   3.289   3.062 -0.1304  0.0227 -0.3830
 3960SOL    HW114772   5.966   3.233   3.107 -0.3533 -1.0860 -1.9772
 3960SOL    HW214773   5.980   3.367   3.038 -0.7301 -0.5111 -0.9552
 3961SOL     OW14774   5.793   2.197   1.300  0.8479 -0.0673 -0.5168
 3961SOL    HW114775   5.844   2.121   1.274 -0.9026 -1.1294 -1.0482
 3961SOL    HW214776   5.770   2.240   1.217 -1.2391 -1.1051 -0.5629
 3962SOL     OW14777   1.297   0.920   5.350 -0.0026 -0.6072  0.7193
 3962SOL    HW114778   1.204   0.896   5.357 -0.1216 -0.2421  0.4245
 3962SOL    HW214779   1.297   1.016   5.347  0.3653 -0.6150  0.4172
 3963SOL     OW14780   7.227   6.598   4.303 -0.0783 -0.2381  0.3760
 3963SOL    HW114781   7.142   6.617   4.262  0.3958  1.2597  0.0472
 3963SOL    HW214782   7.287   6.587   4.230  0.4546  0.8902  0.6330
 3964SOL     OW14783   2.979   7.588   2.474  0.5703 -0.6325  0.3487
 3964SOL    HW114784   3.071   7.582   2.448  0.3263 -1.0305 -0.4477
 3964SOL    HW214785   2.931   7.592   2.391 -0.0620  0.7652  0.7477
 3965SOL     OW14786   3.414   6.712   6.961 -0.2377 -0.0019  0.0870
 3965SOL    HW114787   3.345   6.715   6.895  1.8280 -1.3439 -2.3062
 3965SOL    HW214788   3.439   6.620   6.967  2.5691  0.6031 -0.5974
 3966SOL     OW14789   9.106   5.622   2.229 -0.4497  0.0353  0.4764
 3966SOL    HW114790   9.069   5.539   2.260 -1.0701  0.3329  0.5410
 3966SOL    HW214791   9.201   5.609   2.236 -0.5545 -0.2448  1.6250
 3967SOL     OW14792   2.879   3.949   4.338 -0.0283  0.3804  0.2214
 3967SOL    HW114793   2.914   3.868   4.375 -5.0244 -2.4720 -0.4542
 3967SOL    HW214794   2.942   3.974   4.270  1.5682 -3.2027  0.1910
 3968SOL     OW14795   2.687   2.229   9.050  0.0624  0.0441 -0.2895
 3968SOL    HW114796   2.718   2.210   8.961  1.3652 -0.3211  0.2235
 3968SOL    HW214797   2.593   2.209   9.047 -0.2786  1.5753 -2.0081
 3969SOL     OW14798   7.618   6.046   4.876  0.2847 -0.2269 -0.1989
 3969SOL    HW114799   7.561   6.025   4.950 -0.2449 -0.2746 -0.6169
 3969SOL    HW214800   7.666   5.965   4.858  1.0642  0.0179  0.6372
 3970SOL     OW14801   2.229   8.180   2.115 -0.2309 -0.5531 -0.0317
 3970SOL    HW114802   2.315   8.213   2.088  0.4164 -1.4656  0.8267
 3970SOL    HW214803   2.167   8.241   2.076  0.7558 -0.4053 -1.4561
 3971SOL     OW14804   0.738   9.140   2.210 -0.2283  0.0080 -0.3200
 3971SOL    HW114805   0.796   9.075   2.250 -0.4777  0.0568  0.1281
 3971SOL    HW214806   0.742   9.215   2.269  0.1798  0.4696 -0.9173
 3972SOL     OW14807   8.678   3.499   7.354  0.4355  0.2942 -0.1593
 3972SOL    HW114808   8.671   3.478   7.447  0.9285  0.6546 -0.0387
 3972SOL    HW214809   8.764   3.539   7.345  1.1901 -1.4627 -1.1145
 3973SOL     OW14810   8.899   3.087   3.529 -0.1669  0.1952 -0.0544
 3973SOL    HW114811   8.947   3.101   3.611 -0.5281 -2.3919  0.7131
 3973SOL    HW214812   8.965   3.057   3.467  0.3533  3.3946 -1.2439
 3974SOL     OW14813   5.022   1.775   7.385 -0.1503  0.2378  0.2230
 3974SOL    HW114814   5.065   1.691   7.395 -1.9157 -0.8147 -0.4227
 3974SOL    HW214815   4.996   1.778   7.293 -0.0137  1.5444  0.2046
 3975SOL     OW14816   0.561   6.936   2.426  0.4195  0.6347 -0.0803
 3975SOL    HW114817   0.472   6.961   2.402  0.1249  0.7579  1.0774
 3975SOL    HW214818   0.605   6.922   2.343 -0.7391  0.3618 -0.6683
 3976SOL     OW14819   2.147   6.142   2.859  0.4019 -0.4685 -0.1441
 3976SOL    HW114820   2.164   6.231   2.828 -1.1754  0.3956  1.3029
 3976SOL    HW214821   2.212   6.088   2.813 -0.2180  1.0189 -3.0000
 3977SOL     OW14822   8.758   1.920   8.324  0.5140 -0.3965 -0.3614
 3977SOL    HW114823   8.831   1.954   8.376 -1.2946  2.0233  0.7762
 3977SOL    HW214824   8.754   1.976   8.247  0.9439 -1.7138 -1.3983
 3978SOL     OW14825   2.405   5.571   7.664 -0.3028  0.1595  0.0637
 3978SOL    HW114826   2.385   5.617   7.746 -2.7234 -0.3285 -0.1845
 3978SOL    HW214827   2.321   5.565   7.619  0.4810 -1.9307 -1.2554
 3979SOL     OW14828   0.660   6.560   3.685  0.2494  0.2612  0.7980
 3979SOL    HW114829   0.594   6.519   3.629 -0.1047 -1.2767  2.2632
 3979SOL    HW214830   0.735   6.574   3.628 -0.2613 -0.8345 -0.1749
 3980SOL     OW14831   3.263   5.467   5.788  0.2733  0.1965  0.6222
 3980SOL    HW114832   3.224   5.380   5.778  0.9920  0.0264 -1.0003
 3980SOL    HW214833   3.303   5.486   5.703 -0.4847  2.4425  0.6853
 3981SOL     OW14834   4.678   6.273   2.657  0.7484 -0.1042 -0.3265
 3981SOL    HW114835   4.587   6.243   2.657  0.6732  0.1033 -1.0405
 3981SOL    HW214836   4.729   6.193   2.649  0.6086 -0.1920 -0.3543
 3982SOL     OW14837   8.161   0.771   2.996 -0.1022  0.0647  0.7631
 3982SOL    HW114838   8.243   0.748   3.040 -0.6373  0.3829  1.9582
 3982SOL    HW214839   8.132   0.852   3.037  0.4316  1.5905 -1.6363
 3983SOL     OW14840   4.446   2.475   2.584  0.5323  0.0225  0.3615
 3983SOL    HW114841   4.503   2.508   2.514  1.0383  1.9387  1.5826
 3983SOL    HW214842   4.477   2.386   2.599  1.5801  0.1767 -0.6810
 3984SOL     OW14843   1.297   1.638   7.121  0.1089  0.0453  0.2137
 3984SOL    HW114844   1.387   1.667   7.112 -0.1806  0.7242 -0.5771
 3984SOL    HW214845   1.279   1.589   7.041 -0.4306  0.4807  0.0629
 3985SOL     OW14846   7.842   0.420   1.324  0.0271 -0.0096  0.1617
 3985SOL    HW114847   7.936   0.412   1.338  0.1118 -0.5586 -0.6656
 3985SOL    HW214848   7.823   0.362   1.250 -1.0085 -0.1375  0.5047
 3986SOL     OW14849   3.549   8.353   2.373 -0.4212 -0.0768  0.6236
 3986SOL    HW114850   3.480   8.385   2.431 -0.8852  0.0386  0.0190
 3986SOL    HW214851   3.606   8.428   2.360  0.1683 -0.3365  1.6113
 3987SOL     OW14852   0.166   1.890   6.151  0.8173  0.2165  0.0974
 3987SOL    HW114853   0.125   1.921   6.232  0.7329  0.5207 -0.0618
 3987SOL    HW214854   0.151   1.796   6.152  0.6610  0.2417  0.3511
 3988SOL     OW14855   2.303   4.215   4.302 -0.0763  0.1483  0.1224
 3988SOL    HW114856   2.373   4.253   4.248  1.3920  0.7862  2.3256
 3988SOL    HW214857   2.285   4.282   4.368 -0.0493 -1.5103  1.8983
 3989SOL     OW14858   3.437   7.694   9.141  0.5571 -0.1347 -0.1088
 3989SOL    HW114859   3.489   7.730   9.069  0.8691  1.0822  0.6950
 3989SOL    HW214860   3.481   7.726   9.220 -0.9228  0.1911  0.6005
 3990SOL     OW14861   4.821   9.104   0.861  0.1107  0.2279 -0.1753
 3990SOL    HW114862   4.780   9.067   0.783 -0.9610  1.2789 -0.1481
 3990SOL    HW214863   4.807   9.038   0.929  1.0189 -0.6797 -0.8425
 3991SOL     OW14864   4.450   8.597   4.264  0.9134  0.3876 -0.2968
 3991SOL    HW114865   4.429   8.688   4.286  1.5551  0.6285 -0.6658
 3991SOL    HW214866   4.458   8.597   4.169  0.0621 -0.2448 -0.3846
 3992SOL     OW14867   4.285   5.134   9.181 -0.3364 -0.8076 -0.7740
 3992SOL    HW114868   4.235   5.156   9.259 -0.2931  0.5988 -1.1209
 3992SOL    HW214869   4.300   5.039   9.188  1.6154 -0.4250  2.0877
 3993SOL     OW14870   8.853   8.747   7.929  0.7111  0.0195 -0.6619
 3993SOL    HW114871   8.839   8.821   7.988 -2.6443 -1.2697  0.4717
 3993SOL    HW214872   8.833   8.781   7.842  1.8263  1.0287 -0.5449
 3994SOL     OW14873   9.256   7.214   2.997 -0.5024 -0.1193 -0.4789
 3994SOL    HW114874   9.288   7.305   2.994 -1.6260  0.3007 -0.0655
 3994SOL    HW214875   9.176   7.215   2.945 -0.5900 -0.8623 -0.3690
 3995SOL     OW14876   6.586   2.042   5.105 -0.1291 -0.6324 -0.5908
 3995SOL    HW114877   6.527   2.113   5.079  0.8261  0.8370  0.9850
 3995SOL    HW214878   6.560   1.968   5.051 -1.4624  0.7906 -2.0219
 3996SOL     OW14879   4.190   1.998   2.694  0.1988  0.1800 -0.3373
 3996SOL    HW114880   4.193   2.060   2.621 -0.1287 -0.2789 -0.7398
 3996SOL    HW214881   4.199   2.054   2.772 -0.8708  0.8244 -0.6536
 3997SOL     OW14882   8.866   3.778   6.588  0.1761 -0.1926 -0.2008
 3997SOL    HW114883   8.901   3.784   6.499 -1.6606  0.8235 -0.9064
 3997SOL    HW214884   8.836   3.687   6.595 -0.3930 -0.0769 -0.9341
 3998SOL     OW14885   8.855   6.621   2.217  0.0390  0.1822  0.2538
 3998SOL    HW114886   8.830   6.712   2.207  1.3920  0.7125  1.4354
 3998SOL    HW214887   8.934   6.611   2.163 -0.2276 -0.3541 -0.0494
 3999SOL     OW14888   3.580   1.406   3.456  0.3273  0.2332 -0.2327
 3999SOL    HW114889   3.665   1.364   3.445 -0.6732 -2.2171  0.7134
 3999SOL    HW214890   3.527   1.341   3.503 -1.8660  1.9412 -0.1911
 4000SOL     OW14891   4.541   0.583   2.595 -0.1470  0.0628  0.1819
 4000SOL    HW114892   4.456   0.619   2.568  0.1112 -0.0306 -0.7645
 4000SOL    HW214893   4.584   0.654   2.642  0.3005  0.9645 -1.5474
 4001SOL     OW14894   6.096   5.912   8.114 -0.1812 -0.2722 -0.1030
 4001SOL    HW114895   6.165   5.856   8.149  1.3356  0.0399 -2.4111
 4001SOL    HW214896   6.039   5.853   8.065  0.1701 -0.1277 -0.6964
 4002SOL     OW14897   5.667   0.026   3.220  0.5685  0.1206  0.4712
 4002SOL    HW114898   5.694   0.051   3.309  1.7025 -0.2995  0.2684
 4002SOL    HW214899   5.748  -0.006   3.179  0.0308  0.1849 -0.6722
 4003SOL     OW14900   1.225   2.945   3.031  0.3150  0.2316  0.0484
 4003SOL    HW114901   1.287   2.899   2.975 -1.3540  0.8050 -2.4479
 4003SOL    HW214902   1.152   2.884   3.042  0.7275  0.0159  1.9518
 4004SOL     OW14903   1.061   1.201   7.166  0.4196 -0.0771 -0.2850
 4004SOL    HW114904   1.070   1.120   7.116 -1.2321 -1.0320  0.8732
 4004SOL    HW214905   1.002   1.255   7.113 -1.4685 -1.1554  0.6497
 4005SOL     OW14906   3.944   4.017   7.486 -0.2999 -0.2793 -0.4039
 4005SOL    HW114907   3.916   3.950   7.424 -0.2767 -1.7490  1.0951
 4005SOL    HW214908   4.036   3.997   7.504  0.2378  1.2500 -1.2380
 4006SOL     OW14909   4.982   6.149   7.084  0.3214 -0.2314  0.3274
 4006SOL    HW114910   5.043   6.121   7.152  2.5376  3.0126 -0.1058
 4006SOL    HW214911   4.969   6.242   7.101 -0.4519  0.2929 -2.6424
 4007SOL     OW14912   7.518   0.351   2.451 -0.3989 -0.4655  0.2891
 4007SOL    HW114913   7.433   0.382   2.420 -1.1183 -1.8572  0.7795
 4007SOL    HW214914   7.552   0.423   2.504  0.3859  1.5420 -2.7057
 4008SOL     OW14915   1.678   0.941   4.902 -0.4537  0.4105  0.0420
 4008SOL    HW114916   1.609   0.936   4.968  0.9002  0.7159  1.5630
 4008SOL    HW214917   1.687   1.035   4.884 -0.5267  0.3600 -0.2694
 4009SOL     OW14918   1.579   2.930   3.289 -0.1879  0.2075 -0.2325
 4009SOL    HW114919   1.609   2.993   3.354  1.0572 -1.3656  0.8281
 4009SOL    HW214920   1.638   2.942   3.215 -0.7531  1.1141 -0.5383
 4010SOL     OW14921   0.875   3.660   0.837 -0.0664  0.0227  0.1217
 4010SOL    HW114922   0.786   3.629   0.850  0.3545 -1.2579  0.1224
 4010SOL    HW214923   0.891   3.648   0.744 -0.1569  1.0171 -0.0312
 4011SOL     OW14924   4.875   7.301   8.186 -0.3313 -0.0296  0.8860
 4011SOL    HW114925   4.961   7.337   8.162 -0.0894 -0.4605  1.0954
 4011SOL    HW214926   4.862   7.228   8.125 -1.3018  1.0491 -0.2489
 4012SOL     OW14927   6.613   0.114   3.870  0.4373  0.3213  0.2340
 4012SOL    HW114928   6.559   0.058   3.925 -1.0339  0.5946 -0.8552
 4012SOL    HW214929   6.703   0.095   3.896 -0.1482 -0.7062  1.5897
 4013SOL     OW14930   6.849   0.761   3.429 -0.2178 -0.0898 -0.3104
 4013SOL    HW114931   6.870   0.778   3.521  2.3339 -1.1667 -0.6214
 4013SOL    HW214932   6.890   0.677   3.410  0.0330  0.5037 -2.6504
 4014SOL     OW14933   5.832   2.523   2.956 -0.1713  0.2009 -0.1747
 4014SOL    HW114934   5.810   2.617   2.954  0.2585  0.3024 -0.0912
 4014SOL    HW214935   5.835   2.501   3.049  2.9971  0.8810 -0.0084
 4015SOL     OW14936   8.546   2.990   0.453  0.3058 -0.0232  0.5622
 4015SOL    HW114937   8.615   2.929   0.430 -0.9838 -2.0472  1.7539
 4015SOL    HW214938   8.559   3.065   0.394  3.0278 -0.6174  0.2981
 4016SOL     OW14939   6.161   5.857   4.132 -0.0673 -0.2241 -0.4930
 4016SOL    HW114940   6.254   5.865   4.155 -0.2604  0.4911  0.0802
 4016SOL    HW214941   6.146   5.763   4.127  0.0736 -0.4818  2.1262
 4017SOL     OW14942   5.038   9.114   6.991  0.3038 -0.5510 -0.2128
 4017SOL    HW114943   4.974   9.080   6.929 -0.5970 -1.5752  1.2161
 4017SOL    HW214944   5.082   9.036   7.025  1.7403  0.0814 -0.5249
 4018SOL     OW14945   1.562   8.835   7.253 -0.0701  0.3155  0.2310
 4018SOL    HW114946   1.605   8.749   7.252  1.9164  1.2479 -1.4475
 4018SOL    HW214947   1.590   8.874   7.336  2.3592  0.8568 -0.7780
 4019SOL     OW14948   2.535   1.739   3.872 -0.4044  0.9411 -0.5640
 4019SOL    HW114949   2.609   1.728   3.812 -0.4327  0.3577 -0.4946
 4019SOL    HW214950   2.574   1.738   3.959 -0.4285  1.2108 -0.5505
 4020SOL     OW14951   3.129   7.026   7.991  0.7691  0.1628 -0.5738
 4020SOL    HW114952   3.139   6.974   8.071 -0.8471 -0.4395 -0.7457
 4020SOL    HW214953   3.215   7.068   7.980  1.5235 -0.9827  0.5937
 4021SOL     OW14954   7.587   2.972   0.057  0.2317 -0.1413  0.6746
 4021SOL    HW114955   7.636   2.940   0.133 -0.2957 -0.9096  0.7082
 4021SOL    HW214956   7.500   2.932   0.066 -0.6482  1.7163  0.9839
 4022SOL     OW14957   8.477   7.272   2.122  0.1320  0.1507  0.4201
 4022SOL    HW114958   8.434   7.320   2.193  0.2376  2.5693 -1.0562
 4022SOL    HW214959   8.570   7.282   2.139  0.1731  1.4662 -0.4725
 4023SOL     OW14960   5.577   1.467   7.954  0.1261  0.2838 -0.1127
 4023SOL    HW114961   5.583   1.544   8.010  0.5971  0.1265  0.0652
 4023SOL    HW214962   5.668   1.441   7.940 -0.0523 -1.4880  1.5873
 4024SOL     OW14963   1.133   0.026   1.537 -0.0448 -0.3037 -0.3512
 4024SOL    HW114964   1.135   0.010   1.442  2.5021 -2.1999 -0.0957
 4024SOL    HW214965   1.048  -0.007   1.565  0.1054 -2.0158 -1.6939
 4025SOL     OW14966   8.017   0.960   7.438 -0.4355  0.2631 -0.4991
 4025SOL    HW114967   8.098   0.912   7.458 -0.9271 -0.2899  0.2495
 4025SOL    HW214968   7.964   0.951   7.518 -0.6065  1.9480 -0.3945
 4026SOL     OW14969   6.392   5.505   0.643  0.4871 -0.6775 -0.6157
 4026SOL    HW114970   6.378   5.425   0.592 -0.4084 -1.3441  0.6088
 4026SOL    HW214971   6.416   5.571   0.579 -1.5815 -1.2190 -2.0428
 4027SOL     OW14972   8.944   4.517   5.986 -0.4520  0.1486 -0.2519
 4027SOL    HW114973   8.902   4.519   5.901  0.6644 -1.3344 -0.8904
 4027SOL    HW214974   9.008   4.588   5.984 -0.3379  0.0333 -0.7204
 4028SOL     OW14975   5.247   3.104   1.628 -0.4309 -0.3109 -0.5318
 4028SOL    HW114976   5.217   3.161   1.699 -0.7378 -0.7671 -0.2880
 4028SOL    HW214977   5.262   3.163   1.554  0.1441  0.2108 -0.0162
 4029SOL     OW14978   6.999   6.951   5.218 -0.2207 -0.2785 -0.3702
 4029SOL    HW114979   6.992   7.010   5.293  0.9326 -0.1088 -0.3863
 4029SOL    HW214980   6.925   6.892   5.228 -0.0530 -0.2956  0.9372
 4030SOL     OW14981   0.887   5.480   5.714 -0.0378  0.4218  0.0793
 4030SOL    HW114982   0.882   5.471   5.809 -1.5805  1.9547  0.1889
 4030SOL    HW214983   0.801   5.513   5.689 -0.2375 -1.5052 -2.0691
 4031SOL     OW14984   4.373   5.750   8.461 -0.2693 -0.1456  0.1604
 4031SOL    HW114985   4.441   5.810   8.492 -1.4781  2.8638 -2.5183
 4031SOL    HW214986   4.363   5.771   8.368 -2.6081 -2.7752 -0.2957
 4032SOL     OW14987   4.803   8.416   5.800  0.2704 -0.1797 -0.1227
 4032SOL    HW114988   4.808   8.477   5.727  0.3101 -0.9917 -0.8070
 4032SOL    HW214989   4.893   8.411   5.833 -0.0093  1.3866  1.0127
 4033SOL     OW14990   3.355   4.098   6.443  0.4197 -0.0169  1.0185
 4033SOL    HW114991   3.267   4.109   6.408  0.9231  0.1286 -0.2461
 4033SOL    HW214992   3.353   4.013   6.486 -0.9096  0.8753  2.8632
 4034SOL     OW14993   2.051   3.294   7.563 -0.2364 -0.8248 -0.8659
 4034SOL    HW114994   2.122   3.329   7.617 -0.9175  0.1382 -0.5494
 4034SOL    HW214995   2.094   3.236   7.500  0.7455 -0.7697 -0.2671
 4035SOL     OW14996   6.985   5.390   5.707  0.0290  0.2281 -0.0681
 4035SOL    HW114997   6.937   5.325   5.655 -1.0276  2.4124 -2.0726
 4035SOL    HW214998   7.068   5.401   5.661 -0.0394  0.6957 -0.0847
 4036SOL     OW14999   1.784   8.782   5.965  0.2174 -0.5627 -0.2643
 4036SOL    HW115000   1.727   8.708   5.944 -2.4090  0.7798  1.4415
 4036SOL    HW215001   1.797   8.827   5.881 -2.5246 -0.1818 -0.5856
 4037SOL     OW15002   7.012   7.332   7.090 -0.5159  0.0341 -0.2719
 4037SOL    HW115003   7.103   7.306   7.082 -0.1588  0.9623  0.5722
 4037SOL    HW215004   6.963   7.250   7.084  0.3431 -0.4407 -1.0177
 4038SOL     OW15005   4.891   5.640   5.532  0.0265 -0.5129 -0.6752
 4038SOL    HW115006   4.859   5.556   5.499 -0.2659 -0.0967 -1.4931
 4038SOL    HW215007   4.812   5.693   5.542  0.3105  0.0562 -1.3439
 4039SOL     OW15008   5.249   9.183   0.291 -0.3749 -0.2257  0.3885
 4039SOL    HW115009   5.226   9.252   0.228  1.9605 -0.4774 -0.8733
 4039SOL    HW215010   5.210   9.103   0.254  0.1186 -0.1986 -0.2095
 4040SOL     OW15011   1.901   7.996   4.734  0.0719  0.4606 -0.4064
 4040SOL    HW115012   1.806   7.980   4.734  0.1855 -0.2545  0.1290
 4040SOL    HW215013   1.933   7.951   4.812  0.9123  0.3547 -0.8030
 4041SOL     OW15014   8.517   7.457   1.444  1.1421 -0.4525 -0.5561
 4041SOL    HW115015   8.583   7.464   1.375  3.2445 -0.6020  1.3006
 4041SOL    HW215016   8.522   7.365   1.472 -1.3238 -1.0079 -1.6367
 4042SOL     OW15017   4.076   8.333   3.113  0.2125 -0.8290  0.6198
 4042SOL    HW115018   3.993   8.303   3.150 -0.8477  0.1699 -0.8214
 4042SOL    HW215019   4.137   8.332   3.187 -1.0945 -1.5035  1.7390
 4043SOL     OW15020   6.176   7.608   3.599  0.3734 -0.0465 -0.3782
 4043SOL    HW115021   6.108   7.541   3.610  0.2816  0.1134  0.0498
 4043SOL    HW215022   6.136   7.688   3.632  1.1068 -0.1515  0.8208
 4044SOL     OW15023   5.402   1.651   0.355  0.4617  0.4755 -0.0595
 4044SOL    HW115024   5.472   1.589   0.337  1.5278  1.8811 -1.0019
 4044SOL    HW215025   5.339   1.602   0.407 -0.4973 -2.5001 -3.5769
 4045SOL     OW15026   1.974   1.260   3.221  0.3695  0.3820  0.3614
 4045SOL    HW115027   1.974   1.225   3.311 -0.2324  0.1960  0.2920
 4045SOL    HW215028   1.972   1.355   3.232  0.6678  0.3699  0.5439
 4046SOL     OW15029   6.805   5.223   0.708 -0.1039  0.0026 -0.3417
 4046SOL    HW115030   6.757   5.296   0.749 -1.1417 -0.8560  0.0310
 4046SOL    HW215031   6.765   5.145   0.746  2.6840 -0.7874  1.2592
 4047SOL     OW15032   0.083   3.468   6.322 -0.5993 -0.2923 -0.0896
 4047SOL    HW115033   0.154   3.531   6.310 -0.8761  0.0635  0.0967
 4047SOL    HW215034   0.087   3.445   6.415 -0.7478 -0.2478 -0.0726
 4048SOL     OW15035   4.507   6.150   8.203  0.0116  0.1615 -0.0178
 4048SOL    HW115036   4.515   6.168   8.297 -0.1128  0.9821 -0.1533
 4048SOL    HW215037   4.471   6.062   8.198  1.3935 -0.4857  0.6957
 4049SOL     OW15038   8.424   6.613   1.405 -0.6833 -0.0370  0.0427
 4049SOL    HW115039   8.428   6.519   1.427 -0.0379  0.3509  1.7349
 4049SOL    HW215040   8.334   6.638   1.428 -0.0658  0.3267  2.3475
 4050SOL     OW15041   1.771   4.264   2.753 -0.0545 -0.2505 -0.4319
 4050SOL    HW115042   1.811   4.179   2.733  1.4713  0.3419 -0.0400
 4050SOL    HW215043   1.834   4.307   2.810 -2.7961 -0.6345  3.3077
 4051SOL     OW15044   4.434   8.996   8.236  0.0242  0.0234  0.4731
 4051SOL    HW115045   4.397   9.083   8.223 -0.4702 -0.5652 -2.7825
 4051SOL    HW215046   4.410   8.947   8.157 -0.4389 -3.3612  2.5046
 4052SOL     OW15047   2.220   0.682   8.249 -0.8553  0.3035  0.3293
 4052SOL    HW115048   2.125   0.678   8.264 -0.7575 -0.0251  0.8922
 4052SOL    HW215049   2.237   0.612   8.187 -1.1325  1.0619 -0.6185
 4053SOL     OW15050   5.196   0.603   8.617  0.5179  0.5354  0.0510
 4053SOL    HW115051   5.122   0.663   8.631  0.8467  1.3778 -1.5192
 4053SOL    HW215052   5.271   0.650   8.655  0.7478  1.0792 -1.0394
 4054SOL     OW15053   7.279   4.761   4.800 -0.2145 -0.3506  0.0288
 4054SOL    HW115054   7.270   4.727   4.889  0.1595 -2.3203 -0.6231
 4054SOL    HW215055   7.190   4.782   4.772 -0.4764 -0.8074  0.4967
 4055SOL     OW15056   2.537   0.543   8.869 -0.8094 -0.0944 -0.0518
 4055SOL    HW115057   2.484   0.468   8.840 -0.0824  0.4153 -2.9808
 4055SOL    HW215058   2.627   0.511   8.867 -0.5897  0.5306 -0.2176
 4056SOL     OW15059   2.289   3.921   0.388  0.0235 -0.1870 -0.5895
 4056SOL    HW115060   2.286   3.825   0.395  0.9762 -0.3828 -2.3060
 4056SOL    HW215061   2.233   3.942   0.313  0.9447  0.4502 -1.1256
 4057SOL     OW15062   4.677   2.763   5.890 -0.3285 -0.4357  0.1092
 4057SOL    HW115063   4.611   2.782   5.956  0.0614  2.2711 -0.1764
 4057SOL    HW215064   4.758   2.749   5.939 -0.4041 -0.2365  0.2912
 4058SOL     OW15065   4.278   8.598   8.762 -0.1220 -0.7213  0.6113
 4058SOL    HW115066   4.356   8.548   8.786  0.6009  0.4323  0.7173
 4058SOL    HW215067   4.225   8.599   8.841  0.1035 -0.8508  0.7653
 4059SOL     OW15068   5.400   8.505   4.643 -0.0139  0.5469  0.0996
 4059SOL    HW115069   5.333   8.561   4.681 -1.2615 -1.1969  0.5977
 4059SOL    HW215070   5.441   8.559   4.575 -2.3298  1.4900 -0.6306
 4060SOL     OW15071   7.861   4.542   3.699  0.2941 -0.2984 -0.0143
 4060SOL    HW115072   7.815   4.610   3.749 -0.1579 -1.7763  1.6717
 4060SOL    HW215073   7.931   4.589   3.654  0.0021  1.2906  1.0939
 4061SOL     OW15074   6.845   5.991   4.649  0.1892 -0.1829  0.2706
 4061SOL    HW115075   6.909   6.058   4.625 -0.4710  0.5525  0.5323
 4061SOL    HW215076   6.898   5.918   4.680  0.9193  0.2560  0.0878
 4062SOL     OW15077   5.554   1.157   5.582 -0.2385 -0.4950  0.0098
 4062SOL    HW115078   5.637   1.129   5.619 -0.2404 -0.6838 -0.1240
 4062SOL    HW215079   5.539   1.244   5.617 -0.3098 -0.7276  0.5615
 4063SOL     OW15080   1.012   0.974   2.860  0.2251 -0.2199  0.8311
 4063SOL    HW115081   0.940   1.038   2.865  0.6237  0.2127  1.0534
 4063SOL    HW215082   1.075   1.013   2.800 -0.7980 -1.6863 -1.3102
 4064SOL     OW15083   0.170   0.613   5.376 -0.2087  0.3395  0.0575
 4064SOL    HW115084   0.239   0.566   5.423 -0.6229  1.6712  2.1193
 4064SOL    HW215085   0.202   0.703   5.370 -0.9962  0.5864 -0.5945
 4065SOL     OW15086   1.303   3.511   8.161  0.2514 -0.4270  0.3146
 4065SOL    HW115087   1.256   3.478   8.085  0.9748 -0.0624 -0.3011
 4065SOL    HW215088   1.384   3.547   8.126 -1.2622  3.8327  0.5895
 4066SOL     OW15089   6.453   7.088   1.039 -0.5390 -0.7626 -0.0181
 4066SOL    HW115090   6.434   7.058   0.950 -2.0511 -1.1339  0.3988
 4066SOL    HW215091   6.370   7.123   1.071  0.6521  2.1404  0.2334
 4067SOL     OW15092   4.228   0.961   5.372  0.0757 -0.3414  0.3289
 4067SOL    HW115093   4.169   0.961   5.296 -0.9841 -0.6421  1.1393
 4067SOL    HW215094   4.272   0.876   5.368 -0.7081 -0.7690  0.6007
 4068SOL     OW15095   3.904   1.309   5.720 -0.1463  0.0459 -0.1093
 4068SOL    HW115096   3.929   1.218   5.705  1.5482  0.1718  1.6213
 4068SOL    HW215097   3.821   1.303   5.767  1.0254 -0.7467  2.0020
 4069SOL     OW15098   0.558   3.186   3.099  0.0414  0.4186  0.2857
 4069SOL    HW115099   0.507   3.117   3.141  0.1944  0.0639 -0.0979
 4069SOL    HW215100   0.558   3.259   3.161  0.5136 -0.1993  1.0196
 4070SOL     OW15101   2.294   0.965   0.500 -0.4192  0.2613  0.7868
 4070SOL    HW115102   2.362   1.017   0.459 -0.7849 -0.0023 -0.1722
 4070SOL    HW215103   2.213   0.990   0.455 -0.8846  0.1801  1.5404
 4071SOL     OW15104   3.636   8.326   4.495  0.1296 -0.0970 -0.2665
 4071SOL    HW115105   3.698   8.397   4.510  0.6002 -0.1956 -1.5940
 4071SOL    HW215106   3.675   8.275   4.424 -2.2866  0.8490 -2.3946
 4072SOL     OW15107   0.739   7.064   5.214  0.3998 -0.2733 -0.4366
 4072SOL    HW115108   0.723   7.064   5.308 -1.1554 -0.2591 -0.6716
 4072SOL    HW215109   0.678   7.130   5.180  0.9780 -0.2438 -1.4504
 4073SOL     OW15110   0.963   7.440   5.167 -0.0119 -0.5214  0.2744
 4073SOL    HW115111   0.972   7.428   5.262 -1.5903 -0.0848  0.5021
 4073SOL    HW215112   0.871   7.460   5.154  0.1190 -0.8895 -1.4078
 4074SOL     OW15113   6.863   0.979   5.331  0.3570 -0.3633 -0.3251
 4074SOL    HW115114   6.947   1.025   5.329 -0.6328  1.5905  0.4380
 4074SOL    HW215115   6.839   0.970   5.239  1.0605 -0.3005 -0.5219
 4075SOL     OW15116   5.160   2.962   3.592 -0.1224 -0.9776 -0.3131
 4075SOL    HW115117   5.243   2.933   3.632  0.2476 -0.1754 -0.4850
 4075SOL    HW215118   5.123   3.023   3.655 -0.2732 -0.8537 -0.5229
 4076SOL     OW15119   1.153   8.871   4.065  0.3519 -0.0594  0.2201
 4076SOL    HW115120   1.202   8.953   4.077 -0.9568  0.7309  0.3442
 4076SOL    HW215121   1.210   8.818   4.010  1.3773  0.7957  0.4026
 4077SOL     OW15122   5.225   2.926   6.098 -0.2545 -0.3031  0.3576
 4077SOL    HW115123   5.306   2.976   6.110  0.0907 -0.9902  0.9237
 4077SOL    HW215124   5.221   2.867   6.173 -0.2681 -1.6744 -0.6809
 4078SOL     OW15125   0.436   7.914   1.324  0.3272 -0.1713 -0.3304
 4078SOL    HW115126   0.518   7.881   1.362  1.3204  1.4306 -0.9852
 4078SOL    HW215127   0.381   7.932   1.400  0.7562 -0.7940  0.1450
 4079SOL     OW15128   2.116   8.474   7.931  0.2134 -0.0371 -0.4007
 4079SOL    HW115129   2.090   8.478   8.023 -1.2623 -1.0855 -0.7483
 4079SOL    HW215130   2.044   8.515   7.883  2.2034  3.1942 -0.9710
 4080SOL     OW15131   7.052   4.936   8.517 -0.1627 -0.0926  0.2696
 4080SOL    HW115132   7.011   4.978   8.442  0.9196  0.6055  0.0442
 4080SOL    HW215133   7.028   4.844   8.510 -1.0652  0.1770 -0.2478
 4081SOL     OW15134   4.048   6.122   8.481  0.0204  0.2289 -0.0313
 4081SOL    HW115135   4.080   6.034   8.501 -0.3162 -0.2585 -1.5052
 4081SOL    HW215136   4.097   6.180   8.540 -0.1187 -0.9764  1.3088
 4082SOL     OW15137   2.414   8.775   6.704  0.0243 -0.0095  0.5022
 4082SOL    HW115138   2.413   8.866   6.732  0.8396  0.1280  0.1001
 4082SOL    HW215139   2.323   8.745   6.716 -0.7338  1.4152 -1.1932
 4083SOL     OW15140   0.255   0.055   2.148  0.0031 -0.2589 -0.0086
 4083SOL    HW115141   0.172   0.025   2.186 -1.2299  2.4764 -0.3266
 4083SOL    HW215142   0.274   0.137   2.194  2.0065 -0.2692 -0.7147
 4084SOL     OW15143   2.214   1.538   0.294 -0.1817  0.3738 -0.0563
 4084SOL    HW115144   2.243   1.627   0.312 -1.8687  1.1460 -0.9254
 4084SOL    HW215145   2.120   1.540   0.310 -0.1393 -1.4875  0.7039
 4085SOL     OW15146   7.940   4.281   3.289  0.1184  0.0741  0.7783
 4085SOL    HW115147   7.914   4.352   3.347  0.2180 -0.3300  1.3265
 4085SOL    HW215148   7.974   4.213   3.348 -2.4206 -1.5352  0.5713
 4086SOL     OW15149   2.900   3.773   9.210  0.3751  0.0914  0.3394
 4086SOL    HW115150   2.944   3.856   9.195  1.1592 -0.2398  0.7505
 4086SOL    HW215151   2.861   3.781   9.296  0.9624 -0.1775  0.6358
 4087SOL     OW15152   3.642   7.567   6.984 -0.2611 -0.1808  0.4323
 4087SOL    HW115153   3.655   7.486   7.034  1.2381 -1.0322 -1.2398
 4087SOL    HW215154   3.659   7.637   7.048  1.6273 -1.2301  1.1772
 4088SOL     OW15155   8.141   6.392   1.139 -0.4370  0.5092  0.3240
 4088SOL    HW115156   8.056   6.432   1.156  0.0926  1.8337 -0.0587
 4088SOL    HW215157   8.153   6.330   1.211 -1.8358  0.1023  0.2305
 4089SOL     OW15158   8.407   2.906   2.790  0.7540  0.2543  0.5078
 4089SOL    HW115159   8.407   2.976   2.724 -1.1892 -0.9391 -0.8481
 4089SOL    HW215160   8.459   2.836   2.751 -1.7878 -1.1287 -0.6549
 4090SOL     OW15161   0.265   0.667   2.000 -0.0562  0.0288 -0.4029
 4090SOL    HW115162   0.207   0.591   2.006  0.9750 -1.0493 -2.7359
 4090SOL    HW215163   0.239   0.710   1.919  3.0321 -1.1591 -2.1914
 4091SOL     OW15164   2.879   4.952   2.986 -1.0976  0.4004 -0.3945
 4091SOL    HW115165   2.972   4.954   3.009 -1.3116  1.3801  0.4662
 4091SOL    HW215166   2.841   4.891   3.049 -0.5836 -2.5606 -2.7502
 4092SOL     OW15167   6.261   5.150   7.945  0.0200  0.5115  0.1610
 4092SOL    HW115168   6.198   5.085   7.976  0.6604 -0.0942  0.2305
 4092SOL    HW215169   6.208   5.219   7.906 -0.7348  0.6046  1.3206
 4093SOL     OW15170   4.618   3.491   6.011 -0.1342 -0.4890  0.1441
 4093SOL    HW115171   4.610   3.576   5.968  0.1187 -1.1876 -1.3250
 4093SOL    HW215172   4.697   3.499   6.065  0.3577 -0.0484 -0.6170
 4094SOL     OW15173   4.114   8.783   0.374  0.2715 -0.7400  0.4352
 4094SOL    HW115174   4.175   8.721   0.415  0.3773 -1.1150 -0.2686
 4094SOL    HW215175   4.153   8.869   0.388  1.9964 -1.0905 -1.6384
 4095SOL     OW15176   0.135   3.077   8.189  0.1472 -0.2602 -0.0743
 4095SOL    HW115177   0.215   3.121   8.219  0.7145 -0.8991 -0.6326
 4095SOL    HW215178   0.064   3.130   8.225  0.8196  0.3171  0.4286
 4096SOL     OW15179   1.985   7.577   5.156  0.0604 -0.1191  0.0029
 4096SOL    HW115180   2.060   7.570   5.098 -0.5815 -1.2047 -0.7229
 4096SOL    HW215181   1.995   7.503   5.217 -0.2702 -0.1002  0.0806
 4097SOL     OW15182   4.280   9.137   2.495 -0.7585  0.3000  0.2180
 4097SOL    HW115183   4.287   9.162   2.588 -1.3760 -1.4679  0.7909
 4097SOL    HW215184   4.292   9.042   2.495  0.6712  0.4209 -1.7250
 4098SOL     OW15185   0.833   3.963   3.926 -0.3779  0.4433 -0.4943
 4098SOL    HW115186   0.888   3.885   3.931 -0.2221  0.6002  0.3387
 4098SOL    HW215187   0.754   3.940   3.974 -0.7147  0.4989 -1.0059
 4099SOL     OW15188   8.844   6.287   3.339  0.1828 -0.2073  0.0331
 4099SOL    HW115189   8.809   6.366   3.380  0.8371 -0.0395  0.2792
 4099SOL    HW215190   8.791   6.276   3.260 -0.7097 -0.2128  0.6211
 4100SOL     OW15191   9.105   4.604   1.820  0.6543  0.6369  0.6978
 4100SOL    HW115192   9.057   4.522   1.829 -0.7315  0.9184 -2.7273
 4100SOL    HW215193   9.090   4.649   1.903 -2.0212 -0.8312  1.1303
 4101SOL     OW15194   4.014   3.875   3.246  0.0624 -0.5120 -0.6331
 4101SOL    HW115195   4.022   3.845   3.337 -0.6799  0.1997 -0.3189
 4101SOL    HW215196   3.992   3.968   3.254  0.5402 -0.3186 -1.5569
 4102SOL     OW15197   9.176   8.821   4.411  0.5085  0.4010 -0.2438
 4102SOL    HW115198   9.239   8.894   4.414 -0.8097  1.5771 -0.3182
 4102SOL    HW215199   9.140   8.817   4.499  0.2350  0.1479 -0.3666
 4103SOL     OW15200   1.500   3.288   7.519  0.9180 -0.0315 -0.1307
 4103SOL    HW115201   1.570   3.348   7.492  0.4753  1.2509  1.4235
 4103SOL    HW215202   1.510   3.282   7.614 -0.9559  0.0189  0.0960
 4104SOL     OW15203   5.587   1.270   1.303  0.2352  0.0383 -0.0315
 4104SOL    HW115204   5.670   1.223   1.313  0.3586 -0.0870 -1.4473
 4104SOL    HW215205   5.613   1.361   1.292  0.1063  0.1665  0.6594
 4105SOL     OW15206   1.358   8.932   7.515  0.1438 -0.0546 -0.4244
 4105SOL    HW115207   1.360   8.844   7.553  1.3389  0.1795  0.1025
 4105SOL    HW215208   1.449   8.961   7.517 -0.2225  1.1669 -0.6773
 4106SOL     OW15209   5.413   3.061   2.473  0.2986 -0.0766  0.1798
 4106SOL    HW115210   5.411   3.149   2.511  2.5596  0.1314 -0.0254
 4106SOL    HW215211   5.381   3.072   2.384  1.5362  0.7820 -0.1916
 4107SOL     OW15212   2.835   8.343   8.371  0.3641 -0.1060 -0.2065
 4107SOL    HW115213   2.769   8.412   8.383  1.2959  0.8005 -0.1495
 4107SOL    HW215214   2.828   8.289   8.449 -0.3699 -0.0711 -0.2413
 4108SOL     OW15215   5.684   2.966   3.999  0.4547  0.2409 -0.4388
 4108SOL    HW115216   5.773   2.988   3.974  0.6064 -1.3377 -1.5038
 4108SOL    HW215217   5.654   3.039   4.052  1.0884  2.5881 -3.1157
 4109SOL     OW15218   6.088   8.320   6.849  0.0586  0.8299 -0.2795
 4109SOL    HW115219   6.003   8.352   6.881  0.4713 -0.2980  2.1844
 4109SOL    HW215220   6.069   8.233   6.815  0.3499  0.0734  1.3839
 4110SOL     OW15221   1.101   3.847   2.456 -0.1371  0.0090 -0.2044
 4110SOL    HW115222   1.095   3.932   2.500  3.2465 -0.1737  0.8393
 4110SOL    HW215223   1.093   3.783   2.527  1.2300 -0.3932 -0.3867
 4111SOL     OW15224   1.965   3.723   2.801  0.6128 -0.1323 -0.4053
 4111SOL    HW115225   1.928   3.757   2.719 -0.5677 -0.9287 -0.2264
 4111SOL    HW215226   2.007   3.799   2.842  0.8208  0.3785 -1.5251
 4112SOL     OW15227   6.434   2.269   5.040  0.4925 -0.2352  0.3855
 4112SOL    HW115228   6.508   2.320   5.008 -0.1826 -1.1671 -3.1803
 4112SOL    HW215229   6.383   2.330   5.093  2.0357  1.4261  0.0457
 4113SOL     OW15230   1.132   3.994   5.129  0.0909  0.5026  0.1029
 4113SOL    HW115231   1.166   4.064   5.074 -0.0027 -0.1608 -0.8065
 4113SOL    HW215232   1.192   3.990   5.204  0.7102  0.8305 -0.3769
 4114SOL     OW15233   3.238   1.830   0.562 -0.5566  0.3636 -0.1200
 4114SOL    HW115234   3.162   1.842   0.620  0.0718 -0.0550  0.8240
 4114SOL    HW215235   3.246   1.914   0.516 -0.8242  0.8767  0.7238
 4115SOL     OW15236   0.891   2.506   6.290  0.3808  0.5471  0.4260
 4115SOL    HW115237   0.926   2.431   6.338 -0.6316 -0.7370 -0.7477
 4115SOL    HW215238   0.933   2.502   6.205 -1.1316  0.1055 -0.3366
 4116SOL     OW15239   7.558   5.638   8.042  0.6807 -0.1148  0.1207
 4116SOL    HW115240   7.597   5.576   7.981  0.6256  0.4478 -0.4922
 4116SOL    HW215241   7.626   5.652   8.109  0.7182 -0.7710  0.2229
 4117SOL     OW15242   2.128   2.726   8.921 -0.8392 -0.1882 -0.5756
 4117SOL    HW115243   2.172   2.692   8.843 -2.9202  0.3232 -2.0565
 4117SOL    HW215244   2.149   2.820   8.921 -1.4169 -0.0590 -0.9241
 4118SOL     OW15245   3.061   4.811   7.072  0.3641  0.1293  0.0695
 4118SOL    HW115246   2.985   4.870   7.076  0.3869  0.1380  0.4197
 4118SOL    HW215247   3.125   4.857   7.018  0.6045  0.6871  0.8188
 4119SOL     OW15248   2.999   4.006   9.209 -0.6168 -0.0063  0.1054
 4119SOL    HW115249   2.961   4.040   9.290  0.9373  0.3022  0.7403
 4119SOL    HW215250   3.055   4.076   9.178  0.8754 -1.1137  0.2117
 4120SOL     OW15251   7.453   7.348   0.506 -0.4801  0.0646 -0.4382
 4120SOL    HW115252   7.453   7.290   0.429 -1.6266  0.6765 -0.9262
 4120SOL    HW215253   7.545   7.360   0.527 -0.1976 -1.8412 -0.4001
 4121SOL     OW15254   6.374   9.249   3.983 -0.1288  0.2006 -0.0564
 4121SOL    HW115255   6.323   9.329   3.996  0.2993  0.3638  0.6412
 4121SOL    HW215256   6.370   9.204   4.067 -0.1087 -0.3701 -0.3546
 4122SOL     OW15257   4.121   5.481   8.612  1.2203 -0.4533 -0.0386
 4122SOL    HW115258   4.118   5.477   8.707  1.1689 -1.4275 -0.0626
 4122SOL    HW215259   4.035   5.451   8.584  0.9887  0.5298 -0.3837
 4123SOL     OW15260   7.701   5.260   2.441  0.2343  0.4259 -0.7377
 4123SOL    HW115261   7.710   5.294   2.530  1.4472  1.0571 -1.0781
 4123SOL    HW215262   7.785   5.279   2.400 -0.1772 -0.2027 -1.9066
 4124SOL     OW15263   7.928   5.444   0.268  0.8489 -0.2016 -0.0772
 4124SOL    HW115264   8.018   5.464   0.294  0.8887 -0.6791  0.1571
 4124SOL    HW215265   7.935   5.408   0.180  1.1138 -2.1917  0.7093
 4125SOL     OW15266   3.330   8.545   4.086 -0.6085 -0.1012  0.3872
 4125SOL    HW115267   3.304   8.575   4.174  0.7125 -0.5568  0.9611
 4125SOL    HW215268   3.403   8.484   4.103  0.5312  0.7978 -1.1072
 4126SOL     OW15269   7.676   1.755   0.078 -0.0314  0.0574  0.1474
 4126SOL    HW115270   7.658   1.697   0.151  1.4072  0.1985  0.6548
 4126SOL    HW215271   7.590   1.784   0.048 -0.7896 -2.1964 -0.0438
 4127SOL     OW15272   5.972   5.992   2.468 -0.0556 -0.0486  0.4195
 4127SOL    HW115273   5.922   6.030   2.396  0.2052  1.2007  0.8756
 4127SOL    HW215274   6.063   6.007   2.445  0.0230  0.7089  1.1766
 4128SOL     OW15275   3.931   0.891   5.958  0.1083  0.3550 -0.0302
 4128SOL    HW115276   3.872   0.920   6.026  0.0545 -0.7957  0.4458
 4128SOL    HW215277   3.889   0.814   5.920  0.9523 -0.0549 -0.1743
 4129SOL     OW15278   1.258   6.260   3.870 -0.6481  0.5189 -0.6307
 4129SOL    HW115279   1.224   6.341   3.830 -2.1219  0.0151 -0.4674
 4129SOL    HW215280   1.265   6.280   3.963 -1.0512  0.4452 -0.5847
 4130SOL     OW15281   2.371   4.028   5.756  0.2666  0.0694 -0.2555
 4130SOL    HW115282   2.454   4.036   5.803  0.3383  0.3814 -0.4298
 4130SOL    HW215283   2.361   4.112   5.711 -0.7085  0.4777  0.6811
 4131SOL     OW15284   8.603   8.400   8.335  0.1797  0.2441  0.0516
 4131SOL    HW115285   8.567   8.393   8.423 -0.4017  0.2153 -0.1848
 4131SOL    HW215286   8.693   8.432   8.348  0.0193  0.4660  0.6343
 4132SOL     OW15287   3.637   6.588   7.815 -0.0148  0.0824 -0.4217
 4132SOL    HW115288   3.605   6.678   7.806  1.0981  0.3861 -1.7439
 4132SOL    HW215289   3.573   6.536   7.767 -2.3257 -0.3178  2.7923
 4133SOL     OW15290   4.643   7.260   5.699  0.1116 -0.2450 -0.6987
 4133SOL    HW115291   4.601   7.330   5.648 -0.0930 -1.1093 -1.7568
 4133SOL    HW215292   4.677   7.304   5.776  1.6422  1.3900 -2.2120
 4134SOL     OW15293   3.129   5.344   0.410 -0.3316 -0.0053 -0.2081
 4134SOL    HW115294   3.175   5.261   0.398 -0.4866 -0.2791  0.9113
 4134SOL    HW215295   3.195   5.403   0.445 -0.0616  0.5466 -1.6257
 4135SOL     OW15296   3.468   1.616   8.338  0.0198  0.1816  0.0780
 4135SOL    HW115297   3.536   1.573   8.389 -1.2237 -2.1405 -0.1177
 4135SOL    HW215298   3.395   1.628   8.400 -0.7321 -0.7595 -0.5945
 4136SOL     OW15299   4.781   1.813   0.347  0.3833 -0.6019 -0.0654
 4136SOL    HW115300   4.873   1.826   0.326  0.0481  0.1160 -1.2323
 4136SOL    HW215301   4.766   1.867   0.425  0.8411 -0.3375 -0.1590
 4137SOL     OW15302   1.470   3.762   4.861  0.1867 -0.4765 -0.7146
 4137SOL    HW115303   1.525   3.685   4.844  0.2058 -1.5203  3.0636
 4137SOL    HW215304   1.532   3.835   4.867  1.0812 -1.3337  1.7312
 4138SOL     OW15305   8.544   5.026   0.999 -0.0704  0.1825  0.2037
 4138SOL    HW115306   8.531   4.954   0.936  0.7309  0.1026  0.1142
 4138SOL    HW215307   8.457   5.044   1.033 -0.3712 -0.4458 -0.2058
 4139SOL     OW15308   7.166   5.392   1.364  0.0424 -0.7014  0.1102
 4139SOL    HW115309   7.072   5.374   1.371 -0.0363 -0.1207  0.8116
 4139SOL    HW215310   7.204   5.346   1.439  0.4588 -1.7370 -0.7237
 4140SOL     OW15311   1.938   0.221   6.989 -0.8897  0.6074  0.1923
 4140SOL    HW115312   1.871   0.171   7.035 -1.9706  1.2368 -0.6611
 4140SOL    HW215313   1.890   0.271   6.923  0.6370 -0.9149 -2.2584
 4141SOL     OW15314   3.436   3.859   1.380  0.4095  0.1625  0.0362
 4141SOL    HW115315   3.381   3.936   1.365 -0.1443 -0.4139 -1.0148
 4141SOL    HW215316   3.447   3.855   1.475 -0.0085  1.2187  0.1456
 4142SOL     OW15317   5.688   6.276   6.354  0.8614 -0.4687  0.2394
 4142SOL    HW115318   5.744   6.329   6.412  1.8802 -1.7595  0.4753
 4142SOL    HW215319   5.616   6.247   6.411 -0.2627  1.4318 -0.1348
 4143SOL     OW15320   5.992   2.048   2.122 -0.0324 -0.0224 -0.1049
 4143SOL    HW115321   5.952   2.023   2.039 -0.3336 -2.5892  0.7315
 4143SOL    HW215322   5.938   2.121   2.154 -1.4001 -0.6058 -1.0280
 4144SOL     OW15323   4.010   6.253   7.570 -0.3259  0.3403  0.0748
 4144SOL    HW115324   4.103   6.244   7.553 -0.7150 -1.5892 -1.4447
 4144SOL    HW215325   3.979   6.315   7.505 -0.3403 -0.2666 -0.5117
 4145SOL     OW15326   6.184   1.127   4.651  0.1647  0.9024  0.0938
 4145SOL    HW115327   6.090   1.112   4.664  0.1677 -0.6939 -1.3049
 4145SOL    HW215328   6.188   1.198   4.586 -0.0494  1.2940  0.5028
 4146SOL     OW15329   5.450   0.310   2.300 -0.1662 -0.5540  0.1399
 4146SOL    HW115330   5.482   0.326   2.211  1.1211  0.8971  0.8401
 4146SOL    HW215331   5.356   0.296   2.288 -0.3395  1.4031 -1.2773
 4147SOL     OW15332   1.265   2.023   8.875 -0.1359  1.1166  0.2665
 4147SOL    HW115333   1.264   2.011   8.970 -0.5373  0.9984  0.2496
 4147SOL    HW215334   1.173   2.012   8.849  0.1267  0.0827 -0.2709
 4148SOL     OW15335   0.315   1.883   4.376 -0.1029  0.2969  0.5266
 4148SOL    HW115336   0.338   1.846   4.461 -0.8011  0.1954  0.6711
 4148SOL    HW215337   0.274   1.811   4.328  0.9300  0.1431 -0.1706
 4149SOL     OW15338   2.299   5.302   2.847 -0.8038  0.0293 -0.1413
 4149SOL    HW115339   2.315   5.365   2.777 -0.7542  0.3091  0.1190
 4149SOL    HW215340   2.204   5.298   2.855 -0.7989  1.7214  1.3027
 4150SOL     OW15341   6.341   5.695   7.413 -0.0224  0.5846 -0.1260
 4150SOL    HW115342   6.342   5.606   7.379  1.0366 -0.0880  1.5511
 4150SOL    HW215343   6.259   5.732   7.381 -1.5745 -1.7159  0.9322
 4151SOL     OW15344   4.876   4.687   0.867 -0.2799 -0.3590  0.8087
 4151SOL    HW115345   4.841   4.630   0.935 -0.3260  0.6250  1.6352
 4151SOL    HW215346   4.857   4.775   0.898 -1.5694  0.1210 -1.1503
 4152SOL     OW15347   3.385   0.487   6.105  0.5173  0.3304  0.3043
 4152SOL    HW115348   3.405   0.557   6.168  1.1139 -0.1065  0.6148
 4152SOL    HW215349   3.471   0.452   6.080  0.3172  0.7716 -1.0832
 4153SOL     OW15350   4.203   7.509   7.306  0.0170 -0.3518  0.4501
 4153SOL    HW115351   4.128   7.555   7.344 -1.2088 -2.1897  0.3643
 4153SOL    HW215352   4.247   7.470   7.381  1.5210  1.4911  0.6124
 4154SOL     OW15353   2.545   0.682   8.314  0.4926  0.5585 -0.6004
 4154SOL    HW115354   2.521   0.606   8.260  0.8496  1.0750 -1.5065
 4154SOL    HW215355   2.591   0.644   8.389 -0.7177 -0.2380 -0.2307
 4155SOL     OW15356   2.146   1.751   2.771  0.7651  0.2707  0.5469
 4155SOL    HW115357   2.159   1.675   2.828  1.6547  1.3500  1.8597
 4155SOL    HW215358   2.158   1.826   2.829  2.5313  1.4494 -1.2285
 4156SOL     OW15359   0.829   6.591   4.017 -0.2045 -0.1637 -0.2423
 4156SOL    HW115360   0.907   6.643   4.037  0.3468 -1.0103 -0.1245
 4156SOL    HW215361   0.771   6.651   3.971 -0.3392  1.0467  1.4392
 4157SOL     OW15362   3.708   8.518   8.267 -0.2155 -0.3135 -0.0295
 4157SOL    HW115363   3.672   8.563   8.190 -1.6224  1.0207  1.3337
 4157SOL    HW215364   3.690   8.425   8.250 -1.9390  0.0827 -0.6420
 4158SOL     OW15365   0.390   4.754   4.471 -0.0928 -0.6439  0.3196
 4158SOL    HW115366   0.312   4.710   4.440 -1.2026  1.0107  0.6203
 4158SOL    HW215367   0.358   4.826   4.526  1.4492  1.6608 -1.5414
 4159SOL     OW15368   3.700   6.499   2.361  0.0697 -0.0384  0.4925
 4159SOL    HW115369   3.609   6.471   2.353 -0.0798  0.3421  0.8512
 4159SOL    HW215370   3.744   6.426   2.405  0.2075 -0.7538 -0.7818
 4160SOL     OW15371   3.650   7.135   2.498 -0.6887  0.2329  0.2318
 4160SOL    HW115372   3.741   7.109   2.485 -0.0074  3.1589 -2.0607
 4160SOL    HW215373   3.607   7.113   2.416 -0.7484  3.1997 -0.6511
 4161SOL     OW15374   2.323   2.343   1.095  1.2002 -0.0777  0.1506
 4161SOL    HW115375   2.260   2.349   1.167  2.4638  0.4806  1.2566
 4161SOL    HW215376   2.331   2.432   1.062  1.4052 -0.1488  0.0062
 4162SOL     OW15377   5.564   6.084   6.557  0.8507  0.0006 -0.7625
 4162SOL    HW115378   5.646   6.038   6.539  1.2592  1.0087 -1.5868
 4162SOL    HW215379   5.576   6.121   6.644 -0.3025 -3.1165  0.8960
 4163SOL     OW15380   1.675   3.988   6.655 -0.2681 -0.0965  0.5648
 4163SOL    HW115381   1.696   4.017   6.566 -0.5696  0.4912  0.6830
 4163SOL    HW215382   1.598   3.932   6.644 -0.1718 -0.2057  0.4327
 4164SOL     OW15383   4.776   4.249   0.880 -0.3528 -0.0245 -0.5545
 4164SOL    HW115384   4.748   4.158   0.874  0.0152 -0.1815 -0.0440
 4164SOL    HW215385   4.707   4.293   0.929 -0.2407 -0.1684 -0.2627
 4165SOL     OW15386   3.487   1.029   7.829  0.4125  0.2256 -0.5322
 4165SOL    HW115387   3.492   1.105   7.770  1.5163 -0.5277 -1.4435
 4165SOL    HW215388   3.511   0.954   7.775  1.0383 -0.5541  0.7697
 4166SOL     OW15389   1.459   4.810   3.634  0.3496 -0.4042 -0.5381
 4166SOL    HW115390   1.433   4.751   3.705 -0.0166 -0.4201 -0.6834
 4166SOL    HW215391   1.533   4.860   3.670  0.2437 -0.4947 -0.1899
 4167SOL     OW15392   7.409   3.834   9.248 -0.0001 -0.4937  0.1831
 4167SOL    HW115393   7.394   3.912   9.301 -1.0692 -0.2132 -0.4981
 4167SOL    HW215394   7.505   3.826   9.244  0.1271  0.7013  0.3708
 4168SOL     OW15395   0.887   3.424   4.125  0.2563  0.1012  0.3115
 4168SOL    HW115396   0.850   3.401   4.210  0.9562  2.0897  1.2012
 4168SOL    HW215397   0.972   3.380   4.123  0.3747  0.3035  0.7793
 4169SOL     OW15398   6.087   1.119   7.097 -0.0460 -0.1738  0.0941
 4169SOL    HW115399   6.108   1.094   7.007  0.2947 -0.1639  0.1680
 4169SOL    HW215400   6.170   1.109   7.144  0.4334  2.2176 -0.1187
 4170SOL     OW15401   4.299   5.366   4.598  0.6095  0.0572 -0.0757
 4170SOL    HW115402   4.211   5.353   4.633  0.3925  0.0512 -0.6134
 4170SOL    HW215403   4.319   5.458   4.619 -0.1136  0.4957 -1.2214
 4171SOL     OW15404   7.225   0.372   6.643 -0.5564  0.3260  0.0942
 4171SOL    HW115405   7.225   0.412   6.730 -0.3279  1.7801 -0.5400
 4171SOL    HW215406   7.208   0.279   6.659 -0.4904  0.5597  1.6830
 4172SOL     OW15407   2.272   6.561   5.491 -0.3825 -0.1086 -0.2575
 4172SOL    HW115408   2.326   6.640   5.500 -0.4397  0.1750 -2.0245
 4172SOL    HW215409   2.241   6.563   5.400 -3.3345 -0.3050  0.6338
 4173SOL     OW15410   7.013   1.243   0.478  0.8551  0.2626  0.4439
 4173SOL    HW115411   7.082   1.227   0.414  1.3658  1.3624  0.6864
 4173SOL    HW215412   6.934   1.257   0.426  1.2171  0.9142  0.0482
 4174SOL     OW15413   3.188   6.249   4.911  0.5137 -0.9273 -0.1668
 4174SOL    HW115414   3.278   6.241   4.877  1.1025 -0.3940  1.1838
 4174SOL    HW215415   3.188   6.197   4.991 -0.4116 -0.9553 -0.1755
 4175SOL     OW15416   4.946   3.199   7.169 -0.7820 -0.6769  0.3990
 4175SOL    HW115417   4.926   3.254   7.245  0.7447  0.2003  0.2126
 4175SOL    HW215418   4.939   3.259   7.094 -1.5321 -1.3510 -0.0786
 4176SOL     OW15419   8.002   3.042   7.372 -0.1264 -0.5539 -0.1456
 4176SOL    HW115420   7.943   3.037   7.447  1.0335 -3.0041  0.7207
 4176SOL    HW215421   8.063   3.112   7.394 -1.0589  0.1572  0.2134
 4177SOL     OW15422   8.212   8.375   0.005  1.0856 -0.4135 -0.0929
 4177SOL    HW115423   8.241   8.300   0.056 -0.2838 -0.5405  0.5431
 4177SOL    HW215424   8.177   8.436   0.069 -0.3293 -0.4204 -0.8183
 4178SOL     OW15425   5.419   7.768   4.550  0.4545  0.3181  0.2695
 4178SOL    HW115426   5.464   7.805   4.626  1.8572  0.9727 -0.8511
 4178SOL    HW215427   5.339   7.821   4.542  0.5351  0.5621  0.9803
 4179SOL     OW15428   3.491   7.040   5.702  0.0721  0.0367  0.2821
 4179SOL    HW115429   3.563   6.978   5.711 -1.2520 -1.5217  0.6435
 4179SOL    HW215430   3.414   6.992   5.732 -1.1093  1.6930  0.0596
 4180SOL     OW15431   9.019   4.219   2.811  0.3880 -0.0330 -0.3714
 4180SOL    HW115432   8.941   4.271   2.794 -0.0027 -0.1605  0.9040
 4180SOL    HW215433   9.083   4.282   2.844 -0.1339 -0.3433  1.3161
 4181SOL     OW15434   0.282   0.375   6.244  0.0962 -0.4938 -0.1721
 4181SOL    HW115435   0.342   0.450   6.246  1.0691 -1.2501 -0.0446
 4181SOL    HW215436   0.284   0.341   6.334 -0.9469 -0.2060 -0.0371
 4182SOL     OW15437   3.624   2.202   8.701 -0.1121  0.3310 -0.2197
 4182SOL    HW115438   3.574   2.131   8.662 -0.4940  0.8866 -0.7632
 4182SOL    HW215439   3.694   2.220   8.638  0.9970 -0.6494  0.6768
 4183SOL     OW15440   3.307   4.248   1.533 -0.1203  0.0575 -0.3352
 4183SOL    HW115441   3.277   4.309   1.600  1.1755  0.2396  0.0956
 4183SOL    HW215442   3.228   4.229   1.482 -1.0905  0.0535  1.1055
 4184SOL     OW15443   6.426   2.959   9.070 -0.1281 -0.1314  0.4252
 4184SOL    HW115444   6.494   3.006   9.118  2.8159 -2.3727 -1.2521
 4184SOL    HW215445   6.349   2.965   9.126  1.8914  1.0536  3.2977
 4185SOL     OW15446   4.772   1.917   2.027  0.0120 -0.6048  0.2224
 4185SOL    HW115447   4.735   1.849   2.083  0.3158 -0.1718  0.9663
 4185SOL    HW215448   4.866   1.899   2.028  0.0466 -0.4311  0.0644
 4186SOL     OW15449   6.670   6.739   5.764  0.4914  0.0553  0.4066
 4186SOL    HW115450   6.673   6.780   5.677  0.2048 -0.3356  0.2078
 4186SOL    HW215451   6.579   6.748   5.791  0.3616 -0.7031  0.2333
 4187SOL     OW15452   9.015   7.737   6.856  0.4261 -0.8654  0.7511
 4187SOL    HW115453   9.100   7.777   6.874  0.0827  0.4962 -0.4962
 4187SOL    HW215454   9.032   7.643   6.861  2.2322 -0.6440 -0.3495
 4188SOL     OW15455   6.584   1.129   0.400  0.5162  0.4215 -0.1653
 4188SOL    HW115456   6.646   1.201   0.386 -0.4115  1.6077  1.4846
 4188SOL    HW215457   6.537   1.122   0.317  2.1281  0.1704 -1.1075
 4189SOL     OW15458   1.683   3.101   2.618 -0.1104  1.0201 -0.3535
 4189SOL    HW115459   1.647   3.169   2.675 -0.2261  0.2458  0.5191
 4189SOL    HW215460   1.687   3.142   2.532 -1.0915  1.8183 -0.0434
 4190SOL     OW15461   4.587   7.534   1.366 -0.0520 -0.0621  0.1254
 4190SOL    HW115462   4.674   7.529   1.326 -0.2602  0.6181 -0.4310
 4190SOL    HW215463   4.602   7.517   1.459  1.4161  4.5359  0.9915
 4191SOL     OW15464   0.653   7.865   6.395 -0.1135  0.0168 -0.1418
 4191SOL    HW115465   0.679   7.913   6.317  0.9136  0.3849  0.4094
 4191SOL    HW215466   0.683   7.919   6.468 -1.2996 -0.1882  0.5144
 4192SOL     OW15467   9.247   7.715   6.543  0.2962 -0.2400  0.0868
 4192SOL    HW115468   9.154   7.706   6.566  0.5642 -1.3161  0.7961
 4192SOL    HW215469   9.247   7.712   6.447 -0.3635 -0.7372  0.0893
 4193SOL     OW15470   5.927   9.190   3.176 -0.2767 -0.2169 -0.1148
 4193SOL    HW115471   5.979   9.111   3.191 -0.8255 -0.6351 -0.4007
 4193SOL    HW215472   5.991   9.261   3.177 -0.1163 -0.1666  3.9030
 4194SOL     OW15473   3.922   7.846   3.557 -0.5876 -0.4547 -0.0927
 4194SOL    HW115474   3.962   7.774   3.606 -0.5328  0.2013  0.8412
 4194SOL    HW215475   3.837   7.859   3.599  0.5490  1.9206  1.6848
 4195SOL     OW15476   2.811   2.169   3.563 -0.0031 -0.2370  0.5437
 4195SOL    HW115477   2.784   2.078   3.549 -1.5131  0.3002 -0.2888
 4195SOL    HW215478   2.799   2.184   3.656  1.8501 -1.3376  1.0224
 4196SOL     OW15479   4.438   2.671   4.829  0.2474 -0.1819  0.1860
 4196SOL    HW115480   4.436   2.646   4.737 -1.4966 -2.5257  0.7781
 4196SOL    HW215481   4.374   2.742   4.836 -0.9237 -1.1912 -0.1267
 4197SOL     OW15482   1.455   3.536   6.739 -0.3783  0.4221 -0.2426
 4197SOL    HW115483   1.388   3.547   6.672 -1.1258 -1.5465  0.1228
 4197SOL    HW215484   1.420   3.581   6.816 -1.8670 -1.4772  0.2772
 4198SOL     OW15485   8.714   2.209   5.760 -0.2234  0.0093  0.1363
 4198SOL    HW115486   8.706   2.257   5.842 -0.6713  0.2889 -0.0682
 4198SOL    HW215487   8.634   2.158   5.754  0.4286 -1.1004  0.5580
 4199SOL     OW15488   3.235   6.480   3.787  0.1862 -0.0468  0.0008
 4199SOL    HW115489   3.190   6.406   3.829  0.0316 -0.6923 -1.2500
 4199SOL    HW215490   3.325   6.448   3.774 -0.0779 -0.3420 -1.2537
 4200SOL     OW15491   7.203   5.188   4.988  0.0243 -0.6660 -0.1004
 4200SOL    HW115492   7.177   5.198   5.079 -1.0111 -0.1439 -0.4373
 4200SOL    HW215493   7.167   5.104   4.961  0.0722 -0.6840 -0.1077
 4201SOL     OW15494   3.921   1.541   5.591 -0.4804  0.2413 -0.1190
 4201SOL    HW115495   3.903   1.487   5.514 -0.4750 -0.9129  0.6692
 4201SOL    HW215496   3.927   1.479   5.663  1.8474  1.0402  0.4594
 4202SOL     OW15497   8.938   4.538   0.466  0.2274  0.0486  0.0335
 4202SOL    HW115498   8.990   4.585   0.531 -0.4467 -1.4107  1.6959
 4202SOL    HW215499   9.000   4.517   0.396  1.0121  1.4807  0.2668
 4203SOL     OW15500   8.485   7.807   4.057 -0.0463 -0.2724  0.2081
 4203SOL    HW115501   8.488   7.900   4.079  1.6314 -0.8257  2.7601
 4203SOL    HW215502   8.545   7.798   3.982 -1.3435  0.8510 -1.0259
 4204SOL     OW15503   3.953   3.433   7.102 -0.9656  0.2767 -0.0691
 4204SOL    HW115504   3.913   3.352   7.070 -0.5967 -0.1687  0.5699
 4204SOL    HW215505   3.965   3.487   7.024 -1.9718  0.0524 -0.3949
 4205SOL     OW15506   5.442   1.175   6.452  0.1589  0.3195 -0.1012
 4205SOL    HW115507   5.462   1.082   6.459 -1.5113  0.0593  2.8899
 4205SOL    HW215508   5.382   1.182   6.378  1.7558 -0.6170 -1.5655
 4206SOL     OW15509   6.232   3.826   2.073  0.2893  0.2509  0.2008
 4206SOL    HW115510   6.238   3.769   2.150 -1.2696  1.2711  1.1456
 4206SOL    HW215511   6.317   3.818   2.030  2.1051  1.3413  3.2836
 4207SOL     OW15512   1.889   3.583   0.454  0.0423  0.0217 -0.1133
 4207SOL    HW115513   1.843   3.524   0.395  1.1137  1.3264 -2.3974
 4207SOL    HW215514   1.890   3.667   0.408  2.0875  0.7756  1.1585
 4208SOL     OW15515   3.303   0.430   1.227 -0.1665 -0.0004  0.2515
 4208SOL    HW115516   3.391   0.464   1.238  0.3858 -1.0494 -0.7220
 4208SOL    HW215517   3.251   0.507   1.201  0.3069  0.7370  1.4010
 4209SOL     OW15518   0.804   8.511   4.787 -0.1761 -0.2545 -0.6694
 4209SOL    HW115519   0.900   8.519   4.789  0.0030 -1.7295 -1.8045
 4209SOL    HW215520   0.783   8.457   4.863 -0.0942 -0.0638 -0.5098
 4210SOL     OW15521   9.259   6.199   5.946  0.1031  0.6753 -0.1575
 4210SOL    HW115522   9.183   6.195   6.003 -0.5269  0.8866 -0.9552
 4210SOL    HW215523   9.274   6.109   5.918  0.6532  0.5145  0.6391
 4211SOL     OW15524   0.555   1.079   7.235  0.7900 -0.2415 -0.4986
 4211SOL    HW115525   0.544   1.052   7.143 -0.0553  0.7699 -0.7168
 4211SOL    HW215526   0.637   1.128   7.235  0.4448  0.3526 -0.8718
 4212SOL     OW15527   3.298   5.255   0.891  0.9239  0.4915  0.3205
 4212SOL    HW115528   3.386   5.264   0.854  0.7628  0.4796 -0.0741
 4212SOL    HW215529   3.280   5.161   0.888  1.0743  0.4463  0.8199
 4213SOL     OW15530   7.614   6.369   2.492  0.5796  0.0016 -0.3180
 4213SOL    HW115531   7.537   6.381   2.548  0.0763 -1.5212 -0.6408
 4213SOL    HW215532   7.648   6.283   2.516  1.2088 -0.0472 -1.3440
 4214SOL     OW15533   6.158   0.753   5.722  0.0347 -0.2462  0.3299
 4214SOL    HW115534   6.127   0.664   5.736 -0.1697 -0.5662 -1.8666
 4214SOL    HW215535   6.187   0.782   5.808 -1.0167 -1.9945  1.3270
 4215SOL     OW15536   8.403   4.755   5.682  0.0023 -0.1352  0.5213
 4215SOL    HW115537   8.456   4.726   5.757 -0.6500  0.9690  1.4477
 4215SOL    HW215538   8.332   4.805   5.721 -0.3773  0.4384 -0.8443
 4216SOL     OW15539   5.903   6.640   6.973 -0.9578 -0.4565  0.2629
 4216SOL    HW115540   5.989   6.611   7.002  0.6670  0.9780 -2.6906
 4216SOL    HW215541   5.876   6.575   6.908 -2.2904 -1.0236  1.3184
 4217SOL     OW15542   7.322   5.655   4.095 -0.7926 -0.1336  0.2030
 4217SOL    HW115543   7.321   5.711   4.173  1.1045  0.4388 -0.1153
 4217SOL    HW215544   7.365   5.574   4.124  1.5854  0.7573 -0.5736
 4218SOL     OW15545   0.498   0.068   9.047 -0.0527 -0.4640  0.2068
 4218SOL    HW115546   0.476  -0.009   8.995  0.2902  0.1152 -0.8061
 4218SOL    HW215547   0.508   0.139   8.984  2.0009 -0.0899  0.8809
 4219SOL     OW15548   5.117   0.214   5.602  0.2641 -0.4417 -0.3096
 4219SOL    HW115549   5.036   0.207   5.553  1.0114 -1.2039 -1.5006
 4219SOL    HW215550   5.095   0.183   5.690 -0.7446 -0.5770 -0.5998
 4220SOL     OW15551   1.582   4.774   2.242 -0.2622 -0.4612 -0.4392
 4220SOL    HW115552   1.582   4.834   2.166 -1.5203 -0.2589 -0.2969
 4220SOL    HW215553   1.494   4.737   2.243  0.1228 -1.3822  0.2285
 4221SOL     OW15554   3.824   1.647   8.685  0.0298 -0.2619 -0.2307
 4221SOL    HW115555   3.857   1.698   8.759  1.7975  1.0916 -1.8537
 4221SOL    HW215556   3.872   1.564   8.690 -1.0246 -0.8421  0.9789
 4222SOL     OW15557   4.960   3.814   0.413 -0.4846  0.0226  0.2536
 4222SOL    HW115558   5.004   3.897   0.435 -1.6893  1.4722 -2.2707
 4222SOL    HW215559   5.028   3.761   0.371 -0.1941  0.6701 -0.1160
 4223SOL     OW15560   8.221   7.162   4.839 -0.1956 -0.0537  0.3102
 4223SOL    HW115561   8.233   7.100   4.767 -1.1067 -0.6759  0.6664
 4223SOL    HW215562   8.267   7.241   4.811  0.7660 -0.8034 -0.2675
 4224SOL     OW15563   7.295   0.649   6.188  0.3092 -0.1614 -0.4816
 4224SOL    HW115564   7.326   0.638   6.098 -2.2057  1.3407 -1.6630
 4224SOL    HW215565   7.261   0.738   6.191  0.9820  0.0953  2.2409
 4225SOL     OW15566   6.776   8.343   4.408 -0.1274  0.1612 -0.1405
 4225SOL    HW115567   6.868   8.324   4.425 -0.6096 -1.0547  1.3383
 4225SOL    HW215568   6.733   8.328   4.492 -2.1947 -2.7833 -1.5719
 4226SOL     OW15569   2.943   3.128   7.424 -0.1370 -0.8218 -0.3904
 4226SOL    HW115570   2.981   3.159   7.507  0.6787  0.4426 -1.1971
 4226SOL    HW215571   2.918   3.038   7.442 -1.2663 -0.1906  1.6484
 4227SOL     OW15572   5.544   2.703   1.515 -0.6890 -0.1483  0.0253
 4227SOL    HW115573   5.621   2.729   1.567 -0.6187  2.1741 -1.1095
 4227SOL    HW215574   5.580   2.646   1.447 -0.4838 -1.5781  1.2774
 4228SOL     OW15575   7.717   5.673   5.292 -0.1127 -0.0184 -0.4078
 4228SOL    HW115576   7.794   5.616   5.290 -0.7603 -1.0236  1.2136
 4228SOL    HW215577   7.656   5.633   5.230  0.2917  0.2126 -0.9573
 4229SOL     OW15578   1.705   3.847   5.135  0.4538 -0.8005 -0.0456
 4229SOL    HW115579   1.649   3.907   5.185 -0.7643 -1.8034 -0.1596
 4229SOL    HW215580   1.762   3.806   5.201  1.1386  0.2765  0.0621
 4230SOL     OW15581   6.570   8.143   7.014  0.5329 -0.2383  0.1577
 4230SOL    HW115582   6.578   8.226   7.061  1.3012 -1.2050  1.8312
 4230SOL    HW215583   6.492   8.102   7.051  1.9816 -1.6765  1.7817
 4231SOL     OW15584   8.063   7.460   2.303 -0.2749 -0.6305 -0.1362
 4231SOL    HW115585   8.109   7.394   2.354  1.5051  0.2611 -0.4887
 4231SOL    HW215586   8.040   7.528   2.366  1.1903  0.0885 -0.3407
 4232SOL     OW15587   6.106   1.328   9.123  0.2324 -0.3118  0.3078
 4232SOL    HW115588   6.023   1.364   9.154  0.9719  0.1432  1.8501
 4232SOL    HW215589   6.108   1.349   9.030 -1.0070  0.3980  0.4179
 4233SOL     OW15590   8.872   4.481   8.755  0.1605  0.9047  0.2269
 4233SOL    HW115591   8.966   4.479   8.775  0.0975  0.3552  0.4716
 4233SOL    HW215592   8.830   4.464   8.839 -0.1365 -0.0200 -0.1061
 4234SOL     OW15593   8.093   1.550   3.109 -0.3053 -0.0575  0.1906
 4234SOL    HW115594   8.147   1.562   3.187  0.5860 -3.3282  0.2210
 4234SOL    HW215595   8.016   1.503   3.140  0.2271 -1.7264 -0.8710
 4235SOL     OW15596   3.393   5.678   8.519 -0.5098 -0.3664 -0.1188
 4235SOL    HW115597   3.312   5.651   8.563 -0.3040 -1.2987 -0.2936
 4235SOL    HW215598   3.453   5.605   8.533  0.3504  0.3760  0.1231
 4236SOL     OW15599   1.701   6.676   9.204 -0.0268 -0.3261 -0.1941
 4236SOL    HW115600   1.666   6.616   9.138  0.9532 -0.7855 -0.3142
 4236SOL    HW215601   1.706   6.761   9.159 -1.3750 -0.1361 -0.0387
 4237SOL     OW15602   5.244   5.802   2.356  0.5571  0.3761 -1.0221
 4237SOL    HW115603   5.203   5.859   2.421 -2.7916 -1.9512 -0.8772
 4237SOL    HW215604   5.296   5.741   2.408 -0.3804 -0.1462 -0.6771
 4238SOL     OW15605   8.065   7.863   2.381 -0.3283 -0.2677 -0.2756
 4238SOL    HW115606   8.091   7.781   2.424  0.4930  0.0641 -0.1257
 4238SOL    HW215607   7.971   7.855   2.370 -0.4517 -0.6905  0.9199
 4239SOL     OW15608   0.232   8.655   2.965 -0.5781  0.5564 -0.4323
 4239SOL    HW115609   0.213   8.647   3.058 -0.3963 -0.1724 -0.4538
 4239SOL    HW215610   0.284   8.735   2.958 -1.2379  1.0270 -0.0141
 4240SOL     OW15611   4.545   1.412   6.142  0.0282  0.5794 -0.1027
 4240SOL    HW115612   4.632   1.447   6.158  0.0106 -0.3798  2.5410
 4240SOL    HW215613   4.486   1.486   6.157  0.1967  0.3229  2.1318
 4241SOL     OW15614   3.422   0.563   8.538  0.7361 -0.1920 -0.0001
 4241SOL    HW115615   3.391   0.488   8.488 -1.6813 -0.2450  1.4655
 4241SOL    HW215616   3.435   0.530   8.627  2.7605  0.4342  0.0032
 4242SOL     OW15617   0.306   0.197   5.850  0.0974  0.1844  0.3310
 4242SOL    HW115618   0.253   0.117   5.842  0.3608 -0.2329  2.3676
 4242SOL    HW215619   0.242   0.268   5.843 -0.0207 -0.0819 -2.6133
 4243SOL     OW15620   0.727   0.575   6.185  0.0998  0.4590 -0.0300
 4243SOL    HW115621   0.684   0.489   6.187 -0.5536  0.7894  0.5833
 4243SOL    HW215622   0.755   0.589   6.275  0.2305  0.8768 -0.1362
 4244SOL     OW15623   8.059   3.342   5.687 -0.3544  0.2067 -0.1303
 4244SOL    HW115624   7.984   3.292   5.721  0.1690 -0.8851 -0.5312
 4244SOL    HW215625   8.030   3.373   5.601  0.1793 -1.6054 -1.0220
 4245SOL     OW15626   4.348   0.708   2.927  0.2187  0.4436 -0.7419
 4245SOL    HW115627   4.337   0.617   2.899 -1.0547 -0.2547  1.6569
 4245SOL    HW215628   4.419   0.742   2.873  1.3393 -2.2531 -1.1386
 4246SOL     OW15629   2.880   4.063   1.089 -0.2973 -0.1946 -0.5309
 4246SOL    HW115630   2.810   4.109   1.041  1.4401  2.4874 -0.6973
 4246SOL    HW215631   2.955   4.122   1.084  1.8957 -2.7632  0.0244
 4247SOL     OW15632   9.203   7.236   4.708 -0.1653  0.4346 -0.4544
 4247SOL    HW115633   9.220   7.145   4.687  1.6691  1.0371 -1.7686
 4247SOL    HW215634   9.128   7.233   4.768 -1.0072 -1.8152 -1.5327
 4248SOL     OW15635   2.338   6.334   4.738  0.3576 -0.2186  0.6085
 4248SOL    HW115636   2.337   6.251   4.689  2.0091  0.9736 -1.6530
 4248SOL    HW215637   2.304   6.399   4.677  1.8173  1.2364  1.2634
 4249SOL     OW15638   4.888   3.824   6.003  0.6483  0.2009  0.1713
 4249SOL    HW115639   4.909   3.741   6.047  3.1836  1.5097  1.6827
 4249SOL    HW215640   4.811   3.856   6.049  1.1887 -0.1234  1.3533
 4250SOL     OW15641   5.283   1.451   0.605  0.0642  0.1913  0.3348
 4250SOL    HW115642   5.221   1.446   0.532  1.2192  1.6327 -0.8258
 4250SOL    HW215643   5.258   1.530   0.652  0.9171  0.7473 -0.1020
 4251SOL     OW15644   4.352   2.451   5.607  0.8444 -0.2081 -0.2654
 4251SOL    HW115645   4.399   2.468   5.689 -2.2438  2.3608  1.1855
 4251SOL    HW215646   4.401   2.501   5.541  2.3434 -0.8348  0.3124
 4252SOL     OW15647   9.126   6.964   2.262  0.3401  0.2564  0.0543
 4252SOL    HW115648   9.078   6.930   2.338 -0.1749 -0.0950 -0.4264
 4252SOL    HW215649   9.215   6.929   2.274 -0.2438 -1.5601 -0.5849
 4253SOL     OW15650   8.942   3.769   2.762 -0.2472  0.4816  0.6537
 4253SOL    HW115651   8.891   3.711   2.818  0.6131 -0.7243  0.2380
 4253SOL    HW215652   8.946   3.852   2.810 -1.0226  0.0277  1.5274
 4254SOL     OW15653   4.977   6.982   3.958  0.0585 -0.1918  0.0087
 4254SOL    HW115654   4.974   7.064   3.908  1.1750 -0.1966 -0.0901
 4254SOL    HW215655   4.887   6.970   3.989 -0.4661  0.2796 -1.2400
 4255SOL     OW15656   4.145   6.728   6.289 -0.4730  0.1448 -0.2766
 4255SOL    HW115657   4.199   6.669   6.236 -0.0280 -0.5109  0.8613
 4255SOL    HW215658   4.074   6.673   6.321 -0.1357  0.2561  0.6783
 4256SOL     OW15659   0.119   2.054   3.210  0.2126  0.2312 -0.1976
 4256SOL    HW115660   0.152   2.043   3.121 -0.8810  0.1788 -0.6101
 4256SOL    HW215661   0.193   2.092   3.258  1.1858 -0.7858 -0.8468
 4257SOL     OW15662   6.692   4.686   4.624  0.2624 -0.4964  0.7112
 4257SOL    HW115663   6.620   4.624   4.621 -0.7410  0.6299 -2.5088
 4257SOL    HW215664   6.768   4.633   4.648 -1.2072 -2.1102  2.1217
 4258SOL     OW15665   3.509   8.734   4.015  0.3736  0.2509  0.5688
 4258SOL    HW115666   3.492   8.761   3.925 -0.3654  2.9369  1.4157
 4258SOL    HW215667   3.446   8.665   4.032  2.2408 -2.1983 -1.6947
 4259SOL     OW15668   3.814   6.560   2.677  0.5537 -0.2097 -0.0879
 4259SOL    HW115669   3.886   6.569   2.614 -0.0625 -0.0872 -0.7877
 4259SOL    HW215670   3.847   6.601   2.757  0.8837  0.7853 -0.7099
 4260SOL     OW15671   2.074   8.538   7.169  0.4351 -0.5210  0.3868
 4260SOL    HW115672   2.049   8.544   7.261 -2.0172  1.0650 -0.2790
 4260SOL    HW215673   1.992   8.525   7.122  1.6203 -1.3860 -1.6121
 4261SOL     OW15674   7.322   4.147   2.138  0.4824  0.6375  0.6407
 4261SOL    HW115675   7.237   4.177   2.170 -0.0313  1.0585 -1.0252
 4261SOL    HW215676   7.314   4.052   2.136  0.2699  0.6420  1.0536
 4262SOL     OW15677   3.318   6.949   5.061  0.1350  0.6578  0.0694
 4262SOL    HW115678   3.229   6.960   5.029  0.3825  1.5936 -0.3278
 4262SOL    HW215679   3.371   6.945   4.981  0.4656  0.2158  0.3072
 4263SOL     OW15680   5.387   4.901   4.954  0.8285 -0.6500 -0.2308
 4263SOL    HW115681   5.395   4.859   5.040  0.2987 -0.3618 -0.0394
 4263SOL    HW215682   5.298   4.879   4.926  0.0331  1.4555  0.4697
 4264SOL     OW15683   6.769   8.141   9.202  0.3158 -0.1772  0.8499
 4264SOL    HW115684   6.813   8.063   9.169 -0.1697  0.1592 -0.6530
 4264SOL    HW215685   6.808   8.156   9.288  0.8273 -1.7304  0.9171
 4265SOL     OW15686   0.870   3.323   1.339 -0.1905  0.2837 -0.4263
 4265SOL    HW115687   0.843   3.410   1.311 -2.4053 -0.7194 -1.6472
 4265SOL    HW215688   0.899   3.279   1.259 -1.1663 -0.7710 -0.2412
 4266SOL     OW15689   3.067   6.131   5.300  0.0085  0.4338 -0.3431
 4266SOL    HW115690   3.060   6.184   5.380  0.2069  0.7079 -0.5060
 4266SOL    HW215691   2.992   6.158   5.247  0.3114  0.8094 -0.5788
 4267SOL     OW15692   3.801   6.994   2.868 -0.1051  0.0572  0.4007
 4267SOL    HW115693   3.816   7.054   2.795 -1.4628 -1.8196 -1.5620
 4267SOL    HW215694   3.706   6.995   2.881 -0.8333 -4.4369 -2.4895
 4268SOL     OW15695   5.792   4.732   4.935  0.1544 -0.1037  0.1263
 4268SOL    HW115696   5.741   4.800   4.892 -1.6795 -0.9472  0.8725
 4268SOL    HW215697   5.808   4.667   4.867 -0.9532 -0.4652  0.1999
 4269SOL     OW15698   6.546   2.027   2.625  0.2174  0.0191 -0.0717
 4269SOL    HW115699   6.581   2.115   2.614  1.7858 -0.5320  0.2223
 4269SOL    HW215700   6.487   2.014   2.551  0.6168  1.0111 -0.5680
 4270SOL     OW15701   8.019   6.014   7.204  0.3032 -0.1653 -0.1820
 4270SOL    HW115702   7.975   6.098   7.214  1.5375  0.2376  3.1660
 4270SOL    HW215703   8.105   6.037   7.167  0.7677  0.1601  1.0389
 4271SOL     OW15704   6.879   5.345   8.004 -0.2153 -0.0688 -0.5027
 4271SOL    HW115705   6.973   5.327   8.001 -0.0318  0.7273  0.3265
 4271SOL    HW215706   6.871   5.433   8.040 -1.3460 -0.8510  1.2810
 4272SOL     OW15707   8.394   3.043   0.946 -0.1940 -0.3559  0.0196
 4272SOL    HW115708   8.377   3.111   0.880 -0.2255  1.0565  1.4052
 4272SOL    HW215709   8.480   3.008   0.922 -0.6605 -0.6018 -1.3518
 4273SOL     OW15710   9.238   0.743   4.755  0.8199  0.1950 -0.3022
 4273SOL    HW115711   9.281   0.787   4.682 -2.0256  2.4274 -0.8100
 4273SOL    HW215712   9.161   0.702   4.717  1.0410 -1.5256  0.9654
 4274SOL     OW15713   8.824   2.348   4.695 -0.2517  0.6950  0.3075
 4274SOL    HW115714   8.788   2.398   4.769  1.1377 -0.4338  1.8074
 4274SOL    HW215715   8.815   2.257   4.722  1.0653  0.3007 -0.5406
 4275SOL     OW15716   1.345   9.246   4.540 -0.6051 -0.0115  0.3474
 4275SOL    HW115717   1.259   9.280   4.515  0.2114  1.4938 -0.5496
 4275SOL    HW215718   1.400   9.260   4.463  0.8741  0.6152  1.4628
 4276SOL     OW15719   6.010   1.202   8.050  0.3478 -0.0593 -0.0754
 4276SOL    HW115720   6.035   1.226   8.140  1.0330  1.0382 -0.5459
 4276SOL    HW215721   6.073   1.133   8.027 -0.2313 -0.7995  0.4979
 4277SOL     OW15722   4.818   4.911   1.535 -0.1438  0.1168  0.3151
 4277SOL    HW115723   4.767   4.984   1.571  3.0377  3.2342 -0.8835
 4277SOL    HW215724   4.880   4.888   1.604  1.3471  1.2631 -0.5836
 4278SOL     OW15725   1.811   1.168   1.360 -0.1969  0.3568 -0.1470
 4278SOL    HW115726   1.775   1.252   1.389  1.0266  1.0128 -0.4864
 4278SOL    HW215727   1.888   1.155   1.415 -0.5718 -0.7367  0.1515
 4279SOL     OW15728   3.064   4.078   4.897  0.5313 -0.2811 -0.0725
 4279SOL    HW115729   3.104   4.013   4.840  1.2290 -1.4342  1.6485
 4279SOL    HW215730   2.982   4.102   4.854  0.7048 -1.6284 -1.1883
 4280SOL     OW15731   2.499   8.901   3.735  0.0228  0.4660 -0.4527
 4280SOL    HW115732   2.567   8.852   3.690 -1.2185 -0.9499 -0.8873
 4280SOL    HW215733   2.452   8.835   3.787 -0.1285  1.6409  0.9769
 4281SOL     OW15734   5.731   8.395   5.030  0.3245  0.5592  0.5332
 4281SOL    HW115735   5.797   8.464   5.023  0.1267  0.7566  0.6325
 4281SOL    HW215736   5.653   8.438   5.064 -0.4222  0.6933 -1.2519
 4282SOL     OW15737   6.404   3.154   3.503 -0.1101 -0.0346 -0.3956
 4282SOL    HW115738   6.474   3.088   3.503  0.8546  0.9335  0.6884
 4282SOL    HW215739   6.451   3.237   3.508 -1.2447  0.6072  4.4396
 4283SOL     OW15740   0.278   1.170   6.876 -0.0484 -0.2757  0.0132
 4283SOL    HW115741   0.218   1.237   6.843  0.2679  1.1971  2.2613
 4283SOL    HW215742   0.357   1.181   6.822 -1.1894 -1.2295 -1.9575
 4284SOL     OW15743   6.676   4.212   8.516 -0.0127  0.3579 -0.4736
 4284SOL    HW115744   6.618   4.139   8.540  0.1317  0.3718 -0.0726
 4284SOL    HW215745   6.752   4.202   8.574  1.1756 -0.6415 -2.1193
 4285SOL     OW15746   5.402   2.779   8.203 -1.0088  0.0995 -0.2609
 4285SOL    HW115747   5.461   2.726   8.257 -0.2751  0.3762 -0.7729
 4285SOL    HW215748   5.446   2.782   8.117 -1.3195  1.0701 -0.3906
 4286SOL     OW15749   2.500   0.873   3.639 -0.1997 -0.3520 -0.2404
 4286SOL    HW115750   2.421   0.925   3.655  0.0983 -0.5811  2.3056
 4286SOL    HW215751   2.480   0.786   3.675  0.4849 -1.0463 -1.4606
 4287SOL     OW15752   5.929   1.852   3.633  0.2736 -0.6749  0.3046
 4287SOL    HW115753   5.911   1.817   3.545  1.7857 -0.4660 -0.1189
 4287SOL    HW215754   5.843   1.868   3.671 -0.4096 -1.1886 -0.9779
 4288SOL     OW15755   4.684   0.824   8.163  0.1890  0.1217  0.5221
 4288SOL    HW115756   4.699   0.910   8.201  3.0071 -0.1465  0.2486
 4288SOL    HW215757   4.720   0.762   8.226  0.8468 -0.6320 -0.5429
 4289SOL     OW15758   5.119   7.950   7.952  0.6575 -0.2932 -0.2081
 4289SOL    HW115759   5.052   8.004   7.993  0.2661 -0.0768 -1.1116
 4289SOL    HW215760   5.084   7.861   7.956  0.1473 -0.1326 -0.9978
 4290SOL     OW15761   0.255   4.696   2.543 -0.2184  0.1002 -0.6386
 4290SOL    HW115762   0.202   4.776   2.538  1.1869  0.9819 -3.1790
 4290SOL    HW215763   0.191   4.625   2.541 -1.4085  1.1343 -2.3102
 4291SOL     OW15764   1.188   4.556   2.849  0.5645  0.4825  0.1469
 4291SOL    HW115765   1.173   4.461   2.852  1.2478  0.3859  1.2626
 4291SOL    HW215766   1.124   4.589   2.787  3.4445 -1.2963 -4.2934
 4292SOL     OW15767   9.057   2.460   8.276  0.0544  0.8436  0.1292
 4292SOL    HW115768   9.104   2.377   8.278  0.6986  1.2168  0.7805
 4292SOL    HW215769   9.092   2.506   8.199 -1.5188 -0.1606 -1.2613
 4293SOL     OW15770   8.464   6.984   1.997 -0.2967  0.5514  0.1434
 4293SOL    HW115771   8.390   7.027   2.040  1.1594  3.0499  0.3341
 4293SOL    HW215772   8.491   7.047   1.930 -0.2457 -1.6731 -2.0499
 4294SOL     OW15773   4.168   6.972   7.571  0.7484  0.5127 -0.1247
 4294SOL    HW115774   4.261   6.952   7.560  1.2015  1.9468  0.8388
 4294SOL    HW215775   4.137   6.987   7.482  2.3048  3.4406 -0.3038
 4295SOL     OW15776   4.279   1.408   3.586 -0.1811  0.9423 -0.6244
 4295SOL    HW115777   4.290   1.498   3.555 -0.6702  0.6722 -1.6554
 4295SOL    HW215778   4.358   1.389   3.636 -0.5815  2.3273  0.5945
 4296SOL     OW15779   1.065   8.667   2.694  0.6603 -0.3940  0.0688
 4296SOL    HW115780   1.039   8.697   2.781 -1.5747 -1.4484 -0.1486
 4296SOL    HW215781   1.094   8.746   2.649 -1.5041  0.8504  0.6845
 4297SOL     OW15782   8.807   6.758   4.929 -0.0621  0.1409 -0.3536
 4297SOL    HW115783   8.769   6.723   4.848  0.3782  1.8876 -1.3884
 4297SOL    HW215784   8.879   6.698   4.949 -0.9350 -1.0060 -0.5503
 4298SOL     OW15785   2.119   0.452   5.052 -0.6479  0.3260  0.1054
 4298SOL    HW115786   2.214   0.448   5.055 -0.5230  1.5235 -1.3590
 4298SOL    HW215787   2.092   0.362   5.032  0.4085  0.5854 -2.9882
 4299SOL     OW15788   4.758   8.051   4.992  0.0034 -0.4271 -0.6224
 4299SOL    HW115789   4.710   7.987   4.938 -2.5970  1.8049 -1.1904
 4299SOL    HW215790   4.811   8.100   4.929  1.0033 -1.1515 -0.3647
 4300SOL     OW15791   8.060   0.922   1.707 -0.5518  0.2742  0.0332
 4300SOL    HW115792   8.095   0.964   1.629  2.7067 -1.5981  0.2941
 4300SOL    HW215793   8.111   0.959   1.779 -0.9440 -0.6818  0.8244
 4301SOL     OW15794   4.801   8.509   0.116  0.2332 -0.1272  0.2360
 4301SOL    HW115795   4.730   8.552   0.164 -0.0796  0.3964 -0.6845
 4301SOL    HW215796   4.847   8.580   0.072  2.0479 -0.3220  1.6961
 4302SOL     OW15797   6.681   2.965   8.517  0.0652 -0.4320  0.5090
 4302SOL    HW115798   6.687   2.906   8.592 -0.0910 -1.4575 -0.2619
 4302SOL    HW215799   6.754   2.939   8.460  0.6909  0.8888  0.6659
 4303SOL     OW15800   7.419   8.891   3.772 -0.5319 -0.1605  0.1640
 4303SOL    HW115801   7.458   8.945   3.840 -0.3869  0.3846 -0.3417
 4303SOL    HW215802   7.369   8.824   3.819 -2.1002  1.3972  0.8017
 4304SOL     OW15803   8.191   1.879   0.523  0.0655 -0.0491 -0.2034
 4304SOL    HW115804   8.273   1.873   0.474  1.1332  0.8809  1.3765
 4304SOL    HW215805   8.180   1.972   0.541  0.4343 -0.4384  2.4139
 4305SOL     OW15806   3.838   5.063   2.716  0.4482 -0.2174  0.3422
 4305SOL    HW115807   3.866   5.079   2.806  0.4278 -0.4236  0.3856
 4305SOL    HW215808   3.853   5.146   2.671 -0.9819  0.3837  0.8954
 4306SOL     OW15809   5.996   3.910   0.807  0.3172  0.0745 -0.0459
 4306SOL    HW115810   6.015   3.973   0.737 -1.1103 -0.7085 -1.1840
 4306SOL    HW215811   6.033   3.950   0.885 -0.6006  2.3916 -0.7037
 4307SOL     OW15812   1.108   6.554   4.165  0.0948  0.2284  0.3713
 4307SOL    HW115813   1.175   6.615   4.133  1.6616 -0.6892  1.7385
 4307SOL    HW215814   1.143   6.521   4.247 -1.2194 -1.6770  0.2372
 4308SOL     OW15815   1.549   1.709   7.126 -0.1401  0.0349 -0.2122
 4308SOL    HW115816   1.596   1.719   7.043 -0.4588  0.0646 -0.3912
 4308SOL    HW215817   1.596   1.639   7.172 -0.1831 -0.2383 -0.5771
 4309SOL     OW15818   2.577   0.317   4.443 -0.9410  0.0289 -0.1181
 4309SOL    HW115819   2.551   0.404   4.414 -0.9661 -0.1388 -0.6080
 4309SOL    HW215820   2.510   0.258   4.408 -0.0618 -0.3723 -1.1812
 4310SOL     OW15821   8.657   0.885   0.669  0.6408 -0.0618  0.5420
 4310SOL    HW115822   8.663   0.833   0.749  1.6011 -1.0712 -0.1652
 4310SOL    HW215823   8.619   0.826   0.604  0.1939  0.6394  0.1487
 4311SOL     OW15824   6.061   3.697   3.389 -0.5938  0.0995  0.1316
 4311SOL    HW115825   5.969   3.685   3.365 -1.5772  1.3383  2.8977
 4311SOL    HW215826   6.066   3.668   3.480  1.3894  1.5705  0.5613
 4312SOL     OW15827   5.347   8.463   6.168 -0.2444 -0.2029 -0.0041
 4312SOL    HW115828   5.292   8.541   6.167 -0.5187 -0.3539 -2.0497
 4312SOL    HW215829   5.424   8.488   6.218 -0.9373  0.9350  0.5224
 4313SOL     OW15830   1.106   8.828   9.172  0.4902 -0.4878  0.1458
 4313SOL    HW115831   1.031   8.782   9.211 -0.3046 -0.3161 -1.1075
 4313SOL    HW215832   1.092   8.920   9.195 -2.0714  0.2595 -3.4441
 4314SOL     OW15833   8.140   3.548   4.216  0.1722 -0.4960  0.0380
 4314SOL    HW115834   8.087   3.612   4.264 -0.9709 -0.5679 -1.0559
 4314SOL    HW215835   8.137   3.469   4.269 -0.6168 -0.4147  0.1287
 4315SOL     OW15836   6.098   4.683   0.833 -0.4028 -0.0222 -0.2629
 4315SOL    HW115837   6.054   4.599   0.845 -0.5728  0.2074  0.8492
 4315SOL    HW215838   6.190   4.661   0.821 -0.3830 -0.3557  0.4390
 4316SOL     OW15839   7.563   2.204   3.713  0.2913 -0.0002  0.3961
 4316SOL    HW115840   7.568   2.140   3.783 -2.1272  1.5451  2.1200
 4316SOL    HW215841   7.614   2.278   3.744  1.1782 -0.1563 -0.5937
 4317SOL     OW15842   6.404   4.253   3.961 -0.3587  0.2458 -0.5547
 4317SOL    HW115843   6.318   4.254   3.919 -0.6084 -0.3814 -0.0678
 4317SOL    HW215844   6.400   4.321   4.028 -0.5879 -0.0104 -0.3088
 4318SOL     OW15845   5.020   6.535   2.921  0.6090  0.1394 -0.0674
 4318SOL    HW115846   4.933   6.500   2.901  0.3107  1.0140 -0.3444
 4318SOL    HW215847   5.036   6.509   3.011  0.9109 -1.7291 -0.6298
 4319SOL     OW15848   4.145   8.602   9.015 -0.5301  0.8571 -0.3097
 4319SOL    HW115849   4.204   8.595   9.090 -1.9500  1.4471  0.9122
 4319SOL    HW215850   4.070   8.547   9.037 -1.1926  1.4122 -1.0790
 4320SOL     OW15851   2.841   1.241   6.727  0.1780  0.3450 -0.2197
 4320SOL    HW115852   2.841   1.300   6.803  1.1146 -0.2337  0.2447
 4320SOL    HW215853   2.832   1.153   6.765 -1.1303  0.1555 -0.9037
 4321SOL     OW15854   0.949   3.516   7.235  0.6048  0.3932  0.5046
 4321SOL    HW115855   0.985   3.596   7.196  0.9565  0.0101  0.0214
 4321SOL    HW215856   0.856   3.517   7.213  0.8790 -0.0332 -0.7523
 4322SOL     OW15857   7.627   1.076   5.076  0.4934 -0.4154  0.2689
 4322SOL    HW115858   7.591   1.121   5.152 -0.1871 -1.1807  0.4140
 4322SOL    HW215859   7.560   1.012   5.052  0.3610  0.2756 -1.4140
 4323SOL     OW15860   3.511   4.564   1.624 -0.0393 -0.4973 -0.0832
 4323SOL    HW115861   3.504   4.584   1.717  1.3398  0.3486 -0.1419
 4323SOL    HW215862   3.579   4.497   1.619 -0.3984 -0.8439 -0.4595
 4324SOL     OW15863   7.639   3.912   1.692  0.2953  0.6420  0.0783
 4324SOL    HW115864   7.656   3.921   1.599 -0.5522  0.8535 -0.0636
 4324SOL    HW215865   7.703   3.970   1.734  0.5235  0.7228 -0.3767
 4325SOL     OW15866   0.896   0.396   0.958  0.1018  0.0247 -0.1896
 4325SOL    HW115867   0.900   0.481   1.002  0.1050 -0.2002  0.2595
 4325SOL    HW215868   0.913   0.415   0.866  0.5657  0.4476 -0.0212
 4326SOL     OW15869   3.248   8.369   8.596  0.6692 -0.0019 -0.6509
 4326SOL    HW115870   3.322   8.426   8.576 -0.5195  1.7158 -0.3523
 4326SOL    HW215871   3.197   8.365   8.515  0.1103  0.3734 -0.3255
 4327SOL     OW15872   7.947   7.119   1.566  0.4543 -0.3473 -0.3136
 4327SOL    HW115873   8.032   7.162   1.562  0.7358 -0.6977  1.1331
 4327SOL    HW215874   7.950   7.067   1.647 -1.3011  0.0237  0.0438
 4328SOL     OW15875   7.752   6.284   1.093 -0.1237 -0.1455 -0.4239
 4328SOL    HW115876   7.802   6.344   1.037  1.0430  0.2726  1.0048
 4328SOL    HW215877   7.808   6.207   1.102 -0.9288 -0.8117 -0.9566
 4329SOL     OW15878   5.040   2.415   8.359  0.4663  0.0850  0.3097
 4329SOL    HW115879   5.047   2.451   8.270 -0.5341  1.3496  0.7219
 4329SOL    HW215880   5.022   2.321   8.345  0.5854  0.2168 -0.8201
 4330SOL     OW15881   8.683   2.157   5.413  0.1551 -0.1190 -0.2281
 4330SOL    HW115882   8.727   2.088   5.463  0.6067 -1.1238 -1.9361
 4330SOL    HW215883   8.598   2.166   5.455  1.0105  0.1107  1.5970
 4331SOL     OW15884   3.489   8.115   0.619 -0.0192  0.2969  0.0825
 4331SOL    HW115885   3.570   8.065   0.611  0.8250  1.5863  0.3119
 4331SOL    HW215886   3.423   8.059   0.578  0.7633 -1.2354  0.7901
 4332SOL     OW15887   0.510   3.751   9.086  0.4002 -0.2253  0.1974
 4332SOL    HW115888   0.521   3.777   8.995 -0.2412 -0.9401 -0.1029
 4332SOL    HW215889   0.443   3.810   9.120  0.3891 -0.1820  0.1004
 4333SOL     OW15890   6.077   2.304   0.403  0.7104  0.3575 -0.0709
 4333SOL    HW115891   6.001   2.335   0.353  0.2744  0.1365  0.4481
 4333SOL    HW215892   6.141   2.375   0.395  0.9753 -0.0253 -1.6352
 4334SOL     OW15893   1.144   1.432   4.752 -0.1234  0.9565 -0.1337
 4334SOL    HW115894   1.050   1.439   4.763 -0.0665  2.0968 -0.2632
 4334SOL    HW215895   1.181   1.467   4.833  0.1946  0.6756 -0.1536
 4335SOL     OW15896   2.218   2.356   5.721  0.3885 -0.4045  0.2960
 4335SOL    HW115897   2.183   2.390   5.639  0.2298  0.5466  0.7380
 4335SOL    HW215898   2.308   2.328   5.700  0.6689  0.6857 -0.0027
 4336SOL     OW15899   1.251   4.371   2.512 -0.2292  0.1182 -0.1677
 4336SOL    HW115900   1.204   4.451   2.533 -0.5552  0.3427 -1.6461
 4336SOL    HW215901   1.243   4.317   2.590  0.0661  1.5384  0.8931
 4337SOL     OW15902   4.777   2.961   0.032  0.0843 -0.0477 -0.4263
 4337SOL    HW115903   4.753   2.895  -0.034 -0.7479  0.5193 -0.7027
 4337SOL    HW215904   4.850   3.009  -0.008 -0.1683  0.0471 -0.7820
 4338SOL     OW15905   4.344   8.050   4.976 -0.0016 -0.3675  0.4556
 4338SOL    HW115906   4.335   8.009   4.890  0.0589  1.3773 -0.4264
 4338SOL    HW215907   4.284   8.124   4.973  2.4113  1.7076  0.6460
 4339SOL     OW15908   0.471   3.367   5.174  0.2943 -0.3188  0.2448
 4339SOL    HW115909   0.529   3.387   5.247 -0.4942 -0.8073  1.0207
 4339SOL    HW215910   0.429   3.285   5.198 -0.4074 -0.1866 -0.4926
 4340SOL     OW15911   6.936   2.936   7.612 -0.2713 -0.0386  0.2442
 4340SOL    HW115912   6.908   2.844   7.612  1.2172 -0.5536  2.1051
 4340SOL    HW215913   7.005   2.940   7.546  0.1144 -0.4199  0.6180
 4341SOL     OW15914   3.121   0.085   8.682 -0.2214 -0.5676 -0.0867
 4341SOL    HW115915   3.120  -0.007   8.706  0.6345 -0.5886 -0.1122
 4341SOL    HW215916   3.084   0.130   8.759 -0.8227 -0.9410 -0.1547
 4342SOL     OW15917   2.259   4.564   4.087 -0.3748  0.5767 -0.0828
 4342SOL    HW115918   2.313   4.628   4.133  0.0340  0.0705  0.1594
 4342SOL    HW215919   2.190   4.542   4.150 -0.5246  0.7855 -0.1720
 4343SOL     OW15920   8.529   7.331   9.234  0.1125  0.6051  0.1271
 4343SOL    HW115921   8.441   7.302   9.254 -0.0003  0.0350 -1.1121
 4343SOL    HW215922   8.581   7.305   9.311 -0.0358 -2.6486 -0.7203
 4344SOL     OW15923   8.698   1.420   5.179 -0.2581  0.2731  0.6304
 4344SOL    HW115924   8.646   1.351   5.221 -0.4299  0.1729  0.2521
 4344SOL    HW215925   8.656   1.502   5.207  0.2018  0.2513  1.4263
 4345SOL     OW15926   8.079   8.267   5.264 -0.0441  0.1917  0.6776
 4345SOL    HW115927   8.030   8.190   5.234 -0.6888  0.0809  1.9343
 4345SOL    HW215928   8.016   8.339   5.259 -0.5830 -0.0508  2.8210
 4346SOL     OW15929   5.399   3.198   3.327 -0.5491 -0.6832 -0.1880
 4346SOL    HW115930   5.304   3.192   3.325 -0.7498  1.2500  1.0773
 4346SOL    HW215931   5.420   3.210   3.420  0.7426  1.0531 -0.6601
 4347SOL     OW15932   0.957   3.660   0.176 -0.6880  0.9729  0.0175
 4347SOL    HW115933   1.023   3.679   0.110  0.3357  0.8631  0.9674
 4347SOL    HW215934   1.007   3.645   0.256 -1.9343  2.3249  1.1171
 4348SOL     OW15935   1.247   4.054   4.526  0.1788  0.0068  0.0942
 4348SOL    HW115936   1.226   4.000   4.602 -0.7263 -0.7054 -0.6447
 4348SOL    HW215937   1.281   3.992   4.462 -1.8375  0.0937 -1.1464
 4349SOL     OW15938   0.821   3.941   2.732  0.1888 -0.2865  0.1307
 4349SOL    HW115939   0.870   4.021   2.713  1.5106 -0.8158  1.1046
 4349SOL    HW215940   0.874   3.871   2.693  0.4519 -0.9099  1.5263
 4350SOL     OW15941   5.557   4.832   2.345 -0.0147  0.2788  0.9418
 4350SOL    HW115942   5.606   4.804   2.423  0.5534 -0.2022  0.4205
 4350SOL    HW215943   5.466   4.833   2.374 -0.3158 -3.4652  0.6852
 4351SOL     OW15944   3.580   3.557   3.416  0.0892  0.2835  0.2048
 4351SOL    HW115945   3.522   3.568   3.341  2.4580 -1.6234 -2.0866
 4351SOL    HW215946   3.609   3.646   3.437 -3.5232  1.3076  1.4952
 4352SOL     OW15947   5.946   1.202   2.267 -0.0482  0.2267  0.0428
 4352SOL    HW115948   5.891   1.207   2.189  2.3916  1.5453 -1.7209
 4352SOL    HW215949   5.932   1.285   2.312  0.2408  0.4260 -0.2319
 4353SOL     OW15950   2.888   6.585   3.268 -0.1793  0.1481  0.5788
 4353SOL    HW115951   2.925   6.526   3.203 -1.6261  1.2563 -1.3598
 4353SOL    HW215952   2.948   6.659   3.271  0.1757 -0.1508  0.9282
 4354SOL     OW15953   2.255   1.486   1.747 -0.1257 -0.1812 -0.4704
 4354SOL    HW115954   2.249   1.488   1.843 -1.8571  0.9036 -0.5459
 4354SOL    HW215955   2.168   1.514   1.718  0.6332  0.3386 -2.3569
 4355SOL     OW15956   7.604   6.122   4.500 -0.3392 -0.6031  0.4078
 4355SOL    HW115957   7.653   6.056   4.548  0.7508  0.2508  0.5046
 4355SOL    HW215958   7.514   6.113   4.531 -0.4104 -2.6132 -0.2215
 4356SOL     OW15959   2.254   5.932   5.262 -0.3051  0.0438  0.4122
 4356SOL    HW115960   2.299   5.997   5.316  1.2610 -0.0335 -0.7279
 4356SOL    HW215961   2.324   5.892   5.211 -1.2839 -2.3205  0.8277
 4357SOL     OW15962   0.444   2.794   3.684  0.0784 -0.0617  0.6276
 4357SOL    HW115963   0.477   2.883   3.699  0.4438 -0.4711  2.6097
 4357SOL    HW215964   0.501   2.758   3.616  0.4229  0.9485  0.3632
 4358SOL     OW15965   6.897   3.265   8.637 -0.3072  0.5656  0.2271
 4358SOL    HW115966   6.831   3.272   8.706 -1.0372  0.7638 -0.4784
 4358SOL    HW215967   6.850   3.286   8.557  0.7588  1.3420 -0.2157
 4359SOL     OW15968   0.880   4.997   2.883  0.0780 -0.3535  0.0943
 4359SOL    HW115969   0.893   5.086   2.916  0.0942 -1.3499  3.1123
 4359SOL    HW215970   0.789   4.995   2.853 -1.0818 -0.1098  3.2238
 4360SOL     OW15971   7.161   8.635   0.557 -0.4341  0.2738 -0.3658
 4360SOL    HW115972   7.091   8.701   0.552  1.3284  2.4628  1.2266
 4360SOL    HW215973   7.237   8.678   0.516  0.5669 -1.1373 -0.0598
 4361SOL     OW15974   5.478   5.732   1.274 -0.1286 -0.6473 -0.6455
 4361SOL    HW115975   5.523   5.676   1.338  0.6809  0.7990  0.1085
 4361SOL    HW215976   5.436   5.800   1.327  1.1181  0.9702 -1.6334
 4362SOL     OW15977   1.604   1.726   5.305  0.0981 -0.2140  0.2378
 4362SOL    HW115978   1.631   1.668   5.234 -0.1357  0.0000 -0.0259
 4362SOL    HW215979   1.533   1.678   5.348  0.8100 -0.7359  0.8754
 4363SOL     OW15980   0.078   6.668   2.026 -0.3664 -0.1979 -0.2557
 4363SOL    HW115981   0.083   6.763   2.011 -1.5442  0.0150  0.5377
 4363SOL    HW215982   0.169   6.641   2.042  0.4530  0.2118 -3.6052
 4364SOL     OW15983   2.676   2.235   0.987 -0.1489  0.3069  0.1603
 4364SOL    HW115984   2.610   2.271   0.928  1.8401  2.3703 -0.9159
 4364SOL    HW215985   2.678   2.295   1.062  0.5180  0.2700  0.1800
 4365SOL     OW15986   2.554   0.198   9.156 -0.0303  0.3644 -0.1478
 4365SOL    HW115987   2.609   0.274   9.139  2.5837 -1.2738  0.3362
 4365SOL    HW215988   2.588   0.130   9.098 -1.1478 -0.9357  0.6486
 4366SOL     OW15989   4.123   4.657   2.591 -0.5068 -0.5316  0.2834
 4366SOL    HW115990   4.116   4.748   2.563 -0.1600  0.3782  2.8746
 4366SOL    HW215991   4.151   4.609   2.513 -1.2009  1.4765 -1.2647
 4367SOL     OW15992   6.698   8.723   0.131  0.9062 -0.4929  0.3576
 4367SOL    HW115993   6.611   8.761   0.132  0.5841 -1.1320 -0.7815
 4367SOL    HW215994   6.723   8.722   0.038  1.1134 -2.5024  0.3874
 4368SOL     OW15995   1.167   6.967   1.364 -0.3687 -0.1667 -0.0054
 4368SOL    HW115996   1.171   7.063   1.365  2.8793 -0.1641 -0.6330
 4368SOL    HW215997   1.128   6.945   1.280 -0.6625  0.6072 -0.0843
 4369SOL     OW15998   6.299   7.249   3.066  0.7736  0.7249 -0.2356
 4369SOL    HW115999   6.246   7.178   3.102  1.6531 -0.8679 -1.9150
 4369SOL    HW216000   6.385   7.238   3.105  0.8721  0.9422 -0.3871
 4370SOL     OW16001   6.737   1.538   4.368 -0.2207  0.3219 -0.1573
 4370SOL    HW116002   6.689   1.577   4.295  1.2515  0.0785 -1.3101
 4370SOL    HW216003   6.812   1.494   4.327  0.7966  0.3833  1.5231
 4371SOL     OW16004   3.872   6.252   0.247  0.1730  0.6520  0.0687
 4371SOL    HW116005   3.793   6.198   0.245  1.0026 -0.6112  0.1116
 4371SOL    HW216006   3.940   6.197   0.208  0.8533  2.0355 -0.7661
 4372SOL     OW16007   8.501   6.417   4.775 -0.7817  0.0607  0.2861
 4372SOL    HW116008   8.486   6.453   4.687  0.1858 -1.0659 -0.3718
 4372SOL    HW216009   8.454   6.334   4.776 -0.2795 -0.2250  0.6159
 4373SOL     OW16010   5.029   6.888   6.652  0.2698  0.3672  0.6332
 4373SOL    HW116011   4.945   6.933   6.642  0.1071  0.2072  1.2500
 4373SOL    HW216012   5.093   6.951   6.619 -0.1818  0.0137 -1.0460
 4374SOL     OW16013   4.943   2.550   4.335  0.5008  0.2080  0.0931
 4374SOL    HW116014   4.991   2.551   4.418  0.2401  1.0871  0.2384
 4374SOL    HW216015   4.934   2.642   4.311  2.8802 -0.0401 -2.2697
 4375SOL     OW16016   1.727   2.690   6.916  0.4344  0.1077  0.4414
 4375SOL    HW116017   1.759   2.638   6.843 -0.2535  0.3204 -0.0139
 4375SOL    HW216018   1.666   2.633   6.962 -0.2039  0.4560  0.0302
 4376SOL     OW16019   8.809   7.947   2.922 -0.2665  0.0070 -0.2790
 4376SOL    HW116020   8.794   7.883   2.852 -0.9169  0.3987 -0.5129
 4376SOL    HW216021   8.883   7.999   2.892 -0.3998  0.0283 -0.5708
 4377SOL     OW16022   5.415   1.366   7.555 -0.4868  0.2680 -0.3661
 4377SOL    HW116023   5.370   1.296   7.602 -2.7581  1.7974 -0.1137
 4377SOL    HW216024   5.494   1.324   7.521 -0.9680 -2.0049  1.0621
 4378SOL     OW16025   6.444   7.470   5.332  0.5116 -0.1699 -0.3501
 4378SOL    HW116026   6.398   7.401   5.379  0.9741  0.0842  0.5093
 4378SOL    HW216027   6.490   7.425   5.262 -0.1607 -0.5671 -0.5438
 4379SOL     OW16028   6.100   0.576   0.005 -0.7639 -0.1328  0.2649
 4379SOL    HW116029   6.173   0.555  -0.053 -0.4008  1.7409 -0.0025
 4379SOL    HW216030   6.025   0.531  -0.033 -0.4679  0.7955 -1.5061
 4380SOL     OW16031   2.624   7.280   0.709  0.5687  0.1413 -1.0385
 4380SOL    HW116032   2.566   7.292   0.784 -0.9269 -1.5282 -1.8561
 4380SOL    HW216033   2.706   7.322   0.735 -0.3717  0.8716  0.9309
 4381SOL     OW16034   6.217   2.152   0.102 -0.0739 -0.0965  0.4525
 4381SOL    HW116035   6.200   2.239   0.066  0.3522 -0.3538 -0.3882
 4381SOL    HW216036   6.224   2.166   0.196 -2.6968  0.3757  0.6542
 4382SOL     OW16037   5.674   2.085   3.573  0.3670 -0.7394  0.5694
 4382SOL    HW116038   5.634   2.006   3.608  1.4474 -0.8523  1.6029
 4382SOL    HW216039   5.712   2.129   3.649 -0.2375  0.8006  0.0288
 4383SOL     OW16040   4.201   5.603   7.186 -0.0049 -0.0376 -0.3071
 4383SOL    HW116041   4.254   5.550   7.247  0.8184  1.2926  0.1937
 4383SOL    HW216042   4.197   5.689   7.228 -1.6302  0.2057 -0.9166
 4384SOL     OW16043   6.654   4.583   5.928  0.0379  0.3204 -0.1430
 4384SOL    HW116044   6.730   4.641   5.924  0.6041 -0.3269  0.9098
 4384SOL    HW216045   6.691   4.495   5.925 -0.9138 -0.2328 -5.2793
 4385SOL     OW16046   3.191   0.130   2.550 -0.2709 -0.3689 -0.0414
 4385SOL    HW116047   3.104   0.147   2.515  0.2616 -1.5992 -2.1255
 4385SOL    HW216048   3.240   0.210   2.530 -0.4173 -0.4332 -0.7026
 4386SOL     OW16049   4.504   8.775   9.025 -0.3311  0.8593 -0.2360
 4386SOL    HW116050   4.433   8.834   9.000  0.3397  2.6924  1.8800
 4386SOL    HW216051   4.461   8.707   9.076 -0.8587  0.5325 -1.0850
 4387SOL     OW16052   6.923   3.587   6.762  0.5277  0.7233  0.8022
 4387SOL    HW116053   6.866   3.520   6.726  1.2356  1.3431 -1.6290
 4387SOL    HW216054   7.009   3.546   6.768  0.9812  1.3745 -0.7636
 4388SOL     OW16055   0.513   3.300   0.366  0.1005  0.1645 -0.1220
 4388SOL    HW116056   0.607   3.319   0.369  0.7365 -2.5221 -0.0352
 4388SOL    HW216057   0.489   3.312   0.274  1.0097 -0.8993 -0.5270
 4389SOL     OW16058   6.581   6.330   4.203 -0.2907  0.3782  0.0990
 4389SOL    HW116059   6.500   6.379   4.215 -0.8464 -0.4495 -0.1357
 4389SOL    HW216060   6.617   6.322   4.291 -0.2890  1.0412  0.1614
 4390SOL     OW16061   5.813   3.343   7.078  0.0922 -0.0560 -0.5061
 4390SOL    HW116062   5.747   3.364   7.012 -0.4976 -0.5393 -0.0824
 4390SOL    HW216063   5.810   3.248   7.085  0.8159 -0.0776 -0.4526
 4391SOL     OW16064   5.002   5.863   1.210 -0.3649 -0.2573 -0.3949
 4391SOL    HW116065   5.068   5.795   1.223  1.0358  0.9322 -1.0553
 4391SOL    HW216066   5.052   5.944   1.199 -1.9469  1.4721  3.1430
 4392SOL     OW16067   8.203   8.723   5.564  0.2563 -0.3182  0.0959
 4392SOL    HW116068   8.189   8.639   5.607 -0.9205 -0.3379 -0.2846
 4392SOL    HW216069   8.178   8.707   5.472  0.5660  0.2989 -0.1002
 4393SOL     OW16070   7.864   0.974   7.653  0.4477  0.2816  0.9814
 4393SOL    HW116071   7.879   1.052   7.707 -1.6669  1.8345 -0.4949
 4393SOL    HW216072   7.773   0.950   7.671 -0.2051  0.6193 -1.4883
 4394SOL     OW16073   8.837   2.279   0.935 -0.3312 -0.0051  0.5878
 4394SOL    HW116074   8.799   2.346   0.878 -1.5686 -0.2849  1.0553
 4394SOL    HW216075   8.900   2.234   0.879 -1.4762 -0.2465 -0.5741
 4395SOL     OW16076   2.379   7.260   5.546  0.0863  0.3485  0.1157
 4395SOL    HW116077   2.332   7.195   5.599  0.4470 -0.8503 -0.9889
 4395SOL    HW216078   2.419   7.318   5.610 -0.2743 -0.5025  1.1430
 4396SOL     OW16079   3.946   6.285   6.388 -0.0187  0.1368 -0.2660
 4396SOL    HW116080   3.992   6.228   6.450 -0.6908  1.8132  1.8836
 4396SOL    HW216081   3.998   6.279   6.308  1.2928 -1.5840  0.6283
 4397SOL     OW16082   2.214   7.788   2.153 -0.2462 -0.1803 -0.1326
 4397SOL    HW116083   2.214   7.692   2.155  0.3363 -0.2677 -2.3141
 4397SOL    HW216084   2.295   7.813   2.198 -0.8571 -0.6292  1.2958
 4398SOL     OW16085   5.860   5.880   8.435 -0.1436 -0.5674  0.2021
 4398SOL    HW116086   5.831   5.967   8.409 -1.5469 -1.9446 -3.4614
 4398SOL    HW216087   5.812   5.861   8.515 -0.3249  1.6896  0.6998
 4399SOL     OW16088   6.883   0.472   1.870  0.0461 -0.0486 -0.0166
 4399SOL    HW116089   6.815   0.431   1.925  1.3931 -0.7306  1.1984
 4399SOL    HW216090   6.941   0.400   1.845  0.3021  0.5122 -1.1111
 4400SOL     OW16091   1.515   5.722   0.518 -0.3839 -0.9433  0.2589
 4400SOL    HW116092   1.480   5.788   0.458  1.3999  1.2642  1.4841
 4400SOL    HW216093   1.485   5.751   0.605 -0.9990 -2.7804  0.7066
 4401SOL     OW16094   1.945   3.354   8.350  0.1986  0.1962 -0.5524
 4401SOL    HW116095   2.038   3.340   8.363  0.0349 -1.8831 -1.2578
 4401SOL    HW216096   1.920   3.417   8.418  1.7999 -0.4128  0.6389
 4402SOL     OW16097   8.037   9.011   1.649  0.8244  0.2972  0.2257
 4402SOL    HW116098   7.964   9.032   1.707 -0.3013  0.9182 -1.3656
 4402SOL    HW216099   8.083   8.940   1.693 -2.1979 -1.9090  0.1266
 4403SOL     OW16100   4.143   5.333   7.659  0.6324 -0.1733 -0.3114
 4403SOL    HW116101   4.116   5.254   7.707  0.4413  2.0902  3.7660
 4403SOL    HW216102   4.068   5.354   7.604 -0.1334 -1.7098  0.0693
 4404SOL     OW16103   1.797   0.813   4.376  0.5473  0.1887 -0.1889
 4404SOL    HW116104   1.791   0.902   4.342  1.8445  0.6688  0.7681
 4404SOL    HW216105   1.845   0.821   4.459 -1.3817 -1.0907  1.1532
 4405SOL     OW16106   2.641   0.035   7.016  0.1500  0.0080  0.1972
 4405SOL    HW116107   2.655   0.104   6.951 -0.6793 -0.5242 -0.5649
 4405SOL    HW216108   2.620  -0.042   6.965  0.1083 -0.5854  1.0868
 4406SOL     OW16109   4.749   5.813   1.289 -0.3962  0.1171 -0.2482
 4406SOL    HW116110   4.844   5.824   1.282 -0.1422 -0.4721  1.7566
 4406SOL    HW216111   4.713   5.882   1.233  1.1865  0.1271 -1.3385
 4407SOL     OW16112   3.755   2.522   4.210 -0.1063 -0.6365 -0.4220
 4407SOL    HW116113   3.787   2.555   4.294 -1.0444  0.4243 -0.4580
 4407SOL    HW216114   3.803   2.440   4.197  0.8213 -0.2932  0.6395
 4408SOL     OW16115   0.663   0.050   5.944  0.2716 -0.5874 -0.1884
 4408SOL    HW116116   0.597   0.109   5.978 -1.4104 -1.6974 -1.3823
 4408SOL    HW216117   0.736   0.107   5.919 -0.2910  0.6833  0.9577
 4409SOL     OW16118   1.918   4.265   2.238 -0.2908  0.4801 -1.0604
 4409SOL    HW116119   1.933   4.278   2.332 -1.2962  1.1684 -0.9790
 4409SOL    HW216120   1.996   4.302   2.196  0.5628 -0.6035 -0.4780
 4410SOL     OW16121   6.492   4.239   2.048 -0.0931  0.5646  0.2525
 4410SOL    HW116122   6.486   4.188   1.967 -0.8634 -0.7104  1.0883
 4410SOL    HW216123   6.585   4.245   2.066  0.0099 -1.2709  0.5480
 4411SOL     OW16124   7.072   8.030   7.285  0.6210  0.0022 -0.5226
 4411SOL    HW116125   7.074   8.031   7.381 -1.4263  2.7545 -0.3772
 4411SOL    HW216126   7.151   8.077   7.259 -0.0167  1.4289 -0.0162
 4412SOL     OW16127   3.784   5.849   1.578 -0.4511  0.1389  0.4459
 4412SOL    HW116128   3.760   5.767   1.535 -1.0616  0.1763  0.6972
 4412SOL    HW216129   3.792   5.912   1.506 -2.1864  0.3728  0.3978
 4413SOL     OW16130   7.281   6.769   5.427  0.3897 -0.2238 -0.5692
 4413SOL    HW116131   7.201   6.715   5.429 -1.4587  2.3684  0.1827
 4413SOL    HW216132   7.333   6.737   5.500 -0.9817 -0.5904  0.2975
 4414SOL     OW16133   8.567   1.654   4.881 -0.5410  0.5339  0.2329
 4414SOL    HW116134   8.520   1.624   4.959  0.2830  1.7443  1.2425
 4414SOL    HW216135   8.513   1.727   4.849 -1.8583 -1.0945 -1.4569
 4415SOL     OW16136   1.350   4.695   1.893 -0.6887  0.2182  0.3405
 4415SOL    HW116137   1.293   4.743   1.954 -1.2996  0.4275 -0.3838
 4415SOL    HW216138   1.375   4.760   1.827  0.9218  0.3002  0.9841
 4416SOL     OW16139   6.446   1.714   8.768 -0.3592  0.5226 -0.4416
 4416SOL    HW116140   6.372   1.746   8.820  0.2211 -0.2994  0.9381
 4416SOL    HW216141   6.501   1.666   8.830 -0.0550 -1.2402 -1.9760
 4417SOL     OW16142   8.123   6.821   5.467  0.0254 -0.1833 -0.5126
 4417SOL    HW116143   8.108   6.845   5.375  2.2180  0.9421 -0.6491
 4417SOL    HW216144   8.177   6.743   5.463  2.1154  1.1667 -0.3066
 4418SOL     OW16145   2.207   7.740   5.415  0.5483  0.1368  0.1241
 4418SOL    HW116146   2.192   7.774   5.503  0.4285  1.2866 -0.3096
 4418SOL    HW216147   2.278   7.795   5.380 -0.3395  0.6438 -0.9643
 4419SOL     OW16148   5.941   8.151   5.055  0.2835  0.1799  0.0019
 4419SOL    HW116149   5.875   8.188   5.113 -0.2136 -1.3213  0.4216
 4419SOL    HW216150   5.905   8.163   4.967 -0.6888 -0.8397  0.2373
 4420SOL     OW16151   3.438   1.298   8.186 -0.0700 -0.1203  0.4785
 4420SOL    HW116152   3.501   1.297   8.258 -0.3728 -0.9119  0.7449
 4420SOL    HW216153   3.492   1.303   8.107  0.2823  0.1941  0.7362
 4421SOL     OW16154   1.594   5.869   1.201 -0.3264  0.0600  0.3384
 4421SOL    HW116155   1.651   5.944   1.219  0.0051 -0.1651  0.2268
 4421SOL    HW216156   1.560   5.887   1.113  1.5667 -1.0397 -0.6922
 4422SOL     OW16157   0.435   9.181   1.617 -0.3613 -0.1610  0.1265
 4422SOL    HW116158   0.505   9.169   1.681 -0.5224  2.7049  0.9536
 4422SOL    HW216159   0.362   9.129   1.651  0.5298 -1.1586  0.5678
 4423SOL     OW16160   7.886   1.798   2.334  0.0030  0.0477  0.3676
 4423SOL    HW116161   7.818   1.861   2.310  0.6390  0.5652 -0.0855
 4423SOL    HW216162   7.844   1.741   2.399 -0.1424  1.8610  1.9376
 4424SOL     OW16163   7.087   3.925   6.160 -0.1430  0.4512  0.5369
 4424SOL    HW116164   7.031   4.002   6.156  0.3978  0.8877  1.0453
 4424SOL    HW216165   7.087   3.890   6.071  1.8854  2.7197 -0.4606
 4425SOL     OW16166   3.455   4.917   0.965  0.0416  0.0021 -0.2146
 4425SOL    HW116167   3.360   4.924   0.950 -0.2756  1.4214  2.0396
 4425SOL    HW216168   3.464   4.905   1.059  2.0729 -2.9397 -0.6262
 4426SOL     OW16169   4.632   1.498   8.844 -0.0719 -0.5895 -0.3949
 4426SOL    HW116170   4.578   1.426   8.876  0.5242 -0.2012  1.6193
 4426SOL    HW216171   4.574   1.574   8.846 -0.2511 -0.7027 -1.0159
 4427SOL     OW16172   2.609   0.009   5.140 -0.0742 -0.0627  0.2363
 4427SOL    HW116173   2.626   0.061   5.061  2.4701 -1.0396  0.0367
 4427SOL    HW216174   2.643  -0.078   5.119  0.6950 -0.3478  2.3996
 4428SOL     OW16175   3.084   8.025   4.473  0.4667  0.2962 -0.2736
 4428SOL    HW116176   3.072   7.930   4.473 -0.0277  0.3395 -1.6622
 4428SOL    HW216177   3.022   8.057   4.408  1.6936  1.4254 -0.9306
 4429SOL     OW16178   7.397   8.150   7.801  0.3026  0.3249  0.4092
 4429SOL    HW116179   7.364   8.215   7.739  3.3172  1.0372 -0.6196
 4429SOL    HW216180   7.438   8.201   7.871  0.3791 -0.4752  0.9656
 4430SOL     OW16181   1.157   5.441   0.178  0.7551 -0.4506  0.3647
 4430SOL    HW116182   1.219   5.507   0.211  0.3911 -0.3449  0.8398
 4430SOL    HW216183   1.211   5.383   0.124  1.1011  0.1756  0.0219
 4431SOL     OW16184   2.469   7.885   5.580  0.0895  0.5251 -0.5381
 4431SOL    HW116185   2.483   7.974   5.546  0.7035  1.1364  1.1592
 4431SOL    HW216186   2.374   7.876   5.587  0.0099  2.2762  2.0867
 4432SOL     OW16187   5.349   3.016   5.527 -0.2019 -0.2507  0.1181
 4432SOL    HW116188   5.354   2.940   5.585 -0.9590 -0.5912 -0.2395
 4432SOL    HW216189   5.255   3.034   5.519 -0.1691 -0.6486 -1.5548
 4433SOL     OW16190   5.835   8.087   5.493  0.5281 -0.4823 -0.4922
 4433SOL    HW116191   5.767   8.038   5.539 -1.1342  1.0210 -1.2103
 4433SOL    HW216192   5.839   8.171   5.538  0.3997  0.2162 -1.7264
 4434SOL     OW16193   3.097   1.129   5.547  0.1725  0.0386 -0.1859
 4434SOL    HW116194   3.107   1.189   5.473  0.8971  0.2075  0.0367
 4434SOL    HW216195   3.157   1.057   5.526  3.0376  1.6420  1.7708
 4435SOL     OW16196   3.090   1.513   6.795 -0.3224 -0.6080 -0.7151
 4435SOL    HW116197   3.157   1.476   6.854 -0.2434  0.0967 -0.3479
 4435SOL    HW216198   3.019   1.538   6.854 -0.6283 -0.7344 -1.0323
 4436SOL     OW16199   6.983   2.859   6.064  0.2172 -0.2526  0.4844
 4436SOL    HW116200   7.014   2.832   5.978 -1.2658 -0.5824  0.0354
 4436SOL    HW216201   7.063   2.873   6.114  1.1034 -0.4592 -0.8107
 4437SOL     OW16202   7.069   6.675   9.040 -0.0526 -0.4238 -0.1676
 4437SOL    HW116203   7.163   6.687   9.029 -0.1167  0.8238  0.5441
 4437SOL    HW216204   7.058   6.658   9.133 -0.5089 -1.0014 -0.3176
 4438SOL     OW16205   7.352   7.150   8.849  0.1633 -0.0949  0.7115
 4438SOL    HW116206   7.273   7.100   8.869 -0.5036  0.8256  0.4475
 4438SOL    HW216207   7.372   7.197   8.930  1.2684 -1.3781  1.2261
 4439SOL     OW16208   3.393   2.542   2.311  0.8683  0.3650 -0.3662
 4439SOL    HW116209   3.349   2.505   2.388  2.2309 -0.8910 -0.1466
 4439SOL    HW216210   3.330   2.603   2.274 -0.0843  0.4784  1.3568
 4440SOL     OW16211   2.577   6.651   2.649 -0.5436 -0.5550  0.2939
 4440SOL    HW116212   2.593   6.560   2.673 -0.7396 -1.0896 -1.4537
 4440SOL    HW216213   2.611   6.702   2.723  1.1821 -1.9621  0.5388
 4441SOL     OW16214   7.042   3.147   7.771  0.2506  0.2908 -0.2758
 4441SOL    HW116215   7.003   3.089   7.706 -0.2303  0.6987 -0.3562
 4441SOL    HW216216   6.981   3.220   7.778  0.1869  0.1524  0.7929
 4442SOL     OW16217   4.013   7.623   4.264  0.5955  0.3823  0.2622
 4442SOL    HW116218   4.007   7.719   4.260 -0.3597  0.3980  1.2820
 4442SOL    HW216219   4.059   7.606   4.346  0.7589 -0.0261  0.0832
 4443SOL     OW16220   5.238   8.891   4.069  0.0679 -0.1810 -0.3934
 4443SOL    HW116221   5.227   8.817   4.010 -0.8886  0.4876 -1.0912
 4443SOL    HW216222   5.254   8.965   4.011 -1.1194  0.5348  0.1519
 4444SOL     OW16223   6.080   4.876   6.295  0.0280 -0.2181  0.1231
 4444SOL    HW116224   6.031   4.813   6.241  2.7177 -1.2743 -1.2581
 4444SOL    HW216225   6.034   4.959   6.281 -2.1707 -1.3478  0.0475
 4445SOL     OW16226   2.759   2.555   3.802  0.3703 -0.2921 -0.0630
 4445SOL    HW116227   2.718   2.606   3.732 -1.7068 -0.6263  0.8184
 4445SOL    HW216228   2.726   2.595   3.883  2.2623 -0.2749  0.7347
 4446SOL     OW16229   4.633   3.177   2.750  0.9569 -0.2843 -0.3672
 4446SOL    HW116230   4.638   3.123   2.829  0.2640 -0.5135 -0.4766
 4446SOL    HW216231   4.647   3.267   2.782 -1.8356 -0.0377  0.4517
 4447SOL     OW16232   6.132   6.187   8.236  0.3965 -0.0227  0.4087
 4447SOL    HW116233   6.225   6.205   8.229  0.4741 -0.5293  0.0802
 4447SOL    HW216234   6.124   6.093   8.218 -0.2774  0.1948 -0.5055
 4448SOL     OW16235   4.486   5.555   3.576  0.1690  0.2854  0.4856
 4448SOL    HW116236   4.473   5.587   3.487 -1.2085  0.8061  0.8508
 4448SOL    HW216237   4.415   5.492   3.589  0.5338 -0.0030  1.1165
 4449SOL     OW16238   8.870   7.226   1.262 -0.4270 -0.0916  0.3777
 4449SOL    HW116239   8.834   7.211   1.174 -1.7698  2.6310  0.3857
 4449SOL    HW216240   8.955   7.268   1.245  0.3808 -1.6189  0.4265
 4450SOL     OW16241   7.349   5.259   2.992 -0.0267  0.1584 -0.5449
 4450SOL    HW116242   7.281   5.310   2.947 -0.9853 -1.1126 -0.6058
 4450SOL    HW216243   7.303   5.182   3.025  1.5260 -1.1676 -1.2971
 4451SOL     OW16244   1.173   3.661   3.720  0.3079 -0.2783 -0.5160
 4451SOL    HW116245   1.186   3.606   3.797 -0.2526  1.1923  0.6762
 4451SOL    HW216246   1.259   3.699   3.702  0.0796  0.7710  0.5148
 4452SOL     OW16247   4.169   6.467   4.993 -0.4477  0.2196 -0.6577
 4452SOL    HW116248   4.164   6.487   5.087 -3.0986  0.0603 -0.7035
 4452SOL    HW216249   4.214   6.543   4.955  0.3577  0.4464  0.6779
 4453SOL     OW16250   4.804   7.162   1.256 -0.7368  0.2873 -0.0876
 4453SOL    HW116251   4.820   7.249   1.293 -1.2473  0.7616 -0.9650
 4453SOL    HW216252   4.821   7.102   1.329 -0.0457  1.0930  0.4373
 4454SOL     OW16253   3.584   0.787   6.523 -0.2539  0.0134 -0.1729
 4454SOL    HW116254   3.663   0.754   6.567  0.1166 -0.9390 -1.5129
 4454SOL    HW216255   3.580   0.879   6.549  1.4989  0.1722 -0.3330
 4455SOL     OW16256   4.437   6.413   6.747 -0.4862  0.1218  0.0083
 4455SOL    HW116257   4.528   6.411   6.778 -0.7672  0.5364  0.9108
 4455SOL    HW216258   4.442   6.444   6.657  0.2996 -0.2319 -0.0732
 4456SOL     OW16259   6.281   4.830   8.220  0.1783  0.3607 -0.1231
 4456SOL    HW116260   6.273   4.768   8.148  0.4534  1.2534 -0.9505
 4456SOL    HW216261   6.203   4.817   8.273 -1.2214  1.2721 -1.8703
 4457SOL     OW16262   2.626   5.799   8.528  0.0608  0.2366 -0.1608
 4457SOL    HW116263   2.618   5.753   8.611 -1.6822 -0.1753 -0.5261
 4457SOL    HW216264   2.651   5.731   8.465  0.6881  0.4164 -0.1119
 4458SOL     OW16265   5.803   1.168   0.255  0.5446  0.1302  0.1356
 4458SOL    HW116266   5.753   1.213   0.188  3.0170  1.8718 -0.6785
 4458SOL    HW216267   5.824   1.083   0.217 -0.0773  0.1616 -0.2930
 4459SOL     OW16268   6.608   0.363   5.072  0.2981 -0.0637  0.0365
 4459SOL    HW116269   6.593   0.442   5.124 -0.6543 -0.0717 -0.2128
 4459SOL    HW216270   6.694   0.377   5.032  0.6786  0.2993  0.9641
 4460SOL     OW16271   2.616   1.532   7.190 -0.5009  0.6548  0.0297
 4460SOL    HW116272   2.676   1.586   7.241  1.0738  0.6134 -1.6340
 4460SOL    HW216273   2.576   1.474   7.253  0.2036  1.6105  1.4111
 4461SOL     OW16274   3.350   1.769   4.445  0.7140  0.2814 -0.1054
 4461SOL    HW116275   3.269   1.799   4.485  0.6594  1.3194 -0.9515
 4461SOL    HW216276   3.412   1.841   4.458  1.0483  0.1243 -0.7795
 4462SOL     OW16277   3.162   7.366   7.664  0.0013 -0.1105 -0.1358
 4462SOL    HW116278   3.251   7.378   7.633 -0.0931  1.5695  0.1603
 4462SOL    HW216279   3.157   7.273   7.689  1.2426 -0.5459 -1.3859
 4463SOL     OW16280   0.149   8.217   4.863 -0.1371 -0.4118  0.1656
 4463SOL    HW116281   0.196   8.134   4.877 -0.9237 -1.0594 -0.8634
 4463SOL    HW216282   0.107   8.206   4.778 -0.1618  1.1114 -0.0381
 4464SOL     OW16283   3.455   0.142   4.788  0.6686  0.1695 -0.4383
 4464SOL    HW116284   3.433   0.172   4.699  0.0481  0.5233 -0.1723
 4464SOL    HW216285   3.462   0.222   4.840 -1.0747 -0.0891  0.2897
 4465SOL     OW16286   8.000   1.107   6.818  0.1846  0.0474 -0.3448
 4465SOL    HW116287   7.919   1.153   6.794 -0.1895 -0.1821  0.4689
 4465SOL    HW216288   8.041   1.087   6.733  0.8531  2.6980 -0.7281
 4466SOL     OW16289   8.001   3.937   5.122  0.0516 -0.2244 -0.4300
 4466SOL    HW116290   7.978   3.969   5.035  0.9271 -0.7484 -0.8691
 4466SOL    HW216291   8.000   3.841   5.113  2.4228 -0.2950 -0.5156
 4467SOL     OW16292   8.827   3.054   4.461 -0.2935  0.2895  0.5122
 4467SOL    HW116293   8.851   2.968   4.428  0.3816  1.0570 -1.0851
 4467SOL    HW216294   8.842   3.048   4.556  0.8608 -0.9775  0.2792
 4468SOL     OW16295   4.498   2.979   2.341  0.4221  0.1640 -0.5593
 4468SOL    HW116296   4.576   2.999   2.394  0.1934 -0.3065 -0.0383
 4468SOL    HW216297   4.512   3.028   2.260  1.1766  0.2327 -0.4022
 4469SOL     OW16298   4.117   7.144   2.727  0.5398  0.1076 -0.7411
 4469SOL    HW116299   4.134   7.216   2.788 -0.8931 -1.7235  2.0243
 4469SOL    HW216300   4.048   7.176   2.670 -0.1062  0.9406  0.4812
 4470SOL     OW16301   5.263   6.765   1.981 -0.2116 -0.0526  0.0588
 4470SOL    HW116302   5.241   6.787   2.071  0.6666 -0.3003  0.3446
 4470SOL    HW216303   5.331   6.828   1.957  0.9102 -1.1724  0.2215
 4471SOL     OW16304   0.731   1.571   2.541  0.3269 -0.3144 -0.5720
 4471SOL    HW116305   0.718   1.588   2.634 -2.3507 -1.3353 -0.6551
 4471SOL    HW216306   0.680   1.639   2.497  1.3691  0.0157 -1.2922
 4472SOL     OW16307   4.716   6.192   2.256 -0.0850  0.4480  0.1362
 4472SOL    HW116308   4.688   6.232   2.174 -0.8389  0.1644  0.2460
 4472SOL    HW216309   4.716   6.264   2.319  1.2754  0.8361 -0.2725
 4473SOL     OW16310   7.617   0.037   8.246  0.0393 -0.0332  0.2887
 4473SOL    HW116311   7.648  -0.052   8.234 -0.3526 -0.1687  0.2665
 4473SOL    HW216312   7.546   0.047   8.183  0.9708  0.7431 -0.6783
 4474SOL     OW16313   0.240   1.834   6.487  0.3017 -0.8047 -0.3447
 4474SOL    HW116314   0.149   1.821   6.510  0.3734 -0.7413 -0.0254
 4474SOL    HW216315   0.286   1.837   6.570  0.7306 -1.8040 -0.5224
 4475SOL     OW16316   0.434   3.486   8.871 -0.2289  0.7201  0.0837
 4475SOL    HW116317   0.398   3.519   8.788 -0.1254 -1.0715 -0.7159
 4475SOL    HW216318   0.358   3.482   8.930 -0.3791  1.6296 -0.0352
 4476SOL     OW16319   1.475   7.478   5.730 -0.2005 -0.6204 -0.4987
 4476SOL    HW116320   1.490   7.504   5.639  0.4229  2.0226  0.2857
 4476SOL    HW216321   1.382   7.456   5.733  0.0366 -2.1624 -2.0179
 4477SOL     OW16322   6.898   6.312   6.752  0.2116  0.4761 -0.1543
 4477SOL    HW116323   6.932   6.358   6.828  3.3169 -4.7034  2.1492
 4477SOL    HW216324   6.811   6.281   6.778 -0.0603  1.3479 -0.0187
 4478SOL     OW16325   6.028   6.798   6.495  0.7796 -0.2841  0.6550
 4478SOL    HW116326   6.014   6.847   6.414  1.4076  1.5459  1.6097
 4478SOL    HW216327   6.008   6.707   6.471 -0.5569  0.4166 -1.1445
 4479SOL     OW16328   7.849   1.220   5.058  0.0757 -0.4643 -0.0910
 4479SOL    HW116329   7.878   1.217   5.150 -1.3107 -2.5021  0.3409
 4479SOL    HW216330   7.772   1.164   5.055 -1.3084  1.3877 -2.0647
 4480SOL     OW16331   1.492   1.406   4.995 -0.2814  0.3822 -0.6112
 4480SOL    HW116332   1.417   1.362   5.037  1.2763 -1.1497  0.7070
 4480SOL    HW216333   1.464   1.419   4.904 -3.0078  1.9626  0.3354
 4481SOL     OW16334   4.648   8.761   8.007 -0.6978  0.2333 -0.2161
 4481SOL    HW116335   4.707   8.836   8.001  0.4348 -0.4507  1.7071
 4481SOL    HW216336   4.560   8.799   8.009 -0.1832  1.4454 -0.1996
 4482SOL     OW16337   2.913   5.354   3.638 -0.1803  0.0154 -0.1144
 4482SOL    HW116338   2.876   5.363   3.726  1.0329  1.7170  0.2894
 4482SOL    HW216339   2.838   5.340   3.581 -1.1551  0.5606  0.9979
 4483SOL     OW16340   0.055   1.171   4.816  0.1817  0.1215  0.0603
 4483SOL    HW116341   0.002   1.092   4.828  1.4544 -0.9633 -1.1267
 4483SOL    HW216342  -0.007   1.237   4.784 -0.5958 -0.8907 -0.5700
 4484SOL     OW16343   5.455   6.949   8.305  0.4438 -0.0087 -0.3721
 4484SOL    HW116344   5.373   6.927   8.348  1.0038  0.0104  0.7383
 4484SOL    HW216345   5.498   7.011   8.364  1.3536 -0.1849 -0.8247
 4485SOL     OW16346   4.653   7.142   1.905 -0.1659  0.2792  0.4725
 4485SOL    HW116347   4.605   7.091   1.970 -0.4224 -0.3849 -0.2219
 4485SOL    HW216348   4.705   7.204   1.956  2.5542 -2.6534  1.6394
 4486SOL     OW16349   6.362   1.058   2.498 -0.0503 -0.0959  0.4352
 4486SOL    HW116350   6.383   0.972   2.461 -0.1364 -0.3342  0.9302
 4486SOL    HW216351   6.422   1.118   2.455  0.4084 -0.4970  0.5131
 4487SOL     OW16352   8.788   1.377   5.915  0.1243 -0.4805 -0.4818
 4487SOL    HW116353   8.723   1.430   5.869  0.1334 -1.9173 -2.2742
 4487SOL    HW216354   8.863   1.375   5.855  0.4011 -1.8493 -0.1269
 4488SOL     OW16355   5.266   1.197   7.053 -0.0556 -0.3008  0.0387
 4488SOL    HW116356   5.347   1.147   7.052  0.9504  1.2424  0.7511
 4488SOL    HW216357   5.230   1.187   6.965  2.2314  1.0219 -1.1190
 4489SOL     OW16358   8.839   5.999   3.106  0.3083 -0.2688  1.3683
 4489SOL    HW116359   8.854   5.971   3.196 -1.5163 -0.9070  1.5066
 4489SOL    HW216360   8.795   6.083   3.114  1.0727  0.1830  1.0237
 4490SOL     OW16361   8.324   0.356   7.653 -0.4195 -0.5259  0.8492
 4490SOL    HW116362   8.344   0.277   7.704 -1.3345 -0.6649  1.0107
 4490SOL    HW216363   8.274   0.324   7.578  1.6652 -0.4379 -0.6591
 4491SOL     OW16364   1.435   1.219   8.178  0.4901  0.1482  0.0575
 4491SOL    HW116365   1.405   1.259   8.096  1.6527 -2.2711 -1.6974
 4491SOL    HW216366   1.516   1.266   8.199  1.2719 -0.4800 -1.3678
 4492SOL     OW16367   6.662   0.829   7.732 -0.4557  0.4860  0.2964
 4492SOL    HW116368   6.715   0.883   7.674  0.5158 -0.6079  0.1283
 4492SOL    HW216369   6.572   0.851   7.708 -0.0823  1.4307 -0.3181
 4493SOL     OW16370   6.774   1.342   8.782 -0.3160 -0.2927  0.1156
 4493SOL    HW116371   6.801   1.422   8.737 -0.9316  0.2735  0.7323
 4493SOL    HW216372   6.853   1.287   8.782 -0.4966 -0.6544 -2.3195
 4494SOL     OW16373   6.472   5.674   8.501  0.9460 -0.2709 -0.3458
 4494SOL    HW116374   6.480   5.608   8.570  0.1813 -1.5039 -1.3905
 4494SOL    HW216375   6.398   5.729   8.528 -0.7705 -2.0694 -1.1800
 4495SOL     OW16376   9.171   0.102   3.285  0.2444  0.3017 -0.0356
 4495SOL    HW116377   9.099   0.110   3.222  0.2322 -0.8259 -0.1861
 4495SOL    HW216378   9.204   0.192   3.296 -0.7720  0.7343 -0.4427
 4496SOL     OW16379   1.178   1.900   4.314 -0.2413 -0.0865 -0.1604
 4496SOL    HW116380   1.182   1.805   4.300 -0.0705 -0.2478  0.8639
 4496SOL    HW216381   1.133   1.935   4.237 -1.0494 -1.0887 -0.1576
 4497SOL     OW16382   7.674   8.753   0.917  0.1933  0.0219 -0.2689
 4497SOL    HW116383   7.692   8.739   0.824  1.5703  0.5852 -0.1063
 4497SOL    HW216384   7.662   8.847   0.926 -0.1320 -0.0512  0.1015
 4498SOL     OW16385   1.088   2.546   2.899 -0.2481  0.1949  0.0147
 4498SOL    HW116386   1.139   2.466   2.883 -1.5006 -0.7137  0.3906
 4498SOL    HW216387   1.112   2.604   2.827  0.6556 -0.5353 -0.3035
 4499SOL     OW16388   5.308   7.777   9.005  0.2626  0.0366  0.3584
 4499SOL    HW116389   5.296   7.795   8.912  0.4574  0.8302  0.4729
 4499SOL    HW216390   5.394   7.734   9.010  0.8922  1.2397  0.2955
 4500SOL     OW16391   7.920   7.205   4.325 -0.1078 -0.3207 -0.0609
 4500SOL    HW116392   8.005   7.163   4.339 -0.5640 -0.3189  3.8021
 4500SOL    HW216393   7.935   7.298   4.345 -0.8362 -0.1470 -0.2819
 4501SOL     OW16394   3.409   7.725   7.249 -0.3031  0.0436  0.3620
 4501SOL    HW116395   3.385   7.815   7.227  3.0815  0.7909 -0.9363
 4501SOL    HW216396   3.374   7.712   7.337 -1.4196  2.3899  0.3646
 4502SOL     OW16397   1.259   1.710   6.536  0.0502  0.1239 -0.3212
 4502SOL    HW116398   1.258   1.731   6.443 -0.2649  1.7237  0.0217
 4502SOL    HW216399   1.208   1.629   6.543 -1.0223  0.6869 -1.3771
 4503SOL     OW16400   7.069   1.455   6.533 -0.1781  0.5605 -0.1783
 4503SOL    HW116401   7.101   1.533   6.487 -0.6178  0.5335 -0.5269
 4503SOL    HW216402   6.988   1.483   6.574 -1.2526 -0.1621 -1.7111
 4504SOL     OW16403   8.115   8.775   1.866 -0.0524 -0.0178  0.2621
 4504SOL    HW116404   8.055   8.704   1.846  1.8411 -0.8480 -3.4379
 4504SOL    HW216405   8.202   8.739   1.848  1.2555  2.2851  1.4706
 4505SOL     OW16406   0.866   6.016   4.776  0.5243 -0.3985 -0.4940
 4505SOL    HW116407   0.882   6.015   4.871  0.7739 -3.5896 -0.4636
 4505SOL    HW216408   0.942   6.062   4.740  1.7586 -1.3526  0.7415
 4506SOL     OW16409   1.205   6.938   2.869  0.7655  0.0977  0.3227
 4506SOL    HW116410   1.160   6.965   2.949  1.2557  2.4319 -0.1298
 4506SOL    HW216411   1.232   6.848   2.887 -0.3238  0.0849  2.2369
 4507SOL     OW16412   1.001   0.555   5.158  0.2995 -0.6520 -0.2590
 4507SOL    HW116413   0.953   0.476   5.185  0.7592 -0.7215  0.3566
 4507SOL    HW216414   1.092   0.537   5.181  0.5117 -0.2110 -0.7407
 4508SOL     OW16415   3.106   0.049   0.116 -0.1807 -0.8578 -0.2048
 4508SOL    HW116416   3.063   0.037   0.201 -2.2848  2.8979 -0.4786
 4508SOL    HW216417   3.199   0.060   0.138 -1.0077  4.0269  2.4974
 4509SOL     OW16418   1.363   2.242   1.748  0.4083 -0.2471 -0.6304
 4509SOL    HW116419   1.390   2.159   1.708  0.6390 -0.3134 -0.3465
 4509SOL    HW216420   1.377   2.229   1.842  1.3428  0.4238 -0.6518
 4510SOL     OW16421   2.168   2.596   0.191  0.4633 -0.8853 -0.5832
 4510SOL    HW116422   2.200   2.618   0.279 -1.3610 -0.4013  0.0042
 4510SOL    HW216423   2.208   2.662   0.134 -0.2215  0.3065  0.2654
 4511SOL     OW16424   2.898   5.343   4.772  0.0915  0.5971  0.2746
 4511SOL    HW116425   2.923   5.272   4.832  0.6365 -0.8373 -1.5541
 4511SOL    HW216426   2.915   5.423   4.821  2.3458 -0.4710  1.3817
 4512SOL     OW16427   4.012   2.160   3.120 -0.4433 -0.4546 -0.2999
 4512SOL    HW116428   3.926   2.200   3.107 -0.3657 -0.7794 -1.9532
 4512SOL    HW216429   3.994   2.078   3.166 -0.6645  1.0438  2.5231
 4513SOL     OW16430   5.621   5.813   0.305  0.1135  0.0658 -0.3257
 4513SOL    HW116431   5.529   5.795   0.284 -0.2044  0.1271  0.9571
 4513SOL    HW216432   5.659   5.727   0.322  0.0772  0.1081 -0.0245
 4514SOL     OW16433   5.640   7.415   4.095 -0.0832 -0.1624  0.1600
 4514SOL    HW116434   5.651   7.439   4.188 -1.4267  2.7004 -0.3111
 4514SOL    HW216435   5.721   7.445   4.053 -0.0862 -0.1312  0.1768
 4515SOL     OW16436   8.687   9.073   3.435  0.3196  0.7077  0.3422
 4515SOL    HW116437   8.658   9.028   3.514 -1.8904  2.3778  0.5741
 4515SOL    HW216438   8.620   9.051   3.369  0.6796  1.4777 -0.2930
 4516SOL     OW16439   3.548   4.866   7.834 -0.5738 -0.3421  0.4084
 4516SOL    HW116440   3.493   4.895   7.907 -1.1659  0.1062 -0.2073
 4516SOL    HW216441   3.619   4.930   7.830 -1.5625  0.7344 -0.5788
 4517SOL     OW16442   0.026   4.744   2.781 -0.5477 -0.0957  0.0246
 4517SOL    HW116443   0.034   4.808   2.710 -1.6739 -0.0131 -0.0536
 4517SOL    HW216444  -0.002   4.663   2.737 -0.0372 -0.3906  0.2341
 4518SOL     OW16445   1.421   0.478   6.352  0.8999  0.6118  0.7090
 4518SOL    HW116446   1.349   0.420   6.376  1.7428 -0.9266 -0.3259
 4518SOL    HW216447   1.383   0.566   6.354 -0.5943 -0.0186  1.6427
 4519SOL     OW16448   6.459   4.724   8.008 -0.1409  0.4758  0.1235
 4519SOL    HW116449   6.466   4.819   8.003  0.3593  0.5168  1.3163
 4519SOL    HW216450   6.500   4.693   7.927 -0.8234  1.2755 -0.5440
 4520SOL     OW16451   5.821   2.455   6.539 -0.4394 -0.2461  0.2929
 4520SOL    HW116452   5.732   2.465   6.505 -0.3644  0.5279  0.3128
 4520SOL    HW216453   5.812   2.472   6.633 -0.1751  0.4389  0.2006
 4521SOL     OW16454   3.250   4.025   2.668  0.4339  0.3551  0.2211
 4521SOL    HW116455   3.239   3.934   2.641  1.1327  0.1836  0.5050
 4521SOL    HW216456   3.334   4.051   2.631  2.0064 -0.2464  3.1067
 4522SOL     OW16457   1.436   4.253   1.867 -0.4007  1.0578  0.1874
 4522SOL    HW116458   1.355   4.271   1.821 -0.0356  0.6650 -0.6227
 4522SOL    HW216459   1.494   4.326   1.846  0.7463 -0.4404 -2.3227
 4523SOL     OW16460   3.967   0.871   0.798 -0.0321 -0.0765 -0.0869
 4523SOL    HW116461   3.929   0.800   0.851  1.6495 -0.4169  0.7484
 4523SOL    HW216462   4.019   0.826   0.732 -0.5707  0.3831 -0.8387
 4524SOL     OW16463   2.162   8.441   8.457 -0.0958 -0.0699  0.2159
 4524SOL    HW116464   2.161   8.363   8.402 -0.7964 -0.2786  0.5177
 4524SOL    HW216465   2.255   8.463   8.466  0.1023 -0.8284  0.0743
 4525SOL     OW16466   7.321   0.687   8.923 -0.1800  0.1988 -0.2161
 4525SOL    HW116467   7.256   0.683   8.994  0.6300 -0.1752  0.5268
 4525SOL    HW216468   7.351   0.596   8.913 -0.0822  0.2987 -0.8398
 4526SOL     OW16469   5.550   6.888   9.056 -0.0883 -0.1120  0.4269
 4526SOL    HW116470   5.622   6.825   9.059  1.0859  1.1895  0.6074
 4526SOL    HW216471   5.577   6.952   8.990 -0.7651  0.7682  0.9829
 4527SOL     OW16472   2.964   4.712   5.743  0.0423  0.0593  0.2920
 4527SOL    HW116473   2.990   4.658   5.668  2.0527 -1.3948  1.9345
 4527SOL    HW216474   3.036   4.773   5.755 -1.1269  1.5492 -0.0607
 4528SOL     OW16475   7.993   1.944   8.222 -0.0897  0.0011  0.0621
 4528SOL    HW116476   8.020   1.919   8.311  1.0682  3.3093  0.7793
 4528SOL    HW216477   8.068   1.923   8.167 -0.2310 -0.6874  0.1294
 4529SOL     OW16478   8.231   0.481   4.246  0.1534  0.1393 -0.0041
 4529SOL    HW116479   8.182   0.401   4.227 -0.1438  0.7855 -2.2137
 4529SOL    HW216480   8.297   0.485   4.177 -1.2429  2.8724 -1.3391
 4530SOL     OW16481   3.975   2.390   0.135  0.4335  0.5645  0.3668
 4530SOL    HW116482   3.980   2.406   0.229 -0.6529  0.7104  0.4138
 4530SOL    HW216483   3.940   2.471   0.099  1.5540  0.7888 -0.2715
 4531SOL     OW16484   2.900   0.914   1.236  0.1993  0.4315 -0.1277
 4531SOL    HW116485   2.837   0.842   1.239 -1.7915  2.0188 -1.2352
 4531SOL    HW216486   2.942   0.913   1.322  0.1517 -1.9095 -0.0616
 4532SOL     OW16487   4.892   6.472   9.260 -0.1182 -0.1039 -0.1907
 4532SOL    HW116488   4.855   6.548   9.216 -1.8198 -0.8805 -0.1860
 4532SOL    HW216489   4.899   6.499   9.352 -3.5035 -0.8095  0.4044
 4533SOL     OW16490   7.969   1.448   0.821  0.0081 -0.2591 -0.0776
 4533SOL    HW116491   7.925   1.514   0.767 -0.8575 -1.1318 -0.4745
 4533SOL    HW216492   7.908   1.430   0.892  0.9166  0.4949  0.9228
 4534SOL     OW16493   6.170   0.154   0.197 -0.4686 -0.0335  0.3669
 4534SOL    HW116494   6.138   0.081   0.251 -0.9472  0.2379  0.4562
 4534SOL    HW216495   6.097   0.216   0.195 -0.7798 -0.4009 -1.2752
 4535SOL     OW16496   7.067   3.281   6.535 -0.0469  0.0809 -0.3638
 4535SOL    HW116497   7.072   3.372   6.506  1.7520 -0.1612 -0.9356
 4535SOL    HW216498   7.154   3.246   6.518 -0.7334 -1.7848 -0.2286
 4536SOL     OW16499   6.929   4.592   4.656  0.2081  0.1531  0.3484
 4536SOL    HW116500   6.965   4.681   4.663 -1.6814  0.9455  0.4865
 4536SOL    HW216501   6.984   4.549   4.590  2.9525  0.4504  2.2602
 4537SOL     OW16502   3.995   7.453   5.504  0.0004 -0.0705 -0.2159
 4537SOL    HW116503   4.051   7.530   5.491  1.6733 -1.4082 -1.5207
 4537SOL    HW216504   3.915   7.474   5.457  0.0775  1.1920  0.1621
 4538SOL     OW16505   4.918   7.696   7.240  0.2103 -0.4736  0.0590
 4538SOL    HW116506   4.852   7.743   7.291 -0.0099  1.1642 -1.5970
 4538SOL    HW216507   5.001   7.718   7.282 -0.1532 -1.2270  1.1939
 4539SOL     OW16508   1.886   2.355   6.287  0.1147 -0.1088 -0.6116
 4539SOL    HW116509   1.821   2.285   6.284 -0.4432  0.3478  0.3493
 4539SOL    HW216510   1.934   2.341   6.369 -1.0383  1.4903  0.4007
 4540SOL     OW16511   0.878   7.432   7.009 -0.1730 -0.0964  0.1578
 4540SOL    HW116512   0.971   7.409   7.002 -0.2193 -0.7986  1.4789
 4540SOL    HW216513   0.873   7.482   7.091 -0.8862  0.3788 -0.1726
 4541SOL     OW16514   2.553   6.853   4.865 -0.0030 -0.4865  0.1015
 4541SOL    HW116515   2.502   6.923   4.825  0.2221  0.7453  1.8629
 4541SOL    HW216516   2.641   6.890   4.875  0.0804 -0.9420  1.2164
 4542SOL     OW16517   0.266   4.920   3.324 -0.2234 -0.3101 -0.6060
 4542SOL    HW116518   0.191   4.906   3.266 -0.8145  0.9734 -0.1711
 4542SOL    HW216519   0.310   4.835   3.327 -1.2931 -0.9084 -1.3774
 4543SOL     OW16520   6.438   8.464   7.571 -0.2293  0.4847  0.5141
 4543SOL    HW116521   6.383   8.474   7.494 -1.9984 -0.5335  1.5930
 4543SOL    HW216522   6.504   8.400   7.545 -0.1294  0.9601 -0.4705
 4544SOL     OW16523   0.151   5.248   7.759 -0.7459 -0.0478  0.5278
 4544SOL    HW116524   0.116   5.230   7.672 -1.8526  2.3668  0.3875
 4544SOL    HW216525   0.094   5.317   7.794  2.1092  2.0442  1.4592
 4545SOL     OW16526   4.920   6.036   2.343  0.5336  0.2858 -0.0482
 4545SOL    HW116527   4.963   6.112   2.381  0.1787 -0.2358  1.4775
 4545SOL    HW216528   4.838   6.070   2.305  1.8808  1.1671 -2.3837
 4546SOL     OW16529   3.433   2.207   3.521  0.4291  0.0478  0.4813
 4546SOL    HW116530   3.343   2.192   3.493  1.1625 -3.6789 -0.4347
 4546SOL    HW216531   3.442   2.156   3.601  1.7147  0.4270  0.6009
 4547SOL     OW16532   5.603   2.691   0.069 -0.0627  0.0128  0.2473
 4547SOL    HW116533   5.544   2.655   0.135 -1.4446  0.8086 -0.5099
 4547SOL    HW216534   5.685   2.708   0.116 -1.3369  1.5449  2.0024
 4548SOL     OW16535   2.954   5.677   4.350  0.2665  0.6394 -0.0918
 4548SOL    HW116536   2.928   5.665   4.442 -0.7668  3.5447  0.1191
 4548SOL    HW216537   3.044   5.711   4.355  0.3931  0.3241 -0.1991
 4549SOL     OW16538   7.596   1.350   3.328 -0.1338 -0.0413 -1.1858
 4549SOL    HW116539   7.558   1.366   3.414  0.6796  0.4417 -0.9011
 4549SOL    HW216540   7.555   1.268   3.299 -1.2270  0.3572 -0.8243
 4550SOL     OW16541   0.611   8.412   4.210 -0.3623 -0.2706 -0.3872
 4550SOL    HW116542   0.644   8.388   4.124 -0.0712 -1.6824  0.0916
 4550SOL    HW216543   0.530   8.361   4.219 -1.0477  0.8061 -0.3103
 4551SOL     OW16544   2.029   3.386   2.744  0.1904 -0.4915 -0.4989
 4551SOL    HW116545   1.981   3.437   2.679 -0.0192 -1.1482 -0.8774
 4551SOL    HW216546   1.961   3.349   2.801  0.2513 -1.2229 -0.8867
 4552SOL     OW16547   7.736   5.371   2.691  0.4993 -0.2608 -0.5786
 4552SOL    HW116548   7.677   5.308   2.730  1.0132 -0.7325 -0.5485
 4552SOL    HW216549   7.817   5.363   2.742  0.6119  0.3284 -0.6556
 4553SOL     OW16550   6.144   5.781   7.080 -0.1283  0.0156  0.5873
 4553SOL    HW116551   6.057   5.787   7.040  0.8812  2.3148 -1.5287
 4553SOL    HW216552   6.128   5.791   7.174 -2.0893  0.8024  0.2233
 4554SOL     OW16553   1.133   3.738   4.178  0.0846 -0.3132  0.7276
 4554SOL    HW116554   1.074   3.735   4.103  0.3978 -0.9065  0.4997
 4554SOL    HW216555   1.096   3.675   4.240  0.2761 -0.4256  0.7295
 4555SOL     OW16556   7.864   3.442   1.196 -0.2257  0.1496 -0.4798
 4555SOL    HW116557   7.899   3.374   1.253 -1.6176  0.4897  0.8552
 4555SOL    HW216558   7.777   3.461   1.232 -0.9277  0.7967 -2.3848
 4556SOL     OW16559   1.816   5.157   5.995 -0.1295  0.2748  0.4395
 4556SOL    HW116560   1.727   5.173   6.026  0.1464 -0.7461  1.8747
 4556SOL    HW216561   1.869   5.226   6.035  0.0778 -0.5008  1.5468
 4557SOL     OW16562   2.509   2.707   4.235 -0.1620 -0.6453 -0.8662
 4557SOL    HW116563   2.416   2.697   4.218 -0.1981 -1.3123 -0.3402
 4557SOL    HW216564   2.529   2.797   4.211 -1.1351 -0.2234 -0.1431
 4558SOL     OW16565   7.243   7.149   8.395  0.2236 -0.3073  0.0527
 4558SOL    HW116566   7.270   7.058   8.403 -0.8737 -0.5777  0.9647
 4558SOL    HW216567   7.196   7.167   8.477 -1.5281  0.3783 -1.0573
 4559SOL     OW16568   3.982   7.312   1.519  0.1976 -0.1947  0.2886
 4559SOL    HW116569   4.034   7.310   1.438 -1.3016 -1.4961 -0.6954
 4559SOL    HW216570   3.911   7.373   1.500  0.1228 -0.1066  0.8329
 4560SOL     OW16571   8.725   7.979   3.281  0.3505  0.5315 -0.1433
 4560SOL    HW116572   8.672   7.905   3.311  0.0184  0.4226 -0.9627
 4560SOL    HW216573   8.661   8.048   3.260  0.1414 -0.5753 -3.9908
 4561SOL     OW16574   8.379   7.797   4.297 -0.1847  0.3422  0.1836
 4561SOL    HW116575   8.452   7.775   4.355 -1.4517 -2.1032  0.9963
 4561SOL    HW216576   8.416   7.795   4.209  0.9411  0.1540  0.6500
 4562SOL     OW16577   4.599   0.692   8.673  0.1188  0.5685  0.0183
 4562SOL    HW116578   4.531   0.643   8.720 -0.5190 -0.2132 -1.6312
 4562SOL    HW216579   4.678   0.639   8.683 -0.4611 -0.6282 -1.3687
 4563SOL     OW16580   7.493   0.658   4.521  0.1922 -0.2959  0.0736
 4563SOL    HW116581   7.506   0.619   4.435 -0.2110  1.3887 -0.7884
 4563SOL    HW216582   7.572   0.635   4.570  1.2909  0.2612 -1.3663
 4564SOL     OW16583   1.732   3.027   3.079 -0.1337 -0.8997  0.3037
 4564SOL    HW116584   1.647   3.051   3.041  0.9779  1.7069 -0.7869
 4564SOL    HW216585   1.796   3.051   3.012  1.5836 -1.2130  1.7565
 4565SOL     OW16586   8.194   8.009   0.932  0.2468 -0.3778  0.7556
 4565SOL    HW116587   8.221   8.076   0.870 -0.8941  0.8025  1.4823
 4565SOL    HW216588   8.215   7.926   0.889  0.2456  0.4117 -0.8396
 4566SOL     OW16589   5.729   3.973   6.793 -0.1861 -0.1763 -0.6513
 4566SOL    HW116590   5.799   3.939   6.849 -0.0522  1.3290  0.1600
 4566SOL    HW216591   5.739   3.927   6.710  2.0910  0.3455 -0.7367
 4567SOL     OW16592   2.233   6.898   5.550 -0.4503  0.3753 -0.2590
 4567SOL    HW116593   2.278   6.952   5.485 -1.8042  2.3299  0.3469
 4567SOL    HW216594   2.304   6.863   5.605  0.5298  0.8037 -1.2187
 4568SOL     OW16595   6.446   2.237   8.932  0.2775 -0.4078  0.0272
 4568SOL    HW116596   6.359   2.223   8.893  0.9520 -1.8889 -1.0368
 4568SOL    HW216597   6.442   2.192   9.017 -0.2785  0.3526  0.4174
 4569SOL     OW16598   1.605   0.273   2.423 -0.1430 -0.2002 -0.7408
 4569SOL    HW116599   1.534   0.213   2.400 -0.6279 -0.0666  0.3406
 4569SOL    HW216600   1.560   0.354   2.448  0.3023 -0.4626  1.0446
 4570SOL     OW16601   8.351   8.069   8.350  0.3679  0.1768  0.5559
 4570SOL    HW116602   8.284   8.080   8.417 -0.6873 -1.2531 -0.1879
 4570SOL    HW216603   8.380   7.978   8.360 -1.2568 -0.7508 -2.1154
 4571SOL     OW16604   6.862   1.108   4.930 -0.0247 -0.5355  0.5625
 4571SOL    HW116605   6.790   1.121   4.869 -1.0895  2.2554  2.2341
 4571SOL    HW216606   6.938   1.093   4.875 -1.3115 -0.3534 -1.3599
 4572SOL     OW16607   8.415   7.049   8.796  0.0746  0.3053  0.2869
 4572SOL    HW116608   8.326   7.086   8.799  0.6692  1.8749 -0.3845
 4572SOL    HW216609   8.414   6.981   8.863 -1.5623  0.4751  0.4841
 4573SOL     OW16610   5.267   5.392   3.067 -0.3059 -0.0108  0.1827
 4573SOL    HW116611   5.189   5.366   3.018  0.7048 -0.1281 -1.4422
 4573SOL    HW216612   5.275   5.486   3.050  0.1361 -0.0820 -0.0000
 4574SOL     OW16613   2.885   0.119   5.067 -0.1488 -0.2276 -0.5438
 4574SOL    HW116614   2.825   0.079   5.130  0.2421 -1.2310 -0.7895
 4574SOL    HW216615   2.880   0.213   5.085  1.7641 -0.5843  2.6835
 4575SOL     OW16616   0.852   2.696   0.119  0.2775 -0.4793 -0.2855
 4575SOL    HW116617   0.881   2.755   0.189 -0.2689 -0.1617 -0.3253
 4575SOL    HW216618   0.772   2.656   0.152 -1.2303  1.3126 -1.5619
 4576SOL     OW16619   8.900   8.563   7.072  0.1610  0.0198  0.0859
 4576SOL    HW116620   8.839   8.540   7.142 -1.0675  2.2015 -0.1678
 4576SOL    HW216621   8.957   8.629   7.112 -0.6799  1.4296 -0.9559
 4577SOL     OW16622   6.714   5.516   1.523  0.3394 -0.0147 -0.0910
 4577SOL    HW116623   6.758   5.585   1.572 -0.0931 -0.2271  0.6210
 4577SOL    HW216624   6.638   5.559   1.484  1.1788  0.3626 -1.3584
 4578SOL     OW16625   5.339   2.728   2.982  0.3540 -0.4803  0.4914
 4578SOL    HW116626   5.419   2.676   2.983  1.6924  1.4440  1.7804
 4578SOL    HW216627   5.311   2.727   2.891  1.1040 -2.2763  0.2500
 4579SOL     OW16628   7.691   1.950   5.331  0.5394  0.4759  0.1053
 4579SOL    HW116629   7.613   1.962   5.386 -0.0628 -0.9434 -0.3826
 4579SOL    HW216630   7.714   1.858   5.342  0.8325  0.3360 -1.4307
 4580SOL     OW16631   2.949   1.206   0.016  0.7299 -0.6426  0.2920
 4580SOL    HW116632   2.886   1.278   0.006  1.8339  0.2957 -0.0942
 4580SOL    HW216633   2.921   1.161   0.096  0.3010  0.5321  0.8329
 4581SOL     OW16634   7.540   1.477   5.736 -0.2437 -0.5623  0.0008
 4581SOL    HW116635   7.481   1.499   5.808 -0.9239 -1.0426 -0.4031
 4581SOL    HW216636   7.600   1.412   5.772  0.2684  0.1773  0.5103
 4582SOL     OW16637   7.707   2.212   1.200  0.2010 -0.2642  0.4261
 4582SOL    HW116638   7.758   2.278   1.155  0.1203 -1.6267 -1.8424
 4582SOL    HW216639   7.771   2.162   1.250  0.9925 -1.1795 -1.3934
 4583SOL     OW16640   7.238   0.213   5.362 -0.3486 -0.3603 -0.4511
 4583SOL    HW116641   7.241   0.160   5.441  1.9926 -0.0031 -0.2390
 4583SOL    HW216642   7.225   0.302   5.393 -0.6075 -0.3633 -0.5508
 4584SOL     OW16643   6.445   1.242   2.700 -0.7431  0.1758  0.3280
 4584SOL    HW116644   6.375   1.291   2.656  2.1672  3.7434 -0.8768
 4584SOL    HW216645   6.495   1.204   2.628  0.6830  1.0051  0.8422
 4585SOL     OW16646   2.082   4.078   0.237  0.4826  0.6520  0.1884
 4585SOL    HW116647   2.041   4.146   0.290  0.5514  1.1481 -0.3903
 4585SOL    HW216648   2.060   4.101   0.146  0.2703 -0.2490 -0.0004
 4586SOL     OW16649   4.154   1.050   6.001  0.3617 -0.1372  0.2044
 4586SOL    HW116650   4.092   0.988   5.964  0.7243  1.4670 -3.6099
 4586SOL    HW216651   4.139   1.131   5.952  2.8465  1.4974  1.8789
 4587SOL     OW16652   6.479   6.466   4.831  0.6148 -0.8009  0.2193
 4587SOL    HW116653   6.461   6.372   4.843 -2.0657 -0.2478  1.2071
 4587SOL    HW216654   6.394   6.503   4.807  1.4710  1.4918  0.5393
 4588SOL     OW16655   7.468   1.276   0.456 -0.0259 -0.1569 -0.0953
 4588SOL    HW116656   7.473   1.222   0.535  0.4660 -1.7066 -1.1335
 4588SOL    HW216657   7.558   1.304   0.440  0.1877 -1.2933 -1.0307
 4589SOL     OW16658   8.612   1.281   8.138 -0.3474  0.5109 -0.4868
 4589SOL    HW116659   8.639   1.242   8.055 -1.1844  0.9804 -0.9949
 4589SOL    HW216660   8.656   1.366   8.139 -0.3734  0.5244 -0.4792
 4590SOL     OW16661   1.701   3.909   1.288 -0.1908 -0.6375 -0.2530
 4590SOL    HW116662   1.742   3.871   1.366 -1.4416  0.4627  0.9811
 4590SOL    HW216663   1.775   3.931   1.230  0.7771 -1.1471  0.7641
 4591SOL     OW16664   0.412   6.584   1.270 -0.1973  0.0935  0.1631
 4591SOL    HW116665   0.398   6.502   1.223 -0.2705  1.6312 -2.7947
 4591SOL    HW216666   0.325   6.609   1.302 -0.1355 -1.0205  1.2622
 4592SOL     OW16667   2.065   1.560   3.552 -0.2613 -1.0182  0.2201
 4592SOL    HW116668   2.039   1.545   3.643  0.8157 -3.6513  0.1885
 4592SOL    HW216669   2.112   1.644   3.554  0.7252 -1.5539  2.3427
 4593SOL     OW16670   3.093   6.319   6.895 -0.0740 -0.0708 -0.7053
 4593SOL    HW116671   3.092   6.345   6.987  0.5111  0.6636 -0.8964
 4593SOL    HW216672   3.002   6.328   6.867 -0.3381 -0.7206 -0.0926
 4594SOL     OW16673   8.616   0.005   4.485 -0.1666 -0.1298 -0.0795
 4594SOL    HW116674   8.522  -0.010   4.481 -0.6724  2.5120  0.1912
 4594SOL    HW216675   8.625   0.087   4.533  2.4103 -1.2197  1.5108
 4595SOL     OW16676   8.183   2.787   2.579  0.5111 -0.1944  0.0844
 4595SOL    HW116677   8.089   2.795   2.599  0.4100 -1.5273  0.2211
 4595SOL    HW216678   8.215   2.877   2.580 -0.7606  0.2828  0.0688
 4596SOL     OW16679   4.034   0.886   2.066 -0.3101  0.0227 -0.0314
 4596SOL    HW116680   3.980   0.933   2.130  0.6770  1.4117 -0.1938
 4596SOL    HW216681   4.052   0.802   2.108 -1.0047  0.2887  0.8295
 4597SOL     OW16682   6.406   3.057   4.957 -0.0853 -0.3267  0.1122
 4597SOL    HW116683   6.311   3.058   4.968 -0.4169 -1.3976 -2.1489
 4597SOL    HW216684   6.420   3.047   4.863  2.2930  0.6544  0.2800
 4598SOL     OW16685   6.477   1.447   0.245 -0.1381 -0.2499 -0.4116
 4598SOL    HW116686   6.517   1.441   0.158 -0.7947 -0.7289 -0.6906
 4598SOL    HW216687   6.389   1.411   0.233  0.1572 -1.4027  0.7164
 4599SOL     OW16688   8.492   2.883   5.081  0.7088  0.2918 -0.2970
 4599SOL    HW116689   8.548   2.856   5.153  0.5303  1.0809  0.1584
 4599SOL    HW216690   8.406   2.897   5.121  0.4003 -0.0531 -0.8184
 4600SOL     OW16691   8.979   5.641   3.713 -0.8050 -0.7432 -0.1766
 4600SOL    HW116692   8.927   5.606   3.785  0.3441 -2.5336 -0.1429
 4600SOL    HW216693   9.062   5.666   3.754 -0.0316 -2.0435 -0.8747
 4601SOL     OW16694   7.226   2.390   1.700 -0.1165  0.1294 -0.0105
 4601SOL    HW116695   7.188   2.362   1.783  0.3067  1.0858  0.5310
 4601SOL    HW216696   7.219   2.314   1.643  1.3398 -1.2415  1.5054
 4602SOL     OW16697   4.782   3.305   4.804  0.2311 -0.4781  0.1897
 4602SOL    HW116698   4.851   3.361   4.768  0.1288 -1.2061 -1.2001
 4602SOL    HW216699   4.756   3.349   4.885  2.2400 -0.1367  0.7127
 4603SOL     OW16700   6.903   3.489   5.000 -0.4862  0.3063  0.1736
 4603SOL    HW116701   6.824   3.500   5.054 -1.7637  0.0179 -1.5415
 4603SOL    HW216702   6.896   3.558   4.934 -0.3841 -0.9920 -1.2313
 4604SOL     OW16703   2.995   7.516   1.880  0.8011 -0.1525 -0.0260
 4604SOL    HW116704   3.041   7.551   1.957  1.0542 -0.3307 -0.0944
 4604SOL    HW216705   2.932   7.454   1.916  2.7412 -2.3129 -0.0817
 4605SOL     OW16706   5.049   8.841   4.503 -0.3550  0.3113  0.9349
 4605SOL    HW116707   4.956   8.829   4.485 -0.3812 -0.5869  1.6335
 4605SOL    HW216708   5.052   8.893   4.583 -0.2912 -1.4683  2.1317
 4606SOL     OW16709   2.871   8.287   8.816  0.3476  0.3744 -0.5096
 4606SOL    HW116710   2.946   8.347   8.815  0.3255  0.6630  2.8639
 4606SOL    HW216711   2.800   8.338   8.857 -0.6387 -0.9586 -0.4979
 4607SOL     OW16712   9.016   3.753   1.310 -0.3090 -0.1309 -0.1220
 4607SOL    HW116713   8.935   3.703   1.302 -1.0929  0.1517  3.8739
 4607SOL    HW216714   8.997   3.837   1.268 -1.7615 -0.4519 -0.1516
 4608SOL     OW16715   2.065   7.505   5.529 -0.0113  0.0953 -0.0036
 4608SOL    HW116716   2.118   7.559   5.470 -2.6516 -0.1643 -2.9336
 4608SOL    HW216717   2.082   7.415   5.501 -1.1127 -0.0500 -0.2723
 4609SOL     OW16718   7.759   0.988   2.909  0.1439  0.1969  0.1993
 4609SOL    HW116719   7.774   0.902   2.870 -0.5521  0.5824 -0.9848
 4609SOL    HW216720   7.820   0.992   2.983  0.1472 -1.3208  0.3127
 4610SOL     OW16721   7.269   7.843   8.967 -0.0238 -0.1091 -0.2443
 4610SOL    HW116722   7.250   7.889   8.885 -1.5487  0.2620  0.2822
 4610SOL    HW216723   7.324   7.903   9.016  0.2429 -0.0005 -0.6723
 4611SOL     OW16724   3.206   5.187   1.691  0.1353 -0.1963 -0.0308
 4611SOL    HW116725   3.233   5.278   1.678 -1.6288  0.2724 -0.6482
 4611SOL    HW216726   3.122   5.193   1.736  0.0703 -1.5366  0.0611
 4612SOL     OW16727   3.640   7.077   6.014 -0.2989 -0.3032 -0.1570
 4612SOL    HW116728   3.658   7.164   6.049 -1.0953  0.0387 -0.5548
 4612SOL    HW216729   3.712   7.060   5.953 -0.3966  0.2892 -0.4411
 4613SOL     OW16730   7.833   0.301   6.104  0.1178  0.4853 -0.5145
 4613SOL    HW116731   7.787   0.248   6.039 -0.6117  2.1081 -1.3777
 4613SOL    HW216732   7.764   0.334   6.161  0.5527  0.6014 -0.0466
 4614SOL     OW16733   6.891   5.940   9.148  0.2956  0.2627  0.0723
 4614SOL    HW116734   6.902   5.845   9.151 -2.2443 -0.0751  0.4923
 4614SOL    HW216735   6.871   5.964   9.239 -1.4205  0.8402 -0.4387
 4615SOL     OW16736   3.069   3.462   2.146 -0.0532  0.2839 -0.6848
 4615SOL    HW116737   3.128   3.525   2.187 -0.6903 -0.4674  1.5409
 4615SOL    HW216738   2.989   3.512   2.128 -0.0273  0.4614 -0.3102
 4616SOL     OW16739   1.771   8.725   3.625 -0.0830 -0.1826 -0.4710
 4616SOL    HW116740   1.741   8.816   3.629 -1.9188 -0.7949  2.0442
 4616SOL    HW216741   1.784   8.709   3.531 -1.3690  2.1521 -1.1458
 4617SOL     OW16742   1.547   3.601   8.074 -0.6700  0.2952  0.3853
 4617SOL    HW116743   1.568   3.681   8.027 -0.2013  1.6164  2.7197
 4617SOL    HW216744   1.599   3.533   8.030  2.2498  2.0288  0.9091
 4618SOL     OW16745   5.778   3.156   6.029  0.3226 -0.2012 -0.0145
 4618SOL    HW116746   5.781   3.211   5.951  0.9861  1.9325  1.4079
 4618SOL    HW216747   5.853   3.185   6.082 -1.5841  0.3569  2.5933
 4619SOL     OW16748   4.515   5.232   2.372 -0.4268 -1.1012 -0.3262
 4619SOL    HW116749   4.529   5.254   2.279  1.2656  1.2889  0.3981
 4619SOL    HW216750   4.432   5.275   2.394  0.4979  0.6455 -0.1163
 4620SOL     OW16751   0.425   5.488   3.623 -0.2213 -0.4251  0.2970
 4620SOL    HW116752   0.481   5.510   3.697  1.1519 -2.1609 -0.1799
 4620SOL    HW216753   0.414   5.571   3.576 -1.6607  0.8799  2.6974
 4621SOL     OW16754   8.194   3.268   5.385  0.0620 -0.1981 -0.0785
 4621SOL    HW116755   8.115   3.322   5.391  0.5241  1.1580 -3.4808
 4621SOL    HW216756   8.163   3.178   5.393 -1.2872  0.3811  1.9446
 4622SOL     OW16757   8.082   1.050   1.015  0.0681  0.2305 -0.3535
 4622SOL    HW116758   7.992   1.034   1.042  0.8691 -1.3844  1.5883
 4622SOL    HW216759   8.078   1.053   0.919 -1.9025 -0.8870 -0.3503
 4623SOL     OW16760   7.294   5.798   7.436  0.0764 -0.1256  0.5582
 4623SOL    HW116761   7.322   5.718   7.481  0.6745 -0.3103 -0.1135
 4623SOL    HW216762   7.340   5.868   7.482  1.1488 -0.3658 -0.0935
 4624SOL     OW16763   3.693   7.460   7.892  0.4325 -0.1308 -0.0041
 4624SOL    HW116764   3.681   7.366   7.876 -0.5318  0.1193 -0.8781
 4624SOL    HW216765   3.761   7.486   7.830 -0.8702  0.1515 -1.3961
 4625SOL     OW16766   1.115   6.338   5.784  0.2148 -0.7400 -0.2267
 4625SOL    HW116767   1.190   6.297   5.741  1.3463  0.1225  0.8485
 4625SOL    HW216768   1.118   6.429   5.757 -1.2774 -0.9684 -1.2500
 4626SOL     OW16769   5.424   3.351   0.044  0.0489  0.2477 -0.3986
 4626SOL    HW116770   5.420   3.446   0.041 -1.0477  0.3116  1.4683
 4626SOL    HW216771   5.346   3.325   0.092  0.7014 -1.5539 -0.2186
 4627SOL     OW16772   9.085   8.822   4.669  0.3662 -0.2217  0.1296
 4627SOL    HW116773   9.096   8.898   4.725 -0.3702  0.8084 -1.0698
 4627SOL    HW216774   8.993   8.797   4.680  1.3391 -3.2521  3.2695
 4628SOL     OW16775   7.462   0.763   3.044 -0.3761 -0.0274 -0.1598
 4628SOL    HW116776   7.399   0.834   3.052  0.8222  1.0721 -0.1862
 4628SOL    HW216777   7.487   0.764   2.952 -1.0818 -1.1555 -0.3842
 4629SOL     OW16778   9.076   1.488   2.760 -0.8752 -0.2978  0.3641
 4629SOL    HW116779   9.051   1.396   2.768  0.0424 -0.9038 -2.5948
 4629SOL    HW216780   9.166   1.486   2.727 -0.5275  1.6915  1.0453
 4630SOL     OW16781   6.630   6.311   6.873 -0.5294  0.4325  0.5413
 4630SOL    HW116782   6.554   6.358   6.838 -0.2903  1.3888  1.2486
 4630SOL    HW216783   6.601   6.277   6.957 -1.1087 -1.8815 -0.5193
 4631SOL     OW16784   5.837   1.098   6.173  0.1148 -0.6742  0.0934
 4631SOL    HW116785   5.883   1.074   6.092  1.6342 -1.3574  1.1047
 4631SOL    HW216786   5.872   1.185   6.195 -0.5989 -0.3122 -0.1883
 4632SOL     OW16787   6.578   0.519   0.720 -0.1309  0.3973 -0.8018
 4632SOL    HW116788   6.662   0.518   0.765 -0.2880  1.7477 -0.4130
 4632SOL    HW216789   6.560   0.612   0.706 -0.8463  0.0669 -2.2359
 4633SOL     OW16790   4.442   0.154   4.227 -0.1165  0.0960 -0.1806
 4633SOL    HW116791   4.483   0.147   4.140 -0.2407 -1.6828 -0.1286
 4633SOL    HW216792   4.503   0.206   4.278  0.6860 -0.0883 -0.9311
 4634SOL     OW16793   7.370   2.237   1.291  0.0362 -0.1817 -0.0927
 4634SOL    HW116794   7.436   2.230   1.360  0.2186 -1.3613 -0.3731
 4634SOL    HW216795   7.405   2.186   1.218  0.0992  1.4849 -1.3035
 4635SOL     OW16796   8.122   8.009   1.622  0.3553  0.1652 -0.1862
 4635SOL    HW116797   8.067   8.087   1.625 -0.4770 -0.1316 -3.4861
 4635SOL    HW216798   8.207   8.040   1.591  0.9392  0.1113  1.3008
 4636SOL     OW16799   1.243   1.176   4.780 -0.3842 -0.1331  0.3697
 4636SOL    HW116800   1.246   1.172   4.875 -1.1862  0.1551  0.4155
 4636SOL    HW216801   1.215   1.266   4.760 -1.9604 -0.6845 -0.0722
 4637SOL     OW16802   1.826   8.263   0.484 -0.1594  0.4692 -0.3702
 4637SOL    HW116803   1.775   8.296   0.558  2.0176  1.6164  0.7406
 4637SOL    HW216804   1.761   8.237   0.419 -2.1606  0.0929  1.6377
 4638SOL     OW16805   4.684   3.129   4.290 -0.1909 -0.1009  0.1206
 4638SOL    HW116806   4.599   3.152   4.327 -0.0910 -2.0922  1.7531
 4638SOL    HW216807   4.664   3.098   4.201 -1.0870  0.0410  0.2707
 4639SOL     OW16808   1.210   8.224   7.986 -0.3425  0.1821  0.0117
 4639SOL    HW116809   1.133   8.233   7.931  0.4367  0.9923 -0.9928
 4639SOL    HW216810   1.281   8.264   7.936  0.4942  0.5672  1.4249
 4640SOL     OW16811   0.400   9.015   0.568 -0.2711 -0.6300  0.0351
 4640SOL    HW116812   0.490   8.987   0.550  0.1285 -0.0236  1.0110
 4640SOL    HW216813   0.383   8.982   0.656 -1.6931 -2.3869 -0.8372
 4641SOL     OW16814   7.139   5.824   5.766 -0.4749  0.3015 -0.7010
 4641SOL    HW116815   7.174   5.769   5.695 -0.4385 -0.4066 -0.1466
 4641SOL    HW216816   7.053   5.787   5.784 -0.4505  0.4286 -0.3213
 4642SOL     OW16817   4.319   0.239   6.979  0.2080  0.0668  0.2910
 4642SOL    HW116818   4.298   0.219   7.070  0.1594  0.4551  0.3680
 4642SOL    HW216819   4.303   0.157   6.932 -1.9209  0.4384  0.2707
 4643SOL     OW16820   6.963   8.474   1.328  0.3054  0.8228  0.0836
 4643SOL    HW116821   7.002   8.556   1.359 -0.1737  0.4878  1.6733
 4643SOL    HW216822   7.028   8.437   1.269  1.3693  1.4155  0.8530
 4644SOL     OW16823   0.806   8.025   6.584 -0.3735  0.6080 -0.3460
 4644SOL    HW116824   0.809   8.114   6.549 -1.6077  0.0904 -1.9106
 4644SOL    HW216825   0.842   8.032   6.672 -1.5111  2.8898  0.0160
 4645SOL     OW16826   5.946   8.996   7.137  0.5984 -0.1473 -0.4647
 4645SOL    HW116827   6.040   9.000   7.149  0.6802 -0.3972 -0.9962
 4645SOL    HW216828   5.934   8.967   7.046  0.0145 -0.1546 -0.3922
 4646SOL     OW16829   0.442   2.848   4.013 -0.3250 -0.0822  0.2718
 4646SOL    HW116830   0.488   2.780   4.063  0.1633  1.5675  2.2073
 4646SOL    HW216831   0.474   2.837   3.923  1.6018 -0.8948  0.9869
 4647SOL     OW16832   0.762   5.723   1.442 -0.0177 -0.0347 -0.6853
 4647SOL    HW116833   0.802   5.652   1.391  0.8192 -0.0948  0.0248
 4647SOL    HW216834   0.692   5.680   1.491  0.3037 -0.3224 -0.4709
 4648SOL     OW16835   8.191   2.478   3.305 -0.5047 -0.3148  0.4233
 4648SOL    HW116836   8.127   2.415   3.272 -0.3831 -1.0380  1.4907
 4648SOL    HW216837   8.203   2.454   3.397  1.2947 -0.2013  0.2620
 4649SOL     OW16838   6.145   4.006   4.454  0.2834  0.1483  0.4347
 4649SOL    HW116839   6.163   3.997   4.548 -0.8699 -1.4182  0.5437
 4649SOL    HW216840   6.165   4.097   4.435  0.7930  0.4424  2.1443
 4650SOL     OW16841   5.607   4.917   4.822  0.9034  0.1879  0.8375
 4650SOL    HW116842   5.520   4.914   4.862  1.6539  1.7660  2.7722
 4650SOL    HW216843   5.594   4.962   4.738 -0.0523  0.9825  1.4031
 4651SOL     OW16844   0.588   8.633   6.877  0.3736 -0.6357 -0.0132
 4651SOL    HW116845   0.528   8.703   6.902  1.1877  0.4324 -0.9394
 4651SOL    HW216846   0.645   8.672   6.810  2.0167 -1.6375  0.7219
 4652SOL     OW16847   6.160   6.207   4.102  0.4303  0.4300 -0.7061
 4652SOL    HW116848   6.227   6.159   4.054  0.6440  0.0233 -0.0139
 4652SOL    HW216849   6.125   6.144   4.164 -0.4521  0.6975 -0.9164
 4653SOL     OW16850   2.330   4.529   5.137  0.1591 -0.1297  0.4320
 4653SOL    HW116851   2.372   4.445   5.119  2.0984  0.8723  0.0341
 4653SOL    HW216852   2.374   4.591   5.079 -1.1414  1.2164  0.8030
 4654SOL     OW16853   5.368   4.280   6.379  0.4544  0.5930  0.4180
 4654SOL    HW116854   5.288   4.250   6.424  0.5188  0.3790  0.3917
 4654SOL    HW216855   5.424   4.202   6.376 -0.0104  0.2860 -1.0480
 4655SOL     OW16856   5.595   4.561   2.428 -0.4220 -0.1869 -0.3498
 4655SOL    HW116857   5.551   4.572   2.344 -0.1967  1.4959 -0.2801
 4655SOL    HW216858   5.607   4.466   2.437  0.9286 -0.3640 -2.9424
 4656SOL     OW16859   8.825   4.552   5.716  0.6038  0.8763 -0.7147
 4656SOL    HW116860   8.902   4.535   5.661  0.0048 -1.0441 -1.0414
 4656SOL    HW216861   8.753   4.509   5.671 -0.1633  0.3964  0.8827
 4657SOL     OW16862   3.654   8.723   7.772 -0.0603 -0.5953 -0.3992
 4657SOL    HW116863   3.634   8.666   7.698  0.6169 -0.9435 -0.3156
 4657SOL    HW216864   3.698   8.798   7.733 -2.6914  0.8809 -0.7799
 4658SOL     OW16865   4.882   2.107   5.648  0.0072  0.1093 -0.7510
 4658SOL    HW116866   4.791   2.134   5.666 -0.1951  1.8385 -3.7286
 4658SOL    HW216867   4.935   2.171   5.696 -0.4108  0.6677 -1.0136
 4659SOL     OW16868   4.490   8.298   3.065 -0.8067 -0.2719 -0.5874
 4659SOL    HW116869   4.531   8.211   3.071  0.6690  0.4854  1.2526
 4659SOL    HW216870   4.438   8.304   3.145 -0.5722  0.6842 -0.5023
 4660SOL     OW16871   1.737   5.958   1.876  0.4675 -0.3256 -0.5430
 4660SOL    HW116872   1.667   5.902   1.910 -0.2080 -0.1121 -1.5519
 4660SOL    HW216873   1.728   5.954   1.781  0.9997  0.7454 -0.6623
 4661SOL     OW16874   1.655   4.242   1.161  0.0528  0.2391  0.4700
 4661SOL    HW116875   1.657   4.240   1.065  0.2849  0.0128  0.4785
 4661SOL    HW216876   1.563   4.224   1.183 -0.0871  0.7136  0.2850
 4662SOL     OW16877   6.905   8.331   5.308  0.2744  0.0777 -0.4605
 4662SOL    HW116878   6.969   8.401   5.296  0.0145  0.5440  0.7754
 4662SOL    HW216879   6.942   8.275   5.376 -0.7426  0.5230  0.4967
 4663SOL     OW16880   6.032   5.466   3.086  0.4087  0.4906 -0.2763
 4663SOL    HW116881   6.104   5.466   3.023  0.3555  0.5111 -0.3377
 4663SOL    HW216882   5.997   5.377   3.084  0.4696  0.4659 -0.2043
 4664SOL     OW16883   6.697   4.909   4.442  0.7619  0.2315  0.0149
 4664SOL    HW116884   6.657   4.843   4.498  2.0585 -1.5395 -1.0198
 4664SOL    HW216885   6.683   4.992   4.487 -4.5206 -0.0294 -0.5129
 4665SOL     OW16886   2.271   2.489   2.865  0.1799  0.6949  0.2566
 4665SOL    HW116887   2.355   2.519   2.829  0.0566 -0.0411 -0.6840
 4665SOL    HW216888   2.289   2.400   2.895 -0.0743  0.8122  0.7545
 4666SOL     OW16889   3.887   2.319   7.625 -0.0178  0.6087 -0.1070
 4666SOL    HW116890   3.902   2.390   7.563  0.3653  1.2585  0.7220
 4666SOL    HW216891   3.924   2.350   7.707 -1.4332  0.1905  0.7299
 4667SOL     OW16892   2.259   8.644   1.954  0.4342 -0.0263 -0.3904
 4667SOL    HW116893   2.354   8.640   1.941  0.2643  0.0715 -1.8284
 4667SOL    HW216894   2.248   8.654   2.049  1.8613  0.2455 -0.2321
 4668SOL     OW16895   8.275   7.376   7.811  0.6181 -0.1270  0.0821
 4668SOL    HW116896   8.301   7.454   7.763 -2.2026  1.0400  0.2710
 4668SOL    HW216897   8.252   7.408   7.898 -1.1084 -1.0457  0.0021
 4669SOL     OW16898   3.761   3.973   8.719  1.0276 -0.0013  0.2960
 4669SOL    HW116899   3.797   4.048   8.672  1.4438 -0.1737  0.3374
 4669SOL    HW216900   3.734   4.008   8.804 -1.6256  0.7688 -0.7544
 4670SOL     OW16901   5.088   2.769   1.265  0.3028  0.1234  0.5549
 4670SOL    HW116902   5.028   2.842   1.279  0.1479  0.5376 -1.8297
 4670SOL    HW216903   5.130   2.756   1.349 -0.1584  2.5337  1.2293
 4671SOL     OW16904   3.098   6.772   3.323 -0.2319 -0.0669  0.4713
 4671SOL    HW116905   3.112   6.835   3.252  0.3179 -0.1738  0.4828
 4671SOL    HW216906   3.103   6.824   3.403 -0.3703 -0.0287  0.4565
 4672SOL     OW16907   0.105   0.738   0.212 -0.1292 -0.2013 -0.2405
 4672SOL    HW116908   0.045   0.664   0.212 -0.3300 -0.0717 -1.5839
 4672SOL    HW216909   0.087   0.783   0.129  1.0900  0.4438 -0.1761
 4673SOL     OW16910   0.924   3.509   8.112 -0.4016 -0.1597  0.0720
 4673SOL    HW116911   0.932   3.484   8.204 -2.3546 -0.0906  0.2993
 4673SOL    HW216912   1.005   3.477   8.071  2.1626  2.7985  2.3674
 4674SOL     OW16913   5.759   5.106   3.636 -0.4371 -0.5721 -0.3522
 4674SOL    HW116914   5.798   5.032   3.591 -1.9268 -1.1570 -0.7181
 4674SOL    HW216915   5.747   5.076   3.726  0.2727 -0.2585 -0.1448
 4675SOL     OW16916   7.688   3.865   0.017  0.1078 -0.2147 -0.5426
 4675SOL    HW116917   7.735   3.798  -0.034 -0.6143 -0.5786 -0.7371
 4675SOL    HW216918   7.716   3.850   0.107 -0.5213 -1.1810 -0.4995
 4676SOL     OW16919   5.703   8.615   2.436 -0.1978 -0.4948  0.0821
 4676SOL    HW116920   5.648   8.632   2.359  0.6246  0.2907 -0.3571
 4676SOL    HW216921   5.787   8.655   2.414 -0.5091  1.4792  2.1784
 4677SOL     OW16922   5.344   1.682   5.045 -0.2576 -0.2408 -0.0306
 4677SOL    HW116923   5.331   1.597   5.003 -1.6645 -0.4369  0.7532
 4677SOL    HW216924   5.256   1.714   5.064  0.2885  0.3446  1.7655
 4678SOL     OW16925   1.374   3.652   1.906  0.4144 -0.1995  0.3182
 4678SOL    HW116926   1.451   3.644   1.850  0.8970 -1.2149  1.1036
 4678SOL    HW216927   1.319   3.577   1.882 -1.3969  1.6431 -1.7612
 4679SOL     OW16928   4.489   5.320   0.395 -0.5801 -0.5097  0.0434
 4679SOL    HW116929   4.474   5.412   0.375  1.1213 -0.4065 -1.0006
 4679SOL    HW216930   4.455   5.273   0.319 -4.3184 -1.1043  1.8531
 4680SOL     OW16931   5.984   6.196   8.951  0.1749 -0.3716 -0.0145
 4680SOL    HW116932   5.923   6.270   8.951 -1.3153 -1.5078  1.7930
 4680SOL    HW216933   6.048   6.218   9.019  2.2337  1.0671 -2.2684
 4681SOL     OW16934   1.288   0.758   4.716 -0.4002  0.0840  0.5817
 4681SOL    HW116935   1.247   0.766   4.802 -0.4635 -1.2946  0.7134
 4681SOL    HW216936   1.352   0.829   4.713 -0.2399  0.0284  1.8722
 4682SOL     OW16937   2.910   4.512   0.870  0.1207  0.1932 -0.3946
 4682SOL    HW116938   2.883   4.421   0.878  1.5415 -0.3487 -1.3537
 4682SOL    HW216939   2.833   4.557   0.835 -0.7322 -0.5243  0.4955
 4683SOL     OW16940   3.937   8.619   7.650  0.2105  0.1534  0.4502
 4683SOL    HW116941   3.911   8.624   7.743 -3.1782 -1.3369 -0.2579
 4683SOL    HW216942   3.918   8.706   7.615 -2.4695 -0.3741  0.3825
 4684SOL     OW16943   3.230   4.458   2.651 -0.4672  0.5754  0.1040
 4684SOL    HW116944   3.182   4.437   2.731 -0.9313 -1.3138 -0.6243
 4684SOL    HW216945   3.177   4.422   2.580  1.7181 -1.2090 -0.7756
 4685SOL     OW16946   9.252   2.619   4.949 -0.2419  0.3452 -0.3381
 4685SOL    HW116947   9.241   2.544   5.007 -0.1409 -0.2218 -1.0327
 4685SOL    HW216948   9.313   2.588   4.882  0.6487  1.4082 -0.0385
 4686SOL     OW16949   3.358   1.841   1.785 -0.3799 -0.2467 -0.9992
 4686SOL    HW116950   3.308   1.842   1.867  0.1811 -1.5008 -0.6169
 4686SOL    HW216951   3.291   1.838   1.717 -0.8653 -1.5247 -0.5053
 4687SOL     OW16952   4.234   6.555   1.693 -0.2044  0.4838 -0.0988
 4687SOL    HW116953   4.193   6.561   1.779  1.5046 -0.0751  0.8143
 4687SOL    HW216954   4.171   6.508   1.639 -0.9027 -0.0426  1.1425
 4688SOL     OW16955   3.116   1.237   1.223 -0.0703  0.0293 -0.3869
 4688SOL    HW116956   3.031   1.200   1.197 -0.5361  0.7381  0.0992
 4688SOL    HW216957   3.136   1.301   1.154 -1.3220  1.9349  0.9049
 4689SOL     OW16958   7.952   3.414   2.401 -0.2869 -0.0391 -0.1074
 4689SOL    HW116959   7.891   3.475   2.442 -2.4568 -0.8100 -2.0156
 4689SOL    HW216960   8.019   3.471   2.362 -1.1404  0.9965 -0.1015
 4690SOL     OW16961   2.727   0.411   3.050  0.1424  0.0629 -0.4069
 4690SOL    HW116962   2.791   0.482   3.056  0.7401  0.2843 -5.3562
 4690SOL    HW216963   2.643   0.453   3.067  0.7440  1.2941 -0.3622
 4691SOL     OW16964   2.777   4.840   3.702  0.4225 -0.4550  0.1431
 4691SOL    HW116965   2.833   4.894   3.757  0.3144  1.0509 -1.1556
 4691SOL    HW216966   2.777   4.884   3.617 -0.9805 -1.6191 -0.5083
 4692SOL     OW16967   2.007   4.419   5.511  0.0474 -0.0142 -0.0936
 4692SOL    HW116968   2.085   4.411   5.456  0.1675  1.3643 -0.1575
 4692SOL    HW216969   2.013   4.347   5.573  1.3185  0.0231 -0.1605
 4693SOL     OW16970   0.442   2.474   3.026 -0.4874  0.1826 -0.6508
 4693SOL    HW116971   0.529   2.491   3.063 -0.0124  0.5099 -1.8800
 4693SOL    HW216972   0.422   2.385   3.053  0.9731 -0.5149 -1.7288
 4694SOL     OW16973   9.190   7.011   3.159 -0.3542 -0.0457 -0.4149
 4694SOL    HW116974   9.187   7.054   3.244 -1.5377 -0.0730 -0.4228
 4694SOL    HW216975   9.211   7.082   3.097  0.9814 -0.1140 -0.0651
 4695SOL     OW16976   2.507   3.515   2.612 -0.0511  0.1290 -0.1175
 4695SOL    HW116977   2.412   3.528   2.611 -0.1409 -0.4750 -0.1013
 4695SOL    HW216978   2.518   3.420   2.613  0.5650  0.1633 -1.4285
 4696SOL     OW16979   7.023   8.117   7.576  0.0786 -0.3339 -0.3290
 4696SOL    HW116980   6.953   8.181   7.593 -0.7461 -0.6554 -2.2650
 4696SOL    HW216981   7.071   8.112   7.659 -1.5029  0.7366  0.7143
 4697SOL     OW16982   1.038   1.594   2.714 -0.6416 -0.1552  0.0364
 4697SOL    HW116983   1.070   1.504   2.720 -0.4168  0.0047  1.6894
 4697SOL    HW216984   0.945   1.588   2.739 -0.2466  0.2468  1.7499
 4698SOL     OW16985   6.887   3.473   7.378 -0.2665 -0.4861 -0.6368
 4698SOL    HW116986   6.982   3.468   7.383 -0.2150  0.9699  1.0280
 4698SOL    HW216987   6.857   3.429   7.458 -0.7565  2.1542  0.7759
 4699SOL     OW16988   9.042   2.169   0.763 -0.3923 -0.5839  0.2650
 4699SOL    HW116989   9.079   2.253   0.737 -0.1755 -0.5092  0.8023
 4699SOL    HW216990   9.089   2.104   0.710  0.6873 -0.5137  1.1072
 4700SOL     OW16991   7.604   6.075   2.827  0.1866  0.4476 -0.2781
 4700SOL    HW116992   7.583   5.998   2.880  1.0247  1.1983  1.2032
 4700SOL    HW216993   7.688   6.105   2.861 -0.0209  1.8974 -0.9768
 4701SOL     OW16994   1.636   7.828   3.550  0.1564  0.3692  0.4186
 4701SOL    HW116995   1.634   7.782   3.634  0.2223 -0.0784  0.1833
 4701SOL    HW216996   1.728   7.851   3.537 -0.0214  1.4390  0.9903
 4702SOL     OW16997   7.084   0.113   3.974 -0.1110 -0.5677  0.2910
 4702SOL    HW116998   7.143   0.044   3.944  0.6444 -1.2013  2.9470
 4702SOL    HW216999   7.141   0.190   3.985  0.0334 -0.8472  1.7024
 4703SOL     OW17000   1.934   5.045   0.849  0.6316 -0.1456  0.0950
 4703SOL    HW117001   1.906   5.084   0.931 -0.1968  2.8054 -1.4439
 4703SOL    HW217002   1.858   4.996   0.818  0.1910  0.5110  0.1157
 4704SOL     OW17003   8.995   4.009   1.475 -0.1353 -0.0143 -0.5582
 4704SOL    HW117004   8.942   3.939   1.513 -0.3300  0.2937 -0.2488
 4704SOL    HW217005   9.012   4.068   1.549 -0.6566  0.6796 -0.9844
 4705SOL     OW17006   7.491   1.418   2.031  0.4702 -0.4350  0.0263
 4705SOL    HW117007   7.582   1.448   2.026 -0.4306  2.5346 -1.4961
 4705SOL    HW217008   7.466   1.402   1.939 -0.8789  0.1739  0.2477
 4706SOL     OW17009   7.822   2.720   1.838 -0.3547 -0.0263  0.1698
 4706SOL    HW117010   7.784   2.790   1.784  0.7430 -0.5707 -1.3615
 4706SOL    HW217011   7.748   2.690   1.892 -1.1973  1.3235 -0.1611
 4707SOL     OW17012   7.788   5.500   7.277  0.3502 -0.3247  0.3833
 4707SOL    HW117013   7.852   5.525   7.343 -0.2515 -1.9644  1.6666
 4707SOL    HW217014   7.709   5.477   7.327  0.4469 -3.4476 -0.6506
 4708SOL     OW17015   0.454   0.940   7.635  0.0887  0.2540 -0.0297
 4708SOL    HW117016   0.397   0.930   7.559 -0.0060  1.1242 -0.0807
 4708SOL    HW217017   0.466   1.034   7.644  0.6996  0.1254  0.5929
 4709SOL     OW17018   5.781   5.201   1.578  0.0576  0.6779  0.1036
 4709SOL    HW117019   5.785   5.247   1.661 -1.2842  3.2949 -1.1502
 4709SOL    HW217020   5.690   5.174   1.569  0.6729 -1.8003  0.4981
 4710SOL     OW17021   1.009   6.520   7.082  0.0834  0.4099  0.0423
 4710SOL    HW117022   1.056   6.475   7.152 -1.1148 -0.9311  0.0535
 4710SOL    HW217023   1.014   6.613   7.105 -1.0472 -0.0247  2.4632
 4711SOL     OW17024   6.766   4.237   2.690 -0.2919 -0.0303  0.4003
 4711SOL    HW117025   6.751   4.210   2.600  1.1857  1.3808 -0.3125
 4711SOL    HW217026   6.763   4.332   2.688  3.3649  0.2702  1.0291
 4712SOL     OW17027   1.000   6.353   4.771  0.0913  0.2553 -0.4409
 4712SOL    HW117028   1.083   6.385   4.807 -1.1010  1.0570  1.8385
 4712SOL    HW217029   0.976   6.280   4.828 -1.1723  0.6092 -0.4882
 4713SOL     OW17030   5.791   7.619   3.587 -0.3102 -0.2511  0.3186
 4713SOL    HW117031   5.710   7.614   3.637 -1.0325 -0.0436 -0.7900
 4713SOL    HW217032   5.763   7.639   3.497  0.8772 -1.2539 -0.3163
 4714SOL     OW17033   1.222   4.495   0.903  0.1207  0.3664 -0.2554
 4714SOL    HW117034   1.153   4.523   0.843 -0.1358  0.0146 -0.1277
 4714SOL    HW217035   1.279   4.572   0.912  0.1388  0.4328 -0.9110
 4715SOL     OW17036   5.877   8.831   3.273 -0.1519 -0.5196 -0.1223
 4715SOL    HW117037   5.908   8.807   3.360  0.5040 -1.4311 -0.5979
 4715SOL    HW217038   5.940   8.897   3.243 -1.1987  0.9025  0.6441
 4716SOL     OW17039   3.568   2.320   2.594  0.1259  0.0260 -0.0969
 4716SOL    HW117040   3.481   2.344   2.562  0.6277  2.4752  0.1933
 4716SOL    HW217041   3.552   2.244   2.651 -1.5223 -0.7678 -1.5118
 4717SOL     OW17042   6.053   6.036   3.633 -0.0215  0.5565  0.5836
 4717SOL    HW117043   6.109   6.015   3.559  0.8275  0.9692  1.0793
 4717SOL    HW217044   5.979   6.084   3.596 -0.4427 -0.6409 -0.1725
 4718SOL     OW17045   2.442   0.650   6.182 -0.3703 -0.8260 -0.4312
 4718SOL    HW117046   2.404   0.644   6.094 -0.4582 -0.2934 -0.4344
 4718SOL    HW217047   2.396   0.724   6.223  2.8193  2.0348 -1.5516
 4719SOL     OW17048   0.729   6.023   5.423  1.0503 -0.3014  0.1378
 4719SOL    HW117049   0.642   6.008   5.460 -0.3921  0.6934 -2.5707
 4719SOL    HW217050   0.749   5.943   5.374 -1.7832  1.7496 -5.2240
 4720SOL     OW17051   6.114   6.552   0.778  0.4549 -0.4421 -0.2836
 4720SOL    HW117052   6.194   6.594   0.747  0.3884 -1.3571 -1.8136
 4720SOL    HW217053   6.134   6.522   0.866  2.1246 -1.4893 -0.9823
 4721SOL     OW17054   5.093   1.358   8.350 -0.2298 -0.6150 -0.1583
 4721SOL    HW117055   5.047   1.276   8.330 -1.1985  0.0383 -0.6233
 4721SOL    HW217056   5.029   1.413   8.394  0.0699  0.3275 -0.8599
 4722SOL     OW17057   5.782   6.649   0.296  0.4024  0.0807  0.2231
 4722SOL    HW117058   5.807   6.559   0.274 -0.2844 -0.3373  1.0820
 4722SOL    HW217059   5.838   6.673   0.369  0.1573  0.1083  0.4061
 4723SOL     OW17060   5.200   7.033   8.015 -0.6889 -0.1771  0.9433
 4723SOL    HW117061   5.296   7.034   8.008 -0.7410 -0.3117  0.2133
 4723SOL    HW217062   5.170   7.002   7.930 -1.3461 -1.4142  1.6113
 4724SOL     OW17063   6.046   0.727   7.767  0.1987 -0.9251 -0.1678
 4724SOL    HW117064   5.984   0.794   7.797  2.2423  0.4797  1.2687
 4724SOL    HW217065   6.132   0.770   7.774  1.5057 -3.3391 -0.3157
 4725SOL     OW17066   0.993   8.153   6.881 -0.3682  0.2696  0.1201
 4725SOL    HW117067   1.068   8.122   6.831  1.0556  3.3795  0.1465
 4725SOL    HW217068   0.983   8.089   6.952  3.0487  0.3418  0.8121
 4726SOL     OW17069   4.688   2.657   8.043 -0.5151 -0.0943  0.1784
 4726SOL    HW117070   4.778   2.648   8.011 -0.5195  1.3720 -0.3334
 4726SOL    HW217071   4.687   2.609   8.126  0.9616  0.5229  0.5856
 4727SOL     OW17072   9.252   2.665   5.330 -0.1349  0.8100  0.4288
 4727SOL    HW117073   9.263   2.714   5.249  0.3894  0.4595  0.2824
 4727SOL    HW217074   9.245   2.573   5.302  2.1277  0.4348  0.8687
 4728SOL     OW17075   0.086   8.981   3.080  0.4086 -0.2773 -0.7746
 4728SOL    HW117076   0.110   9.053   3.138 -0.8810  1.4174 -2.2236
 4728SOL    HW217077   0.056   8.912   3.138  2.7883 -0.1465  0.7252
 4729SOL     OW17078   6.889   0.288   7.933 -0.2838  0.5378 -0.2872
 4729SOL    HW117079   6.952   0.359   7.949  0.9803 -1.0935  2.8474
 4729SOL    HW217080   6.820   0.302   7.999 -0.2293 -0.8607  0.0929
 4730SOL     OW17081   1.813   7.768   2.849 -0.3707 -0.2540 -0.3010
 4730SOL    HW117082   1.765   7.687   2.830 -1.1081 -0.1206  0.9054
 4730SOL    HW217083   1.774   7.801   2.929 -0.1612  1.3755 -0.8317
 4731SOL     OW17084   3.990   3.041   1.751 -0.1550  0.0205  0.2692
 4731SOL    HW117085   4.048   3.095   1.697  0.9728  0.4805  1.8800
 4731SOL    HW217086   3.960   2.972   1.691  0.8665  0.6293 -1.0070
 4732SOL     OW17087   3.611   8.983   0.883 -0.2434 -0.2551  0.1018
 4732SOL    HW117088   3.688   8.938   0.848 -0.1445  0.5271 -0.7155
 4732SOL    HW217089   3.628   8.991   0.976 -0.1360 -1.6438  0.2309
 4733SOL     OW17090   7.441   7.089   5.076 -0.3385 -0.7229  0.0708
 4733SOL    HW117091   7.396   7.049   5.151  0.2650 -0.0995  0.7873
 4733SOL    HW217092   7.533   7.090   5.102 -0.3934  1.7707  0.4040
 4734SOL     OW17093   0.069   3.145   2.161  0.2748  0.3392 -0.2447
 4734SOL    HW117094  -0.023   3.171   2.162  0.3526  0.6440 -0.7916
 4734SOL    HW217095   0.116   3.221   2.195  0.1887 -0.4371  1.7370
 4735SOL     OW17096   8.881   5.576   2.903  0.0391  0.4409 -0.3104
 4735SOL    HW117097   8.831   5.650   2.939  0.9523  1.0670 -0.2881
 4735SOL    HW217098   8.911   5.528   2.980  2.1427  1.8792 -0.1272
 4736SOL     OW17099   5.709   7.051   8.894 -0.0538  0.1269  0.1841
 4736SOL    HW117100   5.709   6.997   8.815 -0.8431 -1.1125  0.9996
 4736SOL    HW217101   5.787   7.024   8.942  0.6793  1.2025 -0.3376
 4737SOL     OW17102   2.889   6.502   5.089 -0.7929  0.3536 -0.2467
 4737SOL    HW117103   2.951   6.542   5.151 -2.1446  1.3754  0.5101
 4737SOL    HW217104   2.856   6.425   5.135  0.7150 -0.8676 -1.1149
 4738SOL     OW17105   4.719   7.614   4.478  0.6261  0.2203 -0.5297
 4738SOL    HW117106   4.671   7.606   4.561 -1.6160  0.8986 -1.6711
 4738SOL    HW217107   4.770   7.694   4.488 -0.9506  1.2503 -0.3678
 4739SOL     OW17108   3.729   4.563   2.345 -0.0218  0.1101  0.0383
 4739SOL    HW117109   3.745   4.657   2.351  1.1915 -0.1308  0.8410
 4739SOL    HW217110   3.808   4.527   2.305 -0.0795 -0.6804  0.6206
 4740SOL     OW17111   6.185   8.175   8.859  0.1934 -0.3905 -0.6467
 4740SOL    HW117112   6.263   8.125   8.832 -0.4108 -1.1744 -1.0176
 4740SOL    HW217113   6.150   8.126   8.934  1.1169  1.0425  0.7741
 4741SOL     OW17114   9.249   8.624   0.357  0.0835 -0.2539 -0.5306
 4741SOL    HW117115   9.335   8.654   0.327 -0.2361  0.8195 -0.4330
 4741SOL    HW217116   9.268   8.553   0.418  0.7590 -2.7577 -3.4171
 4742SOL     OW17117   0.880   7.848   7.885  0.5350 -0.2456 -0.0861
 4742SOL    HW117118   0.859   7.899   7.963  1.4240  1.2907 -0.7889
 4742SOL    HW217119   0.974   7.831   7.892  0.0689 -2.8749  0.6920
 4743SOL     OW17120   3.664   8.639   1.106  0.3511 -0.7007 -0.5210
 4743SOL    HW117121   3.704   8.723   1.127  0.3004 -0.9523  0.6106
 4743SOL    HW217122   3.727   8.573   1.136 -1.4261 -1.1521  2.7087
 4744SOL     OW17123   6.578   2.530   1.611 -0.3686  0.2835  0.2567
 4744SOL    HW117124   6.535   2.545   1.695 -0.9986 -1.3845  0.2519
 4744SOL    HW217125   6.671   2.544   1.630 -0.4692 -0.3746  1.3088
 4745SOL     OW17126   7.001   3.811   2.865  0.2735 -0.2476  0.6135
 4745SOL    HW117127   7.095   3.820   2.880  0.2190  1.3185  0.1633
 4745SOL    HW217128   6.972   3.899   2.842 -1.1492 -0.8882 -0.1436
 4746SOL     OW17129   8.047   4.720   1.681 -0.1302 -0.3681 -0.0402
 4746SOL    HW117130   7.957   4.707   1.709 -0.0043  0.9895  1.1154
 4746SOL    HW217131   8.088   4.766   1.754  1.6526 -1.4264 -0.3123
 4747SOL     OW17132   0.043   8.437   4.949 -0.0548 -0.0237 -0.4741
 4747SOL    HW117133  -0.008   8.436   5.030  1.4246  0.6982  0.5201
 4747SOL    HW217134   0.079   8.348   4.943 -0.7290 -0.2875 -0.7380
 4748SOL     OW17135   3.872   4.894   9.247 -0.1914 -0.0142 -0.2216
 4748SOL    HW117136   3.859   4.977   9.201 -1.3741  0.0901  0.2582
 4748SOL    HW217137   3.852   4.913   9.339 -1.5562 -1.0510 -0.2652
 4749SOL     OW17138   4.750   4.212   2.800  0.3188 -0.0274  0.2747
 4749SOL    HW117139   4.691   4.270   2.847 -1.5768  0.9494 -3.0055
 4749SOL    HW217140   4.713   4.125   2.812  0.0628  0.1617  0.8424
 4750SOL     OW17141   3.296   6.773   6.637  0.2746  0.0170  0.6193
 4750SOL    HW117142   3.248   6.842   6.593  0.0642  0.4557  1.5087
 4750SOL    HW217143   3.243   6.694   6.624 -0.2245  0.3159  0.8152
 4751SOL     OW17144   2.575   8.099   6.128 -0.0454  0.2277 -0.2637
 4751SOL    HW117145   2.660   8.128   6.159  0.1014  1.3920 -1.6656
 4751SOL    HW217146   2.591   8.070   6.038 -0.8740 -0.9214 -0.0699
 4752SOL     OW17147   1.959   8.101   8.454  0.4342  0.0152  0.3695
 4752SOL    HW117148   1.877   8.148   8.443 -0.4132 -1.3232  0.7787
 4752SOL    HW217149   2.023   8.152   8.404 -0.8019  0.6547 -0.6051
 4753SOL     OW17150   1.573   3.649   0.313 -0.2912  0.8160 -0.3649
 4753SOL    HW117151   1.531   3.684   0.391 -2.8150  0.5669 -1.5054
 4753SOL    HW217152   1.595   3.727   0.261 -0.4177  0.9177 -0.2649
 4754SOL     OW17153   7.415   3.608   4.793 -0.4040  0.0136 -0.0546
 4754SOL    HW117154   7.467   3.565   4.725 -0.8365  0.3053 -0.5713
 4754SOL    HW217155   7.371   3.536   4.838 -1.9425 -0.0685 -1.5826
 4755SOL     OW17156   1.536   6.139   0.614 -0.0407 -0.2085  0.2993
 4755SOL    HW117157   1.481   6.200   0.565  0.1196 -1.5494 -1.6650
 4755SOL    HW217158   1.554   6.184   0.697 -0.5292  2.0835 -0.7526
 4756SOL     OW17159   6.233   6.122   1.029  0.3699 -0.4174 -0.3052
 4756SOL    HW117160   6.327   6.121   1.012  0.4465 -0.3383  0.0950
 4756SOL    HW217161   6.201   6.041   0.989  0.7721 -0.9472  0.4151
 4757SOL     OW17162   6.806   2.388   2.134  0.2930 -0.4819  0.2872
 4757SOL    HW117163   6.727   2.366   2.182 -0.8901  1.6411 -0.5574
 4757SOL    HW217164   6.853   2.449   2.191 -0.4207  0.9414 -0.5960
 4758SOL     OW17165   6.261   2.775   0.809  0.3804 -0.1053 -0.3016
 4758SOL    HW117166   6.178   2.759   0.854 -0.1483  0.1637 -1.1708
 4758SOL    HW217167   6.294   2.687   0.788 -0.3890 -0.1906 -1.2094
 4759SOL     OW17168   0.537   4.273   7.617 -0.8019  0.0549  0.0288
 4759SOL    HW117169   0.470   4.247   7.681  0.4410 -2.3856  0.4381
 4759SOL    HW217170   0.515   4.224   7.538 -1.2638  1.6660 -0.8843
 4760SOL     OW17171   1.912   3.576   0.012 -0.2362 -0.4368  0.7677
 4760SOL    HW117172   1.898   3.668   0.035 -0.6292 -0.1828 -0.4002
 4760SOL    HW217173   1.974   3.544   0.077  1.2458  1.1186  0.1908
 4761SOL     OW17174   7.288   1.529   0.104 -0.3697 -0.0917 -0.0465
 4761SOL    HW117175   7.228   1.521   0.178 -0.6884 -0.2477 -0.3204
 4761SOL    HW217176   7.375   1.532   0.144 -0.5270 -0.3815  0.3231
 4762SOL     OW17177   8.635   0.958   5.460 -0.5594 -0.2536 -0.0448
 4762SOL    HW117178   8.621   0.892   5.392 -1.3668  0.4255 -0.5568
 4762SOL    HW217179   8.639   0.909   5.542  1.3394 -1.1838 -0.6498
 4763SOL     OW17180   5.375   8.732   0.830  0.0967 -0.0497  0.0219
 4763SOL    HW117181   5.336   8.780   0.903  0.0298 -0.7398  0.4496
 4763SOL    HW217182   5.339   8.644   0.838  1.3772 -0.5781  0.1387
 4764SOL     OW17183   1.957   4.539   8.949 -0.3316 -0.2898 -0.4414
 4764SOL    HW117184   1.989   4.615   8.997  0.9307 -0.8155 -0.4304
 4764SOL    HW217185   1.866   4.562   8.927 -0.7021  0.2749  1.5008
 4765SOL     OW17186   6.565   3.811   7.461 -0.1517  0.4950  0.8832
 4765SOL    HW117187   6.487   3.807   7.516  0.6652 -0.0586  2.0325
 4765SOL    HW217188   6.589   3.720   7.446  0.0697  0.6580  0.2198
 4766SOL     OW17189   2.043   4.697   3.825 -0.1922 -0.4915  0.3251
 4766SOL    HW117190   2.053   4.713   3.918 -1.2182 -0.0371  0.3747
 4766SOL    HW217191   1.948   4.692   3.812 -0.0835  0.0065 -0.7748
 4767SOL     OW17192   5.385   2.461   7.568  0.2361  0.1768 -0.9553
 4767SOL    HW117193   5.439   2.537   7.550 -1.2836  1.5086 -0.1207
 4767SOL    HW217194   5.324   2.456   7.494 -0.6191  0.6767 -0.2981
 4768SOL     OW17195   2.553   0.587   4.297  0.3367 -0.1283  0.2249
 4768SOL    HW117196   2.618   0.565   4.231  1.9001  0.3622  1.5209
 4768SOL    HW217197   2.519   0.672   4.270  0.9175  0.0413  0.0165
 4769SOL     OW17198   4.039   7.577   3.051  0.0493 -0.1916  0.2156
 4769SOL    HW117199   3.987   7.499   3.033 -0.7592  0.0085  1.5056
 4769SOL    HW217200   4.097   7.551   3.123 -1.4260  0.8165  1.8693
 4770SOL     OW17201   0.384   8.423   9.026  0.0173  0.1550 -0.3096
 4770SOL    HW117202   0.346   8.376   9.101  0.2910  2.1207  1.1355
 4770SOL    HW217203   0.469   8.453   9.058 -0.4081  2.1387 -0.9411
 4771SOL     OW17204   6.794   1.290   0.298  0.1095  0.0380 -0.1843
 4771SOL    HW117205   6.797   1.297   0.203  1.6290 -0.6285 -0.2215
 4771SOL    HW217206   6.825   1.375   0.329  0.7184 -0.1260 -0.3209
 4772SOL     OW17207   3.110   8.856   4.194 -0.1900  0.0572  0.0854
 4772SOL    HW117208   3.137   8.865   4.103 -0.4564 -0.0872 -0.0104
 4772SOL    HW217209   3.172   8.910   4.243 -0.9560  1.3647 -0.3306
 4773SOL     OW17210   5.429   5.873   0.878  0.0931  0.0809 -0.2409
 4773SOL    HW117211   5.342   5.913   0.870  0.6343  1.1497 -0.9154
 4773SOL    HW217212   5.449   5.841   0.790  0.3123 -0.3360 -0.0428
 4774SOL     OW17213   1.819   3.964   6.296 -0.6370 -0.3767 -0.3820
 4774SOL    HW117214   1.888   4.004   6.348 -2.1581  0.6029  0.9800
 4774SOL    HW217215   1.857   3.882   6.264  1.2229  0.2750  0.0725
 4775SOL     OW17216   4.916   4.009   4.273 -0.0481  0.4151 -0.8338
 4775SOL    HW117217   5.002   3.974   4.296 -0.8319 -0.9430  0.1380
 4775SOL    HW217218   4.896   4.070   4.343  0.2026  0.8905 -1.1711
 4776SOL     OW17219   2.790   6.083   3.509 -0.2806  0.3602  0.1483
 4776SOL    HW117220   2.840   6.158   3.539 -0.9141  0.4766  0.9692
 4776SOL    HW217221   2.815   6.071   3.418  0.0596  1.3747  0.1019
 4777SOL     OW17222   7.829   4.243   2.609 -0.0905 -0.0265  0.3126
 4777SOL    HW117223   7.890   4.312   2.633  0.0644 -0.4152  1.0533
 4777SOL    HW217224   7.754   4.255   2.667 -0.3037 -0.1347  0.0612
 4778SOL     OW17225   0.279   3.753   5.308  0.9111 -0.5391 -0.4925
 4778SOL    HW117226   0.360   3.758   5.358  0.0461  0.8085  0.8241
 4778SOL    HW217227   0.244   3.842   5.310 -0.4036 -1.0169 -1.3827
 4779SOL     OW17228   6.834   0.723   6.205 -0.6198 -0.3247  0.1060
 4779SOL    HW117229   6.771   0.674   6.152 -1.6694  2.5366 -1.5651
 4779SOL    HW217230   6.845   0.806   6.157  0.8219  1.1807  2.8145
 4780SOL     OW17231   1.053   4.157   1.442  0.3132 -0.2591 -0.0527
 4780SOL    HW117232   1.145   4.134   1.426  0.5780  1.5379 -1.4163
 4780SOL    HW217233   1.004   4.103   1.379  0.3743 -1.3612  0.8057
 4781SOL     OW17234   8.836   0.050   4.078  0.3822 -0.0252  0.2367
 4781SOL    HW117235   8.829  -0.032   4.029 -1.6876  1.1612 -1.6339
 4781SOL    HW217236   8.752   0.093   4.065  2.2595  3.6384 -1.1456
 4782SOL     OW17237   7.326   6.062   6.480 -0.0229  0.1684  0.2011
 4782SOL    HW117238   7.295   6.119   6.550  1.2820 -0.4256  1.3046
 4782SOL    HW217239   7.251   6.052   6.422 -0.2932  3.0401 -0.0761
 4783SOL     OW17240   8.146   0.029   0.006 -0.3531  0.5412 -0.1535
 4783SOL    HW117241   8.101   0.105   0.044  0.8415  0.5627  1.3084
 4783SOL    HW217242   8.238   0.055   0.003 -0.1465 -0.2850 -1.0959
 4784SOL     OW17243   5.769   4.865   0.845  0.6566  0.2131 -0.4582
 4784SOL    HW117244   5.785   4.944   0.792  0.4908  0.7691  0.2958
 4784SOL    HW217245   5.855   4.843   0.880  1.0065 -0.8860 -1.9117
 4785SOL     OW17246   0.235   3.875   1.902  0.4196 -0.0050  0.1130
 4785SOL    HW117247   0.294   3.928   1.848 -0.4157  0.9752  0.1200
 4785SOL    HW217248   0.149   3.916   1.889  0.0552 -0.2991  1.4922
 4786SOL     OW17249   5.471   1.622   4.718  0.1333  0.1320 -0.2009
 4786SOL    HW117250   5.507   1.598   4.803 -2.2346  0.7972  1.0718
 4786SOL    HW217251   5.452   1.716   4.725  0.8503  0.4427 -1.8594
 4787SOL     OW17252   8.530   4.545   3.692  0.0214  0.8183 -0.5064
 4787SOL    HW117253   8.625   4.551   3.705  0.1281 -0.3173 -0.6996
 4787SOL    HW217254   8.493   4.588   3.769  0.6906 -0.3158  0.4704
 4788SOL     OW17255   5.506   3.564   1.126  0.4121 -0.0422 -0.4184
 4788SOL    HW117256   5.494   3.581   1.219 -0.1426 -0.9386 -0.3232
 4788SOL    HW217257   5.531   3.472   1.121  0.2377 -0.0515 -1.1767
 4789SOL     OW17258   2.894   2.837   1.357 -0.0593 -0.4875 -0.1039
 4789SOL    HW117259   2.828   2.893   1.399  0.8992 -0.4410  1.3907
 4789SOL    HW217260   2.900   2.760   1.414  0.7555 -0.7561 -0.5419
 4790SOL     OW17261   8.631   2.285   7.684  0.1833 -0.2153  0.0574
 4790SOL    HW117262   8.600   2.215   7.627  0.2509  1.1054 -1.6975
 4790SOL    HW217263   8.558   2.302   7.744 -0.0781 -1.3118  0.0693
 4791SOL     OW17264   8.170   6.156   0.996 -0.1686 -0.1590 -0.0287
 4791SOL    HW117265   8.253   6.128   1.034 -0.6969 -0.7096  0.7501
 4791SOL    HW217266   8.155   6.244   1.032 -1.0008 -0.9393  1.6556
 4792SOL     OW17267   1.124   3.000   7.570 -0.7269  0.1622  0.1517
 4792SOL    HW117268   1.143   3.094   7.563  0.7330 -0.0557  0.7969
 4792SOL    HW217269   1.193   2.958   7.519  0.2997 -0.6576  2.1369
 4793SOL     OW17270   5.929   0.718   5.328  0.5867 -0.1004  0.7389
 4793SOL    HW117271   5.873   0.668   5.386 -0.1616 -0.6544 -0.4327
 4793SOL    HW217272   5.869   0.757   5.264  1.2346  1.6382  1.1294
 4794SOL     OW17273   2.097   8.175   4.670  0.1037 -0.5777  0.1075
 4794SOL    HW117274   2.053   8.097   4.703 -2.0048  0.8447  0.9193
 4794SOL    HW217275   2.051   8.195   4.588  1.4964 -0.8843 -0.7799
 4795SOL     OW17276   6.036   7.050   5.945  0.2984 -0.1392  0.3093
 4795SOL    HW117277   5.978   6.976   5.963 -1.1386  1.0235  0.7300
 4795SOL    HW217278   6.029   7.105   6.024  0.2139  1.1165 -0.5377
 4796SOL     OW17279   1.235   2.286   3.636 -0.7543  0.1248 -0.2421
 4796SOL    HW117280   1.287   2.304   3.557 -0.7485 -0.1512 -0.3007
 4796SOL    HW217281   1.145   2.308   3.611 -0.7689 -0.0739 -0.3601
 4797SOL     OW17282   0.576   6.502   2.200 -0.2325  0.1096  0.1291
 4797SOL    HW117283   0.658   6.549   2.194  0.2266 -0.5733  0.8362
 4797SOL    HW217284   0.537   6.530   2.283 -1.1455  1.0906 -0.6102
 4798SOL     OW17285   4.588   5.806   4.629  0.7607  0.9906 -0.6935
 4798SOL    HW117286   4.661   5.815   4.568  0.1363 -0.1343 -1.6315
 4798SOL    HW217287   4.552   5.894   4.636  1.3521  1.2908 -1.2807
 4799SOL     OW17288   6.265   4.284   4.413  0.4164 -0.0854 -0.2002
 4799SOL    HW117289   6.204   4.335   4.466  1.4258  0.7738  0.1699
 4799SOL    HW217290   6.241   4.303   4.322  0.0780  0.1593 -0.0594
 4800SOL     OW17291   3.337   2.598   5.737  0.0297 -0.6382 -0.2667
 4800SOL    HW117292   3.259   2.627   5.785 -0.4732 -2.4051  0.0617
 4800SOL    HW217293   3.406   2.658   5.766 -1.2192  1.1430 -0.7645
 4801SOL     OW17294   5.538   3.276   4.471 -0.7481 -0.0778 -0.6017
 4801SOL    HW117295   5.476   3.331   4.520 -1.1167 -0.5217 -0.5625
 4801SOL    HW217296   5.573   3.216   4.536 -0.5143 -0.0367 -0.6903
 4802SOL     OW17297   3.528   4.705   6.312 -0.3132  0.0125 -0.1321
 4802SOL    HW117298   3.595   4.678   6.374 -0.8128  0.9515  0.8430
 4802SOL    HW217299   3.545   4.651   6.234  2.3494  1.0895 -0.4087
 4803SOL     OW17300   2.486   2.947   8.684  0.3787 -0.3977  0.0911
 4803SOL    HW117301   2.396   2.920   8.665  0.1964  0.2115  0.0879
 4803SOL    HW217302   2.489   2.954   8.780 -0.1836  1.6329 -0.0050
 4804SOL     OW17303   0.168   0.419   5.825  0.0079  0.0494  0.5918
 4804SOL    HW117304   0.097   0.461   5.775 -1.4447 -1.0103  1.7019
 4804SOL    HW217305   0.171   0.468   5.907  1.1050  0.5628  0.2669
 4805SOL     OW17306   1.699   5.595   6.449 -0.4848 -0.2863  0.5997
 4805SOL    HW117307   1.722   5.685   6.429  1.9724 -0.7200  1.1416
 4805SOL    HW217308   1.696   5.552   6.363 -2.9509  0.4902  0.2110
 4806SOL     OW17309   2.549   8.502   8.918  0.6675 -0.1811 -0.2770
 4806SOL    HW117310   2.474   8.551   8.952 -0.7745 -1.0259 -2.0814
 4806SOL    HW217311   2.573   8.548   8.837  3.0381  0.8822  0.9253
 4807SOL     OW17312   2.020   2.416   7.441  0.1040  0.4114  0.5430
 4807SOL    HW117313   2.002   2.339   7.496 -1.3246  0.4881  0.2248
 4807SOL    HW217314   1.939   2.429   7.391  1.5988 -0.1867 -2.2651
 4808SOL     OW17315   7.252   0.941   2.168 -0.4372 -0.0202 -0.2083
 4808SOL    HW117316   7.270   1.001   2.240 -0.1846 -0.6585  0.2770
 4808SOL    HW217317   7.308   0.970   2.097 -0.0150  0.0716  0.1598
 4809SOL     OW17318   0.822   0.447   4.027 -0.2947  0.0316 -0.0567
 4809SOL    HW117319   0.888   0.380   4.046 -0.4644 -0.0370  0.2837
 4809SOL    HW217320   0.846   0.479   3.939 -0.4908 -0.7925 -0.4121
 4810SOL     OW17321   3.173   6.268   1.385 -0.4010 -0.2019 -0.2259
 4810SOL    HW117322   3.186   6.275   1.290  0.3952  1.4378 -0.0418
 4810SOL    HW217323   3.261   6.268   1.421 -0.6601 -1.9468  0.4969
 4811SOL     OW17324   6.934   8.065   5.676 -0.6876  0.3480  0.1110
 4811SOL    HW117325   6.891   7.999   5.731  1.0855  0.1941  1.3836
 4811SOL    HW217326   6.938   8.143   5.731 -0.6748  0.8182 -0.5472
 4812SOL     OW17327   3.736   5.034   1.494  0.3815 -0.3481  0.4429
 4812SOL    HW117328   3.769   5.048   1.583  1.5198 -1.6237  0.2585
 4812SOL    HW217329   3.690   4.951   1.498 -0.9246  0.3364  0.1657
 4813SOL     OW17330   5.038   5.099   6.832 -0.1343  0.4757 -0.0306
 4813SOL    HW117331   5.076   5.186   6.845  2.1683 -0.6436  1.5520
 4813SOL    HW217332   5.099   5.055   6.773 -0.7071 -0.3856  0.0029
 4814SOL     OW17333   0.226   7.560   0.480  0.0296 -0.2412  0.2332
 4814SOL    HW117334   0.179   7.636   0.447 -1.9839 -1.7792 -0.6162
 4814SOL    HW217335   0.172   7.526   0.551 -0.1072 -1.9349 -0.6229
 4815SOL     OW17336   4.855   7.178   3.763 -0.0736  0.0431  0.6158
 4815SOL    HW117337   4.826   7.251   3.708  1.2775 -0.3689 -0.7064
 4815SOL    HW217338   4.776   7.149   3.808 -2.0844 -1.6436 -3.4933
 4816SOL     OW17339   3.085   4.187   5.887  0.1324 -0.0311  0.3119
 4816SOL    HW117340   3.109   4.223   5.972 -0.7582 -0.6273  0.8262
 4816SOL    HW217341   3.125   4.100   5.885  0.5065  0.1443 -0.0610
 4817SOL     OW17342   3.295   1.299   8.761  0.5563  0.1879  0.1494
 4817SOL    HW117343   3.324   1.358   8.831 -0.2588  0.3567  0.3573
 4817SOL    HW217344   3.215   1.340   8.727 -0.2782 -1.0240  0.5975
 4818SOL     OW17345   4.430   9.160   7.495  0.1566  0.2858  0.2510
 4818SOL    HW117346   4.343   9.186   7.465  0.8460  0.1468 -2.0393
 4818SOL    HW217347   4.414   9.087   7.555 -1.2879  0.1794 -0.2378
 4819SOL     OW17348   3.124   5.895   2.141 -0.5080 -0.1163  0.3962
 4819SOL    HW117349   3.203   5.947   2.128 -0.0366 -1.3611 -2.4412
 4819SOL    HW217350   3.052   5.955   2.119 -0.1199  0.1109 -0.2971
 4820SOL     OW17351   1.142   2.320   5.283 -0.1075 -0.0158  0.3662
 4820SOL    HW117352   1.090   2.246   5.315 -2.0250  1.2725  0.3551
 4820SOL    HW217353   1.227   2.310   5.325 -1.3214 -0.5036  2.8425
 4821SOL     OW17354   3.779   2.957   5.427  0.2937  0.5805  0.1151
 4821SOL    HW117355   3.691   2.920   5.429  0.3452  0.4455 -0.0546
 4821SOL    HW217356   3.804   2.965   5.519 -0.3168  1.6328  0.1996
 4822SOL     OW17357   8.086   6.591   8.188  0.3052  0.2739  0.1832
 4822SOL    HW117358   8.166   6.538   8.186  1.3935  1.8743 -0.9836
 4822SOL    HW217359   8.099   6.651   8.261  0.0160  0.3290  0.1915
 4823SOL     OW17360   5.234   4.251   2.331  0.0403  0.2624  0.3811
 4823SOL    HW117361   5.218   4.183   2.397  1.6081 -0.3154  0.2176
 4823SOL    HW217362   5.157   4.307   2.335 -0.2216 -0.1497  2.2200
 4824SOL     OW17363   2.206   3.719   8.224  0.2182  0.4371  0.2665
 4824SOL    HW117364   2.194   3.812   8.204  1.0923  0.8479  1.5502
 4824SOL    HW217365   2.118   3.682   8.218  0.0208  1.0653 -1.4717
 4825SOL     OW17366   7.612   4.602   4.594  0.1650  0.1043  0.1667
 4825SOL    HW117367   7.630   4.550   4.672  0.2907  1.9983  1.4701
 4825SOL    HW217368   7.699   4.621   4.558  0.0824 -1.2491 -0.8031
 4826SOL     OW17369   2.965   4.543   8.898 -0.0884  0.0125  0.1362
 4826SOL    HW117370   2.872   4.565   8.896  0.1511  1.0496  0.0401
 4826SOL    HW217371   2.986   4.539   8.991 -0.1630  0.0698  0.1562
 4827SOL     OW17372   7.066   3.817   6.398 -0.1778 -0.3367 -0.0863
 4827SOL    HW117373   6.971   3.803   6.400  0.0816 -2.1651  0.6591
 4827SOL    HW217374   7.083   3.853   6.311 -1.6091  0.6364 -0.0048
 4828SOL     OW17375   1.995   6.865   3.614 -0.5139  0.7184 -0.1801
 4828SOL    HW117376   2.016   6.813   3.537 -1.7865  1.1125 -0.8314
 4828SOL    HW217377   2.014   6.955   3.587 -0.2912  0.7899  0.2158
 4829SOL     OW17378   2.535   5.106   7.375  0.4449  0.6130  0.6405
 4829SOL    HW117379   2.523   5.037   7.440  0.6804 -0.2298 -0.2022
 4829SOL    HW217380   2.598   5.166   7.415 -0.4970  0.8833  1.7809
 4830SOL     OW17381   0.832   5.768   2.076 -0.4925  0.0435  1.0364
 4830SOL    HW117382   0.767   5.808   2.019 -1.3716 -2.0487  0.4893
 4830SOL    HW217383   0.812   5.803   2.163  0.7548  3.1257  0.2028
 4831SOL     OW17384   7.382   0.511   2.668  0.3752  0.2505 -0.7739
 4831SOL    HW117385   7.290   0.507   2.641  0.6148 -0.5081 -1.5258
 4831SOL    HW217386   7.396   0.432   2.720  0.3664  0.8464  0.1622
 4832SOL     OW17387   8.319   8.727   7.687 -0.0549  0.3054 -0.4574
 4832SOL    HW117388   8.398   8.676   7.670 -0.8090 -0.7214 -1.0130
 4832SOL    HW217389   8.281   8.687   7.765 -0.1527  0.6472 -0.3286
 4833SOL     OW17390   3.601   7.067   1.678 -0.2799 -0.2975 -0.1305
 4833SOL    HW117391   3.583   7.016   1.757  2.1635 -0.8614  0.1381
 4833SOL    HW217392   3.519   7.112   1.660 -1.6252 -2.0072  1.3409
 4834SOL     OW17393   3.512   0.004   1.540  0.0650  0.1299 -0.4331
 4834SOL    HW117394   3.422  -0.029   1.530  0.4645 -1.3570  0.5624
 4834SOL    HW217395   3.502   0.099   1.543 -1.3768  0.0396 -1.2597
 4835SOL     OW17396   2.293   2.031   3.358  0.0074 -0.4165  0.4194
 4835SOL    HW117397   2.340   2.029   3.441  0.5964 -0.7243  0.0848
 4835SOL    HW217398   2.236   1.954   3.360 -1.4420  0.6218  1.3549
 4836SOL     OW17399   1.808   6.160   3.191 -0.1333 -0.0290 -1.1061
 4836SOL    HW117400   1.884   6.212   3.218 -0.9085  1.4259 -1.6288
 4836SOL    HW217401   1.844   6.095   3.130  1.1754 -1.4918  1.0966
 4837SOL     OW17402   0.972   6.435   5.509 -0.6136  0.1845 -0.6984
 4837SOL    HW117403   1.052   6.403   5.467  1.1650 -0.0619  2.5612
 4837SOL    HW217404   0.937   6.358   5.554 -1.9087  0.6338 -0.9049
 4838SOL     OW17405   5.940   7.177   2.104  0.8554 -0.4123  0.1053
 4838SOL    HW117406   5.886   7.101   2.082  1.9957 -0.9815 -0.7950
 4838SOL    HW217407   5.977   7.206   2.020 -0.9163  2.2570  0.1002
 4839SOL     OW17408   8.466   3.093   8.933 -0.1071  0.2263 -0.3472
 4839SOL    HW117409   8.471   2.998   8.919  0.1568  0.2059 -0.1158
 4839SOL    HW217410   8.557   3.121   8.941  0.1292  1.0118 -3.8303
 4840SOL     OW17411   2.116   6.450   8.902 -0.1649  0.0436 -0.2323
 4840SOL    HW117412   2.077   6.413   8.823 -1.1197 -0.2656  0.3620
 4840SOL    HW217413   2.175   6.381   8.934 -0.3137 -0.1137 -0.2942
 4841SOL     OW17414   8.179   3.534   4.538  0.2937 -0.4621  0.1907
 4841SOL    HW117415   8.274   3.542   4.546  0.5817 -1.4357 -1.7429
 4841SOL    HW217416   8.149   3.623   4.520  0.9112 -0.2580  0.1397
 4842SOL     OW17417   4.444   7.529   0.315  0.0203  0.3578 -0.6654
 4842SOL    HW117418   4.421   7.621   0.323  1.3843  0.6205  0.5222
 4842SOL    HW217419   4.361   7.485   0.294 -0.2758  2.1173 -3.7579
 4843SOL     OW17420   7.191   1.818   7.368  0.2802  0.1977  0.5620
 4843SOL    HW117421   7.211   1.732   7.331  1.5784  0.7996 -0.2255
 4843SOL    HW217422   7.261   1.874   7.335 -1.6603  2.0493 -0.6859
 4844SOL     OW17423   5.382   6.714   4.154 -0.2450  0.3215 -0.6732
 4844SOL    HW117424   5.433   6.697   4.234  0.1173  0.6639 -0.8296
 4844SOL    HW217425   5.433   6.673   4.084 -0.4710  0.1799 -0.7545
 4845SOL     OW17426   8.814   7.768   5.105  0.2952  0.0901  0.4101
 4845SOL    HW117427   8.718   7.767   5.103  0.2564  1.7108  0.0807
 4845SOL    HW217428   8.836   7.851   5.147  1.5487  0.0632 -0.1649
 4846SOL     OW17429   4.284   5.719   0.608 -0.5994  0.4547  0.2112
 4846SOL    HW117430   4.375   5.688   0.614 -1.1008 -1.1208 -0.0730
 4846SOL    HW217431   4.292   5.809   0.575  0.9446  1.0193  1.9127
 4847SOL     OW17432   0.902   2.726   3.331  0.0930 -0.5759  0.0306
 4847SOL    HW117433   0.846   2.680   3.394 -0.5068 -1.1601 -0.8801
 4847SOL    HW217434   0.846   2.795   3.295  0.8879  0.6768  1.1490
 4848SOL     OW17435   5.615   9.092   6.872  0.3127 -0.3188  0.1488
 4848SOL    HW117436   5.707   9.115   6.866  0.1355  0.0815 -1.3806
 4848SOL    HW217437   5.598   9.039   6.794 -0.8214 -0.0875  0.2180
 4849SOL     OW17438   1.101   1.883   1.180 -0.1144 -0.3693 -0.1050
 4849SOL    HW117439   1.079   1.830   1.104  1.1858  0.1883 -0.9008
 4849SOL    HW217440   1.041   1.958   1.176 -0.3309 -0.5574 -0.3389
 4850SOL     OW17441   5.380   7.469   8.760  0.2821  0.0584  0.0189
 4850SOL    HW117442   5.287   7.464   8.739  0.3456 -0.2005 -0.2144
 4850SOL    HW217443   5.407   7.556   8.731  0.0413  0.2597  0.3911
 4851SOL     OW17444   5.611   7.868   2.298  0.1553 -0.5447 -0.0266
 4851SOL    HW117445   5.640   7.820   2.376  1.3312 -1.1567 -0.8011
 4851SOL    HW217446   5.605   7.959   2.326  1.2363 -0.6565  0.6159
 4852SOL     OW17447   4.463   2.986   0.151  0.5738  0.7047 -0.0352
 4852SOL    HW117448   4.383   3.006   0.200 -0.1909 -1.9618 -0.0502
 4852SOL    HW217449   4.469   3.056   0.086 -0.8797  1.8061  0.9445
 4853SOL     OW17450   2.237   0.252   6.385  0.1038 -0.0914  0.0712
 4853SOL    HW117451   2.234   0.348   6.385  0.3239 -0.0757  0.8187
 4853SOL    HW217452   2.167   0.226   6.445 -0.5256 -0.4363 -0.7854
 4854SOL     OW17453   7.793   7.525   8.395  0.2100 -0.5077  0.2833
 4854SOL    HW117454   7.698   7.537   8.400  0.3125  0.2021  0.6215
 4854SOL    HW217455   7.815   7.471   8.471  0.2568  0.5141  1.0072
 4855SOL     OW17456   7.239   3.861   5.008 -0.5440  0.3462  0.0385
 4855SOL    HW117457   7.187   3.855   4.929  0.8987 -0.1901 -0.9199
 4855SOL    HW217458   7.260   3.770   5.031  0.6687  0.5615 -0.1184
 4856SOL     OW17459   2.962   1.687   8.421 -0.2100 -0.2011  0.0002
 4856SOL    HW117460   2.911   1.629   8.364 -1.6012 -0.7707  1.7399
 4856SOL    HW217461   2.904   1.707   8.494  1.5724  0.3188  1.3566
 4857SOL     OW17462   7.025   3.546   4.276 -0.2777 -0.4149 -0.4064
 4857SOL    HW117463   7.053   3.463   4.316 -2.4590 -0.5665  0.9250
 4857SOL    HW217464   6.978   3.519   4.197 -0.9606 -0.4753  0.0108
 4858SOL     OW17465   5.089   1.792   4.975  0.3935 -0.2366 -0.6648
 4858SOL    HW117466   5.040   1.873   4.986  0.9402  0.0143 -0.0217
 4858SOL    HW217467   5.025   1.730   4.939 -0.3101  0.1628 -0.1209
 4859SOL     OW17468   3.412   3.277   7.328  0.2103  0.1472  0.0994
 4859SOL    HW117469   3.390   3.347   7.390 -1.2118  0.3274 -0.5600
 4859SOL    HW217470   3.385   3.197   7.373 -2.7230  0.4107 -0.9709
 4860SOL     OW17471   2.551   8.864   7.144 -0.1140 -0.5028  0.1353
 4860SOL    HW117472   2.523   8.775   7.163  0.9699 -1.1367 -1.1067
 4860SOL    HW217473   2.577   8.899   7.229 -0.1292 -1.5322  0.5814
 4861SOL     OW17474   5.862   0.571   5.001  0.3189  0.3596 -0.0089
 4861SOL    HW117475   5.897   0.560   4.913 -0.0831  0.3221 -0.1680
 4861SOL    HW217476   5.936   0.554   5.059  0.5237  0.1369 -0.3312
 4862SOL     OW17477   2.142   4.802   3.435  0.0372 -0.5759 -0.0144
 4862SOL    HW117478   2.196   4.788   3.358  0.2433 -0.7308  0.1582
 4862SOL    HW217479   2.165   4.731   3.495 -0.9834 -1.1566 -0.2839
 4863SOL     OW17480   3.753   2.746   2.267 -0.1588  0.3009  0.1837
 4863SOL    HW117481   3.807   2.692   2.324  0.1795 -0.7406 -1.0931
 4863SOL    HW217482   3.697   2.684   2.220 -0.4925  1.1437 -0.5607
 4864SOL     OW17483   7.657   5.942   1.860 -0.1411  0.1967  0.3957
 4864SOL    HW117484   7.721   5.951   1.930  1.0215  1.0067 -0.7312
 4864SOL    HW217485   7.573   5.965   1.900  0.0306 -2.0141  2.2018
 4865SOL     OW17486   6.054   9.188   8.731  0.0940 -0.6501  0.0123
 4865SOL    HW117487   6.116   9.142   8.787 -1.1716 -2.4746 -0.0132
 4865SOL    HW217488   6.109   9.231   8.665  1.4208 -0.7978  0.9838
 4866SOL     OW17489   0.403   4.680   3.363  0.1344  0.2679  0.2175
 4866SOL    HW117490   0.382   4.597   3.406 -1.2809  1.2488  1.5023
 4866SOL    HW217491   0.499   4.682   3.363  0.1980 -0.2908  2.3772
 4867SOL     OW17492   5.534   2.821   2.008  0.0368  0.6872 -0.1315
 4867SOL    HW117493   5.495   2.892   1.957 -1.8315  1.0577  1.6385
 4867SOL    HW217494   5.487   2.743   1.979 -1.3444  0.9611  1.1767
 4868SOL     OW17495   7.345   8.660   2.945 -0.0293  0.2471  0.1888
 4868SOL    HW117496   7.274   8.595   2.948 -1.6491  1.8558 -1.2291
 4868SOL    HW217497   7.399   8.632   2.871 -0.2633  0.0465  0.0896
 4869SOL     OW17498   1.198   7.471   8.979 -0.2332 -0.0783  0.0731
 4869SOL    HW117499   1.238   7.449   8.895  0.4913  0.7739  0.1835
 4869SOL    HW217500   1.233   7.405   9.040  0.0377 -0.0881 -0.0907
 4870SOL     OW17501   7.241   8.836   9.160 -0.9708  0.0093 -0.4462
 4870SOL    HW117502   7.205   8.922   9.137 -1.3685  0.0991  0.4667
 4870SOL    HW217503   7.335   8.848   9.160 -0.9433  0.0405 -1.8454
 4871SOL     OW17504   5.572   2.555   8.763 -0.0967 -0.3296  0.5725
 4871SOL    HW117505   5.548   2.615   8.833 -0.9921 -0.0412  0.0423
 4871SOL    HW217506   5.605   2.611   8.693 -1.2901 -0.3869 -0.0691
 4872SOL     OW17507   5.699   3.293   5.320  0.0686 -0.2251  0.3220
 4872SOL    HW117508   5.608   3.293   5.291  0.0876 -1.7228  0.2014
 4872SOL    HW217509   5.717   3.385   5.340 -0.8701  0.3982 -1.4528
 4873SOL     OW17510   1.053   7.930   2.041 -0.1220 -0.5341 -0.0642
 4873SOL    HW117511   1.048   7.834   2.035 -0.3661 -0.7173  2.1135
 4873SOL    HW217512   0.977   7.954   2.094  1.1077  0.6210  1.2647
 4874SOL     OW17513   4.542   7.913   8.786  0.3192 -0.0396 -0.1569
 4874SOL    HW117514   4.457   7.899   8.744  0.0809 -1.1802  0.6562
 4874SOL    HW217515   4.580   7.988   8.740 -2.5524  2.7475  1.6234
 4875SOL     OW17516   5.101   2.416   1.031  0.4484  0.0403 -0.2934
 4875SOL    HW117517   5.038   2.445   0.965 -0.3576  0.7274  0.7428
 4875SOL    HW217518   5.137   2.497   1.067 -0.7295 -0.2078  1.5923
 4876SOL     OW17519   7.499   0.708   2.433  0.2636 -0.0580  0.5142
 4876SOL    HW117520   7.513   0.651   2.509 -0.8323 -0.1372  0.6836
 4876SOL    HW217521   7.468   0.649   2.365 -0.1762  0.2246  0.4650
 4877SOL     OW17522   5.768   2.382   7.090 -0.7351  0.0254  0.3596
 4877SOL    HW117523   5.742   2.393   7.181 -1.0833 -0.0399  0.2690
 4877SOL    HW217524   5.749   2.290   7.070 -0.0207 -0.1463  0.4205
 4878SOL     OW17525   1.569   7.635   4.740 -0.0972 -0.0103 -0.1467
 4878SOL    HW117526   1.528   7.553   4.713  2.3669 -0.7140 -2.0922
 4878SOL    HW217527   1.578   7.685   4.659  2.9014  0.0324  0.1134
 4879SOL     OW17528   9.132   3.739   8.781 -0.1166 -0.2269  0.1941
 4879SOL    HW117529   9.217   3.710   8.747 -1.0796 -1.6583 -1.1933
 4879SOL    HW217530   9.153   3.786   8.861  2.1355  1.2743 -1.1562
 4880SOL     OW17531   2.753   7.451   5.776  0.1145  0.0178  0.1027
 4880SOL    HW117532   2.747   7.378   5.837  0.8955 -0.0706  0.0836
 4880SOL    HW217533   2.761   7.529   5.833  0.4606 -0.0284  0.1204
 4881SOL     OW17534   0.938   3.791   1.132  0.1976  0.2641 -0.1590
 4881SOL    HW117535   1.018   3.823   1.091 -0.0252  0.5819 -0.3558
 4881SOL    HW217536   0.894   3.741   1.063 -0.4552  1.2771 -0.5034
 4882SOL     OW17537   3.887   8.518   7.182  0.3848 -0.1015  0.3431
 4882SOL    HW117538   3.939   8.438   7.169  1.6240  1.0210 -2.3513
 4882SOL    HW217539   3.952   8.587   7.194 -0.6262  0.7447  1.0918
 4883SOL     OW17540   7.252   4.655   6.884 -0.1089  0.1758  0.1876
 4883SOL    HW117541   7.165   4.686   6.909  0.0423  0.3562  0.4915
 4883SOL    HW217542   7.259   4.568   6.925  0.2178  0.5539  0.9704
 4884SOL     OW17543   0.969   6.193   4.993  0.4146 -0.2397 -0.1220
 4884SOL    HW117544   1.046   6.152   5.032  0.0347 -2.2431 -1.3528
 4884SOL    HW217545   0.902   6.191   5.062  1.2787  1.1403  0.8119
 4885SOL     OW17546   7.678   3.382   0.799  0.5192  0.4650 -0.2629
 4885SOL    HW117547   7.596   3.417   0.765  0.8582  0.7986 -0.7486
 4885SOL    HW217548   7.662   3.288   0.810 -0.4985  0.7788  1.3491
 4886SOL     OW17549   7.400   0.597   0.999  0.6243  0.4472  0.1053
 4886SOL    HW117550   7.487   0.562   0.981 -0.1052 -2.4145  1.5419
 4886SOL    HW217551   7.376   0.644   0.919  2.2860 -1.3075 -1.5339
 4887SOL     OW17552   3.927   1.757   5.971 -0.6518 -0.4289 -0.4406
 4887SOL    HW117553   3.953   1.665   5.964 -1.6876 -0.8662  0.8239
 4887SOL    HW217554   3.922   1.788   5.881  0.0931 -1.4946 -0.8723
 4888SOL     OW17555   1.398   6.233   1.531  0.2329  0.1374 -0.3319
 4888SOL    HW117556   1.464   6.172   1.499 -0.0745  0.1990 -1.1131
 4888SOL    HW217557   1.441   6.318   1.529  0.9637 -0.1400  1.6282
 4889SOL     OW17558   7.708   0.470   8.320  0.2074  0.0807 -0.2022
 4889SOL    HW117559   7.718   0.383   8.358 -0.6956 -0.0855 -0.3247
 4889SOL    HW217560   7.789   0.485   8.273  1.0854  0.0173  1.2253
 4890SOL     OW17561   2.923   3.759   7.334 -0.7895  0.1635 -0.0074
 4890SOL    HW117562   2.906   3.812   7.256  0.9488 -2.8241 -2.6508
 4890SOL    HW217563   2.851   3.696   7.338 -1.4300  0.9307  1.5166
 4891SOL     OW17564   7.503   7.673   6.009 -0.0811 -0.0724 -0.1039
 4891SOL    HW117565   7.418   7.661   6.050  0.3018  2.2644  1.5218
 4891SOL    HW217566   7.517   7.768   6.009  1.7953 -0.2742 -1.8962
 4892SOL     OW17567   2.875   5.585   0.084 -0.0602  0.5922  0.3977
 4892SOL    HW117568   2.823   5.558   0.008  2.1149  0.2938 -1.0665
 4892SOL    HW217569   2.911   5.503   0.118  0.4645  0.9118  0.6119
 4893SOL     OW17570   8.945   6.978   7.095 -0.0931 -0.0062  0.0926
 4893SOL    HW117571   9.032   6.991   7.058  0.4546 -0.7205  1.0737
 4893SOL    HW217572   8.934   7.050   7.157 -0.7776  0.8639 -0.9982
 4894SOL     OW17573   2.906   4.195   6.854 -0.3107 -0.0917 -0.0790
 4894SOL    HW117574   2.904   4.290   6.861 -0.3264  0.3105 -3.8035
 4894SOL    HW217575   2.998   4.174   6.841 -0.3377 -0.5987  0.4826
 4895SOL     OW17576   3.838   2.742   4.099  0.1146 -0.6482  0.4481
 4895SOL    HW117577   3.789   2.818   4.130 -0.5434 -0.8382 -0.0953
 4895SOL    HW217578   3.800   2.668   4.147 -0.6382 -0.8893 -0.4803
 4896SOL     OW17579   0.711   0.144   7.382 -0.0300  0.4275 -0.0088
 4896SOL    HW117580   0.806   0.142   7.376 -0.0485  1.3246 -0.8473
 4896SOL    HW217581   0.681   0.136   7.292 -0.7411  0.3408  0.2299
 4897SOL     OW17582   8.449   3.158   5.176 -0.4111 -0.8203 -0.3016
 4897SOL    HW117583   8.426   3.072   5.141 -1.5957 -1.0346  0.9111
 4897SOL    HW217584   8.398   3.219   5.122  0.9677 -0.7842 -1.6254
 4898SOL     OW17585   7.654   0.819   0.770 -0.6059  0.4895 -0.1559
 4898SOL    HW117586   7.673   0.730   0.801  0.4519  0.7470 -0.0440
 4898SOL    HW217587   7.636   0.869   0.849 -0.7484  0.4842 -0.1844
 4899SOL     OW17588   7.038   1.785   8.357 -0.2892 -0.3266  0.4676
 4899SOL    HW117589   7.059   1.878   8.345 -1.3987 -0.2455 -1.1608
 4899SOL    HW217590   6.974   1.783   8.427 -0.1233  0.1094  0.6367
 4900SOL     OW17591   1.414   7.477   1.222 -0.3103  0.4746 -0.2878
 4900SOL    HW117592   1.378   7.395   1.254  1.7322 -0.4239 -0.1698
 4900SOL    HW217593   1.435   7.461   1.130 -0.0454  0.9325 -0.3120
 4901SOL     OW17594   0.736   1.938   7.258  0.5454  0.0325  0.0232
 4901SOL    HW117595   0.773   1.850   7.271 -0.1750 -0.0485  1.7475
 4901SOL    HW217596   0.809   1.997   7.275  0.4950 -0.1878  1.0533
 4902SOL     OW17597   2.830   5.783   6.480 -0.0948  0.7390 -0.0148
 4902SOL    HW117598   2.757   5.834   6.444 -0.8111 -0.7600 -0.7676
 4902SOL    HW217599   2.883   5.761   6.403 -0.5856 -0.8610  0.0792
 4903SOL     OW17600   6.200   5.420   7.834  0.0801  0.1879 -0.2975
 4903SOL    HW117601   6.198   5.490   7.899 -0.6192 -0.1704  0.0914
 4903SOL    HW217602   6.266   5.446   7.771 -0.3972  1.3471 -0.3354
 4904SOL     OW17603   4.685   2.474   1.725  0.0893  0.3652 -0.1303
 4904SOL    HW117604   4.712   2.477   1.817 -0.2222 -1.5418  0.0737
 4904SOL    HW217605   4.589   2.476   1.728  0.0808  1.6525 -0.5257
 4905SOL     OW17606   2.432   6.159   2.630 -0.0881  0.4076  0.0593
 4905SOL    HW117607   2.478   6.157   2.546  1.2375 -1.4920  0.7662
 4905SOL    HW217608   2.495   6.123   2.693 -1.1089  1.5974  1.8565
 4906SOL     OW17609   2.481   1.219   5.777  0.3898 -0.5248 -0.2923
 4906SOL    HW117610   2.474   1.128   5.804 -0.0656  0.2685  2.5999
 4906SOL    HW217611   2.424   1.267   5.837  0.9076  1.7260 -1.4633
 4907SOL     OW17612   4.266   0.406   6.536  0.0354 -0.0912 -0.4208
 4907SOL    HW117613   4.308   0.406   6.450  1.5492  1.8618  0.2385
 4907SOL    HW217614   4.335   0.378   6.596 -0.3887  0.5828  0.3965
 4908SOL     OW17615   9.216   1.188   6.177  0.4136 -0.1776 -0.3959
 4908SOL    HW117616   9.138   1.243   6.181  1.0875  0.9350 -1.6889
 4908SOL    HW217617   9.274   1.223   6.244  0.6785  0.4688 -0.9458
 4909SOL     OW17618   1.290   1.937   4.564 -0.6090 -0.9030 -0.4437
 4909SOL    HW117619   1.284   1.847   4.596 -0.4432 -0.4821  0.8193
 4909SOL    HW217620   1.256   1.933   4.475  0.4462 -2.4224 -0.8055
 4910SOL     OW17621   3.490   0.317   6.774 -0.0622 -0.2687 -0.4328
 4910SOL    HW117622   3.463   0.344   6.686  0.9038 -1.1373 -1.0170
 4910SOL    HW217623   3.408   0.297   6.819 -0.5482 -0.2440 -1.2863
 4911SOL     OW17624   2.184   3.597   5.182  0.2795 -0.0304  0.3849
 4911SOL    HW117625   2.235   3.517   5.172 -0.6343 -0.5481 -0.3324
 4911SOL    HW217626   2.241   3.667   5.151  0.9806 -0.4381  0.7430
 4912SOL     OW17627   3.347   8.246   7.677 -0.1056  0.3329  0.1496
 4912SOL    HW117628   3.409   8.316   7.699  0.1094  0.4948 -0.8844
 4912SOL    HW217629   3.364   8.229   7.584 -1.3915  0.1444 -0.0632
 4913SOL     OW17630   1.113   0.513   0.041 -0.2231  0.1104  0.1275
 4913SOL    HW117631   1.143   0.452  -0.027  0.2477 -0.1151  0.5254
 4913SOL    HW217632   1.179   0.504   0.111 -0.5950  0.4778  0.5281
 4914SOL     OW17633   2.275   0.186   0.708 -0.1099 -0.4647  0.0161
 4914SOL    HW117634   2.303   0.095   0.722 -0.0014 -0.2720  1.1175
 4914SOL    HW217635   2.258   0.191   0.614  1.0908 -1.2896 -0.2755
 4915SOL     OW17636   5.419   7.897   7.448  0.2900 -0.0453 -0.3715
 4915SOL    HW117637   5.497   7.844   7.464  0.6081  0.7629  0.7640
 4915SOL    HW217638   5.409   7.951   7.526 -1.8850 -0.7210 -0.1163
 4916SOL     OW17639   9.153   0.653   6.184 -0.3974 -0.3022  0.2222
 4916SOL    HW117640   9.066   0.641   6.146 -0.4494 -0.9663  0.5405
 4916SOL    HW217641   9.148   0.736   6.231 -0.7891 -0.2300  0.0514
 4917SOL     OW17642   7.114   4.351   2.499 -0.3860 -0.0083 -0.1950
 4917SOL    HW117643   7.090   4.340   2.591 -2.0977 -0.4932 -0.6473
 4917SOL    HW217644   7.209   4.349   2.498 -0.2388  1.8630  1.7917
 4918SOL     OW17645   7.980   5.740   6.995  0.4444  0.1453 -0.8466
 4918SOL    HW117646   7.978   5.803   7.067 -2.3122 -1.2050  0.4236
 4918SOL    HW217647   8.074   5.727   6.977  1.1558  2.3647  0.7795
 4919SOL     OW17648   6.422   6.392   2.456  0.6943  0.4159  0.4218
 4919SOL    HW117649   6.442   6.474   2.501  2.2101  1.8468 -2.5399
 4919SOL    HW217650   6.347   6.414   2.400  1.8472  0.1853 -1.2723
 4920SOL     OW17651   1.515   8.696   5.755  0.1974  0.5278  0.6529
 4920SOL    HW117652   1.550   8.729   5.671  0.4257 -0.0986  0.4945
 4920SOL    HW217653   1.569   8.619   5.774  0.0619  0.5944  1.3180
 4921SOL     OW17654   3.194   7.586   6.257  0.1324 -0.2947 -0.6802
 4921SOL    HW117655   3.196   7.491   6.260  1.6465 -0.2772  0.6865
 4921SOL    HW217656   3.281   7.611   6.225  0.1537  0.6152  0.0316
 4922SOL     OW17657   6.774   0.812   5.907 -0.2427 -0.3040  0.1229
 4922SOL    HW117658   6.826   0.889   5.885 -0.7012 -0.0672 -0.1507
 4922SOL    HW217659   6.687   0.832   5.873 -0.4092 -0.8667  0.2177
 4923SOL     OW17660   7.799   8.783   2.317 -0.1475  0.0370 -0.2909
 4923SOL    HW117661   7.815   8.748   2.229  3.3416  1.3838 -0.3628
 4923SOL    HW217662   7.724   8.841   2.306 -1.1061 -1.4262 -1.8813
 4924SOL     OW17663   7.645   2.019   6.520 -0.3421 -0.9409  0.2466
 4924SOL    HW117664   7.552   2.039   6.519 -0.2067 -0.2827 -0.1005
 4924SOL    HW217665   7.666   2.000   6.428  0.3713  1.5083 -0.1927
 4925SOL     OW17666   3.611   5.149   1.256 -0.1165  0.0528  0.2949
 4925SOL    HW117667   3.589   5.067   1.212  1.2481  0.6000 -1.5323
 4925SOL    HW217668   3.667   5.122   1.329 -0.8949 -0.7454  0.6120
 4926SOL     OW17669   3.025   5.728   3.131 -0.5809  0.0144 -0.2271
 4926SOL    HW117670   3.064   5.734   3.044  0.5569 -0.4848  0.2250
 4926SOL    HW217671   2.945   5.677   3.119 -0.0527 -0.6825 -0.8700
 4927SOL     OW17672   3.998   5.830   6.117 -0.0782 -0.2400 -0.0772
 4927SOL    HW117673   3.975   5.860   6.205  0.4728  2.0772 -0.6698
 4927SOL    HW217674   4.015   5.736   6.127 -2.4691 -0.5714  1.7816
 4928SOL     OW17675   8.950   3.011   3.825  0.0215  0.1564  1.2903
 4928SOL    HW117676   8.870   2.963   3.803 -0.3517 -0.2019  3.2300
 4928SOL    HW217677   8.980   2.971   3.907  1.3701  1.2727  1.3778
 4929SOL     OW17678   9.044   5.382   5.171 -0.0203  0.1067 -0.1244
 4929SOL    HW117679   8.978   5.356   5.236  0.3508  1.4229  0.8227
 4929SOL    HW217680   9.097   5.303   5.159 -2.0607 -1.1634 -1.3510
 4930SOL     OW17681   4.162   4.128   1.584  0.0202 -0.5870  0.7311
 4930SOL    HW117682   4.211   4.064   1.533  1.1788 -0.7058  1.9139
 4930SOL    HW217683   4.073   4.093   1.589  0.2033 -1.1996 -0.1003
 4931SOL     OW17684   8.752   6.068   6.108 -0.4841 -0.1925  0.1368
 4931SOL    HW117685   8.775   6.000   6.171  0.3488 -0.3465 -0.3099
 4931SOL    HW217686   8.666   6.099   6.135 -0.4771 -0.8016  0.8767
 4932SOL     OW17687   9.099   0.746   4.053 -0.5702  0.0988  0.4464
 4932SOL    HW117688   9.074   0.826   4.008  0.4076 -0.8206 -1.8727
 4932SOL    HW217689   9.020   0.692   4.051 -0.3361 -0.2307 -0.9296
 4933SOL     OW17690   0.651   8.983   8.145  0.3715 -0.3974 -0.1895
 4933SOL    HW117691   0.709   8.990   8.221  0.0128  0.6884  0.0147
 4933SOL    HW217692   0.680   9.053   8.086  1.2850 -1.8438 -1.5369
 4934SOL     OW17693   8.851   3.743   5.818  0.3975  0.0137  0.3448
 4934SOL    HW117694   8.860   3.688   5.741  0.3250 -1.6344  1.4585
 4934SOL    HW217695   8.941   3.768   5.841  0.5358 -0.5810  0.4681
 4935SOL     OW17696   2.456   3.137   1.492 -0.9375  0.0807  0.5831
 4935SOL    HW117697   2.485   3.182   1.572  0.1097 -0.4875  0.5373
 4935SOL    HW217698   2.365   3.112   1.511 -1.6894  2.5092  0.4616
 4936SOL     OW17699   9.196   5.876   6.000 -0.3700 -0.1382 -0.1810
 4936SOL    HW117700   9.217   5.814   6.070  3.6688  0.5631 -0.5473
 4936SOL    HW217701   9.109   5.909   6.022 -0.8545 -2.7553  2.3396
 4937SOL     OW17702   8.814   9.241   6.254 -0.2412 -0.2781  0.2140
 4937SOL    HW117703   8.880   9.196   6.305  0.9358 -0.0341 -1.0422
 4937SOL    HW217704   8.744   9.177   6.243 -0.1731 -0.5837  1.4424
 4938SOL     OW17705   6.296   1.024   6.199 -0.5313  0.2366  0.2031
 4938SOL    HW117706   6.367   1.004   6.260  0.5336  0.7201 -0.8427
 4938SOL    HW217707   6.336   1.016   6.112 -1.6907  0.7800 -0.4028
 4939SOL     OW17708   4.840   2.358   7.381  0.2137  0.4271 -0.2855
 4939SOL    HW117709   4.822   2.437   7.432  0.9270  0.1576  0.4061
 4939SOL    HW217710   4.769   2.298   7.402 -1.6777  1.6718 -2.6182
 4940SOL     OW17711   6.817   6.552   0.407  0.1489  0.7004 -0.0167
 4940SOL    HW117712   6.899   6.523   0.446  0.1217 -2.2277 -1.8235
 4940SOL    HW217713   6.840   6.629   0.355  1.8392 -0.1834 -0.6490
 4941SOL     OW17714   1.993   2.611   1.283 -0.2813  0.1747 -0.1310
 4941SOL    HW117715   1.925   2.675   1.304 -0.2251  0.3386 -0.4305
 4941SOL    HW217716   2.066   2.664   1.249 -0.9073 -0.1603 -2.1127
 4942SOL     OW17717   7.060   6.487   0.552 -0.1512 -0.2418 -0.2670
 4942SOL    HW117718   7.003   6.487   0.630 -0.9162  0.9565 -0.7992
 4942SOL    HW217719   7.134   6.432   0.577 -0.6513 -0.3334  1.1148
 4943SOL     OW17720   1.659   0.598   3.220 -0.0613  0.3818  0.2373
 4943SOL    HW117721   1.708   0.661   3.273 -0.5855  0.4770  0.6209
 4943SOL    HW217722   1.655   0.638   3.133 -0.2124  0.7849  0.4264
 4944SOL     OW17723   2.709   8.033   3.496  0.0294  0.1167  0.0160
 4944SOL    HW117724   2.726   7.963   3.433 -0.9119  2.6633 -3.3718
 4944SOL    HW217725   2.796   8.061   3.525  0.5179 -0.7688 -0.5552
 4945SOL     OW17726   3.102   3.418   8.411 -0.3805 -0.3410 -0.5908
 4945SOL    HW117727   3.134   3.335   8.375  0.4511  0.0991 -0.8851
 4945SOL    HW217728   3.086   3.473   8.335  0.3925  0.2357 -0.3507
 4946SOL     OW17729   1.296   2.554   6.161 -0.6258  0.2087  0.3926
 4946SOL    HW117730   1.230   2.579   6.096 -1.0389  1.3199  1.2219
 4946SOL    HW217731   1.366   2.618   6.151  0.8427 -1.5218 -1.1468
 4947SOL     OW17732   2.388   5.897   6.604 -0.5275 -0.3121  0.3921
 4947SOL    HW117733   2.354   5.984   6.627  0.8177  0.2058  0.4954
 4947SOL    HW217734   2.372   5.890   6.510 -0.2996  0.2106  0.3102
 4948SOL     OW17735   2.505   4.908   2.837 -0.7480 -0.0170  0.7072
 4948SOL    HW117736   2.432   4.949   2.791 -0.5220 -1.4149 -0.9687
 4948SOL    HW217737   2.583   4.939   2.791 -0.2591  1.0114  2.1339
 4949SOL     OW17738   8.739   2.806   8.738 -0.2923  0.1099 -0.3539
 4949SOL    HW117739   8.725   2.746   8.665 -0.3241 -1.1951  0.6906
 4949SOL    HW217740   8.834   2.808   8.749 -0.2952  0.2131 -0.3432
 4950SOL     OW17741   9.253   2.095   0.588  0.4891 -0.2722 -0.0953
 4950SOL    HW117742   9.310   2.049   0.526  1.0262 -0.6558  0.6638
 4950SOL    HW217743   9.183   2.132   0.534  0.9774 -0.5492 -0.9311
 4951SOL     OW17744   8.431   9.144   5.406  0.2967  0.0028  0.3582
 4951SOL    HW117745   8.422   9.140   5.311  1.4590 -0.3045  0.2433
 4951SOL    HW217746   8.411   9.055   5.436 -1.5376  0.4520  0.5681
 4952SOL     OW17747   7.522   6.137   8.379 -0.1173 -0.5489  0.0680
 4952SOL    HW117748   7.500   6.044   8.380 -0.1591 -0.5515 -0.5518
 4952SOL    HW217749   7.581   6.147   8.304  0.7360 -0.2571  0.7656
 4953SOL     OW17750   7.313   6.932   5.977  0.1313  0.0924 -0.8730
 4953SOL    HW117751   7.335   6.935   5.884  3.9756 -1.0812 -0.1805
 4953SOL    HW217752   7.342   7.017   6.011  1.5809 -0.5790 -0.3342
 4954SOL     OW17753   5.199   4.927   2.719  0.1919 -0.0066 -0.7612
 4954SOL    HW117754   5.221   4.927   2.812  1.2070  0.5577 -0.9882
 4954SOL    HW217755   5.106   4.905   2.716  0.2997 -0.6784  0.3467
 4955SOL     OW17756   4.634   9.083   0.013  0.0306 -0.0621 -0.0997
 4955SOL    HW117757   4.575   9.143   0.059 -0.2372 -1.1193  0.9735
 4955SOL    HW217758   4.622   9.105  -0.080 -2.4343 -0.5463  0.0242
 4956SOL     OW17759   4.372   0.897   7.670 -0.3754  0.2720  0.1691
 4956SOL    HW117760   4.319   0.901   7.750 -1.3633  2.0629 -0.5048
 4956SOL    HW217761   4.405   0.987   7.660  3.1568 -0.8220  0.7306
 4957SOL     OW17762   5.074   6.764   7.558 -0.1472  0.2263 -0.3462
 4957SOL    HW117763   5.021   6.709   7.616  0.4270 -0.3095 -0.3169
 4957SOL    HW217764   5.159   6.719   7.554  0.8081  1.8341  0.7802
 4958SOL     OW17765   5.809   5.501   1.357 -1.0799 -0.2220 -0.5896
 4958SOL    HW117766   5.830   5.457   1.439 -1.7165 -0.4864 -0.5624
 4958SOL    HW217767   5.834   5.439   1.289  2.4228  1.1716 -0.7884
 4959SOL     OW17768   5.784   2.962   1.213 -0.0893  0.2129  0.0451
 4959SOL    HW117769   5.854   2.950   1.277  0.2665  0.9701 -0.1864
 4959SOL    HW217770   5.822   3.021   1.147 -0.5100 -0.3981 -0.7596
 4960SOL     OW17771   6.673   0.590   3.766  0.0064  0.7550  0.3937
 4960SOL    HW117772   6.680   0.662   3.829 -1.1339  0.4509  0.9010
 4960SOL    HW217773   6.602   0.616   3.707  1.0738  1.0414 -0.7950
 4961SOL     OW17774   0.154   8.567   4.527  0.3965  0.2423 -0.3489
 4961SOL    HW117775   0.137   8.628   4.599  0.0119  0.6633 -0.7979
 4961SOL    HW217776   0.239   8.529   4.548  0.6795  0.9963 -0.1189
 4962SOL     OW17777   6.494   8.558   5.972  0.1385 -0.5040  0.1861
 4962SOL    HW117778   6.518   8.620   5.903 -1.3053 -0.4850 -0.3393
 4962SOL    HW217779   6.448   8.611   6.037 -1.3110 -1.0307 -0.3783
 4963SOL     OW17780   4.371   1.205   8.339  0.0704  0.1977 -0.5357
 4963SOL    HW117781   4.348   1.294   8.313 -1.8500  0.5149  1.8836
 4963SOL    HW217782   4.403   1.213   8.429  0.7359 -1.4834 -0.5686
 4964SOL     OW17783   5.828   0.188   7.038  0.2660 -0.0813  0.0445
 4964SOL    HW117784   5.768   0.173   6.965  0.4676 -0.5984 -0.0178
 4964SOL    HW217785   5.811   0.279   7.064 -0.1295 -0.0369 -0.3466
 4965SOL     OW17786   7.303   6.114   4.148  0.1362 -0.4253  0.1045
 4965SOL    HW117787   7.377   6.141   4.094 -1.8020 -0.1917 -2.6281
 4965SOL    HW217788   7.329   6.030   4.185  1.6129 -0.5383 -1.1161
 4966SOL     OW17789   8.452   4.612   2.410 -0.7765 -0.2238  0.1968
 4966SOL    HW117790   8.479   4.580   2.496 -0.2000  0.4871  0.2874
 4966SOL    HW217791   8.495   4.553   2.348 -0.5951 -0.2839  0.3795
 4967SOL     OW17792   3.061   2.037   0.215  0.2735 -0.7233 -0.0618
 4967SOL    HW117793   3.003   2.106   0.181  0.5022 -0.2765  0.4417
 4967SOL    HW217794   3.014   1.955   0.197 -0.2934 -0.3961 -0.0853
 4968SOL     OW17795   4.291   2.100   6.984 -0.1164 -0.0475  0.0689
 4968SOL    HW117796   4.304   2.014   7.025 -0.6874 -0.7331 -1.1335
 4968SOL    HW217797   4.260   2.080   6.895  0.5759  1.3933 -0.5294
 4969SOL     OW17798   8.154   4.330   4.138 -0.5721  0.5288  0.4144
 4969SOL    HW117799   8.081   4.288   4.184 -0.2857 -1.6671 -0.9705
 4969SOL    HW217800   8.164   4.279   4.057  0.5859  2.6422 -0.8691
 4970SOL     OW17801   4.715   1.125   1.407  0.2928 -0.4979 -0.0906
 4970SOL    HW117802   4.637   1.125   1.463 -0.1033 -2.8733 -0.5321
 4970SOL    HW217803   4.680   1.129   1.318  0.7500 -0.1124 -0.2559
 4971SOL     OW17804   1.530   7.319   0.262  0.6381  0.1235  0.1683
 4971SOL    HW117805   1.599   7.319   0.197 -0.0966  1.4947 -0.6417
 4971SOL    HW217806   1.455   7.278   0.218  1.2490 -2.6248  1.4687
 4972SOL     OW17807   6.649   7.992   5.746  0.9239  0.3688  0.0503
 4972SOL    HW117808   6.647   8.026   5.836 -2.7045  0.4625  0.0938
 4972SOL    HW217809   6.676   7.901   5.756  0.4216  0.3280  1.2805
 4973SOL     OW17810   7.371   8.673   3.206  0.0652  0.2567  0.7054
 4973SOL    HW117811   7.458   8.712   3.211  0.5476 -0.7904  0.8026
 4973SOL    HW217812   7.352   8.670   3.112 -1.4346  3.7229  0.7323
 4974SOL     OW17813   3.762   5.335   1.712 -0.2194  0.0748 -0.5324
 4974SOL    HW117814   3.780   5.261   1.770 -2.0709 -0.6242 -0.7742
 4974SOL    HW217815   3.673   5.362   1.735 -0.8022  0.1307 -2.6313
 4975SOL     OW17816   5.947   2.659   0.638  1.4576  0.2435  0.0210
 4975SOL    HW117817   6.026   2.710   0.623  0.5227  1.2145 -1.9269
 4975SOL    HW217818   5.883   2.723   0.671  1.5502 -0.6128  2.0241
 4976SOL     OW17819   0.418   3.132   6.438  0.1193 -0.0145  0.3388
 4976SOL    HW117820   0.349   3.092   6.492 -1.3300  1.3440 -0.4148
 4976SOL    HW217821   0.382   3.130   6.349  1.1451  0.5694 -0.1010
 4977SOL     OW17822   8.232   4.490   3.501 -0.1657  0.4436  0.0257
 4977SOL    HW117823   8.240   4.530   3.588  1.3978  0.6327 -0.1721
 4977SOL    HW217824   8.285   4.547   3.445  0.4798 -0.7888 -0.6502
 4978SOL     OW17825   1.990   4.067   2.701  0.2675 -0.6861 -0.0026
 4978SOL    HW117826   1.990   4.019   2.784  0.6184 -0.3402  0.1998
 4978SOL    HW217827   2.040   4.011   2.642  0.4496 -0.6965  0.1595
 4979SOL     OW17828   0.925   5.233   2.998 -0.1307 -0.0462  0.1607
 4979SOL    HW117829   0.978   5.278   2.933  0.7137 -0.4809  0.5326
 4979SOL    HW217830   0.971   5.246   3.081  0.7547 -2.4278  0.1363
 4980SOL     OW17831   0.394   3.008   0.915 -0.3546  0.4108 -0.1724
 4980SOL    HW117832   0.322   3.004   0.978 -0.7246 -1.3153 -0.6396
 4980SOL    HW217833   0.432   2.920   0.916  0.9600  0.9245 -0.8626
 4981SOL     OW17834   2.943   0.004   4.788 -0.1959  0.2937  0.5381
 4981SOL    HW117835   2.927   0.069   4.856 -0.0503  0.7470  0.1378
 4981SOL    HW217836   2.857  -0.033   4.768 -0.5448  1.6011 -0.4823
 4982SOL     OW17837   5.834   4.236   6.775  0.1049 -0.2366  0.2337
 4982SOL    HW117838   5.820   4.234   6.681 -0.0316 -1.6159  0.2627
 4982SOL    HW217839   5.809   4.149   6.805  2.4113 -0.6577  1.2142
 4983SOL     OW17840   3.931   7.610   7.733  0.3828 -0.5664  0.8340
 4983SOL    HW117841   3.932   7.702   7.707 -0.4376 -0.6108  0.6156
 4983SOL    HW217842   4.012   7.598   7.782  0.0861  0.4925  1.6194
 4984SOL     OW17843   8.440   5.240   5.598 -0.1021  0.1811  0.1137
 4984SOL    HW117844   8.525   5.212   5.630  0.8485  0.4303 -2.0364
 4984SOL    HW217845   8.459   5.314   5.540 -1.6713 -0.2527 -1.0444
 4985SOL     OW17846   5.083   1.751   5.664 -0.1549  0.1932  0.0630
 4985SOL    HW117847   5.012   1.697   5.697 -0.3657  0.4886  0.0958
 4985SOL    HW217848   5.066   1.758   5.570  2.6372 -4.0403 -1.0353
 4986SOL     OW17849   4.864   2.893   0.264  0.3529  0.0447 -0.1771
 4986SOL    HW117850   4.947   2.854   0.235  0.2291  0.1655 -0.7102
 4986SOL    HW217851   4.815   2.906   0.183  0.0831  0.5905  0.0719
 4987SOL     OW17852   2.789   3.643   4.172 -0.3856  0.7180 -0.0591
 4987SOL    HW117853   2.844   3.645   4.250 -0.8445 -1.3613  0.3650
 4987SOL    HW217854   2.700   3.649   4.204 -0.6117 -0.7828 -0.3261
 4988SOL     OW17855   2.824   3.516   1.603 -0.1620  0.3433  0.2855
 4988SOL    HW117856   2.799   3.587   1.543 -2.5609 -0.4741  0.2220
 4988SOL    HW217857   2.899   3.475   1.561 -0.8844  0.7112 -1.4637
 4989SOL     OW17858   5.983   0.424   8.770  0.2208 -0.3103 -0.2418
 4989SOL    HW117859   5.921   0.383   8.709  0.5025 -0.8900 -0.1431
 4989SOL    HW217860   6.006   0.507   8.728 -2.1297  0.8840  0.6273
 4990SOL     OW17861   7.330   8.803   1.467 -0.1244 -0.9299  0.0028
 4990SOL    HW117862   7.425   8.817   1.459 -0.3027  0.5433  0.2372
 4990SOL    HW217863   7.292   8.889   1.452 -1.5036 -1.6801 -0.9868
 4991SOL     OW17864   6.899   7.733   1.736 -0.5205 -0.7308 -0.1831
 4991SOL    HW117865   6.987   7.697   1.726 -0.7762 -1.1547 -0.9921
 4991SOL    HW217866   6.850   7.664   1.782 -0.2085 -0.1253  1.1053
 4992SOL     OW17867   3.451   7.626   8.469 -0.2681 -0.4453 -0.0334
 4992SOL    HW117868   3.402   7.691   8.419 -2.1688 -1.0750  0.9186
 4992SOL    HW217869   3.508   7.678   8.526  0.0976  0.3089 -1.0563
 4993SOL     OW17870   7.054   3.958   1.451 -0.0474 -0.5720 -1.0114
 4993SOL    HW117871   7.003   3.882   1.476  1.3603 -1.2925 -0.1694
 4993SOL    HW217872   7.009   4.032   1.492 -0.5816 -1.1466 -0.5546
 4994SOL     OW17873   8.724   3.995   3.044 -0.4163 -0.0555 -0.3695
 4994SOL    HW117874   8.761   4.000   3.133 -0.9703 -1.6097 -0.0209
 4994SOL    HW217875   8.799   4.012   2.987 -0.0557  1.0093  0.3855
 4995SOL     OW17876   1.680   4.471   6.581 -0.5337 -0.0124  0.0539
 4995SOL    HW117877   1.652   4.447   6.493  2.4085 -2.3625 -0.4192
 4995SOL    HW217878   1.728   4.553   6.569  2.0625 -1.5637 -1.1761
 4996SOL     OW17879   3.021   3.582   2.435  0.3284 -0.0967  0.5408
 4996SOL    HW117880   2.975   3.518   2.490  1.6914  0.1355  2.0260
 4996SOL    HW217881   2.957   3.604   2.367 -0.8824 -1.5501  1.1209
 4997SOL     OW17882   4.814   2.636   5.268  0.4364 -0.2443  0.2134
 4997SOL    HW117883   4.887   2.683   5.229 -0.4359  0.2092 -0.9363
 4997SOL    HW217884   4.824   2.546   5.237 -1.0231  0.3771 -2.3860
 4998SOL     OW17885   5.445   7.464   2.576  0.4946 -0.4304 -0.2639
 4998SOL    HW117886   5.496   7.416   2.510  0.4394 -2.5990  1.1664
 4998SOL    HW217887   5.493   7.450   2.658 -0.0949  1.1758  0.3919
 4999SOL     OW17888   7.156   3.157   0.906 -0.9089  0.1110 -0.2128
 4999SOL    HW117889   7.202   3.124   0.829 -0.0882  1.3199 -0.2855
 4999SOL    HW217890   7.068   3.177   0.876 -1.0339 -0.8151 -0.4636
 5000SOL     OW17891   4.112   3.093   8.978 -0.2115  0.0679  0.2106
 5000SOL    HW117892   4.021   3.063   8.972 -0.3627  0.6184 -0.3212
 5000SOL    HW217893   4.131   3.131   8.892  0.0701  1.2058  0.7489
 5001SOL     OW17894   0.544   5.438   2.216  0.2185 -0.0388 -0.3234
 5001SOL    HW117895   0.484   5.384   2.165  0.7394 -1.3657  0.4108
 5001SOL    HW217896   0.629   5.396   2.204  0.5486  0.3210  0.6772
 5002SOL     OW17897   3.179   6.914   3.091 -0.0447 -0.4940 -0.0505
 5002SOL    HW117898   3.116   6.975   3.051  0.5232 -0.7262 -1.3663
 5002SOL    HW217899   3.193   6.847   3.024  2.0680 -0.0999 -0.0749
 5003SOL     OW17900   1.748   2.709   4.639  0.6932 -0.1233 -0.1822
 5003SOL    HW117901   1.664   2.674   4.608  0.2534 -1.0226  1.8400
 5003SOL    HW217902   1.812   2.676   4.577 -0.5031  1.3979 -2.3581
 5004SOL     OW17903   3.299   2.998   3.987 -0.0290 -0.4493 -0.5614
 5004SOL    HW117904   3.342   2.927   4.033 -0.1038 -1.0948 -1.4528
 5004SOL    HW217905   3.213   2.962   3.962 -0.2303  0.0908 -0.6632
 5005SOL     OW17906   8.861   0.405   5.277 -0.1179 -0.2160  0.0531
 5005SOL    HW117907   8.788   0.430   5.220 -0.1352 -1.6279 -0.5880
 5005SOL    HW217908   8.914   0.485   5.284  0.7596 -0.3512 -3.2695
 5006SOL     OW17909   3.885   3.961   7.798 -0.3413  0.3980 -0.2882
 5006SOL    HW117910   3.947   3.956   7.726  0.0992  1.6650 -0.0225
 5006SOL    HW217911   3.889   3.875   7.839  1.1201  0.3970 -0.3733
 5007SOL     OW17912   7.137   8.105   2.097 -0.0137 -0.0731  0.3681
 5007SOL    HW117913   7.081   8.182   2.090 -0.2288 -0.1036  1.5606
 5007SOL    HW217914   7.116   8.068   2.182  0.7269 -0.9547  0.1804
 5008SOL     OW17915   1.644   7.039   3.208 -0.4168 -0.1106  0.2212
 5008SOL    HW117916   1.664   7.069   3.120 -1.5701  1.1082  0.3490
 5008SOL    HW217917   1.705   7.087   3.264 -0.8146  0.3946  0.2289
 5009SOL     OW17918   2.719   4.313   8.646  0.7435  0.2039 -0.2978
 5009SOL    HW117919   2.625   4.328   8.637  0.7097  0.4429  0.3886
 5009SOL    HW217920   2.731   4.221   8.622  0.1057 -0.2704  1.0771
 5010SOL     OW17921   3.390   6.769   8.769  0.4831 -0.5545 -0.6792
 5010SOL    HW117922   3.361   6.686   8.731 -1.0202 -1.3769  1.9581
 5010SOL    HW217923   3.314   6.802   8.817  2.0357  0.5453  1.2206
 5011SOL     OW17924   5.810   8.905   2.481 -0.1690  0.0622 -0.1319
 5011SOL    HW117925   5.799   8.998   2.501  0.0444 -0.4609  2.8502
 5011SOL    HW217926   5.732   8.883   2.430 -0.0358  1.8940 -1.2636
 5012SOL     OW17927   0.199   0.705   3.081  0.2310  0.2903 -0.6741
 5012SOL    HW117928   0.277   0.744   3.119  0.8208 -1.5846  0.1063
 5012SOL    HW217929   0.204   0.727   2.988  1.5042  0.4916 -0.5657
 5013SOL     OW17930   1.724   9.036   4.171 -0.1722 -0.5373  0.4785
 5013SOL    HW117931   1.776   8.964   4.206  0.6296  0.1559  0.7611
 5013SOL    HW217932   1.785   9.110   4.169 -0.7828 -0.0436 -0.4596
 5014SOL     OW17933   4.802   0.383   5.454  0.4129 -0.7301  0.2760
 5014SOL    HW117934   4.715   0.400   5.417 -0.5443  0.3857  2.8330
 5014SOL    HW217935   4.799   0.292   5.483  0.5147 -1.0271 -0.6113
 5015SOL     OW17936   2.229   8.018   7.350  0.2331 -0.0405 -0.3745
 5015SOL    HW117937   2.278   8.030   7.269 -2.1764  3.6034 -1.5576
 5015SOL    HW217938   2.196   7.928   7.346  3.6196 -1.3996 -1.2091
 5016SOL     OW17939   8.314   1.954   5.976  0.3450 -0.1559 -0.1541
 5016SOL    HW117940   8.342   1.863   5.988 -0.3579 -0.5006 -1.0290
 5016SOL    HW217941   8.295   1.986   6.064 -2.7461 -1.9545 -0.0359
 5017SOL     OW17942   5.171   0.700   1.600  0.0050 -0.5496  0.5582
 5017SOL    HW117943   5.079   0.698   1.573 -0.1690  3.2603  0.3642
 5017SOL    HW217944   5.219   0.668   1.524 -1.0351  0.9088 -0.7818
 5018SOL     OW17945   5.992   1.927   5.647  0.0293 -0.1971 -0.7150
 5018SOL    HW117946   6.036   1.846   5.671  0.4829  0.5530  1.2152
 5018SOL    HW217947   6.059   1.980   5.604  1.2529  1.0317  2.4110
 5019SOL     OW17948   2.935   0.189   6.331  0.0808  0.1763 -0.2275
 5019SOL    HW117949   2.965   0.172   6.242  0.9227 -1.0925  0.2756
 5019SOL    HW217950   3.002   0.245   6.369  1.2419 -1.6292  0.4936
 5020SOL     OW17951   4.406   6.144   4.571 -0.3268  0.2600 -0.6324
 5020SOL    HW117952   4.387   6.082   4.641 -0.1886  0.4649 -0.4148
 5020SOL    HW217953   4.323   6.189   4.555 -0.5233 -0.2363 -1.0441
 5021SOL     OW17954   6.324   2.356   1.748 -0.1549  0.1565  0.3332
 5021SOL    HW117955   6.313   2.364   1.653  0.7255 -0.3027  0.1788
 5021SOL    HW217956   6.259   2.290   1.774  0.0412 -0.1966 -0.0553
 5022SOL     OW17957   8.924   7.929   7.680 -0.2508  0.1472  0.1223
 5022SOL    HW117958   8.972   7.946   7.599 -0.7466 -0.4462 -0.3085
 5022SOL    HW217959   8.955   7.844   7.710  0.3466  0.6159  0.8791
 5023SOL     OW17960   8.761   7.694   6.731 -0.3342 -0.3954  0.2645
 5023SOL    HW117961   8.703   7.676   6.805 -1.3408 -2.0121 -0.8428
 5023SOL    HW217962   8.849   7.688   6.768 -0.6287 -4.8006  0.8025
 5024SOL     OW17963   6.900   7.338   1.739  0.7155  0.3686 -0.4025
 5024SOL    HW117964   6.881   7.393   1.664  0.9326 -0.3251 -0.9774
 5024SOL    HW217965   6.817   7.298   1.762  0.7295  0.2548 -0.5457
 5025SOL     OW17966   4.542   5.143   7.177  0.2857 -0.2503  0.0085
 5025SOL    HW117967   4.542   5.164   7.271  1.5571  0.9200 -0.2236
 5025SOL    HW217968   4.596   5.064   7.170  1.1354  0.3092  0.1482
 5026SOL     OW17969   4.103   6.019   5.779 -0.4318 -0.2734  1.2186
 5026SOL    HW117970   4.010   6.003   5.768 -0.5003  0.3531  0.8433
 5026SOL    HW217971   4.137   6.032   5.691  0.2830 -1.8422  1.2258
 5027SOL     OW17972   1.319   2.018   3.168 -0.0850 -0.4701 -0.0980
 5027SOL    HW117973   1.322   1.983   3.079  0.2378 -0.3302 -0.1439
 5027SOL    HW217974   1.410   2.015   3.198 -0.5011 -2.9296  1.1625
 5028SOL     OW17975   6.378   1.052   1.260 -0.0453  0.5350  0.4016
 5028SOL    HW117976   6.342   1.044   1.171  1.8829 -2.7629 -0.2520
 5028SOL    HW217977   6.472   1.064   1.247  0.5005 -1.5093  1.8834
 5029SOL     OW17978   5.555   7.710   5.384 -0.3110  0.4722 -0.4764
 5029SOL    HW117979   5.483   7.766   5.355 -0.7512  0.4695  0.5667
 5029SOL    HW217980   5.634   7.755   5.353 -0.6221  1.9766  0.7746
 5030SOL     OW17981   1.914   7.034   6.232  0.5825 -0.1022  0.1210
 5030SOL    HW117982   1.964   7.088   6.170  0.1555  0.8662  0.6014
 5030SOL    HW217983   1.824   7.038   6.201  0.8811 -2.7260 -1.3747
 5031SOL     OW17984   3.903   3.677   9.146  0.4666 -0.0507 -0.3794
 5031SOL    HW117985   3.832   3.739   9.137  0.5957  0.1058 -0.3198
 5031SOL    HW217986   3.924   3.651   9.056  1.4184  1.1321 -0.5208
 5032SOL     OW17987   6.321   3.415   1.452 -0.2299 -0.0527 -0.4160
 5032SOL    HW117988   6.381   3.415   1.526  0.1822  0.1630 -0.7456
 5032SOL    HW217989   6.342   3.334   1.404 -1.5355 -1.0016  0.5165
 5033SOL     OW17990   2.947   3.347   7.258 -0.4591 -0.1128 -0.1507
 5033SOL    HW117991   2.979   3.302   7.180  0.7916 -0.2882  0.4384
 5033SOL    HW217992   2.925   3.277   7.319 -0.3018  0.0341  0.0785
 5034SOL     OW17993   0.960   7.358   3.799 -0.2743 -0.1505 -0.6570
 5034SOL    HW117994   0.895   7.427   3.793  1.4294  1.4920 -1.3259
 5034SOL    HW217995   0.996   7.352   3.711  1.1432 -0.3107 -0.0911
 5035SOL     OW17996   3.701   5.109   0.874 -0.4897 -0.0245  0.0117
 5035SOL    HW117997   3.658   5.026   0.856  1.1739 -1.1862  1.1094
 5035SOL    HW217998   3.665   5.170   0.809 -1.1421 -1.7868 -1.3516
 5036SOL     OW17999   9.220   4.197   5.363 -0.0699 -0.2545 -0.6835
 5036SOL    HW118000   9.231   4.110   5.401 -0.0264 -0.1270 -0.4015
 5036SOL    HW218001   9.126   4.207   5.352 -0.2604  0.4316  1.1282
 5037SOL     OW18002   9.097   2.506   8.574 -0.0141  0.2608 -0.6623
 5037SOL    HW118003   9.015   2.463   8.595 -0.0354  1.3650  1.8876
 5037SOL    HW218004   9.129   2.460   8.496 -2.1885 -1.2915 -0.7288
 5038SOL     OW18005   6.888   1.871   2.541  0.4430  0.0750  1.0651
 5038SOL    HW118006   6.850   1.938   2.597  0.0847 -0.3945  1.3991
 5038SOL    HW218007   6.851   1.789   2.574  0.8489 -0.2820  0.6465
 5039SOL     OW18008   3.127   0.343   7.541  0.3100  0.3077  0.1821
 5039SOL    HW118009   3.128   0.437   7.561 -1.6005  0.6856 -1.2185
 5039SOL    HW218010   3.035   0.318   7.551  0.7183 -1.3205  0.0530
 5040SOL     OW18011   4.773   0.955   3.094  0.1813  0.4848 -1.0761
 5040SOL    HW118012   4.788   0.866   3.062 -0.2629 -0.4035  1.0162
 5040SOL    HW218013   4.685   0.951   3.132  1.0420  1.1401  1.1040
 5041SOL     OW18014   1.791   2.512   7.358  0.0532  0.7188 -0.2109
 5041SOL    HW118015   1.713   2.554   7.321 -0.7029 -1.5053 -1.3254
 5041SOL    HW218016   1.791   2.540   7.450 -0.5949  2.7622 -0.7608
 5042SOL     OW18017   5.590   2.511   1.339 -0.8034 -0.0377  0.3595
 5042SOL    HW118018   5.575   2.512   1.244  0.7611  0.7376  0.0765
 5042SOL    HW218019   5.531   2.443   1.372 -1.9087  0.1745 -1.0626
 5043SOL     OW18020   3.138   4.896   6.645  0.0137 -0.2415  0.3578
 5043SOL    HW118021   3.211   4.843   6.678  1.5877  1.1868 -0.6827
 5043SOL    HW218022   3.109   4.850   6.566  1.3581  0.3892 -0.5314
 5044SOL     OW18023   8.798   1.480   8.322  0.7443 -0.0956 -0.2735
 5044SOL    HW118024   8.858   1.454   8.252 -0.9911 -1.2872 -1.3930
 5044SOL    HW218025   8.805   1.576   8.324  0.1541  0.0850 -2.7740
 5045SOL     OW18026   1.688   8.258   5.246  0.3639 -0.1163  0.1693
 5045SOL    HW118027   1.741   8.249   5.166 -1.8565  1.1195 -1.5362
 5045SOL    HW218028   1.711   8.344   5.281 -0.0500  0.1565 -0.2235
 5046SOL     OW18029   2.719   4.576   4.529  0.3879  0.0104  0.1721
 5046SOL    HW118030   2.712   4.556   4.622 -1.7532 -1.5550 -0.2337
 5046SOL    HW218031   2.777   4.508   4.494  0.6381  0.1794  0.2596
 5047SOL     OW18032   0.816   8.790   4.304  0.9275 -0.3816 -0.6945
 5047SOL    HW118033   0.791   8.821   4.391 -1.9070 -1.8662 -0.8394
 5047SOL    HW218034   0.856   8.704   4.320  2.6222  0.3609 -0.7491
 5048SOL     OW18035   8.015   6.881   7.824 -0.0922 -0.3687 -0.3714
 5048SOL    HW118036   8.047   6.967   7.797 -1.4764 -0.1681 -1.5252
 5048SOL    HW218037   8.004   6.888   7.919 -1.7097  1.3144 -0.6221
 5049SOL     OW18038   8.683   8.213   9.037 -0.4694 -0.4145  0.5796
 5049SOL    HW118039   8.637   8.131   9.052 -2.1880  0.1442 -1.1888
 5049SOL    HW218040   8.713   8.208   8.946  2.7855 -0.5855  1.5306
 5050SOL     OW18041   7.110   8.382   4.315  0.0395  0.4623  0.4418
 5050SOL    HW118042   7.164   8.422   4.247  0.5848 -3.1884 -1.5345
 5050SOL    HW218043   7.172   8.334   4.370 -0.7918 -0.2403  0.7975
 5051SOL     OW18044   8.214   3.110   1.409 -0.1225 -0.2540  0.3357
 5051SOL    HW118045   8.203   3.017   1.425 -0.4306 -0.5725 -1.5867
 5051SOL    HW218046   8.131   3.140   1.373 -0.2267  0.9129  1.4381
 5052SOL     OW18047   1.945   1.539   0.340  0.4500  0.0586 -0.0601
 5052SOL    HW118048   1.880   1.609   0.344  0.5809  0.1947 -0.2534
 5052SOL    HW218049   1.928   1.494   0.258 -1.4966 -2.0005  1.3711
 5053SOL     OW18050   7.798   0.346   3.381 -0.4386  0.0149 -0.0640
 5053SOL    HW118051   7.722   0.397   3.355 -0.2304  1.0256  1.2168
 5053SOL    HW218052   7.873   0.395   3.348 -0.2749 -0.0180  0.2568
 5054SOL     OW18053   0.761   8.882   4.562  0.2701 -0.0694 -0.2974
 5054SOL    HW118054   0.696   8.952   4.567  0.2621  0.0189 -1.3828
 5054SOL    HW218055   0.728   8.814   4.621 -0.3179  0.3619 -0.1188
 5055SOL     OW18056   3.398   0.436   7.312 -0.1695 -0.1904  0.3189
 5055SOL    HW118057   3.307   0.409   7.296 -0.5958  0.8350  0.9116
 5055SOL    HW218058   3.395   0.532   7.309  0.9276 -0.1512  0.2068
 5056SOL     OW18059   2.823   3.007   2.875 -0.8254  0.2746  0.1510
 5056SOL    HW118060   2.823   3.096   2.909 -1.2032  0.4890 -0.4013
 5056SOL    HW218061   2.878   3.011   2.796  0.1707 -0.2513  0.7928
 5057SOL     OW18062   2.019   4.723   9.138  0.4198 -0.2776  0.0998
 5057SOL    HW118063   2.091   4.785   9.147 -1.4311  2.1987 -0.8885
 5057SOL    HW218064   1.940   4.777   9.139 -1.2956 -2.5092 -1.7575
 5058SOL     OW18065   4.084   7.777   2.819 -0.7243  0.6077  0.8596
 5058SOL    HW118066   4.000   7.779   2.773 -0.3975 -1.4444  0.0639
 5058SOL    HW218067   4.136   7.713   2.770  1.6586  2.4657  0.7835
 5059SOL     OW18068   2.093   3.583   0.895  0.0836  0.7595  0.3002
 5059SOL    HW118069   2.003   3.578   0.864  0.1110 -0.3633  0.3487
 5059SOL    HW218070   2.086   3.619   0.983 -0.3947  0.0529  0.5619
 5060SOL     OW18071   1.889   3.570   4.862 -0.4526 -0.1782 -0.0748
 5060SOL    HW118072   1.835   3.497   4.832 -1.6299 -0.2227  1.9721
 5060SOL    HW218073   1.896   3.558   4.957 -0.2418  2.0665  0.2586
 5061SOL     OW18074   6.212   5.190   6.131 -0.1156  0.0204 -0.0719
 5061SOL    HW118075   6.122   5.217   6.146 -0.7947 -1.2711 -1.5688
 5061SOL    HW218076   6.250   5.261   6.080 -0.7888 -0.1613 -0.8413
 5062SOL     OW18077   4.771   5.799   2.627 -0.1273 -0.0152 -0.2707
 5062SOL    HW118078   4.773   5.763   2.538  1.1829 -2.0529  0.5082
 5062SOL    HW218079   4.761   5.723   2.683 -0.6193  1.2044  1.3690
 5063SOL     OW18080   4.792   8.306   8.313  0.0349  0.5547  0.5271
 5063SOL    HW118081   4.850   8.263   8.250  0.5451 -0.7619  1.8219
 5063SOL    HW218082   4.716   8.333   8.262  1.1940  1.1234 -0.9624
 5064SOL     OW18083   8.671   7.764   7.563 -0.2513  0.0290 -0.3755
 5064SOL    HW118084   8.682   7.793   7.653  1.0874 -1.1103 -0.1405
 5064SOL    HW218085   8.617   7.685   7.569 -0.1644 -0.0470 -0.5598
 5065SOL     OW18086   8.031   5.747   1.053 -0.2205 -0.1847 -0.6059
 5065SOL    HW118087   8.107   5.758   1.109 -0.3505  0.4851 -0.5466
 5065SOL    HW218088   8.040   5.815   0.986 -1.9283  1.5088  0.7418
 5066SOL     OW18089   7.903   0.353   5.338  0.8403  0.4114 -0.2014
 5066SOL    HW118090   7.933   0.440   5.366 -2.5876  0.7509  3.2721
 5066SOL    HW218091   7.835   0.371   5.273  0.8365  0.2244 -0.2492
 5067SOL     OW18092   4.298   1.274   5.805 -0.1676  0.9012  0.0518
 5067SOL    HW118093   4.390   1.265   5.828  0.4077  2.2268 -1.5361
 5067SOL    HW218094   4.276   1.192   5.760  0.9491  1.5349 -1.7166
 5068SOL     OW18095   9.013   8.451   3.684  0.2971  0.4483 -0.2864
 5068SOL    HW118096   9.023   8.357   3.697  3.1543  0.6212 -0.5753
 5068SOL    HW218097   8.975   8.482   3.766 -1.5661 -0.9798 -0.5122
 5069SOL     OW18098   7.238   7.295   4.091 -0.1021 -0.0919 -0.2482
 5069SOL    HW118099   7.277   7.368   4.043 -0.2982  0.2251  0.0671
 5069SOL    HW218100   7.282   7.297   4.176  0.4609 -0.8359 -0.5091
 5070SOL     OW18101   7.559   2.005   2.732 -0.2293 -0.1195 -0.2929
 5070SOL    HW118102   7.504   2.035   2.805 -0.8473  0.2981 -0.9243
 5070SOL    HW218103   7.618   2.078   2.715 -0.7306  0.1581 -0.8449
 5071SOL     OW18104   8.340   1.330   9.254  0.4824 -0.1938  0.5180
 5071SOL    HW118105   8.392   1.383   9.194  0.4917  1.3672  1.8372
 5071SOL    HW218106   8.257   1.377   9.262  0.6793 -0.0622  2.1059
 5072SOL     OW18107   4.254   3.440   0.789  0.1084 -0.3250 -0.1296
 5072SOL    HW118108   4.168   3.402   0.807  0.0098 -0.6244 -1.1270
 5072SOL    HW218109   4.237   3.513   0.730  0.4950 -0.0589  0.0797
 5073SOL     OW18110   7.252   2.382   6.491  0.0798 -0.2027 -0.0346
 5073SOL    HW118111   7.273   2.470   6.522 -1.6935  0.3061 -0.1839
 5073SOL    HW218112   7.322   2.360   6.430 -0.1041  1.5920 -0.9259
 5074SOL     OW18113   1.618   6.652   6.208 -0.1109  0.2450  0.5096
 5074SOL    HW118114   1.588   6.742   6.200  0.2821  0.4286  1.0542
 5074SOL    HW218115   1.709   6.658   6.238 -0.5053 -0.3295  1.9127
 5075SOL     OW18116   3.711   8.900   5.006 -0.1956 -0.0455 -0.0445
 5075SOL    HW118117   3.794   8.946   4.993  0.4850 -1.0016  0.7416
 5075SOL    HW218118   3.675   8.936   5.086  0.0579 -0.4646  0.2628
 5076SOL     OW18119   5.047   1.351   3.152 -0.6099 -0.2687 -0.5537
 5076SOL    HW118120   4.985   1.294   3.198 -1.5675  1.3108  0.2069
 5076SOL    HW218121   5.123   1.296   3.136 -1.5709 -1.8047 -0.0316
 5077SOL     OW18122   3.795   1.149   9.160  0.1585 -0.1027  0.2262
 5077SOL    HW118123   3.758   1.063   9.139 -1.8383  0.9392 -0.8146
 5077SOL    HW218124   3.737   1.184   9.227  0.6714  0.6398  0.2924
 5078SOL     OW18125   4.094   2.835   0.051 -0.1528 -0.1957  0.3053
 5078SOL    HW118126   4.160   2.775   0.087 -0.8080 -0.9338  0.3111
 5078SOL    HW218127   4.133   2.867  -0.030  0.8923  0.6581  1.1110
 5079SOL     OW18128   9.173   8.993   7.408  0.2068 -0.3320  0.5121
 5079SOL    HW118129   9.174   9.022   7.317 -0.1971 -0.1817  0.5559
 5079SOL    HW218130   9.135   9.066   7.456 -0.2517 -0.6929  0.7011
 5080SOL     OW18131   3.107   6.922   1.475 -0.3229  0.2777 -0.0779
 5080SOL    HW118132   3.126   6.886   1.388  1.4654 -0.2016  0.4702
 5080SOL    HW218133   3.053   6.999   1.457  0.4839  0.5250 -1.6721
 5081SOL     OW18134   7.151   4.712   2.656  0.2592 -0.2677 -0.5626
 5081SOL    HW118135   7.187   4.648   2.594  0.5722  0.2318 -0.9067
 5081SOL    HW218136   7.094   4.767   2.602  1.7162  1.1244 -0.7363
 5082SOL     OW18137   3.437   1.652   0.541  0.8605  0.3005  0.4389
 5082SOL    HW118138   3.371   1.711   0.578 -0.0501 -0.3520 -0.1026
 5082SOL    HW218139   3.518   1.673   0.588  0.1812  0.8503  1.3829
 5083SOL     OW18140   6.148   3.141   7.002  0.4468 -0.1945  0.2945
 5083SOL    HW118141   6.130   3.141   7.096 -1.2924  2.8580  0.0862
 5083SOL    HW218142   6.062   3.147   6.961  1.2793  1.6675 -1.3319
 5084SOL     OW18143   2.444   7.703   6.415 -0.0467 -0.0305 -0.2086
 5084SOL    HW118144   2.508   7.708   6.344 -0.6031  0.0232 -0.7049
 5084SOL    HW218145   2.491   7.657   6.485  0.8032  0.7072 -0.2744
 5085SOL     OW18146   7.069   5.841   6.489  0.0622  0.3345  0.7457
 5085SOL    HW118147   7.076   5.842   6.585  1.3379 -0.9365  0.7060
 5085SOL    HW218148   7.111   5.759   6.463 -2.3339 -0.5227 -0.7816
 5086SOL     OW18149   7.104   7.155   1.747  0.2706 -0.1411 -0.1119
 5086SOL    HW118150   7.027   7.212   1.752  0.2793 -0.0329 -1.0122
 5086SOL    HW218151   7.164   7.201   1.688 -0.3244 -1.7216 -2.0912
 5087SOL     OW18152   5.866   6.415   0.256 -0.2972 -0.5539 -0.0022
 5087SOL    HW118153   5.959   6.396   0.248 -0.2633 -1.0591  1.2853
 5087SOL    HW218154   5.823   6.339   0.217 -0.2046  0.2437 -1.7447
 5088SOL     OW18155   1.795   6.270   7.418 -0.2415 -0.5164 -0.3733
 5088SOL    HW118156   1.786   6.298   7.327  0.2660 -0.2767 -0.3500
 5088SOL    HW218157   1.761   6.344   7.469 -1.1257 -0.9041 -0.3803
 5089SOL     OW18158   5.407   7.148   5.271 -0.2215 -0.5087 -0.1765
 5089SOL    HW118159   5.336   7.121   5.212  1.0404 -0.8995 -1.5588
 5089SOL    HW218160   5.369   7.138   5.359 -1.6506 -1.3653 -0.8446
 5090SOL     OW18161   2.022   3.170   6.875 -0.6293 -0.3235  0.1468
 5090SOL    HW118162   2.031   3.129   6.961 -1.4418  1.9098  1.3808
 5090SOL    HW218163   1.952   3.234   6.886 -0.7834  0.0241 -2.2198
 5091SOL     OW18164   2.155   5.718   6.780  0.0627 -0.1440  1.1536
 5091SOL    HW118165   2.128   5.628   6.761  0.7612 -0.8620  3.2682
 5091SOL    HW218166   2.224   5.736   6.716 -3.1436  0.6972 -2.4345
 5092SOL     OW18167   0.330   2.848   8.452 -0.1329  0.1225 -0.0029
 5092SOL    HW118168   0.272   2.921   8.472 -1.2775 -0.9490  0.7363
 5092SOL    HW218169   0.357   2.814   8.538  0.3953 -0.3215 -0.3330
 5093SOL     OW18170   4.536   0.516   9.231 -0.7825  0.2314  0.2005
 5093SOL    HW118171   4.496   0.469   9.304 -0.5282  0.3574  0.4232
 5093SOL    HW218172   4.545   0.606   9.262 -0.8302  0.3246 -0.0485
 5094SOL     OW18173   7.442   6.457   6.470  0.1873 -0.3096 -0.2627
 5094SOL    HW118174   7.487   6.504   6.401  2.3913 -0.8106  0.7521
 5094SOL    HW218175   7.371   6.410   6.426 -1.8573  3.4418 -1.3946
 5095SOL     OW18176   3.248   1.580   4.742 -0.6523 -0.1399  0.0768
 5095SOL    HW118177   3.302   1.504   4.764 -0.3558 -0.4033 -1.4532
 5095SOL    HW218178   3.305   1.636   4.690 -0.7795  1.3145  1.4141
 5096SOL     OW18179   5.363   1.292   1.724  0.3806  0.0293  0.3188
 5096SOL    HW118180   5.390   1.203   1.747  1.4811  0.9435  3.0351
 5096SOL    HW218181   5.442   1.331   1.686  0.6341  0.4688  1.2525
 5097SOL     OW18182   6.500   1.107   5.736  0.1160 -0.1890 -0.3179
 5097SOL    HW118183   6.545   1.188   5.758 -0.9762 -0.1795  2.2187
 5097SOL    HW218184   6.510   1.099   5.642  3.0211  1.1981 -0.2355
 5098SOL     OW18185   3.219   8.185   7.913  0.1328  0.4034  0.4584
 5098SOL    HW118186   3.266   8.181   7.830  0.2512 -0.0865  0.5447
 5098SOL    HW218187   3.208   8.279   7.930  1.8487  0.5507  0.8745
 5099SOL     OW18188   6.809   6.215   4.047 -0.2769  0.0840 -0.6041
 5099SOL    HW118189   6.745   6.240   4.114 -0.9721 -2.3526 -0.2549
 5099SOL    HW218190   6.884   6.181   4.096  0.4305  0.9521 -1.0541
 5100SOL     OW18191   3.718   3.445   5.180  0.0593  0.1286 -0.1244
 5100SOL    HW118192   3.674   3.407   5.256 -1.3035 -0.3372 -1.1103
 5100SOL    HW218193   3.793   3.387   5.164  0.9337  0.7778  1.4075
 5101SOL     OW18194   2.400   2.509   3.684  0.0842  0.2150  0.2400
 5101SOL    HW118195   2.431   2.595   3.657 -2.1111  1.1265  0.3792
 5101SOL    HW218196   2.426   2.450   3.613 -0.2595  1.4127 -0.9170
 5102SOL     OW18197   7.507   8.089   4.501 -0.1432  0.2546 -0.1563
 5102SOL    HW118198   7.563   8.055   4.571 -0.5781  0.5561  0.3524
 5102SOL    HW218199   7.557   8.075   4.421 -0.5842 -2.2647 -0.0852
 5103SOL     OW18200   5.033   7.500   2.343  0.3628 -0.0658 -0.1295
 5103SOL    HW118201   5.104   7.488   2.405 -0.0783 -1.1223  0.1883
 5103SOL    HW218202   4.989   7.415   2.339 -1.0181  0.6108 -0.1413
 5104SOL     OW18203   8.333   4.540   0.519 -0.3320 -0.0627  0.1734
 5104SOL    HW118204   8.350   4.611   0.457 -0.7534  0.4251  0.6007
 5104SOL    HW218205   8.343   4.460   0.467  0.4512  0.2917 -0.2429
 5105SOL     OW18206   2.290   7.098   2.421 -0.5345 -0.7430 -0.2011
 5105SOL    HW118207   2.293   7.168   2.355  0.3219 -0.3980  0.1927
 5105SOL    HW218208   2.206   7.111   2.465  0.8554  2.0123  1.9488
 5106SOL     OW18209   4.130   5.051   1.157 -0.5807 -0.0118  0.1856
 5106SOL    HW118210   4.097   5.062   1.246 -2.5142  1.6895 -0.6639
 5106SOL    HW218211   4.052   5.038   1.104  0.1758  2.4134 -1.7018
 5107SOL     OW18212   4.441   6.144   2.675 -0.2949 -0.2688 -0.2411
 5107SOL    HW118213   4.469   6.053   2.679  1.0365  0.1288 -0.0344
 5107SOL    HW218214   4.360   6.147   2.727 -0.2357 -1.2779 -0.0785
 5108SOL     OW18215   2.609   1.242   2.856 -0.5959 -0.3236 -0.2560
 5108SOL    HW118216   2.569   1.301   2.920  0.8410 -0.3323  0.6926
 5108SOL    HW218217   2.556   1.162   2.863 -1.2932  0.1359 -0.0737
 5109SOL     OW18218   1.549   3.109   5.034 -0.6531 -0.1100 -0.2755
 5109SOL    HW118219   1.577   3.039   4.975  0.8401  0.7766 -0.6749
 5109SOL    HW218220   1.495   3.066   5.099  1.4858 -1.9357  0.4169
 5110SOL     OW18221   1.136   7.587   5.480  0.0424 -0.8023  0.1553
 5110SOL    HW118222   1.214   7.584   5.423 -0.5392 -1.1273 -0.6411
 5110SOL    HW218223   1.090   7.666   5.453  0.0799 -0.6180  0.6185
 5111SOL     OW18224   6.336   8.714   0.719  0.1199 -0.4235  0.7079
 5111SOL    HW118225   6.256   8.744   0.675 -0.2736 -2.1928  0.1331
 5111SOL    HW218226   6.324   8.739   0.810 -0.3502  0.7573  0.3467
 5112SOL     OW18227   3.833   8.624   9.057  0.0790  0.2329  0.5917
 5112SOL    HW118228   3.750   8.641   9.101  0.2661  0.0376  1.0261
 5112SOL    HW218229   3.808   8.596   8.968 -0.3316 -0.2184  0.8464
 5113SOL     OW18230   1.684   4.759   1.614  0.2260  0.8192  0.0968
 5113SOL    HW118231   1.593   4.732   1.596 -0.0028  1.1482  0.7288
 5113SOL    HW218232   1.737   4.695   1.567 -0.3292  0.1399  0.3662
 5114SOL     OW18233   3.836   5.812   1.983  0.4389 -0.2546  0.2725
 5114SOL    HW118234   3.784   5.891   1.967  0.0179 -0.9007 -1.8455
 5114SOL    HW218235   3.788   5.742   1.938  1.6028 -1.4374  0.8153
 5115SOL     OW18236   3.988   4.920   5.371  0.0773  0.0940  0.2710
 5115SOL    HW118237   4.060   4.954   5.317 -0.4748 -0.6868 -0.9938
 5115SOL    HW218238   4.031   4.886   5.450  0.9637  0.7105  0.0639
 5116SOL     OW18239   1.990   5.823   8.507  0.2067 -0.4381  0.0027
 5116SOL    HW118240   1.964   5.735   8.532  0.7256 -0.7179 -0.4378
 5116SOL    HW218241   2.085   5.820   8.503  0.1734 -0.2212 -1.3445
 5117SOL     OW18242   2.604   8.410   3.296  0.3752 -0.2041 -1.2301
 5117SOL    HW118243   2.559   8.447   3.220  0.5334  1.2359 -0.6532
 5117SOL    HW218244   2.640   8.326   3.264 -1.8426 -0.9379 -1.9564
 5118SOL     OW18245   3.017   2.224   5.950  0.4856  0.4428  0.0047
 5118SOL    HW118246   3.068   2.223   6.030  1.8695 -0.3963 -0.8535
 5118SOL    HW218247   2.928   2.246   5.978  0.9464  0.2019  1.7395
 5119SOL     OW18248   2.922   8.302   0.153 -0.1420  0.8844  0.0363
 5119SOL    HW118249   2.901   8.374   0.212  1.1570  2.6994 -1.5807
 5119SOL    HW218250   3.017   8.307   0.141 -0.0925 -0.7428 -0.5803
 5120SOL     OW18251   7.335   8.386   2.401 -0.0534 -0.5096  0.8050
 5120SOL    HW118252   7.263   8.333   2.367  0.6739 -2.2180  1.8517
 5120SOL    HW218253   7.413   8.346   2.364  0.5208 -0.1642  1.6360
 5121SOL     OW18254   6.613   8.136   7.694  0.8817 -0.2319 -0.0356
 5121SOL    HW118255   6.651   8.207   7.747 -1.0190  0.7105  0.1591
 5121SOL    HW218256   6.556   8.089   7.755  0.8768 -0.9160 -0.5599
 5122SOL     OW18257   7.081   1.907   6.195  0.0466  0.2376 -0.1830
 5122SOL    HW118258   7.016   1.937   6.131 -0.6419  1.4471  1.0491
 5122SOL    HW218259   7.034   1.901   6.277  1.2727  0.1742  0.5449
 5123SOL     OW18260   3.721   4.228   9.051  0.2988 -0.0741 -0.5110
 5123SOL    HW118261   3.795   4.266   9.003 -0.3055  2.8535  0.6198
 5123SOL    HW218262   3.646   4.238   8.992 -0.0678  1.6763  0.1860
 5124SOL     OW18263   1.515   1.505   6.578 -0.1496 -0.0625 -0.5124
 5124SOL    HW118264   1.481   1.561   6.648  1.4527  0.9148 -0.4536
 5124SOL    HW218265   1.524   1.564   6.502  0.9729 -0.3496 -0.6321
 5125SOL     OW18266   5.825   5.573   3.445  0.1138 -0.6756 -0.0885
 5125SOL    HW118267   5.864   5.508   3.503 -0.6385 -1.2984 -0.2677
 5125SOL    HW218268   5.761   5.524   3.394 -0.9150  0.3234  0.2091
 5126SOL     OW18269   3.087   6.079   0.041  0.3645  0.0567  0.2537
 5126SOL    HW118270   3.001   6.055   0.007 -0.1481  0.0403  1.5417
 5126SOL    HW218271   3.148   6.026  -0.010 -0.2009  1.4710 -2.0410
 5127SOL     OW18272   6.450   4.677   1.599  0.1841 -0.4425 -0.2590
 5127SOL    HW118273   6.494   4.600   1.562  0.6987  0.9548 -2.7538
 5127SOL    HW218274   6.360   4.671   1.566  0.3339  0.2109 -0.8085
 5128SOL     OW18275   3.645   1.675   1.896  0.1809  0.2573 -0.4556
 5128SOL    HW118276   3.614   1.604   1.953  0.6399 -0.6320 -1.2884
 5128SOL    HW218277   3.635   1.754   1.949  0.6024 -0.5456  0.8743
 5129SOL     OW18278   6.631   0.449   6.462  0.1325  0.1064 -0.6527
 5129SOL    HW118279   6.600   0.366   6.499 -0.7687  0.5551 -0.3897
 5129SOL    HW218280   6.688   0.423   6.390 -0.0629 -0.7477 -0.5094
 5130SOL     OW18281   6.578   7.703   4.672  0.2405 -0.3816  0.4616
 5130SOL    HW118282   6.658   7.749   4.647 -0.6904  0.5146 -1.0423
 5130SOL    HW218283   6.538   7.678   4.588 -2.0976  1.0914  1.0286
 5131SOL     OW18284   2.414   1.311   1.595  0.4775 -0.1841 -0.5115
 5131SOL    HW118285   2.354   1.292   1.523 -1.6273 -2.7216  1.7111
 5131SOL    HW218286   2.365   1.369   1.653  2.0548  1.6327 -0.8902
 5132SOL     OW18287   7.663   6.189   6.298  0.0831 -0.3088  0.6585
 5132SOL    HW118288   7.609   6.204   6.376 -0.1836 -0.7197  0.5550
 5132SOL    HW218289   7.603   6.200   6.224  0.5729  1.1816  0.4473
 5133SOL     OW18290   6.011   4.983   3.191 -0.2170  0.0882  0.2014
 5133SOL    HW118291   6.009   4.910   3.129 -0.4743 -0.3461  0.7078
 5133SOL    HW218292   6.082   4.961   3.252 -1.5201 -0.7256  1.5004
 5134SOL     OW18293   5.041   2.404   3.188  0.0204  0.1765 -0.1536
 5134SOL    HW118294   5.031   2.313   3.218 -1.8324  1.0471  2.2688
 5134SOL    HW218295   5.012   2.402   3.097 -0.1739 -1.6360 -0.0951
 5135SOL     OW18296   5.697   3.289   3.850 -0.1780 -0.0722 -0.0493
 5135SOL    HW118297   5.721   3.219   3.789 -1.9724 -0.8089  0.0191
 5135SOL    HW218298   5.627   3.337   3.806 -1.4347 -0.5434  1.3420
 5136SOL     OW18299   1.263   0.474   4.686 -0.2952 -0.6193  0.1223
 5136SOL    HW118300   1.313   0.494   4.607 -2.1168  2.0378 -0.4937
 5136SOL    HW218301   1.243   0.559   4.725 -2.1794 -1.6698  1.6899
 5137SOL     OW18302   2.454   8.545   5.023 -0.9187 -0.3077 -0.7607
 5137SOL    HW118303   2.491   8.564   5.110  0.1568  0.7112 -1.3985
 5137SOL    HW218304   2.367   8.510   5.041 -0.4648 -0.7598  0.7506
 5138SOL     OW18305   0.741   6.656   1.889  0.4685  0.4964 -0.0815
 5138SOL    HW118306   0.796   6.651   1.812  0.3319 -0.1478 -0.1421
 5138SOL    HW218307   0.798   6.691   1.958  0.8324  0.2309 -0.2503
 5139SOL     OW18308   4.086   4.285   3.702  0.7133 -0.0608  0.0261
 5139SOL    HW118309   4.013   4.246   3.654 -0.2444  0.4945  0.9876
 5139SOL    HW218310   4.137   4.209   3.731  0.2649 -0.4886 -0.2637
 5140SOL     OW18311   1.064   0.011   0.663 -0.2415 -0.1266  0.3207
 5140SOL    HW118312   1.094   0.068   0.734 -0.3475 -0.0179  0.2788
 5140SOL    HW218313   1.055  -0.075   0.703  0.5806 -0.2637  0.2246
 5141SOL     OW18314   7.217   5.923   6.085 -0.4234 -0.3034  0.8897
 5141SOL    HW118315   7.281   5.936   6.014 -1.6999 -2.2071 -0.7150
 5141SOL    HW218316   7.146   5.984   6.064  0.5176  1.3836  2.3452
 5142SOL     OW18317   1.093   8.471   3.886 -0.4512  0.2565  0.1972
 5142SOL    HW118318   1.085   8.541   3.821 -1.8139 -0.1450 -0.0924
 5142SOL    HW218319   1.077   8.390   3.837  0.1507 -0.1977  0.7240
 5143SOL     OW18320   6.911   2.391   1.885 -0.6705 -0.3996 -0.0138
 5143SOL    HW118321   6.994   2.348   1.908  0.5127  1.5706 -0.3180
 5143SOL    HW218322   6.848   2.358   1.949  0.3170 -2.0036  0.1891
 5144SOL     OW18323   3.426   7.473   3.363 -0.0545  0.1908  0.3622
 5144SOL    HW118324   3.387   7.412   3.301  0.1367 -0.0897  0.5156
 5144SOL    HW218325   3.521   7.458   3.356  0.0261  0.8164  0.0423
 5145SOL     OW18326   1.136   8.038   5.748 -0.1597  0.2425  0.0756
 5145SOL    HW118327   1.087   8.082   5.679  0.9348  1.2444 -0.0953
 5145SOL    HW218328   1.077   8.037   5.823 -0.1756  2.2114  0.1378
 5146SOL     OW18329   0.388   1.201   4.188  0.2407  0.0488 -0.0097
 5146SOL    HW118330   0.300   1.237   4.174 -0.5276 -0.8282  2.1676
 5146SOL    HW218331   0.374   1.121   4.239  2.2325 -0.8048 -0.6944
 5147SOL     OW18332   2.030   8.251   6.834 -0.3803 -0.3691  0.5079
 5147SOL    HW118333   2.028   8.341   6.800  1.6520 -0.7653 -0.8502
 5147SOL    HW218334   1.944   8.215   6.813 -0.3071  0.4467 -1.4193
 5148SOL     OW18335   1.371   4.532   6.602  0.0323  0.3706  0.4015
 5148SOL    HW118336   1.294   4.481   6.575  1.7585 -1.1292 -2.0472
 5148SOL    HW218337   1.414   4.477   6.668 -0.8456  1.1647  1.6962
 5149SOL     OW18338   0.921   2.809   1.899  0.1868  0.3465  0.3290
 5149SOL    HW118339   0.885   2.897   1.901  0.3444  0.5384 -2.0164
 5149SOL    HW218340   0.844   2.752   1.892  0.1153  0.6306 -2.4873
 5150SOL     OW18341   7.355   4.161   1.171  0.1178  0.3557  0.0705
 5150SOL    HW118342   7.337   4.067   1.169 -2.2898  0.6882  1.4317
 5150SOL    HW218343   7.340   4.191   1.082 -0.2062 -0.3866 -0.1286
 5151SOL     OW18344   3.340   3.074   1.580  0.1499 -0.2961  0.5109
 5151SOL    HW118345   3.256   3.043   1.545  0.6365 -0.1335 -0.8329
 5151SOL    HW218346   3.340   3.043   1.671 -0.7823 -1.4681  0.1486
 5152SOL     OW18347   4.077   1.734   2.981 -0.3504  0.6501 -0.1428
 5152SOL    HW118348   4.076   1.734   2.885  0.6932 -0.3280 -0.1867
 5152SOL    HW218349   4.169   1.717   3.003 -0.8463 -0.7151  1.0046
 5153SOL     OW18350   0.285   0.775   7.192 -0.6427  0.3765 -0.1222
 5153SOL    HW118351   0.377   0.756   7.174 -0.7761  0.6607 -1.1348
 5153SOL    HW218352   0.249   0.803   7.108 -1.2068  2.1115  0.6637
 5154SOL     OW18353   6.144   4.413   8.382  0.0800  0.2569 -0.1349
 5154SOL    HW118354   6.191   4.478   8.433 -0.4109  0.9042 -0.4927
 5154SOL    HW218355   6.210   4.346   8.361  0.7286  0.9106 -0.2341
 5155SOL     OW18356   2.109   3.090   5.594  0.4403  0.4706  0.2182
 5155SOL    HW118357   2.084   3.180   5.572  0.7992  0.7959  1.0964
 5155SOL    HW218358   2.029   3.050   5.628  0.6324  0.9525  1.2976
 5156SOL     OW18359   7.730   3.831   7.749  0.6689 -0.1544  0.3682
 5156SOL    HW118360   7.736   3.918   7.710  2.3243 -0.5121 -0.2389
 5156SOL    HW218361   7.816   3.817   7.789 -0.0498 -0.9532  1.6862
 5157SOL     OW18362   5.795   7.098   2.412  0.3164 -0.5822 -0.0132
 5157SOL    HW118363   5.783   7.009   2.444  0.8602 -0.5709  0.2323
 5157SOL    HW218364   5.737   7.104   2.336 -0.7440 -0.7094  0.7593
 5158SOL     OW18365   9.165   4.659   0.616 -0.4690 -0.4553  0.1465
 5158SOL    HW118366   9.194   4.571   0.640  1.3216  0.6872  2.4951
 5158SOL    HW218367   9.242   4.701   0.578 -0.9920  0.4855  0.0846
 5159SOL     OW18368   6.605   0.307   2.498  0.6752  0.4827 -0.2481
 5159SOL    HW118369   6.667   0.376   2.476  0.2451  0.3070 -2.2745
 5159SOL    HW218370   6.580   0.269   2.413  1.4849 -2.6978  0.7714
 5160SOL     OW18371   2.755   0.905   5.449 -0.4342  0.1908 -0.1105
 5160SOL    HW118372   2.795   0.982   5.489 -1.5501  1.8142 -1.9361
 5160SOL    HW218373   2.818   0.877   5.382 -0.1833 -0.2822  0.3193
 5161SOL     OW18374   1.036   9.063   9.257  0.0800  0.4014 -0.6191
 5161SOL    HW118375   0.972   9.123   9.219  0.6691  0.8792 -0.8733
 5161SOL    HW218376   1.022   9.070   9.352  0.9309  1.8577 -0.5674
 5162SOL     OW18377   2.982   5.114   0.132  0.1847 -0.0775 -0.7739
 5162SOL    HW118378   2.965   5.036   0.080  2.3932 -0.1532 -1.4510
 5162SOL    HW218379   2.992   5.081   0.222 -0.1254 -0.3891 -0.8506
 5163SOL     OW18380   4.348   7.259   4.562 -0.5117  0.1089 -0.4180
 5163SOL    HW118381   4.349   7.211   4.645  0.3808  4.2937  2.3009
 5163SOL    HW218382   4.439   7.262   4.534 -0.4380  0.8347 -0.1230
 5164SOL     OW18383   6.490   4.817   0.263  0.0305 -0.1205  0.5538
 5164SOL    HW118384   6.397   4.831   0.280 -0.1351 -0.2537 -0.1911
 5164SOL    HW218385   6.492   4.767   0.181  0.6086 -3.7422  2.5658
 5165SOL     OW18386   2.464   0.627   1.923 -0.1597 -0.3156  0.1733
 5165SOL    HW118387   2.372   0.650   1.938 -0.4632 -1.0160 -0.5500
 5165SOL    HW218388   2.513   0.689   1.976 -1.0492  0.1656  0.4518
 5166SOL     OW18389   3.596   5.851   4.562 -0.2916  0.0223  0.0032
 5166SOL    HW118390   3.608   5.942   4.588 -0.1852 -0.3232  1.2725
 5166SOL    HW218391   3.684   5.818   4.548 -0.3138  0.0500 -0.1960
 5167SOL     OW18392   1.664   1.317   6.702  0.2849 -0.1531  0.6161
 5167SOL    HW118393   1.594   1.379   6.679 -0.6805 -0.1620  3.1948
 5167SOL    HW218394   1.723   1.319   6.627 -2.0011  0.5416 -1.2912
 5168SOL     OW18395   2.076   4.989   8.916 -0.4164  0.0249  0.6670
 5168SOL    HW118396   2.025   5.059   8.959 -0.7605  0.5214 -0.5185
 5168SOL    HW218397   2.156   4.984   8.967 -0.5941  0.9640  1.0645
 5169SOL     OW18398   2.979   6.867   2.720  0.0319 -0.1180 -0.1989
 5169SOL    HW118399   2.927   6.815   2.780  1.4542  0.3406  1.5173
 5169SOL    HW218400   2.916   6.926   2.678 -0.8955  0.2389  1.6006
 5170SOL     OW18401   8.178   0.647   7.800  0.1450 -0.0849 -0.0686
 5170SOL    HW118402   8.232   0.630   7.877  0.5816 -1.4907 -0.6660
 5170SOL    HW218403   8.113   0.577   7.801 -2.5130  2.1832  1.2903
 5171SOL     OW18404   6.734   2.962   1.053 -0.2595 -0.3304  0.3950
 5171SOL    HW118405   6.753   2.879   1.010 -0.5157 -0.4788  0.5586
 5171SOL    HW218406   6.810   2.980   1.108  0.5485  0.3990 -0.9103
 5172SOL     OW18407   7.054   0.531   2.838 -0.5428  0.7962  0.0971
 5172SOL    HW118408   7.060   0.590   2.913 -0.0787 -1.0144  1.5422
 5172SOL    HW218409   6.969   0.488   2.849  0.3758 -0.9450  0.7813
 5173SOL     OW18410   7.416   6.454   1.199 -0.0212  0.4476  0.2314
 5173SOL    HW118411   7.342   6.405   1.233  0.2123 -1.6348 -2.0205
 5173SOL    HW218412   7.448   6.403   1.125  2.5046  2.2320 -0.0719
 5174SOL     OW18413   4.607   2.813   7.035 -0.2196  0.4752  0.1215
 5174SOL    HW118414   4.698   2.781   7.035 -0.4835 -0.3041  0.2996
 5174SOL    HW218415   4.611   2.896   7.082  0.4637  0.6297 -0.1886
 5175SOL     OW18416   7.416   3.024   3.356  0.0049 -0.5705  0.2674
 5175SOL    HW118417   7.361   2.978   3.418  0.1540 -0.6194  0.3644
 5175SOL    HW218418   7.454   2.955   3.302  0.6027 -0.6040  0.7183
 5176SOL     OW18419   6.679   6.845   4.388 -0.1771  0.0218 -1.0246
 5176SOL    HW118420   6.613   6.832   4.321 -0.0895  0.1851 -1.1417
 5176SOL    HW218421   6.757   6.873   4.340  0.1728 -0.8077 -0.9593
 5177SOL     OW18422   5.826   0.009   6.428  0.0361 -0.0436 -0.0815
 5177SOL    HW118423   5.880  -0.055   6.383  0.8728  0.6072 -0.0319
 5177SOL    HW218424   5.812   0.079   6.364 -1.3682 -0.5231 -0.3371
 5178SOL     OW18425   6.905   8.313   5.012  0.2323  0.0861 -0.7934
 5178SOL    HW118426   6.828   8.270   4.975  0.1280  0.5422 -1.1088
 5178SOL    HW218427   6.884   8.327   5.104  0.3431 -0.7112 -0.6378
 5179SOL     OW18428   0.044   0.640   0.524 -0.4173 -0.5240  0.2755
 5179SOL    HW118429   0.122   0.678   0.564 -0.6472 -0.8586  1.0640
 5179SOL    HW218430   0.070   0.618   0.435  0.6371 -1.4095  0.7860
 5180SOL     OW18431   4.377   7.274   4.895 -0.3727  0.3958 -0.0840
 5180SOL    HW118432   4.330   7.250   4.974  3.4436 -0.9748  2.0414
 5180SOL    HW218433   4.444   7.335   4.924  1.1532 -0.1148 -2.2227
 5181SOL     OW18434   7.581   9.079   2.344  0.6950 -0.5053  0.4268
 5181SOL    HW118435   7.669   9.095   2.312  0.3019 -2.0844 -1.7111
 5181SOL    HW218436   7.543   9.166   2.356  2.2495  0.1794  0.6486
 5182SOL     OW18437   8.750   6.951   6.817 -0.2308  0.4489 -0.2302
 5182SOL    HW118438   8.689   7.021   6.840 -1.2811 -0.5967  0.2629
 5182SOL    HW218439   8.810   6.992   6.755 -1.6931  1.3992 -1.0883
 5183SOL     OW18440   0.810   1.647   7.218 -1.3870  0.1553 -0.5403
 5183SOL    HW118441   0.734   1.671   7.165 -0.3306  3.1416 -0.8854
 5183SOL    HW218442   0.885   1.670   7.164 -0.2660  1.3323  1.4135
 5184SOL     OW18443   7.079   4.220   2.255 -0.4966 -0.4551 -0.2008
 5184SOL    HW118444   7.072   4.280   2.329  0.5682 -2.8742  1.9927
 5184SOL    HW218445   7.019   4.149   2.276  1.3507 -2.2073 -0.5538
 5185SOL     OW18446   8.167   5.690   3.325  0.1291 -0.0418  0.3669
 5185SOL    HW118447   8.096   5.737   3.282  0.2109  0.4642  0.7736
 5185SOL    HW218448   8.198   5.628   3.259  2.7250  3.1876 -1.7671
 5186SOL     OW18449   7.004   4.838   4.711 -0.4140  0.0712 -0.2475
 5186SOL    HW118450   7.030   4.925   4.682 -2.0093  0.2519 -1.2080
 5186SOL    HW218451   6.948   4.854   4.787 -0.5941 -0.1213 -0.3384
 5187SOL     OW18452   0.142   4.094   7.792 -0.0364  0.1170  0.0805
 5187SOL    HW118453   0.113   4.012   7.834  0.6193 -0.6705 -0.9471
 5187SOL    HW218454   0.185   4.065   7.712  0.6433  1.4595 -0.0581
 5188SOL     OW18455   7.647   6.297   1.701  0.6644  0.0496 -0.2791
 5188SOL    HW118456   7.649   6.246   1.782  1.1744  0.6307  0.0772
 5188SOL    HW218457   7.713   6.365   1.713 -0.7716  1.5213 -0.2695
 5189SOL     OW18458   0.035   3.215   3.405 -0.1840  0.3973  0.0953
 5189SOL    HW118459   0.010   3.240   3.494  1.4993  0.1130  0.6884
 5189SOL    HW218460   0.016   3.293   3.352  1.4862  1.6598  1.2429
 5190SOL     OW18461   4.739   2.680   8.686 -0.1532  0.1709 -0.4709
 5190SOL    HW118462   4.683   2.610   8.720 -0.0464  0.6034  0.6226
 5190SOL    HW218463   4.678   2.745   8.652 -0.2528 -0.4848 -1.6103
 5191SOL     OW18464   8.614   3.502   6.908  0.2024 -0.1428 -0.1914
 5191SOL    HW118465   8.532   3.470   6.945 -1.9829  0.6330 -3.8520
 5191SOL    HW218466   8.668   3.424   6.898 -0.3563 -0.7930  1.5431
 5192SOL     OW18467   4.630   6.165   1.604 -0.1622  0.3656 -0.5060
 5192SOL    HW118468   4.712   6.185   1.648 -0.0349  1.3912 -1.1609
 5192SOL    HW218469   4.620   6.235   1.539 -1.4645  0.1587 -0.5589
 5193SOL     OW18470   4.924   2.780   3.414 -0.3961 -0.5193  0.1873
 5193SOL    HW118471   4.838   2.743   3.396 -0.3859  0.1432 -1.3679
 5193SOL    HW218472   4.984   2.705   3.409 -0.5727 -0.5805 -1.3339
 5194SOL     OW18473   0.787   1.339   7.540 -0.1002  0.2282 -0.1785
 5194SOL    HW118474   0.828   1.296   7.616  0.2986  0.3432 -0.3250
 5194SOL    HW218475   0.813   1.431   7.548  0.0180  0.2252 -0.5004
 5195SOL     OW18476   7.708   3.585   8.680  0.4437  0.2045 -0.3055
 5195SOL    HW118477   7.640   3.651   8.689  0.0976 -0.1099 -0.5622
 5195SOL    HW218478   7.721   3.577   8.585 -1.2417 -1.8073 -0.4318
 5196SOL     OW18479   2.506   4.503   1.848  0.3116  0.4669  0.0348
 5196SOL    HW118480   2.599   4.502   1.870  0.2412 -1.5150  0.4286
 5196SOL    HW218481   2.485   4.411   1.829 -0.8847  1.2529 -3.0674
 5197SOL     OW18482   1.801   7.115   8.623  0.5695 -0.2436  0.5853
 5197SOL    HW118483   1.892   7.142   8.620  0.4542  0.2414  1.2502
 5197SOL    HW218484   1.802   7.024   8.596  1.0927  0.1171 -0.6842
 5198SOL     OW18485   3.406   3.877   8.162 -0.1100  0.1043 -0.2908
 5198SOL    HW118486   3.470   3.848   8.228  0.5439 -0.9294 -1.3406
 5198SOL    HW218487   3.344   3.931   8.211  0.8952  0.1480  0.9868
 5199SOL     OW18488   2.299   3.902   3.341 -0.2534  0.1582 -0.1505
 5199SOL    HW118489   2.392   3.888   3.358 -0.5688 -0.4675  1.2235
 5199SOL    HW218490   2.255   3.837   3.396 -1.4642 -1.0148 -2.3617
 5200SOL     OW18491   4.409   7.564   5.321  0.2507  0.0599 -0.1882
 5200SOL    HW118492   4.446   7.622   5.254  0.2679  1.6129  1.1028
 5200SOL    HW218493   4.320   7.596   5.334 -0.4273 -1.4731 -0.8092
 5201SOL     OW18494   3.957   6.450   7.370 -0.4111 -0.1421 -0.0935
 5201SOL    HW118495   4.008   6.526   7.341  0.3324 -0.2767  0.8360
 5201SOL    HW218496   3.866   6.479   7.362 -0.1633  0.5726 -0.4840
 5202SOL     OW18497   5.293   5.347   1.099  0.0451  0.2732 -0.0571
 5202SOL    HW118498   5.257   5.290   1.166 -0.3084  1.9814  1.2772
 5202SOL    HW218499   5.217   5.389   1.059  0.3487  0.7043 -0.1969
 5203SOL     OW18500   0.955   2.085   7.324 -0.1550 -0.0574 -0.2627
 5203SOL    HW118501   1.039   2.038   7.318  0.0109  0.2670 -0.5314
 5203SOL    HW218502   0.981   2.177   7.333 -0.4878  0.0709 -0.6226
 5204SOL     OW18503   5.536   5.397   0.987  0.4156 -0.2388  0.0545
 5204SOL    HW118504   5.533   5.493   0.993 -0.4623 -0.1519 -1.4758
 5204SOL    HW218505   5.461   5.368   1.039 -0.1705 -0.0160 -0.6478
 5205SOL     OW18506   5.151   6.770   1.313 -0.0626  0.1401  0.0541
 5205SOL    HW118507   5.142   6.682   1.276 -2.1465  1.2779 -2.4357
 5205SOL    HW218508   5.065   6.788   1.351  0.5215  0.9203  1.0484
 5206SOL     OW18509   0.522   2.031   7.411  0.2943 -0.3858  0.7834
 5206SOL    HW118510   0.604   1.993   7.379 -0.0087  0.6625 -1.3756
 5206SOL    HW218511   0.456   1.964   7.392  0.2424 -0.1045 -0.0454
 5207SOL     OW18512   7.182   0.293   1.377 -0.1765  0.5021  0.2366
 5207SOL    HW118513   7.185   0.339   1.294 -0.2124  1.0593  0.5422
 5207SOL    HW218514   7.111   0.334   1.426 -1.7186 -1.3533 -0.3328
 5208SOL     OW18515   0.549   0.840   8.656  0.1781 -0.0447  0.5382
 5208SOL    HW118516   0.561   0.749   8.681  2.1008 -0.3354 -1.2358
 5208SOL    HW218517   0.617   0.857   8.591 -0.1121  2.6711  0.8257
 5209SOL     OW18518   0.830   0.605   1.174 -0.7032 -0.0433 -0.6883
 5209SOL    HW118519   0.792   0.678   1.223  0.4528 -1.6196  2.8472
 5209SOL    HW218520   0.921   0.631   1.159 -0.9248  0.2229 -1.6393
 5210SOL     OW18521   8.039   7.780   0.741 -0.4593  0.1386 -0.0558
 5210SOL    HW118522   7.967   7.718   0.743  0.5179 -1.2599 -2.6760
 5210SOL    HW218523   8.006   7.854   0.690 -0.8394  0.7200  1.0001
 5211SOL     OW18524   8.732   3.114   2.991 -0.0181  0.1069 -0.4514
 5211SOL    HW118525   8.686   3.062   3.058  0.7460  0.5710  0.4480
 5211SOL    HW218526   8.821   3.123   3.025  0.8286 -0.9043 -2.2301
 5212SOL     OW18527   2.468   7.743   0.345  0.3034 -0.2564  0.1737
 5212SOL    HW118528   2.533   7.752   0.275  0.3922  0.0538  0.2953
 5212SOL    HW218529   2.515   7.700   0.416  0.7442  1.1137  0.7415
 5213SOL     OW18530   3.836   2.156   2.219 -0.3946 -0.1068 -0.2771
 5213SOL    HW118531   3.773   2.121   2.157 -1.2395  0.1334  0.4174
 5213SOL    HW218532   3.826   2.251   2.213  0.1050 -0.0604 -0.3711
 5214SOL     OW18533   4.849   1.056   6.567  0.4197 -0.0372  0.3349
 5214SOL    HW118534   4.794   0.981   6.592  0.5023 -0.5424 -0.8877
 5214SOL    HW218535   4.787   1.124   6.541  0.3538 -0.3468 -0.3351
 5215SOL     OW18536   8.920   6.566   1.411 -0.1962 -0.1792 -0.0010
 5215SOL    HW118537   8.879   6.593   1.329 -2.8835  1.1732  1.6533
 5215SOL    HW218538   8.994   6.626   1.422 -0.6927  0.5799 -0.7476
 5216SOL     OW18539   7.757   7.775   0.562  0.0240 -0.2216 -0.4128
 5216SOL    HW118540   7.756   7.696   0.615  0.6089  0.2114  0.2641
 5216SOL    HW218541   7.667   7.808   0.565 -0.1934 -0.7924 -0.6104
 5217SOL     OW18542   8.089   6.222   2.263 -0.5067 -0.1573  0.3595
 5217SOL    HW118543   8.117   6.303   2.305 -1.3547 -0.7595  2.1532
 5217SOL    HW218544   8.136   6.221   2.179  0.1311  1.7720  0.6616
 5218SOL     OW18545   1.979   7.721   4.666  0.1416  0.0859 -0.1615
 5218SOL    HW118546   2.014   7.786   4.605  0.1854  0.1406 -0.0790
 5218SOL    HW218547   2.001   7.637   4.626 -2.3198  0.0767 -1.6509
 5219SOL     OW18548   7.462   8.706   8.550  0.3117  0.3328  0.0990
 5219SOL    HW118549   7.495   8.768   8.615  0.3552 -1.2459  1.6587
 5219SOL    HW218550   7.439   8.628   8.600 -2.3140 -0.0012 -1.3971
 5220SOL     OW18551   8.127   5.894   5.602 -0.1947  0.6588  0.5357
 5220SOL    HW118552   8.130   5.812   5.553  1.4137 -0.5146  2.4351
 5220SOL    HW218553   8.218   5.923   5.607 -0.2378  0.6105  2.9193
 5221SOL     OW18554   5.816   6.100   4.824  0.1190 -0.1389  0.6635
 5221SOL    HW118555   5.742   6.075   4.880 -1.6487  1.5026 -0.8391
 5221SOL    HW218556   5.795   6.062   4.739  1.3082 -0.0872  0.3327
 5222SOL     OW18557   1.856   8.103   5.418  0.0798  0.7169  0.2042
 5222SOL    HW118558   1.820   8.049   5.488 -0.6482  0.4315 -0.3718
 5222SOL    HW218559   1.780   8.150   5.383  0.3400  0.4634 -0.7309
 5223SOL     OW18560   4.370   1.256   0.576 -0.0025  0.1617 -0.5571
 5223SOL    HW118561   4.369   1.178   0.520 -0.1485 -0.9778  0.9839
 5223SOL    HW218562   4.463   1.274   0.591  0.0420 -1.0168  0.7864
 5224SOL     OW18563   7.777   5.939   5.199  0.7029  0.5476  0.2166
 5224SOL    HW118564   7.721   5.876   5.245 -1.0765  1.8919  0.0166
 5224SOL    HW218565   7.729   6.022   5.205  2.5342  1.7061 -0.2979
 5225SOL     OW18566   7.811   3.218   5.233  0.2559 -0.5159 -0.3189
 5225SOL    HW118567   7.836   3.189   5.321 -1.1945 -2.1852 -0.4121
 5225SOL    HW218568   7.757   3.295   5.248  0.6989 -0.3010  0.2061
 5226SOL     OW18569   2.222   5.999   1.624 -0.3986 -0.7231 -0.1127
 5226SOL    HW118570   2.197   6.037   1.709  1.3064 -0.6453  0.3733
 5226SOL    HW218571   2.170   5.919   1.618 -3.5867  1.1700 -0.8481
 5227SOL     OW18572   4.060   5.691   7.606  0.1192  0.3474  0.2998
 5227SOL    HW118573   4.058   5.770   7.552 -0.3100 -1.3760 -2.3945
 5227SOL    HW218574   3.976   5.692   7.652 -0.7306  0.5098 -1.2087
 5228SOL     OW18575   4.173   3.260   4.999  0.4681  0.0895  0.0976
 5228SOL    HW118576   4.223   3.178   5.004 -0.5819 -0.6296 -0.7375
 5228SOL    HW218577   4.143   3.275   5.088  3.2078  1.2577  0.9490
 5229SOL     OW18578   6.379   0.157   0.388 -0.6658 -0.2215 -0.0133
 5229SOL    HW118579   6.312   0.150   0.321 -0.1220  0.9255 -0.6926
 5229SOL    HW218580   6.460   0.128   0.345 -0.6383 -1.2606  0.6945
 5230SOL     OW18581   1.182   3.555   3.420 -0.3779  0.3967  0.0867
 5230SOL    HW118582   1.125   3.524   3.490  0.8126 -0.6075  0.6564
 5230SOL    HW218583   1.230   3.628   3.460  0.4009 -0.2648  0.3795
 5231SOL     OW18584   0.536   8.188   0.205 -0.1034  0.7399 -0.2441
 5231SOL    HW118585   0.614   8.233   0.171  0.8438  0.0518  0.9362
 5231SOL    HW218586   0.563   8.097   0.213 -1.5408  0.2013 -1.2358
 5232SOL     OW18587   1.007   1.807   5.266  0.2457  0.1286 -0.7699
 5232SOL    HW118588   1.081   1.856   5.229  1.6100 -0.4596  1.0549
 5232SOL    HW218589   0.935   1.870   5.266  1.8129  2.0965  1.0939
 5233SOL     OW18590   0.317   8.322   3.501 -0.3448 -0.4622  0.1347
 5233SOL    HW118591   0.247   8.302   3.563 -1.5160  1.5750 -0.4513
 5233SOL    HW218592   0.395   8.332   3.557 -1.1444  0.2405  1.1719
 5234SOL     OW18593   2.848   0.201   6.918 -0.4662  0.0139 -0.5084
 5234SOL    HW118594   2.921   0.252   6.881 -1.3592  0.1820 -2.1238
 5234SOL    HW218595   2.855   0.116   6.876 -0.7468 -0.2299 -0.0663
 5235SOL     OW18596   2.278   6.782   2.335 -0.4057 -0.1549 -0.4270
 5235SOL    HW118597   2.346   6.819   2.279 -1.6237 -0.1774 -1.9662
 5235SOL    HW218598   2.229   6.857   2.367 -0.4185 -0.2139 -0.3068
 5236SOL     OW18599   1.670   3.130   5.338  0.2696  0.1890 -0.4365
 5236SOL    HW118600   1.651   3.159   5.427 -0.9508 -2.0970  0.1325
 5236SOL    HW218601   1.744   3.185   5.310  1.0737  0.5939  2.1762
 5237SOL     OW18602   3.421   5.361   2.604  0.1785  0.8052 -0.1007
 5237SOL    HW118603   3.479   5.374   2.678 -2.2797 -0.4881  2.2214
 5237SOL    HW218604   3.379   5.446   2.591  1.0607  1.1961 -0.4353
 5238SOL     OW18605   6.129   4.818   2.212  0.2554  0.3552  0.2058
 5238SOL    HW118606   6.149   4.783   2.125  1.1088  0.9591  0.1405
 5238SOL    HW218607   6.092   4.904   2.196  0.9333  0.7026  0.4432
 5239SOL     OW18608   4.170   0.584   1.662 -0.5363  0.1369  0.3352
 5239SOL    HW118609   4.178   0.546   1.749 -0.7374 -2.1525 -0.5635
 5239SOL    HW218610   4.154   0.508   1.604 -1.1322  1.6393 -1.5847
 5240SOL     OW18611   8.247   1.164   3.007  0.4104 -0.7547  0.7856
 5240SOL    HW118612   8.324   1.119   2.972  1.8582  0.1069  2.6534
 5240SOL    HW218613   8.263   1.257   2.987 -0.7862 -0.6870  0.0758
 5241SOL     OW18614   4.121   2.781   4.276  0.1170  0.3246 -0.0325
 5241SOL    HW118615   4.064   2.718   4.231  3.1262 -1.0501 -2.3195
 5241SOL    HW218616   4.123   2.857   4.218  1.8043 -0.3158 -0.8819
 5242SOL     OW18617   8.102   8.285   6.693  0.1009  0.0158 -0.3309
 5242SOL    HW118618   8.170   8.229   6.657  1.6709  0.5370  1.6378
 5242SOL    HW218619   8.084   8.348   6.623  0.0901 -1.3898 -1.6478
 5243SOL     OW18620   8.360   6.191   4.806  0.4586 -0.0408 -0.1762
 5243SOL    HW118621   8.435   6.132   4.800  0.5676 -0.1106  1.3268
 5243SOL    HW218622   8.321   6.170   4.891  0.4037  1.9298  0.3293
 5244SOL     OW18623   5.120   6.619   5.898  0.3793  0.0499  0.0902
 5244SOL    HW118624   5.193   6.659   5.851  0.0392  0.2377 -0.2797
 5244SOL    HW218625   5.108   6.674   5.975 -0.0340  0.6240 -0.3743
 5245SOL     OW18626   3.589   8.623   3.407  0.8153  0.0388  0.4511
 5245SOL    HW118627   3.623   8.533   3.403  3.8450  1.0993 -0.1207
 5245SOL    HW218628   3.610   8.660   3.322 -1.3614  1.0523  0.2854
 5246SOL     OW18629   4.626   1.561   4.094 -0.5231  0.1271 -0.2665
 5246SOL    HW118630   4.530   1.563   4.097 -0.4967  0.6188  1.1682
 5246SOL    HW218631   4.652   1.645   4.133  0.4963 -0.5409  0.5245
 5247SOL     OW18632   7.592   8.887   1.373  0.1051 -0.7766  0.0902
 5247SOL    HW118633   7.617   8.950   1.440 -0.0265 -1.2947  0.6298
 5247SOL    HW218634   7.664   8.823   1.372  0.7400 -0.0999 -1.1516
 5248SOL     OW18635   1.761   0.002   1.579 -0.0483 -0.0957 -0.0209
 5248SOL    HW118636   1.776   0.053   1.659 -1.9550  1.7896 -0.7699
 5248SOL    HW218637   1.669  -0.025   1.585  0.0988 -0.9113 -1.0750
 5249SOL     OW18638   5.471   8.320   3.225 -0.0615  0.0261  0.5131
 5249SOL    HW118639   5.539   8.388   3.224  0.7944 -0.8192  0.3157
 5249SOL    HW218640   5.486   8.270   3.145 -0.5456 -0.5494  0.7751
 5250SOL     OW18641   1.422   7.475   2.215 -0.0473  0.0099  0.6911
 5250SOL    HW118642   1.473   7.409   2.262  0.3324  0.0351  0.3220
 5250SOL    HW218643   1.410   7.439   2.128  0.0118  0.3482  0.5410
 5251SOL     OW18644   3.158   4.801   8.632  0.7915 -0.4720  0.5361
 5251SOL    HW118645   3.172   4.893   8.612  0.7939 -0.5460  0.1991
 5251SOL    HW218646   3.224   4.754   8.581  0.4250 -0.6988  0.2669
 5252SOL     OW18647   2.692   6.774   3.259 -0.2443 -0.6010 -0.0962
 5252SOL    HW118648   2.746   6.697   3.273  2.0798  1.0370  0.6893
 5252SOL    HW218649   2.726   6.812   3.178 -2.7075 -1.3988 -1.5858
 5253SOL     OW18650   6.750   7.064   1.578 -0.2414 -0.5191 -0.2337
 5253SOL    HW118651   6.680   6.999   1.566 -0.0130 -0.6157 -1.0648
 5253SOL    HW218652   6.828   7.011   1.596 -0.0080 -0.4864 -1.1417
 5254SOL     OW18653   5.874   6.120   7.142 -0.2335 -0.2930  0.6714
 5254SOL    HW118654   5.785   6.084   7.143 -0.9806  1.2304 -1.7129
 5254SOL    HW218655   5.865   6.208   7.178  0.6374 -0.6108  1.7494
 5255SOL     OW18656   6.819   9.120   7.246 -0.2236  0.2490  0.1055
 5255SOL    HW118657   6.852   9.157   7.328  0.3883  0.3160 -0.1665
 5255SOL    HW218658   6.725   9.113   7.259 -0.0594 -0.3293  1.0581
 5256SOL     OW18659   5.025   0.809   8.135 -0.2227 -0.0168  0.5101
 5256SOL    HW118660   4.985   0.783   8.052  2.6578 -2.6901 -0.2531
 5256SOL    HW218661   5.055   0.899   8.120 -0.3306 -0.2267 -1.1464
 5257SOL     OW18662   5.322   3.236   5.270  0.1657  0.1094 -0.1263
 5257SOL    HW118663   5.258   3.231   5.199 -1.3933  1.6211  1.0706
 5257SOL    HW218664   5.283   3.186   5.341  0.7358  0.2860  0.3165
 5258SOL     OW18665   4.218   8.960   7.580 -0.3610 -0.2007  0.2676
 5258SOL    HW118666   4.222   8.865   7.588  0.0941 -0.1615  0.5440
 5258SOL    HW218667   4.137   8.977   7.532  0.4616 -0.8019 -1.3713
 5259SOL     OW18668   8.396   2.027   0.698 -0.4028 -0.3383  0.3101
 5259SOL    HW118669   8.488   2.028   0.723  0.0990 -1.8704 -1.2793
 5259SOL    HW218670   8.356   2.098   0.749  1.7238  0.6660  0.6745
 5260SOL     OW18671   3.397   6.856   4.170 -0.2995  0.2067 -0.2338
 5260SOL    HW118672   3.343   6.777   4.170 -0.5202  0.3451  1.0911
 5260SOL    HW218673   3.358   6.911   4.102 -1.1285 -0.1711 -0.0802
 5261SOL     OW18674   7.196   5.375   1.860  0.1030  0.4728  0.6553
 5261SOL    HW118675   7.121   5.327   1.894  0.9356  0.0817  2.0378
 5261SOL    HW218676   7.160   5.457   1.827 -0.9337  0.2642  1.2390
 5262SOL     OW18677   2.940   8.907   6.769  0.1442 -0.3339 -0.0854
 5262SOL    HW118678   2.970   8.914   6.679 -0.2812 -1.0789 -0.2908
 5262SOL    HW218679   2.845   8.892   6.762  0.3821 -2.4133  0.3914
 5263SOL     OW18680   8.424   4.305   4.930 -0.1444  0.4699 -0.1514
 5263SOL    HW118681   8.378   4.226   4.960 -0.2842  0.5780 -0.0751
 5263SOL    HW218682   8.515   4.290   4.953 -0.3954  0.9972  1.3182
 5264SOL     OW18683   4.491   1.186   7.577 -0.5118 -0.0557  0.0723
 5264SOL    HW118684   4.418   1.239   7.611 -1.4032 -0.2212 -1.4754
 5264SOL    HW218685   4.570   1.234   7.603 -1.1878  0.4304  1.3036
 5265SOL     OW18686   3.076   1.736   7.571  0.6428 -0.4789 -0.5828
 5265SOL    HW118687   3.159   1.705   7.536  0.6296  1.4878 -2.5569
 5265SOL    HW218688   3.052   1.809   7.515 -1.5628  0.1386  1.0296
 5266SOL     OW18689   2.841   6.689   0.013  0.3209 -0.3810  0.2135
 5266SOL    HW118690   2.783   6.695   0.088 -0.0830 -2.1545  0.0761
 5266SOL    HW218691   2.924   6.726   0.044 -0.4736  0.9887  0.7966
 5267SOL     OW18692   1.992   2.084   3.115  0.0284 -0.5445  0.0068
 5267SOL    HW118693   1.960   2.076   3.205  0.7879 -2.1599  0.1697
 5267SOL    HW218694   1.998   2.178   3.100 -1.0911 -0.2450  1.2832
 5268SOL     OW18695   0.415   1.955   4.823  0.3292 -0.0846 -0.8194
 5268SOL    HW118696   0.340   2.011   4.803 -0.0797  0.2975  1.5467
 5268SOL    HW218697   0.485   2.016   4.845  0.4333 -0.4498 -0.0964
 5269SOL     OW18698   8.873   5.565   6.962  0.4466 -0.5540 -0.0187
 5269SOL    HW118699   8.874   5.648   7.011  1.3698 -0.8896  0.5558
 5269SOL    HW218700   8.963   5.533   6.968 -0.1763 -2.2136  0.8161
 5270SOL     OW18701   5.075   8.239   8.785  0.3228  0.8355  0.0816
 5270SOL    HW118702   5.167   8.227   8.760  1.0475  3.9701  0.7227
 5270SOL    HW218703   5.037   8.286   8.711 -0.6444  0.0342  0.0587
 5271SOL     OW18704   3.893   4.680   3.747 -0.6026  0.5112 -0.9005
 5271SOL    HW118705   3.925   4.731   3.822  2.1881  0.5592 -2.0032
 5271SOL    HW218706   3.883   4.591   3.781  1.8037  0.2670 -0.6517
 5272SOL     OW18707   4.477   1.549   0.349  0.2741  0.6961  0.0557
 5272SOL    HW118708   4.448   1.461   0.375 -1.0371  0.9904 -0.3280
 5272SOL    HW218709   4.544   1.533   0.283  1.9329 -0.0282  1.8203
 5273SOL     OW18710   5.782   5.932   6.759 -0.6850  0.2865 -0.2352
 5273SOL    HW118711   5.762   6.026   6.758 -1.3022  0.1650  0.4212
 5273SOL    HW218712   5.775   5.905   6.668 -2.2676  0.5169 -0.2040
 5274SOL     OW18713   1.993   5.658   0.392  0.4492 -0.1373 -0.2736
 5274SOL    HW118714   1.932   5.646   0.465  0.3961  0.2842 -0.2472
 5274SOL    HW218715   1.939   5.643   0.314  0.8531 -2.2007 -0.2240
 5275SOL     OW18716   5.620   1.768   7.411 -0.1157 -0.1689  0.0568
 5275SOL    HW118717   5.674   1.736   7.338 -1.1160 -0.7060 -0.4664
 5275SOL    HW218718   5.676   1.757   7.488  0.4647 -0.8570 -0.4461
 5276SOL     OW18719   7.116   4.984   6.949  0.2119  0.2443  0.1778
 5276SOL    HW118720   7.069   4.902   6.956  0.8378 -0.0038  2.0697
 5276SOL    HW218721   7.203   4.959   6.919  0.5850  0.0989  1.3065
 5277SOL     OW18722   0.214   3.148   4.306  0.5177 -0.6512  0.1664
 5277SOL    HW118723   0.119   3.154   4.314  0.4512 -0.2062 -0.8097
 5277SOL    HW218724   0.229   3.069   4.255  0.5209  0.6024 -1.8622
 5278SOL     OW18725   1.060   0.190   2.959 -0.5236  0.4641 -0.0496
 5278SOL    HW118726   1.006   0.129   2.910  0.0977  1.0058 -1.4733
 5278SOL    HW218727   1.003   0.266   2.974 -1.1440 -0.2477  1.2986
 5279SOL     OW18728   6.644   5.543   3.115  0.9583  0.1026  0.3860
 5279SOL    HW118729   6.642   5.466   3.059 -0.0322 -0.0252  0.5848
 5279SOL    HW218730   6.552   5.567   3.127  1.1022 -0.2572  2.4994
 5280SOL     OW18731   7.736   3.399   5.498  0.1747 -0.6797 -0.3886
 5280SOL    HW118732   7.666   3.459   5.472 -0.7961 -1.6415 -0.0804
 5280SOL    HW218733   7.694   3.313   5.500  1.0954 -1.1261  0.9127
 5281SOL     OW18734   4.450   4.183   7.777 -0.7795 -0.2178 -0.2552
 5281SOL    HW118735   4.417   4.270   7.800 -1.9695 -1.1160  1.6509
 5281SOL    HW218736   4.398   4.157   7.701 -1.2377  0.2515 -0.1064
 5282SOL     OW18737   2.030   5.698   5.590  0.4878 -0.0449 -0.2527
 5282SOL    HW118738   2.014   5.723   5.499 -0.3560  1.6664  0.3050
 5282SOL    HW218739   1.946   5.661   5.619  0.4734  0.2246  0.0564
 5283SOL     OW18740   6.076   4.426   1.751  0.0658 -0.0184 -0.4121
 5283SOL    HW118741   6.020   4.475   1.812  1.0587  1.3095 -0.5184
 5283SOL    HW218742   6.140   4.382   1.808  0.5440  0.6336 -0.4323
 5284SOL     OW18743   6.225   1.671   0.535 -0.2564  0.4367  0.8487
 5284SOL    HW118744   6.237   1.676   0.440  0.4287  0.3914  0.9243
 5284SOL    HW218745   6.172   1.592   0.548  0.7651 -0.3206  0.5822
 5285SOL     OW18746   2.742   2.996   8.115 -0.4312 -0.0194 -0.2662
 5285SOL    HW118747   2.654   2.984   8.151 -0.1240 -0.2156  0.4505
 5285SOL    HW218748   2.799   2.996   8.192 -0.1271  3.8505 -0.2907
 5286SOL     OW18749   0.938   2.697   7.052 -0.3326 -0.5123 -0.2315
 5286SOL    HW118750   0.926   2.617   7.103  2.1623 -0.2801  0.8657
 5286SOL    HW218751   1.014   2.680   6.997 -0.3827  0.7390 -0.7370
 5287SOL     OW18752   6.212   7.786   7.102  0.0807  0.6924  0.9627
 5287SOL    HW118753   6.126   7.810   7.137  0.1009 -0.9491  2.2270
 5287SOL    HW218754   6.258   7.869   7.095 -1.2411  1.4862  1.2671
 5288SOL     OW18755   4.540   3.893   1.171 -0.0409 -0.1516 -0.1949
 5288SOL    HW118756   4.634   3.904   1.164 -0.0746 -0.5544 -1.8521
 5288SOL    HW218757   4.503   3.953   1.106 -0.9506  0.2071  0.6220
 5289SOL     OW18758   2.269   2.138   0.127  0.2912  0.4690  0.0331
 5289SOL    HW118759   2.195   2.194   0.150  1.3204  1.1832  1.7610
 5289SOL    HW218760   2.341   2.199   0.111  0.7712 -0.2627 -0.6737
 5290SOL     OW18761   2.114   4.544   0.297  0.1929  0.0934  0.2973
 5290SOL    HW118762   2.039   4.552   0.238  0.9404  0.0778 -0.6762
 5290SOL    HW218763   2.114   4.626   0.347 -1.4365 -0.5903  1.5063
 5291SOL     OW18764   2.882   2.962   8.976  0.1495 -0.3800  0.1069
 5291SOL    HW118765   2.803   2.996   9.017  0.0152  0.3912 -0.7621
 5291SOL    HW218766   2.853   2.929   8.891  0.6091 -0.9329  0.1575
 5292SOL     OW18767   4.206   4.816   0.377  0.1624  0.1676  0.3166
 5292SOL    HW118768   4.287   4.767   0.359  1.3781  1.8966  0.8068
 5292SOL    HW218769   4.149   4.796   0.303  2.2364  1.3025 -1.7222
 5293SOL     OW18770   0.472   0.806   1.114  0.0809  0.1598  0.1183
 5293SOL    HW118771   0.473   0.769   1.025  0.6866 -1.0224  0.5937
 5293SOL    HW218772   0.423   0.888   1.105  0.7562  0.4338 -1.4493
 5294SOL     OW18773   3.237   7.283   4.273 -0.5319 -0.3935  0.1192
 5294SOL    HW118774   3.147   7.295   4.300 -1.2292 -1.1669 -1.7002
 5294SOL    HW218775   3.232   7.258   4.181  1.5343 -0.4795 -0.0322
 5295SOL     OW18776   7.906   5.562   0.885  0.2347  0.3024  0.0161
 5295SOL    HW118777   7.935   5.636   0.938 -0.4032  0.5294  0.0534
 5295SOL    HW218778   7.936   5.485   0.933 -0.4099  0.5042  0.7582
 5296SOL     OW18779   8.289   7.321   5.698  0.0983  0.3569  0.2402
 5296SOL    HW118780   8.353   7.259   5.732  2.6717  1.3164 -2.4303
 5296SOL    HW218781   8.237   7.345   5.775  1.4432 -2.1540  2.1211
 5297SOL     OW18782   2.016   7.196   0.195 -0.2627 -0.1359  0.0538
 5297SOL    HW118783   1.992   7.287   0.214  0.5674  0.1261 -0.1082
 5297SOL    HW218784   1.988   7.147   0.273 -0.9427  0.2054  0.0353
 5298SOL     OW18785   2.311   5.925   2.669  0.1415  0.3753  0.3487
 5298SOL    HW118786   2.222   5.926   2.634 -0.0723  0.9330  0.8921
 5298SOL    HW218787   2.346   6.012   2.648  0.8485 -0.1110 -0.5711
 5299SOL     OW18788   6.487   6.867   2.111 -0.4565 -0.1382  0.1380
 5299SOL    HW118789   6.400   6.898   2.136 -0.6088  0.5493 -1.1296
 5299SOL    HW218790   6.546   6.935   2.142 -0.6490  0.7349 -1.2814
 5300SOL     OW18791   1.914   1.498   2.129  0.4260  0.3165  0.1490
 5300SOL    HW118792   1.932   1.586   2.164 -2.8312  1.6178 -1.0068
 5300SOL    HW218793   1.837   1.469   2.177  0.9510 -1.5728 -0.0977
 5301SOL     OW18794   1.012   5.417   1.514  0.6247 -0.0128  0.6631
 5301SOL    HW118795   0.945   5.436   1.449  0.4282 -0.6962  0.6573
 5301SOL    HW218796   1.024   5.499   1.561 -1.2154 -0.2152  1.5742
 5302SOL     OW18797   5.584   4.727   0.656  0.0180  0.3864  0.2017
 5302SOL    HW118798   5.517   4.748   0.722  0.9263  0.6987  1.0541
 5302SOL    HW218799   5.654   4.791   0.672  0.3079  0.3934 -1.0065
 5303SOL     OW18800   2.298   3.809   0.941  0.0997  0.0395 -0.0313
 5303SOL    HW118801   2.257   3.770   0.864 -2.4476  2.4769 -0.0790
 5303SOL    HW218802   2.299   3.903   0.922  0.6651  0.5766  2.3701
 5304SOL     OW18803   7.933   1.638   6.295 -0.5414 -0.0684  0.9267
 5304SOL    HW118804   7.994   1.681   6.355 -0.0600 -1.3657  1.3985
 5304SOL    HW218805   7.983   1.630   6.213 -0.1738 -0.8501  1.2196
 5305SOL     OW18806   5.925   1.887   9.226 -0.0254  0.1749 -0.1220
 5305SOL    HW118807   5.875   1.871   9.146  0.8688  0.8965 -0.8490
 5305SOL    HW218808   5.866   1.860   9.297 -0.2003 -2.0959 -1.0569
 5306SOL     OW18809   8.881   1.354   2.101 -0.5939 -0.0996  0.4319
 5306SOL    HW118810   8.880   1.370   2.195 -0.5159  0.3801  0.3537
 5306SOL    HW218811   8.974   1.348   2.079 -0.5675  0.9361  0.2028
 5307SOL     OW18812   5.122   6.995   8.276 -0.1518 -0.7689 -1.1627
 5307SOL    HW118813   5.123   7.079   8.322  0.2880 -2.7814  2.9852
 5307SOL    HW218814   5.149   7.016   8.187 -0.5307  3.4931 -0.4763
 5308SOL     OW18815   1.165   4.399   1.144  0.2998 -0.2209 -0.1592
 5308SOL    HW118816   1.071   4.411   1.158  0.0998  1.1417 -2.2843
 5308SOL    HW218817   1.182   4.437   1.058  2.8854 -0.0788  0.3345
 5309SOL     OW18818   6.227   6.248   6.874  0.0581  0.2366  0.3449
 5309SOL    HW118819   6.260   6.236   6.785  1.0213 -0.5174  0.7887
 5309SOL    HW218820   6.294   6.301   6.918 -0.1015  0.0777  0.7931
 5310SOL     OW18821   6.064   0.889   3.633 -0.8597 -0.0349 -0.1235
 5310SOL    HW118822   6.128   0.857   3.697  0.8179 -1.2546 -2.2597
 5310SOL    HW218823   5.992   0.826   3.636 -0.7901 -0.0881  0.5334
 5311SOL     OW18824   1.635   5.459   3.395  0.1856  0.3662  0.4634
 5311SOL    HW118825   1.561   5.403   3.419  1.5103 -1.2471  1.0249
 5311SOL    HW218826   1.595   5.541   3.367 -1.8061 -0.4736  0.6554
 5312SOL     OW18827   4.010   1.658   0.737  0.2230 -0.0005 -0.1733
 5312SOL    HW118828   4.008   1.718   0.662 -0.9366 -1.5190 -1.4259
 5312SOL    HW218829   4.098   1.620   0.734 -0.0196 -0.5280 -1.2089
 5313SOL     OW18830   5.974   7.309   4.994  0.0518 -0.3220 -0.1352
 5313SOL    HW118831   5.980   7.236   4.932 -0.0909  0.6259 -1.2916
 5313SOL    HW218832   6.039   7.288   5.062  0.6981 -1.0526 -0.9570
 5314SOL     OW18833   6.084   5.014   8.076  0.1543  0.3699 -0.6984
 5314SOL    HW118834   6.120   4.928   8.095  0.1019  0.6126  0.5783
 5314SOL    HW218835   5.989   5.001   8.071  0.2050  0.2148 -1.3460
 5315SOL     OW18836   6.339   4.116   4.958 -0.4942 -0.0101  0.3757
 5315SOL    HW118837   6.425   4.151   4.978 -0.4408 -0.1279  0.3497
 5315SOL    HW218838   6.284   4.143   5.031 -0.5819  0.5997  0.0927
 5316SOL     OW18839   6.629   0.084   2.648  0.1292  0.2482 -0.2745
 5316SOL    HW118840   6.624   0.155   2.584 -0.6189  2.6340  2.2466
 5316SOL    HW218841   6.721   0.058   2.648  0.0195 -0.3979 -2.7966
 5317SOL     OW18842   4.435   4.303   6.873 -0.3757 -0.2640  0.1365
 5317SOL    HW118843   4.347   4.333   6.853 -0.8130 -1.4661  0.1994
 5317SOL    HW218844   4.426   4.253   6.954  0.5992  0.6815  0.8678
 5318SOL     OW18845   9.238   4.001   8.312 -0.0049 -0.5288  0.1790
 5318SOL    HW118846   9.191   4.073   8.271  0.5865 -0.5563 -0.5593
 5318SOL    HW218847   9.205   3.999   8.402 -0.5493  0.1959  0.0026
 5319SOL     OW18848   3.706   7.139   4.825 -0.6641  0.2631  0.7389
 5319SOL    HW118849   3.760   7.116   4.901 -2.1758 -0.0953  1.7677
 5319SOL    HW218850   3.764   7.186   4.767  0.2735  1.6249  2.6719
 5320SOL     OW18851   7.072   5.119   4.668 -0.1309 -0.0812 -0.5920
 5320SOL    HW118852   7.016   5.160   4.734  2.3513  3.1371 -0.2577
 5320SOL    HW218853   7.084   5.186   4.601  2.8373 -0.7710 -0.8767
 5321SOL     OW18854   8.099   5.419   4.772  0.3240 -0.0381 -1.0038
 5321SOL    HW118855   8.064   5.413   4.683 -0.6867  0.4540 -0.6520
 5321SOL    HW218856   8.100   5.328   4.804  0.4481 -0.1849 -1.4213
 5322SOL     OW18857   4.346   5.895   6.803 -0.3459  0.3956  0.4968
 5322SOL    HW118858   4.330   5.802   6.784  1.7059 -0.2254  1.4709
 5322SOL    HW218859   4.420   5.918   6.746 -0.5622  1.3260  0.5859
 5323SOL     OW18860   4.636   3.091   1.256  0.4580 -0.2519 -0.0893
 5323SOL    HW118861   4.567   3.082   1.322  0.4390 -0.3131 -0.1174
 5323SOL    HW218862   4.590   3.085   1.173 -0.1732  3.7575 -0.2486
 5324SOL     OW18863   8.170   9.046   2.239  0.2291  0.0244 -0.2081
 5324SOL    HW118864   8.177   8.953   2.262 -0.7582 -0.1674 -0.6492
 5324SOL    HW218865   8.112   9.048   2.163  0.3491  0.9946 -0.2850
 5325SOL     OW18866   1.377   4.334   3.941  0.1937 -0.1138  0.2553
 5325SOL    HW118867   1.472   4.328   3.932  0.2922 -1.0250  1.5774
 5325SOL    HW218868   1.364   4.387   4.020 -0.4445  1.2103 -0.6942
 5326SOL     OW18869   3.325   8.049   6.912  0.6505  0.9783 -0.0713
 5326SOL    HW118870   3.393   8.108   6.943 -0.0432  1.3869  0.7128
 5326SOL    HW218871   3.364   8.005   6.836  2.1801  0.3961  1.0120
 5327SOL     OW18872   3.784   8.417   5.485  0.1828 -1.0175  0.3688
 5327SOL    HW118873   3.784   8.498   5.434  1.3464 -1.2021  0.0461
 5327SOL    HW218874   3.863   8.371   5.457  0.7397 -1.2346  2.1722
 5328SOL     OW18875   5.035   2.028   7.493 -0.3143  0.1654  0.3381
 5328SOL    HW118876   5.025   2.012   7.587 -2.1956 -1.0673 -0.0218
 5328SOL    HW218877   5.054   1.942   7.455 -0.4697  0.4926 -0.5101
 5329SOL     OW18878   6.599   1.074   3.759 -0.4817 -0.7403  0.3582
 5329SOL    HW118879   6.580   1.053   3.667 -1.0810 -2.4340  0.8365
 5329SOL    HW218880   6.678   1.128   3.755 -0.8672 -0.2190 -1.1860
 5330SOL     OW18881   4.529   0.726   5.026  0.2605 -0.1922 -0.1582
 5330SOL    HW118882   4.529   0.746   5.120 -0.3640  1.2346 -0.4383
 5330SOL    HW218883   4.537   0.811   4.983 -1.4876 -0.6052 -1.4138
 5331SOL     OW18884   0.467   5.131   3.792 -0.3703  0.1793 -0.0326
 5331SOL    HW118885   0.462   5.080   3.712 -0.6447 -0.4511  0.3758
 5331SOL    HW218886   0.380   5.124   3.831  0.3951 -1.5659  1.5319
 5332SOL     OW18887   3.661   8.003   7.599  0.0349  0.3002 -0.0450
 5332SOL    HW118888   3.629   8.025   7.512  0.7088 -1.6034 -0.8331
 5332SOL    HW218889   3.633   8.076   7.654 -1.0665  1.1871 -1.6919
 5333SOL     OW18890   7.285   0.274   1.003 -0.2945 -0.2754  0.2292
 5333SOL    HW118891   7.320   0.362   0.988  0.1340 -0.6819 -1.3280
 5333SOL    HW218892   7.197   0.289   1.038  0.0439  0.7564  0.6828
 5334SOL     OW18893   0.656   6.974   1.069  0.5390 -0.2016 -0.0471
 5334SOL    HW118894   0.654   6.964   1.164  1.6582  1.7792  0.2394
 5334SOL    HW218895   0.568   7.004   1.046 -0.0409 -1.6433  0.2019
 5335SOL     OW18896   3.964   4.419   2.260 -0.8272 -0.2722  0.5767
 5335SOL    HW118897   4.053   4.446   2.284 -0.9722  1.5851 -0.7654
 5335SOL    HW218898   3.973   4.327   2.237  0.6742 -0.2349  0.8994
 5336SOL     OW18899   8.214   6.897   4.005 -0.4218 -0.6006 -0.0955
 5336SOL    HW118900   8.208   6.841   3.928  0.4039 -0.8967  0.0520
 5336SOL    HW218901   8.138   6.872   4.058 -0.6350 -0.8483 -0.5136
 5337SOL     OW18902   0.109   6.179   4.905 -0.2101 -0.2440 -0.7911
 5337SOL    HW118903   0.115   6.261   4.856  1.2939  1.1134  1.4750
 5337SOL    HW218904   0.016   6.158   4.906 -0.6814  1.6616 -1.1096
 5338SOL     OW18905   3.478   3.948   5.069 -0.1430  0.1804 -0.2977
 5338SOL    HW118906   3.508   3.866   5.108  1.8384  1.1951  0.5131
 5338SOL    HW218907   3.544   3.967   5.001 -0.6235  1.0462 -0.5318
 5339SOL     OW18908   0.487   7.866   7.408 -0.3179  0.4523  0.3862
 5339SOL    HW118909   0.569   7.896   7.448 -0.1668 -1.2883  1.4702
 5339SOL    HW218910   0.458   7.940   7.355  1.2340  1.6147  1.0828
 5340SOL     OW18911   5.295   7.883   3.319 -0.1823  0.0735  0.8477
 5340SOL    HW118912   5.341   7.808   3.358 -1.0591 -0.4951  0.8241
 5340SOL    HW218913   5.273   7.939   3.394 -1.0697 -0.5739  1.0926
 5341SOL     OW18914   7.341   2.322   3.845 -0.1363  0.2697 -0.5331
 5341SOL    HW118915   7.411   2.324   3.779  1.0170  0.5318  0.6455
 5341SOL    HW218916   7.283   2.395   3.820 -1.4727 -1.4705 -2.9921
 5342SOL     OW18917   7.807   0.598   2.188 -0.5550 -0.0953  0.1362
 5342SOL    HW118918   7.850   0.606   2.103  1.4158 -0.6744  1.0211
 5342SOL    HW218919   7.792   0.688   2.217 -0.3904  0.1113 -0.4239
 5343SOL     OW18920   6.398   8.198   7.304  0.2959  0.3568 -0.2010
 5343SOL    HW118921   6.343   8.269   7.337 -1.6893 -1.8838  1.7770
 5343SOL    HW218922   6.337   8.141   7.256  1.8354 -0.0090 -1.8033
 5344SOL     OW18923   4.757   1.049   0.236  0.4964 -0.3145 -0.1481
 5344SOL    HW118924   4.820   1.083   0.173 -1.1586  1.6993 -0.8209
 5344SOL    HW218925   4.761   1.110   0.310 -0.9132  0.1334 -0.3978
 5345SOL     OW18926   0.057   4.095   0.689  1.0242  0.2121  0.2007
 5345SOL    HW118927   0.023   4.047   0.765  3.5230 -0.6392  0.8804
 5345SOL    HW218928  -0.010   4.084   0.621 -2.0848  2.2772  2.5979
 5346SOL     OW18929   5.574   7.357   2.365 -0.0392  0.1014  0.6054
 5346SOL    HW118930   5.616   7.411   2.298  2.2966 -2.9394 -0.5743
 5346SOL    HW218931   5.521   7.294   2.316  0.9208 -1.5406  1.5956
 5347SOL     OW18932   0.253   1.654   3.100 -0.1441 -0.2876  0.4821
 5347SOL    HW118933   0.336   1.673   3.057 -0.6809  1.1955  0.0693
 5347SOL    HW218934   0.226   1.569   3.063  0.9003 -0.5218  0.2222
 5348SOL     OW18935   2.134   3.137   6.336  0.1352  0.1201  0.2492
 5348SOL    HW118936   2.136   3.166   6.244 -0.4199  0.2735  0.2859
 5348SOL    HW218937   2.171   3.048   6.333  0.2178  0.1623 -0.1065
 5349SOL     OW18938   0.907   2.375   4.749  0.2418 -0.7037 -0.2344
 5349SOL    HW118939   0.964   2.357   4.824  0.8296 -1.6640 -0.8905
 5349SOL    HW218940   0.945   2.325   4.677  0.0151  0.6482 -1.3312
 5350SOL     OW18941   6.983   8.846   4.333  0.0747  0.7914 -0.3933
 5350SOL    HW118942   6.978   8.750   4.338  0.6667  0.6917 -1.5229
 5350SOL    HW218943   6.896   8.873   4.304 -0.0156  0.5824 -0.3238
 5351SOL     OW18944   0.204   6.976   3.569  0.1714 -0.1106  0.1533
 5351SOL    HW118945   0.158   6.899   3.536  3.0546 -2.3778  0.9793
 5351SOL    HW218946   0.289   6.975   3.524  2.0601 -0.1519  3.3769
 5352SOL     OW18947   4.275   2.312   1.496  0.1399 -0.0819  0.2972
 5352SOL    HW118948   4.350   2.266   1.459  0.0181 -2.3699  2.6626
 5352SOL    HW218949   4.201   2.254   1.480 -1.1107  1.8843 -1.4956
 5353SOL     OW18950   6.974   4.687   1.224 -0.1282  0.0697 -0.3388
 5353SOL    HW118951   7.069   4.697   1.231 -0.0336 -0.6011 -0.6019
 5353SOL    HW218952   6.943   4.692   1.314  0.1468  0.3787 -0.2586
 5354SOL     OW18953   6.550   1.989   7.061 -0.1193  0.1041 -0.1833
 5354SOL    HW118954   6.480   1.984   7.127  1.7432  1.5089  2.0534
 5354SOL    HW218955   6.535   2.072   7.017 -0.0954  0.1946 -0.0192
 5355SOL     OW18956   5.503   4.018   6.656 -0.3587 -0.1041 -0.2571
 5355SOL    HW118957   5.587   4.010   6.702 -0.4821 -0.3785 -0.0820
 5355SOL    HW218958   5.514   3.964   6.578 -0.9982 -1.6102  0.6554
 5356SOL     OW18959   4.495   8.213   2.731 -0.1096 -0.3106 -0.3299
 5356SOL    HW118960   4.543   8.139   2.695 -0.3416 -0.9551  0.6353
 5356SOL    HW218961   4.403   8.186   2.729 -0.0881 -0.6320  1.2525
 5357SOL     OW18962   2.864   6.481   0.969  0.3561 -0.2293 -0.1635
 5357SOL    HW118963   2.859   6.576   0.954 -0.7333 -0.3155 -0.4134
 5357SOL    HW218964   2.901   6.446   0.888 -2.0209 -0.2980 -1.3155
 5358SOL     OW18965   0.170   8.567   6.810 -0.3381  0.4434 -0.0962
 5358SOL    HW118966   0.250   8.519   6.786  0.3596  0.5190  1.8555
 5358SOL    HW218967   0.101   8.525   6.760  0.5000 -1.6100  0.3631
 5359SOL     OW18968   7.741   3.224   4.641 -0.0551  0.1536  1.1149
 5359SOL    HW118969   7.719   3.137   4.674  0.0302  0.1271  1.1024
 5359SOL    HW218970   7.758   3.211   4.548  1.7217 -0.1473  1.4459
 5360SOL     OW18971   8.414   8.881   5.501 -0.4029 -0.1707 -0.5980
 5360SOL    HW118972   8.330   8.854   5.537 -0.2052  0.2430  0.2251
 5360SOL    HW218973   8.452   8.801   5.466 -1.0695 -0.3908 -0.8309
 5361SOL     OW18974   0.156   7.981   2.709 -0.1655  0.2004  0.4269
 5361SOL    HW118975   0.122   7.893   2.726  0.2171 -0.0074  0.1279
 5361SOL    HW218976   0.145   7.993   2.615  0.8877 -0.0016  0.2690
 5362SOL     OW18977   3.930   5.880   3.310 -0.3485  0.0106 -0.3562
 5362SOL    HW118978   3.949   5.938   3.237 -1.7366 -0.3586 -1.0349
 5362SOL    HW218979   3.961   5.928   3.387  0.8146  0.5432 -1.1277
 5363SOL     OW18980   3.203   1.971   1.218 -0.3187 -0.1226  0.0773
 5363SOL    HW118981   3.178   1.976   1.126  1.1159  1.5688 -0.2699
 5363SOL    HW218982   3.298   1.957   1.217 -0.1032  1.0466  1.2700
 5364SOL     OW18983   3.521   5.938   6.234 -0.2013 -0.8484 -0.0157
 5364SOL    HW118984   3.443   5.990   6.250 -0.1410 -0.1510 -1.7308
 5364SOL    HW218985   3.594   6.000   6.240 -0.0681 -0.8411 -1.3926
 5365SOL     OW18986   0.251   8.682   7.085 -0.1036 -0.3042  0.2403
 5365SOL    HW118987   0.179   8.630   7.050  1.8939 -2.9745 -0.1948
 5365SOL    HW218988   0.289   8.724   7.008 -0.2047 -0.1837  0.2549
 5366SOL     OW18989   6.025   2.401   2.813  0.1872 -0.2795  0.1237
 5366SOL    HW118990   5.949   2.444   2.851 -0.5659  3.2322 -4.4475
 5366SOL    HW218991   6.091   2.470   2.806  2.0661 -2.0242 -0.3155
 5367SOL     OW18992   2.442   3.001   7.881 -0.0512  0.4629 -0.1257
 5367SOL    HW118993   2.409   2.929   7.936 -0.9163 -0.2824 -1.5722
 5367SOL    HW218994   2.479   2.957   7.804  1.9097  1.4473  0.1882
 5368SOL     OW18995   3.422   7.836   5.551  0.1824 -0.0208  0.6090
 5368SOL    HW118996   3.358   7.782   5.504 -0.2665  1.2366 -0.2910
 5368SOL    HW218997   3.369   7.903   5.594  0.9209  1.9105 -1.3131
 5369SOL     OW18998   7.880   6.167   7.929  0.0079 -0.1649  0.0257
 5369SOL    HW118999   7.902   6.202   8.015 -0.5724 -1.1393  0.5947
 5369SOL    HW219000   7.963   6.138   7.892  0.0661 -1.4094  1.0417
 5370SOL     OW19001   7.188   7.950   0.756  0.0409 -0.0137  0.5387
 5370SOL    HW119002   7.187   7.984   0.667 -0.8466 -0.0189  0.5377
 5370SOL    HW219003   7.240   7.869   0.751 -1.3835 -0.9010 -0.3134
 5371SOL     OW19004   0.420   5.139   0.517  0.4864  0.2401 -0.2716
 5371SOL    HW119005   0.362   5.195   0.568  1.2694 -0.5218  1.5599
 5371SOL    HW219006   0.505   5.184   0.521  0.9346 -0.6473  0.5398
 5372SOL     OW19007   6.031   5.786   4.833 -0.0491 -0.1629 -0.1624
 5372SOL    HW119008   6.095   5.816   4.896 -0.7656 -0.5136  0.7590
 5372SOL    HW219009   5.949   5.780   4.882 -0.5818 -0.6496 -1.0673
 5373SOL     OW19010   7.197   1.344   0.923  0.5343  0.1077 -0.0203
 5373SOL    HW119011   7.258   1.417   0.935 -1.3470  1.7786  0.1081
 5373SOL    HW219012   7.193   1.331   0.828  0.7674  0.3005 -0.0574
 5374SOL     OW19013   7.313   5.807   3.862 -0.0425  0.2081  0.0251
 5374SOL    HW119014   7.340   5.773   3.947 -0.9588 -1.0268 -0.1354
 5374SOL    HW219015   7.334   5.900   3.864 -2.8485  0.9338  2.7901
 5375SOL     OW19016   3.652   3.953   7.600 -0.1038 -0.0741 -0.1791
 5375SOL    HW119017   3.589   3.955   7.671  1.3975  1.0112  1.2016
 5375SOL    HW219018   3.736   3.974   7.641  0.4179  3.8230 -2.6575
 5376SOL     OW19019   8.723   3.016   5.283 -0.4857  0.5887  0.6129
 5376SOL    HW119020   8.818   3.014   5.286 -0.4751 -0.0956  0.1175
 5376SOL    HW219021   8.703   3.070   5.206 -0.4460 -1.0981 -0.6521
 5377SOL     OW19022   3.304   4.501   7.266  0.2596 -0.3164 -0.9712
 5377SOL    HW119023   3.337   4.414   7.287  0.1869 -0.3709 -1.0810
 5377SOL    HW219024   3.358   4.529   7.192 -0.2054 -0.5674 -1.4048
 5378SOL     OW19025   7.151   1.029   3.915  0.2133  0.0493 -0.6156
 5378SOL    HW119026   7.168   0.959   3.852  0.1249 -0.5790  0.0482
 5378SOL    HW219027   7.101   0.987   3.984  0.2825  0.7416 -0.1411
 5379SOL     OW19028   7.582   6.830   8.526 -0.7425 -0.4403 -0.1559
 5379SOL    HW119029   7.495   6.800   8.500 -1.2851  1.0204 -0.1003
 5379SOL    HW219030   7.582   6.923   8.506 -0.0351  0.0875  2.0514
 5380SOL     OW19031   5.955   5.002   2.046 -0.6808  0.1112  0.2887
 5380SOL    HW119032   5.865   5.002   2.077 -2.0311  2.4878 -3.1333
 5380SOL    HW219033   5.954   4.948   1.967  0.2042  2.2994 -1.3084
 5381SOL     OW19034   4.419   2.107   1.074 -0.2023  0.0445  0.2437
 5381SOL    HW119035   4.509   2.141   1.074 -0.5206  0.9281  0.5074
 5381SOL    HW219036   4.367   2.178   1.114 -0.9566 -0.6050  0.4387
 5382SOL     OW19037   2.195   4.482   1.775 -0.4099 -0.4075  0.3596
 5382SOL    HW119038   2.237   4.399   1.797 -1.2119 -0.4770  1.7540
 5382SOL    HW219039   2.192   4.531   1.857 -1.0458  0.5068 -0.1769
 5383SOL     OW19040   5.187   1.172   2.808  0.1814  0.4757 -0.2937
 5383SOL    HW119041   5.099   1.151   2.841  0.7799 -0.8285  0.5675
 5383SOL    HW219042   5.178   1.168   2.713 -0.3485 -1.2581 -0.2048
 5384SOL     OW19043   3.887   5.833   7.301  0.0944 -0.4120 -0.0119
 5384SOL    HW119044   3.922   5.900   7.359 -0.8814 -0.4703  0.6629
 5384SOL    HW219045   3.961   5.809   7.245  1.2600 -0.8456  1.6485
 5385SOL     OW19046   2.461   3.696   3.099 -0.1780 -0.2956 -0.0188
 5385SOL    HW119047   2.447   3.603   3.109  0.8321 -0.5252 -0.5264
 5385SOL    HW219048   2.514   3.704   3.019  0.9023  0.5958  0.7477
 5386SOL     OW19049   1.198   2.434   4.519 -0.1384 -0.4285 -0.1044
 5386SOL    HW119050   1.238   2.356   4.556 -1.2938 -0.7491  0.5331
 5386SOL    HW219051   1.257   2.506   4.541 -0.6160 -0.6568  2.0940
 5387SOL     OW19052   7.795   1.105   8.106 -0.1065  0.4750 -0.0563
 5387SOL    HW119053   7.826   1.026   8.062  1.0460  1.0080 -0.2267
 5387SOL    HW219054   7.737   1.072   8.175  2.9383 -0.8223  2.1299
 5388SOL     OW19055   1.303   6.817   0.488  0.2133 -0.0376  0.5893
 5388SOL    HW119056   1.253   6.775   0.419  0.7247 -0.6310  0.5778
 5388SOL    HW219057   1.384   6.767   0.494  0.0594 -0.1675  1.8022
 5389SOL     OW19058   3.130   5.939   3.688  0.0800  0.0183  0.0772
 5389SOL    HW119059   3.222   5.941   3.711 -0.1928  1.9266  1.2267
 5389SOL    HW219060   3.105   6.031   3.682 -1.9742 -0.4373  0.7576
 5390SOL     OW19061   3.984   8.258   7.114 -0.0153  0.4615  0.4502
 5390SOL    HW119062   3.918   8.242   7.047 -0.3658  1.5189  0.5206
 5390SOL    HW219063   3.967   8.192   7.182  0.7544 -1.0469 -0.7521
 5391SOL     OW19064   7.589   6.287   3.345 -0.1957  0.1525 -0.2463
 5391SOL    HW119065   7.625   6.370   3.312  0.7311 -0.4510 -0.7985
 5391SOL    HW219066   7.507   6.312   3.387  0.2424  1.4099 -0.0751
 5392SOL     OW19067   5.075   2.434   9.182  0.1019 -0.2422  0.1584
 5392SOL    HW119068   5.079   2.338   9.179  0.7243 -0.2173  0.0133
 5392SOL    HW219069   5.143   2.459   9.245  0.0277  0.1078  0.1033
 5393SOL     OW19070   8.865   8.465   4.754 -0.0243 -0.0282 -0.5502
 5393SOL    HW119071   8.794   8.473   4.690  0.0966 -1.2123 -0.8503
 5393SOL    HW219072   8.876   8.554   4.788 -3.9000 -0.3132  1.9844
 5394SOL     OW19073   2.812   0.279   7.236  0.0308 -0.2646  0.2522
 5394SOL    HW119074   2.817   0.201   7.291 -1.2098  0.4519  1.4254
 5394SOL    HW219075   2.824   0.246   7.147  1.8419 -1.4709  0.8909
 5395SOL     OW19076   6.329   5.412   0.925  0.2390  0.3550  0.5327
 5395SOL    HW119077   6.250   5.435   0.973 -0.0010 -0.5246  0.5815
 5395SOL    HW219078   6.336   5.478   0.856 -1.0732 -0.0996 -0.0650
 5396SOL     OW19079   7.457   4.228   1.903 -0.0322  0.1244  0.5550
 5396SOL    HW119080   7.527   4.242   1.967  1.2978 -3.0395 -0.0427
 5396SOL    HW219081   7.438   4.134   1.907 -0.5630 -0.0597 -2.9884
 5397SOL     OW19082   7.942   7.440   2.773  0.9883 -0.3401 -0.1038
 5397SOL    HW119083   7.870   7.381   2.749  0.6419  0.3534 -0.8182
 5397SOL    HW219084   7.928   7.459   2.865 -0.5304  0.8210 -0.5336
 5398SOL     OW19085   7.043   7.312   5.508  0.4073 -0.3573 -0.1322
 5398SOL    HW119086   7.052   7.369   5.585  0.0839  0.2915 -0.5655
 5398SOL    HW219087   7.086   7.360   5.437  0.2787 -0.7272 -0.4643
 5399SOL     OW19088   0.633   3.013   4.764  0.1846  0.2526  0.2619
 5399SOL    HW119089   0.561   3.058   4.808 -0.2973  1.0585 -1.2850
 5399SOL    HW219090   0.617   3.027   4.671  0.3792 -2.6252 -0.2866
 5400SOL     OW19091   4.909   7.562   3.764  0.2907 -0.1807 -0.2163
 5400SOL    HW119092   4.869   7.610   3.691  1.1248  0.1303 -0.4831
 5400SOL    HW219093   4.965   7.497   3.722  0.0135 -0.6632  0.1528
 5401SOL     OW19094   0.763   0.855   9.020 -0.4225  0.1247 -0.4362
 5401SOL    HW119095   0.747   0.802   9.098  2.1808 -0.2875 -0.0717
 5401SOL    HW219096   0.682   0.850   8.970 -1.4576 -1.2869  1.2773
 5402SOL     OW19097   4.443   6.588   3.461  0.0724  0.0760 -0.6237
 5402SOL    HW119098   4.527   6.553   3.432 -0.0657 -1.1689  0.3785
 5402SOL    HW219099   4.463   6.633   3.543 -0.4963 -1.8994  0.6577
 5403SOL     OW19100   0.623   6.742   2.601 -0.5357  0.4663  0.6275
 5403SOL    HW119101   0.713   6.760   2.629 -0.7487  0.9743  1.0167
 5403SOL    HW219102   0.600   6.816   2.545  0.4658 -1.3359 -2.4156
 5404SOL     OW19103   1.552   4.935   0.416  0.3889  0.1681  0.7335
 5404SOL    HW119104   1.618   4.872   0.387  2.3288  1.0523  2.8647
 5404SOL    HW219105   1.566   5.012   0.361 -1.1971 -0.7534 -1.0728
 5405SOL     OW19106   4.720   3.024   2.501  0.2988 -0.5007  0.0491
 5405SOL    HW119107   4.686   3.066   2.581 -0.1024 -0.2068 -0.2722
 5405SOL    HW219108   4.806   3.064   2.488  0.5198 -0.8098  0.5331
 5406SOL     OW19109   8.800   0.161   4.987  0.2275 -0.1082  0.7433
 5406SOL    HW119110   8.876   0.123   5.031 -0.7563 -1.0724  1.6677
 5406SOL    HW219111   8.767   0.091   4.931  1.7064  1.2124 -2.0178
 5407SOL     OW19112   4.627   3.334   5.211  0.4449  0.0116 -0.1143
 5407SOL    HW119113   4.695   3.371   5.268 -0.3700  1.3155  0.0637
 5407SOL    HW219114   4.548   3.333   5.266 -0.1626  0.4956 -0.9556
 5408SOL     OW19115   8.996   4.662   4.873 -0.3820  0.0530 -0.1819
 5408SOL    HW119116   9.022   4.753   4.858  0.2852  0.1202  1.2284
 5408SOL    HW219117   9.032   4.641   4.959  0.7554 -2.0111 -1.0811
 5409SOL     OW19118   0.370   2.745   8.701  0.3429  0.6055  0.3994
 5409SOL    HW119119   0.409   2.822   8.741 -1.8660  3.1128 -1.8087
 5409SOL    HW219120   0.304   2.716   8.764  1.9166 -0.2625  1.7247
 5410SOL     OW19121   5.773   5.316   1.839  0.2018  0.1134  0.5951
 5410SOL    HW119122   5.839   5.293   1.904  1.2385 -0.2193 -0.5392
 5410SOL    HW219123   5.763   5.411   1.846  1.2460  0.2499  0.3796
 5411SOL     OW19124   6.841   4.587   9.079  0.7449  1.1030  0.5722
 5411SOL    HW119125   6.752   4.566   9.108  0.5703 -0.1111 -0.7159
 5411SOL    HW219126   6.895   4.574   9.157  0.2058 -1.4046  0.6407
 5412SOL     OW19127   9.090   0.031   1.054  0.2134  0.0624 -0.7290
 5412SOL    HW119128   9.018  -0.001   1.108  0.4921 -0.7848 -0.8526
 5412SOL    HW219129   9.047   0.074   0.980 -0.1978 -1.9196 -1.6902
 5413SOL     OW19130   2.217   2.849   6.967 -0.0089 -0.2559 -0.4241
 5413SOL    HW119131   2.288   2.794   7.000 -0.5670 -1.2331 -0.8038
 5413SOL    HW219132   2.216   2.833   6.872 -1.1870 -0.8162 -0.3348
 5414SOL     OW19133   5.496   5.107   7.329 -0.4266 -0.9936  0.0938
 5414SOL    HW119134   5.455   5.134   7.411 -1.5321 -1.8336 -0.1682
 5414SOL    HW219135   5.583   5.076   7.354 -0.0630  0.4406  0.7078
 5415SOL     OW19136   5.787   7.208   1.042  0.8316 -0.0667 -0.1685
 5415SOL    HW119137   5.751   7.297   1.036  1.4777  0.1686 -0.6996
 5415SOL    HW219138   5.775   7.172   0.954 -0.2815 -0.8562  0.2823
 5416SOL     OW19139   7.859   5.420   5.199 -0.5815  0.6760 -0.1623
 5416SOL    HW119140   7.807   5.408   5.119  0.8573  0.4314 -1.1091
 5416SOL    HW219141   7.939   5.371   5.182 -1.3166 -1.7394  2.5426
 5417SOL     OW19142   8.055   0.475   3.340  0.2447  0.1701  0.3004
 5417SOL    HW119143   8.077   0.381   3.335 -0.3742 -0.1305  2.3306
 5417SOL    HW219144   8.140   0.519   3.333  0.7229 -0.6185  0.9196
 5418SOL     OW19145   8.650   7.886   0.914 -0.8828 -0.5180  0.2570
 5418SOL    HW119146   8.587   7.911   0.846  0.4550  0.5188 -0.6546
 5418SOL    HW219147   8.715   7.834   0.867 -0.0979 -0.0381  0.8073
 5419SOL     OW19148   5.947   4.373   8.608  0.2935 -0.0717  0.7202
 5419SOL    HW119149   6.001   4.348   8.683  0.7898 -1.1527  0.0322
 5419SOL    HW219150   6.008   4.375   8.534 -0.4028 -0.2107  0.1284
 5420SOL     OW19151   3.969   3.100   5.765  0.9502 -0.0722  0.2547
 5420SOL    HW119152   3.988   3.140   5.850  0.3719  0.5379  0.1025
 5420SOL    HW219153   3.879   3.067   5.774  0.5427  0.8094 -0.4067
 5421SOL     OW19154   0.042   5.938   3.980 -0.5875  0.0523  0.6466
 5421SOL    HW119155   0.027   6.020   4.027 -0.3981  0.4465  0.0199
 5421SOL    HW219156   0.052   5.872   4.050 -0.7736  0.5486  1.1490
 5422SOL     OW19157   0.152   8.401   0.924 -0.1452 -0.2168  0.7038
 5422SOL    HW119158   0.076   8.431   0.874 -1.0296 -1.3056  1.3465
 5422SOL    HW219159   0.127   8.413   1.016  0.9501  0.5289  0.9295
 5423SOL     OW19160   7.247   0.352   4.025 -0.2368  0.8871  0.0272
 5423SOL    HW119161   7.254   0.416   3.953  1.1755  3.5476  2.3409
 5423SOL    HW219162   7.337   0.323   4.040 -0.8394 -1.7643 -0.9166
 5424SOL     OW19163   4.662   8.772   1.952 -0.1755 -0.4235 -0.2451
 5424SOL    HW119164   4.684   8.805   1.865 -0.9030  0.8440  0.0277
 5424SOL    HW219165   4.611   8.842   1.992  0.1508 -0.9835  1.2094
 5425SOL     OW19166   6.564   7.895   1.767  0.4861  0.2071  0.1850
 5425SOL    HW119167   6.590   7.956   1.836 -0.4429  0.3517  0.4240
 5425SOL    HW219168   6.562   7.809   1.811 -1.2785  0.4659  0.6750
 5426SOL     OW19169   6.824   1.786   4.699 -0.2676 -0.3205 -0.4973
 5426SOL    HW119170   6.888   1.715   4.693 -1.1421 -1.1218 -0.6389
 5426SOL    HW219171   6.811   1.815   4.608 -1.0373 -1.0409 -0.6382
 5427SOL     OW19172   8.432   5.537   2.313 -0.6411 -0.7014 -0.3074
 5427SOL    HW119173   8.522   5.569   2.319 -1.2641  0.8425  1.5309
 5427SOL    HW219174   8.398   5.578   2.233  0.0299 -0.6572 -0.5812
 5428SOL     OW19175   5.206   3.169   4.792  0.2198  0.1961 -1.1702
 5428SOL    HW119176   5.193   3.177   4.698 -0.0211 -1.1955 -1.2767
 5428SOL    HW219177   5.252   3.086   4.804  0.4423  0.4509 -0.0711
 5429SOL     OW19178   7.112   2.339   8.079  0.0444 -0.3215  0.0729
 5429SOL    HW119179   7.055   2.273   8.119  0.4621 -1.4780 -1.1770
 5429SOL    HW219180   7.105   2.415   8.137 -0.3404 -1.5001  1.6403
 5430SOL     OW19181   8.991   3.853   6.326  0.2848  0.0431  0.0644
 5430SOL    HW119182   8.932   3.868   6.252 -1.1081  2.1725  1.4886
 5430SOL    HW219183   9.075   3.833   6.286 -0.8556 -0.8617 -2.0571
 5431SOL     OW19184   2.006   5.652   8.061 -0.4258  0.2124  0.3903
 5431SOL    HW119185   2.063   5.717   8.020 -3.0073  2.2410 -0.2474
 5431SOL    HW219186   1.946   5.703   8.116 -1.3110 -1.8411  1.4641
 5432SOL     OW19187   5.258   2.960   6.971 -0.6350 -0.4852  0.2612
 5432SOL    HW119188   5.286   2.924   6.887  0.0966  0.2960  0.1574
 5432SOL    HW219189   5.339   2.967   7.023 -1.1123 -1.2120  1.1368
 5433SOL     OW19190   1.855   8.754   5.219 -0.6657 -0.1824 -0.0795
 5433SOL    HW119191   1.862   8.843   5.184  2.1338 -0.2540  0.1157
 5433SOL    HW219192   1.911   8.701   5.163  0.6976 -1.0666  1.9925
 5434SOL     OW19193   2.936   1.239   3.128  0.2138  0.0845 -0.0021
 5434SOL    HW119194   2.920   1.310   3.066  0.8876 -0.6993 -1.1125
 5434SOL    HW219195   2.976   1.281   3.204  0.4366  0.9200 -0.5739
 5435SOL     OW19196   8.587   6.252   4.991 -0.6099 -0.5439 -0.2670
 5435SOL    HW119197   8.564   6.316   4.923  1.7183  2.3450  1.4501
 5435SOL    HW219198   8.540   6.281   5.069 -0.8822 -2.0125  0.1441
 5436SOL     OW19199   4.212   2.108   2.937 -0.2274 -0.0471  0.5421
 5436SOL    HW119200   4.123   2.106   2.972 -0.1646 -0.8019  0.6833
 5436SOL    HW219201   4.268   2.116   3.014 -0.1579  0.1133  0.4759
 5437SOL     OW19202   8.917   7.854   5.887  0.0950 -0.1339 -0.3617
 5437SOL    HW119203   8.938   7.849   5.794  2.3807 -0.0210  0.1027
 5437SOL    HW219204   8.992   7.897   5.927 -0.4212 -0.9831  1.6720
 5438SOL     OW19205   2.417   3.927   8.017 -0.1870  0.0574 -0.3566
 5438SOL    HW119206   2.416   4.012   7.972  1.1047  0.0583 -0.4265
 5438SOL    HW219207   2.331   3.921   8.059 -0.1033  1.6423  0.0943
 5439SOL     OW19208   2.483   6.630   7.200  0.0686 -0.6522  0.0723
 5439SOL    HW119209   2.457   6.551   7.247 -2.4968 -0.0512 -0.2184
 5439SOL    HW219210   2.464   6.702   7.260  0.8512 -0.1432 -0.2754
 5440SOL     OW19211   9.148   3.135   0.423  0.1025 -0.2380 -0.4014
 5440SOL    HW119212   9.185   3.096   0.502 -0.3257  0.4055  0.1251
 5440SOL    HW219213   9.068   3.177   0.452 -0.0101  0.0983 -1.1639
 5441SOL     OW19214   2.769   5.649   1.266 -0.6321  0.5507  0.1071
 5441SOL    HW119215   2.814   5.668   1.348 -0.0521 -0.7412  0.1081
 5441SOL    HW219216   2.837   5.617   1.208 -1.3075 -0.0802 -0.3518
 5442SOL     OW19217   8.350   1.918   1.357 -0.5043  0.7091  0.5010
 5442SOL    HW119218   8.392   1.986   1.410  1.8267  1.9764 -2.6262
 5442SOL    HW219219   8.277   1.962   1.314 -1.0397  0.2991  0.9835
 5443SOL     OW19220   4.685   2.847   3.179 -0.0478 -0.3670 -0.4018
 5443SOL    HW119221   4.696   2.754   3.200 -0.8504 -0.9951 -2.4653
 5443SOL    HW219222   4.775   2.880   3.168  0.3035 -0.4932  1.7358
 5444SOL     OW19223   1.791   8.507   5.340 -0.4378 -0.2223  0.0511
 5444SOL    HW119224   1.802   8.588   5.290  0.9192 -0.2442  0.2791
 5444SOL    HW219225   1.879   8.487   5.373  0.4399 -4.3508 -3.8151
 5445SOL     OW19226   5.092   1.594   9.155 -0.1800 -0.2105  0.4097
 5445SOL    HW119227   5.058   1.637   9.076  0.0451  1.6822  1.2752
 5445SOL    HW219228   5.180   1.566   9.130 -0.5960 -0.8486 -0.4004
 5446SOL     OW19229   7.121   1.252   2.866  0.0093 -0.3936  0.1786
 5446SOL    HW119230   7.215   1.250   2.848  0.2250 -0.2128  1.1902
 5446SOL    HW219231   7.115   1.288   2.955 -1.0179 -0.3853  0.1175
 5447SOL     OW19232   4.372   2.821   1.894 -0.1294  0.1128  0.5074
 5447SOL    HW119233   4.326   2.791   1.972 -0.2262 -1.1262  0.0016
 5447SOL    HW219234   4.341   2.762   1.824  1.4145 -0.0697 -0.0564
 5448SOL     OW19235   4.955   5.054   6.002  0.6322 -0.0993 -0.0793
 5448SOL    HW119236   5.026   5.001   5.964  1.3590 -1.1555  2.4651
 5448SOL    HW219237   4.997   5.136   6.026  0.5837 -0.0587 -0.1355
 5449SOL     OW19238   5.576   5.650   3.065 -0.0442 -0.4450  0.0666
 5449SOL    HW119239   5.670   5.660   3.082  0.1770 -0.7574 -0.9081
 5449SOL    HW219240   5.536   5.728   3.104  0.4380 -0.9967  1.7530
 5450SOL     OW19241   6.800   5.422   8.696  0.2700 -0.2325  0.3942
 5450SOL    HW119242   6.839   5.408   8.610  0.5885 -1.1403  0.6826
 5450SOL    HW219243   6.848   5.364   8.755 -0.2292  0.0632  1.1092
 5451SOL     OW19244   1.006   1.508   8.319  0.5354 -0.1406  0.8777
 5451SOL    HW119245   1.004   1.547   8.407  0.8615 -0.9085  1.2411
 5451SOL    HW219246   1.077   1.444   8.324 -0.7162 -1.5809  0.6481
 5452SOL     OW19247   3.555   8.408   4.103  0.3514 -0.2139  0.3023
 5452SOL    HW119248   3.631   8.356   4.132 -0.4092 -1.2679  0.4455
 5452SOL    HW219249   3.501   8.346   4.054  0.1492  0.8266 -0.8010
 5453SOL     OW19250   2.559   3.977   7.033 -0.6544  0.3642  0.4870
 5453SOL    HW119251   2.597   3.890   7.030  2.4298  1.5732  0.4004
 5453SOL    HW219252   2.569   4.004   7.125 -0.2234  1.1379  0.2215
 5454SOL     OW19253   5.404   3.950   1.640 -0.4204 -0.1759 -0.5312
 5454SOL    HW119254   5.384   3.857   1.628  1.7653 -0.5731 -1.4625
 5454SOL    HW219255   5.435   3.980   1.555  0.3615  1.0107  0.1364
 5455SOL     OW19256   7.620   6.644   4.762  0.2390  0.2059 -0.3905
 5455SOL    HW119257   7.578   6.560   4.745 -1.1631  0.5360  1.2439
 5455SOL    HW219258   7.714   6.626   4.755 -0.0747 -0.9068 -2.5287
 5456SOL     OW19259   7.361   3.145   5.430  0.0387  0.3768  0.4485
 5456SOL    HW119260   7.336   3.238   5.423  0.2956  0.3584 -1.1633
 5456SOL    HW219261   7.433   3.144   5.493  0.6396  1.4152 -0.1951
 5457SOL     OW19262   7.150   4.492   6.196  0.0455  0.0458  0.1599
 5457SOL    HW119263   7.160   4.428   6.125 -4.6606  0.0336 -0.8077
 5457SOL    HW219264   7.204   4.566   6.169  0.2854 -0.9033 -2.2514
 5458SOL     OW19265   7.228   7.845   6.527 -0.0118  0.1181 -0.9177
 5458SOL    HW119266   7.246   7.917   6.588  1.2845  0.5740 -1.7871
 5458SOL    HW219267   7.273   7.770   6.566 -0.1034  0.1390 -0.7689
 5459SOL     OW19268   6.861   1.613   6.701 -0.5746  0.3927  0.2005
 5459SOL    HW119269   6.806   1.557   6.756 -1.8749  1.2817 -0.1654
 5459SOL    HW219270   6.916   1.662   6.764  0.9388 -1.5739  0.5104
 5460SOL     OW19271   3.376   6.551   2.231  0.6440 -0.3693 -0.1032
 5460SOL    HW119272   3.459   6.563   2.185  0.6118  0.3543  0.0035
 5460SOL    HW219273   3.324   6.495   2.174  1.1014 -0.5825 -0.3089
 5461SOL     OW19274   7.927   3.690   5.905 -0.0329  0.1175  0.1514
 5461SOL    HW119275   7.850   3.660   5.857  0.5145 -0.8205 -0.1780
 5461SOL    HW219276   7.894   3.710   5.993 -0.7074  0.0537 -0.0830
 5462SOL     OW19277   4.035   0.274   6.537 -0.3088 -0.3545 -0.2697
 5462SOL    HW119278   4.004   0.258   6.626  1.2766  0.1679  0.4051
 5462SOL    HW219279   4.116   0.324   6.548 -0.6348  0.6502 -2.0378
 5463SOL     OW19280   4.714   8.853   0.821 -0.1556 -0.0786 -0.1173
 5463SOL    HW119281   4.804   8.821   0.827 -0.4476 -1.2033 -1.1909
 5463SOL    HW219282   4.669   8.787   0.767 -1.4952  0.7246 -0.0265
 5464SOL     OW19283   0.305   2.761   3.344  0.4320 -0.5852 -0.0914
 5464SOL    HW119284   0.315   2.802   3.430  1.2747 -0.8339 -0.0614
 5464SOL    HW219285   0.387   2.713   3.331 -0.0530 -1.2749 -0.6466
 5465SOL     OW19286   4.668   3.220   0.649  1.1081  0.2234  0.0469
 5465SOL    HW119287   4.695   3.137   0.611 -1.7309 -0.3082 -1.1008
 5465SOL    HW219288   4.664   3.280   0.575  3.7607  1.6763  0.9606
 5466SOL     OW19289   5.057   8.703   7.508  0.3881 -0.2627 -0.1183
 5466SOL    HW119290   5.107   8.778   7.475 -0.8700  0.4987 -0.3987
 5466SOL    HW219291   5.119   8.630   7.507  1.7391  0.8395  0.4719
 5467SOL     OW19292   0.498   0.164   5.303  0.2858  0.6688 -0.2008
 5467SOL    HW119293   0.516   0.242   5.356  0.5743  1.1683 -1.0074
 5467SOL    HW219294   0.524   0.189   5.214 -1.0335  0.1660 -0.7584
 5468SOL     OW19295   5.660   5.883   8.898 -0.0973 -0.2409  0.1568
 5468SOL    HW119296   5.580   5.835   8.922  0.4490 -0.9552  0.5777
 5468SOL    HW219297   5.731   5.836   8.941  0.6225  0.0492 -0.6709
 5469SOL     OW19298   2.357   7.314   4.224  0.6823 -0.1027 -0.1619
 5469SOL    HW119299   2.340   7.274   4.309  2.0207  1.1814  0.7701
 5469SOL    HW219300   2.415   7.252   4.180  1.6315  0.1168  0.7181
 5470SOL     OW19301   5.126   8.957   8.497  0.2014 -0.2801  0.2165
 5470SOL    HW119302   5.170   8.929   8.577  1.4371  1.0528  0.0327
 5470SOL    HW219303   5.042   8.911   8.499  1.3358 -2.4825  0.8586
 5471SOL     OW19304   1.315   2.201   2.241  0.0610 -0.4600  0.1612
 5471SOL    HW119305   1.407   2.177   2.248  0.3935  0.3566 -1.1378
 5471SOL    HW219306   1.274   2.160   2.318  1.0586 -2.8270 -0.4781
 5472SOL     OW19307   6.320   4.674   1.257 -0.2784 -0.4249  0.1412
 5472SOL    HW119308   6.293   4.611   1.324  1.7223 -0.7475  0.7052
 5472SOL    HW219309   6.289   4.758   1.289  2.5812 -0.2202  2.7311
 5473SOL     OW19310   3.297   0.243   0.345 -0.1992  0.3486 -0.3883
 5473SOL    HW119311   3.311   0.174   0.281  0.2670 -1.1040  1.2064
 5473SOL    HW219312   3.384   0.262   0.380 -0.6264 -0.0157  0.9208
 5474SOL     OW19313   4.006   8.099   5.882 -0.4538  0.5739  0.8352
 5474SOL    HW119314   3.991   8.101   5.787  1.5265  0.0647  0.4755
 5474SOL    HW219315   4.026   8.189   5.905  1.9135  0.2829  0.2016
 5475SOL     OW19316   0.689   8.470   0.527 -0.3390  0.0684 -0.0027
 5475SOL    HW119317   0.628   8.492   0.457  1.1859  1.3483 -0.9941
 5475SOL    HW219318   0.757   8.536   0.521 -0.4404  0.5903  3.1219
 5476SOL     OW19319   5.271   0.283   1.081  0.5758 -0.1403  0.2073
 5476SOL    HW119320   5.175   0.286   1.081  0.5573  2.9431 -1.3763
 5476SOL    HW219321   5.298   0.369   1.113  2.7511  0.0937 -1.9857
 5477SOL     OW19322   0.486   0.702   1.623 -0.3732  0.2140 -0.2048
 5477SOL    HW119323   0.481   0.789   1.663 -1.1831  0.5743 -1.0421
 5477SOL    HW219324   0.480   0.719   1.529  2.9889 -0.4782 -0.6565
 5478SOL     OW19325   5.264   1.243   6.656  0.1611  0.0122 -0.4910
 5478SOL    HW119326   5.321   1.279   6.724 -0.5026  1.7741 -0.8194
 5478SOL    HW219327   5.319   1.240   6.578  0.5945 -0.9735 -0.1738
 5479SOL     OW19328   5.197   7.174   5.461  0.1476 -0.3717 -0.0714
 5479SOL    HW119329   5.219   7.232   5.534  0.9951 -0.2811 -0.3826
 5479SOL    HW219330   5.184   7.232   5.387 -0.5498 -0.4760 -0.0397
 5480SOL     OW19331   4.931   1.361   7.675  0.7550 -0.2481  0.1525
 5480SOL    HW119332   4.993   1.434   7.676 -0.0492  0.4718 -0.4741
 5480SOL    HW219333   4.983   1.286   7.649  1.4081  0.3009 -0.1598
 5481SOL     OW19334   3.204   5.323   7.688  0.3948  0.1562 -1.0749
 5481SOL    HW119335   3.184   5.313   7.594 -0.3326  0.7412 -0.9901
 5481SOL    HW219336   3.220   5.416   7.699 -0.4930  0.2475 -0.4419
 5482SOL     OW19337   1.876   4.240   8.589 -0.2803  0.1601  0.5245
 5482SOL    HW119338   1.886   4.234   8.494  1.7634 -0.5581  0.7522
 5482SOL    HW219339   1.907   4.327   8.612 -1.3782  0.5741  0.4858
 5483SOL     OW19340   1.672   2.604   4.035 -0.3203  0.9973  0.1946
 5483SOL    HW119341   1.680   2.639   3.946 -0.1491 -0.0819 -0.2247
 5483SOL    HW219342   1.603   2.657   4.074 -0.2663  1.6201 -0.5076
 5484SOL     OW19343   2.468   3.369   7.639  0.7454  0.0906  0.3313
 5484SOL    HW119344   2.459   3.288   7.589  0.7778  0.6278 -0.5815
 5484SOL    HW219345   2.428   3.350   7.724 -0.4926 -0.4672 -0.3475
 5485SOL     OW19346   2.876   7.022   2.163  0.3556  0.4481 -0.2771
 5485SOL    HW119347   2.927   6.966   2.221  1.0645  1.9020  0.5714
 5485SOL    HW219348   2.938   7.088   2.133 -0.9045  2.0863  0.5304
 5486SOL     OW19349   5.093   2.145   0.373  0.3025 -0.3648 -0.1691
 5486SOL    HW119350   5.166   2.102   0.328  0.8347  0.1587  0.1872
 5486SOL    HW219351   5.134   2.210   0.430 -0.4847  0.7498 -0.8242
 5487SOL     OW19352   8.233   3.245   0.795  0.7476 -0.2611 -0.1180
 5487SOL    HW119353   8.160   3.308   0.801  0.5020 -0.3955 -1.4376
 5487SOL    HW219354   8.297   3.288   0.739  0.3660 -1.3617 -1.4481
 5488SOL     OW19355   3.473   1.030   4.673 -0.5408  0.4489 -0.0895
 5488SOL    HW119356   3.567   1.032   4.689 -0.3102  1.0045 -1.4136
 5488SOL    HW219357   3.465   1.023   4.578 -1.8185  3.1784 -0.2639
 5489SOL     OW19358   8.488   2.059   8.737 -0.1112  0.1632  0.3000
 5489SOL    HW119359   8.545   2.135   8.734 -0.2017  0.2461  0.6475
 5489SOL    HW219360   8.484   2.028   8.646  1.6979 -0.7470  0.5026
 5490SOL     OW19361   7.853   1.680   1.351  0.6013 -0.8142 -0.3598
 5490SOL    HW119362   7.892   1.709   1.433  0.6360 -0.1575 -0.5971
 5490SOL    HW219363   7.780   1.624   1.377  0.7014 -0.7285  0.1151
 5491SOL     OW19364   4.125   4.450   0.963 -0.1221 -0.0672  0.6525
 5491SOL    HW119365   4.173   4.368   0.971  0.8672  0.1861 -1.7807
 5491SOL    HW219366   4.191   4.518   0.980  0.2512  0.2559 -1.7017
 5492SOL     OW19367   9.238   4.642   5.420 -0.2014 -0.1669 -0.0468
 5492SOL    HW119368   9.156   4.660   5.466 -0.3808 -4.0618  1.5466
 5492SOL    HW219369   9.298   4.712   5.450 -2.3970  1.8011  0.0362
 5493SOL     OW19370   5.720   6.920   3.529 -0.3516 -0.1637  0.0722
 5493SOL    HW119371   5.685   6.999   3.570  0.9397  0.6138 -0.2679
 5493SOL    HW219372   5.807   6.910   3.567 -0.3961 -1.2877 -0.0832
 5494SOL     OW19373   7.382   4.695   7.341  0.0420 -0.0616 -0.8831
 5494SOL    HW119374   7.430   4.667   7.263 -1.7469 -1.3880 -1.5972
 5494SOL    HW219375   7.341   4.614   7.374  1.5344  0.2577  2.0618
 5495SOL     OW19376   3.398   9.148   1.269 -0.6185  0.0814 -0.1248
 5495SOL    HW119377   3.421   9.056   1.281 -0.5589 -0.2142 -2.1547
 5495SOL    HW219378   3.477   9.189   1.235 -0.8057  0.7747  0.2558
 5496SOL     OW19379   3.285   0.681   4.106 -0.5990 -0.2812  0.0205
 5496SOL    HW119380   3.227   0.752   4.134 -1.0128 -0.2694 -0.8215
 5496SOL    HW219381   3.226   0.615   4.069 -0.1701 -0.8166  0.2764
 5497SOL     OW19382   5.908   0.309   7.723  0.5600 -0.1987 -0.0508
 5497SOL    HW119383   5.886   0.271   7.637  0.8595  1.1049 -0.7299
 5497SOL    HW219384   5.841   0.274   7.782  1.7987 -3.1504 -0.2068
 5498SOL     OW19385   6.314   5.391   6.846  0.2829 -0.0857  0.3665
 5498SOL    HW119386   6.286   5.460   6.786  0.8602 -0.5267 -0.4304
 5498SOL    HW219387   6.305   5.310   6.795  1.6522 -0.3758  0.5358
 5499SOL     OW19388   4.646   5.932   8.029  0.0689 -0.2986  0.5117
 5499SOL    HW119389   4.728   5.980   8.012 -0.9017  2.0616  2.0214
 5499SOL    HW219390   4.656   5.897   8.117 -2.0727  3.8982  2.7240
 5500SOL     OW19391   1.187   6.762   2.323 -0.3177  0.3092  0.0694
 5500SOL    HW119392   1.186   6.823   2.397  0.8849 -0.4841  0.7779
 5500SOL    HW219393   1.097   6.729   2.319 -0.2888 -0.0733  1.5912
 5501SOL     OW19394   0.952   3.162   5.600 -0.0283  0.3774  0.4303
 5501SOL    HW119395   1.005   3.082   5.597 -0.1388  0.2977  0.5817
 5501SOL    HW219396   1.014   3.232   5.578 -0.2348  0.1155 -1.0882
 5502SOL     OW19397   0.642   6.614   5.599  0.1191 -0.1271 -0.0258
 5502SOL    HW119398   0.563   6.668   5.591  0.6565  0.4615 -2.3170
 5502SOL    HW219399   0.611   6.532   5.637 -1.5075  0.2808 -0.3633
 5503SOL     OW19400   2.979   1.964   8.126  0.7089 -0.6445 -0.7174
 5503SOL    HW119401   3.039   1.959   8.051  0.4128 -2.1287 -0.8864
 5503SOL    HW219402   3.034   1.944   8.202  0.9912  0.7776 -0.5238
 5504SOL     OW19403   2.835   1.615   0.711  0.4478  0.2618  0.0317
 5504SOL    HW119404   2.822   1.631   0.618  0.0831  0.7189  0.1602
 5504SOL    HW219405   2.765   1.664   0.754  1.2140  0.8662  0.6067
 5505SOL     OW19406   1.814   6.330   8.064 -0.1005 -0.2561  0.0846
 5505SOL    HW119407   1.728   6.368   8.083  0.4132  0.1037  1.9352
 5505SOL    HW219408   1.812   6.245   8.109  0.2086 -0.6214 -0.5928
 5506SOL     OW19409   7.571   2.375   2.855 -0.1653 -0.1127  0.6671
 5506SOL    HW119410   7.608   2.448   2.906  0.8203 -0.5947  0.6588
 5506SOL    HW219411   7.586   2.400   2.764 -1.7981  0.6812  0.5821
 5507SOL     OW19412   5.224   4.388   2.818  0.0893 -0.1982 -0.3331
 5507SOL    HW119413   5.183   4.473   2.837  2.2810  1.1012 -0.9744
 5507SOL    HW219414   5.154   4.324   2.830 -1.1586  1.4517  2.2968
 5508SOL     OW19415   7.667   6.826   7.092 -0.9744  0.2139  0.1085
 5508SOL    HW119416   7.698   6.862   7.175 -1.5680  2.8723 -0.7173
 5508SOL    HW219417   7.573   6.817   7.103 -1.2912  2.0101 -0.6713
 5509SOL     OW19418   0.412   0.185   7.746 -0.0986  0.0760 -0.4186
 5509SOL    HW119419   0.422   0.170   7.652 -1.4481  0.2357 -0.6022
 5509SOL    HW219420   0.409   0.281   7.754 -1.8004  0.0390 -0.4328
 5510SOL     OW19421   3.263   6.253   8.741 -0.0091 -0.1347  0.2801
 5510SOL    HW119422   3.292   6.173   8.785 -0.7185  0.4073  1.7999
 5510SOL    HW219423   3.176   6.232   8.707  1.0765 -0.9982 -2.1944
 5511SOL     OW19424   7.714   8.220   6.930 -0.2073  0.4655  0.1200
 5511SOL    HW119425   7.652   8.200   6.860 -1.3700  1.0655  0.9521
 5511SOL    HW219426   7.709   8.145   6.989  0.9087 -0.1254 -0.5004
 5512SOL     OW19427   2.304   8.089   2.373  0.1222  0.0803  0.3307
 5512SOL    HW119428   2.289   8.134   2.290 -1.4795  0.8197  0.9802
 5512SOL    HW219429   2.354   8.011   2.349  0.3435  0.6549 -1.2205
 5513SOL     OW19430   1.106   1.004   2.384 -0.4018  0.0665  0.0573
 5513SOL    HW119431   1.078   1.048   2.304 -2.0672 -0.4147  0.3389
 5513SOL    HW219432   1.194   0.971   2.364 -0.7593  0.0188 -1.5464
 5514SOL     OW19433   4.748   5.522   2.694 -0.2516 -0.3531 -0.0314
 5514SOL    HW119434   4.809   5.530   2.767  0.5421  0.0487 -0.7236
 5514SOL    HW219435   4.754   5.430   2.668 -0.5087 -0.4885  0.3833
 5515SOL     OW19436   0.042   4.369   0.663  0.5551 -0.1097 -0.4674
 5515SOL    HW119437   0.054   4.276   0.683 -0.0944 -0.0562  0.1802
 5515SOL    HW219438   0.124   4.410   0.691  1.7722 -0.7779 -2.7907
 5516SOL     OW19439   8.647   1.531   0.631 -0.3341  0.0156  0.0022
 5516SOL    HW119440   8.705   1.604   0.653  0.0933 -0.6565  1.2357
 5516SOL    HW219441   8.573   1.540   0.692 -1.4294  0.7005 -1.3668
 5517SOL     OW19442   0.122   6.339   2.387  0.0743  0.3902 -0.1620
 5517SOL    HW119443   0.186   6.307   2.324 -0.8777 -0.2290 -0.8529
 5517SOL    HW219444   0.163   6.327   2.473  0.2620 -1.4887 -0.4818
 5518SOL     OW19445   4.345   3.034   6.141 -0.5277  0.1778  0.2063
 5518SOL    HW119446   4.340   3.051   6.235 -0.1399  1.0292  0.0865
 5518SOL    HW219447   4.340   3.121   6.101 -1.0363 -0.2024 -0.5765
 5519SOL     OW19448   6.907   5.660   5.756 -0.0100 -0.0460  0.6193
 5519SOL    HW119449   6.835   5.677   5.694 -1.3518 -0.6475  1.9658
 5519SOL    HW219450   6.918   5.565   5.755  0.0695 -0.0434  1.1977
 5520SOL     OW19451   6.069   0.104   6.908 -0.3853 -0.2993 -0.6758
 5520SOL    HW119452   6.011   0.095   6.984 -0.2193 -1.8835 -0.7089
 5520SOL    HW219453   6.010   0.116   6.834 -0.7289 -1.9920 -0.7213
 5521SOL     OW19454   5.749   1.285   3.717  0.2990  0.3302 -0.4378
 5521SOL    HW119455   5.731   1.192   3.725 -0.0446  0.3402 -1.0115
 5521SOL    HW219456   5.831   1.290   3.668 -0.7906  0.3326 -2.3754
 5522SOL     OW19457   1.590   7.929   6.990 -0.0772 -0.0207  0.4398
 5522SOL    HW119458   1.622   8.002   7.043  2.8911  1.2750 -2.7496
 5522SOL    HW219459   1.666   7.873   6.977 -1.1384 -1.2484 -0.9258
 5523SOL     OW19460   5.721   9.102   9.246  0.1791 -0.3866 -0.1755
 5523SOL    HW119461   5.808   9.073   9.222 -0.5936 -0.6466 -2.9703
 5523SOL    HW219462   5.698   9.168   9.181 -1.4225  0.2432  0.9484
 5524SOL     OW19463   3.210   6.046   3.119  0.4440 -0.1589  0.0476
 5524SOL    HW119464   3.199   5.976   3.183  0.5094  0.7694  1.1227
 5524SOL    HW219465   3.254   6.116   3.168  0.1491  0.7246 -0.9081
 5525SOL     OW19466   4.752   7.774   7.435 -0.2966  0.7624  0.3025
 5525SOL    HW119467   4.784   7.721   7.508  1.9373  1.2460 -0.2567
 5525SOL    HW219468   4.701   7.844   7.476  1.2395  1.2453  1.4536
 5526SOL     OW19469   0.451   0.647   3.557 -0.1843 -0.0923 -0.5388
 5526SOL    HW119470   0.537   0.661   3.517  0.8144 -0.7654  1.2330
 5526SOL    HW219471   0.468   0.585   3.628 -2.2559 -0.6823 -0.4921
 5527SOL     OW19472   5.055   4.554   7.335 -0.3033 -0.3186  0.1702
 5527SOL    HW119473   4.992   4.482   7.325 -0.6302 -0.0502  0.2560
 5527SOL    HW219474   5.109   4.529   7.409  1.0108 -1.5083 -1.1302
 5528SOL     OW19475   7.480   6.532   7.739 -0.0426 -0.1384 -0.3693
 5528SOL    HW119476   7.550   6.478   7.775 -1.8532 -0.9027  2.3541
 5528SOL    HW219477   7.439   6.477   7.673  1.8951  0.3728 -2.0964
 5529SOL     OW19478   2.967   3.656   0.548  0.3827 -0.4918 -0.9512
 5529SOL    HW119479   3.031   3.641   0.618  1.0300  0.8723 -1.2163
 5529SOL    HW219480   2.958   3.752   0.544 -0.4401 -0.5973 -2.0374
 5530SOL     OW19481   3.010   2.537   6.672  1.0349 -0.1851  0.5150
 5530SOL    HW119482   3.004   2.621   6.628 -1.6859 -1.1077 -1.1049
 5530SOL    HW219483   3.064   2.483   6.614 -0.0961 -0.5186 -0.2695
 5531SOL     OW19484   4.704   7.639   1.003  0.5502 -0.1497  0.8317
 5531SOL    HW119485   4.717   7.711   1.065 -0.2459  2.0258 -1.3268
 5531SOL    HW219486   4.609   7.633   0.994  0.6228  1.2153 -1.7876
 5532SOL     OW19487   5.090   8.069   3.471 -0.2582  0.5711  0.9133
 5532SOL    HW119488   5.112   8.131   3.401 -1.2470  0.4716  0.5019
 5532SOL    HW219489   4.995   8.061   3.467 -0.4866  1.5097  3.1095
 5533SOL     OW19490   6.589   2.587   3.891  0.1616  0.2870  0.0239
 5533SOL    HW119491   6.510   2.576   3.944  0.4173  0.4538  0.4361
 5533SOL    HW219492   6.646   2.515   3.917  0.3140  0.4059  0.0201
 5534SOL     OW19493   5.469   5.886   4.261 -0.7374 -0.3347  0.1841
 5534SOL    HW119494   5.483   5.861   4.352 -2.6515 -1.0907  0.3072
 5534SOL    HW219495   5.557   5.887   4.223 -0.0789 -2.0550  1.5107
 5535SOL     OW19496   3.153   8.295   4.260 -0.1095  0.2341 -0.1591
 5535SOL    HW119497   3.237   8.336   4.281 -0.6756  1.1318  0.4001
 5535SOL    HW219498   3.173   8.201   4.255  0.2363 -0.0782  3.8333
 5536SOL     OW19499   7.110   8.414   5.819 -0.6084 -0.8228 -0.1526
 5536SOL    HW119500   7.163   8.403   5.741 -1.0101  1.1925 -0.7627
 5536SOL    HW219501   7.021   8.389   5.791 -0.6273 -0.7696 -0.1403
 5537SOL     OW19502   2.653   6.239   6.700 -0.0980 -0.2361 -0.1768
 5537SOL    HW119503   2.668   6.149   6.729  0.8308 -0.1978 -0.4951
 5537SOL    HW219504   2.577   6.234   6.643  1.1335 -1.1857 -1.8270
 5538SOL     OW19505   2.645   3.610   6.706  0.1164 -0.1387 -0.2885
 5538SOL    HW119506   2.663   3.681   6.645 -0.7289 -0.3265 -0.7721
 5538SOL    HW219507   2.579   3.557   6.662  0.7948 -1.2745  0.0322
 5539SOL     OW19508   4.948   1.186   8.594  1.0383  0.4633 -0.7627
 5539SOL    HW119509   4.889   1.111   8.595  1.4487  0.1281  1.0193
 5539SOL    HW219510   5.015   1.164   8.529  1.4796 -0.9797  0.1521
 5540SOL     OW19511   7.343   1.092   3.671  0.0413  0.2261 -0.4402
 5540SOL    HW119512   7.317   1.177   3.704  0.0760  0.4993 -1.1000
 5540SOL    HW219513   7.297   1.083   3.587  1.1385  0.2166 -1.0568
 5541SOL     OW19514   2.186   5.846   5.745  0.0750 -0.0279 -0.1556
 5541SOL    HW119515   2.157   5.780   5.683  0.8904 -0.3034 -0.2568
 5541SOL    HW219516   2.174   5.929   5.699 -0.7041 -0.1164 -0.1256
 5542SOL     OW19517   7.093   2.297   0.661 -0.2367  0.0897 -0.0996
 5542SOL    HW119518   7.061   2.378   0.700  0.7683  0.3697  0.1898
 5542SOL    HW219519   7.114   2.320   0.571 -0.0416  0.1251 -0.0449
 5543SOL     OW19520   5.964   8.237   7.478  0.4382 -0.3822  0.1503
 5543SOL    HW119521   5.901   8.261   7.546  0.8692 -0.8659  0.7246
 5543SOL    HW219522   6.048   8.268   7.511  0.2957  1.9319 -1.4312
 5544SOL     OW19523   0.416   0.729   2.215 -0.1213  0.4309  0.0956
 5544SOL    HW119524   0.468   0.650   2.231 -0.5774  0.3003  0.9944
 5544SOL    HW219525   0.359   0.706   2.142  2.4483  1.2449 -2.3670
 5545SOL     OW19526   1.935   9.240   3.851  0.3875  0.1678 -0.1351
 5545SOL    HW119527   1.845   9.272   3.850  0.2148 -0.2526 -2.2937
 5545SOL    HW219528   1.989   9.318   3.867 -0.2585  0.7509 -0.7647
 5546SOL     OW19529   8.251   1.925   7.543 -0.4703 -0.4638 -0.8034
 5546SOL    HW119530   8.164   1.887   7.553 -0.3372 -0.4538  0.6017
 5546SOL    HW219531   8.275   1.953   7.631  0.5801  0.3728 -1.3315
 5547SOL     OW19532   0.184   2.837   3.625 -0.2698  0.2751  0.5171
 5547SOL    HW119533   0.267   2.797   3.648 -0.1082  0.2614 -0.0679
 5547SOL    HW219534   0.174   2.909   3.688  0.6917  0.9309 -0.0548
 5548SOL     OW19535   2.187   8.973   3.178 -0.0550  0.3665 -0.0465
 5548SOL    HW119536   2.246   8.925   3.119  0.1385  0.7377 -0.1543
 5548SOL    HW219537   2.238   9.047   3.208 -0.2306  0.2968  0.4250
 5549SOL     OW19538   3.166   4.273   7.413  0.2540 -0.1545 -0.2196
 5549SOL    HW119539   3.120   4.273   7.496  0.2291 -0.8402 -0.2231
 5549SOL    HW219540   3.220   4.194   7.415  0.6976  0.1282 -0.6127
 5550SOL     OW19541   6.816   4.352   7.125 -0.1210  0.0637  0.0223
 5550SOL    HW119542   6.791   4.444   7.125 -1.5484 -0.3025  0.2775
 5550SOL    HW219543   6.815   4.327   7.217 -0.8610 -0.4842 -0.1270
 5551SOL     OW19544   3.575   3.941   5.785  0.4699  0.0234  0.0697
 5551SOL    HW119545   3.623   3.863   5.758  0.3772  0.0764 -0.2425
 5551SOL    HW219546   3.623   4.014   5.745  0.5812  0.1309  0.3944
 5552SOL     OW19547   6.839   5.271   6.963 -0.1816  0.3648  0.2755
 5552SOL    HW119548   6.903   5.238   7.026  1.5892  1.2536 -0.9657
 5552SOL    HW219549   6.818   5.359   6.994 -0.5436  0.2130  0.4745
 5553SOL     OW19550   4.177   4.350   7.378  0.0990  0.6525  0.3251
 5553SOL    HW119551   4.125   4.343   7.458 -0.6992  1.8902 -0.0539
 5553SOL    HW219552   4.238   4.422   7.395 -0.3912  1.2406 -0.3249
 5554SOL     OW19553   4.861   5.770   4.152 -0.0529  0.0651  0.2647
 5554SOL    HW119554   4.850   5.699   4.088 -1.4775  0.0772  0.4789
 5554SOL    HW219555   4.924   5.829   4.111 -0.2195 -0.4036 -0.7031
 5555SOL     OW19556   0.420   5.505   2.988  0.3106 -0.1306 -0.2311
 5555SOL    HW119557   0.430   5.527   3.081  0.7785  0.7100 -0.4645
 5555SOL    HW219558   0.502   5.534   2.948 -0.4624  0.9175 -1.1433
 5556SOL     OW19559   6.997   8.914   6.130  0.0094  0.3257 -0.0907
 5556SOL    HW119560   7.080   8.878   6.160 -1.1550 -0.8993  1.9398
 5556SOL    HW219561   6.966   8.852   6.065  0.1746  0.1771 -0.0299
 5557SOL     OW19562   7.886   1.096   0.521 -0.6339  0.4172  0.0726
 5557SOL    HW119563   7.957   1.115   0.460  0.7400  1.7293  1.9565
 5557SOL    HW219564   7.851   1.012   0.491  0.4982  0.6088 -1.9865
 5558SOL     OW19565   6.462   5.506   1.138 -0.5115 -0.2991 -0.6609
 5558SOL    HW119566   6.428   5.467   1.219 -1.0779  2.4898  0.5545
 5558SOL    HW219567   6.405   5.470   1.069 -1.7866 -0.6580  0.5297
 5559SOL     OW19568   6.390   3.954   9.118 -0.0265  0.1998 -0.1223
 5559SOL    HW119569   6.383   3.876   9.063 -0.7030  0.7316 -0.8161
 5559SOL    HW219570   6.351   3.929   9.201  0.2208 -0.3527 -0.1670
 5560SOL     OW19571   9.008   5.466   5.524 -0.2059  0.1632 -0.2246
 5560SOL    HW119572   9.050   5.385   5.553 -1.5905 -0.3913  0.3083
 5560SOL    HW219573   8.951   5.440   5.452 -2.8645  0.0845  1.7821
 5561SOL     OW19574   7.273   6.252   6.995 -0.5444  0.3030 -0.3572
 5561SOL    HW119575   7.242   6.315   7.060  0.1503 -1.4589  1.8326
 5561SOL    HW219576   7.195   6.202   6.971 -0.5363 -0.0697  0.3677
 5562SOL     OW19577   5.072   2.550   1.833  0.0465 -0.5040  0.3615
 5562SOL    HW119578   5.037   2.591   1.754 -0.2072 -2.3802 -0.5503
 5562SOL    HW219579   5.166   2.567   1.828  0.3066 -2.1564 -1.3609
 5563SOL     OW19580   4.772   7.043   1.501  0.0181 -0.1357  0.5074
 5563SOL    HW119581   4.676   7.037   1.496 -0.1386  1.6604  0.7013
 5563SOL    HW219582   4.796   6.980   1.569 -1.1181 -0.0572  1.0060
 5564SOL     OW19583   1.931   8.065   5.797 -0.0008 -0.6038  0.2761
 5564SOL    HW119584   2.016   8.058   5.754 -0.9315 -0.6193 -1.6729
 5564SOL    HW219585   1.942   8.019   5.880  1.4587 -1.9099 -0.5925
 5565SOL     OW19586   6.246   4.752   5.285 -0.5272  0.1089 -0.2134
 5565SOL    HW119587   6.227   4.699   5.363 -4.8591  3.7408  1.6461
 5565SOL    HW219588   6.183   4.723   5.220 -0.0536  0.1973 -0.7214
 5566SOL     OW19589   6.610   4.923   6.189  0.2080 -0.0702  0.0866
 5566SOL    HW119590   6.529   4.954   6.229 -0.2242 -2.2335  0.9997
 5566SOL    HW219591   6.612   4.966   6.103 -2.2160 -0.3895 -0.1972
 5567SOL     OW19592   7.444   2.591   7.746 -0.2834  0.1331 -0.0242
 5567SOL    HW119593   7.436   2.514   7.803 -0.3304 -0.2739 -0.5740
 5567SOL    HW219594   7.505   2.564   7.677  0.2535  0.8266  0.1691
 5568SOL     OW19595   3.342   1.040   8.066  0.3925 -0.5685  0.3737
 5568SOL    HW119596   3.411   1.035   8.000 -0.1784  0.7585 -0.3669
 5568SOL    HW219597   3.358   1.122   8.111 -0.4953 -0.4072  0.4148
 5569SOL     OW19598   1.062   2.347   7.265  0.0156  0.1844 -0.0366
 5569SOL    HW119599   1.110   2.343   7.182 -0.4291 -0.1422 -0.2862
 5569SOL    HW219600   1.129   2.354   7.332  0.4415 -1.0420 -0.3203
 5570SOL     OW19601   0.260   1.271   8.855  0.1014 -0.3555  0.4447
 5570SOL    HW119602   0.178   1.282   8.903  0.0824 -1.5224  0.6947
 5570SOL    HW219603   0.272   1.354   8.809 -0.0662  0.6753  2.1672
 5571SOL     OW19604   0.086   6.175   3.745 -0.2919  0.3545  0.0417
 5571SOL    HW119605   0.178   6.198   3.760 -0.2688  1.8391 -1.8223
 5571SOL    HW219606   0.042   6.196   3.827  1.0384 -0.5129  1.0116
 5572SOL     OW19607   2.018   3.093   6.003  0.9878 -0.0226 -0.6432
 5572SOL    HW119608   2.032   3.002   6.029 -1.2302 -0.0637  0.6128
 5572SOL    HW219609   1.925   3.108   6.015  1.2699  2.4139 -0.9202
 5573SOL     OW19610   2.029   3.114   9.113 -0.1066 -0.2316 -0.2075
 5573SOL    HW119611   2.096   3.155   9.167 -0.7516  0.0009  0.4379
 5573SOL    HW219612   1.984   3.054   9.172  1.5448 -2.8143 -1.3897
 5574SOL     OW19613   8.757   2.513   7.801 -0.6262 -0.7444 -0.2615
 5574SOL    HW119614   8.747   2.433   7.750  0.9702 -2.0950  1.4018
 5574SOL    HW219615   8.675   2.520   7.851 -0.3418 -2.0337  0.4421
 5575SOL     OW19616   8.592   2.342   3.108  0.1777 -0.2435 -0.0754
 5575SOL    HW119617   8.637   2.310   3.029  2.2019 -0.2232  1.0171
 5575SOL    HW219618   8.518   2.393   3.074  0.4725 -0.9750 -1.9401
 5576SOL     OW19619   2.802   3.386   7.627 -0.1956 -0.6424  0.4023
 5576SOL    HW119620   2.746   3.309   7.636  0.1452 -1.2553 -2.0073
 5576SOL    HW219621   2.892   3.352   7.633 -0.0484 -0.2986  0.1985
 5577SOL     OW19622   3.108   0.704   3.694  0.6735  0.0589 -0.2482
 5577SOL    HW119623   3.031   0.671   3.647  1.5202 -0.1999 -1.5146
 5577SOL    HW219624   3.074   0.774   3.750 -0.5165 -0.2079 -0.6150
 5578SOL     OW19625   2.893   4.135   2.852  0.0020  0.4949  0.8224
 5578SOL    HW119626   2.874   4.093   2.768 -1.6709 -0.3038  1.5522
 5578SOL    HW219627   2.988   4.144   2.853 -0.0295  2.5727 -2.0879
 5579SOL     OW19628   6.582   4.224   5.038 -0.0681  0.3547  0.4238
 5579SOL    HW119629   6.658   4.234   4.980 -0.8144 -0.7729 -0.8063
 5579SOL    HW219630   6.615   4.250   5.124  0.4241  4.4346 -0.8047
 5580SOL     OW19631   2.304   3.149   1.042 -0.3038  0.3777 -0.6979
 5580SOL    HW119632   2.374   3.086   1.027  0.7632  1.4600 -0.3462
 5580SOL    HW219633   2.289   3.147   1.137 -0.6155  0.3063 -0.7454
 5581SOL     OW19634   1.454   3.840   6.596  0.3270 -0.0052  0.4994
 5581SOL    HW119635   1.372   3.877   6.629 -0.2519  0.9999 -1.8350
 5581SOL    HW219636   1.436   3.747   6.584 -0.5592  0.2454 -0.1904
 5582SOL     OW19637   4.869   3.929   8.751  0.1479 -0.0365 -0.1440
 5582SOL    HW119638   4.940   3.873   8.782  0.4425  0.6756  0.4734
 5582SOL    HW219639   4.897   3.959   8.665  0.6890  0.4048  0.1842
 5583SOL     OW19640   1.718   9.194   0.108  0.1578  0.2496  0.6843
 5583SOL    HW119641   1.771   9.218   0.184  1.1161  0.5234 -0.0474
 5583SOL    HW219642   1.676   9.275   0.081 -0.4182  0.0917  1.0894
 5584SOL     OW19643   3.220   8.098   6.398 -0.5909  0.2902 -0.0719
 5584SOL    HW119644   3.191   8.075   6.310  1.3416 -2.8524 -0.0369
 5584SOL    HW219645   3.314   8.116   6.388  0.0262 -1.7457  1.5193
 5585SOL     OW19646   0.389   1.862   1.642  0.3553  0.1856  0.1370
 5585SOL    HW119647   0.454   1.931   1.633 -1.1114  1.3315 -3.0525
 5585SOL    HW219648   0.341   1.884   1.722  2.7305  0.2307  1.6386
 5586SOL     OW19649   4.081   4.217   2.614  0.4591 -0.1195  0.1255
 5586SOL    HW119650   4.111   4.296   2.569 -0.7522 -0.2010 -0.8583
 5586SOL    HW219651   4.017   4.178   2.555  1.2449 -2.0120  0.4610
 5587SOL     OW19652   7.139   2.402   1.144  0.3371 -0.5308 -0.2133
 5587SOL    HW119653   7.170   2.319   1.109  0.5911 -1.4260  1.9389
 5587SOL    HW219654   7.182   2.409   1.230  2.0288  2.8792 -1.1715
 5588SOL     OW19655   0.750   3.855   6.868 -0.3255 -0.1332 -0.2788
 5588SOL    HW119656   0.828   3.806   6.841  0.5145  0.9037  0.2305
 5588SOL    HW219657   0.775   3.947   6.861 -1.3293  0.2102  0.4241
 5589SOL     OW19658   3.370   2.324   0.963  0.3015  0.2735  0.0034
 5589SOL    HW119659   3.292   2.365   0.927  0.5907  0.4331 -0.4593
 5589SOL    HW219660   3.437   2.338   0.896  0.5323 -0.5203  0.0553
 5590SOL     OW19661   7.068   6.139   2.775 -0.6181 -0.6352  0.1550
 5590SOL    HW119662   7.144   6.085   2.796 -0.9116 -1.2618 -0.3802
 5590SOL    HW219663   7.013   6.084   2.720 -1.0756  0.0963 -0.1427
 5591SOL     OW19664   2.443   1.583   5.654  0.1640 -0.2628  0.8326
 5591SOL    HW119665   2.364   1.634   5.672  0.8369  0.7015  1.1611
 5591SOL    HW219666   2.506   1.614   5.719  1.5077  0.6109 -0.8200
 5592SOL     OW19667   3.767   7.958   4.181  0.2676 -0.1192 -0.1810
 5592SOL    HW119668   3.736   7.960   4.271  1.8433 -0.0701  0.3966
 5592SOL    HW219669   3.863   7.966   4.188  0.7067 -2.9032 -1.6915
 5593SOL     OW19670   0.188   2.085   7.455 -0.7666  0.0194 -0.7773
 5593SOL    HW119671   0.249   2.121   7.519 -1.3798 -0.3326  0.0331
 5593SOL    HW219672   0.240   2.023   7.403 -0.0599  0.9548 -1.2052
 5594SOL     OW19673   2.728   6.548   8.342 -0.1192 -0.3250  0.0482
 5594SOL    HW119674   2.723   6.495   8.263  1.7196  0.5470 -0.7058
 5594SOL    HW219675   2.765   6.631   8.313  0.1873  0.1764  1.7510
 5595SOL     OW19676   2.977   9.098   8.483  0.7198  0.2938 -0.3081
 5595SOL    HW119677   2.908   9.044   8.524  1.8886 -1.2570 -0.2934
 5595SOL    HW219678   3.044   9.107   8.551  1.1695  0.5668 -0.7818
 5596SOL     OW19679   8.693   3.680   8.760 -0.0425  0.1038  0.1936
 5596SOL    HW119680   8.622   3.623   8.729 -0.6169  1.0606 -0.3002
 5596SOL    HW219681   8.656   3.769   8.756  0.5834  0.4652  1.6152
 5597SOL     OW19682   1.528   7.566   5.486 -0.2742 -0.0345  0.1498
 5597SOL    HW119683   1.574   7.512   5.422  1.4581 -0.2875  1.5215
 5597SOL    HW219684   1.478   7.629   5.434  1.0246 -0.2455 -1.4331
 5598SOL     OW19685   5.759   7.097   0.733  0.2910  0.6741  0.4582
 5598SOL    HW119686   5.820   7.169   0.751  0.0657  1.0248 -0.1486
 5598SOL    HW219687   5.814   7.024   0.706  0.4395  1.0412 -0.2521
 5599SOL     OW19688   4.834   6.146   1.327 -0.2200 -0.2078  0.2753
 5599SOL    HW119689   4.760   6.085   1.319 -0.8517  0.6365 -0.5874
 5599SOL    HW219690   4.795   6.232   1.312  0.9340  0.2575 -0.1323
 5600SOL     OW19691   0.095   0.974   7.024 -0.0431  0.0012 -0.4021
 5600SOL    HW119692   0.068   0.964   6.933  2.2563 -0.6381 -1.1049
 5600SOL    HW219693   0.134   1.061   7.028  0.4249 -0.2110 -0.2074
 5601SOL     OW19694   8.974   2.825   1.734  0.1373 -0.6125 -0.3451
 5601SOL    HW119695   8.951   2.797   1.822  0.7282 -0.9806 -0.3032
 5601SOL    HW219696   8.912   2.895   1.714  2.0488  1.8364  1.6578
 5602SOL     OW19697   1.732   1.910   4.057 -0.0354 -0.1534  0.6501
 5602SOL    HW119698   1.679   1.907   4.137  1.4483  0.8858  1.7396
 5602SOL    HW219699   1.691   1.977   4.003 -1.1242 -0.9468  0.4656
 5603SOL     OW19700   7.853   4.452   8.997 -0.2542 -0.2895  0.2027
 5603SOL    HW119701   7.882   4.522   8.938  0.1479 -0.8050 -0.2282
 5603SOL    HW219702   7.771   4.420   8.959 -0.5725  0.1243  0.5453
 5604SOL     OW19703   8.993   8.739   2.640 -0.0070  0.0042  0.6621
 5604SOL    HW119704   9.071   8.685   2.652  0.0781 -0.0229  0.0209
 5604SOL    HW219705   8.996   8.801   2.713 -0.3106 -1.0795  1.6345
 5605SOL     OW19706   4.577   4.693   2.015 -0.1548 -0.2165 -0.2857
 5605SOL    HW119707   4.642   4.757   2.045  0.8579 -1.1946 -0.3204
 5605SOL    HW219708   4.586   4.620   2.076 -0.8039 -0.6185 -0.6645
 5606SOL     OW19709   6.612   6.643   6.491 -0.8673  0.1741 -0.1601
 5606SOL    HW119710   6.682   6.582   6.514 -2.1175 -0.7922  1.2660
 5606SOL    HW219711   6.600   6.696   6.570  0.0602  2.2126 -1.2972
 5607SOL     OW19712   2.582   7.736   4.240 -0.3755  0.7439  0.3356
 5607SOL    HW119713   2.518   7.805   4.256  1.4378  2.3371  1.0776
 5607SOL    HW219714   2.617   7.714   4.327  1.1021  0.9553 -0.1697
 5608SOL     OW19715   0.930   8.330   8.000  0.8224 -0.0077 -0.0188
 5608SOL    HW119716   1.003   8.392   7.999 -0.0558  1.0408 -0.8718
 5608SOL    HW219717   0.864   8.369   7.943 -0.2093 -1.1873  0.3248
 5609SOL     OW19718   3.224   3.386   4.999  0.3875 -0.4414  0.5747
 5609SOL    HW119719   3.287   3.457   4.982  0.5333 -0.5541  0.6347
 5609SOL    HW219720   3.164   3.423   5.063 -1.0599  0.5058 -1.2420
 5610SOL     OW19721   4.245   0.436   2.705 -0.0257  0.3657 -0.3454
 5610SOL    HW119722   4.313   0.393   2.756 -2.3839 -0.5215  2.3106
 5610SOL    HW219723   4.224   0.374   2.635  2.0212  0.8056 -1.4094
 5611SOL     OW19724   5.427   5.373   1.351 -0.1581  0.1826  0.3178
 5611SOL    HW119725   5.370   5.313   1.399  1.8419 -1.8955  0.2516
 5611SOL    HW219726   5.381   5.389   1.268 -1.6825  0.4271  1.1800
 5612SOL     OW19727   8.585   4.406   1.494 -0.1460 -0.0203  0.6860
 5612SOL    HW119728   8.631   4.486   1.522 -1.3207  0.3836  1.5851
 5612SOL    HW219729   8.650   4.336   1.504  0.7669  0.7543  0.3232
 5613SOL     OW19730   6.834   3.656   0.152 -0.7680 -0.4174  0.3681
 5613SOL    HW119731   6.777   3.605   0.208 -0.7008 -1.7043 -0.6788
 5613SOL    HW219732   6.920   3.615   0.162 -0.3924  0.4185  0.6222
 5614SOL     OW19733   1.152   2.979   9.138  0.0917  0.1949 -0.1406
 5614SOL    HW119734   1.192   2.966   9.052  0.3851 -1.0772  0.1729
 5614SOL    HW219735   1.218   3.030   9.187  0.7679 -0.7382 -0.0571
 5615SOL     OW19736   2.568   5.527   1.101  0.1613 -0.1538  0.4117
 5615SOL    HW119737   2.564   5.435   1.076 -0.2148 -0.3937  1.3291
 5615SOL    HW219738   2.610   5.528   1.187  0.6702  0.5816  0.1691
 5616SOL     OW19739   6.053   3.820   8.550 -0.4931 -0.3515  0.1671
 5616SOL    HW119740   6.039   3.878   8.625 -0.8031  0.3795 -0.4423
 5616SOL    HW219741   6.096   3.743   8.587 -0.8321 -0.0945  1.1290
 5617SOL     OW19742   3.220   6.926   9.237  0.0874  0.1847  0.1624
 5617SOL    HW119743   3.166   6.941   9.160 -0.1010  2.4334  0.6588
 5617SOL    HW219744   3.290   6.868   9.207 -0.3742  0.4408 -1.4881
 5618SOL     OW19745   5.555   4.542   1.504  0.3559 -0.6881  0.0879
 5618SOL    HW119746   5.553   4.495   1.587 -0.1921 -0.3326  0.2755
 5618SOL    HW219747   5.467   4.531   1.467  0.7773 -1.3995 -0.7646
 5619SOL     OW19748   4.419   8.459   7.160 -0.2340 -0.0815 -0.7904
 5619SOL    HW119749   4.493   8.410   7.196  0.4059  1.8359  0.6075
 5619SOL    HW219750   4.353   8.391   7.143  0.6525 -1.4693  0.9326
 5620SOL     OW19751   7.059   1.301   7.091 -0.1000  0.4874 -0.4296
 5620SOL    HW119752   7.082   1.273   7.179  1.5255  4.2947  0.5435
 5620SOL    HW219753   6.970   1.335   7.098 -0.4015 -0.2552 -0.5664
 5621SOL     OW19754   0.691   2.737   8.352  0.6945  0.1604 -0.4059
 5621SOL    HW119755   0.608   2.783   8.364  0.6330  0.0008 -0.2298
 5621SOL    HW219756   0.754   2.784   8.407  0.3414 -0.7756  0.8380
 5622SOL     OW19757   0.548   0.936   4.261 -0.2613 -0.1793  0.0655
 5622SOL    HW119758   0.528   0.861   4.205 -1.2736 -1.5626  2.1346
 5622SOL    HW219759   0.469   0.948   4.314  0.2738  1.6950  0.5201
 5623SOL     OW19760   2.634   0.755   2.086  0.5786  0.2416 -0.3748
 5623SOL    HW119761   2.579   0.796   2.152  1.2733  0.1962  0.2515
 5623SOL    HW219762   2.710   0.722   2.135  1.4634  0.8394 -1.2904
 5624SOL     OW19763   0.862   2.842   4.095  0.9393  0.6189 -0.1647
 5624SOL    HW119764   0.769   2.852   4.118  0.6434 -1.7774 -0.0512
 5624SOL    HW219765   0.875   2.905   4.023 -0.6078  1.3932  0.1692
 5625SOL     OW19766   3.458   0.664   1.449  0.0574 -0.0014 -0.1094
 5625SOL    HW119767   3.432   0.691   1.360 -1.0971 -0.9821 -0.0988
 5625SOL    HW219768   3.536   0.716   1.468  0.8231 -0.3519 -2.0180
 5626SOL     OW19769   5.814   7.852   8.019  0.2135 -0.2478 -0.0131
 5626SOL    HW119770   5.852   7.774   8.060  0.5841  0.2413  0.5879
 5626SOL    HW219771   5.810   7.830   7.925 -2.8839 -2.3420  0.4318
 5627SOL     OW19772   0.548   4.527   4.787 -0.2438  0.5532 -0.1313
 5627SOL    HW119773   0.638   4.499   4.770 -0.4108 -0.1333  0.0811
 5627SOL    HW219774   0.500   4.446   4.800 -0.6448  0.9507  1.0139
 5628SOL     OW19775   1.818   6.776   7.398  0.3829  0.0316 -0.2622
 5628SOL    HW119776   1.783   6.863   7.374 -1.4740 -1.1644 -2.3272
 5628SOL    HW219777   1.905   6.774   7.357  1.0834  1.4097  1.0619
 5629SOL     OW19778   4.357   4.458   0.192  0.3647 -0.4078  0.4633
 5629SOL    HW119779   4.389   4.412   0.115  1.0299  0.0670  0.4451
 5629SOL    HW219780   4.262   4.451   0.187  0.3988 -0.3385 -0.4240
 5630SOL     OW19781   6.429   7.085   1.464 -1.0050  0.0903  0.5813
 5630SOL    HW119782   6.364   7.100   1.395 -1.7156 -1.1683  0.9558
 5630SOL    HW219783   6.506   7.132   1.433 -2.3145  2.3758  0.5424
 5631SOL     OW19784   0.749   1.990   7.006  0.2430  0.0235  0.3772
 5631SOL    HW119785   0.730   1.974   7.098 -0.3902  0.7022  0.3664
 5631SOL    HW219786   0.666   1.975   6.961  0.6933 -0.9304 -0.1766
 5632SOL     OW19787   6.088   8.862   5.305 -0.0306  0.2519 -0.1186
 5632SOL    HW119788   5.994   8.864   5.322 -0.5791 -0.1140 -2.7263
 5632SOL    HW219789   6.114   8.773   5.327 -1.0456 -0.7279 -2.6231
 5633SOL     OW19790   0.281   8.358   4.011  0.4097 -0.8742 -0.2066
 5633SOL    HW119791   0.196   8.350   3.968  0.2463 -1.6697  0.2586
 5633SOL    HW219792   0.313   8.444   3.983 -1.4770  0.3999  1.2666
 5634SOL     OW19793   2.687   4.334   6.637  0.2854 -0.6882  0.5314
 5634SOL    HW119794   2.622   4.287   6.690  0.7107 -0.5990  1.1497
 5634SOL    HW219795   2.771   4.302   6.670  0.5673 -0.1426  0.3477
 5635SOL     OW19796   4.805   7.202   3.086  0.0175  0.4830 -0.2764
 5635SOL    HW119797   4.712   7.199   3.061  0.2549 -0.9331 -1.1204
 5635SOL    HW219798   4.852   7.195   3.003  0.8576 -2.2291  0.3411
 5636SOL     OW19799   6.778   2.404   2.726 -0.2213  0.2715 -0.3418
 5636SOL    HW119800   6.801   2.439   2.812 -0.8379 -0.3854  0.0953
 5636SOL    HW219801   6.854   2.352   2.700  1.8308  3.7483 -2.0960
 5637SOL     OW19802   5.299   5.761   7.910  0.2159 -0.0134  0.4611
 5637SOL    HW119803   5.263   5.792   7.827 -1.3103  1.1708  1.4978
 5637SOL    HW219804   5.271   5.670   7.916  0.3611 -0.1143 -0.3283
 5638SOL     OW19805   0.131   8.713   1.965  0.0675 -0.4434 -0.8069
 5638SOL    HW119806   0.046   8.755   1.962  0.3873  0.2913  0.1241
 5638SOL    HW219807   0.175   8.742   1.885  0.3629  1.1910 -0.0863
 5639SOL     OW19808   0.937   2.462   6.712 -0.6663 -0.0392  0.2370
 5639SOL    HW119809   0.846   2.457   6.740 -0.4723 -0.0953  0.8952
 5639SOL    HW219810   0.937   2.521   6.637 -1.5281 -1.6120 -1.0532
 5640SOL     OW19811   2.239   4.000   1.393 -0.4811  0.3692  0.7922
 5640SOL    HW119812   2.226   4.001   1.298  0.4497 -0.4259  0.6513
 5640SOL    HW219813   2.222   4.090   1.420 -1.3329  0.4785 -0.0383
 5641SOL     OW19814   7.198   5.471   8.816 -0.5641  0.0795 -0.8816
 5641SOL    HW119815   7.140   5.421   8.874 -0.9954 -1.6669 -2.7271
 5641SOL    HW219816   7.272   5.495   8.872  0.4701 -4.0138 -0.1091
 5642SOL     OW19817   6.751   6.212   3.774 -0.2940  0.1002  0.1295
 5642SOL    HW119818   6.761   6.193   3.867 -1.4838 -1.3768 -0.0019
 5642SOL    HW219819   6.671   6.167   3.749 -0.9211  1.8697 -1.2561
 5643SOL     OW19820   0.265   6.641   2.548 -0.3798 -0.0345  0.7205
 5643SOL    HW119821   0.180   6.656   2.506  0.0150 -1.5151 -0.7153
 5643SOL    HW219822   0.246   6.582   2.621 -0.3521 -2.4535 -1.0970
 5644SOL     OW19823   5.630   3.017   8.814  0.5360 -0.2943  0.1340
 5644SOL    HW119824   5.543   2.998   8.848 -1.3202  2.2492 -2.6898
 5644SOL    HW219825   5.689   2.964   8.867 -2.6432 -1.7074  2.5456
 5645SOL     OW19826   5.272   0.168   6.464  0.1659  0.1040 -0.0438
 5645SOL    HW119827   5.202   0.193   6.523 -0.1318 -1.8054  0.4747
 5645SOL    HW219828   5.277   0.240   6.401 -0.2434  1.6613  1.6345
 5646SOL     OW19829   3.410   7.754   4.650 -0.3136 -0.0622 -0.1238
 5646SOL    HW119830   3.331   7.743   4.597  0.1776  0.6579 -1.0437
 5646SOL    HW219831   3.481   7.758   4.586  0.3848  0.1200  0.6409
 5647SOL     OW19832   2.504   4.640   5.979  0.0482  0.2358 -0.2307
 5647SOL    HW119833   2.539   4.599   5.901  1.1874  0.5851  0.0819
 5647SOL    HW219834   2.450   4.712   5.946 -2.4501 -1.7599 -0.8059
 5648SOL     OW19835   1.653   2.373   7.871 -0.2570 -0.0635 -0.0079
 5648SOL    HW119836   1.742   2.379   7.906 -0.3202  0.2211  0.1095
 5648SOL    HW219837   1.601   2.342   7.945 -0.1259 -0.9691 -0.2927
 5649SOL     OW19838   6.145   7.124   3.343  0.0744  0.1974 -1.3180
 5649SOL    HW119839   6.123   7.169   3.425 -1.2771  0.1512 -1.6267
 5649SOL    HW219840   6.072   7.145   3.284  0.0765 -1.2986 -1.8974
 5650SOL     OW19841   5.892   3.460   7.820  0.5224  0.6260  0.2079
 5650SOL    HW119842   5.897   3.451   7.915 -0.1851 -1.5106  0.1080
 5650SOL    HW219843   5.952   3.393   7.786 -2.5521 -1.8885 -0.7763
 5651SOL     OW19844   1.101   2.801   5.942 -0.1815  0.3636 -0.1420
 5651SOL    HW119845   1.013   2.793   5.978 -0.7102 -0.6490 -1.5544
 5651SOL    HW219846   1.126   2.892   5.959 -1.0416  0.3690  1.2466
 5652SOL     OW19847   1.262   2.811   2.604 -0.9436 -0.5230  0.5566
 5652SOL    HW119848   1.318   2.801   2.681 -0.3863  1.5018  0.4648
 5652SOL    HW219849   1.240   2.721   2.579  2.1049 -1.4199  0.7154
 5653SOL     OW19850   5.882   1.985   1.112 -0.3477 -0.1588 -0.0030
 5653SOL    HW119851   5.925   2.002   1.029  0.5311 -1.9477  0.0581
 5653SOL    HW219852   5.791   1.966   1.088 -0.3527  0.3559 -0.4297
 5654SOL     OW19853   0.268   6.611   4.740  0.1167 -0.4374  0.1090
 5654SOL    HW119854   0.321   6.651   4.809 -0.2995 -1.4647  1.0644
 5654SOL    HW219855   0.327   6.550   4.696  0.4778  0.4667 -0.6986
 5655SOL     OW19856   6.992   8.760   7.266  0.2056 -0.0371 -0.1046
 5655SOL    HW119857   7.078   8.757   7.307  1.0003  1.9318 -1.4632
 5655SOL    HW219858   6.931   8.738   7.337  1.7114  0.0505  1.2779
 5656SOL     OW19859   8.850   6.900   2.118  0.1759 -0.5972 -0.5216
 5656SOL    HW119860   8.935   6.857   2.117 -0.6204 -2.3708  1.3468
 5656SOL    HW219861   8.807   6.869   2.038  0.7448 -0.8183 -0.7520
 5657SOL     OW19862   4.618   6.479   4.687  0.0368  0.0549 -0.3770
 5657SOL    HW119863   4.565   6.476   4.766 -1.2964 -0.2499 -1.2496
 5657SOL    HW219864   4.578   6.549   4.634  0.1702 -0.5372 -1.2788
 5658SOL     OW19865   0.942   2.593   4.982  0.0842  0.0434 -0.4581
 5658SOL    HW119866   0.848   2.592   5.000  0.3448  0.1874  1.0642
 5658SOL    HW219867   0.958   2.680   4.944 -0.2259  0.4613  0.3464
 5659SOL     OW19868   3.597   3.170   1.521  0.1080  0.1105 -0.5499
 5659SOL    HW119869   3.506   3.143   1.527  0.7314 -2.1159 -0.3820
 5659SOL    HW219870   3.626   3.179   1.612  0.1827  0.4029 -0.6001
 5660SOL     OW19871   1.538   0.974   1.223 -0.2547 -0.6290  0.0107
 5660SOL    HW119872   1.555   0.969   1.129  1.8607 -2.7637  0.4293
 5660SOL    HW219873   1.617   1.015   1.259 -0.8200 -0.3333  0.9286
 5661SOL     OW19874   5.232   4.591   8.473  0.9031  0.1658  0.0657
 5661SOL    HW119875   5.322   4.571   8.447  0.6645 -1.9223  0.6170
 5661SOL    HW219876   5.239   4.616   8.565  0.8703 -0.7914  0.3432
 5662SOL     OW19877   0.831   3.216   4.615 -0.1178  0.2813 -0.3158
 5662SOL    HW119878   0.803   3.127   4.638  1.0709 -0.4754 -1.6518
 5662SOL    HW219879   0.916   3.226   4.658 -0.4595  0.9512  0.2107
 5663SOL     OW19880   5.526   6.570   1.728 -0.3298 -0.4945  0.3068
 5663SOL    HW119881   5.617   6.597   1.726 -1.0585  2.2660  0.4717
 5663SOL    HW219882   5.476   6.652   1.722 -2.8125 -1.9934 -1.5687
 5664SOL     OW19883   5.868   3.130   8.765 -0.1005 -0.9738 -0.3232
 5664SOL    HW119884   5.924   3.090   8.831  0.0656 -0.4420 -0.1333
 5664SOL    HW219885   5.780   3.099   8.786  0.2095 -2.4793 -1.1239
 5665SOL     OW19886   1.353   0.009   1.000  0.0053 -0.5952  0.6166
 5665SOL    HW119887   1.444  -0.013   0.980 -0.3968 -0.2540 -1.8843
 5665SOL    HW219888   1.306  -0.073   0.987 -0.2614 -0.4014  0.3667
 5666SOL     OW19889   6.801   7.722   6.752 -0.2340  0.1963  0.6277
 5666SOL    HW119890   6.863   7.714   6.679  0.7484 -0.2883  1.4811
 5666SOL    HW219891   6.822   7.648   6.809 -0.5786  0.8890  1.6946
 5667SOL     OW19892   4.345   5.865   7.961 -0.0684 -0.0902 -0.6964
 5667SOL    HW119893   4.250   5.864   7.954 -0.1326  0.4177 -0.0200
 5667SOL    HW219894   4.374   5.797   7.901 -0.8629 -0.3289 -0.8250
 5668SOL     OW19895   7.305   3.977   1.655  0.2494  0.3782  0.2488
 5668SOL    HW119896   7.280   3.922   1.581  1.4509 -2.4145  1.7583
 5668SOL    HW219897   7.399   3.991   1.644  0.1769  1.1306  0.5225
 5669SOL     OW19898   6.539   3.161   6.061  0.0580 -0.4226  0.1235
 5669SOL    HW119899   6.607   3.221   6.091 -0.9654 -0.6179  3.2111
 5669SOL    HW219900   6.572   3.074   6.081 -0.6853 -0.5731  0.7350
 5670SOL     OW19901   5.265   4.902   8.855 -0.1047 -0.0786  0.2507
 5670SOL    HW119902   5.226   4.880   8.771 -1.7537  1.1171  0.6684
 5670SOL    HW219903   5.302   4.819   8.886  0.0069 -0.6707 -1.3457
 5671SOL     OW19904   0.547   7.036   5.525 -0.2524 -0.3102  0.2317
 5671SOL    HW119905   0.545   6.945   5.555 -1.4682 -0.4932 -0.3374
 5671SOL    HW219906   0.623   7.074   5.569 -0.9654 -1.0156  2.1914
 5672SOL     OW19907   2.950   8.061   8.921  0.2104  0.1102 -0.0476
 5672SOL    HW119908   2.916   8.145   8.889 -0.4107  0.0889  0.5296
 5672SOL    HW219909   3.034   8.051   8.878  0.7375  1.4999  0.5940
 5673SOL     OW19910   2.644   4.974   1.614  0.2856 -0.2955  0.2137
 5673SOL    HW119911   2.729   4.934   1.592 -0.0033 -1.2374  0.7551
 5673SOL    HW219912   2.580   4.908   1.588 -0.2145 -0.1035  0.9369
 5674SOL     OW19913   5.646   8.537   0.108 -0.0266  0.5041 -0.2879
 5674SOL    HW119914   5.739   8.521   0.092  0.3904 -0.3175  2.4048
 5674SOL    HW219915   5.609   8.450   0.126 -1.4789  0.7496 -1.7866
 5675SOL     OW19916   5.829   0.057   8.794  0.0876 -0.8015 -0.4822
 5675SOL    HW119917   5.864   0.090   8.877  0.5933  1.3130 -1.4674
 5675SOL    HW219918   5.906   0.020   8.750  0.3733  0.4597 -1.0797
 5676SOL     OW19919   6.796   4.576   3.260  0.2114  0.8810  0.7265
 5676SOL    HW119920   6.739   4.514   3.214  0.0510  0.7890  1.0446
 5676SOL    HW219921   6.838   4.524   3.329  0.1178  1.1125  0.9602
 5677SOL     OW19922   8.393   0.678   8.486 -0.2875 -0.6852  0.4426
 5677SOL    HW119923   8.459   0.747   8.500 -0.5564 -0.1555 -0.8054
 5677SOL    HW219924   8.422   0.606   8.542  0.0683  0.3917  1.7019
 5678SOL     OW19925   0.938   8.879   3.328 -0.2485  0.4093 -0.8334
 5678SOL    HW119926   0.857   8.891   3.379  0.4840 -0.5167  0.6393
 5678SOL    HW219927   1.008   8.899   3.390  0.6818 -0.2977 -1.6334
 5679SOL     OW19928   0.363   6.230   5.860  0.1168 -0.2981 -0.5985
 5679SOL    HW119929   0.417   6.152   5.870  1.4914  0.5202 -1.4279
 5679SOL    HW219930   0.423   6.299   5.831 -1.0542  1.0891  0.0988
 5680SOL     OW19931   0.697   8.634   0.219 -0.2572  0.0414 -0.0808
 5680SOL    HW119932   0.755   8.647   0.293  0.4318 -1.2637 -0.3553
 5680SOL    HW219933   0.611   8.663   0.249  0.0659 -0.2357  1.1293
 5681SOL     OW19934   7.040   4.989   1.185  0.6358  0.1854  0.0274
 5681SOL    HW119935   7.005   4.970   1.098  2.2794  0.9058 -0.8307
 5681SOL    HW219936   6.962   4.994   1.242 -0.3999 -1.2735 -1.1800
 5682SOL     OW19937   2.228   1.583   7.888 -0.6968  0.1048 -0.4433
 5682SOL    HW119938   2.242   1.498   7.930  1.3394 -0.0374 -1.2871
 5682SOL    HW219939   2.165   1.627   7.944 -1.1328 -1.6183  0.5052
 5683SOL     OW19940   8.237   3.392   3.607  0.4101  0.0147 -0.5663
 5683SOL    HW119941   8.315   3.357   3.650  1.1891  1.7727 -0.4547
 5683SOL    HW219942   8.257   3.485   3.594 -1.1984  0.2437 -1.6205
 5684SOL     OW19943   8.781   8.694   3.365 -0.1257 -0.5947 -0.0221
 5684SOL    HW119944   8.849   8.682   3.431 -0.1527 -0.6581 -0.0068
 5684SOL    HW219945   8.829   8.714   3.285 -0.0700 -1.1768 -0.1359
 5685SOL     OW19946   0.251   1.842   0.606 -0.4594 -0.6285 -0.1749
 5685SOL    HW119947   0.210   1.756   0.596 -2.0225  0.1596 -0.7693
 5685SOL    HW219948   0.205   1.882   0.680  1.3233 -0.8678  1.1356
 5686SOL     OW19949   0.191   8.603   3.261 -0.0964 -0.4835  0.2631
 5686SOL    HW119950   0.285   8.584   3.251  0.3362  1.3474  0.4210
 5686SOL    HW219951   0.187   8.661   3.337 -1.2824 -0.0039 -0.1480
 5687SOL     OW19952   0.525   6.757   0.792 -0.3333  0.0791  0.0638
 5687SOL    HW119953   0.557   6.838   0.751  0.5556 -0.5482 -0.5317
 5687SOL    HW219954   0.593   6.735   0.856  0.0023 -0.8054 -0.5858
 5688SOL     OW19955   1.281   8.108   3.029 -0.2103 -0.1069  0.1803
 5688SOL    HW119956   1.288   8.014   3.009  0.0441  0.0829 -0.6821
 5688SOL    HW219957   1.370   8.135   3.050  0.1947  0.4238 -1.9473
 5689SOL     OW19958   6.213   7.806   2.638  0.0961  0.5692 -0.1729
 5689SOL    HW119959   6.218   7.901   2.635  0.3028  0.5845  0.4625
 5689SOL    HW219960   6.239   7.783   2.727  0.4596 -0.1055 -0.4408
 5690SOL     OW19961   7.114   8.100   9.203  0.5989 -0.1295  0.2362
 5690SOL    HW119962   7.119   8.093   9.299  2.0455 -0.5512  0.1467
 5690SOL    HW219963   7.205   8.107   9.175  0.1536  0.7203 -1.0743
 5691SOL     OW19964   5.410   0.826   3.524 -0.1338  0.1486  1.0048
 5691SOL    HW119965   5.441   0.910   3.489 -1.4471  0.2401 -0.0273
 5691SOL    HW219966   5.315   0.829   3.512 -0.2758 -1.1747  1.6704
 5692SOL     OW19967   4.937   1.565   4.276  0.2726  0.1947  0.8865
 5692SOL    HW119968   5.005   1.521   4.327  0.4062 -0.6895 -0.0101
 5692SOL    HW219969   4.858   1.514   4.294  0.5191 -0.7341 -0.5021
 5693SOL     OW19970   5.399   3.490   5.223  1.0508  0.2666 -0.5844
 5693SOL    HW119971   5.377   3.397   5.225  1.8268  0.0847  0.2452
 5693SOL    HW219972   5.318   3.535   5.248  1.1642 -0.2986  0.9016
 5694SOL     OW19973   8.126   6.332   5.548  0.1709  0.8259 -0.1780
 5694SOL    HW119974   8.077   6.259   5.587  0.5222  0.9310  0.4818
 5694SOL    HW219975   8.069   6.366   5.480 -0.0102 -0.0507 -0.4733
 5695SOL     OW19976   4.495   8.596   4.605 -0.1835  0.1649 -0.3379
 5695SOL    HW119977   4.506   8.501   4.608  0.3466  0.2272 -0.1574
 5695SOL    HW219978   4.546   8.624   4.529 -2.1814  0.0798 -1.7784
 5696SOL     OW19979   5.729   1.867   8.386 -0.0687  0.0869 -0.1145
 5696SOL    HW119980   5.696   1.782   8.413 -1.0788  1.3527  3.1760
 5696SOL    HW219981   5.817   1.872   8.424 -0.9142  1.3234  1.8341
 5697SOL     OW19982   6.343   9.106   1.966  0.0923 -0.3083  0.7384
 5697SOL    HW119983   6.319   9.064   1.884  0.3846  0.5415  0.2039
 5697SOL    HW219984   6.289   9.062   2.032 -0.9555 -0.2624 -0.0596
 5698SOL     OW19985   3.719   5.188   6.047 -0.2704  0.6875 -0.9211
 5698SOL    HW119986   3.784   5.169   6.115 -1.6479 -2.3306 -0.2820
 5698SOL    HW219987   3.771   5.209   5.969  1.5988 -1.9414 -0.5313
 5699SOL     OW19988   3.023   3.277   6.843  0.0254 -0.3586  0.3768
 5699SOL    HW119989   3.036   3.370   6.826 -2.6026  0.6815  3.1168
 5699SOL    HW219990   2.973   3.245   6.768  1.2947  0.2798 -0.7806
 5700SOL     OW19991   8.405   1.484   5.265  0.8923 -0.4934  0.5325
 5700SOL    HW119992   8.383   1.543   5.193  2.3446  0.9689  1.2325
 5700SOL    HW219993   8.403   1.397   5.226 -2.1116 -0.1542 -0.3425
 5701SOL     OW19994   6.750   2.804   3.787 -0.9004 -0.7410 -0.5322
 5701SOL    HW119995   6.706   2.723   3.814  1.2346 -0.7472  3.6864
 5701SOL    HW219996   6.720   2.870   3.849  2.7877 -0.1732  0.8978
 5702SOL     OW19997   3.118   4.028   0.419 -0.5891 -0.3513  0.7559
 5702SOL    HW119998   3.164   3.984   0.490  0.4002 -2.0333 -0.8190
 5702SOL    HW219999   3.173   4.104   0.398  0.3843 -1.1495  0.3018
 5703SOL     OW20000   4.002   2.074   1.297  0.1171  0.4974 -0.1707
 5703SOL    HW120001   3.966   2.163   1.300  1.3604  1.0473 -1.0589
 5703SOL    HW220002   4.046   2.064   1.382 -1.4322  0.0701  0.6384
 5704SOL     OW20003   2.608   2.578   2.412  0.4226  0.1971  0.7265
 5704SOL    HW120004   2.591   2.562   2.319  1.5521  0.2926  0.4929
 5704SOL    HW220005   2.574   2.667   2.427  0.7650  0.4152  0.2579
 5705SOL     OW20006   5.585   6.070   4.977  0.2791  0.3563  0.0713
 5705SOL    HW120007   5.573   6.085   5.070  2.1556 -1.8092  0.7340
 5705SOL    HW220008   5.577   5.976   4.965  0.6816  0.5056 -1.8481
 5706SOL     OW20009   2.336   5.434   1.273  0.0929  0.2528  0.4908
 5706SOL    HW120010   2.273   5.503   1.252 -0.6276 -0.6456 -0.4134
 5706SOL    HW220011   2.305   5.398   1.355 -1.4536 -1.1121 -0.6261
 5707SOL     OW20012   2.990   0.045   0.701 -0.1373 -0.2855 -0.4763
 5707SOL    HW120013   3.011  -0.028   0.641 -0.3433 -3.1090  2.5992
 5707SOL    HW220014   3.073   0.063   0.745 -0.3785  0.5429 -0.3598
 5708SOL     OW20015   6.888   0.745   9.204 -0.1017  0.2111 -0.3335
 5708SOL    HW120016   6.808   0.699   9.178 -1.8132  2.3617  0.8309
 5708SOL    HW220017   6.906   0.715   9.293  0.0671  0.1979 -0.3700
 5709SOL     OW20018   0.864   0.090   2.631  0.0858 -0.0637 -0.4788
 5709SOL    HW120019   0.934   0.107   2.567  0.0111  0.6039 -0.3928
 5709SOL    HW220020   0.906   0.038   2.699  0.5196  0.3743 -0.4057
 5710SOL     OW20021   3.546   2.557   7.675 -0.1481 -0.0488  0.2656
 5710SOL    HW120022   3.502   2.632   7.635 -1.6623 -0.7684  0.4977
 5710SOL    HW220023   3.630   2.591   7.706  1.3525  0.5045 -3.8194
 5711SOL     OW20024   8.798   6.222   8.296 -0.7427  0.5131  0.5161
 5711SOL    HW120025   8.711   6.257   8.316 -0.6138  1.3542 -0.3410
 5711SOL    HW220026   8.797   6.210   8.201 -0.1969 -0.2513  0.6001
 5712SOL     OW20027   1.653   3.240   1.669  1.0347 -0.2366 -0.3708
 5712SOL    HW120028   1.642   3.171   1.735  0.4953 -0.5494 -0.7779
 5712SOL    HW220029   1.636   3.196   1.586  1.0287  0.3108 -0.6615
 5713SOL     OW20030   0.493   5.934   5.534  0.3617 -0.5815 -0.2567
 5713SOL    HW120031   0.482   5.857   5.590  0.2062 -1.1118 -1.0007
 5713SOL    HW220032   0.405   5.971   5.527  0.0824 -1.4235 -1.4143
 5714SOL     OW20033   5.708   0.328   5.228  0.4904 -0.0929 -0.1298
 5714SOL    HW120034   5.700   0.235   5.209 -2.5080 -0.3096  1.6097
 5714SOL    HW220035   5.802   0.346   5.220  0.8847 -2.5717 -3.1608
 5715SOL     OW20036   6.562   5.445   4.667  0.1663  0.6154  0.0454
 5715SOL    HW120037   6.530   5.492   4.744 -1.8670 -0.5550 -0.0167
 5715SOL    HW220038   6.567   5.353   4.695 -1.2380  0.0710 -1.3526
 5716SOL     OW20039   4.415   5.071   6.666  0.3363 -0.4413  0.1201
 5716SOL    HW120040   4.420   5.102   6.757  1.5159  2.9258 -0.9303
 5716SOL    HW220041   4.505   5.074   6.635 -0.1307 -0.9159 -1.3555
 5717SOL     OW20042   0.569   1.827   3.682  0.0054 -0.0729  0.6495
 5717SOL    HW120043   0.495   1.884   3.701 -0.4815 -0.8210  1.0842
 5717SOL    HW220044   0.541   1.741   3.714  1.0646 -0.3682  0.8273
 5718SOL     OW20045   8.729   4.495   1.900 -0.0796 -0.4396 -0.2708
 5718SOL    HW120046   8.743   4.508   1.806 -0.9580  1.8659 -0.1562
 5718SOL    HW220047   8.740   4.583   1.937 -0.0455 -1.2652  1.7542
 5719SOL     OW20048   6.518   0.184   5.754  0.4476 -0.1526  0.5430
 5719SOL    HW120049   6.590   0.199   5.692  1.1958 -1.6556  1.0194
 5719SOL    HW220050   6.557   0.135   5.825 -0.5229  1.0988  2.0107
 5720SOL     OW20051   0.329   3.974   7.630 -0.3473  0.0856  0.3218
 5720SOL    HW120052   0.423   3.977   7.617 -0.2265  0.7883  1.2574
 5720SOL    HW220053   0.293   3.948   7.545  0.7646 -1.4511  0.2927
 5721SOL     OW20054   8.519   8.959   7.676  0.2899  0.6975  0.0397
 5721SOL    HW120055   8.609   8.924   7.680 -0.5600 -1.6859 -0.1375
 5721SOL    HW220056   8.463   8.882   7.680 -1.7947  2.1393  0.2691
 5722SOL     OW20057   1.969   3.549   4.125  0.2939 -0.1254 -0.2199
 5722SOL    HW120058   2.041   3.571   4.183 -0.0602  0.7535 -0.0971
 5722SOL    HW220059   1.890   3.579   4.171  0.0069  0.5459 -1.1165
 5723SOL     OW20060   8.866   1.276   0.625 -0.0465 -0.3243 -0.4382
 5723SOL    HW120061   8.916   1.202   0.592  0.4241  0.5834 -1.8097
 5723SOL    HW220062   8.775   1.254   0.605 -0.2662 -1.8451  1.8113
 5724SOL     OW20063   7.607   7.381   7.080  0.0062 -0.3261 -0.1557
 5724SOL    HW120064   7.533   7.436   7.105 -0.1511 -0.1715 -0.9439
 5724SOL    HW220065   7.621   7.323   7.155  0.9228  1.5609  1.2077
 5725SOL     OW20066   6.156   3.471   8.257 -0.0376  0.2234  0.8993
 5725SOL    HW120067   6.250   3.468   8.243 -0.2532  0.5067 -0.7503
 5725SOL    HW220068   6.145   3.448   8.350  1.6211 -0.0091  1.0652
 5726SOL     OW20069   9.254   8.406   8.835 -0.1542  0.5230  0.1210
 5726SOL    HW120070   9.279   8.409   8.743  0.3592 -2.9626  0.0482
 5726SOL    HW220071   9.158   8.407   8.834 -0.2269 -1.9260 -0.6899
 5727SOL     OW20072   2.199   4.393   8.996  0.1573 -0.1315 -0.3155
 5727SOL    HW120073   2.108   4.421   9.002  0.4514  0.7107  0.3076
 5727SOL    HW220074   2.242   4.461   8.945  0.6871  0.0935  0.4173
 5728SOL     OW20075   3.733   6.347   3.550 -0.6796  0.7232  0.2733
 5728SOL    HW120076   3.746   6.317   3.640 -0.1145  0.5233  0.1308
 5728SOL    HW220077   3.640   6.333   3.533 -0.9522  1.4367  1.0668
 5729SOL     OW20078   6.331   7.864   0.429  0.5688 -0.3070 -0.2702
 5729SOL    HW120079   6.318   7.956   0.451 -0.7005 -0.5316 -0.0137
 5729SOL    HW220080   6.398   7.834   0.490 -0.3558 -0.0165  0.9103
 5730SOL     OW20081   3.132   7.697   2.680  0.2602 -0.1941 -0.0537
 5730SOL    HW120082   3.077   7.664   2.609 -0.5676  0.3651  0.3177
 5730SOL    HW220083   3.077   7.690   2.758  0.2456  1.5311  0.1311
 5731SOL     OW20084   5.738   5.956   0.753 -0.1818  0.2186 -0.2331
 5731SOL    HW120085   5.691   6.003   0.822  2.4415  0.9298  1.1848
 5731SOL    HW220086   5.807   6.016   0.726  0.8399 -1.3173 -1.2106
 5732SOL     OW20087   2.872   0.584   7.106  0.1150  0.1414  0.0420
 5732SOL    HW120088   2.786   0.591   7.149  0.5174  0.6744  0.7913
 5732SOL    HW220089   2.908   0.672   7.110  0.5522 -0.0070 -0.5849
 5733SOL     OW20090   2.110   0.160   1.252 -0.3012 -0.5358  0.2471
 5733SOL    HW120091   2.202   0.137   1.241 -0.1381  0.7848 -1.7132
 5733SOL    HW220092   2.065   0.113   1.182 -0.9987 -0.5660  0.7059
 5734SOL     OW20093   7.802   4.533   4.819 -0.2374 -0.0977 -0.3615
 5734SOL    HW120094   7.854   4.606   4.853 -1.3567 -0.1266  1.5498
 5734SOL    HW220095   7.866   4.474   4.780  0.7758  1.4945 -1.2002
 5735SOL     OW20096   7.433   5.336   1.219  0.0150  0.1345  0.9998
 5735SOL    HW120097   7.344   5.330   1.253 -0.1168  1.3604  0.9036
 5735SOL    HW220098   7.482   5.382   1.288  0.8361 -1.4227  1.5092
 5736SOL     OW20099   7.275   3.563   5.891  0.3904 -0.2302 -0.2101
 5736SOL    HW120100   7.196   3.612   5.872 -0.0126  0.0397  1.9050
 5736SOL    HW220101   7.344   3.609   5.844 -0.4569  0.4698 -0.7997
 5737SOL     OW20102   2.829   7.544   3.551  0.4816 -0.3956 -0.6982
 5737SOL    HW120103   2.916   7.576   3.527 -0.8154  2.3299 -2.1624
 5737SOL    HW220104   2.803   7.599   3.625 -0.4420 -0.4417 -0.9888
 5738SOL     OW20105   3.734   8.334   7.359  0.2195  0.4643 -0.0146
 5738SOL    HW120106   3.745   8.425   7.331  0.3800  1.0539  1.8592
 5738SOL    HW220107   3.818   8.310   7.397  0.4453 -0.7691 -1.1911
 5739SOL     OW20108   8.930   9.170   4.828  0.0829 -0.5805 -0.4063
 5739SOL    HW120109   9.009   9.135   4.869  1.1836 -0.8860 -2.5996
 5739SOL    HW220110   8.963   9.233   4.764 -1.6604  1.5463  0.6754
 5740SOL     OW20111   6.048   6.294   5.473 -0.4272 -0.4405  0.1848
 5740SOL    HW120112   6.105   6.218   5.463  1.0190  0.5030  0.9795
 5740SOL    HW220113   6.062   6.323   5.563 -2.0677 -0.0798  0.3576
 5741SOL     OW20114   3.640   5.223   8.439 -0.5907 -0.1604  0.5769
 5741SOL    HW120115   3.683   5.195   8.358 -0.0950  1.5489  0.2057
 5741SOL    HW220116   3.630   5.143   8.490  0.3295 -1.0589 -0.5961
 5742SOL     OW20117   7.375   7.444   3.893 -0.4724  0.2052 -0.5179
 5742SOL    HW120118   7.308   7.441   3.824 -0.3378 -0.9260 -0.6173
 5742SOL    HW220119   7.458   7.431   3.847 -0.3166  0.1524 -0.2240
 5743SOL     OW20120   3.501   1.111   9.107  0.2308  0.3693  0.2737
 5743SOL    HW120121   3.521   1.020   9.127  0.3526  0.2854 -0.2260
 5743SOL    HW220122   3.405   1.114   9.103  0.2344 -0.4947 -3.0569
 5744SOL     OW20123   7.892   4.598   4.146 -0.3751  0.3573  0.6994
 5744SOL    HW120124   7.901   4.539   4.071  0.7489  1.6140 -0.2018
 5744SOL    HW220125   7.805   4.635   4.138 -0.3424  0.3176  0.1358
 5745SOL     OW20126   7.266   6.925   1.840  0.3578 -0.0548 -0.1755
 5745SOL    HW120127   7.326   6.999   1.856  0.2983 -0.2381  1.0196
 5745SOL    HW220128   7.185   6.966   1.809  0.0331  0.4770  1.2967
 5746SOL     OW20129   3.319   8.687   5.440 -0.0851  0.0479  1.0942
 5746SOL    HW120130   3.336   8.780   5.426  0.8972 -0.1202  1.0596
 5746SOL    HW220131   3.228   8.675   5.415  0.7930  0.2693 -2.7503
 5747SOL     OW20132   5.824   8.021   6.563 -0.2874 -0.1341 -0.0264
 5747SOL    HW120133   5.858   7.983   6.482 -0.6959  0.1503 -0.3425
 5747SOL    HW220134   5.733   7.990   6.568  0.1434 -1.3029  1.0677
 5748SOL     OW20135   7.836   8.985   1.836 -0.1004  0.4277 -0.6176
 5748SOL    HW120136   7.790   9.069   1.835  0.6085  0.8693  1.0186
 5748SOL    HW220137   7.780   8.927   1.887 -0.7131 -0.2036 -1.9579
 5749SOL     OW20138   2.605   7.421   2.304 -0.4497 -0.3469 -0.4248
 5749SOL    HW120139   2.540   7.351   2.293 -0.4861 -0.0769 -2.2127
 5749SOL    HW220140   2.689   7.376   2.295 -0.4688 -0.2041 -1.3649
 5750SOL     OW20141   6.389   5.212   4.346 -0.7365  0.0737 -0.2841
 5750SOL    HW120142   6.404   5.131   4.394  2.5273  0.2005 -0.8726
 5750SOL    HW220143   6.408   5.281   4.409 -0.7504  0.3289 -0.5585
 5751SOL     OW20144   6.472   4.829   6.945  0.0548 -0.1570  0.4713
 5751SOL    HW120145   6.461   4.889   7.019 -1.3397  0.2683 -0.0395
 5751SOL    HW220146   6.414   4.864   6.877  1.6627 -0.2560 -1.0160
 5752SOL     OW20147   7.056   0.193   2.567 -0.0749  0.1106 -0.5525
 5752SOL    HW120148   7.040   0.181   2.473  1.7986 -0.3291 -0.8546
 5752SOL    HW220149   6.976   0.162   2.609  0.0288 -2.1878 -1.8984
 5753SOL     OW20150   8.704   5.589   2.251  0.6351  0.2771 -0.0321
 5753SOL    HW120151   8.770   5.609   2.317 -0.1138  1.2156  0.4363
 5753SOL    HW220152   8.676   5.674   2.217  0.7885 -0.1691 -1.3588
 5754SOL     OW20153   2.737   0.463   4.137 -0.1338 -0.1641  0.0164
 5754SOL    HW120154   2.741   0.439   4.044  0.0595 -1.5113  0.3380
 5754SOL    HW220155   2.817   0.512   4.153 -0.9791  1.5730 -0.8893
 5755SOL     OW20156   5.302   0.563   4.136  0.3242  0.1281 -0.0056
 5755SOL    HW120157   5.258   0.589   4.217 -0.4714 -1.0876 -0.0284
 5755SOL    HW220158   5.377   0.512   4.166  0.4017  0.2329 -0.0209
 5756SOL     OW20159   5.545   2.193   0.671  0.5201 -0.3953 -0.2202
 5756SOL    HW120160   5.452   2.192   0.692  0.5604 -0.2664 -0.0298
 5756SOL    HW220161   5.556   2.125   0.604  0.1182  0.2881 -0.9914
 5757SOL     OW20162   6.681   4.964   0.810 -0.7797  0.7840 -0.0041
 5757SOL    HW120163   6.599   5.004   0.839 -0.5290  2.0129 -0.9052
 5757SOL    HW220164   6.663   4.936   0.720 -0.1813  1.2099 -0.2662
 5758SOL     OW20165   5.433   0.226   3.199  0.0776  0.0500 -0.6725
 5758SOL    HW120166   5.511   0.191   3.243 -1.1189 -0.2826  1.3048
 5758SOL    HW220167   5.400   0.293   3.260 -1.4734 -0.1952 -1.2050
 5759SOL     OW20168   6.596   5.729   6.461  0.0528 -0.1214 -0.0628
 5759SOL    HW120169   6.518   5.752   6.512  0.5268  0.3057  0.4889
 5759SOL    HW220170   6.574   5.647   6.418  0.2456 -1.4785  2.2596
 5760SOL     OW20171   0.589   6.501   5.237  0.8802  0.0160  0.1422
 5760SOL    HW120172   0.676   6.483   5.273  0.5710 -0.0344  0.8806
 5760SOL    HW220173   0.584   6.596   5.231  0.7399  0.0549  0.7521
 5761SOL     OW20174   9.086   0.610   4.530  0.4433 -0.1925  0.5041
 5761SOL    HW120175   9.010   0.661   4.560 -0.3778 -0.9461 -0.2369
 5761SOL    HW220176   9.127   0.665   4.464  1.8339  1.1574  2.3975
 5762SOL     OW20177   2.882   8.290   7.927  0.2132 -0.2142 -0.1340
 5762SOL    HW120178   2.872   8.279   7.832  0.9718 -0.9318 -0.1367
 5762SOL    HW220179   2.797   8.322   7.956 -0.7128 -1.9935 -0.7633
 5763SOL     OW20180   2.155   6.650   7.528  0.4255 -0.2419 -0.0342
 5763SOL    HW120181   2.142   6.662   7.434  0.2891  0.8011  0.1002
 5763SOL    HW220182   2.205   6.727   7.556 -1.5855  0.7217  1.1408
 5764SOL     OW20183   4.212   4.034   3.753  0.0600 -0.0752 -0.6440
 5764SOL    HW120184   4.306   4.039   3.733 -0.0388 -1.9739 -1.8934
 5764SOL    HW220185   4.209   3.995   3.841  0.4461  0.5002 -0.3718
 5765SOL     OW20186   1.893   2.964   1.885  0.5929  0.4960 -0.4032
 5765SOL    HW120187   1.965   2.942   1.825  0.6662 -1.4799  0.3379
 5765SOL    HW220188   1.891   2.891   1.947  0.2496  2.2773  1.7901
 5766SOL     OW20189   1.164   3.334   4.240 -0.6163 -0.0365 -0.1733
 5766SOL    HW120190   1.131   3.271   4.303  1.0238 -1.6628 -0.8258
 5766SOL    HW220191   1.244   3.369   4.281  0.1322 -0.6658 -1.0405
 5767SOL     OW20192   4.163   3.294   0.498  0.1043  0.2054  0.1581
 5767SOL    HW120193   4.146   3.354   0.425  1.1978 -0.5908 -0.7940
 5767SOL    HW220194   4.251   3.260   0.481  0.0032 -0.7186  1.3535
 5768SOL     OW20195   2.320   6.804   9.114 -0.1788 -0.5356 -0.2316
 5768SOL    HW120196   2.321   6.709   9.097 -0.4817 -0.6790  0.5267
 5768SOL    HW220197   2.320   6.843   9.027  1.4809 -1.2137 -0.5847
 5769SOL     OW20198   4.205   6.672   5.986 -0.8838 -0.4160  0.1117
 5769SOL    HW120199   4.157   6.653   5.905  0.2110 -0.5051 -0.5361
 5769SOL    HW220200   4.264   6.598   5.997  1.1837  0.9883 -0.7212
 5770SOL     OW20201   6.842   2.003   1.987  0.4057  0.6049  0.8345
 5770SOL    HW120202   6.860   2.066   1.917  0.6008 -0.0148  0.3292
 5770SOL    HW220203   6.754   1.971   1.968  0.4386  0.4741  0.9084
 5771SOL     OW20204   6.291   0.854   3.773 -0.0253 -0.4720  0.2487
 5771SOL    HW120205   6.366   0.814   3.728  1.9461  1.3077  1.7418
 5771SOL    HW220206   6.276   0.798   3.850 -0.9127 -1.3702 -0.5501
 5772SOL     OW20207   7.435   0.468   1.727 -0.8822 -0.1667  0.0446
 5772SOL    HW120208   7.498   0.473   1.798 -1.8832  2.0212  0.8791
 5772SOL    HW220209   7.355   0.507   1.763 -1.4529  0.9148 -2.2180
 5773SOL     OW20210   7.774   1.558   2.076  0.2601  0.4342  0.3237
 5773SOL    HW120211   7.848   1.535   2.020  0.5861  1.5462  0.2754
 5773SOL    HW220212   7.780   1.497   2.150 -0.2963 -1.2030 -0.9121
 5774SOL     OW20213   3.322   5.301   5.366  0.1967  0.4672  0.4694
 5774SOL    HW120214   3.363   5.215   5.372  2.5132  1.4247 -0.4439
 5774SOL    HW220215   3.232   5.287   5.396  0.0479 -2.5347 -1.0082
 5775SOL     OW20216   5.178   7.263   3.735 -0.1481  0.1887 -0.6038
 5775SOL    HW120217   5.133   7.257   3.820 -2.6152 -1.2717 -1.9201
 5775SOL    HW220218   5.251   7.201   3.742 -1.1064 -0.9032  0.0395
 5776SOL     OW20219   8.710   0.750   8.945 -0.2679  0.1679  0.1447
 5776SOL    HW120220   8.751   0.675   8.902  1.8577  0.7551  1.0229
 5776SOL    HW220221   8.752   0.826   8.904 -1.2962  0.8435  0.3163
 5777SOL     OW20222   8.621   5.190   1.953 -0.6802  0.4313  0.2223
 5777SOL    HW120223   8.564   5.130   2.001  1.1592 -0.5417  1.2973
 5777SOL    HW220224   8.580   5.275   1.963 -1.8078 -0.1953  1.1749
 5778SOL     OW20225   6.573   8.775   3.545 -0.1100 -0.4148  0.7168
 5778SOL    HW120226   6.638   8.839   3.575 -0.1879 -0.7293  1.6077
 5778SOL    HW220227   6.489   8.813   3.571 -0.3972  0.4743 -1.3309
 5779SOL     OW20228   7.982   2.312   4.310 -0.0273  0.2537 -0.1630
 5779SOL    HW120229   7.906   2.367   4.330  0.1951  0.6826 -0.4658
 5779SOL    HW220230   8.050   2.344   4.369 -0.2999 -0.6535  0.6598
 5780SOL     OW20231   3.385   2.771   0.119  0.3464  0.1377 -0.2075
 5780SOL    HW120232   3.386   2.867   0.121 -0.1920  0.1482 -0.3489
 5780SOL    HW220233   3.448   2.748   0.051  0.1141  0.4010 -0.5107
 5781SOL     OW20234   7.336   9.198   1.274 -0.6133  0.1712  0.2031
 5781SOL    HW120235   7.298   9.125   1.323 -2.2950  0.0883 -1.1287
 5781SOL    HW220236   7.266   9.227   1.216  0.4242  2.0655 -0.1760
 5782SOL     OW20237   8.049   5.777   8.852  0.5885 -0.2437  0.2309
 5782SOL    HW120238   8.002   5.753   8.932 -0.3023  2.0926  0.4859
 5782SOL    HW220239   7.980   5.801   8.790  1.2076 -2.8803 -1.6358
 5783SOL     OW20240   1.188   2.288   5.629  0.1091 -0.2852 -0.1299
 5783SOL    HW120241   1.099   2.254   5.625  0.2901 -0.7088 -0.7397
 5783SOL    HW220242   1.209   2.289   5.723 -0.5842 -0.0353  0.0312
 5784SOL     OW20243   3.946   8.419   4.463  0.1498  0.1235  0.6037
 5784SOL    HW120244   4.019   8.481   4.454 -1.1133  1.6077  0.0449
 5784SOL    HW220245   3.941   8.376   4.378 -1.5427  2.3391 -0.5375
 5785SOL     OW20246   2.458   6.266   0.493 -0.2356  0.3042 -0.3269
 5785SOL    HW120247   2.468   6.242   0.585 -1.4123  1.0234  0.0027
 5785SOL    HW220248   2.511   6.345   0.483 -0.4810  0.4893 -0.1599
 5786SOL     OW20249   4.721   0.133   8.073 -0.1482 -0.1226 -0.1449
 5786SOL    HW120250   4.809   0.118   8.039 -0.3684  1.1037 -1.3591
 5786SOL    HW220251   4.665   0.071   8.026  0.0121 -0.7602  0.4801
 5787SOL     OW20252   4.645   3.921   6.151  0.1806  0.4747 -0.1470
 5787SOL    HW120253   4.611   3.850   6.206  0.9848 -0.2722 -0.5941
 5787SOL    HW220254   4.575   3.936   6.087  0.2777 -0.3995 -0.4766
 5788SOL     OW20255   3.799   5.181   2.014  0.5763 -0.2535 -0.7345
 5788SOL    HW120256   3.706   5.190   2.034  0.7332 -1.3903  0.7111
 5788SOL    HW220257   3.835   5.137   2.091  1.6196 -3.3594 -2.8431
 5789SOL     OW20258   4.185   6.160   7.116  0.4615  0.1081  0.1775
 5789SOL    HW120259   4.258   6.179   7.175  0.0452  0.5251  0.5676
 5789SOL    HW220260   4.207   6.207   7.035  0.2400  0.9045  0.5698
 5790SOL     OW20261   5.406   8.757   5.297  0.1801 -0.2635  0.2448
 5790SOL    HW120262   5.397   8.850   5.319  1.5832 -0.4664  2.0040
 5790SOL    HW220263   5.416   8.714   5.382  0.2040 -1.9389 -0.5715
 5791SOL     OW20264   0.192   2.402   5.944  0.5116  0.9677 -0.0806
 5791SOL    HW120265   0.169   2.417   5.852 -1.3515  0.4480  0.2459
 5791SOL    HW220266   0.285   2.383   5.943  0.3063 -0.1943 -2.0259
 5792SOL     OW20267   8.716   5.033   3.566  0.2444  0.4627  0.2186
 5792SOL    HW120268   8.640   5.030   3.508  0.6504 -1.2080 -0.2885
 5792SOL    HW220269   8.771   5.103   3.530 -0.2820  0.5548 -0.4251
 5793SOL     OW20270   6.532   1.980   4.560  0.3979  0.3922 -0.1919
 5793SOL    HW120271   6.495   2.050   4.614  0.4272  0.3144 -0.0680
 5793SOL    HW220272   6.457   1.929   4.531  0.4340 -0.0625  0.4745
 5794SOL     OW20273   4.950   3.548   4.674 -0.1684  0.2607  0.1848
 5794SOL    HW120274   5.011   3.551   4.601  1.1068  0.7856  1.2328
 5794SOL    HW220275   4.864   3.563   4.634  0.4287  0.0131 -1.2495
 5795SOL     OW20276   1.899   7.045   7.236 -0.2175  0.3949 -0.0771
 5795SOL    HW120277   1.957   7.007   7.170 -1.4539  0.1698 -1.0610
 5795SOL    HW220278   1.855   7.117   7.191 -0.4468  0.7937  0.7637
 5796SOL     OW20279   0.834   1.194   4.048  0.3087 -0.1569  0.2729
 5796SOL    HW120280   0.833   1.130   4.119  1.7646 -0.9201 -0.3452
 5796SOL    HW220281   0.924   1.191   4.015  0.3658  2.0693  0.0815
 5797SOL     OW20282   8.110   5.115   3.975  0.5730 -0.0054 -0.0724
 5797SOL    HW120283   8.167   5.136   3.901 -2.7243  2.1412 -2.2656
 5797SOL    HW220284   8.064   5.197   3.994 -5.1575 -2.3004 -1.7680
 5798SOL     OW20285   0.108   1.599   4.555  0.2030  0.1916 -0.0801
 5798SOL    HW120286   0.073   1.659   4.489 -2.3712 -0.6295  0.4163
 5798SOL    HW220287   0.129   1.655   4.630  0.3168  0.7753 -0.5433
 5799SOL     OW20288   7.703   2.878   9.094  0.3166 -0.4089 -0.4633
 5799SOL    HW120289   7.775   2.921   9.049 -0.3283 -0.2173 -1.3236
 5799SOL    HW220290   7.687   2.933   9.171  2.5902 -1.6752  1.0644
 5800SOL     OW20291   5.529   4.250   7.051  0.6200 -0.4859  0.0608
 5800SOL    HW120292   5.543   4.157   7.033 -0.7359 -0.6176 -0.4770
 5800SOL    HW220293   5.446   4.253   7.100  1.5301  0.3139  1.6421
 5801SOL     OW20294   5.710   3.912   8.510 -0.6099 -0.0603  0.3858
 5801SOL    HW120295   5.672   3.830   8.542 -0.9819 -0.2565 -0.5372
 5801SOL    HW220296   5.651   3.941   8.440  0.4731  0.0682 -0.5108
 5802SOL     OW20297   3.613   2.533   2.166 -0.2107  0.3198  0.5522
 5802SOL    HW120298   3.562   2.512   2.088  1.8212 -0.8154 -0.5741
 5802SOL    HW220299   3.551   2.528   2.238 -1.7645 -0.5552 -0.7795
 5803SOL     OW20300   0.170   1.206   7.530 -0.3640 -0.1288 -0.7758
 5803SOL    HW120301   0.180   1.115   7.501 -0.1818 -0.4373  0.2272
 5803SOL    HW220302   0.096   1.239   7.479 -0.0093 -0.6300 -1.6359
 5804SOL     OW20303   6.135   1.246   1.454  0.1475  0.3782 -0.3792
 5804SOL    HW120304   6.182   1.206   1.528 -0.2396 -1.6376 -1.1458
 5804SOL    HW220305   6.096   1.171   1.408 -1.5035  1.7634 -1.3409
 5805SOL     OW20306   0.205   9.140   4.032  0.1674  0.0351  0.5987
 5805SOL    HW120307   0.183   9.047   4.029 -1.1298  0.3326  0.5182
 5805SOL    HW220308   0.168   9.176   3.951  0.8322  0.5954  0.5327
 5806SOL     OW20309   3.159   2.053   1.459  0.6179  0.3197  0.7085
 5806SOL    HW120310   3.198   2.025   1.377  1.4530  1.7316  0.5854
 5806SOL    HW220311   3.092   1.987   1.478  2.3838 -1.6760  0.4244
 5807SOL     OW20312   0.009   2.105   0.951  0.5128  0.2153 -0.4929
 5807SOL    HW120313  -0.085   2.121   0.961 -0.0875 -1.4546 -2.6160
 5807SOL    HW220314   0.036   2.160   0.878  1.4886  1.5198  0.7991
 5808SOL     OW20315   7.457   3.057   1.564 -0.7219 -0.3322 -0.3604
 5808SOL    HW120316   7.523   2.996   1.596 -0.3839 -1.2539 -2.6770
 5808SOL    HW220317   7.376   3.006   1.560 -1.2087  0.3077  0.7723
 5809SOL     OW20318   1.403   6.494   8.347 -0.1796  0.3813  0.3450
 5809SOL    HW120319   1.343   6.426   8.317 -1.8573  1.1924  1.6980
 5809SOL    HW220320   1.474   6.495   8.282 -1.7745 -0.4061 -1.4815
 5810SOL     OW20321   4.594   8.141   0.338 -0.0614 -0.0556 -0.0568
 5810SOL    HW120322   4.678   8.144   0.384 -0.1050  1.3252 -0.0303
 5810SOL    HW220323   4.533   8.183   0.398 -0.4327  0.4172 -0.7589
 5811SOL     OW20324   2.890   3.941   6.459  0.3347 -0.0296 -0.0598
 5811SOL    HW120325   2.958   3.886   6.499  0.1410  1.9335  3.4000
 5811SOL    HW220326   2.814   3.929   6.516 -1.6577 -0.6185 -2.6879
 5812SOL     OW20327   3.301   2.375   3.252 -0.2871 -0.3803  0.1137
 5812SOL    HW120328   3.360   2.446   3.277  1.1751 -1.2255 -0.7362
 5812SOL    HW220329   3.262   2.345   3.334  1.3108 -0.4714  0.8724
 5813SOL     OW20330   8.630   6.686   3.617  0.6651 -0.3917 -0.0173
 5813SOL    HW120331   8.725   6.689   3.625  0.7779 -1.6323 -0.6167
 5813SOL    HW220332   8.601   6.636   3.693  0.4397  0.3920  0.4210
 5814SOL     OW20333   7.649   5.758   7.249 -0.3172 -0.0242 -0.5020
 5814SOL    HW120334   7.716   5.694   7.225  1.4744  2.0315 -1.2743
 5814SOL    HW220335   7.566   5.712   7.235  0.8459 -2.8045  0.8913
 5815SOL     OW20336   1.779   6.562   5.645  0.3428  0.5945 -0.4291
 5815SOL    HW120337   1.856   6.580   5.699 -0.2664 -0.5762  0.8897
 5815SOL    HW220338   1.707   6.553   5.707 -0.9975  2.1346 -1.6679
 5816SOL     OW20339   2.110   2.618   8.056  0.3745 -0.6312 -0.0443
 5816SOL    HW120340   2.168   2.560   8.106  1.8924 -1.2433 -2.3731
 5816SOL    HW220341   2.080   2.564   7.983  0.9184  1.1802 -1.6458
 5817SOL     OW20342   4.317   5.099   8.352 -0.4644 -0.4757 -0.5075
 5817SOL    HW120343   4.364   5.125   8.273 -0.2641 -0.5062 -0.3987
 5817SOL    HW220344   4.366   5.137   8.424 -0.7222 -0.3383 -0.4038
 5818SOL     OW20345   4.041   1.256   3.052 -0.0355 -0.0199  0.2067
 5818SOL    HW120346   4.059   1.173   3.008 -0.1174  1.3512 -2.5983
 5818SOL    HW220347   4.082   1.247   3.138  0.4747 -2.7082 -0.2467
 5819SOL     OW20348   0.798   3.917   4.833  0.4200  0.5948  0.4612
 5819SOL    HW120349   0.847   3.991   4.796 -1.4898  0.8351 -1.8459
 5819SOL    HW220350   0.706   3.943   4.826 -0.3097 -1.9174 -0.3691
 5820SOL     OW20351   6.272   2.183   5.817 -0.1342 -0.6336 -0.0007
 5820SOL    HW120352   6.324   2.124   5.871  0.9512  0.0895 -0.2286
 5820SOL    HW220353   6.225   2.238   5.880  0.1829 -0.5984  0.2032
 5821SOL     OW20354   7.691   1.924   4.902  0.6098  0.1932  0.2246
 5821SOL    HW120355   7.725   1.981   4.833 -0.0606  1.8105  1.1680
 5821SOL    HW220356   7.677   1.983   4.977 -1.5589 -0.8943  0.7635
 5822SOL     OW20357   8.442   2.305   6.145 -0.4387  0.1034 -0.2798
 5822SOL    HW120358   8.389   2.226   6.159 -0.8213  0.3510 -0.3044
 5822SOL    HW220359   8.503   2.282   6.075 -2.1674  0.5765 -2.0379
 5823SOL     OW20360   0.644   2.137   2.749 -0.8335 -1.1351 -0.1853
 5823SOL    HW120361   0.615   2.122   2.659  2.3585  1.6324 -1.9122
 5823SOL    HW220362   0.595   2.214   2.778  1.8926  1.5303 -1.9133
 5824SOL     OW20363   1.072   1.864   8.135  0.1222 -0.3522 -0.5227
 5824SOL    HW120364   1.060   1.898   8.046  0.0047 -2.5063 -1.4025
 5824SOL    HW220365   1.055   1.939   8.192  0.2980  1.1175 -2.3029
 5825SOL     OW20366   7.931   4.491   0.132  0.6229  1.0095 -0.1687
 5825SOL    HW120367   7.885   4.409   0.146  1.0853  0.6844 -0.5302
 5825SOL    HW220368   8.010   4.484   0.185  1.3192  0.6601 -1.2249
 5826SOL     OW20369   1.309   3.496   0.020 -0.8105  0.0464  0.4274
 5826SOL    HW120370   1.388   3.500  -0.033 -0.8991 -1.0669  0.1781
 5826SOL    HW220371   1.273   3.584   0.017  1.0128  0.8841  1.4957
 5827SOL     OW20372   6.769   1.611   5.908 -0.3491  0.6532 -0.4536
 5827SOL    HW120373   6.831   1.576   5.972  0.1371  1.7929 -0.2667
 5827SOL    HW220374   6.736   1.535   5.861  1.2716  0.0296 -0.6271
 5828SOL     OW20375   1.094   2.947   3.281  0.1323 -0.0596  0.3935
 5828SOL    HW120376   1.055   2.860   3.279 -0.6201  0.2763 -0.2870
 5828SOL    HW220377   1.149   2.951   3.202 -1.7229  0.8945 -0.9188
 5829SOL     OW20378   3.297   8.930   3.440  0.1178  0.7913 -0.1753
 5829SOL    HW120379   3.319   8.972   3.523  1.0191 -0.1200  0.0560
 5829SOL    HW220380   3.358   8.968   3.377  0.8225 -0.0226  0.0015
 5830SOL     OW20381   6.608   8.254   0.663  0.1180 -0.7588 -0.3442
 5830SOL    HW120382   6.684   8.276   0.717  1.2148  1.4490 -2.5661
 5830SOL    HW220383   6.536   8.245   0.725  1.8758 -1.5030  1.7195
 5831SOL     OW20384   3.482   4.186   7.503  0.5888 -0.2950  0.2462
 5831SOL    HW120385   3.575   4.208   7.508  0.7450 -1.2373  2.4889
 5831SOL    HW220386   3.479   4.101   7.459  0.6678  0.1798 -0.7162
 5832SOL     OW20387   4.896   5.133   9.121  0.3531 -0.2812  0.3180
 5832SOL    HW120388   4.976   5.153   9.073  0.9189 -1.4318  0.7299
 5832SOL    HW220389   4.839   5.209   9.107  1.6577  0.7295  0.3311
 5833SOL     OW20390   2.226   1.769   0.790  0.0849 -0.4508  0.0502
 5833SOL    HW120391   2.286   1.803   0.724 -0.0206 -0.0901  0.1371
 5833SOL    HW220392   2.154   1.730   0.740  0.2585 -0.6447 -0.0503
 5834SOL     OW20393   6.682   0.849   3.877 -0.5065 -0.2240 -0.0386
 5834SOL    HW120394   6.728   0.878   3.956 -1.1001 -0.2984  0.3369
 5834SOL    HW220395   6.632   0.926   3.849 -1.3272 -0.5870  0.4081
 5835SOL     OW20396   6.535   0.361   4.526  0.1073  0.2407  0.2369
 5835SOL    HW120397   6.531   0.270   4.556  1.8582  0.6606  1.9539
 5835SOL    HW220398   6.603   0.401   4.580  0.3337  2.2499 -1.4207
 5836SOL     OW20399   6.452   2.262   7.216 -0.0732 -0.1263  0.3006
 5836SOL    HW120400   6.433   2.169   7.225 -0.9766  0.1265  1.2460
 5836SOL    HW220401   6.367   2.302   7.199  0.4069  0.4585 -0.7953
 5837SOL     OW20402   7.636   6.982   1.312  0.0402  0.4749 -0.2032
 5837SOL    HW120403   7.719   6.982   1.360  0.1269  0.8923 -0.3511
 5837SOL    HW220404   7.657   7.026   1.229 -0.3656  0.7135 -0.1797
 5838SOL     OW20405   0.880   9.215   0.466 -0.1069 -0.3003  0.0017
 5838SOL    HW120406   0.865   9.298   0.420 -0.1386 -0.6413 -0.6136
 5838SOL    HW220407   0.955   9.231   0.522 -0.7071  0.4362  0.6149
 5839SOL     OW20408   5.016   3.102   6.065 -0.3385  0.5062 -0.2846
 5839SOL    HW120409   5.078   3.037   6.097 -0.5607 -0.0348 -0.9147
 5839SOL    HW220410   4.935   3.082   6.112 -0.2361  0.7268 -0.0171
 5840SOL     OW20411   5.247   1.097   1.093  0.3471 -0.2522  0.4396
 5840SOL    HW120412   5.306   1.170   1.075  0.9183 -1.2979 -2.6244
 5840SOL    HW220413   5.169   1.138   1.131  1.2942  1.7178  0.3859
 5841SOL     OW20414   2.748   0.762   0.464  0.2677 -0.6966  0.2623
 5841SOL    HW120415   2.756   0.672   0.431  0.6136 -0.5509 -0.0461
 5841SOL    HW220416   2.714   0.812   0.390  1.0641 -0.3659  0.1161
 5842SOL     OW20417   5.233   1.660   8.247 -0.7986  1.0018 -0.3202
 5842SOL    HW120418   5.206   1.580   8.201 -0.9929  0.7771  0.1774
 5842SOL    HW220419   5.244   1.632   8.338 -2.0477  1.8210  0.0919
 5843SOL     OW20420   3.382   4.651   4.502 -0.4097  0.3478  0.2211
 5843SOL    HW120421   3.320   4.579   4.494  3.0963 -2.8536 -0.8275
 5843SOL    HW220422   3.418   4.662   4.414  1.8015  0.7546  1.1130
 5844SOL     OW20423   1.654   3.937   7.096 -1.0192  0.7111 -0.0967
 5844SOL    HW120424   1.723   3.870   7.103 -0.4250  0.6009 -4.4306
 5844SOL    HW220425   1.660   3.985   7.178  3.5826  0.0394  0.2643
 5845SOL     OW20426   3.781   2.586   1.487 -0.5866  0.0283  0.7230
 5845SOL    HW120427   3.806   2.679   1.487 -1.2207  0.3450 -3.0302
 5845SOL    HW220428   3.686   2.587   1.474 -0.4943 -1.1061 -0.1674
 5846SOL     OW20429   6.307   5.134   3.763  0.0097  0.4525  0.0645
 5846SOL    HW120430   6.226   5.089   3.786 -0.4775  1.2476 -0.0294
 5846SOL    HW220431   6.323   5.193   3.836 -0.6157  1.7527 -0.7961
 5847SOL     OW20432   5.882   1.897   8.962 -0.2527  0.0658  0.0103
 5847SOL    HW120433   5.796   1.857   8.952 -0.5603  0.9975 -1.3723
 5847SOL    HW220434   5.891   1.954   8.885  1.4393  0.2723  0.3198
 5848SOL     OW20435   5.007   7.346   1.078 -0.1232  0.3033  0.6065
 5848SOL    HW120436   5.002   7.321   1.170  0.4995  0.0071  0.5628
 5848SOL    HW220437   5.075   7.289   1.041  1.1349  1.8609  0.4233
 5849SOL     OW20438   6.659   1.075   3.443  0.2085  0.0135  0.5435
 5849SOL    HW120439   6.588   1.116   3.393 -0.8129 -1.4976  0.6876
 5849SOL    HW220440   6.666   0.987   3.406  2.6981  0.4190 -0.1129
 5850SOL     OW20441   4.094   2.749   2.445 -0.4961 -0.0636 -0.2262
 5850SOL    HW120442   4.022   2.687   2.447 -0.0174 -0.6323  1.8632
 5850SOL    HW220443   4.056   2.832   2.472 -0.6288 -0.0467 -0.4647
 5851SOL     OW20444   2.007   8.184   1.479 -0.1768  0.2061  0.0971
 5851SOL    HW120445   2.007   8.115   1.546  1.2639  0.0899  0.0152
 5851SOL    HW220446   1.921   8.178   1.438 -0.2398 -1.2595  0.3961
 5852SOL     OW20447   8.403   8.029   1.670  0.3881  0.1894 -0.2451
 5852SOL    HW120448   8.366   7.945   1.697  0.3091 -0.3123 -1.8147
 5852SOL    HW220449   8.463   8.053   1.741  1.7041 -2.0283 -0.5238
 5853SOL     OW20450   1.702   2.914   7.105  0.1529 -0.6856  0.5543
 5853SOL    HW120451   1.719   2.829   7.064  1.2739 -0.3471  0.2914
 5853SOL    HW220452   1.664   2.967   7.036  1.6301 -0.2566  0.0194
 5854SOL     OW20453   6.468   7.154   8.710  0.7037 -0.2257 -0.0784
 5854SOL    HW120454   6.458   7.211   8.634  0.4979  0.7257  0.6406
 5854SOL    HW220455   6.380   7.144   8.745  0.8894 -0.1127  0.4239
 5855SOL     OW20456   4.107   1.089   0.931  0.1056 -0.4229 -0.4964
 5855SOL    HW120457   4.030   1.128   0.974  0.2861 -1.2207  0.6104
 5855SOL    HW220458   4.072   1.010   0.889  0.1502 -0.2834 -0.7945
 5856SOL     OW20459   8.090   9.055   5.959 -0.5251  0.2650  0.1123
 5856SOL    HW120460   8.175   9.040   5.919 -0.9433 -0.3021 -0.5947
 5856SOL    HW220461   8.039   9.099   5.891 -0.7424  0.7847  0.5995
 5857SOL     OW20462   5.548   5.016   2.608 -0.2918  0.3118  0.1613
 5857SOL    HW120463   5.606   5.004   2.684  1.2609 -1.5570 -1.2199
 5857SOL    HW220464   5.525   4.927   2.581 -1.4383  0.9563 -1.1141
 5858SOL     OW20465   5.965   1.124   3.503  0.2018 -0.3869 -0.4796
 5858SOL    HW120466   5.999   1.083   3.582 -0.3946  0.7811  0.4321
 5858SOL    HW220467   5.966   1.055   3.437  1.7849 -1.0915  0.2248
 5859SOL     OW20468   2.668   2.739   2.165  0.2313  0.5164  0.0583
 5859SOL    HW120469   2.711   2.817   2.131  1.2219  0.2282  0.6249
 5859SOL    HW220470   2.578   2.768   2.182  0.8625  1.8754  1.3331
 5860SOL     OW20471   2.068   2.160   7.811  0.1948 -0.1218  0.7589
 5860SOL    HW120472   2.152   2.192   7.845 -0.7709 -0.5330  3.8016
 5860SOL    HW220473   2.076   2.065   7.814 -0.7219 -0.1780  2.1260
 5861SOL     OW20474   7.690   2.196   4.237 -0.0791  0.0945 -0.9681
 5861SOL    HW120475   7.774   2.150   4.247  0.0703 -0.5561 -4.0865
 5861SOL    HW220476   7.715   2.284   4.208 -0.4635  1.1519  1.6797
 5862SOL     OW20477   8.526   3.824   3.027  0.4433  1.0490  0.1655
 5862SOL    HW120478   8.586   3.898   3.032  0.5270  0.9286  1.3305
 5862SOL    HW220479   8.440   3.861   3.047  0.2270  1.0967 -0.8075
 5863SOL     OW20480   8.741   2.480   8.814 -0.5579  0.1926 -0.1091
 5863SOL    HW120481   8.829   2.488   8.850 -0.3783  0.5449 -0.6159
 5863SOL    HW220482   8.743   2.532   8.734 -1.0250 -0.3674 -0.4957
 5864SOL     OW20483   4.540   4.507   7.986  0.0622 -0.4717 -0.1065
 5864SOL    HW120484   4.484   4.560   8.043  0.3813  0.6006 -0.7620
 5864SOL    HW220485   4.561   4.429   8.038  0.1019  0.3368  1.1164
 5865SOL     OW20486   8.982   0.377   2.780 -0.3751  0.2146  0.2496
 5865SOL    HW120487   9.007   0.420   2.862 -1.1070  0.0573  0.5608
 5865SOL    HW220488   9.065   0.344   2.744 -0.0306  0.4190  0.8432
 5866SOL     OW20489   6.517   8.232   1.063 -0.1200 -0.3940 -0.5963
 5866SOL    HW120490   6.442   8.237   1.003 -1.6202  1.4248  1.2655
 5866SOL    HW220491   6.556   8.147   1.046 -1.6764 -0.7592 -2.7388
 5867SOL     OW20492   5.192   4.402   7.005 -0.1926 -0.0499 -0.1634
 5867SOL    HW120493   5.224   4.395   7.095  0.2733  0.8987 -0.2481
 5867SOL    HW220494   5.142   4.322   6.992  0.6302 -0.7102  0.5816
 5868SOL     OW20495   1.649   9.171   8.670 -0.3214  0.0849 -0.9228
 5868SOL    HW120496   1.698   9.251   8.651 -2.5799  1.1274 -3.0604
 5868SOL    HW220497   1.692   9.103   8.618 -1.0883  1.0173 -2.9079
 5869SOL     OW20498   0.523   1.297   6.766 -0.6300 -0.3900 -0.2332
 5869SOL    HW120499   0.518   1.392   6.769  1.8577 -0.1709 -0.5922
 5869SOL    HW220500   0.540   1.277   6.674  2.0829 -0.8627  0.2867
 5870SOL     OW20501   5.506   1.729   1.583 -0.3982 -0.3735  0.2281
 5870SOL    HW120502   5.527   1.754   1.673  1.2908  0.8669 -0.4438
 5870SOL    HW220503   5.546   1.798   1.530 -0.2738 -1.7383 -1.5318
 5871SOL     OW20504   9.251   9.211   8.151  0.2729 -0.4614  0.1694
 5871SOL    HW120505   9.293   9.285   8.108  0.2456 -0.5591 -0.0296
 5871SOL    HW220506   9.324   9.156   8.181  0.3050 -0.0088  0.9410
 5872SOL     OW20507   1.181   8.503   0.202  0.4148 -0.1602  0.1064
 5872SOL    HW120508   1.242   8.429   0.204  0.3351 -0.2090  1.0337
 5872SOL    HW220509   1.208   8.553   0.124  0.1523 -1.4049 -0.8084
 5873SOL     OW20510   7.514   7.807   1.535  0.5132 -0.2852  0.1597
 5873SOL    HW120511   7.595   7.845   1.501  0.0134  0.2378 -0.4754
 5873SOL    HW220512   7.466   7.882   1.571  0.1321 -0.5220  0.1480
 5874SOL     OW20513   7.850   5.221   5.766 -0.6525 -0.3456  0.3883
 5874SOL    HW120514   7.879   5.232   5.676  0.2229 -2.2198  0.3873
 5874SOL    HW220515   7.858   5.309   5.805 -0.1387  0.2888 -1.0864
 5875SOL     OW20516   7.835   0.585   6.376 -0.4610 -0.4436  0.0880
 5875SOL    HW120517   7.791   0.552   6.298  0.7691  0.8713 -1.2319
 5875SOL    HW220518   7.787   0.546   6.449 -1.7509 -1.5990 -1.3038
 5876SOL     OW20519   0.446   8.257   7.941  0.8033  0.0461  0.0016
 5876SOL    HW120520   0.428   8.201   8.017 -0.5372  0.4786  0.0445
 5876SOL    HW220521   0.421   8.204   7.866 -0.4771  0.5449  0.0433
 5877SOL     OW20522   6.992   5.026   0.679  0.0868 -0.2669  0.1149
 5877SOL    HW120523   6.938   5.105   0.678  1.3746  0.6634  0.6690
 5877SOL    HW220524   7.063   5.045   0.618  0.3268 -1.0648  0.1311
 5878SOL     OW20525   0.070   1.237   3.479  0.6151  0.5029 -0.0100
 5878SOL    HW120526   0.044   1.245   3.387 -0.1538  2.2307  0.3171
 5878SOL    HW220527   0.157   1.277   3.484  0.6508  0.4220  0.0161
 5879SOL     OW20528   6.295   7.286   4.737  0.5407 -0.4033 -0.1957
 5879SOL    HW120529   6.390   7.279   4.745  0.4618  0.1633  4.3639
 5879SOL    HW220530   6.264   7.196   4.727  1.5437 -0.8792  0.7551
 5880SOL     OW20531   3.240   2.541   4.570  0.3501 -0.1908  0.5138
 5880SOL    HW120532   3.243   2.602   4.644  0.9243  1.3334 -0.7060
 5880SOL    HW220533   3.149   2.512   4.566 -0.2798  1.7194  0.2588
 5881SOL     OW20534   6.196   6.643   1.292  0.5917 -0.4128 -0.0101
 5881SOL    HW120535   6.173   6.704   1.362 -0.9326 -1.6254  0.6056
 5881SOL    HW220536   6.113   6.605   1.264  1.3885 -1.4718 -1.0793
 5882SOL     OW20537   7.168   9.230   7.203  0.3075  0.3860 -0.5262
 5882SOL    HW120538   7.117   9.280   7.267  1.4778  0.4820  0.3609
 5882SOL    HW220539   7.103   9.199   7.140 -0.9818 -0.2269  1.0254
 5883SOL     OW20540   2.729   8.563   7.371 -0.1432  0.3298  0.1923
 5883SOL    HW120541   2.744   8.598   7.283  0.8974 -0.6141 -0.0264
 5883SOL    HW220542   2.642   8.523   7.366 -0.3432  0.8119 -0.2284
 5884SOL     OW20543   4.935   8.665   1.916 -0.2533 -0.2793 -0.1549
 5884SOL    HW120544   4.877   8.720   1.863 -0.0132  1.5071  1.3329
 5884SOL    HW220545   5.003   8.636   1.855 -1.2718 -0.2972 -1.3436
 5885SOL     OW20546   7.064   8.333   2.713 -0.3111  0.2738  0.1411
 5885SOL    HW120547   7.052   8.422   2.681 -1.4150  0.1842  0.2632
 5885SOL    HW220548   6.975   8.301   2.730 -0.0045 -1.2024 -0.8443
 5886SOL     OW20549   2.199   5.201   6.758 -0.5733  0.5348 -0.7138
 5886SOL    HW120550   2.232   5.249   6.834 -1.5111  0.2125 -0.0892
 5886SOL    HW220551   2.259   5.225   6.688 -0.5256  1.9734 -0.2254
 5887SOL     OW20552   2.671   1.053   1.375  0.0718  0.2230 -0.5290
 5887SOL    HW120553   2.763   1.076   1.386 -0.1132  0.2393  1.1468
 5887SOL    HW220554   2.658   0.976   1.431 -0.7095 -0.4007 -1.5315
 5888SOL     OW20555   1.436   3.934   3.977  0.8956  0.4003 -0.7235
 5888SOL    HW120556   1.467   3.891   3.898 -0.3163 -1.2758 -0.3419
 5888SOL    HW220557   1.343   3.951   3.961 -0.1333 -2.5443  1.2832
 5889SOL     OW20558   0.978   6.513   8.267  0.6435 -0.3224  0.2834
 5889SOL    HW120559   0.900   6.498   8.320 -0.8583  1.8155 -1.1692
 5889SOL    HW220560   1.026   6.581   8.313 -0.6917  1.5788 -0.9706
 5890SOL     OW20561   3.885   2.157   8.620  0.2310 -0.3352 -0.1254
 5890SOL    HW120562   3.942   2.202   8.682 -2.8042  0.7198  2.2039
 5890SOL    HW220563   3.884   2.066   8.649  1.1540 -0.4863 -0.5555
 5891SOL     OW20564   4.488   6.740   5.913  0.3562 -0.1605 -0.0772
 5891SOL    HW120565   4.496   6.835   5.905  2.0134 -0.3916 -2.2336
 5891SOL    HW220566   4.438   6.726   5.994  0.1570  2.5108  0.3425
 5892SOL     OW20567   2.595   1.292   1.331  0.0906  0.0399 -0.6249
 5892SOL    HW120568   2.628   1.206   1.357  0.0125  0.4147  0.8199
 5892SOL    HW220569   2.569   1.333   1.414 -1.6053  0.7354 -1.4574
 5893SOL     OW20570   5.548   6.884   7.660  0.6450 -0.2000 -0.1399
 5893SOL    HW120571   5.628   6.893   7.608  1.3035  0.5206  0.9785
 5893SOL    HW220572   5.496   6.961   7.638  2.1855  1.6889  2.3599
 5894SOL     OW20573   3.967   8.228   3.466  0.1743 -0.0720  0.6982
 5894SOL    HW120574   3.918   8.273   3.397  0.3694  0.3105  0.8044
 5894SOL    HW220575   3.901   8.183   3.517  0.2120 -2.5013 -1.2428
 5895SOL     OW20576   6.931   8.588   4.406  0.4871  0.5135 -0.4392
 5895SOL    HW120577   6.896   8.546   4.328  1.7150  0.3826 -0.9352
 5895SOL    HW220578   7.005   8.534   4.431  0.9700  1.3560 -0.0131
 5896SOL     OW20579   1.877   7.858   8.572 -0.7117 -0.0088  0.1654
 5896SOL    HW120580   1.785   7.857   8.599 -0.9241 -1.2191 -0.5438
 5896SOL    HW220581   1.902   7.951   8.576 -1.9479  0.3306  0.3861
 5897SOL     OW20582   1.700   2.072   5.963 -0.4022  0.7275  0.1923
 5897SOL    HW120583   1.704   2.024   6.046 -0.1515  1.9277  0.8870
 5897SOL    HW220584   1.612   2.053   5.929  0.2505 -1.5738 -0.4012
 5898SOL     OW20585   8.512   2.790   9.186 -0.2197  0.6236 -0.2766
 5898SOL    HW120586   8.495   2.747   9.102  0.0591 -0.8201  0.3809
 5898SOL    HW220587   8.488   2.725   9.251 -0.3408  1.6961  0.7782
 5899SOL     OW20588   0.961   9.237   6.035 -0.8320 -0.4379 -0.0655
 5899SOL    HW120589   0.997   9.274   5.955  1.2372  2.1098  1.8643
 5899SOL    HW220590   1.000   9.149   6.040 -0.6534 -0.4694 -1.5657
 5900SOL     OW20591   1.108   6.751   0.295  0.0232 -0.1597  0.6564
 5900SOL    HW120592   1.084   6.826   0.241  1.5570 -0.2735 -0.2390
 5900SOL    HW220593   1.140   6.686   0.232  0.3065 -0.9160  1.5618
 5901SOL     OW20594   5.735   5.835   4.259 -0.5737 -0.3906  0.3916
 5901SOL    HW120595   5.782   5.794   4.186 -0.5853  2.0834 -1.1069
 5901SOL    HW220596   5.802   5.885   4.305 -1.1825  0.8946 -0.0802
 5902SOL     OW20597   2.972   4.306   4.589  0.0900 -0.1812 -0.5035
 5902SOL    HW120598   2.880   4.287   4.605 -0.0758  0.4999 -0.6445
 5902SOL    HW220599   3.011   4.220   4.571 -0.2071 -0.6781  1.0566
 5903SOL     OW20600   3.360   4.270   3.216  0.2582 -0.0193  0.3287
 5903SOL    HW120601   3.367   4.267   3.311  0.5833  1.0964  0.3532
 5903SOL    HW220602   3.437   4.222   3.185  0.2024 -0.3041  0.6161
 5904SOL     OW20603   1.162   7.206   7.745 -0.0339  0.3030  0.0593
 5904SOL    HW120604   1.246   7.166   7.764  0.0131  0.5176  0.3138
 5904SOL    HW220605   1.099   7.159   7.799  0.0984  0.9067  0.7457
 5905SOL     OW20606   7.197   3.498   3.497 -0.3714  0.0221  0.3196
 5905SOL    HW120607   7.120   3.461   3.538  0.5101 -0.8335  1.2491
 5905SOL    HW220608   7.238   3.424   3.451  0.1349  0.3573  0.2198
 5906SOL     OW20609   6.515   9.149   2.815 -0.0463  0.2270 -0.0913
 5906SOL    HW120610   6.458   9.177   2.887  0.4356 -0.1260  0.4327
 5906SOL    HW220611   6.532   9.229   2.765  0.1227  0.5853  0.5399
 5907SOL     OW20612   8.069   7.793   2.776 -0.6772  0.2895 -0.2583
 5907SOL    HW120613   8.093   7.740   2.852  0.0058  0.6068 -0.2509
 5907SOL    HW220614   8.151   7.832   2.747 -0.9549  0.2716 -1.0851
 5908SOL     OW20615   4.213   4.230   4.264 -0.1091  0.3779 -0.0991
 5908SOL    HW120616   4.260   4.308   4.293  0.9290 -0.1482 -0.3497
 5908SOL    HW220617   4.160   4.206   4.340 -1.1703  1.8436 -0.3204
 5909SOL     OW20618   5.532   1.415   2.454 -0.3684  0.0857  0.0890
 5909SOL    HW120619   5.595   1.443   2.387  0.3611  0.4935  0.9358
 5909SOL    HW220620   5.449   1.409   2.407  0.0040  0.9872 -0.7247
 5910SOL     OW20621   2.202   1.843   8.992  0.2424  0.1176 -0.5088
 5910SOL    HW120622   2.192   1.888   9.076  1.4317  2.7632 -1.6771
 5910SOL    HW220623   2.222   1.752   9.016 -1.1115  0.3821  2.0055
 5911SOL     OW20624   3.083   3.778   1.135  0.2299 -0.2682 -0.0773
 5911SOL    HW120625   3.157   3.719   1.119 -0.9614 -1.6384 -0.7440
 5911SOL    HW220626   3.006   3.726   1.114 -0.9765  0.9454  1.1259
 5912SOL     OW20627   2.744   1.818   9.048 -0.6019  0.5158  0.2385
 5912SOL    HW120628   2.701   1.854   9.126 -0.9217  0.0279  0.2902
 5912SOL    HW220629   2.682   1.832   8.977  0.0261  1.7145 -0.1140
 5913SOL     OW20630   6.890   5.487   8.341  0.5603 -0.1932  0.8719
 5913SOL    HW120631   6.955   5.530   8.396 -0.0970  0.5724  1.0663
 5913SOL    HW220632   6.913   5.514   8.252 -0.4008  1.4032  1.0536
 5914SOL     OW20633   5.828   9.163   8.150 -0.2864  0.0148  0.3794
 5914SOL    HW120634   5.891   9.214   8.100  0.1670  0.8963  1.7695
 5914SOL    HW220635   5.878   9.133   8.226 -1.4202  0.4363  1.3253
 5915SOL     OW20636   5.395   4.421   1.167 -0.4590 -0.2693  0.2247
 5915SOL    HW120637   5.404   4.509   1.129  1.9812  0.5013  2.2747
 5915SOL    HW220638   5.318   4.426   1.223 -0.9331  0.2132 -0.4522
 5916SOL     OW20639   7.015   0.053   2.905  0.0577  0.4396 -0.3280
 5916SOL    HW120640   7.034   0.093   2.989  1.5502  1.0815 -0.9386
 5916SOL    HW220641   7.065  -0.029   2.905  0.4845  0.6909 -0.7722
 5917SOL     OW20642   0.125   4.151   2.938  0.7580  0.3277  0.4883
 5917SOL    HW120643   0.035   4.176   2.958  0.6427  0.2679  0.0430
 5917SOL    HW220644   0.156   4.219   2.879  0.5516 -0.3907 -0.4596
 5918SOL     OW20645   5.651   1.013   3.713  0.0379  0.6360  0.0284
 5918SOL    HW120646   5.565   1.023   3.753 -0.4535  0.6844 -1.0084
 5918SOL    HW220647   5.633   0.998   3.620  1.1366  0.3299 -0.1522
 5919SOL     OW20648   2.834   1.295   7.499  0.1679  0.2006  0.4410
 5919SOL    HW120649   2.806   1.205   7.515  0.1551 -0.1095 -1.1942
 5919SOL    HW220650   2.798   1.317   7.414 -0.3294  1.9788  1.0562
 5920SOL     OW20651   3.569   2.357   4.921 -0.5572 -0.4161  0.5261
 5920SOL    HW120652   3.591   2.409   4.998 -0.4911 -1.1956  1.0394
 5920SOL    HW220653   3.520   2.282   4.955  0.1464 -1.1761 -0.0888
 5921SOL     OW20654   1.714   7.529   0.076  0.1382 -0.3389  0.1127
 5921SOL    HW120655   1.715   7.435   0.093  1.4313 -0.4892 -0.6701
 5921SOL    HW220656   1.729   7.537  -0.018 -1.8569  0.6173 -0.1823
 5922SOL     OW20657   9.149   8.930   8.059  0.0611  0.2791 -0.0798
 5922SOL    HW120658   9.208   8.986   8.109 -0.0107 -0.1593  0.5094
 5922SOL    HW220659   9.080   8.907   8.121  1.4686 -2.6827  0.6111
 5923SOL     OW20660   4.567   6.621   2.842  0.0928 -0.4582  0.2390
 5923SOL    HW120661   4.580   6.598   2.750  0.2008 -2.1587  0.6457
 5923SOL    HW220662   4.648   6.593   2.885  0.0805  0.4095  0.8573
 5924SOL     OW20663   3.605   7.284   1.347 -0.1728  0.5174  0.4218
 5924SOL    HW120664   3.567   7.372   1.352 -1.6442 -0.1443  3.2227
 5924SOL    HW220665   3.681   7.287   1.405  0.5961  0.2797 -0.5555
 5925SOL     OW20666   8.026   5.248   5.061 -0.3497 -0.3914  0.2199
 5925SOL    HW120667   7.969   5.172   5.073 -1.4204 -0.0614 -2.1490
 5925SOL    HW220668   8.114   5.210   5.053 -0.6025 -1.1860  1.0688
 5926SOL     OW20669   8.690   3.660   7.617  0.0785  0.1770 -0.3133
 5926SOL    HW120670   8.773   3.668   7.666 -0.2911  1.4411  0.1485
 5926SOL    HW220671   8.702   3.717   7.541 -0.0232 -0.3880 -0.7606
 5927SOL     OW20672   4.329   4.420   7.790  0.1353 -0.3689  0.2324
 5927SOL    HW120673   4.388   4.446   7.861  0.7319  1.0039 -0.7244
 5927SOL    HW220674   4.243   4.454   7.816  0.0600 -1.0586  0.9176
 5928SOL     OW20675   1.131   0.903   6.272 -0.4487  0.0500 -0.1365
 5928SOL    HW120676   1.161   0.864   6.353 -0.8376 -1.5549 -0.7354
 5928SOL    HW220677   1.211   0.930   6.227 -0.1883  0.1657  0.3898
 5929SOL     OW20678   6.973   7.614   3.588  0.4981 -0.2766  0.4976
 5929SOL    HW120679   6.915   7.540   3.608 -0.2688  0.2749  0.3365
 5929SOL    HW220680   6.918   7.691   3.599  1.0562  0.2276 -0.2028
 5930SOL     OW20681   5.965   5.880   2.790  0.0562  0.6027  0.5725
 5930SOL    HW120682   6.016   5.961   2.792  1.5212 -0.2915  2.0706
 5930SOL    HW220683   6.028   5.812   2.815 -1.7571 -0.6277  1.9991
 5931SOL     OW20684   7.601   1.779   6.666 -0.1990 -0.1053  0.2808
 5931SOL    HW120685   7.687   1.737   6.664 -0.0880  0.1467 -1.3644
 5931SOL    HW220686   7.618   1.870   6.641 -1.0025 -0.1739 -0.5316
 5932SOL     OW20687   2.956   2.041   2.175 -0.0752 -0.7494  0.6397
 5932SOL    HW120688   3.019   2.077   2.237  0.4898 -0.4533 -0.0889
 5932SOL    HW220689   2.915   1.968   2.222  0.1502 -0.3694  1.4443
 5933SOL     OW20690   7.101   7.785   5.378  0.6615  0.0045 -0.6271
 5933SOL    HW120691   7.082   7.807   5.469 -0.7263  1.1850 -1.1679
 5933SOL    HW220692   7.020   7.804   5.331  1.4914 -0.1359 -2.1861
 5934SOL     OW20693   3.241   8.966   6.801 -0.0052 -0.1757 -0.1881
 5934SOL    HW120694   3.213   8.994   6.888 -1.8585 -0.8697 -0.5091
 5934SOL    HW220695   3.195   8.883   6.787  0.7915 -0.4144 -1.5737
 5935SOL     OW20696   5.042   2.209   1.551 -0.5746  0.3088 -1.1059
 5935SOL    HW120697   4.965   2.265   1.543 -0.1817  0.9016 -0.7912
 5935SOL    HW220698   5.017   2.144   1.617 -0.0417  1.8361  0.6852
 5936SOL     OW20699   8.374   3.539   5.852 -0.0060  0.0656 -0.0781
 5936SOL    HW120700   8.466   3.531   5.878 -0.0813 -1.6010 -0.2467
 5936SOL    HW220701   8.369   3.497   5.766 -0.9136  0.2022 -0.1040
 5937SOL     OW20702   6.816   4.828   5.197  0.2299 -0.2293  0.1227
 5937SOL    HW120703   6.898   4.779   5.199  0.3106 -0.2900 -2.3024
 5937SOL    HW220704   6.749   4.762   5.216  0.5534 -0.7202 -0.3912
 5938SOL     OW20705   6.261   4.622   0.152  0.4085  0.5860  0.1417
 5938SOL    HW120706   6.218   4.537   0.161  1.6987 -0.0333  0.7248
 5938SOL    HW220707   6.265   4.638   0.058  0.7211 -0.3185 -0.0082
 5939SOL     OW20708   5.771   7.425   2.186 -0.5031  0.4031 -0.7629
 5939SOL    HW120709   5.863   7.450   2.184 -0.5689  0.5804 -1.9250
 5939SOL    HW220710   5.772   7.330   2.173 -0.4677  0.3351 -0.2923
 5940SOL     OW20711   0.218   8.780   5.851 -0.5886 -0.0301  0.0886
 5940SOL    HW120712   0.271   8.706   5.881 -0.4235 -0.8768 -2.1198
 5940SOL    HW220713   0.128   8.755   5.869 -0.5096 -0.6520 -0.3574
 5941SOL     OW20714   3.295   0.353   2.424 -0.0879 -0.2278  0.2209
 5941SOL    HW120715   3.342   0.362   2.507 -0.1302 -3.2781  0.6976
 5941SOL    HW220716   3.360   0.319   2.363 -1.0547 -2.3763  0.2986
 5942SOL     OW20717   6.274   4.689   6.097 -0.3291 -0.0036  0.1484
 5942SOL    HW120718   6.222   4.649   6.028 -1.6367  1.5190  0.1671
 5942SOL    HW220719   6.255   4.783   6.089  0.8964  0.3884  1.4402
 5943SOL     OW20720   7.402   1.028   5.955 -0.0029 -0.0836  0.2150
 5943SOL    HW120721   7.376   0.955   6.010  1.7241 -0.4532  0.5940
 5943SOL    HW220722   7.478   1.066   5.998  1.2078 -0.1706 -1.7061
 5944SOL     OW20723   2.861   7.381   0.965  0.1801  0.3123  0.1144
 5944SOL    HW120724   2.779   7.428   0.977 -0.7756 -0.8445 -1.4948
 5944SOL    HW220725   2.883   7.394   0.873  0.1888 -1.8482 -0.2448
 5945SOL     OW20726   5.932   3.179   6.832 -0.3588  0.4132 -0.0386
 5945SOL    HW120727   5.856   3.236   6.848 -0.2845  0.3479  0.5668
 5945SOL    HW220728   5.934   3.169   6.737 -1.4625 -0.0662 -0.0229
 5946SOL     OW20729   9.004   8.104   2.829  0.2008 -0.1471 -0.1989
 5946SOL    HW120730   9.074   8.116   2.764 -0.7544 -1.3274 -1.4834
 5946SOL    HW220731   9.044   8.133   2.911  1.8815  0.1360 -1.0600
 5947SOL     OW20732   5.277   4.587   2.589  0.1059  0.8415  0.0267
 5947SOL    HW120733   5.244   4.564   2.502  2.4384  0.8534 -0.9158
 5947SOL    HW220734   5.257   4.510   2.643  2.6553 -1.1813 -1.6735
 5948SOL     OW20735   3.279   5.606   2.359  0.6330 -0.2561 -0.3463
 5948SOL    HW120736   3.341   5.677   2.339  2.8991 -0.7834  3.7410
 5948SOL    HW220737   3.213   5.647   2.415 -0.3017 -0.6160 -1.1605
 5949SOL     OW20738   5.290   1.535   5.727  0.0310  0.7015  0.3483
 5949SOL    HW120739   5.239   1.616   5.719 -1.5021  0.0983  2.7699
 5949SOL    HW220740   5.312   1.530   5.820 -0.9503 -2.2033  0.5139
 5950SOL     OW20741   6.598   3.086   1.943 -0.7724  0.1468  0.8198
 5950SOL    HW120742   6.642   3.034   1.876 -0.4667 -1.3460  2.1275
 5950SOL    HW220743   6.519   3.035   1.965 -1.3310  1.0539  0.9814
 5951SOL     OW20744   7.108   8.674   1.413 -0.3958  0.6270  0.2081
 5951SOL    HW120745   7.190   8.714   1.443  0.0472 -0.2435  0.2039
 5951SOL    HW220746   7.039   8.728   1.451  0.1736  0.6377  1.2507
 5952SOL     OW20747   0.117   4.641   4.450  0.6277  0.3114  0.3203
 5952SOL    HW120748   0.123   4.556   4.494  0.3645  0.9910  1.7313
 5952SOL    HW220749   0.049   4.687   4.498 -0.4394  0.7142 -1.5187
 5953SOL     OW20750   3.007   8.373   1.759  1.1286  0.6031  0.0317
 5953SOL    HW120751   3.067   8.372   1.834 -0.1383  0.5838  1.0836
 5953SOL    HW220752   2.929   8.419   1.791 -0.1668 -0.9837 -0.6720
 5954SOL     OW20753   3.423   1.684   4.957 -0.5904  0.0712  0.4083
 5954SOL    HW120754   3.443   1.590   4.965 -1.7607 -0.3000 -0.6185
 5954SOL    HW220755   3.337   1.692   4.999 -0.6581  0.6198  0.1604
 5955SOL     OW20756   4.636   6.939   9.170  0.1936  0.6944  0.0042
 5955SOL    HW120757   4.646   6.844   9.176  0.6914  0.6148 -1.6753
 5955SOL    HW220758   4.576   6.961   9.241 -0.4434 -0.9536  0.0156
 5956SOL     OW20759   2.477   3.401   4.263 -0.3864  0.4275 -0.4081
 5956SOL    HW120760   2.480   3.496   4.277 -1.2034  0.2311  1.3728
 5956SOL    HW220761   2.564   3.371   4.289 -0.7015  0.5096  0.8115
 5957SOL     OW20762   5.495   7.794   5.000  0.4408  0.5515 -0.0325
 5957SOL    HW120763   5.477   7.882   4.966 -2.4542  0.7177  1.6347
 5957SOL    HW220764   5.420   7.742   4.973  1.1800 -0.9391  0.6697
 5958SOL     OW20765   7.635   8.562   6.207 -0.5264  0.5671  0.2575
 5958SOL    HW120766   7.595   8.598   6.286 -1.3535 -0.5572  0.3699
 5958SOL    HW220767   7.602   8.473   6.202 -0.4716  0.6111 -1.3561
 5959SOL     OW20768   3.427   0.488   1.651  0.3335 -0.1703  0.4370
 5959SOL    HW120769   3.431   0.417   1.587 -0.5754 -0.4539  0.6754
 5959SOL    HW220770   3.433   0.568   1.599  0.9630 -0.4074  0.1300
 5960SOL     OW20771   3.273   4.319   6.799 -0.6029 -0.3575 -0.7401
 5960SOL    HW120772   3.331   4.379   6.752 -0.8465  0.7408  0.3025
 5960SOL    HW220773   3.330   4.246   6.824  0.1770  0.3415 -0.3955
 5961SOL     OW20774   1.229   4.003   8.198  0.1450 -0.4699 -0.4115
 5961SOL    HW120775   1.308   3.964   8.161  0.4042 -1.2805  0.9335
 5961SOL    HW220776   1.172   3.929   8.218 -1.3512  0.1261 -2.1050
 5962SOL     OW20777   3.248   2.391   0.025  0.6496  0.0892 -0.0440
 5962SOL    HW120778   3.303   2.436   0.089  1.0622 -0.1409 -0.2301
 5962SOL    HW220779   3.270   2.432  -0.058  2.0722 -1.3791 -0.4372
 5963SOL     OW20780   7.175   3.144   4.163 -0.1992 -0.7125 -0.8232
 5963SOL    HW120781   7.266   3.167   4.142 -0.3775  0.0905 -0.7513
 5963SOL    HW220782   7.133   3.132   4.077  0.3419 -2.6845 -0.8607
 5964SOL     OW20783   3.560   8.800   2.402 -0.1718 -0.7847 -0.1036
 5964SOL    HW120784   3.626   8.732   2.385  0.9466 -0.7184  3.2569
 5964SOL    HW220785   3.477   8.752   2.405  0.1620 -1.4399 -1.0173
 5965SOL     OW20786   8.955   6.978   8.533  0.4260  0.0308 -0.1847
 5965SOL    HW120787   8.974   7.037   8.606 -0.3014 -0.2178  0.2203
 5965SOL    HW220788   9.007   7.012   8.461  1.3541  0.1358  0.5139
 5966SOL     OW20789   6.779   6.261   6.061 -0.3428  0.0704  0.2890
 5966SOL    HW120790   6.798   6.325   5.993  1.5266  0.1576  0.8609
 5966SOL    HW220791   6.792   6.308   6.143  0.7653 -0.9433  0.7157
 5967SOL     OW20792   9.255   0.764   7.689 -0.2855 -0.1739  0.3611
 5967SOL    HW120793   9.255   0.772   7.594  0.6048 -0.4413  0.3329
 5967SOL    HW220794   9.162   0.754   7.712 -0.4958 -0.2560 -0.4895
 5968SOL     OW20795   4.971   4.833   5.703 -0.1757  0.1478  0.0686
 5968SOL    HW120796   4.952   4.741   5.721  0.1540  0.0658  0.0186
 5968SOL    HW220797   5.039   4.855   5.766 -0.9371  0.6356  0.7291
 5969SOL     OW20798   0.174   9.148   7.868 -0.2017  0.2924 -0.2958
 5969SOL    HW120799   0.189   9.164   7.775  2.8836 -1.1567 -0.1737
 5969SOL    HW220800   0.206   9.059   7.883  2.8001  1.6553  2.7481
 5970SOL     OW20801   7.763   2.710   6.712  0.2776 -0.6035 -0.3256
 5970SOL    HW120802   7.790   2.743   6.626  1.8123  0.2495  0.4280
 5970SOL    HW220803   7.820   2.756   6.774 -0.6207 -1.3769  1.1413
 5971SOL     OW20804   7.492   6.282   8.874 -0.7931  0.1491  0.3653
 5971SOL    HW120805   7.540   6.216   8.922 -1.0034 -0.2759 -0.0022
 5971SOL    HW220806   7.409   6.240   8.851 -0.5572  0.2129 -0.6685
 5972SOL     OW20807   0.358   7.616   5.788  0.1002 -0.0778 -0.0342
 5972SOL    HW120808   0.402   7.586   5.867  1.1954  0.9259 -0.2392
 5972SOL    HW220809   0.266   7.591   5.801  0.4662 -0.9645  1.0180
 5973SOL     OW20810   8.283   7.743   6.525 -0.1916 -0.2723 -0.3033
 5973SOL    HW120811   8.201   7.696   6.512 -1.0119  1.0315 -0.0770
 5973SOL    HW220812   8.289   7.754   6.620 -0.1440  0.2791 -0.3652
 5974SOL     OW20813   7.747   5.619   6.115 -0.4828  0.3746 -0.1471
 5974SOL    HW120814   7.656   5.596   6.136 -0.0939 -0.6605  0.5281
 5974SOL    HW220815   7.759   5.706   6.153 -1.0734  0.3322  0.1570
 5975SOL     OW20816   7.112   5.589   7.302 -0.2220  0.1482 -0.0539
 5975SOL    HW120817   7.126   5.651   7.374  1.8151 -0.1566 -0.1302
 5975SOL    HW220818   7.091   5.506   7.346  1.2614 -0.0956  0.2253
 5976SOL     OW20819   3.963   3.963   0.570 -0.5313 -0.1829  0.2061
 5976SOL    HW120820   3.964   3.875   0.532  0.6993 -0.7540  1.4895
 5976SOL    HW220821   3.870   3.984   0.578 -0.8476 -0.4974 -1.9842
 5977SOL     OW20822   1.619   9.023   6.173  0.8082  0.2892 -0.4357
 5977SOL    HW120823   1.582   9.057   6.254  0.1832 -3.0485  0.8190
 5977SOL    HW220824   1.703   8.986   6.199  0.1919 -1.6417 -1.0629
 5978SOL     OW20825   4.378   7.517   3.502 -0.0170 -0.3095  0.0694
 5978SOL    HW120826   4.375   7.523   3.597  0.6409  1.3246  0.0174
 5978SOL    HW220827   4.286   7.508   3.476 -0.1317 -1.8690  0.8792
 5979SOL     OW20828   2.942   5.696   8.383 -0.2385  0.5742  0.2855
 5979SOL    HW120829   2.868   5.642   8.356 -0.8401  0.4454  2.0652
 5979SOL    HW220830   2.951   5.680   8.477  2.0103  0.6610  0.1343
 5980SOL     OW20831   0.629   5.107   5.739 -0.1006  0.1152  0.2018
 5980SOL    HW120832   0.718   5.112   5.773  0.5436  1.4557 -1.5526
 5980SOL    HW220833   0.585   5.185   5.775  0.4352  1.2566 -1.4973
 5981SOL     OW20834   7.922   2.654   6.320  0.4083 -0.0192 -0.0081
 5981SOL    HW120835   8.011   2.690   6.314  0.1554  0.7331  0.6146
 5981SOL    HW220836   7.873   2.720   6.369 -0.6341 -0.1682 -0.8248
 5982SOL     OW20837   4.719   8.153   3.648  0.1945 -0.7737 -0.0318
 5982SOL    HW120838   4.814   8.153   3.659  0.0232 -1.9563  1.7559
 5982SOL    HW220839   4.684   8.138   3.736 -1.6178 -1.5858 -0.8404
 5983SOL     OW20840   2.783   7.927   3.138  0.0310  0.0904 -0.5075
 5983SOL    HW120841   2.871   7.896   3.116 -0.5223 -0.6076 -1.8477
 5983SOL    HW220842   2.752   7.866   3.205  0.4855  0.2539 -0.1337
 5984SOL     OW20843   1.173   7.911   4.346 -0.1052 -0.0771 -0.2520
 5984SOL    HW120844   1.149   7.983   4.404 -1.6594 -0.0679 -0.8520
 5984SOL    HW220845   1.095   7.855   4.344  1.1204 -1.9067  0.3491
 5985SOL     OW20846   2.892   2.524   2.450 -0.1328 -0.2435 -0.2796
 5985SOL    HW120847   2.933   2.608   2.471  0.7268 -0.2430 -1.8825
 5985SOL    HW220848   2.798   2.540   2.465  0.2418  0.1359  2.1226
 5986SOL     OW20849   7.714   7.984   8.520 -0.2808 -0.2623 -0.1177
 5986SOL    HW120850   7.656   7.944   8.455 -1.5325 -0.6420  1.1949
 5986SOL    HW220851   7.672   8.067   8.541  0.8502  0.5108 -0.7668
 5987SOL     OW20852   1.303   6.989   7.117 -0.1531  0.0496 -0.0625
 5987SOL    HW120853   1.387   6.943   7.120 -1.5631 -2.8864 -1.0449
 5987SOL    HW220854   1.307   7.041   7.037  0.2500 -1.2062 -0.8937
 5988SOL     OW20855   2.223   7.196   0.540 -0.2740  0.1725  0.7865
 5988SOL    HW120856   2.242   7.274   0.487 -0.4028  0.0001  0.4842
 5988SOL    HW220857   2.265   7.124   0.493  0.4714  0.1634  1.4515
 5989SOL     OW20858   2.418   1.206   9.197  0.3096 -0.1210  0.3105
 5989SOL    HW120859   2.392   1.210   9.105  1.0877  2.6416  0.1124
 5989SOL    HW220860   2.349   1.254   9.243 -0.1800 -1.6645  1.2234
 5990SOL     OW20861   4.049   0.643   2.235  0.1143 -0.1489  0.1083
 5990SOL    HW120862   4.012   0.642   2.323 -0.1876 -1.3516 -0.0129
 5990SOL    HW220863   4.143   0.634   2.248 -0.0260 -1.6575  0.2967
 5991SOL     OW20864   2.221   2.186   8.434 -0.5703 -0.3819 -0.1862
 5991SOL    HW120865   2.221   2.155   8.525 -1.0359 -0.7779 -0.3113
 5991SOL    HW220866   2.285   2.130   8.389  0.6089  0.6552  0.1553
 5992SOL     OW20867   3.530   6.518   2.651 -0.5591  0.0648  0.4451
 5992SOL    HW120868   3.623   6.534   2.669 -0.3527  0.7132 -1.0528
 5992SOL    HW220869   3.488   6.603   2.666 -0.3863  0.6291 -1.8497
 5993SOL     OW20870   8.088   3.094   0.453  0.9427  0.2580  0.1412
 5993SOL    HW120871   8.120   3.060   0.536 -0.0822  0.0293  0.4497
 5993SOL    HW220872   8.163   3.143   0.417  1.7762 -0.6246  0.6240
 5994SOL     OW20873   5.285   5.467   7.391  0.0810  0.0099  0.3614
 5994SOL    HW120874   5.336   5.409   7.448  2.9918  0.0888 -1.9319
 5994SOL    HW220875   5.308   5.555   7.420 -2.1537  0.1422  2.0061
 5995SOL     OW20876   2.187   5.569   7.178 -0.1064 -0.4525 -0.3204
 5995SOL    HW120877   2.196   5.645   7.119 -1.2786  2.1662  2.5677
 5995SOL    HW220878   2.277   5.544   7.198  0.4212  1.6427  0.2574
 5996SOL     OW20879   4.744   4.971   2.088  0.0640 -0.1550 -0.3242
 5996SOL    HW120880   4.819   4.954   2.146 -0.3498 -0.3575  0.1542
 5996SOL    HW220881   4.783   5.016   2.012  0.9009 -1.5577 -0.7670
 5997SOL     OW20882   5.894   1.726   7.096  0.2414  0.5058 -0.1385
 5997SOL    HW120883   5.803   1.709   7.119  0.4794  1.5596  1.7814
 5997SOL    HW220884   5.897   1.819   7.074  0.8698  0.5061 -0.0662
 5998SOL     OW20885   6.529   6.753   4.178 -0.7729  0.4811 -0.2694
 5998SOL    HW120886   6.525   6.778   4.085  0.5258  2.1361  0.0624
 5998SOL    HW220887   6.442   6.721   4.198 -0.5420 -1.9326 -2.5721
 5999SOL     OW20888   8.948   0.133   0.850 -0.2290 -0.3872 -0.2566
 5999SOL    HW120889   8.873   0.192   0.853 -0.2018 -0.3748  0.2142
 5999SOL    HW220890   8.917   0.057   0.801 -0.3973 -0.1713 -0.4846
 6000SOL     OW20891   8.760   1.642   2.137 -0.2236 -0.0151  0.1529
 6000SOL    HW120892   8.806   1.561   2.117 -3.4810 -2.0121 -0.1015
 6000SOL    HW220893   8.721   1.669   2.053 -3.1281 -1.0340  1.0331
 6001SOL     OW20894   3.098   4.105   3.203 -0.1721 -0.2021  0.3361
 6001SOL    HW120895   3.172   4.158   3.234  0.0184  1.0620 -2.0521
 6001SOL    HW220896   3.043   4.167   3.155 -0.2901 -1.9939 -2.0223
 6002SOL     OW20897   5.206   5.261   5.313 -0.7046 -0.4092 -0.1397
 6002SOL    HW120898   5.199   5.254   5.218  0.3319  0.5993 -0.3123
 6002SOL    HW220899   5.116   5.277   5.343 -0.8328  0.8902 -1.1211
 6003SOL     OW20900   8.306   0.879   5.803  0.4819 -0.5214 -0.1074
 6003SOL    HW120901   8.376   0.832   5.759  1.3007 -0.0383  0.6537
 6003SOL    HW220902   8.351   0.941   5.861 -0.5669 -0.1422  0.3256
 6004SOL     OW20903   8.367   8.923   6.091  0.0877 -0.1172 -0.3652
 6004SOL    HW120904   8.451   8.887   6.063 -0.0357 -0.7673  0.0787
 6004SOL    HW220905   8.315   8.928   6.011  1.9681  4.5684 -1.6487
 6005SOL     OW20906   6.212   9.171   5.404 -0.0935  0.1776 -0.4761
 6005SOL    HW120907   6.196   9.260   5.433 -0.7672  0.1784 -0.8141
 6005SOL    HW220908   6.245   9.180   5.314 -0.6389  0.0745 -0.6918
 6006SOL     OW20909   7.353   7.220   5.963 -0.3313 -0.3028  0.3330
 6006SOL    HW120910   7.365   7.268   5.881 -2.7685  1.2583  0.7761
 6006SOL    HW220911   7.412   7.262   6.025  1.1585 -1.1681 -0.4349
 6007SOL     OW20912   4.639   5.790   7.550 -0.6595 -0.6039  0.4587
 6007SOL    HW120913   4.651   5.879   7.584 -0.9982 -0.5070  0.3253
 6007SOL    HW220914   4.593   5.802   7.467  1.5134 -0.7192 -0.8444
 6008SOL     OW20915   5.256   5.785   4.928  0.1709 -0.1337 -0.1885
 6008SOL    HW120916   5.347   5.754   4.927 -0.2048 -1.4314  1.7580
 6008SOL    HW220917   5.223   5.765   4.840  0.9569 -2.2766 -0.0589
 6009SOL     OW20918   0.657   4.221   4.590 -0.3496  0.1127  0.3622
 6009SOL    HW120919   0.618   4.245   4.505  0.3741  0.2216  0.0577
 6009SOL    HW220920   0.723   4.155   4.569 -0.1914  0.1107  0.8487
 6010SOL     OW20921   0.510   7.756   7.695  0.0098 -0.4568 -0.0202
 6010SOL    HW120922   0.557   7.675   7.676  1.0179 -0.1526  1.0500
 6010SOL    HW220923   0.466   7.778   7.612 -1.7722 -3.0099  0.1406
 6011SOL     OW20924   0.815   1.426   4.396  0.2856  0.4804 -0.2528
 6011SOL    HW120925   0.883   1.492   4.385  1.1117 -0.3062  0.0387
 6011SOL    HW220926   0.758   1.437   4.320  0.1720  1.7864 -0.0107
 6012SOL     OW20927   4.190   4.241   8.895  0.5165  0.5634 -0.2879
 6012SOL    HW120928   4.198   4.214   8.803 -1.6264  0.3882 -0.4660
 6012SOL    HW220929   4.241   4.176   8.943  0.0771 -0.4907 -1.1984
 6013SOL     OW20930   4.225   8.972   5.306  0.2577  0.5975 -0.1379
 6013SOL    HW120931   4.288   9.024   5.357  1.8668 -0.1008 -1.3514
 6013SOL    HW220932   4.217   9.019   5.223  1.2390 -0.7049 -1.0059
 6014SOL     OW20933   8.945   8.770   9.067  0.2829  0.0584 -0.4198
 6014SOL    HW120934   9.022   8.724   9.101  1.4025  1.3784 -1.0675
 6014SOL    HW220935   8.978   8.819   8.992 -1.0444  1.2292 -0.2778
 6015SOL     OW20936   3.483   0.664   1.122 -0.1113 -0.3266  1.0579
 6015SOL    HW120937   3.493   0.757   1.104  1.4615 -0.9793 -2.4848
 6015SOL    HW220938   3.435   0.630   1.047  2.7201 -2.8484  0.1556
 6016SOL     OW20939   1.919   6.038   2.396  0.0706 -0.1686  0.5393
 6016SOL    HW120940   1.955   6.048   2.308 -1.0621 -0.4664  0.0240
 6016SOL    HW220941   1.826   6.022   2.382  0.1068 -1.6110  1.7247
 6017SOL     OW20942   5.815   1.858   4.799 -0.0510  0.1135  0.2884
 6017SOL    HW120943   5.821   1.910   4.878 -1.2261  0.0404  0.4497
 6017SOL    HW220944   5.809   1.767   4.830  1.2603 -0.0867  0.0350
 6018SOL     OW20945   8.240   1.084   0.079 -0.4713  0.6114  0.1469
 6018SOL    HW120946   8.212   1.026   0.009  0.5720 -0.2119  0.3941
 6018SOL    HW220947   8.269   1.164   0.034 -0.6373  0.4323 -0.2850
 6019SOL     OW20948   4.593   2.064   6.946 -0.0380 -0.3634  0.3491
 6019SOL    HW120949   4.590   2.155   6.974 -0.8083 -0.4245  0.4936
 6019SOL    HW220950   4.554   2.064   6.859 -0.0265 -0.5513  0.3429
 6020SOL     OW20951   2.730   3.993   5.614 -0.1981  0.1039  0.2531
 6020SOL    HW120952   2.643   4.011   5.578 -0.4212 -1.5679 -0.1386
 6020SOL    HW220953   2.779   3.958   5.539  0.1058 -1.0673  0.9812
 6021SOL     OW20954   5.508   7.390   3.275 -0.3024  0.0877 -0.4760
 6021SOL    HW120955   5.603   7.399   3.268 -0.0846  1.9471  2.8010
 6021SOL    HW220956   5.495   7.326   3.345 -1.4772  0.0451 -0.7076
 6022SOL     OW20957   5.110   7.352   8.761 -0.0900  0.1049  0.2019
 6022SOL    HW120958   5.055   7.336   8.837 -1.7118  0.0477 -0.9268
 6022SOL    HW220959   5.052   7.397   8.699  1.0917 -0.1211 -1.1134
 6023SOL     OW20960   5.940   3.913   2.561  0.4012  0.5624  0.4807
 6023SOL    HW120961   5.943   3.881   2.470  3.2985  0.0990  0.6428
 6023SOL    HW220962   5.877   3.855   2.604 -0.2166  0.0933 -0.9911
 6024SOL     OW20963   3.314   5.186   8.324 -0.5439  0.5641  0.1900
 6024SOL    HW120964   3.410   5.188   8.321 -0.5227 -0.8446 -1.2115
 6024SOL    HW220965   3.287   5.268   8.284  0.0794  0.8450  0.3342
 6025SOL     OW20966   6.673   0.358   5.399  0.5211  0.3164 -0.6598
 6025SOL    HW120967   6.691   0.445   5.435  2.0456 -0.2725  0.0957
 6025SOL    HW220968   6.741   0.345   5.333 -0.4256  0.1542 -1.6418
 6026SOL     OW20969   7.252   1.938   7.701 -0.0939 -0.3090  0.1883
 6026SOL    HW120970   7.281   1.847   7.704 -0.1422 -0.3326 -0.0071
 6026SOL    HW220971   7.164   1.935   7.662 -0.0470 -0.1709  0.0649
 6027SOL     OW20972   1.719   4.408   0.016  0.0222  0.0008 -0.3281
 6027SOL    HW120973   1.668   4.488   0.028  0.4071  0.1691  0.1993
 6027SOL    HW220974   1.733   4.403  -0.079  0.9448  1.1622 -0.2815
 6028SOL     OW20975   2.191   0.536   0.747 -0.1503  0.1965  0.2114
 6028SOL    HW120976   2.184   0.493   0.662  0.1836  0.2666  0.1495
 6028SOL    HW220977   2.225   0.623   0.727  0.0934  0.1518  0.4357
 6029SOL     OW20978   6.135   6.095   7.227 -0.1019  0.1492  0.5169
 6029SOL    HW120979   6.051   6.080   7.185  0.2908  0.1979 -0.3286
 6029SOL    HW220980   6.198   6.097   7.154  0.6738 -0.2108  1.1500
 6030SOL     OW20981   5.368   4.015   2.944  0.2955  0.4925 -0.3307
 6030SOL    HW120982   5.430   4.029   2.872 -0.1795  0.0963 -0.8272
 6030SOL    HW220983   5.314   3.941   2.915 -0.4870  0.9071  0.0416
 6031SOL     OW20984   8.736   3.986   7.720 -0.3135 -0.1468 -0.1101
 6031SOL    HW120985   8.727   3.926   7.793 -1.2390 -1.1818 -1.0405
 6031SOL    HW220986   8.659   4.042   7.725  0.3150  0.6883  0.4850
 6032SOL     OW20987   0.122   7.963   0.968 -0.7314  0.0361 -0.2971
 6032SOL    HW120988   0.203   7.926   1.002 -1.6054 -0.6702  1.1314
 6032SOL    HW220989   0.150   8.029   0.904  0.8989 -2.5176 -2.4152
 6033SOL     OW20990   1.660   5.842   7.997 -0.4650 -0.0497 -0.5009
 6033SOL    HW120991   1.675   5.749   7.978 -0.1413 -0.3543  1.0692
 6033SOL    HW220992   1.748   5.879   8.004 -0.5951  0.4087 -1.1998
 6034SOL     OW20993   6.363   6.413   6.655  0.0793  0.0850 -0.2214
 6034SOL    HW120994   6.303   6.454   6.593 -0.1102 -0.9266 -0.7346
 6034SOL    HW220995   6.420   6.358   6.601 -1.1390 -2.1096  0.5979
 6035SOL     OW20996   7.430   6.041   3.479  0.4094 -0.1829  0.0960
 6035SOL    HW120997   7.386   6.124   3.459  0.4774 -0.2018 -0.1302
 6035SOL    HW220998   7.361   5.986   3.515 -0.1455 -0.7758 -1.7604
 6036SOL     OW20999   2.927   1.811   0.501  0.3162  0.1191  0.2810
 6036SOL    HW121000   2.996   1.748   0.484 -1.2617 -2.4804  2.6984
 6036SOL    HW221001   2.950   1.852   0.584  1.3610  2.9915 -1.2839
 6037SOL     OW21002   0.273   2.744   6.609 -0.7679 -0.4882 -0.4510
 6037SOL    HW121003   0.353   2.774   6.653 -0.2356 -0.2344 -1.5607
 6037SOL    HW221004   0.218   2.823   6.604 -1.7403 -0.9649  1.5994
 6038SOL     OW21005   1.004   8.175   4.926  0.5493  0.0989  0.0672
 6038SOL    HW121006   0.923   8.226   4.920  0.7217  0.1955 -2.4081
 6038SOL    HW221007   1.069   8.229   4.881  1.7960 -0.4115  1.2021
 6039SOL     OW21008   8.054   5.972   8.204  0.4228  0.1485  0.0617
 6039SOL    HW121009   7.970   5.928   8.192  1.8683 -2.4461 -1.2696
 6039SOL    HW221010   8.049   6.008   8.293 -2.4340  1.0101 -0.3411
 6040SOL     OW21011   2.670   3.309   1.656 -0.3117  0.2389  0.3161
 6040SOL    HW121012   2.744   3.271   1.703 -1.4922 -0.5801  1.5861
 6040SOL    HW221013   2.699   3.398   1.633  1.0361 -0.0563  0.8025
 6041SOL     OW21014   5.608   6.563   7.093 -0.0752 -0.1760  0.5411
 6041SOL    HW121015   5.599   6.481   7.142 -2.1435  0.3058  1.0449
 6041SOL    HW221016   5.640   6.626   7.158  1.5503 -0.5366  0.1451
 6042SOL     OW21017   3.903   7.230   4.636 -0.1551 -0.1626 -0.7174
 6042SOL    HW121018   3.827   7.280   4.607 -1.7384 -1.4364  1.0336
 6042SOL    HW221019   3.964   7.295   4.670 -2.1561  0.6905  1.5209
 6043SOL     OW21020   8.672   2.307   6.012 -0.1000  0.3838  0.1188
 6043SOL    HW121021   8.662   2.403   6.007 -0.7347  0.2724 -1.7658
 6043SOL    HW221022   8.743   2.293   6.073 -1.2787  1.9775  1.9721
 6044SOL     OW21023   5.769   7.607   5.882 -0.4392 -0.2058 -0.0240
 6044SOL    HW121024   5.850   7.572   5.844 -0.1220  0.2583  0.2050
 6044SOL    HW221025   5.709   7.615   5.809 -0.0418  0.1028 -0.3219
 6045SOL     OW21026   1.865   2.428   8.977  0.4298  0.0806  0.1848
 6045SOL    HW121027   1.807   2.385   8.915  0.6038  0.3275 -0.1557
 6045SOL    HW221028   1.946   2.444   8.928  0.4289  0.6340  0.3506
 6046SOL     OW21029   2.606   9.206   8.515 -0.7980  0.4049  0.2663
 6046SOL    HW121030   2.578   9.181   8.427 -0.9475 -0.5722  0.5770
 6046SOL    HW221031   2.682   9.151   8.532 -0.0428  1.4316  0.3015
 6047SOL     OW21032   8.628   8.059   7.442 -0.3068 -0.0762 -0.4734
 6047SOL    HW121033   8.659   7.982   7.491 -1.2988 -0.4011 -0.3378
 6047SOL    HW221034   8.551   8.089   7.490 -0.6625  0.2478 -1.2320
 6048SOL     OW21035   8.330   0.201   8.687  0.3879  0.5275  0.7345
 6048SOL    HW121036   8.283   0.280   8.661 -2.2940 -0.7877  1.2990
 6048SOL    HW221037   8.362   0.163   8.605 -1.3934  0.3789  0.0714
 6049SOL     OW21038   2.492   2.544   7.911  0.1929  0.0794 -0.2533
 6049SOL    HW121039   2.536   2.623   7.943  0.9724 -0.2272 -0.5502
 6049SOL    HW221040   2.441   2.514   7.986 -0.7049  1.2606 -0.3476
 6050SOL     OW21041   6.616   6.540   9.019 -0.5316  0.2475 -0.3611
 6050SOL    HW121042   6.703   6.557   8.984  0.4533  0.0456  1.8297
 6050SOL    HW221043   6.593   6.453   8.988  1.4130 -1.0035  1.4668
 6051SOL     OW21044   4.363   1.805   4.858 -0.2660 -0.7853 -0.8390
 6051SOL    HW121045   4.332   1.715   4.853 -0.3554 -0.7841 -0.3196
 6051SOL    HW221046   4.414   1.817   4.778  0.4403 -1.5610 -0.5254
 6052SOL     OW21047   7.655   7.473   4.190  0.5195  0.5070  0.0081
 6052SOL    HW121048   7.712   7.495   4.116  0.9780  2.2508  0.8343
 6052SOL    HW221049   7.603   7.551   4.205 -1.1070 -0.5573  0.2116
 6053SOL     OW21050   2.366   4.498   1.341 -0.0075  0.1234  0.5124
 6053SOL    HW121051   2.332   4.502   1.252  0.9028  3.4481  0.1868
 6053SOL    HW221052   2.293   4.526   1.396 -1.0503 -3.3272  1.1303
 6054SOL     OW21053   5.151   7.352   6.939  0.1097 -0.2273  0.3723
 6054SOL    HW121054   5.216   7.400   6.990 -0.4685  1.3512 -0.3054
 6054SOL    HW221055   5.072   7.405   6.946 -0.0191  0.0459 -2.0590
 6055SOL     OW21056   7.563   2.761   1.959  0.1057 -0.2051 -0.2039
 6055SOL    HW121057   7.476   2.750   1.919  0.6215 -1.5307 -1.0327
 6055SOL    HW221058   7.545   2.768   2.053 -0.8381 -1.7322 -0.2362
 6056SOL     OW21059   6.109   1.284   6.482  0.3149  0.3071 -0.3405
 6056SOL    HW121060   6.127   1.300   6.575  0.8005 -0.7836 -0.2331
 6056SOL    HW221061   6.014   1.293   6.474 -0.4256 -3.8463  1.2210
 6057SOL     OW21062   0.266   4.753   1.805  0.5890  0.0669 -0.4435
 6057SOL    HW121063   0.222   4.768   1.889 -0.3453 -1.5744 -0.5831
 6057SOL    HW221064   0.335   4.819   1.801  1.7587 -0.8227  2.3956
 6058SOL     OW21065   6.433   0.490   5.376 -0.4158 -0.2067 -0.1757
 6058SOL    HW121066   6.421   0.555   5.306  0.6342 -0.0878 -0.2533
 6058SOL    HW221067   6.498   0.429   5.342  0.0282 -0.2094  0.6528
 6059SOL     OW21068   1.498   6.641   2.616  0.2579 -0.1762  0.0647
 6059SOL    HW121069   1.583   6.606   2.591  0.0915 -0.3849 -0.2200
 6059SOL    HW221070   1.451   6.650   2.533  0.4631  1.1756  0.0733
 6060SOL     OW21071   5.378   2.783   7.322  0.4716 -0.5932  0.0450
 6060SOL    HW121072   5.419   2.715   7.269  2.4782  0.8840 -0.4326
 6060SOL    HW221073   5.445   2.850   7.331 -1.8919  2.0633 -0.7880
 6061SOL     OW21074   8.113   9.237   3.539  0.2041 -0.2184  0.1166
 6061SOL    HW121075   8.111   9.144   3.518  0.6250 -0.2065  0.0020
 6061SOL    HW221076   8.201   9.266   3.512  0.2251  0.1186  0.5303
 6062SOL     OW21077   3.784   5.262   7.503 -0.0317  0.0621  0.2421
 6062SOL    HW121078   3.717   5.253   7.571  0.1813  1.0779  0.5951
 6062SOL    HW221079   3.737   5.301   7.429 -0.0840 -0.3036  0.0805
 6063SOL     OW21080   7.662   8.318   4.102  0.1964 -0.2637 -0.2811
 6063SOL    HW121081   7.738   8.356   4.146 -0.1760  2.5301 -1.7580
 6063SOL    HW221082   7.587   8.364   4.141 -0.4884 -0.9881 -0.7295
 6064SOL     OW21083   1.720   1.303   3.103 -0.2160  0.2205  0.3180
 6064SOL    HW121084   1.686   1.391   3.120 -1.1640 -0.2212  0.8098
 6064SOL    HW221085   1.646   1.257   3.062  0.2926 -0.3241  0.0022
 6065SOL     OW21086   9.075   2.579   3.566  0.0058 -0.1224  0.4658
 6065SOL    HW121087   9.041   2.521   3.498  1.6523 -2.2137  1.3113
 6065SOL    HW221088   9.140   2.633   3.521 -0.2678 -0.1503  0.0300
 6066SOL     OW21089   6.806   9.228   3.142 -0.2757  0.0391 -0.4380
 6066SOL    HW121090   6.845   9.147   3.174  2.2314  1.1287 -0.5045
 6066SOL    HW221091   6.879   9.290   3.138 -2.3782  2.8784  1.3121
 6067SOL     OW21092   1.302   3.235   2.862 -0.3267 -0.1590 -0.0352
 6067SOL    HW121093   1.211   3.228   2.890 -0.9496 -0.0795 -1.9015
 6067SOL    HW221094   1.305   3.191   2.777  0.9119  1.5451 -0.9434
 6068SOL     OW21095   2.026   8.876   5.647 -0.2049 -0.5437  0.6495
 6068SOL    HW121096   2.074   8.825   5.582 -0.5280  0.2765 -0.2613
 6068SOL    HW221097   2.061   8.965   5.639 -0.0086 -0.4970  1.8493
 6069SOL     OW21098   7.861   3.224   4.400  0.5547  0.0518 -0.5203
 6069SOL    HW121099   7.832   3.299   4.349 -0.5882 -0.1923 -0.2653
 6069SOL    HW221100   7.956   3.223   4.391  0.5645  1.4085 -0.6807
 6070SOL     OW21101   0.151   2.515   1.152 -0.1093  0.1136  0.3575
 6070SOL    HW121102   0.136   2.524   1.246  2.4436 -1.9240  1.0514
 6070SOL    HW221103   0.122   2.426   1.131 -0.7509  0.5788 -0.8501
 6071SOL     OW21104   0.204   5.288   2.455  0.2969  0.1616 -0.2975
 6071SOL    HW121105   0.133   5.337   2.495 -0.2201 -0.2790 -0.6604
 6071SOL    HW221106   0.283   5.334   2.482 -0.1708  1.1749 -0.6160
 6072SOL     OW21107   6.241   3.500   7.922  0.1147  0.0931  0.1081
 6072SOL    HW121108   6.311   3.559   7.951  0.1742 -0.0337  0.2245
 6072SOL    HW221109   6.175   3.506   7.990 -0.2721  0.6920 -0.3050
 6073SOL     OW21110   9.209   6.623   4.868 -0.0713  0.1791  0.2197
 6073SOL    HW121111   9.236   6.714   4.867  1.1532 -0.1643 -0.1476
 6073SOL    HW221112   9.151   6.614   4.792 -0.8707  0.8287  0.7457
 6074SOL     OW21113   6.015   8.204   3.270  0.3551  0.6126 -0.1886
 6074SOL    HW121114   5.927   8.186   3.237  0.0411 -0.3664  1.0755
 6074SOL    HW221115   6.067   8.128   3.242  0.3690  0.3604  0.4915
 6075SOL     OW21116   2.530   3.785   3.989  0.0516 -0.0436  0.4900
 6075SOL    HW121117   2.469   3.792   3.916  1.0397  0.8284 -0.2746
 6075SOL    HW221118   2.607   3.741   3.953 -0.1388 -1.2069  1.4644
 6076SOL     OW21119   2.507   3.670   4.248  0.1375  0.1927  0.3142
 6076SOL    HW121120   2.539   3.756   4.274 -1.6737  1.1471 -0.3603
 6076SOL    HW221121   2.485   3.680   4.155 -0.2972 -0.9301  0.2765
 6077SOL     OW21122   7.143   4.198   1.742 -0.6209  0.4044  0.1958
 6077SOL    HW121123   7.171   4.110   1.717 -1.0577  0.5159 -0.7222
 6077SOL    HW221124   7.155   4.200   1.837  2.2849  0.3934 -0.0699
 6078SOL     OW21125   3.026   2.467   7.752 -0.6253  0.4917 -0.2048
 6078SOL    HW121126   3.095   2.520   7.713 -0.7266  0.4555 -0.4392
 6078SOL    HW221127   2.958   2.529   7.777  0.7763  0.9347  2.9471
 6079SOL     OW21128   5.891   5.823   7.004  0.8376  0.0602  0.0065
 6079SOL    HW121129   5.834   5.862   7.071 -0.9537 -0.8700 -0.9020
 6079SOL    HW221130   5.866   5.866   6.923  2.0116  0.1823 -0.3097
 6080SOL     OW21131   9.018   1.393   8.139 -0.0540 -0.2264  0.2934
 6080SOL    HW121132   8.991   1.302   8.132  0.2916 -0.2328 -1.5502
 6080SOL    HW221133   9.052   1.415   8.052 -0.2162  1.6891  0.6604
 6081SOL     OW21134   1.823   0.158   6.675 -0.0932 -0.0163 -0.3610
 6081SOL    HW121135   1.760   0.185   6.743  0.1044 -0.0198 -0.1748
 6081SOL    HW221136   1.809   0.221   6.604 -0.9981 -0.6133 -0.7340
 6082SOL     OW21137   4.447   6.856   2.920  0.5992  0.2720  0.0751
 6082SOL    HW121138   4.507   6.789   2.887 -1.6236 -2.4746  1.1588
 6082SOL    HW221139   4.380   6.864   2.852 -0.5476 -0.6616  1.0336
 6083SOL     OW21140   7.869   7.115   8.535  0.4580  0.3717  0.1729
 6083SOL    HW121141   7.916   7.060   8.473  0.4524 -0.6906  1.0800
 6083SOL    HW221142   7.777   7.101   8.515  0.4296 -0.5373  0.8535
 6084SOL     OW21143   3.491   8.356   1.358 -0.0548  0.3592  0.0808
 6084SOL    HW121144   3.452   8.429   1.309 -0.1891  0.7653  0.7877
 6084SOL    HW221145   3.530   8.301   1.290  1.6694  2.0305 -0.3560
 6085SOL     OW21146   4.921   3.450   5.766 -0.4676 -0.7076 -0.5121
 6085SOL    HW121147   4.968   3.374   5.800 -0.4080 -1.5591 -2.3955
 6085SOL    HW221148   4.829   3.432   5.783 -0.4336 -1.0980 -0.7283
 6086SOL     OW21149   1.130   6.635   2.657 -0.3116 -0.4082  0.6332
 6086SOL    HW121150   1.207   6.600   2.613 -0.1444  1.3939 -0.6062
 6086SOL    HW221151   1.161   6.660   2.744  1.0487  1.9425 -0.4163
 6087SOL     OW21152   2.048   7.782   1.926  0.2641  0.0891 -0.4679
 6087SOL    HW121153   2.123   7.781   1.986  0.5219  2.6079 -0.6553
 6087SOL    HW221154   1.978   7.824   1.976 -0.7048 -1.1998 -0.6904
 6088SOL     OW21155   8.749   4.364   8.553  0.7453  0.5384  0.5345
 6088SOL    HW121156   8.814   4.417   8.600  0.2702  1.3253  0.3353
 6088SOL    HW221157   8.679   4.351   8.617  0.9734 -0.0704  0.6615
 6089SOL     OW21158   7.823   9.207   3.281 -0.3549  0.2498  0.3291
 6089SOL    HW121159   7.758   9.144   3.250 -1.3863  1.2668  0.3507
 6089SOL    HW221160   7.775   9.263   3.341  1.0307 -0.1636  1.8836
 6090SOL     OW21161   7.760   6.940   4.095  0.3261 -0.1808  0.0116
 6090SOL    HW121162   7.727   6.971   4.179  0.1816  0.2334 -0.1952
 6090SOL    HW221163   7.776   7.020   4.044  0.8387 -0.4051 -0.1946
 6091SOL     OW21164   0.848   2.068   5.757  0.2202  0.3759 -0.3306
 6091SOL    HW121165   0.781   2.012   5.716  1.7731  0.0933 -2.6570
 6091SOL    HW221166   0.811   2.090   5.843 -1.4223 -2.4225 -0.1874
 6092SOL     OW21167   0.203   2.956   5.842  0.0111 -0.3450 -0.3825
 6092SOL    HW121168   0.178   2.902   5.917  1.7252 -0.4285  0.1803
 6092SOL    HW221169   0.200   2.896   5.767  3.0833 -1.6833  0.4169
 6093SOL     OW21170   8.702   5.788   4.967  0.5511 -0.2842  0.0908
 6093SOL    HW121171   8.693   5.726   4.894  0.9162 -0.2312 -0.0011
 6093SOL    HW221172   8.779   5.757   5.015  1.6814  0.9873 -0.8365
 6094SOL     OW21173   7.584   5.861   0.791  0.2864 -0.4334  0.0095
 6094SOL    HW121174   7.510   5.810   0.824 -0.4743  1.7042  1.8456
 6094SOL    HW221175   7.610   5.816   0.711 -2.2603 -1.9200 -0.0944
 6095SOL     OW21176   7.197   4.482   5.047  0.4549  0.1778  0.2752
 6095SOL    HW121177   7.185   4.388   5.059  0.5010  0.1823  0.3587
 6095SOL    HW221178   7.217   4.492   4.954 -0.2733  0.1791  0.1171
 6096SOL     OW21179   8.803   0.582   3.003 -0.4599  0.3211  0.3740
 6096SOL    HW121180   8.852   0.630   3.069  0.2453 -0.0768  0.1491
 6096SOL    HW221181   8.797   0.641   2.928  1.1438 -0.2349 -0.2181
 6097SOL     OW21182   1.868   0.639   6.290  0.6266 -0.1361  0.6046
 6097SOL    HW121183   1.777   0.671   6.288  0.5704 -0.3223 -0.2867
 6097SOL    HW221184   1.914   0.695   6.228  0.7193 -1.1975 -0.3142
 6098SOL     OW21185   5.035   3.008   3.827 -0.2654 -0.2695 -0.0251
 6098SOL    HW121186   4.961   2.978   3.774 -0.0717  1.3681 -1.3082
 6098SOL    HW221187   5.089   2.930   3.839 -0.7938 -0.9005 -1.4960
 6099SOL     OW21188   3.644   7.596   4.245  0.0010 -0.5639  0.0201
 6099SOL    HW121189   3.703   7.536   4.201 -0.2098 -0.6991 -0.0791
 6099SOL    HW221190   3.565   7.545   4.262 -0.2840 -0.2372 -0.3171
 6100SOL     OW21191   4.395   7.921   5.801 -0.2782  0.1159  0.8825
 6100SOL    HW121192   4.376   7.934   5.708 -1.6007 -0.1395  1.0959
 6100SOL    HW221193   4.379   8.006   5.841  1.6947  0.6134  0.6897
 6101SOL     OW21194   4.597   7.260   2.415 -0.6056  0.0643 -0.2055
 6101SOL    HW121195   4.557   7.224   2.494 -0.2046 -0.7769 -0.3797
 6101SOL    HW221196   4.633   7.345   2.443  0.1654 -0.5364  0.7075
 6102SOL     OW21197   8.057   4.236   7.864 -0.3397 -0.1781 -0.5708
 6102SOL    HW121198   7.993   4.302   7.892 -0.2832 -0.0665 -0.7022
 6102SOL    HW221199   8.136   4.259   7.912 -0.4736 -0.4836 -0.1958
 6103SOL     OW21200   8.683   8.581   6.108 -0.5355  0.5183  0.2881
 6103SOL    HW121201   8.652   8.492   6.125 -2.4539  0.8724 -1.0020
 6103SOL    HW221202   8.628   8.636   6.164 -0.1965  0.9673  0.1806
 6104SOL     OW21203   7.000   6.205   4.598 -0.5287 -0.6119 -0.1011
 6104SOL    HW121204   6.993   6.276   4.663  0.2055 -0.3009 -0.3489
 6104SOL    HW221205   7.078   6.227   4.548  0.2591 -2.1142  0.4256
 6105SOL     OW21206   6.588   0.840   5.665 -0.0379  0.0870  0.5004
 6105SOL    HW121207   6.584   0.745   5.677 -0.3971 -0.3215 -2.0829
 6105SOL    HW221208   6.497   0.867   5.655  0.1578  0.3016 -0.9514
 6106SOL     OW21209   1.216   1.718   3.596  0.3079  0.6216 -0.2848
 6106SOL    HW121210   1.182   1.728   3.507  1.2597  1.8540 -0.5553
 6106SOL    HW221211   1.142   1.739   3.653  0.0611  1.2308 -0.8190
 6107SOL     OW21212   5.714   3.477   6.210 -0.2292 -0.4104 -0.2698
 6107SOL    HW121213   5.646   3.485   6.143  0.0915 -0.9870 -0.6676
 6107SOL    HW221214   5.788   3.436   6.165  0.1540 -0.3795  0.3212
 6108SOL     OW21215   2.379   8.512   4.758  0.0372 -0.4183 -0.1258
 6108SOL    HW121216   2.427   8.512   4.841  1.0327 -2.1476 -0.6613
 6108SOL    HW221217   2.396   8.599   4.721  0.9262 -0.2139  0.7228
 6109SOL     OW21218   6.758   6.015   7.354  0.6538 -0.0117 -0.0798
 6109SOL    HW121219   6.722   6.016   7.265  0.8507  1.8651 -0.1638
 6109SOL    HW221220   6.836   6.070   7.349  2.8990 -2.8993  0.4021
 6110SOL     OW21221   4.606   8.255   1.332 -0.5665  0.0992 -0.2850
 6110SOL    HW121222   4.631   8.205   1.410 -2.1934  0.5789  0.5947
 6110SOL    HW221223   4.559   8.192   1.278  0.8669 -0.3278 -1.0931
 6111SOL     OW21224   2.741   6.168   4.148  0.0694  0.1334  1.0261
 6111SOL    HW121225   2.803   6.177   4.076 -2.0154  0.7132 -0.8038
 6111SOL    HW221226   2.750   6.248   4.199  0.5724  0.3485  0.5951
 6112SOL     OW21227   2.735   6.896   5.795 -0.3133 -0.2735  0.2469
 6112SOL    HW121228   2.746   6.803   5.778  1.3031  0.1452 -1.3402
 6112SOL    HW221229   2.824   6.929   5.808 -0.5741  1.4740 -1.8355
 6113SOL     OW21230   6.710   8.737   3.303  0.1145 -0.0981 -0.2812
 6113SOL    HW121231   6.686   8.712   3.392  0.9983  0.7697  0.2044
 6113SOL    HW221232   6.630   8.776   3.267 -0.0061  0.2806  0.3957
 6114SOL     OW21233   5.813   2.830   8.916 -0.2347 -0.0470  0.0681
 6114SOL    HW121234   5.834   2.791   8.832  0.0045  1.9326 -0.8633
 6114SOL    HW221235   5.895   2.870   8.945 -0.5884  0.2380  0.6998
 6115SOL     OW21236   1.317   7.793   8.411 -0.0084 -0.0713  0.2226
 6115SOL    HW121237   1.369   7.768   8.487  0.5030  1.7757  0.5390
 6115SOL    HW221238   1.234   7.748   8.422  0.0840  0.1048  1.8348
 6116SOL     OW21239   2.941   7.161   3.972  0.3017  0.1891 -0.6486
 6116SOL    HW121240   2.928   7.068   3.994  0.3521  0.1568 -0.7529
 6116SOL    HW221241   2.912   7.208   4.050  1.0263  0.0552 -0.2947
 6117SOL     OW21242   4.792   1.845   3.314  0.2625  0.1554  0.1232
 6117SOL    HW121243   4.705   1.855   3.275 -0.7871 -0.4891  2.1245
 6117SOL    HW221244   4.811   1.931   3.353  0.7802  0.4521 -0.7619
 6118SOL     OW21245   6.518   0.671   1.389 -0.3731 -0.8287 -1.0180
 6118SOL    HW121246   6.489   0.602   1.449  1.0305 -0.5730 -0.0066
 6118SOL    HW221247   6.482   0.751   1.427  2.1375 -0.3963  0.7185
 6119SOL     OW21248   5.522   2.285   9.147 -0.1380 -0.0846  0.3218
 6119SOL    HW121249   5.601   2.322   9.188 -0.1871  0.5923 -0.1718
 6119SOL    HW221250   5.517   2.196   9.181  1.1594 -0.3301 -0.0717
 6120SOL     OW21251   1.109   3.256   1.504 -0.7462  0.3741  0.2207
 6120SOL    HW121252   1.131   3.348   1.521 -0.3803  0.7626 -2.0167
 6120SOL    HW221253   1.021   3.258   1.467 -0.9162 -0.2490  0.5655
 6121SOL     OW21254   4.226   6.528   8.068  0.2466  0.1262  0.6154
 6121SOL    HW121255   4.230   6.433   8.057  1.7832  0.1433  0.7882
 6121SOL    HW221256   4.181   6.560   7.990  0.8841 -0.6535 -0.0902
 6122SOL     OW21257   4.084   5.764   8.193 -0.3502 -0.0035  0.3454
 6122SOL    HW121258   4.063   5.800   8.107  2.8620  3.4796  0.7655
 6122SOL    HW221259   4.151   5.698   8.175 -0.3846  0.0174  0.1366
 6123SOL     OW21260   5.630   0.213   6.863  0.3575 -0.0720 -0.7603
 6123SOL    HW121261   5.558   0.275   6.872  0.9950  0.6178 -0.2935
 6123SOL    HW221262   5.608   0.162   6.785 -2.9079 -2.9667  1.7264
 6124SOL     OW21263   7.839   8.403   6.106 -0.0233 -0.0622 -0.1453
 6124SOL    HW121264   7.870   8.374   6.192 -0.9780 -1.7987 -0.3312
 6124SOL    HW221265   7.787   8.481   6.125  0.9430  0.4044  0.6720
 6125SOL     OW21266   3.882   6.221   1.229 -0.0136  0.0446  0.4675
 6125SOL    HW121267   3.904   6.214   1.136  1.5369  0.9912  0.7198
 6125SOL    HW221268   3.790   6.244   1.231  0.0624  0.5332 -0.8627
 6126SOL     OW21269   0.817   5.838   5.678 -0.5414  0.2940 -0.1663
 6126SOL    HW121270   0.888   5.893   5.711 -0.3898 -0.0918  0.1575
 6126SOL    HW221271   0.745   5.853   5.739 -0.7042  0.6005 -0.4309
 6127SOL     OW21272   5.535   5.478   6.927 -0.1861 -0.4891 -1.1885
 6127SOL    HW121273   5.566   5.398   6.970  0.4133  0.2904 -0.0972
 6127SOL    HW221274   5.464   5.449   6.870 -0.4505 -1.7078 -0.2877
 6128SOL     OW21275   5.783   7.234   6.308  0.1343 -0.6135 -0.4712
 6128SOL    HW121276   5.793   7.328   6.318  1.5527 -0.7204 -0.7397
 6128SOL    HW221277   5.784   7.220   6.213 -0.6496 -0.8555 -0.4531
 6129SOL     OW21278   6.424   6.042   4.461 -0.4146 -0.2979  0.3650
 6129SOL    HW121279   6.371   6.121   4.450  0.2335  0.3438  1.6027
 6129SOL    HW221280   6.389   5.980   4.397 -1.6789  0.6059  0.1469
 6130SOL     OW21281   5.018   6.219   0.624 -0.4191 -0.4680  0.4324
 6130SOL    HW121282   5.100   6.269   0.627 -2.1287  2.8121 -1.3799
 6130SOL    HW221283   4.966   6.255   0.696 -2.1462  1.4507 -1.6500
 6131SOL     OW21284   6.000   4.759   7.608 -0.1342 -0.5782  0.2648
 6131SOL    HW121285   5.999   4.744   7.513  2.8302 -0.9898  0.2037
 6131SOL    HW221286   5.908   4.768   7.632 -0.9459  3.3114 -3.2003
 6132SOL     OW21287   1.641   6.293   2.913  0.6468  0.8396 -0.2413
 6132SOL    HW121288   1.662   6.368   2.969  0.4483  1.8066 -1.4143
 6132SOL    HW221289   1.721   6.240   2.914  1.4855  2.0453 -0.8941
 6133SOL     OW21290   7.620   7.819   3.981  0.3053  0.1908 -0.0547
 6133SOL    HW121291   7.701   7.866   3.959  0.1914  0.5094  0.2010
 6133SOL    HW221292   7.616   7.823   4.077 -0.6985  1.3333 -0.1181
 6134SOL     OW21293   6.746   6.126   1.256  0.9177 -0.5096 -0.1047
 6134SOL    HW121294   6.651   6.121   1.251  1.0418 -2.0482 -2.9346
 6134SOL    HW221295   6.763   6.188   1.327 -2.1973  3.7258 -2.6171
 6135SOL     OW21296   4.414   1.264   8.869  0.6990 -0.4405  0.0146
 6135SOL    HW121297   4.425   1.251   8.963 -0.7427  2.7422  0.7796
 6135SOL    HW221298   4.356   1.193   8.841 -0.3453 -0.3926  1.9398
 6136SOL     OW21299   4.260   2.601   1.274 -0.4591 -0.2201  0.0924
 6136SOL    HW121300   4.194   2.557   1.328 -2.5621  1.5256 -0.8540
 6136SOL    HW221301   4.255   2.693   1.301  1.7128 -0.0357  0.0374
 6137SOL     OW21302   4.889   8.843   3.535 -0.3633  0.1143  0.1952
 6137SOL    HW121303   4.875   8.881   3.448  0.9158  1.8843  0.7025
 6137SOL    HW221304   4.802   8.816   3.564 -1.0335  0.8753 -1.0339
 6138SOL     OW21305   2.122   0.793   1.623  0.0862  0.2442  0.8283
 6138SOL    HW121306   2.154   0.782   1.533 -1.0118  0.0176  0.4578
 6138SOL    HW221307   2.202   0.793   1.676  0.9383  2.4118 -0.3016
 6139SOL     OW21308   2.295   2.604   3.207  0.3753 -0.4463 -0.2403
 6139SOL    HW121309   2.224   2.606   3.143 -0.0707 -0.0415  0.2588
 6139SOL    HW221310   2.253   2.575   3.288  1.3202 -3.1097 -0.5779
 6140SOL     OW21311   3.093   5.861   2.539  0.7092 -0.5608 -0.3025
 6140SOL    HW121312   3.001   5.881   2.556  1.1347 -0.7472  2.9347
 6140SOL    HW221313   3.095   5.768   2.519  0.2565 -0.7042  0.3034
 6141SOL     OW21314   5.263   5.611   1.545 -0.3654  0.2122  0.7328
 6141SOL    HW121315   5.338   5.671   1.541 -0.2467  0.0278  0.1589
 6141SOL    HW221316   5.294   5.537   1.597  0.7375 -1.0887 -1.6312
 6142SOL     OW21317   0.574   6.873   1.309 -0.2912 -0.0656 -0.4685
 6142SOL    HW121318   0.487   6.913   1.318 -0.1539  0.5217 -1.5797
 6142SOL    HW221319   0.582   6.817   1.385 -0.6616  1.7167  0.9504
 6143SOL     OW21320   3.457   7.897   1.696 -0.3768  0.3367  0.5328
 6143SOL    HW121321   3.453   7.958   1.622 -0.8457  0.1372  0.3945
 6143SOL    HW221322   3.369   7.861   1.703  0.3891 -1.9731 -0.7705
 6144SOL     OW21323   3.612   5.003   4.754  0.1462  0.0178 -0.0921
 6144SOL    HW121324   3.579   4.913   4.746 -0.0564  0.0243  0.5945
 6144SOL    HW221325   3.562   5.052   4.689 -1.0997 -0.0155  0.8007
 6145SOL     OW21326   1.647   2.907   7.632  0.7460  0.2426 -0.5783
 6145SOL    HW121327   1.728   2.921   7.680  1.0238 -2.0062 -0.3181
 6145SOL    HW221328   1.664   2.942   7.544  1.7499  0.3845 -0.3356
 6146SOL     OW21329   4.375   3.842   1.779  0.4347 -0.4082 -0.2595
 6146SOL    HW121330   4.332   3.925   1.760 -0.6980 -0.8849  0.0781
 6146SOL    HW221331   4.468   3.863   1.787  0.5751  0.3379 -3.0120
 6147SOL     OW21332   3.401   2.914   1.355  0.6785 -0.9136  0.7615
 6147SOL    HW121333   3.380   2.841   1.414  0.8138  1.2371  3.7184
 6147SOL    HW221334   3.413   2.989   1.413 -0.2662  1.7189 -2.1334
 6148SOL     OW21335   0.614   2.704   1.419  0.2420 -0.1879 -0.6159
 6148SOL    HW121336   0.681   2.723   1.353  0.9571 -2.6078 -0.6582
 6148SOL    HW221337   0.641   2.755   1.495  1.8699 -0.7025 -0.8003
 6149SOL     OW21338   2.394   1.521   8.190  0.3414  0.5432 -0.6051
 6149SOL    HW121339   2.325   1.457   8.208  0.5379  0.0985 -1.4415
 6149SOL    HW221340   2.476   1.472   8.197  0.7616  1.4137  2.1298
 6150SOL     OW21341   1.556   2.447   2.142  0.3281  0.6261 -0.3766
 6150SOL    HW121342   1.646   2.415   2.140  0.6996  1.5529  0.6385
 6150SOL    HW221343   1.504   2.375   2.107  1.3263 -0.4073  0.2048
 6151SOL     OW21344   2.452   2.733   5.791  0.1196 -0.6645  0.2064
 6151SOL    HW121345   2.432   2.804   5.851 -0.0168 -1.1810  0.7759
 6151SOL    HW221346   2.487   2.663   5.846  0.8364 -0.8190 -0.4189
 6152SOL     OW21347   3.056   5.806   7.915  0.3287  0.2122 -0.0434
 6152SOL    HW121348   2.975   5.837   7.956  0.3834  1.1343 -0.6137
 6152SOL    HW221349   3.099   5.886   7.885  1.4767 -0.2685  0.2920
 6153SOL     OW21350   2.533   3.421   3.125 -0.4832 -0.1441  0.1058
 6153SOL    HW121351   2.525   3.343   3.071 -1.3904  0.0220 -0.0190
 6153SOL    HW221352   2.479   3.404   3.201  0.1617 -0.0562  0.5922
 6154SOL     OW21353   7.509   0.736   2.749  0.2619  0.3822 -0.1427
 6154SOL    HW121354   7.445   0.807   2.753  0.2660  0.4323 -0.7913
 6154SOL    HW221355   7.460   0.662   2.711  0.3703  0.1747  0.1205
 6155SOL     OW21356   5.426   6.787   2.346 -0.0812  0.0763 -0.5024
 6155SOL    HW121357   5.496   6.801   2.410 -1.0130 -2.2029  1.1377
 6155SOL    HW221358   5.469   6.745   2.271  0.1806 -3.1050  1.2555
 6156SOL     OW21359   4.872   4.716   8.217 -0.4277  0.0746  0.3647
 6156SOL    HW121360   4.887   4.624   8.237  0.0532  0.0905  0.0845
 6156SOL    HW221361   4.778   4.728   8.227 -0.4978 -0.4601  0.3402
 6157SOL     OW21362   5.587   7.976   0.976 -0.3413  0.3442  0.4099
 6157SOL    HW121363   5.559   8.062   1.008  1.0249  1.2527 -0.6840
 6157SOL    HW221364   5.673   7.963   1.015 -0.9034 -0.9669  1.2674
 6158SOL     OW21365   0.677   7.958   6.146  0.5131 -0.2957 -0.1026
 6158SOL    HW121366   0.727   7.999   6.076  0.2869 -0.2087 -0.2153
 6158SOL    HW221367   0.627   7.889   6.102 -0.9721  0.8893 -0.3413
 6159SOL     OW21368   0.965   1.196   4.864  0.5373  0.0196 -0.0240
 6159SOL    HW121369   0.887   1.182   4.811 -1.8312  2.3804  2.5467
 6159SOL    HW221370   0.992   1.108   4.891 -2.2258 -0.8223  0.2681
 6160SOL     OW21371   7.892   1.531   9.027  0.0969  0.2890  0.1774
 6160SOL    HW121372   7.880   1.622   9.057  0.6934  0.5458 -0.3272
 6160SOL    HW221373   7.811   1.510   8.982 -0.8152 -0.1027  1.9385
 6161SOL     OW21374   5.262   8.765   3.052 -0.0267 -0.0381  0.0910
 6161SOL    HW121375   5.262   8.718   2.968  0.4705 -1.6830  0.9688
 6161SOL    HW221376   5.248   8.857   3.028 -2.4192 -0.7395 -1.6307
 6162SOL     OW21377   8.755   5.634   6.067  0.6474 -0.2698  0.2910
 6162SOL    HW121378   8.798   5.604   5.986 -0.9577  1.4974 -1.3217
 6162SOL    HW221379   8.679   5.578   6.076 -0.8608  1.3967 -1.2225
 6163SOL     OW21380   4.595   4.249   8.321  0.2368  0.0202  0.0985
 6163SOL    HW121381   4.580   4.343   8.335 -2.5658 -0.2936 -0.3072
 6163SOL    HW221382   4.592   4.239   8.226 -2.3678 -0.7951  0.1889
 6164SOL     OW21383   8.035   1.553   5.012 -0.5765  0.1537  0.5334
 6164SOL    HW121384   7.949   1.537   4.973 -0.3124  0.1954 -0.0818
 6164SOL    HW221385   8.019   1.622   5.077 -0.9075  0.5726  0.0207
 6165SOL     OW21386   4.992   2.850   1.800 -0.5564  0.0252 -0.3342
 6165SOL    HW121387   5.025   2.843   1.711  0.5443 -0.2333  0.0813
 6165SOL    HW221388   5.066   2.883   1.851 -1.7404  2.0971  0.1471
 6166SOL     OW21389   8.675   4.966   2.597  0.0702  0.4653 -0.1995
 6166SOL    HW121390   8.738   4.907   2.555  1.6320  1.7283  0.2675
 6166SOL    HW221391   8.707   4.975   2.687 -0.4568  1.5775 -0.1141
 6167SOL     OW21392   5.869   4.387   2.527 -0.1271 -0.5413 -0.9785
 6167SOL    HW121393   5.954   4.395   2.571 -0.2579  0.8731 -0.9086
 6167SOL    HW221394   5.881   4.316   2.464  1.6567  0.6692 -2.1082
 6168SOL     OW21395   0.115   3.737   5.776  0.1970  0.9673  0.0397
 6168SOL    HW121396   0.130   3.649   5.811 -0.4886  0.1494 -1.6105
 6168SOL    HW221397   0.199   3.782   5.788  1.1787 -0.5567 -0.8436
 6169SOL     OW21398   0.376   8.789   1.429 -0.4414 -0.0237  0.1530
 6169SOL    HW121399   0.442   8.799   1.498 -0.5744 -1.3248  0.4876
 6169SOL    HW221400   0.294   8.775   1.476 -0.7991  0.5767 -0.2743
 6170SOL     OW21401   2.044   2.473   5.890 -0.3316 -0.0801 -0.0544
 6170SOL    HW121402   2.094   2.431   5.820 -1.7094  0.4947 -1.4461
 6170SOL    HW221403   2.053   2.567   5.874  1.8612  0.2575  2.4185
 6171SOL     OW21404   7.428   5.441   8.583  0.3616  0.0133 -0.1588
 6171SOL    HW121405   7.368   5.392   8.528  0.3990  0.1635 -0.3327
 6171SOL    HW221406   7.453   5.517   8.531  0.2846  0.2326  0.1192
 6172SOL     OW21407   4.574   1.654   5.481 -0.1691 -0.2053  0.1280
 6172SOL    HW121408   4.593   1.701   5.562 -0.8373  1.8794 -0.8516
 6172SOL    HW221409   4.490   1.611   5.497 -0.1718 -0.0129  0.6480
 6173SOL     OW21410   3.937   4.862   8.414  0.2964  0.0934 -0.1190
 6173SOL    HW121411   4.032   4.872   8.423  0.6076 -1.1206 -1.5527
 6173SOL    HW221412   3.927   4.803   8.339 -1.6008  0.2874 -0.0540
 6174SOL     OW21413   2.459   6.107   2.950 -0.5749 -0.0398  0.7436
 6174SOL    HW121414   2.542   6.154   2.956 -1.2070  1.2117  0.0189
 6174SOL    HW221415   2.414   6.126   3.032 -0.4938 -0.0443  0.7889
 6175SOL     OW21416   5.757   1.217   6.569  0.1977 -0.3768  0.0164
 6175SOL    HW121417   5.755   1.121   6.570 -0.4586 -0.4245  2.4374
 6175SOL    HW221418   5.697   1.242   6.640  3.0512  1.7027  1.9391
 6176SOL     OW21419   3.311   5.729   5.284 -0.7314  0.1625  0.5017
 6176SOL    HW121420   3.248   5.743   5.214  0.6397 -0.3156 -0.8804
 6176SOL    HW221421   3.384   5.787   5.263  0.9752 -2.0793 -0.1751
 6177SOL     OW21422   8.258   6.602   5.275 -0.0111  0.1568  0.3019
 6177SOL    HW121423   8.241   6.694   5.255  0.9652  0.3290  0.1983
 6177SOL    HW221424   8.310   6.603   5.355  0.7260 -0.2464 -0.1510
 6178SOL     OW21425   2.777   6.301   0.603 -0.1492  0.3017  0.0913
 6178SOL    HW121426   2.854   6.324   0.655 -0.7703 -2.7589  2.7507
 6178SOL    HW221427   2.803   6.221   0.556 -1.5844 -0.7354  0.9776
 6179SOL     OW21428   7.424   5.524   9.047 -0.0017  0.3966 -1.0105
 6179SOL    HW121429   7.370   5.517   9.126 -0.4719 -0.2983 -1.3837
 6179SOL    HW221430   7.424   5.436   9.010  1.7910  0.2696 -0.7776
 6180SOL     OW21431   1.054   1.330   2.783  0.7246 -0.8070  0.4870
 6180SOL    HW121432   1.099   1.250   2.757 -0.2401 -1.1781 -0.0828
 6180SOL    HW221433   0.962   1.306   2.783  0.5621 -0.3624  2.6824
 6181SOL     OW21434   9.181   1.014   6.566 -0.0528 -0.3923  0.1662
 6181SOL    HW121435   9.274   1.018   6.546 -0.0353 -0.4037  0.2471
 6181SOL    HW221436   9.145   0.956   6.499 -0.5492  2.2171 -2.0385
 6182SOL     OW21437   1.567   8.900   1.430 -0.4505 -0.1645  0.1166
 6182SOL    HW121438   1.638   8.880   1.491 -0.1088  1.5357  0.3319
 6182SOL    HW221439   1.588   8.849   1.352  0.0696 -0.9998  0.7868
 6183SOL     OW21440   7.901   4.848   5.427 -0.3442  0.0252  0.4835
 6183SOL    HW121441   7.885   4.783   5.496 -1.9629  1.7575  1.8520
 6183SOL    HW221442   7.818   4.852   5.379 -0.0327  0.5797 -0.0142
 6184SOL     OW21443   7.130   8.811   3.091 -0.0302 -0.0457  0.0886
 6184SOL    HW121444   7.177   8.866   3.153  1.8972 -1.7118  0.2080
 6184SOL    HW221445   7.163   8.723   3.108  0.2565 -0.6344 -2.9922
 6185SOL     OW21446   6.865   6.274   0.059 -0.2435 -0.2252 -0.2920
 6185SOL    HW121447   6.941   6.323   0.028 -1.2559  1.4279 -0.2915
 6185SOL    HW221448   6.901   6.189   0.087  1.1584 -0.6028 -2.9229
 6186SOL     OW21449   2.553   0.647   5.360 -0.6633 -0.0491  0.3205
 6186SOL    HW121450   2.509   0.732   5.370  1.4491  1.0736  0.7044
 6186SOL    HW221451   2.610   0.658   5.284 -1.9378 -1.9084 -0.9865
 6187SOL     OW21452   8.910   4.557   2.969  0.0137 -0.5811  0.5193
 6187SOL    HW121453   8.973   4.498   2.928 -0.6537 -0.2228 -1.1155
 6187SOL    HW221454   8.959   4.638   2.985  0.2844 -0.7299  0.4383
 6188SOL     OW21455   5.338   7.486   0.039  0.0037 -0.0512  0.0975
 6188SOL    HW121456   5.314   7.464  -0.051  0.6356  0.1317 -0.1124
 6188SOL    HW221457   5.353   7.580   0.038  0.6373 -0.1490  0.2537
 6189SOL     OW21458   8.206   5.751   5.025  0.4045 -0.1933 -0.1546
 6189SOL    HW121459   8.198   5.846   5.016 -1.6009 -0.3342 -0.1355
 6189SOL    HW221460   8.127   5.716   4.984  0.3448 -1.7867  1.2178
 6190SOL     OW21461   3.772   2.303   3.138  0.1990 -0.5702  0.0472
 6190SOL    HW121462   3.817   2.376   3.181  0.5713 -1.3788  1.0853
 6190SOL    HW221463   3.743   2.339   3.054  0.6304  0.6793  0.4005
 6191SOL     OW21464   4.984   7.649   8.879 -0.0754  0.2136  0.1231
 6191SOL    HW121465   4.911   7.687   8.831  0.3088 -1.5661 -2.0298
 6191SOL    HW221466   5.046   7.621   8.811  0.3263 -2.7942  1.5576
 6192SOL     OW21467   3.948   1.816   0.522 -0.1568 -0.2127 -0.4572
 6192SOL    HW121468   3.966   1.902   0.559  0.7204 -1.2741  1.7333
 6192SOL    HW221469   3.881   1.832   0.456 -1.3096  1.9234  1.1091
 6193SOL     OW21470   7.316   3.298   3.380  0.0682  0.2944  0.2008
 6193SOL    HW121471   7.243   3.260   3.331 -0.0739  0.5712  0.1955
 6193SOL    HW221472   7.382   3.228   3.384 -0.4714 -0.1985  0.8033
 6194SOL     OW21473   5.335   1.327   7.955 -0.3581 -0.3050  0.1590
 6194SOL    HW121474   5.263   1.375   7.996 -0.1086 -0.3442  0.6442
 6194SOL    HW221475   5.408   1.389   7.954 -0.9938  0.5239 -2.3399
 6195SOL     OW21476   7.506   8.934   2.786 -0.5178 -0.8521  0.0241
 6195SOL    HW121477   7.599   8.950   2.803 -0.8298  2.6832 -0.8625
 6195SOL    HW221478   7.463   8.947   2.870 -0.4131 -0.3156 -0.0050
 6196SOL     OW21479   2.458   0.221   4.057  0.2531  0.4374  0.1886
 6196SOL    HW121480   2.437   0.147   4.000  2.0859 -0.8151  1.0017
 6196SOL    HW221481   2.548   0.245   4.033  0.0093  1.8025  0.5732
 6197SOL     OW21482   0.919   1.056   1.166 -0.3720  0.0766  0.3279
 6197SOL    HW121483   0.983   1.121   1.136 -3.4189  3.8520  1.1645
 6197SOL    HW221484   0.927   1.058   1.262 -1.0326 -0.2001  0.3908
 6198SOL     OW21485   0.169   4.222   1.536  0.1540  0.1586 -0.5059
 6198SOL    HW121486   0.250   4.254   1.498  0.5843  0.4220  0.5967
 6198SOL    HW221487   0.177   4.127   1.533  2.2935  0.0588  3.0991
 6199SOL     OW21488   1.009   6.888   3.754 -0.3873 -0.1708 -0.3482
 6199SOL    HW121489   1.017   6.796   3.728  1.0040  0.0605 -0.7933
 6199SOL    HW221490   1.019   6.887   3.849 -0.0948 -0.4560 -0.3793
 6200SOL     OW21491   2.879   2.154   0.029  0.4279 -0.0411  0.3701
 6200SOL    HW121492   2.949   2.127  -0.030  0.4438 -0.2177  0.4678
 6200SOL    HW221493   2.799   2.147  -0.023  0.4156 -0.4132  0.4330
 6201SOL     OW21494   6.807   4.594   0.721  0.1990 -0.1984  0.3745
 6201SOL    HW121495   6.888   4.561   0.682 -0.1482 -0.8996  0.2459
 6201SOL    HW221496   6.827   4.601   0.815  0.3370 -0.5731  0.3738
 6202SOL     OW21497   5.979   3.737   3.044  0.0536  0.7146  0.8896
 6202SOL    HW121498   6.030   3.792   2.984  0.9822 -1.1470 -0.1098
 6202SOL    HW221499   5.932   3.676   2.987  1.0209 -1.1665  1.9917
 6203SOL     OW21500   6.362   6.095   5.752  0.3604  0.6613  0.2177
 6203SOL    HW121501   6.355   6.190   5.760  0.5586  0.6483  0.5956
 6203SOL    HW221502   6.330   6.075   5.664  3.9906  1.4610 -1.4464
 6204SOL     OW21503   2.453   2.784   6.224  0.1470 -0.6586  0.0547
 6204SOL    HW121504   2.534   2.802   6.176  0.2679 -1.4198 -0.0284
 6204SOL    HW221505   2.483   2.752   6.309  0.0115  3.1248  1.7433
 6205SOL     OW21506   8.378   8.915   6.910 -0.1338  0.6972 -0.2255
 6205SOL    HW121507   8.399   8.979   6.978  0.7523  1.2554 -1.0041
 6205SOL    HW221508   8.394   8.830   6.952  2.0425  1.0505 -0.2078
 6206SOL     OW21509   4.418   2.347   6.772  0.6305 -0.0687  0.1056
 6206SOL    HW121510   4.323   2.336   6.774  0.8689 -3.6899 -0.5892
 6206SOL    HW221511   4.434   2.433   6.810 -2.7239 -0.7274  3.5398
 6207SOL     OW21512   1.958   5.900   6.595  0.5306 -0.4207 -0.0021
 6207SOL    HW121513   1.864   5.916   6.590  0.7573  1.0242 -0.2933
 6207SOL    HW221514   1.974   5.875   6.686  0.1048  1.3098  0.5955
 6208SOL     OW21515   4.364   6.162   1.138 -0.1885 -0.8459  0.4206
 6208SOL    HW121516   4.308   6.178   1.214 -1.4825 -2.6564 -0.0622
 6208SOL    HW221517   4.302   6.149   1.065  1.0040  0.6031 -0.9209
 6209SOL     OW21518   5.538   0.520   2.841  0.2271 -0.4851  0.6848
 6209SOL    HW121519   5.605   0.454   2.825  0.4895  0.0023 -0.3243
 6209SOL    HW221520   5.455   0.473   2.834  0.4323 -0.8580  0.7583
 6210SOL     OW21521   7.856   6.424   2.622  0.0769  0.3231  0.0503
 6210SOL    HW121522   7.804   6.483   2.676 -0.5585 -0.5042  0.3647
 6210SOL    HW221523   7.793   6.384   2.562  0.3637 -0.5794  0.3307
 6211SOL     OW21524   3.892   7.060   4.994  0.6284  0.7340  0.1886
 6211SOL    HW121525   3.919   7.000   5.064 -1.0917  1.6584  1.7303
 6211SOL    HW221526   3.970   7.069   4.938  0.8917 -3.0959 -0.3111
 6212SOL     OW21527   8.074   3.981   6.544 -0.0249 -0.3279 -0.4950
 6212SOL    HW121528   8.161   4.005   6.512  0.1432  1.6281  1.2014
 6212SOL    HW221529   8.014   4.014   6.477  0.4460  1.0568 -0.2811
 6213SOL     OW21530   7.359   0.799   9.257  0.1224 -0.6489 -0.6067
 6213SOL    HW121531   7.436   0.783   9.203  0.4280  1.7764 -0.9991
 6213SOL    HW221532   7.286   0.766   9.204  0.7596 -1.8384 -0.7652
 6214SOL     OW21533   4.116   8.980   8.332  0.0728  0.2891 -0.2358
 6214SOL    HW121534   4.131   8.899   8.284 -0.2224 -0.8080  1.4291
 6214SOL    HW221535   4.200   9.026   8.329 -0.0359  0.4217 -2.0217
 6215SOL     OW21536   5.433   1.939   4.157 -0.5110  0.2134  0.5823
 6215SOL    HW121537   5.377   1.869   4.189 -0.5530 -0.2338 -0.4193
 6215SOL    HW221538   5.393   1.967   4.075  0.7356 -0.1533 -0.1856
 6216SOL     OW21539   5.676   0.844   8.190  0.1149 -0.4001 -0.0355
 6216SOL    HW121540   5.632   0.859   8.106  0.3835  0.6373  0.0024
 6216SOL    HW221541   5.754   0.794   8.168 -0.2047 -0.7915 -0.3021
 6217SOL     OW21542   2.917   4.315   0.068 -0.0952  0.6774 -0.7642
 6217SOL    HW121543   2.983   4.379   0.093 -1.8855  2.3774 -0.0667
 6217SOL    HW221544   2.834   4.354   0.097 -1.3129 -1.8555 -0.5536
 6218SOL     OW21545   1.916   4.308   8.311 -0.0834 -0.2207 -0.1335
 6218SOL    HW121546   1.971   4.314   8.232 -0.2966  1.1737 -0.1925
 6218SOL    HW221547   1.833   4.349   8.286  0.0029  0.6477  0.9333
 6219SOL     OW21548   0.704   8.376   7.862 -0.2223 -0.0091  0.4356
 6219SOL    HW121549   0.631   8.373   7.925 -0.4879  1.0760  0.2116
 6219SOL    HW221550   0.702   8.291   7.818 -1.3793  0.0048  0.4261
 6220SOL     OW21551   2.314   4.173   6.389 -0.4205  0.0831  0.4892
 6220SOL    HW121552   2.291   4.258   6.351  0.0571  0.3932  0.8813
 6220SOL    HW221553   2.387   4.142   6.335  0.1532  0.4498  1.0480
 6221SOL     OW21554   6.420   1.354   1.799 -0.1909 -0.3817  0.2020
 6221SOL    HW121555   6.425   1.286   1.732 -0.2367 -1.1257  0.9389
 6221SOL    HW221556   6.478   1.324   1.869 -1.9979 -0.8823  1.5720
 6222SOL     OW21557   2.585   0.044   0.802 -0.1331 -0.1982 -0.4409
 6222SOL    HW121558   2.507   0.002   0.766  0.9907 -1.5736 -1.3710
 6222SOL    HW221559   2.607   0.112   0.739 -0.2901 -0.1579 -0.4523
 6223SOL     OW21560   4.736   5.248   8.172  0.3497  0.1063 -0.1409
 6223SOL    HW121561   4.757   5.223   8.262  2.0329  0.3805 -0.4224
 6223SOL    HW221562   4.645   5.279   8.176 -0.2956 -1.7326  1.0607
 6224SOL     OW21563   4.512   5.580   8.951 -0.1306 -0.2798 -0.8456
 6224SOL    HW121564   4.484   5.665   8.918 -1.1673 -0.3698 -0.2082
 6224SOL    HW221565   4.440   5.521   8.930 -0.4450 -0.5206  0.7637
 6225SOL     OW21566   4.405   1.807   1.012  0.1863 -0.6484  0.5501
 6225SOL    HW121567   4.391   1.763   1.095  0.5897  1.2465  1.7026
 6225SOL    HW221568   4.471   1.754   0.967 -1.3192 -2.6725  0.6075
 6226SOL     OW21569   8.114   2.064   8.681 -0.3112  0.4345 -0.0503
 6226SOL    HW121570   8.071   1.998   8.734 -1.5114  0.2587 -1.1840
 6226SOL    HW221571   8.042   2.113   8.641  0.5545  1.1085 -0.8273
 6227SOL     OW21572   3.621   6.265   5.126 -0.3275  0.3614 -0.2179
 6227SOL    HW121573   3.675   6.292   5.201 -0.3100 -1.2606  0.3765
 6227SOL    HW221574   3.679   6.211   5.073 -0.6932  0.5360 -0.7997
 6228SOL     OW21575   5.866   7.322   1.426 -0.0091 -0.6427 -0.0042
 6228SOL    HW121576   5.955   7.322   1.462 -0.2962  0.6876  0.7445
 6228SOL    HW221577   5.861   7.241   1.375  1.8823 -0.3636 -0.7037
 6229SOL     OW21578   6.520   3.814   6.624  0.6782 -0.2741 -0.0100
 6229SOL    HW121579   6.478   3.803   6.709 -2.6018 -1.0542 -1.5709
 6229SOL    HW221580   6.565   3.898   6.630 -0.1389  0.0658  2.2264
 6230SOL     OW21581   8.621   1.209   2.706 -0.1978  0.3949 -0.4051
 6230SOL    HW121582   8.678   1.217   2.630 -0.1807  1.2034 -0.3135
 6230SOL    HW221583   8.628   1.117   2.732  2.5189  0.8450  0.7427
 6231SOL     OW21584   6.050   1.939   7.320 -0.6461 -0.1114  0.1704
 6231SOL    HW121585   6.029   1.939   7.413  2.1339 -0.6067  0.8736
 6231SOL    HW221586   6.054   1.847   7.296 -1.2519  0.0114 -0.4239
 6232SOL     OW21587   3.547   4.106   0.358  0.6779  0.1244 -0.0420
 6232SOL    HW121588   3.523   4.195   0.384  1.9303 -0.0918  1.9607
 6232SOL    HW221589   3.463   4.060   0.351  0.0162  1.4235 -1.1241
 6233SOL     OW21590   4.448   2.725   7.650  0.6367  0.3260  0.1270
 6233SOL    HW121591   4.473   2.741   7.741  0.7759 -0.6913  0.2816
 6233SOL    HW221592   4.352   2.733   7.650  0.6681  0.7555  0.2629
 6234SOL     OW21593   5.147   8.556   1.242 -0.0066  0.0204 -0.2763
 6234SOL    HW121594   5.083   8.617   1.278  0.9771  0.3131  1.0813
 6234SOL    HW221595   5.186   8.513   1.318  0.3130 -1.2972 -1.1372
 6235SOL     OW21596   7.960   4.578   5.775  0.3784  0.2700 -0.6436
 6235SOL    HW121597   7.892   4.523   5.814  0.3712  0.0429 -0.9699
 6235SOL    HW221598   8.022   4.592   5.846  0.1793  0.1695 -0.4451
 6236SOL     OW21599   6.927   1.867   8.941  0.1818 -0.2633  0.5307
 6236SOL    HW121600   6.871   1.914   9.003 -0.8548 -2.7432  1.6106
 6236SOL    HW221601   6.912   1.774   8.960  3.8040 -1.0941  0.0637
 6237SOL     OW21602   3.690   7.927   2.186 -0.4343 -0.1946  0.1423
 6237SOL    HW121603   3.707   8.021   2.193  1.2628 -0.4536 -0.0241
 6237SOL    HW221604   3.772   7.891   2.154 -1.7137 -1.5053 -1.8059
 6238SOL     OW21605   6.501   5.268   9.088  0.4272 -0.3747  0.0157
 6238SOL    HW121606   6.475   5.354   9.055  1.1508 -0.1241  0.0736
 6238SOL    HW221607   6.517   5.216   9.010 -1.6666 -1.0134 -0.0554
 6239SOL     OW21608   1.218   2.923   3.522  0.2896  0.3148  0.4847
 6239SOL    HW121609   1.182   2.947   3.436 -0.4541  0.0214  0.7021
 6239SOL    HW221610   1.140   2.906   3.576  0.7502  0.6886  1.2722
 6240SOL     OW21611   1.394   4.278   0.620 -0.3771  0.3788  0.0817
 6240SOL    HW121612   1.477   4.315   0.592  1.5303 -2.1781  1.7926
 6240SOL    HW221613   1.402   4.271   0.715 -3.5439  2.0804  0.6138
 6241SOL     OW21614   3.313   3.601   6.812  0.8017  0.1131 -0.2966
 6241SOL    HW121615   3.388   3.642   6.857  0.8906 -0.1734 -0.1765
 6241SOL    HW221616   3.336   3.604   6.720  0.1044  1.7575 -0.4634
 6242SOL     OW21617   1.347   1.721   8.482 -0.4370 -0.2529  0.5607
 6242SOL    HW121618   1.338   1.762   8.396 -0.2891  0.9693  1.1028
 6242SOL    HW221619   1.417   1.658   8.471  1.0267  1.3370  0.2636
 6243SOL     OW21620   5.052   5.838   3.480 -0.3369 -0.7612 -0.2363
 6243SOL    HW121621   4.964   5.802   3.471 -0.3262 -0.7420 -0.4164
 6243SOL    HW221622   5.046   5.900   3.552 -0.3038 -1.2958  0.2369
 6244SOL     OW21623   6.901   8.523   3.716 -0.1589  0.0146 -0.1153
 6244SOL    HW121624   6.943   8.522   3.630  0.2793  0.5484  0.0815
 6244SOL    HW221625   6.898   8.431   3.742 -0.7481 -0.2004 -0.9105
 6245SOL     OW21626   2.327   0.273   4.294 -0.0889 -0.1517  0.5692
 6245SOL    HW121627   2.279   0.354   4.312  2.0049  1.2735  0.1647
 6245SOL    HW221628   2.350   0.279   4.201  1.3310 -0.4836  0.8743
 6246SOL     OW21629   1.804   6.866   8.540 -0.2999 -0.0386  0.1191
 6246SOL    HW121630   1.760   6.782   8.554 -0.8127  0.3539  0.8573
 6246SOL    HW221631   1.897   6.844   8.540 -0.3485 -0.3551  2.1155
 6247SOL     OW21632   0.892   1.376   7.056 -0.1284 -0.2370 -0.3133
 6247SOL    HW121633   0.888   1.461   7.012 -0.0730 -0.2166 -0.2790
 6247SOL    HW221634   0.832   1.383   7.129  0.1214 -0.1166 -0.1179
 6248SOL     OW21635   1.585   4.918   3.932  0.3638  0.8671 -0.0440
 6248SOL    HW121636   1.512   4.904   3.993  0.5016 -0.4139 -0.1361
 6248SOL    HW221637   1.558   4.993   3.879 -1.3903 -0.1958 -0.7626
 6249SOL     OW21638   5.383   6.436   2.105  0.4312  0.1361 -0.1919
 6249SOL    HW121639   5.315   6.483   2.154  1.4685  2.6600 -1.0042
 6249SOL    HW221640   5.356   6.445   2.013  1.6974  0.9565 -0.5025
 6250SOL     OW21641   7.996   6.299   3.330  0.0756 -0.5116 -0.3796
 6250SOL    HW121642   7.936   6.369   3.302 -0.5836 -0.9572 -0.0870
 6250SOL    HW221643   8.009   6.246   3.251 -0.6929 -0.9754 -0.2008
 6251SOL     OW21644   5.425   8.407   8.530  0.1443 -0.0850 -0.7617
 6251SOL    HW121645   5.449   8.444   8.615  0.4615  0.0355 -0.9013
 6251SOL    HW221646   5.349   8.352   8.548 -1.5567  2.0895 -0.8254
 6252SOL     OW21647   9.177   4.137   8.999  0.1548  0.1726 -0.2763
 6252SOL    HW121648   9.201   4.203   9.064  0.3118 -0.3358  0.1910
 6252SOL    HW221649   9.128   4.185   8.932 -2.7024  0.2760  1.6761
 6253SOL     OW21650   1.067   7.273   3.199  0.2222 -0.0505 -0.1830
 6253SOL    HW121651   0.997   7.326   3.161  0.6014  0.0632 -0.7453
 6253SOL    HW221652   1.123   7.251   3.124  1.2493  0.5629  0.3757
 6254SOL     OW21653   2.362   3.732   2.066  0.1868 -0.7829 -0.1539
 6254SOL    HW121654   2.291   3.732   2.131 -0.8986  0.8315 -1.2796
 6254SOL    HW221655   2.319   3.752   1.983  1.7458 -1.4468 -1.1626
 6255SOL     OW21656   1.028   5.104   6.199  0.2255 -0.3439 -0.2271
 6255SOL    HW121657   1.077   5.022   6.203  0.7389 -0.0163  0.7516
 6255SOL    HW221658   0.941   5.079   6.168  0.2512 -1.3199  0.4369
 6256SOL     OW21659   6.338   5.964   7.081 -0.2708  0.0699  0.4466
 6256SOL    HW121660   6.274   5.898   7.056  1.3250 -1.0373 -0.9096
 6256SOL    HW221661   6.378   5.930   7.161 -1.9297  1.2190  1.8524
 6257SOL     OW21662   4.200   3.599   6.717  0.2638  0.2200 -0.0975
 6257SOL    HW121663   4.252   3.519   6.730 -1.7068 -0.9036  1.3866
 6257SOL    HW221664   4.118   3.568   6.680 -0.8897  1.4224  1.3556
 6258SOL     OW21665   8.612   0.118   1.090 -0.0529  1.0656  0.0533
 6258SOL    HW121666   8.655   0.160   1.165 -1.0665 -0.5770  1.6196
 6258SOL    HW221667   8.527   0.089   1.123 -0.6763  0.5536 -1.8383
 6259SOL     OW21668   8.544   3.237   4.663 -0.0640 -0.6298  0.0786
 6259SOL    HW121669   8.545   3.220   4.569 -1.3973 -1.8049  0.2497
 6259SOL    HW221670   8.524   3.153   4.703 -2.6941  0.4036  1.2154
 6260SOL     OW21671   7.778   0.326   4.936  0.6596  0.2667  0.4817
 6260SOL    HW121672   7.834   0.399   4.963  0.3759  0.7650 -0.2516
 6260SOL    HW221673   7.831   0.248   4.954  0.8011  0.6163  1.6584
 6261SOL     OW21674   7.248   4.251   9.074  0.1752  0.1908  0.0494
 6261SOL    HW121675   7.169   4.296   9.045 -0.0703  0.1360  0.6162
 6261SOL    HW221676   7.262   4.181   9.009  0.1226  0.5947 -0.3999
 6262SOL     OW21677   6.298   1.720   7.057  0.0429 -0.3581  0.4505
 6262SOL    HW121678   6.280   1.814   7.060 -1.7619 -0.6932  2.1502
 6262SOL    HW221679   6.319   1.697   7.148 -1.0968 -1.8497  0.3616
 6263SOL     OW21680   7.323   0.537   6.422  0.2663 -0.4726 -0.9818
 6263SOL    HW121681   7.290   0.566   6.337 -0.4460 -1.0155 -0.9016
 6263SOL    HW221682   7.249   0.492   6.463  0.2252  0.7708  0.4227
 6264SOL     OW21683   6.598   6.539   8.207  0.5024 -0.0407 -0.2271
 6264SOL    HW121684   6.664   6.537   8.277  0.6335  0.2047 -0.3429
 6264SOL    HW221685   6.524   6.585   8.246  0.1022 -0.9910  0.1601
 6265SOL     OW21686   0.002   2.805   1.730 -0.5024 -0.2928  0.6261
 6265SOL    HW121687  -0.092   2.787   1.742 -0.8571  0.4116 -0.8711
 6265SOL    HW221688   0.010   2.898   1.747 -0.4126  0.0128 -0.9676
 6266SOL     OW21689   4.829   7.126   2.784  0.3501 -0.4159 -0.1986
 6266SOL    HW121690   4.746   7.173   2.776  1.1432  1.0869  0.0916
 6266SOL    HW221691   4.811   7.040   2.746 -0.4556  0.9483 -3.2232
 6267SOL     OW21692   2.966   1.080   8.843 -0.2083  0.3223 -0.0410
 6267SOL    HW121693   3.026   1.103   8.771  0.0335  0.1758  0.1112
 6267SOL    HW221694   2.889   1.045   8.799 -0.1047  0.3339 -0.2352
 6268SOL     OW21695   8.542   2.689   0.669 -0.0921  0.0132 -0.2827
 6268SOL    HW121696   8.606   2.748   0.709 -0.6949  0.3679  0.1633
 6268SOL    HW221697   8.463   2.743   0.659  0.6694  0.7172 -4.1038
 6269SOL     OW21698   1.184   5.600   4.578 -0.1222 -0.3557  0.3191
 6269SOL    HW121699   1.160   5.510   4.557 -1.0500  0.1837 -1.0747
 6269SOL    HW221700   1.100   5.644   4.594  0.1668  0.6985 -0.9411
 6270SOL     OW21701   6.968   4.012   1.046 -0.0881 -0.9345  0.2095
 6270SOL    HW121702   6.889   4.065   1.052  0.1839 -0.5974  1.0373
 6270SOL    HW221703   6.966   3.956   1.124  0.4857 -0.9202  0.2421
 6271SOL     OW21704   5.883   0.867   9.078 -0.5605  0.4872 -0.0940
 6271SOL    HW121705   5.944   0.794   9.076 -1.7861 -0.5715 -0.6776
 6271SOL    HW221706   5.883   0.901   8.989 -1.5805 -0.2116 -0.3832
 6272SOL     OW21707   4.069   4.440   3.267  0.3958 -0.5668  0.0711
 6272SOL    HW121708   3.992   4.411   3.316  0.9509 -0.4382  1.0464
 6272SOL    HW221709   4.092   4.524   3.307  1.6887 -1.1168  0.5372
 6273SOL     OW21710   2.762   8.909   2.914  0.3265 -0.5056  0.5321
 6273SOL    HW121711   2.839   8.853   2.908 -0.1041 -1.0274 -0.2238
 6273SOL    HW221712   2.788   8.990   2.871  0.1112 -1.0799 -0.7270
 6274SOL     OW21713   8.111   3.924   7.451  0.1105  0.2688  0.3179
 6274SOL    HW121714   8.018   3.899   7.448 -0.6558  2.8538 -1.1900
 6274SOL    HW221715   8.118   3.978   7.530  0.7725 -1.1903  1.3030
 6275SOL     OW21716   8.255   9.189   1.843 -0.1917 -0.0419  0.4757
 6275SOL    HW121717   8.255   9.096   1.822  2.3691 -0.1527  0.6420
 6275SOL    HW221718   8.292   9.194   1.931 -0.0900  1.1384  0.3822
 6276SOL     OW21719   8.850   3.343   5.378  0.1960 -0.3103  0.5002
 6276SOL    HW121720   8.789   3.282   5.417  0.0671 -1.1056 -0.8994
 6276SOL    HW221721   8.936   3.302   5.389  0.1845 -0.4276  0.1747
 6277SOL     OW21722   2.420   2.180   7.696  0.0661 -0.3552 -0.1272
 6277SOL    HW121723   2.511   2.152   7.683 -0.2719 -1.9790  0.8023
 6277SOL    HW221724   2.368   2.112   7.652 -0.7431 -0.5634  1.1058
 6278SOL     OW21725   1.799   6.004   5.597 -0.0390 -0.0299  0.0261
 6278SOL    HW121726   1.821   5.982   5.688 -1.8344  0.1103  0.5338
 6278SOL    HW221727   1.866   6.067   5.571  0.0866  0.5021  1.5126
 6279SOL     OW21728   6.467   6.961   3.427 -0.1698  0.0650 -0.2954
 6279SOL    HW121729   6.495   6.888   3.373 -0.1869  0.0708 -0.3126
 6279SOL    HW221730   6.539   7.025   3.419  1.2799 -1.1324  2.0741
 6280SOL     OW21731   3.573   1.266   0.466  0.3069 -0.5620  0.3556
 6280SOL    HW121732   3.580   1.242   0.559  0.2995  0.1729  0.5565
 6280SOL    HW221733   3.484   1.299   0.456 -0.6248 -3.0937 -0.5406
 6281SOL     OW21734   1.855   3.033   6.290 -0.7113  0.1734 -0.5532
 6281SOL    HW121735   1.869   3.097   6.360 -1.1084 -0.2217 -0.0992
 6281SOL    HW221736   1.806   3.081   6.223 -0.0025  0.6604 -0.7276
 6282SOL     OW21737   8.497   2.174   1.701  0.1877  0.3202  0.0064
 6282SOL    HW121738   8.422   2.134   1.745  0.4239 -1.7255 -1.3412
 6282SOL    HW221739   8.529   2.107   1.641 -0.0943  2.8792 -3.2784
 6283SOL     OW21740   7.438   4.384   2.194  0.4929 -0.0907  0.2739
 6283SOL    HW121741   7.512   4.351   2.246  0.6372 -0.2702 -0.0426
 6283SOL    HW221742   7.396   4.305   2.160 -0.3273 -0.0294  1.1004
 6284SOL     OW21743   4.554   4.607   3.984 -0.5224 -0.0689  0.1429
 6284SOL    HW121744   4.533   4.662   4.059 -0.4798 -0.2881  0.3149
 6284SOL    HW221745   4.589   4.527   4.021 -2.2443 -0.9510 -0.0306
 6285SOL     OW21746   1.542   2.444   1.639  0.1282 -0.0023 -0.3485
 6285SOL    HW121747   1.501   2.369   1.682 -2.3895  2.3208  1.6269
 6285SOL    HW221748   1.505   2.443   1.550 -2.1344  0.3966  0.5206
 6286SOL     OW21749   4.914   3.318   0.193  0.1423  0.2625 -0.6440
 6286SOL    HW121750   4.837   3.268   0.167  0.2911  0.4688 -1.5164
 6286SOL    HW221751   4.902   3.404   0.152  1.0816  0.1269 -1.2257
 6287SOL     OW21752   3.799   5.230   3.450  0.0570  0.2665 -0.4957
 6287SOL    HW121753   3.704   5.220   3.456  0.1573 -0.0732  0.7463
 6287SOL    HW221754   3.821   5.293   3.518  0.8218 -0.3649 -0.1441
 6288SOL     OW21755   6.928   8.943   7.725  0.1039 -0.4045 -0.3193
 6288SOL    HW121756   6.861   8.973   7.664  0.8271  2.4943  0.1569
 6288SOL    HW221757   7.011   8.957   7.678  0.5684  0.1427  0.6411
 6289SOL     OW21758   6.352   1.511   2.985 -0.1664  0.1747  0.1166
 6289SOL    HW121759   6.404   1.436   3.013  0.7463  0.7591  0.0233
 6289SOL    HW221760   6.348   1.567   3.063 -0.1809  0.3991 -0.0448
 6290SOL     OW21761   7.544   0.718   4.018  0.3036  0.3494 -0.7369
 6290SOL    HW121762   7.533   0.772   3.940  1.7030  0.2765 -1.0190
 6290SOL    HW221763   7.585   0.638   3.986 -0.7548 -0.4402 -0.1617
 6291SOL     OW21764   1.654   1.519   7.275  0.6029  0.1068  0.0834
 6291SOL    HW121765   1.693   1.434   7.254  1.0330 -0.1330  1.7400
 6291SOL    HW221766   1.673   1.533   7.368 -1.1367  1.1216  0.3497
 6292SOL     OW21767   4.796   0.693   2.121  0.2052  0.7371 -0.2050
 6292SOL    HW121768   4.817   0.614   2.171 -0.4515  1.5001  1.3534
 6292SOL    HW221769   4.880   0.723   2.087  0.5273 -0.3465 -0.4097
 6293SOL     OW21770   1.365   7.797   1.156  0.4556 -0.0333 -0.0628
 6293SOL    HW121771   1.455   7.772   1.136  0.0559  0.1613 -2.3925
 6293SOL    HW221772   1.328   7.721   1.200  1.3583 -0.6714 -0.3734
 6294SOL     OW21773   5.461   5.016   8.097  0.1932  0.2955 -0.0548
 6294SOL    HW121774   5.529   4.950   8.107  1.2343  1.2326 -0.7367
 6294SOL    HW221775   5.445   5.020   8.003 -0.2044  0.6842  0.0226
 6295SOL     OW21776   8.668   6.253   3.117 -0.2971  0.3317 -0.5410
 6295SOL    HW121777   8.582   6.275   3.155 -0.2430 -1.5958  0.8444
 6295SOL    HW221778   8.653   6.254   3.023 -2.1449 -0.8820 -0.3182
 6296SOL     OW21779   7.204   2.910   3.881  0.3409 -0.0435  0.4057
 6296SOL    HW121780   7.144   2.892   3.953  2.0535 -0.6577  1.7559
 6296SOL    HW221781   7.196   3.004   3.866 -0.9085 -0.1063  0.5555
 6297SOL     OW21782   6.895   1.253   3.489  0.1450 -1.0788  0.2711
 6297SOL    HW121783   6.847   1.182   3.531 -0.9615 -0.6725 -0.2921
 6297SOL    HW221784   6.831   1.297   3.434  1.1097 -0.3855 -0.3297
 6298SOL     OW21785   6.569   4.826   6.569 -0.0839  0.1843 -0.4428
 6298SOL    HW121786   6.579   4.763   6.498  0.0687 -1.0862  0.6811
 6298SOL    HW221787   6.652   4.873   6.570 -0.4615  0.9570 -1.7561
 6299SOL     OW21788   6.397   0.137   8.092  0.4711  0.1150 -0.2933
 6299SOL    HW121789   6.490   0.143   8.114  0.3156  0.6313  0.2568
 6299SOL    HW221790   6.368   0.228   8.086 -0.3599 -0.0276  1.1254
 6300SOL     OW21791   2.271   0.038   4.846 -0.7985 -0.2950 -0.8931
 6300SOL    HW121792   2.296  -0.035   4.789  0.6932 -0.7921  0.3446
 6300SOL    HW221793   2.352   0.085   4.862 -0.6563 -1.4059  2.4867
 6301SOL     OW21794   3.625   8.008   5.472  0.1383  0.0800  0.8654
 6301SOL    HW121795   3.571   8.048   5.404 -0.8507  0.1076  1.6400
 6301SOL    HW221796   3.574   7.934   5.504  0.2047  0.5395  2.1218
 6302SOL     OW21797   2.712   1.012   8.654  0.4670 -0.2815  0.5850
 6302SOL    HW121798   2.714   1.014   8.559 -1.1636  1.4735  0.5367
 6302SOL    HW221799   2.667   0.930   8.675 -0.9169  0.2270 -0.2465
 6303SOL     OW21800   5.465   8.113   1.556 -0.5163  0.3212  0.2085
 6303SOL    HW121801   5.554   8.079   1.568  0.2708  1.4399 -1.8008
 6303SOL    HW221802   5.418   8.040   1.515  0.2502  0.5272 -1.1162
 6304SOL     OW21803   5.250   8.459   7.701 -0.2555 -0.1331 -0.0398
 6304SOL    HW121804   5.315   8.391   7.717  1.7275  1.2515 -1.7183
 6304SOL    HW221805   5.189   8.451   7.775  1.4958 -1.8376  1.3425
 6305SOL     OW21806   6.489   8.169   2.869  0.0083  0.1949  0.1180
 6305SOL    HW121807   6.503   8.187   2.776  0.8163  1.1828  0.4128
 6305SOL    HW221808   6.516   8.078   2.881  1.9099  0.6777 -0.2228
 6306SOL     OW21809   5.924   2.194   9.246  0.5367 -0.7468  0.0096
 6306SOL    HW121810   5.998   2.133   9.251 -0.2773 -1.7663  0.0440
 6306SOL    HW221811   5.850   2.139   9.220 -0.5180 -0.0410  1.4089
 6307SOL     OW21812   0.988   2.649   7.701  0.2166  0.0537  0.6155
 6307SOL    HW121813   0.943   2.699   7.633 -0.2972  1.4013  1.8781
 6307SOL    HW221814   0.943   2.565   7.704 -1.9686  1.1724  1.5018
 6308SOL     OW21815   6.466   1.596   2.750 -0.3576  0.2002 -0.0940
 6308SOL    HW121816   6.470   1.553   2.835  2.3801  0.6821  0.1004
 6308SOL    HW221817   6.487   1.527   2.687 -0.7525  0.2132 -0.2458
 6309SOL     OW21818   3.327   2.319   1.228 -0.1131  0.1540  0.3283
 6309SOL    HW121819   3.336   2.233   1.269 -0.9212  0.7959  1.9341
 6309SOL    HW221820   3.350   2.304   1.136  1.7586 -1.3372  0.9807
 6310SOL     OW21821   1.092   8.271   1.426 -0.9725  0.1997  0.2439
 6310SOL    HW121822   1.154   8.341   1.406 -1.1085  0.0522 -0.7526
 6310SOL    HW221823   1.031   8.270   1.353 -3.2206  1.4414  1.9651
 6311SOL     OW21824   7.890   1.056   8.901  0.9849  0.1112  0.6237
 6311SOL    HW121825   7.884   1.005   8.982 -1.3938  0.3003  0.6384
 6311SOL    HW221826   7.980   1.042   8.870  0.9092 -2.8360  1.4537
 6312SOL     OW21827   5.099   3.419   8.476  0.5469  0.5294 -0.1359
 6312SOL    HW121828   5.160   3.448   8.408  0.5643  0.3368 -0.2038
 6312SOL    HW221829   5.154   3.403   8.553  0.4521  1.2986  0.0962
 6313SOL     OW21830   5.181   8.687   2.270 -1.2816  0.6983  0.2667
 6313SOL    HW121831   5.256   8.652   2.319 -1.0982  2.0644  1.0187
 6313SOL    HW221832   5.117   8.617   2.271  0.0059 -0.5476 -0.4825
 6314SOL     OW21833   7.396   1.731   9.184  0.2135 -0.1689 -0.5041
 6314SOL    HW121834   7.405   1.652   9.237  0.6705 -0.1723 -0.5823
 6314SOL    HW221835   7.344   1.703   9.108 -0.4871 -0.1526 -0.0433
 6315SOL     OW21836   2.339   9.118   6.122  0.0395  0.7846 -0.0205
 6315SOL    HW121837   2.326   9.025   6.107  0.4673  0.3853  1.8436
 6315SOL    HW221838   2.358   9.154   6.035  0.1711 -0.9016 -0.7274
 6316SOL     OW21839   6.289   7.820   2.901  0.1506  0.1254 -0.5020
 6316SOL    HW121840   6.281   7.748   2.963  1.9765 -0.9072 -1.3715
 6316SOL    HW221841   6.375   7.858   2.919  0.1645  0.6406 -1.5307
 6317SOL     OW21842   9.017   7.805   2.119  0.1718  0.2973  0.3892
 6317SOL    HW121843   8.933   7.846   2.138  0.8594  3.7371 -2.6613
 6317SOL    HW221844   9.080   7.877   2.128  1.8099 -0.4152 -3.4781
 6318SOL     OW21845   8.987   4.858   0.731  0.7639 -0.2479  0.0044
 6318SOL    HW121846   8.895   4.835   0.720 -0.2733  2.7740  1.1566
 6318SOL    HW221847   9.034   4.802   0.670 -1.7225 -2.4357 -0.0665
 6319SOL     OW21848   4.496   4.615   9.002  0.6378 -0.0803  0.3603
 6319SOL    HW121849   4.552   4.541   9.024  0.4306 -0.5413 -0.5877
 6319SOL    HW221850   4.481   4.659   9.085 -0.2934 -1.8430  1.1874
 6320SOL     OW21851   2.479   6.203   1.046 -0.2662  0.1423  0.3374
 6320SOL    HW121852   2.573   6.184   1.038 -0.5757 -1.2121 -0.3372
 6320SOL    HW221853   2.446   6.136   1.105 -0.8943  0.3436  0.2146
 6321SOL     OW21854   2.151   3.254   0.514 -0.4637 -0.1649  0.8139
 6321SOL    HW121855   2.165   3.347   0.529  1.2006 -0.5559  1.9608
 6321SOL    HW221856   2.238   3.219   0.495 -0.8680 -1.6771  1.5983
 6322SOL     OW21857   1.953   1.118   0.051 -0.7496  0.1605  0.2953
 6322SOL    HW121858   1.864   1.086   0.035 -0.0278 -1.3030 -1.1502
 6322SOL    HW221859   1.988   1.059   0.118 -1.0169  1.0633  1.2499
 6323SOL     OW21860   2.044   1.347   1.927 -0.1918  0.1445  0.3312
 6323SOL    HW121861   1.983   1.386   1.989  0.7317  1.3293  0.5338
 6323SOL    HW221862   2.130   1.365   1.963  0.3321 -0.0904 -0.7549
 6324SOL     OW21863   5.614   2.039   5.310  0.4526 -0.4613  0.2224
 6324SOL    HW121864   5.535   2.055   5.363  0.2137  1.1484 -0.5782
 6324SOL    HW221865   5.646   2.126   5.287  1.8174 -1.1088 -0.4480
 6325SOL     OW21866   3.631   1.651   5.828  0.2450  0.4883  0.0722
 6325SOL    HW121867   3.553   1.681   5.780  0.3509  1.3094  0.3901
 6325SOL    HW221868   3.702   1.706   5.794  0.5169  0.3516  0.4117
 6326SOL     OW21869   0.886   4.995   4.765 -0.0602 -0.0135 -0.0688
 6326SOL    HW121870   0.895   5.088   4.743  1.1238  0.3610  1.8023
 6326SOL    HW221871   0.961   4.953   4.724  0.6380  0.2405  0.9195
 6327SOL     OW21872   5.016   6.474   3.177  0.1213 -0.2758 -0.5441
 6327SOL    HW121873   5.092   6.514   3.218  0.6232 -0.5953 -1.1536
 6327SOL    HW221874   5.008   6.388   3.219 -0.5058  0.1420  0.2247
 6328SOL     OW21875   1.305   2.359   3.339  0.5675 -0.0201  0.3860
 6328SOL    HW121876   1.274   2.449   3.328 -0.2154  0.1056  2.9000
 6328SOL    HW221877   1.251   2.308   3.278 -0.1373  1.0252  0.1016
 6329SOL     OW21878   8.477   6.841   5.682 -0.0545  0.2524  0.1273
 6329SOL    HW121879   8.410   6.906   5.662 -0.2065  0.3263  0.8447
 6329SOL    HW221880   8.470   6.828   5.777 -0.5738 -1.4080 -0.1137
 6330SOL     OW21881   0.352   6.244   4.035 -0.2615  0.0364  0.1143
 6330SOL    HW121882   0.318   6.155   4.028 -0.4926  0.0941  0.4566
 6330SOL    HW221883   0.434   6.235   4.083 -0.5903  0.0766  0.6857
 6331SOL     OW21884   5.881   6.314   2.045  0.1912 -0.2125 -0.5268
 6331SOL    HW121885   5.790   6.320   2.018  0.6738  2.5075 -1.8470
 6331SOL    HW221886   5.926   6.380   1.993  2.3788  0.6837  2.2459
 6332SOL     OW21887   0.598   2.248   6.152 -0.3007  0.4440  0.4010
 6332SOL    HW121888   0.625   2.288   6.069 -0.9942  0.5693  0.2364
 6332SOL    HW221889   0.659   2.175   6.164 -1.2321 -0.6202 -1.0560
 6333SOL     OW21890   8.363   7.765   3.263 -0.1391  0.0540 -0.2411
 6333SOL    HW121891   8.400   7.800   3.182  1.1987 -0.9471 -0.0954
 6333SOL    HW221892   8.437   7.761   3.323 -1.0171  0.3182  0.8857
 6334SOL     OW21893   7.673   2.526   5.188 -0.5759  0.3269  0.2889
 6334SOL    HW121894   7.731   2.470   5.135 -1.7630  0.5611 -1.3342
 6334SOL    HW221895   7.675   2.611   5.144 -1.2654  0.6555  0.8789
 6335SOL     OW21896   5.303   0.556   2.614  0.2430 -0.0942 -0.4921
 6335SOL    HW121897   5.284   0.463   2.621 -0.1234 -0.0599 -0.9386
 6335SOL    HW221898   5.388   0.561   2.572  0.2317 -0.2231 -0.5288
 6336SOL     OW21899   4.471   8.379   0.204 -0.3436  1.0692  0.2929
 6336SOL    HW121900   4.425   8.340   0.279 -1.0087  3.4025  1.2005
 6336SOL    HW221901   4.412   8.366   0.130  1.2275 -3.1377 -0.4611
 6337SOL     OW21902   7.261   1.573   3.090 -0.0214  0.1210 -0.1475
 6337SOL    HW121903   7.231   1.506   3.151 -1.3814  1.1389  0.3614
 6337SOL    HW221904   7.301   1.639   3.145 -2.7691  1.8716 -0.0413
 6338SOL     OW21905   6.176   7.540   6.090 -0.2627  0.1993  0.0185
 6338SOL    HW121906   6.170   7.466   6.028 -2.3905  0.9454 -0.7689
 6338SOL    HW221907   6.192   7.616   6.034  0.7056  0.5099  0.7048
 6339SOL     OW21908   3.798   8.138   1.888 -0.0915 -0.0092  0.2816
 6339SOL    HW121909   3.733   8.190   1.842 -0.7595 -1.1890 -0.1593
 6339SOL    HW221910   3.869   8.127   1.825 -0.6910 -1.0180 -0.2527
 6340SOL     OW21911   5.459   8.401   0.637  0.0471 -0.3827  0.3028
 6340SOL    HW121912   5.450   8.492   0.668  0.2148 -0.1359 -0.3650
 6340SOL    HW221913   5.530   8.405   0.573  1.0887 -1.2676  1.3596
 6341SOL     OW21914   3.345   4.728   5.905  0.3984  0.1817 -0.4573
 6341SOL    HW121915   3.333   4.649   5.957 -0.6690  1.0484  0.6634
 6341SOL    HW221916   3.414   4.776   5.951 -1.0004  1.2553  0.5672
 6342SOL     OW21917   5.398   5.360   5.462  0.1547 -0.1532 -0.4839
 6342SOL    HW121918   5.320   5.344   5.409  0.4599  0.4854 -1.1401
 6342SOL    HW221919   5.389   5.450   5.492  0.3597 -0.2639 -0.0783
 6343SOL     OW21920   3.352   5.992   1.779  0.1120 -0.2419  0.2598
 6343SOL    HW121921   3.336   5.898   1.778 -1.1318 -0.0681 -1.4147
 6343SOL    HW221922   3.440   6.002   1.743 -0.0491 -0.7333 -0.2799
 6344SOL     OW21923   2.248   3.046   4.347  0.0340 -0.2036  0.5475
 6344SOL    HW121924   2.338   3.070   4.323 -0.1478  0.6698  0.7028
 6344SOL    HW221925   2.252   2.952   4.364  0.7987 -0.2780  0.0071
 6345SOL     OW21926   1.240   3.480   5.629 -0.1390 -0.0211  0.2881
 6345SOL    HW121927   1.227   3.542   5.700  2.7895 -0.4392  1.2965
 6345SOL    HW221928   1.258   3.397   5.673 -0.4446 -0.8000 -0.9980
 6346SOL     OW21929   2.203   3.791   0.081  0.3742  0.3852 -0.5709
 6346SOL    HW121930   2.189   3.704   0.045  0.5360 -0.1450  0.5960
 6346SOL    HW221931   2.217   3.847   0.005 -2.0849 -0.1480 -1.5112
 6347SOL     OW21932   6.966   4.167   4.605 -0.2062  0.3886 -0.1512
 6347SOL    HW121933   7.055   4.150   4.574 -0.6113 -0.1619 -1.0718
 6347SOL    HW221934   6.977   4.198   4.694  1.1305  3.2024 -1.1637
 6348SOL     OW21935   7.110   4.193   0.191  0.2878  0.0916 -0.2512
 6348SOL    HW121936   7.159   4.134   0.133 -0.7923 -0.0017 -1.1136
 6348SOL    HW221937   7.173   4.219   0.258  1.0823 -1.2038 -0.4588
 6349SOL     OW21938   6.695   0.420   7.083  0.0360 -0.4835 -0.2375
 6349SOL    HW121939   6.753   0.411   7.007 -0.0317 -1.2434 -0.2047
 6349SOL    HW221940   6.633   0.348   7.075 -1.9199  1.2305 -1.1137
 6350SOL     OW21941   0.540   9.112   4.318 -0.2988  0.3130  0.3264
 6350SOL    HW121942   0.530   9.150   4.406 -0.2816  0.9852  0.0380
 6350SOL    HW221943   0.476   9.040   4.317 -0.7723  0.7195  0.6584
 6351SOL     OW21944   1.377   5.700   2.694  0.0002 -0.1861  0.1917
 6351SOL    HW121945   1.369   5.792   2.721 -2.0056 -0.8258  2.0964
 6351SOL    HW221946   1.287   5.670   2.687  0.5664 -1.4939 -2.5845
 6352SOL     OW21947   1.161   6.555   4.465 -0.0417 -0.4507 -0.2117
 6352SOL    HW121948   1.095   6.603   4.514 -0.9535 -0.0169 -1.7902
 6352SOL    HW221949   1.200   6.495   4.529 -0.7089  0.5424  1.1662
 6353SOL     OW21950   5.999   3.192   9.242 -0.1188 -0.4504  0.0324
 6353SOL    HW121951   5.907   3.180   9.219 -0.3264  2.3957 -1.0065
 6353SOL    HW221952   6.048   3.167   9.163  0.0470 -1.9466  0.5786
 6354SOL     OW21953   1.080   2.286   4.327 -0.1058 -0.4920 -0.3233
 6354SOL    HW121954   1.064   2.212   4.387  2.2842 -1.5352 -0.8416
 6354SOL    HW221955   1.119   2.353   4.383  1.4955 -1.2114 -0.5149
 6355SOL     OW21956   7.884   8.454   3.364  0.0723 -0.2683 -0.3124
 6355SOL    HW121957   7.794   8.422   3.353  0.2887 -0.6876 -0.9336
 6355SOL    HW221958   7.933   8.410   3.294  0.6693  0.3065 -0.2570
 6356SOL     OW21959   3.545   4.987   8.559 -0.1910  0.1318 -0.6720
 6356SOL    HW121960   3.600   4.909   8.553 -0.9410 -0.4605 -0.0930
 6356SOL    HW221961   3.456   4.952   8.571 -0.8455  1.0406 -2.5338
 6357SOL     OW21962   3.187   8.696   8.478 -0.1525  0.0741  0.0768
 6357SOL    HW121963   3.232   8.694   8.393  1.4674 -2.0642  0.8838
 6357SOL    HW221964   3.206   8.783   8.513  1.1400  0.1731 -0.7802
 6358SOL     OW21965   7.295   7.601   3.253  0.0087  0.0126  0.2969
 6358SOL    HW121966   7.239   7.587   3.177 -0.4232 -3.5624  1.0876
 6358SOL    HW221967   7.383   7.578   3.221 -0.1042 -1.0503  0.7181
 6359SOL     OW21968   4.927   6.445   4.102 -0.0587 -0.2603 -0.3042
 6359SOL    HW121969   5.007   6.496   4.117 -0.6021  0.9502 -1.3439
 6359SOL    HW221970   4.890   6.482   4.022 -1.8681 -0.5324  0.3707
 6360SOL     OW21971   8.184   2.033   4.375  0.0047 -0.4975 -0.0836
 6360SOL    HW121972   8.276   2.016   4.358  0.1361  0.8971 -0.9156
 6360SOL    HW221973   8.159   2.098   4.309 -1.5303 -0.7375  0.2251
 6361SOL     OW21974   7.848   7.083   6.100  0.5049  0.1673 -0.6339
 6361SOL    HW121975   7.799   7.017   6.051 -0.3519 -0.8222  1.4289
 6361SOL    HW221976   7.861   7.044   6.186 -0.9459  3.0233  1.0422
 6362SOL     OW21977   0.553   5.783   3.290 -0.4831 -0.1020  0.3239
 6362SOL    HW121978   0.539   5.850   3.223  0.8027 -0.7124 -0.6005
 6362SOL    HW221979   0.600   5.828   3.360 -0.2154  0.1226  0.0013
 6363SOL     OW21980   6.541   7.742   1.532  0.2029  0.4070  0.4411
 6363SOL    HW121981   6.515   7.812   1.472 -0.9552 -0.4193 -0.0538
 6363SOL    HW221982   6.531   7.780   1.619 -1.6211  0.4919  0.2237
 6364SOL     OW21983   7.809   7.578   0.751 -0.1449  0.2670 -0.2622
 6364SOL    HW121984   7.735   7.606   0.805  0.1378 -0.6002  0.6071
 6364SOL    HW221985   7.792   7.485   0.734  1.0708 -0.1226  0.5278
 6365SOL     OW21986   0.761   8.005   8.303  0.6379  0.2432  0.1179
 6365SOL    HW121987   0.686   8.065   8.297 -1.2036 -1.9758 -0.9712
 6365SOL    HW221988   0.824   8.037   8.239 -0.5726  0.6982 -0.8821
 6366SOL     OW21989   0.098   1.015   2.364  0.2447  0.6663  0.3119
 6366SOL    HW121990   0.187   0.982   2.374 -0.2926 -0.6332  1.0290
 6366SOL    HW221991   0.096   1.053   2.276  1.1816 -0.3644 -0.1766
 6367SOL     OW21992   1.719   2.068   7.946  0.0780 -0.1841 -0.1693
 6367SOL    HW121993   1.731   2.003   7.876  2.2501 -1.0347  0.9043
 6367SOL    HW221994   1.761   2.147   7.912  0.4389 -0.3627 -0.1444
 6368SOL     OW21995   4.796   3.906   6.547 -0.0357  0.1640  0.2237
 6368SOL    HW121996   4.743   3.967   6.599  2.9104  3.1819  0.0416
 6368SOL    HW221997   4.793   3.942   6.458 -0.4659 -1.6765 -0.5498
 6369SOL     OW21998   7.210   5.314   3.555  0.6427 -0.1636 -0.0246
 6369SOL    HW121999   7.236   5.406   3.555  1.3117 -0.3434 -0.8285
 6369SOL    HW222000   7.290   5.266   3.533  0.2975 -0.9386  0.3685
 6370SOL     OW22001   3.474   2.381   7.364 -0.3839 -0.0119 -0.6985
 6370SOL    HW122002   3.547   2.323   7.384  0.0447  0.4093 -1.0355
 6370SOL    HW222003   3.396   2.331   7.390  0.1085  0.7769  2.7931
 6371SOL     OW22004   1.242   8.477   1.390 -0.1151  0.1082 -0.6018
 6371SOL    HW122005   1.235   8.500   1.483  0.0865 -1.0075 -0.2989
 6371SOL    HW222006   1.317   8.528   1.359 -0.8313  1.3101 -0.4313
 6372SOL     OW22007   6.771   6.251   0.689 -0.4827  0.0310 -0.5733
 6372SOL    HW122008   6.865   6.239   0.698 -0.2876  1.0460 -1.1194
 6372SOL    HW222009   6.740   6.260   0.779 -0.0614 -0.2946 -0.3906
 6373SOL     OW22010   7.722   6.717   0.225  0.3039 -0.1451  0.0266
 6373SOL    HW122011   7.783   6.782   0.191  0.9696 -0.4422  0.6271
 6373SOL    HW222012   7.775   6.640   0.242 -0.5382 -0.9828 -1.0045
 6374SOL     OW22013   4.490   4.215   0.297 -0.6477  0.0919  0.6212
 6374SOL    HW122014   4.547   4.270   0.242 -0.1916  0.1632  1.1524
 6374SOL    HW222015   4.449   4.155   0.235  0.9723 -0.8039  0.3538
 6375SOL     OW22016   7.142   6.740   2.641 -0.2191 -0.1680  0.3632
 6375SOL    HW122017   7.226   6.748   2.686 -0.5036 -0.2189  0.9108
 6375SOL    HW222018   7.163   6.753   2.549  0.3041  0.4296  0.5569
 6376SOL     OW22019   0.305   8.571   3.817 -0.2021  0.2078  0.5540
 6376SOL    HW122020   0.381   8.521   3.788 -0.0942 -0.1038  1.3627
 6376SOL    HW222021   0.340   8.657   3.842 -0.0983  0.0267  1.0346
 6377SOL     OW22022   5.479   8.476   6.616 -0.5071 -0.0839  0.3342
 6377SOL    HW122023   5.426   8.437   6.686 -1.2562 -0.1996 -0.2795
 6377SOL    HW222024   5.559   8.505   6.659  0.2824 -2.6840  0.7530
 6378SOL     OW22025   4.565   0.027   7.214 -0.2961  0.2412  0.3939
 6378SOL    HW122026   4.516   0.099   7.253  1.6355  0.9177  1.7434
 6378SOL    HW222027   4.557  -0.045   7.276  0.6765  0.4831  0.8249
 6379SOL     OW22028   1.176   0.987   5.818  0.4120  0.1713 -0.1935
 6379SOL    HW122029   1.130   1.049   5.761  0.5517 -0.5297 -1.0960
 6379SOL    HW222030   1.106   0.938   5.862  0.2082 -1.3151 -2.0183
 6380SOL     OW22031   7.216   0.582   8.168 -0.2053 -0.0544  0.1566
 6380SOL    HW122032   7.301   0.541   8.153 -0.3231 -0.4895  0.6626
 6380SOL    HW222033   7.232   0.648   8.236 -0.2040  0.1043  0.0037
 6381SOL     OW22034   8.616   2.690   1.154 -0.4434 -0.1159  0.8602
 6381SOL    HW122035   8.649   2.776   1.130 -0.8262  0.3337  1.9091
 6381SOL    HW222036   8.693   2.643   1.188 -0.5729  0.4292  1.9376
 6382SOL     OW22037   6.947   2.817   7.131 -0.5161  0.5403  0.1752
 6382SOL    HW122038   6.953   2.896   7.077 -1.0720  2.3507  2.6041
 6382SOL    HW222039   6.856   2.812   7.158 -0.6523 -1.3829 -0.4819
 6383SOL     OW22040   5.793   6.109   8.785 -0.1572  0.0451  0.4256
 6383SOL    HW122041   5.871   6.119   8.839  0.7120 -0.2386 -0.7672
 6383SOL    HW222042   5.747   6.034   8.822  1.6965 -1.7350 -0.7000
 6384SOL     OW22043   1.281   1.791   5.924  0.0734  0.3792  0.4062
 6384SOL    HW122044   1.327   1.787   5.840 -1.3704  2.0851 -0.5396
 6384SOL    HW222045   1.305   1.710   5.969  1.3681 -0.2907 -1.3923
 6385SOL     OW22046   6.190   7.838   1.754 -0.1823 -0.1034  0.8085
 6385SOL    HW122047   6.191   7.858   1.660 -1.0449 -1.2214  0.5365
 6385SOL    HW222048   6.106   7.871   1.785  1.2946  3.0314  1.9002
 6386SOL     OW22049   3.451   3.232   4.316 -0.6232  0.0571  0.2612
 6386SOL    HW122050   3.461   3.167   4.385 -0.7420 -0.0204  0.2065
 6386SOL    HW222051   3.511   3.302   4.339 -1.4975  0.5650  1.0779
 6387SOL     OW22052   9.055   3.872   0.457 -0.2352 -0.3083  0.0096
 6387SOL    HW122053   9.032   3.782   0.436 -0.8799 -0.4411  1.1790
 6387SOL    HW222054   9.148   3.879   0.436  0.1084 -1.5959  1.0043
 6388SOL     OW22055   6.105   6.621   9.182 -0.0969  0.0025  0.0919
 6388SOL    HW122056   6.187   6.631   9.133 -1.3448 -2.1665 -2.6812
 6388SOL    HW222057   6.054   6.699   9.159  0.1431  0.0346 -0.3422
 6389SOL     OW22058   4.535   7.553   8.661 -0.4077  0.3860 -0.2990
 6389SOL    HW122059   4.611   7.600   8.627  0.7467 -0.0125  1.6008
 6389SOL    HW222060   4.560   7.461   8.660 -1.1351  0.1808 -0.3062
 6390SOL     OW22061   6.177   6.974   3.822  0.1870 -0.1376  0.0652
 6390SOL    HW122062   6.129   6.944   3.745  0.7104  0.3999 -0.4750
 6390SOL    HW222063   6.212   6.893   3.861  0.4789 -0.3580 -0.6338
 6391SOL     OW22064   3.221   4.775   1.947  0.0220  0.2452 -0.1184
 6391SOL    HW122065   3.284   4.812   2.010  0.4047 -0.8436  0.1548
 6391SOL    HW222066   3.141   4.761   1.998 -0.3622  1.3393 -0.3928
 6392SOL     OW22067   8.212   4.550   3.787  0.2879 -0.2188 -0.8877
 6392SOL    HW122068   8.133   4.591   3.750 -0.9485 -0.5312  1.2712
 6392SOL    HW222069   8.251   4.619   3.841  0.5041 -0.6290 -0.5221
 6393SOL     OW22070   0.240   3.331   1.728 -0.4649 -0.6312  0.3103
 6393SOL    HW122071   0.280   3.404   1.681  0.7614 -1.5586 -0.1352
 6393SOL    HW222072   0.248   3.355   1.821 -0.5930  0.0567  0.1472
 6394SOL     OW22073   1.313   1.608   4.376 -0.5295 -0.3302  0.0768
 6394SOL    HW122074   1.396   1.569   4.404 -0.1169  0.2290 -0.3469
 6394SOL    HW222075   1.269   1.633   4.458 -0.4022 -0.8684  0.3132
 6395SOL     OW22076   4.099   6.044   0.273 -0.0635  0.4884 -0.5190
 6395SOL    HW122077   4.098   6.023   0.180  2.2363 -0.1996 -0.4481
 6395SOL    HW222078   4.165   6.113   0.282  2.4680 -1.9005  0.9450
 6396SOL     OW22079   5.336   1.503   8.957  0.4671  0.4866 -0.0233
 6396SOL    HW122080   5.412   1.561   8.950  1.1507 -0.0033  2.3786
 6396SOL    HW222081   5.373   1.418   8.980 -0.7686  0.1623  0.8575
 6397SOL     OW22082   3.896   9.043   8.515 -0.5555  0.2320 -0.1386
 6397SOL    HW122083   3.990   9.027   8.510 -0.3996  0.9372  0.3775
 6397SOL    HW222084   3.862   9.011   8.432  0.1048 -0.2770 -0.2172
 6398SOL     OW22085   5.266   0.263   0.432 -0.6179 -0.1220  0.2440
 6398SOL    HW122086   5.285   0.242   0.523  1.1201 -2.1074 -0.4853
 6398SOL    HW222087   5.170   0.260   0.427 -0.7041 -1.4942  1.7156
 6399SOL     OW22088   3.935   4.612   7.039 -0.1576  0.2551 -0.1747
 6399SOL    HW122089   4.019   4.571   7.061 -0.8992 -0.3070  1.9413
 6399SOL    HW222090   3.945   4.703   7.068 -1.0750 -0.4445  2.7065
 6400SOL     OW22091   7.173   7.754   4.360  0.2854 -0.5180 -0.2127
 6400SOL    HW122092   7.235   7.733   4.430  1.4200 -3.0495 -1.8441
 6400SOL    HW222093   7.090   7.715   4.388 -0.1585  1.2079  1.0760
 6401SOL     OW22094   2.511   6.268   0.159  0.1485  0.0420 -0.4074
 6401SOL    HW122095   2.525   6.235   0.070 -0.8742 -0.2315 -0.4816
 6401SOL    HW222096   2.518   6.190   0.215  0.0041  0.0828 -0.3317
 6402SOL     OW22097   5.576   1.192   7.401 -0.4909  0.3837  0.2338
 6402SOL    HW122098   5.633   1.231   7.334  0.1166  2.0580  1.6634
 6402SOL    HW222099   5.633   1.131   7.447 -1.2598 -1.8052 -1.5526
 6403SOL     OW22100   6.125   8.015   5.869 -0.1631 -0.4727 -0.2709
 6403SOL    HW122101   6.042   7.979   5.837  0.4644 -1.1541 -1.1992
 6403SOL    HW222102   6.102   8.060   5.950 -1.4479 -0.5962 -0.5437
 6404SOL     OW22103   3.109   2.212   5.546  0.2086  0.1583 -0.0142
 6404SOL    HW122104   3.190   2.247   5.583  1.7445  1.4186 -4.0170
 6404SOL    HW222105   3.060   2.290   5.520 -1.5322 -0.6438  0.7132
 6405SOL     OW22106   7.940   1.960   2.824  0.0827 -0.0730  0.4201
 6405SOL    HW122107   7.961   1.919   2.740  1.1977  1.5515 -0.1565
 6405SOL    HW222108   7.905   2.046   2.800  0.4954  0.4471  1.6068
 6406SOL     OW22109   1.084   9.154   4.911 -0.2696 -0.0915  0.0054
 6406SOL    HW122110   1.049   9.149   4.822 -1.0682 -0.7953  0.3443
 6406SOL    HW222111   1.083   9.063   4.942  0.2609  0.1107  0.6361
 6407SOL     OW22112   7.823   1.966   3.091  0.2252  0.5530 -0.6204
 6407SOL    HW122113   7.791   2.046   3.049  1.9345  1.8843  0.4515
 6407SOL    HW222114   7.901   1.942   3.042  0.7004  0.5525  0.1245
 6408SOL     OW22115   6.743   4.185   4.233  0.1282 -0.6715  0.3371
 6408SOL    HW122116   6.680   4.131   4.186  0.6921 -0.7508 -0.3381
 6408SOL    HW222117   6.798   4.223   4.165  0.0317  0.3924  0.8310
 6409SOL     OW22118   4.111   7.168   0.819  0.2084 -0.0935 -0.0938
 6409SOL    HW122119   4.112   7.121   0.903 -0.7068  0.4323  0.2233
 6409SOL    HW222120   4.021   7.161   0.788 -0.1936  2.1810  0.3958
 6410SOL     OW22121   2.742   6.353   8.163 -0.1089 -0.1147  0.2544
 6410SOL    HW122122   2.756   6.259   8.177  1.1419 -0.2251 -1.4791
 6410SOL    HW222123   2.683   6.357   8.087 -1.2114  0.5173  1.1115
 6411SOL     OW22124   6.637   4.905   4.145 -0.5597 -0.4856 -0.3511
 6411SOL    HW122125   6.646   4.936   4.234 -1.8183  0.1704 -0.4421
 6411SOL    HW222126   6.724   4.918   4.106 -0.5433  1.1698  0.1705
 6412SOL     OW22127   4.139   0.038   0.372 -0.0760 -0.1404  0.1258
 6412SOL    HW122128   4.077   0.050   0.443  2.2429  0.9002  2.1414
 6412SOL    HW222129   4.210   0.100   0.391  0.7783  0.0379 -3.0087
 6413SOL     OW22130   6.089   2.935   3.148 -0.1934 -0.5045 -0.0064
 6413SOL    HW122131   6.175   2.976   3.160  0.4309 -1.2926 -1.5119
 6413SOL    HW222132   6.032   2.981   3.209  1.4213 -0.3578  1.4833
 6414SOL     OW22133   4.084   1.590   9.227 -0.1502 -0.1946 -0.1287
 6414SOL    HW122134   4.064   1.497   9.216 -0.8385  0.1412 -2.1553
 6414SOL    HW222135   4.038   1.615   9.307  1.0490 -1.8261  1.1434
 6415SOL     OW22136   9.246   5.107   3.094  0.2094 -0.1020  0.1629
 6415SOL    HW122137   9.195   5.160   3.033 -0.0854  0.3579  0.7960
 6415SOL    HW222138   9.289   5.171   3.151  0.3274 -0.5278  0.5586
 6416SOL     OW22139   4.362   8.349   0.892  0.1882  0.0949  0.0042
 6416SOL    HW122140   4.413   8.404   0.951 -0.5533 -0.6505  1.3674
 6416SOL    HW222141   4.419   8.273   0.876 -0.1492 -0.3508  0.8726
 6417SOL     OW22142   0.899   3.469   2.835 -0.1041 -0.4273  0.6768
 6417SOL    HW122143   0.969   3.409   2.863  1.0812 -0.7769 -2.6540
 6417SOL    HW222144   0.836   3.413   2.790  1.4620  0.7219 -3.3015
 6418SOL     OW22145   1.617   7.674   3.778  0.0653 -0.6316 -0.8241
 6418SOL    HW122146   1.697   7.656   3.826  0.2698  0.3122 -0.7956
 6418SOL    HW222147   1.564   7.595   3.789  0.1278 -0.4621  0.9168
 6419SOL     OW22148   8.038   1.636   1.894  0.4769  0.0149 -0.4534
 6419SOL    HW122149   8.079   1.675   1.817  0.1037  2.1072  0.3357
 6419SOL    HW222150   8.048   1.703   1.963 -2.2960 -0.2762  0.3562
 6420SOL     OW22151   9.103   7.487   2.602 -0.3336  0.6995  0.4965
 6420SOL    HW122152   9.042   7.548   2.561  0.2217  0.6619 -0.4365
 6420SOL    HW222153   9.175   7.542   2.632 -0.4204  0.6502  0.7894
 6421SOL     OW22154   2.833   6.887   3.052 -0.2405 -0.1603 -0.1731
 6421SOL    HW122155   2.861   6.817   2.992  1.0734 -2.0640  2.4729
 6421SOL    HW222156   2.875   6.966   3.017  1.5602 -1.4251 -1.0680
 6422SOL     OW22157   3.525   7.300   5.753  0.6819 -0.7878  0.4015
 6422SOL    HW122158   3.542   7.207   5.738  1.3031 -0.6099 -0.0206
 6422SOL    HW222159   3.465   7.325   5.684  0.3542 -0.9223  0.6362
 6423SOL     OW22160   2.651   3.277   2.677  0.3997 -0.1175 -0.6022
 6423SOL    HW122161   2.628   3.287   2.770  1.6612 -0.9160 -0.1853
 6423SOL    HW222162   2.718   3.209   2.676  1.3318  0.7659 -1.9574
 6424SOL     OW22163   2.756   7.733   7.985 -0.1816  0.0391 -0.2075
 6424SOL    HW122164   2.847   7.703   7.978 -0.2393  0.0692 -1.2649
 6424SOL    HW222165   2.751   7.777   8.070  0.7471 -0.1181 -0.0659
 6425SOL     OW22166   7.396   7.627   8.128  0.2678  0.2835 -0.4044
 6425SOL    HW122167   7.403   7.582   8.212  0.8006 -0.1175 -0.6574
 6425SOL    HW222168   7.482   7.617   8.088  0.3893  1.4945 -0.4912
 6426SOL     OW22169   8.834   3.602   5.273  0.8810 -0.1034 -0.2638
 6426SOL    HW122170   8.841   3.518   5.319 -1.0177 -0.3343 -0.3158
 6426SOL    HW222171   8.797   3.579   5.188  1.0299  0.7137 -0.5493
 6427SOL     OW22172   8.703   7.005   3.433  0.1700 -0.5483  0.0026
 6427SOL    HW122173   8.734   7.088   3.396 -2.0261  1.0116  1.4148
 6427SOL    HW222174   8.772   6.942   3.412  1.1055  1.1935 -2.7269
 6428SOL     OW22175   2.628   0.983   3.142  0.5244  0.1147 -0.2639
 6428SOL    HW122176   2.688   1.018   3.208 -1.3436  0.1283  1.4944
 6428SOL    HW222177   2.659   1.021   3.060  2.9437  0.0727  0.5421
 6429SOL     OW22178   5.943   3.811   6.888 -0.2177  0.2728 -0.2277
 6429SOL    HW122179   5.955   3.718   6.869 -0.8057 -0.0223  0.7609
 6429SOL    HW222180   6.005   3.829   6.958 -2.2231 -0.1745  1.7838
 6430SOL     OW22181   0.608   5.329   1.198  0.2708  0.1382 -0.5643
 6430SOL    HW122182   0.572   5.404   1.151  0.6705  0.7889  0.1362
 6430SOL    HW222183   0.531   5.278   1.224  0.0131  0.1564 -1.2771
 6431SOL     OW22184   6.841   2.210   0.453  0.6186 -0.3358 -0.7356
 6431SOL    HW122185   6.789   2.154   0.396 -0.2324 -0.3998  0.0791
 6431SOL    HW222186   6.824   2.177   0.541  3.5578 -1.6216 -0.5412
 6432SOL     OW22187   4.384   3.228   2.362 -0.0727  0.6194  0.3158
 6432SOL    HW122188   4.327   3.238   2.286 -0.4954  1.0054  0.6755
 6432SOL    HW222189   4.409   3.135   2.361 -0.3841  0.5356 -0.0740
 6433SOL     OW22190   4.084   7.769   3.807  0.3681  0.9081  0.1360
 6433SOL    HW122191   4.123   7.853   3.782 -0.5214  1.2441 -0.1776
 6433SOL    HW222192   4.119   7.751   3.894  2.4324  0.4012 -0.7589
 6434SOL     OW22193   3.694   2.189   7.346  0.2813  0.2106 -0.7242
 6434SOL    HW122194   3.763   2.203   7.410  0.2564  2.2368 -1.0931
 6434SOL    HW222195   3.735   2.136   7.278  0.8472 -0.3364  0.0172
 6435SOL     OW22196   5.185   2.222   8.010  0.2818 -0.3936 -0.4624
 6435SOL    HW122197   5.200   2.291   7.944 -0.5225 -1.9125 -2.3357
 6435SOL    HW222198   5.273   2.195   8.035  0.6456  1.8950  1.0394
 6436SOL     OW22199   6.393   1.545   1.067  0.1913 -0.8009  0.1344
 6436SOL    HW122200   6.405   1.487   1.142  0.3339 -1.6803 -0.5573
 6436SOL    HW222201   6.471   1.532   1.013 -1.8228 -3.6349 -2.4469
 6437SOL     OW22202   6.965   2.381   5.984  0.2720 -0.0389  0.6086
 6437SOL    HW122203   6.969   2.304   6.042 -1.8479 -0.9883 -0.4099
 6437SOL    HW222204   6.948   2.454   6.042 -1.8092 -0.9713  1.2452
 6438SOL     OW22205   4.681   5.001   3.731 -0.1066 -0.1978 -0.4097
 6438SOL    HW122206   4.733   4.922   3.750  0.5710  0.3837  0.2262
 6438SOL    HW222207   4.739   5.074   3.753 -1.4539  0.4827  1.0935
 6439SOL     OW22208   9.021   0.352   4.505 -0.0075 -0.4582  0.1316
 6439SOL    HW122209   8.993   0.355   4.413  0.5381 -0.8983 -0.0564
 6439SOL    HW222210   9.073   0.432   4.517 -0.0397 -0.4236  0.0425
 6440SOL     OW22211   5.729   6.383   5.332  0.1595  0.1926  0.2139
 6440SOL    HW122212   5.745   6.475   5.355  1.4617 -0.0761  0.4871
 6440SOL    HW222213   5.660   6.386   5.266 -2.3141  1.1411  2.6508
 6441SOL     OW22214   5.651   5.241   9.124  0.3437 -0.2861 -0.6127
 6441SOL    HW122215   5.701   5.160   9.134  0.9624  0.3026  1.5324
 6441SOL    HW222216   5.601   5.248   9.206  0.9876  1.9323 -0.3447
 6442SOL     OW22217   0.501   2.836   5.013  0.4303  0.4364 -0.4480
 6442SOL    HW122218   0.440   2.763   5.024  1.3762 -0.2715  0.1689
 6442SOL    HW222219   0.459   2.909   5.059  0.8704 -0.5299  1.6075
 6443SOL     OW22220   6.033   0.442   8.390  0.4623 -0.2269  0.2035
 6443SOL    HW122221   6.035   0.521   8.336  0.2420  0.9032  1.7460
 6443SOL    HW222222   6.075   0.375   8.337  0.3572  0.8383 -1.2935
 6444SOL     OW22223   7.896   5.663   0.627  0.2647  0.1022 -0.2706
 6444SOL    HW122224   7.879   5.581   0.581 -2.2443  0.1745  0.3966
 6444SOL    HW222225   7.923   5.636   0.715  1.7274  0.0126 -0.7175
 6445SOL     OW22226   0.623   8.153   6.992 -0.1404 -0.6960 -0.0900
 6445SOL    HW122227   0.693   8.099   6.957 -0.0305 -0.5091 -0.1578
 6445SOL    HW222228   0.667   8.224   7.038 -0.2790 -1.1826  0.8187
 6446SOL     OW22229   9.257   6.660   0.480  0.3668 -0.1559  0.5474
 6446SOL    HW122230   9.277   6.645   0.387  0.6689  2.2472  0.1779
 6446SOL    HW222231   9.162   6.652   0.485  0.2803  0.3750 -0.1150
 6447SOL     OW22232   0.753   3.237   3.779 -0.4379 -0.1545  0.1336
 6447SOL    HW122233   0.698   3.268   3.707 -2.3451  0.0495  1.5996
 6447SOL    HW222234   0.782   3.317   3.823  0.3945 -0.2892 -0.1532
 6448SOL     OW22235   6.169   6.881   7.896 -0.3361  0.0109  0.2505
 6448SOL    HW122236   6.250   6.859   7.941 -2.0521 -0.8840  3.1587
 6448SOL    HW222237   6.156   6.810   7.833  1.4790  0.6040 -0.8631
 6449SOL     OW22238   9.249   9.076   1.085 -0.0649 -0.1033 -0.9123
 6449SOL    HW122239   9.336   9.099   1.119 -0.8152  0.3924  0.7592
 6449SOL    HW222240   9.200   9.158   1.086 -0.8817 -0.5783 -0.7775
 6450SOL     OW22241   4.211   6.085   2.784 -0.5397  0.0676  0.7350
 6450SOL    HW122242   4.179   6.027   2.714 -0.7654  0.7416  0.2680
 6450SOL    HW222243   4.214   6.029   2.862  0.5225 -0.9312  0.0182
 6451SOL     OW22244   5.814   7.959   6.888  0.3011  0.2630  0.1317
 6451SOL    HW122245   5.776   7.888   6.836 -2.6282  2.8825 -1.6603
 6451SOL    HW222246   5.898   7.976   6.846  0.6507 -1.5037  0.0361
 6452SOL     OW22247   8.208   7.316   9.056 -0.6886  0.1776 -0.0665
 6452SOL    HW122248   8.227   7.222   9.055 -0.7440  0.1543 -1.7245
 6452SOL    HW222249   8.133   7.325   9.116 -1.3077 -0.9685 -0.6401
 6453SOL     OW22250   8.242   1.459   4.864  0.1419  0.6347  0.3941
 6453SOL    HW122251   8.148   1.473   4.877  0.4297  2.0536  1.1492
 6453SOL    HW222252   8.254   1.467   4.769 -0.7113 -1.2090  0.0852
 6454SOL     OW22253   6.218   2.508   6.050 -0.0495 -0.4516 -0.3684
 6454SOL    HW122254   6.184   2.577   5.993  0.5210  0.4441  0.3428
 6454SOL    HW222255   6.175   2.428   6.019  0.4841 -0.0587 -2.2461
 6455SOL     OW22256   4.098   1.022   8.055  0.0485 -0.3629  0.3781
 6455SOL    HW122257   4.112   1.048   8.146  0.7427 -0.5406  0.3251
 6455SOL    HW222258   4.072   0.930   8.060  0.4674 -0.4837  0.3758
 6456SOL     OW22259   5.272   5.180   6.481 -0.7352 -0.0127 -0.9361
 6456SOL    HW122260   5.311   5.266   6.496 -1.4798  0.4667 -1.6139
 6456SOL    HW222261   5.344   5.125   6.452  0.4038 -0.5014  2.3844
 6457SOL     OW22262   4.783   6.935   5.387 -0.6010 -0.0422  0.5058
 6457SOL    HW122263   4.752   6.896   5.469  0.6642 -1.0512  0.5365
 6457SOL    HW222264   4.877   6.944   5.399 -0.4860  0.3842 -0.6148
 6458SOL     OW22265   2.085   6.344   2.513 -0.3546  0.0302  0.1595
 6458SOL    HW122266   1.994   6.325   2.489 -0.5126  0.5172  0.3602
 6458SOL    HW222267   2.100   6.433   2.481 -1.0658  1.3403  3.1747
 6459SOL     OW22268   3.010   7.223   2.070  0.0992  0.5595 -0.6477
 6459SOL    HW122269   2.945   7.233   2.000  0.7275 -0.6434 -1.4333
 6459SOL    HW222270   3.094   7.223   2.025  0.4576 -1.8581 -0.1355
 6460SOL     OW22271   3.595   1.997   9.155 -0.0428 -0.0835 -0.1199
 6460SOL    HW122272   3.590   2.065   9.088  0.0872  1.1082  1.0465
 6460SOL    HW222273   3.588   1.915   9.106 -3.0617  0.7671 -1.3204
 6461SOL     OW22274   7.225   8.076   8.189 -0.1816 -0.2636  0.4829
 6461SOL    HW122275   7.142   8.092   8.143  0.1932  0.0431 -0.0964
 6461SOL    HW222276   7.281   8.036   8.123  0.8918  1.6018  0.2090
 6462SOL     OW22277   4.305   5.578   6.751  0.0885 -0.7950 -0.1468
 6462SOL    HW122278   4.219   5.558   6.712 -0.2017 -0.0066  0.0576
 6462SOL    HW222279   4.306   5.528   6.832  0.2266 -1.5655 -0.6166
 6463SOL     OW22280   1.810   6.381   7.778 -0.2809  0.2733 -0.6653
 6463SOL    HW122281   1.878   6.446   7.761  0.2504  0.6656  2.3742
 6463SOL    HW222282   1.795   6.386   7.872 -1.9932 -2.3222 -0.6928
 6464SOL     OW22283   2.894   4.580   4.281  0.7239  0.0470 -0.2054
 6464SOL    HW122284   2.809   4.615   4.253 -0.0370 -0.5107  1.2873
 6464SOL    HW222285   2.886   4.485   4.269  0.5525 -0.1639  1.3079
 6465SOL     OW22286   4.502   7.084   2.652  0.0713 -0.0578  0.6630
 6465SOL    HW122287   4.484   7.160   2.708 -1.0966  0.1631  0.0200
 6465SOL    HW222288   4.430   7.024   2.669  0.8663 -0.9486  0.9987
 6466SOL     OW22289   1.113   3.182   3.975 -0.2981  0.2608  0.2366
 6466SOL    HW122290   1.128   3.215   4.064 -0.1700  0.8916 -0.0137
 6466SOL    HW222291   1.200   3.185   3.934 -0.2666 -0.4810  0.2340
 6467SOL     OW22292   1.172   9.200   2.060 -0.0730  0.2574 -0.6685
 6467SOL    HW122293   1.076   9.204   2.053 -0.3507 -2.6775 -0.0855
 6467SOL    HW222294   1.199   9.152   1.982  0.7507 -0.0950 -0.1789
 6468SOL     OW22295   9.110   7.452   0.873  0.0631  0.1497 -0.1193
 6468SOL    HW122296   9.129   7.520   0.809  2.1962  1.3917  1.6899
 6468SOL    HW222297   9.170   7.381   0.851  1.4088  0.9096  0.8701
 6469SOL     OW22298   6.000   7.773   3.727  0.2434 -0.3498  0.5508
 6469SOL    HW122299   5.921   7.740   3.684 -0.3381  1.1682  0.3701
 6469SOL    HW222300   5.994   7.868   3.717  1.1202 -0.0783  2.2342
 6470SOL     OW22301   0.249   3.361   4.788  0.2058  0.1646  0.1175
 6470SOL    HW122302   0.204   3.436   4.827  2.3145  1.5009  0.1449
 6470SOL    HW222303   0.179   3.305   4.756 -1.4997  1.1642  1.8875
 6471SOL     OW22304   5.597   6.122   8.547 -0.1141 -0.2542  0.1375
 6471SOL    HW122305   5.629   6.092   8.632 -1.7751  0.0857  0.9200
 6471SOL    HW222306   5.502   6.109   8.551 -0.2681  0.0622 -1.5581
 6472SOL     OW22307   0.675   5.297   1.559  0.0626  0.1860 -0.2046
 6472SOL    HW122308   0.754   5.255   1.526 -1.0711 -0.7647 -1.7942
 6472SOL    HW222309   0.612   5.226   1.568 -0.6705  0.9545  0.9199
 6473SOL     OW22310   6.167   8.079   2.612  0.1001 -0.3158 -0.0323
 6473SOL    HW122311   6.212   8.130   2.544  1.8095 -0.6197  0.8018
 6473SOL    HW222312   6.089   8.044   2.569 -0.2349  1.6100 -1.0901
 6474SOL     OW22313   4.673   2.446   0.637  0.1051  0.1002 -0.5504
 6474SOL    HW122314   4.600   2.490   0.594 -0.3315 -0.2910 -0.2209
 6474SOL    HW222315   4.670   2.480   0.727  1.0143  0.9212 -0.8071
 6475SOL     OW22316   8.892   7.166   7.300  0.4325 -0.6186  0.0027
 6475SOL    HW122317   8.824   7.204   7.355 -0.3260  0.2165 -1.4398
 6475SOL    HW222318   8.957   7.236   7.290  0.4621 -0.6879 -0.3164
 6476SOL     OW22319   9.062   4.224   1.091 -0.2914  0.1217 -0.0146
 6476SOL    HW122320   9.070   4.268   1.176 -1.0720  1.5198 -0.6493
 6476SOL    HW222321   9.114   4.276   1.031 -0.9710  0.0145 -0.7147
 6477SOL     OW22322   4.110   1.614   8.265 -0.3673  0.0064 -0.1407
 6477SOL    HW122323   4.046   1.680   8.292  0.6392  0.7166  0.5901
 6477SOL    HW222324   4.086   1.535   8.315 -0.0467  0.5851  0.9601
 6478SOL     OW22325   7.400   0.709   5.923 -0.2115 -0.2430  0.2238
 6478SOL    HW122326   7.351   0.743   5.848 -0.9107  1.1779  1.2786
 6478SOL    HW222327   7.492   0.718   5.898 -0.4173 -1.3751 -1.1035
 6479SOL     OW22328   7.569   2.130   1.481 -0.1093 -0.3848  0.1450
 6479SOL    HW122329   7.576   2.099   1.571  3.2970  0.0117  0.1352
 6479SOL    HW222330   7.544   2.053   1.431  0.3706 -1.1899  1.1178
 6480SOL     OW22331   1.436   1.724   5.689  0.0042 -0.2552  0.5550
 6480SOL    HW122332   1.359   1.703   5.636  0.9862  0.7753 -1.4000
 6480SOL    HW222333   1.485   1.642   5.694 -0.5711 -0.5953  0.7082
 6481SOL     OW22334   7.495   0.682   3.643 -0.1533 -0.0258 -0.0324
 6481SOL    HW122335   7.534   0.597   3.624  0.1445 -0.5320  2.5039
 6481SOL    HW222336   7.412   0.682   3.595  0.1891 -1.4428 -0.6552
 6482SOL     OW22337   8.471   6.866   0.858 -0.6810 -0.3547  0.0031
 6482SOL    HW122338   8.559   6.830   0.867 -1.2421 -1.7312  0.2962
 6482SOL    HW222339   8.453   6.905   0.944 -0.7644 -1.0587  0.3128
 6483SOL     OW22340   1.449   4.687   2.785 -0.3291 -0.0740 -0.4258
 6483SOL    HW122341   1.527   4.655   2.832 -0.5598 -1.8447 -1.2031
 6483SOL    HW222342   1.376   4.661   2.841 -0.4740  0.0072 -0.5797
 6484SOL     OW22343   0.081   2.574   6.586  0.2087 -0.0834  0.1755
 6484SOL    HW122344   0.142   2.641   6.615 -1.1846  0.5151  1.8955
 6484SOL    HW222345   0.042   2.610   6.506  0.1242  0.7512  0.5881
 6485SOL     OW22346   3.144   1.803   8.738 -0.2445  0.7988 -0.2863
 6485SOL    HW122347   3.105   1.727   8.783  2.2205 -0.3267  0.1086
 6485SOL    HW222348   3.133   1.875   8.800 -1.6457  0.5469 -0.2008
 6486SOL     OW22349   5.942   6.546   7.841  0.1704  0.3515  0.6312
 6486SOL    HW122350   5.880   6.477   7.818 -0.5887  1.6024 -1.2464
 6486SOL    HW222351   5.891   6.627   7.837  0.8927  1.0505  3.3521
 6487SOL     OW22352   4.690   5.368   5.084  0.1881 -0.2487  0.2889
 6487SOL    HW122353   4.757   5.434   5.102 -0.0025  1.1752 -3.3890
 6487SOL    HW222354   4.736   5.302   5.031 -0.8122 -0.2105 -0.6722
 6488SOL     OW22355   1.782   1.873   9.222  0.1347 -0.0353 -0.1357
 6488SOL    HW122356   1.824   1.788   9.237  1.4187  0.6209  0.1050
 6488SOL    HW222357   1.829   1.911   9.148 -2.8563 -1.0547 -2.7635
 6489SOL     OW22358   7.671   6.089   2.543 -0.6910  0.0944  0.0633
 6489SOL    HW122359   7.720   6.025   2.491  0.8457  0.9837  0.3518
 6489SOL    HW222360   7.675   6.055   2.632 -0.8142  0.0405  0.0481
 6490SOL     OW22361   7.857   3.059   3.616  0.0656  0.6818 -0.0324
 6490SOL    HW122362   7.921   3.130   3.621 -0.6927  1.3575  0.5593
 6490SOL    HW222363   7.808   3.065   3.698 -0.4807 -0.0790 -0.2879
 6491SOL     OW22364   5.991   0.466   6.016  0.0596 -0.4590 -0.5679
 6491SOL    HW122365   5.954   0.493   6.099 -0.7062  0.0976 -1.0787
 6491SOL    HW222366   6.020   0.375   6.030 -0.4924 -0.5267  0.1548
 6492SOL     OW22367   1.585   1.046   0.102 -0.2598 -0.3459 -0.1011
 6492SOL    HW122368   1.584   0.954   0.128 -0.1832  0.1466  1.8577
 6492SOL    HW222369   1.504   1.059   0.053 -0.8329 -1.2118  0.5902
 6493SOL     OW22370   3.078   2.622   0.852  0.1218  0.1978 -0.0411
 6493SOL    HW122371   3.041   2.542   0.890 -0.9737  0.0436 -1.3539
 6493SOL    HW222372   3.015   2.690   0.874  1.8766  1.1313  2.5619
 6494SOL     OW22373   1.822   8.854   1.641 -0.3882 -0.1681  0.3306
 6494SOL    HW122374   1.882   8.923   1.611 -1.4705  1.0010  0.7899
 6494SOL    HW222375   1.853   8.775   1.597 -0.4776  1.0237 -2.0112
 6495SOL     OW22376   6.310   1.861   0.713  0.0665 -0.1936 -0.1929
 6495SOL    HW122377   6.310   1.805   0.636 -1.8906  0.3842 -0.6619
 6495SOL    HW222378   6.242   1.824   0.770  0.7511  0.0166  0.7873
 6496SOL     OW22379   3.809   6.599   6.986  0.0553  0.3487  0.6284
 6496SOL    HW122380   3.828   6.537   6.916  0.3779  0.5930  0.4966
 6496SOL    HW222381   3.893   6.639   7.007 -0.1961  0.9483  0.5164
 6497SOL     OW22382   6.128   1.277   5.813 -0.1010  0.4517 -0.0619
 6497SOL    HW122383   6.195   1.346   5.816 -1.3642  1.8548 -1.6499
 6497SOL    HW222384   6.053   1.319   5.772 -0.7807 -2.0313 -1.5800
 6498SOL     OW22385   1.064   5.989   1.567  0.2380  0.3059 -0.4306
 6498SOL    HW122386   1.027   6.043   1.637 -0.9480 -1.8607  0.7382
 6498SOL    HW222387   1.146   5.956   1.603 -0.1943 -0.5163 -0.1583
 6499SOL     OW22388   8.535   2.468   7.952 -0.2463 -0.4201  0.4410
 6499SOL    HW122389   8.587   2.417   8.014 -2.7733 -1.7770  1.5938
 6499SOL    HW222390   8.444   2.450   7.976 -1.3003  1.6085 -1.6268
 6500SOL     OW22391   4.354   5.224   8.648 -0.1558  1.0398 -0.5270
 6500SOL    HW122392   4.373   5.309   8.608  0.0038  1.4452  0.3843
 6500SOL    HW222393   4.329   5.245   8.738 -0.9997  0.1870 -0.5504
 6501SOL     OW22394   2.957   5.009   4.173  0.1712 -0.5409  0.2522
 6501SOL    HW122395   2.950   4.975   4.261  0.7702 -1.0013  0.1293
 6501SOL    HW222396   2.909   5.092   4.175 -0.1468 -0.7389  0.9012
 6502SOL     OW22397   8.239   3.649   7.813  0.0947 -0.2055 -0.5515
 6502SOL    HW122398   8.310   3.707   7.841 -1.1612  1.2206 -0.2180
 6502SOL    HW222399   8.225   3.592   7.888 -0.1914  0.5845  0.0066
 6503SOL     OW22400   6.481   2.719   3.421  0.5039 -0.7529  0.3977
 6503SOL    HW122401   6.388   2.715   3.398  0.8038  1.8027 -1.6744
 6503SOL    HW222402   6.482   2.727   3.516 -1.5552  1.4600  0.3219
 6504SOL     OW22403   3.595   8.731   9.173 -0.0986 -0.0777  0.1016
 6504SOL    HW122404   3.609   8.820   9.141  0.2517 -0.4950 -0.9747
 6504SOL    HW222405   3.631   8.731   9.262 -0.7215  1.0219  0.3702
 6505SOL     OW22406   4.241   6.989   9.012  0.0083  0.2762 -0.2425
 6505SOL    HW122407   4.293   7.068   9.002  0.6319  0.2475  2.1022
 6505SOL    HW222408   4.271   6.950   9.094 -1.0472 -1.8244 -0.7613
 6506SOL     OW22409   2.700   2.960   1.498 -0.3329 -0.0009  0.0541
 6506SOL    HW122410   2.729   2.946   1.588  0.0106 -2.9219 -0.4115
 6506SOL    HW222411   2.605   2.958   1.503 -0.3305 -1.7728  0.2310
 6507SOL     OW22412   2.722   5.635   0.454 -0.0020 -0.1714  0.0373
 6507SOL    HW122413   2.770   5.568   0.502  2.2790  0.8411 -0.7068
 6507SOL    HW222414   2.720   5.605   0.363  1.4285  0.9045 -0.3881
 6508SOL     OW22415   6.816   2.100   5.607 -0.2312 -0.2403  0.1931
 6508SOL    HW122416   6.886   2.165   5.610 -0.1041 -0.3187 -0.7594
 6508SOL    HW222417   6.743   2.142   5.654  0.6693 -0.4752  1.8863
 6509SOL     OW22418   1.916   3.977   3.901  0.3785 -0.2242  0.3434
 6509SOL    HW122419   1.894   4.048   3.840 -0.0260 -0.0275  0.7144
 6509SOL    HW222420   2.002   3.947   3.872 -0.1834 -0.7179 -0.8624
 6510SOL     OW22421   4.454   5.852   1.699 -0.1180 -0.3846 -0.2078
 6510SOL    HW122422   4.460   5.916   1.770  0.7832  1.6099 -1.9609
 6510SOL    HW222423   4.544   5.821   1.687 -0.5614 -2.1176  0.6854
 6511SOL     OW22424   2.105   3.452   3.328  0.1357  0.2950 -0.5278
 6511SOL    HW122425   2.058   3.456   3.245  0.0609 -2.3902 -0.7170
 6511SOL    HW222426   2.039   3.421   3.391  0.2745  1.9633  0.5094
 6512SOL     OW22427   6.148   2.928   0.352 -0.3516 -0.5138 -0.3996
 6512SOL    HW122428   6.144   3.009   0.402  0.1089 -1.1924  0.7813
 6512SOL    HW222429   6.144   2.956   0.261 -3.2422  0.6316 -0.0087
 6513SOL     OW22430   8.231   8.232   4.396 -0.0279 -0.1807 -0.0755
 6513SOL    HW122431   8.140   8.206   4.404 -0.1537  0.4061  0.5418
 6513SOL    HW222432   8.281   8.152   4.412 -0.4288 -0.4461 -0.1444
 6514SOL     OW22433   1.227   1.032   1.868  0.4019 -0.1563 -0.2991
 6514SOL    HW122434   1.291   1.079   1.922  1.4411 -1.0687 -0.6852
 6514SOL    HW222435   1.262   0.943   1.863  0.2242 -0.1483 -2.2881
 6515SOL     OW22436   3.975   5.500   3.108 -0.2907 -0.3741  0.1717
 6515SOL    HW122437   4.053   5.552   3.127 -1.1341  0.3282  1.9007
 6515SOL    HW222438   3.902   5.559   3.128 -1.2627 -1.5619  0.1969
 6516SOL     OW22439   4.769   2.807   4.288 -0.1603 -0.0009 -0.6431
 6516SOL    HW122440   4.697   2.870   4.291 -0.2727 -0.1348 -0.4986
 6516SOL    HW222441   4.830   2.843   4.224  0.4075  0.9327  0.3892
 6517SOL     OW22442   3.531   2.197   8.990  0.5821  0.3291 -0.0852
 6517SOL    HW122443   3.440   2.195   8.961  0.1335  1.2673  1.1728
 6517SOL    HW222444   3.581   2.211   8.910 -0.3667 -0.2404 -0.7993
 6518SOL     OW22445   2.030   8.820   3.664  0.5048 -0.7952 -0.0880
 6518SOL    HW122446   1.937   8.804   3.678  0.2252  1.3612  0.9103
 6518SOL    HW222447   2.035   8.911   3.637  2.3657 -0.7570  0.2457
 6519SOL     OW22448   6.138   5.758   1.160 -0.3862  0.3010  0.4141
 6519SOL    HW122449   6.140   5.664   1.140  2.3996  0.5382 -1.0082
 6519SOL    HW222450   6.163   5.800   1.078  0.0050  2.1700  1.4347
 6520SOL     OW22451   3.226   7.264   4.000 -0.3395  0.4340  0.4692
 6520SOL    HW122452   3.223   7.172   3.974 -0.0287  0.5836 -0.1158
 6520SOL    HW222453   3.186   7.311   3.927  0.7337  0.8762  0.1459
 6521SOL     OW22454   2.450   3.071   5.146  0.2483 -0.1223  0.1385
 6521SOL    HW122455   2.377   3.091   5.205  0.0788 -2.2516  0.7145
 6521SOL    HW222456   2.482   2.986   5.176 -0.1280 -1.5404 -3.1292
 6522SOL     OW22457   6.706   2.627   6.665  0.1459 -0.7087 -0.0271
 6522SOL    HW122458   6.788   2.651   6.708 -1.2520  0.8499  1.9119
 6522SOL    HW222459   6.711   2.668   6.578  1.4197 -0.7016  0.0325
 6523SOL     OW22460   4.054   0.222   6.822  0.1066 -0.3052 -0.1075
 6523SOL    HW122461   4.148   0.204   6.826  0.1870  0.0613 -0.3925
 6523SOL    HW222462   4.013   0.135   6.829  0.4769 -0.5329 -0.6930
 6524SOL     OW22463   4.723   0.331   6.088 -0.2929  0.3569 -0.4560
 6524SOL    HW122464   4.762   0.409   6.128  1.9984 -0.7304 -0.4048
 6524SOL    HW222465   4.678   0.364   6.011  0.2137  1.7901 -0.1691
 6525SOL     OW22466   2.132   1.642   4.496 -0.4232 -0.1499  0.0963
 6525SOL    HW122467   2.148   1.716   4.439 -3.2007 -1.3322 -2.4581
 6525SOL    HW222468   2.184   1.571   4.458 -1.2895 -0.6211 -0.2358
 6526SOL     OW22469   2.168   5.119   8.274  0.3566  0.8101  0.3627
 6526SOL    HW122470   2.183   5.211   8.294  0.8614  0.9166 -0.4615
 6526SOL    HW222471   2.242   5.094   8.218 -0.8001  0.4504 -1.0812
 6527SOL     OW22472   4.365   7.769   7.276 -0.6153  0.4529  0.4265
 6527SOL    HW122473   4.280   7.762   7.319 -0.7768 -0.5047 -0.0232
 6527SOL    HW222474   4.391   7.860   7.288 -0.1907  0.0445  3.4017
 6528SOL     OW22475   0.461   8.714   0.326 -0.7081  0.1369 -0.1364
 6528SOL    HW122476   0.387   8.693   0.270 -0.8548  4.1836 -1.8215
 6528SOL    HW222477   0.428   8.702   0.415 -2.2797 -1.1824 -0.8533
 6529SOL     OW22478   8.946   5.681   6.268  0.4100  0.2107  0.1878
 6529SOL    HW122479   8.889   5.661   6.193  1.0404 -0.2818 -0.1641
 6529SOL    HW222480   8.926   5.612   6.332  0.5438  0.0971  0.1054
 6530SOL     OW22481   1.608   0.203   7.747 -0.4997  0.4424  0.2555
 6530SOL    HW122482   1.618   0.233   7.657  0.1448  0.8095  0.4429
 6530SOL    HW222483   1.685   0.149   7.763 -0.0448  1.2561  0.9229
 6531SOL     OW22484   2.387   2.709   2.215  0.4306 -0.0483 -0.4543
 6531SOL    HW122485   2.338   2.657   2.278  0.4929  0.6704  0.2184
 6531SOL    HW222486   2.393   2.655   2.137 -2.2507  0.1848 -0.9241
 6532SOL     OW22487   7.930   0.690   1.460 -0.0078 -0.4655  0.3280
 6532SOL    HW122488   8.014   0.701   1.415 -0.1332 -1.3159 -0.1151
 6532SOL    HW222489   7.954   0.652   1.545  0.1499  0.3509  0.6579
 6533SOL     OW22490   6.331   1.409   7.175 -0.8222  0.1748 -0.4592
 6533SOL    HW122491   6.320   1.393   7.082 -3.8918 -0.3474 -0.1201
 6533SOL    HW222492   6.323   1.504   7.184  0.0180  0.2840 -0.7383
 6534SOL     OW22493   2.127   1.622   4.095 -0.2128  0.0177 -0.6219
 6534SOL    HW122494   2.160   1.567   4.166 -2.8921 -1.9309 -0.7424
 6534SOL    HW222495   2.082   1.694   4.140 -0.1530 -0.0958 -0.3795
 6535SOL     OW22496   0.986   0.724   4.551 -0.2250  0.2903 -0.0536
 6535SOL    HW122497   1.051   0.793   4.565  1.1316 -0.6337 -1.4763
 6535SOL    HW222498   0.947   0.743   4.466 -0.7435 -0.0053  0.1107
 6536SOL     OW22499   7.800   7.086   1.870  0.1500  0.4342  0.3822
 6536SOL    HW122500   7.804   7.179   1.850 -0.5325  0.0080 -2.0572
 6536SOL    HW222501   7.738   7.080   1.943 -0.6338  1.8052 -0.1347
 6537SOL     OW22502   3.318   5.973   8.610  0.1875 -0.0443  0.2801
 6537SOL    HW122503   3.248   5.928   8.563  1.0506  0.0532 -1.1646
 6537SOL    HW222504   3.370   6.014   8.541  1.4048  0.2582  1.3480
 6538SOL     OW22505   2.685   3.090   9.126 -0.5836  0.0187  0.0436
 6538SOL    HW122506   2.712   3.178   9.153 -1.6137  0.0182  1.1743
 6538SOL    HW222507   2.695   3.038   9.206 -0.1800 -0.8559 -0.5663
 6539SOL     OW22508   7.866   2.493   4.535  0.6341 -0.5841 -0.0949
 6539SOL    HW122509   7.851   2.519   4.626  1.1409 -2.0770  0.4429
 6539SOL    HW222510   7.797   2.430   4.516  0.2338  0.0949 -0.9237
 6540SOL     OW22511   2.180   5.524   8.929  0.0660  0.0150 -0.0854
 6540SOL    HW122512   2.146   5.608   8.900 -0.1356 -0.4591 -1.2832
 6540SOL    HW222513   2.111   5.461   8.906  0.3676 -0.5291  0.4636
 6541SOL     OW22514   6.733   5.197   5.844 -0.4069 -0.2499  0.1504
 6541SOL    HW122515   6.670   5.219   5.913 -0.0996  2.4636 -0.3241
 6541SOL    HW222516   6.808   5.254   5.861  0.2419 -0.5098 -1.6246
 6542SOL     OW22517   1.215   7.179   2.104  0.0652 -0.8803 -0.0757
 6542SOL    HW122518   1.221   7.171   2.199  0.6563  0.6754  0.0439
 6542SOL    HW222519   1.160   7.256   2.090  2.3182  0.6687 -0.9245
 6543SOL     OW22520   4.836   2.076   8.563  0.2283 -0.0211 -0.1232
 6543SOL    HW122521   4.825   1.984   8.535  1.1889  0.1058 -1.0220
 6543SOL    HW222522   4.901   2.111   8.501 -0.0508  1.2385  0.2804
 6544SOL     OW22523   2.408   8.472   0.263 -0.1875  0.5902  0.0726
 6544SOL    HW122524   2.483   8.451   0.207  0.7685  0.3984  1.3772
 6544SOL    HW222525   2.334   8.478   0.202  0.6221 -0.5799 -1.0941
 6545SOL     OW22526   7.880   5.834   6.461 -0.3823  0.5053 -0.3416
 6545SOL    HW122527   7.851   5.752   6.500  0.3834 -0.3061 -1.4258
 6545SOL    HW222528   7.844   5.833   6.372  3.1855 -0.7886 -1.9443
 6546SOL     OW22529   8.911   6.648   5.535 -0.2997  0.3614  0.0843
 6546SOL    HW122530   8.895   6.556   5.514  0.2052  0.1557  0.5716
 6546SOL    HW222531   8.987   6.646   5.594  0.9349  1.2204 -1.3946
 6547SOL     OW22532   3.924   6.213   6.719 -0.9113 -0.5285 -0.0523
 6547SOL    HW122533   3.903   6.155   6.792  0.0201 -0.1556  0.5229
 6547SOL    HW222534   3.957   6.155   6.651  1.1356 -0.5859  0.9408
 6548SOL     OW22535   8.317   4.124   0.261 -0.0087  0.2205 -0.2434
 6548SOL    HW122536   8.330   4.049   0.319 -1.8976  1.3096  1.7144
 6548SOL    HW222537   8.234   4.107   0.217  0.8128 -0.0071 -1.8034
 6549SOL     OW22538   8.326   0.573   8.042 -0.1555  0.6089 -0.0392
 6549SOL    HW122539   8.409   0.587   7.996  0.2612  0.7663  0.7381
 6549SOL    HW222540   8.310   0.479   8.033 -0.3567  0.7191 -0.9481
 6550SOL     OW22541   4.893   5.696   4.759  0.8841 -0.6440  0.1465
 6550SOL    HW122542   4.937   5.624   4.804 -0.6161 -1.2300  0.7716
 6550SOL    HW222543   4.836   5.652   4.695  0.8944  0.0603 -0.3515
 6551SOL     OW22544   9.036   2.069   0.204 -0.0635  0.2876 -0.1939
 6551SOL    HW122545   9.027   2.105   0.116 -1.1664  0.4265 -0.0407
 6551SOL    HW222546   8.993   1.983   0.199  0.9647 -0.2447 -0.0992
 6552SOL     OW22547   7.749   6.604   6.835  0.3872 -0.6571  0.0354
 6552SOL    HW122548   7.836   6.566   6.819  0.0469 -0.7731 -1.7245
 6552SOL    HW222549   7.767   6.695   6.861  1.0351 -0.4004 -1.2259
 6553SOL     OW22550   1.566   4.907   6.099 -0.0238 -0.3934  0.1484
 6553SOL    HW122551   1.569   4.823   6.053 -1.9786 -0.3036 -0.2297
 6553SOL    HW222552   1.555   4.883   6.191 -2.7243 -0.6587 -0.1455
 6554SOL     OW22553   1.647   3.393   6.094  0.6101 -0.3667  0.2548
 6554SOL    HW122554   1.553   3.381   6.106  0.6422 -1.6449 -0.5965
 6554SOL    HW222555   1.659   3.488   6.091 -0.5434 -0.1716  1.0779
 6555SOL     OW22556   0.608   4.229   3.299 -0.0274  0.3247 -0.8139
 6555SOL    HW122557   0.635   4.226   3.391 -1.0536 -0.1458 -0.5083
 6555SOL    HW222558   0.527   4.281   3.300 -0.2422  0.0107 -1.4012
 6556SOL     OW22559   4.231   0.152   2.406  0.2314  0.2164 -0.3632
 6556SOL    HW122560   4.174   0.116   2.338 -0.8988  0.2843  0.5071
 6556SOL    HW222561   4.273   0.076   2.446  3.2544  0.3094 -3.0253
 6557SOL     OW22562   9.011   2.527   4.303  0.4000 -0.0703  0.0045
 6557SOL    HW122563   9.013   2.614   4.344 -0.8149  0.1702 -0.3971
 6557SOL    HW222564   9.101   2.511   4.276  0.7515  0.8183  0.5999
 6558SOL     OW22565   3.859   7.111   0.658  0.2185 -0.2954  0.2123
 6558SOL    HW122566   3.818   7.038   0.704  1.7342 -0.8409  0.7407
 6558SOL    HW222567   3.786   7.171   0.639 -0.6167 -0.5625  2.3365
 6559SOL     OW22568   5.986   2.182   6.769  0.3170  0.7009  0.1311
 6559SOL    HW122569   6.081   2.176   6.758  0.0950 -1.4678 -1.0947
 6559SOL    HW222570   5.972   2.268   6.810  2.7392  1.3238 -0.1978
 6560SOL     OW22571   7.083   0.357   3.579 -0.0531 -0.3887 -0.3433
 6560SOL    HW122572   7.032   0.346   3.659  0.3976 -1.3164 -0.1714
 6560SOL    HW222573   7.042   0.300   3.516  0.4327 -0.7212 -0.3644
 6561SOL     OW22574   4.753   8.002   7.004 -0.1775  0.2861 -0.5418
 6561SOL    HW122575   4.805   8.051   7.067  1.3249  1.6999 -2.7497
 6561SOL    HW222576   4.664   8.036   7.015 -0.1333 -0.0598  1.2644
 6562SOL     OW22577   7.937   4.383   4.607 -0.2496  0.1199  0.7040
 6562SOL    HW122578   7.970   4.313   4.663  1.7698 -0.9527 -1.6247
 6562SOL    HW222579   7.891   4.338   4.536  0.0927  1.1888 -0.2401
 6563SOL     OW22580   5.195   8.930   8.763 -0.5148  0.2747  0.5198
 6563SOL    HW122581   5.270   8.872   8.777 -0.0747  0.7140  0.0104
 6563SOL    HW222582   5.225   9.015   8.794 -0.7841  0.4657  0.2551
 6564SOL     OW22583   7.971   6.018   1.882 -0.0845  0.4003 -0.4305
 6564SOL    HW122584   7.978   6.047   1.973  0.2967  0.8844 -0.6130
 6564SOL    HW222585   7.979   6.098   1.830 -1.8741  0.3621 -0.8609
 6565SOL     OW22586   1.382   7.087   3.284 -0.0691 -0.5062 -0.0476
 6565SOL    HW122587   1.469   7.058   3.256 -0.1700 -1.9448  0.9871
 6565SOL    HW222588   1.354   7.149   3.217  1.6414 -0.2179 -0.5358
 6566SOL     OW22589   5.828   6.000   5.991  0.5066 -0.3952  0.3499
 6566SOL    HW122590   5.814   6.065   6.060 -0.9454 -0.0717 -0.2060
 6566SOL    HW222591   5.898   6.038   5.937  2.2033 -1.0040  2.0114
 6567SOL     OW22592   1.790   8.469   4.589 -0.2515  0.2539  0.2967
 6567SOL    HW122593   1.708   8.507   4.557 -0.5076 -0.7886 -0.3478
 6567SOL    HW222594   1.765   8.418   4.665 -0.6529 -1.9303 -1.1921
 6568SOL     OW22595   1.187   6.687   9.069  0.0504 -0.1581 -0.0446
 6568SOL    HW122596   1.149   6.752   9.010 -1.3554  1.4091  2.4121
 6568SOL    HW222597   1.271   6.723   9.094  0.2123 -0.3419 -0.3206
 6569SOL     OW22598   4.482   8.556   2.204  0.0733  0.3903  0.1313
 6569SOL    HW122599   4.493   8.514   2.290  1.2967  0.7969  0.1896
 6569SOL    HW222600   4.514   8.646   2.217 -1.7704  1.1356 -0.1964
 6570SOL     OW22601   6.821   6.789   4.827  0.1286  0.0508 -0.2292
 6570SOL    HW122602   6.848   6.699   4.845  0.0692  0.0347 -0.2209
 6570SOL    HW222603   6.900   6.841   4.842  0.0511  0.0508  0.2047
 6571SOL     OW22604   7.121   5.442   5.484 -0.2734  0.1375  0.7242
 6571SOL    HW122605   7.030   5.464   5.462 -0.3377 -0.1338  0.7155
 6571SOL    HW222606   7.174   5.489   5.420 -0.3092  1.8993  1.9324
 6572SOL     OW22607   3.070   8.140   7.193 -0.9573 -0.0508  0.2684
 6572SOL    HW122608   3.018   8.203   7.143  0.7628 -0.7919 -2.6703
 6572SOL    HW222609   3.005   8.089   7.242 -2.6395  1.6314 -0.1055
 6573SOL     OW22610   8.932   2.427   4.047 -0.4020 -0.4817 -0.4778
 6573SOL    HW122611   8.944   2.490   4.118  0.6737  0.2495 -1.2767
 6573SOL    HW222612   8.930   2.480   3.968  1.8824 -1.4729 -1.2991
 6574SOL     OW22613   4.744   5.621   3.344  0.0915  0.2524 -0.0267
 6574SOL    HW122614   4.654   5.644   3.320  0.0306  0.5981  0.5266
 6574SOL    HW222615   4.758   5.663   3.428  0.0721 -1.5258  0.9010
 6575SOL     OW22616   5.933   7.790   5.270 -0.0166  0.5819 -0.3077
 6575SOL    HW122617   5.855   7.840   5.246 -0.4913  0.2083  0.4060
 6575SOL    HW222618   5.926   7.709   5.219 -0.2166  0.4484 -0.0672
 6576SOL     OW22619   7.736   1.390   0.959 -0.0547  0.4256  0.4067
 6576SOL    HW122620   7.711   1.304   0.924  0.0318  0.2800  0.7001
 6576SOL    HW222621   7.733   1.378   1.054 -0.4814  0.8719  0.4534
 6577SOL     OW22622   0.619   8.930   0.286  0.1440 -0.3896 -0.8546
 6577SOL    HW122623   0.543   8.873   0.300 -0.2104  0.4747  1.1020
 6577SOL    HW222624   0.667   8.925   0.368  0.4898  1.5374 -0.8968
 6578SOL     OW22625   6.556   6.685   5.282 -0.2896  0.5433 -0.0467
 6578SOL    HW122626   6.514   6.758   5.237  0.8643  0.8337 -0.7190
 6578SOL    HW222627   6.573   6.621   5.213 -1.0353 -0.2540  0.4901
 6579SOL     OW22628   1.271   3.297   1.249  0.2393  0.2630 -0.1629
 6579SOL    HW122629   1.306   3.385   1.235  2.9240 -0.7594 -0.5401
 6579SOL    HW222630   1.263   3.290   1.344 -0.4999  1.0734 -0.1538
 6580SOL     OW22631   8.905   7.414   2.794 -0.4511  0.2064 -0.0671
 6580SOL    HW122632   8.973   7.433   2.729  0.7164 -2.9934  0.0340
 6580SOL    HW222633   8.861   7.335   2.761 -0.8356 -0.6335  2.2433
 6581SOL     OW22634   3.591   7.046   4.075  0.1234 -0.3889  0.5658
 6581SOL    HW122635   3.555   6.985   4.140  0.8787 -0.4398  0.9519
 6581SOL    HW222636   3.685   7.027   4.075  0.2104  0.0417 -0.0977
 6582SOL     OW22637   7.412   4.392   7.167  0.1427 -0.5811  0.5475
 6582SOL    HW122638   7.383   4.333   7.236  0.0796 -0.0569  0.9739
 6582SOL    HW222639   7.351   4.375   7.095 -0.4572 -0.3686  0.9986
 6583SOL     OW22640   1.083   0.722   0.334 -0.1976  0.0965  0.1467
 6583SOL    HW122641   1.096   0.768   0.417  1.4942  0.1001 -0.0867
 6583SOL    HW222642   1.077   0.630   0.358 -0.4662  0.1629  0.3354
 6584SOL     OW22643   3.100   8.752   7.659  0.1823  0.2352  0.5050
 6584SOL    HW122644   3.037   8.696   7.614  1.2272  0.2655 -1.0586
 6584SOL    HW222645   3.046   8.810   7.712 -0.9881 -1.2313  1.0039
 6585SOL     OW22646   5.269   4.606   1.542  0.3253  0.3767  0.0520
 6585SOL    HW122647   5.185   4.638   1.509 -0.5869 -0.3041  1.5817
 6585SOL    HW222648   5.320   4.685   1.560  0.9384  0.7976 -2.9186
 6586SOL     OW22649   2.103   0.441   1.529 -0.2435  0.0142 -0.1031
 6586SOL    HW122650   2.041   0.375   1.558 -0.9691  1.0937  0.9063
 6586SOL    HW222651   2.171   0.442   1.597 -0.1928  0.2394 -0.1546
 6587SOL     OW22652   9.050   7.115   4.298  0.4294  0.6238  0.2196
 6587SOL    HW122653   9.067   7.081   4.210 -0.0867  0.9034  0.0071
 6587SOL    HW222654   9.108   7.064   4.355  1.7059  1.3006 -0.4274
 6588SOL     OW22655   5.440   0.457   8.020  0.4322 -0.0601 -0.2531
 6588SOL    HW122656   5.366   0.513   8.043  0.0556 -0.1770 -1.1409
 6588SOL    HW222657   5.422   0.375   8.066  0.6515  0.3185  0.5258
 6589SOL     OW22658   3.728   2.675   0.508  0.6161  0.1481 -0.2447
 6589SOL    HW122659   3.678   2.683   0.590  0.5210 -2.8776  0.1012
 6589SOL    HW222660   3.661   2.665   0.440  0.6661  3.3662 -0.9389
 6590SOL     OW22661   1.862   2.729   0.666 -0.2250 -0.1131  0.2117
 6590SOL    HW122662   1.937   2.731   0.725 -0.6905  0.8987  0.8085
 6590SOL    HW222663   1.799   2.672   0.710 -0.3776  0.2399  0.4581
 6591SOL     OW22664   9.042   2.228   6.573  0.8584  0.3304  0.2117
 6591SOL    HW122665   9.004   2.313   6.553  0.8150 -0.0975 -1.7289
 6591SOL    HW222666   9.126   2.249   6.614 -0.6822  1.2642  3.2007
 6592SOL     OW22667   7.694   7.327   0.615 -0.4111  0.2006  0.1826
 6592SOL    HW122668   7.777   7.306   0.572 -0.4711  0.6594 -0.1672
 6592SOL    HW222669   7.695   7.275   0.695 -0.0477 -0.2444 -0.1018
 6593SOL     OW22670   1.283   8.825   3.231 -0.2377 -0.2756 -0.1374
 6593SOL    HW122671   1.355   8.769   3.202 -0.0259  1.1534 -2.6790
 6593SOL    HW222672   1.326   8.906   3.259 -0.6691 -0.6400  1.6832
 6594SOL     OW22673   3.183   8.892   5.674 -0.5238 -0.4460  0.2639
 6594SOL    HW122674   3.174   8.877   5.768 -0.0327 -1.0406  0.2237
 6594SOL    HW222675   3.273   8.866   5.654 -1.3345 -2.7630 -0.7826
 6595SOL     OW22676   3.554   5.944   3.455  0.0199  0.5989  0.6075
 6595SOL    HW122677   3.630   5.954   3.513 -0.2590  1.1098  0.8874
 6595SOL    HW222678   3.589   5.957   3.367  0.2482  0.8984  0.7410
 6596SOL     OW22679   7.875   1.653   6.611 -0.1444 -0.5941 -0.0317
 6596SOL    HW122680   7.952   1.617   6.655 -0.1882 -0.4227  0.1867
 6596SOL    HW222681   7.879   1.617   6.522  2.2068  2.2773 -1.2453
 6597SOL     OW22682   2.916   0.422   1.307 -0.8018  0.1356 -0.2133
 6597SOL    HW122683   2.914   0.334   1.268 -0.2438 -0.7771  1.7069
 6597SOL    HW222684   2.873   0.478   1.242  0.2447 -1.2446 -2.2217
 6598SOL     OW22685   7.023   0.001   0.627  0.0128 -0.0001 -0.8034
 6598SOL    HW122686   7.112  -0.020   0.654  0.4200  0.6420 -1.5750
 6598SOL    HW222687   6.995  -0.075   0.575 -0.0902 -0.4237 -0.1451
 6599SOL     OW22688   6.042   2.269   7.591 -0.1257  0.0331 -0.4228
 6599SOL    HW122689   5.978   2.305   7.531  0.3694  1.5845 -0.0782
 6599SOL    HW222690   6.126   2.277   7.545 -0.0895 -1.3742 -0.6208
 6600SOL     OW22691   7.593   8.913   0.125  0.2048 -0.0112 -0.4608
 6600SOL    HW122692   7.512   8.950   0.159  0.1462 -1.1220  0.6772
 6600SOL    HW222693   7.622   8.975   0.059 -1.4749  0.5039 -0.7589
 6601SOL     OW22694   2.581   4.110   7.248  0.0251  0.2656  0.2869
 6601SOL    HW122695   2.629   4.057   7.312  0.5021  0.2083 -0.1159
 6601SOL    HW222696   2.643   4.179   7.224 -0.5099  0.8837  0.6381
 6602SOL     OW22697   0.706   5.337   2.866 -0.2778  0.3900 -0.2590
 6602SOL    HW122698   0.695   5.417   2.918 -1.0047 -0.7146  1.3465
 6602SOL    HW222699   0.778   5.291   2.908 -0.7335 -0.4269 -0.3658
 6603SOL     OW22700   3.866   8.496   1.261 -0.2722 -0.4350 -0.4365
 6603SOL    HW122701   3.919   8.550   1.320 -0.1236 -2.8517  1.8046
 6603SOL    HW222702   3.924   8.479   1.186  0.5351  0.4615 -0.0326
 6604SOL     OW22703   8.427   8.002   9.070 -0.3940  0.1756  0.2514
 6604SOL    HW122704   8.433   8.022   8.976 -0.4710 -2.1364 -0.2994
 6604SOL    HW222705   8.335   8.017   9.092 -0.6171 -0.3669 -0.3111
 6605SOL     OW22706   2.809   3.075   6.392 -0.1395 -0.5360  0.2678
 6605SOL    HW122707   2.829   2.998   6.338 -0.7777 -1.2456  1.0256
 6605SOL    HW222708   2.716   3.091   6.377  0.2829  0.9774 -0.9824
 6606SOL     OW22709   8.888   5.610   4.468 -0.2023  0.0712 -0.4292
 6606SOL    HW122710   8.921   5.698   4.488 -0.6783 -0.1151  1.3894
 6606SOL    HW222711   8.811   5.625   4.413 -0.1585  0.7921 -0.3096
 6607SOL     OW22712   6.227   7.031   6.631  0.6685 -0.4607 -0.2940
 6607SOL    HW122713   6.160   7.041   6.699  1.6258 -1.0162  0.7433
 6607SOL    HW222714   6.206   6.948   6.589 -0.0936  0.0180 -0.9009
 6608SOL     OW22715   4.581   5.057   6.236 -0.1859 -0.7942 -0.2214
 6608SOL    HW122716   4.488   5.056   6.257 -0.0146 -1.0905  0.5481
 6608SOL    HW222717   4.614   5.138   6.276  0.7760 -2.8587  3.6602
 6609SOL     OW22718   3.929   2.661   5.104  0.0934  0.5045  0.5167
 6609SOL    HW122719   3.965   2.640   5.018 -1.6249  1.2201 -0.4222
 6609SOL    HW222720   3.864   2.729   5.087 -2.4647 -1.4419  1.9520
 6610SOL     OW22721   4.828   9.023   8.426  0.1678  0.3584  0.0899
 6610SOL    HW122722   4.733   9.031   8.435  0.2089 -0.2887  1.3650
 6610SOL    HW222723   4.841   8.933   8.393  0.3716  0.0738  0.9239
 6611SOL     OW22724   6.841   2.227   8.804  0.5769 -0.1719  0.2708
 6611SOL    HW122725   6.869   2.164   8.738  0.4049  0.2019 -0.1683
 6611SOL    HW222726   6.883   2.310   8.777 -1.1448  0.4748 -0.5862
 6612SOL     OW22727   4.242   3.919   4.922  0.1997 -0.7484 -0.1330
 6612SOL    HW122728   4.312   3.957   4.976 -0.8542  0.6406  0.3105
 6612SOL    HW222729   4.259   3.825   4.923 -0.1864 -0.8974  3.2623
 6613SOL     OW22730   7.957   7.951   7.077 -0.0800  0.1438  0.4189
 6613SOL    HW122731   7.952   8.014   7.005  0.2225  0.6309  0.8124
 6613SOL    HW222732   7.983   8.004   7.152  3.3726 -0.8919  0.1198
 6614SOL     OW22733   0.194   0.144   3.956 -0.1493  0.5839  0.3135
 6614SOL    HW122734   0.154   0.109   3.876  1.1528 -0.4658  0.0801
 6614SOL    HW222735   0.224   0.067   4.003  0.9166  1.2871  0.8275
 6615SOL     OW22736   3.816   2.089   4.737  0.0360  0.2336  0.8507
 6615SOL    HW122737   3.763   2.114   4.813 -0.0705 -0.3218  0.9650
 6615SOL    HW222738   3.879   2.160   4.727 -0.5390  0.7630  0.8952
 6616SOL     OW22739   0.573   3.577   7.749  0.8524 -0.0336  0.2533
 6616SOL    HW122740   0.517   3.644   7.789  0.4813  0.7645 -1.4872
 6616SOL    HW222741   0.655   3.581   7.798  0.4303  0.8969  0.9079
 6617SOL     OW22742   6.889   1.945   0.692  0.4582  0.0171  0.0122
 6617SOL    HW122743   6.859   1.970   0.779  1.2857 -1.0989  0.6524
 6617SOL    HW222744   6.810   1.923   0.643 -0.2156  2.7716 -0.2686
 6618SOL     OW22745   4.688   8.668   8.434  0.0187  0.5768  0.3942
 6618SOL    HW122746   4.757   8.713   8.385 -0.2450  0.0529 -0.4697
 6618SOL    HW222747   4.644   8.613   8.369 -1.7402  1.4947  0.7445
 6619SOL     OW22748   1.330   0.366   9.206  0.1045 -0.0624  0.1969
 6619SOL    HW122749   1.332   0.362   9.110  2.1272 -0.4615  0.2159
 6619SOL    HW222750   1.293   0.282   9.232 -1.0092  0.2756 -0.2111
 6620SOL     OW22751   6.524   1.283   6.730  0.0181 -0.1992  0.1686
 6620SOL    HW122752   6.607   1.261   6.689  1.5562  3.8684  0.6275
 6620SOL    HW222753   6.470   1.317   6.659 -0.0127  0.2128  0.3850
 6621SOL     OW22754   8.242   9.207   4.243  0.5669  0.7039 -0.3901
 6621SOL    HW122755   8.151   9.177   4.246 -0.2241  2.5760 -2.8650
 6621SOL    HW222756   8.290   9.134   4.203  0.2498 -0.3172  0.9846
 6622SOL     OW22757   5.920   4.968   4.750 -0.3416 -0.6829  0.0833
 6622SOL    HW122758   5.825   4.955   4.749 -0.3364 -0.7079 -0.2386
 6622SOL    HW222759   5.952   4.914   4.678 -0.3217  1.1188 -1.3525
 6623SOL     OW22760   5.545   0.489   4.276 -0.0559  0.2758  1.2187
 6623SOL    HW122761   5.557   0.394   4.282  0.1275  0.2755  0.8878
 6623SOL    HW222762   5.556   0.520   4.366  1.3753  0.1459  1.1178
 6624SOL     OW22763   6.737   3.218   4.710  0.4478 -0.2565 -0.0326
 6624SOL    HW122764   6.649   3.228   4.675 -0.8036  2.0197  3.3512
 6624SOL    HW222765   6.727   3.157   4.783  1.5297  0.4778  0.7638
 6625SOL     OW22766   3.035   2.778   6.448 -0.3140  0.1458  0.8628
 6625SOL    HW122767   3.070   2.863   6.421  2.7395 -0.3828  2.7420
 6625SOL    HW222768   2.980   2.798   6.523  1.5573  0.4177  2.2311
 6626SOL     OW22769   0.105   1.186   5.937 -0.2471 -0.3063 -0.8970
 6626SOL    HW122770   0.163   1.116   5.965 -0.8947 -0.1372  1.0168
 6626SOL    HW222771   0.056   1.210   6.016 -2.2591  0.1765 -2.1940
 6627SOL     OW22772   0.276   2.200   7.691 -0.0162  0.4258 -0.2103
 6627SOL    HW122773   0.313   2.245   7.767  0.1644 -2.5414  1.5944
 6627SOL    HW222774   0.193   2.244   7.676  1.5460  3.4811 -0.7250
 6628SOL     OW22775   7.059   7.935   1.171  0.2316  0.2025 -0.3087
 6628SOL    HW122776   7.110   7.935   1.252  0.6905 -1.6344 -0.5450
 6628SOL    HW222777   7.077   7.849   1.132 -1.0833  0.5026 -1.6537
 6629SOL     OW22778   2.358   6.433   8.094  0.5138 -0.3758 -0.5923
 6629SOL    HW122779   2.287   6.433   8.030 -0.5276 -1.7608  0.5169
 6629SOL    HW222780   2.433   6.397   8.047  0.3991  0.6847 -1.6447
 6630SOL     OW22781   5.730   5.992   4.588  0.1445 -0.3532 -0.0928
 6630SOL    HW122782   5.640   5.961   4.578 -0.6037  0.8474  2.1952
 6630SOL    HW222783   5.742   6.054   4.517  0.0233 -2.2385 -1.8321
 6631SOL     OW22784   5.147   1.402   4.410 -0.0889 -0.3086  0.3337
 6631SOL    HW122785   5.084   1.333   4.432 -0.1806  0.5672  3.1640
 6631SOL    HW222786   5.164   1.446   4.493  1.5641  1.7662 -1.0189
 6632SOL     OW22787   1.289   0.115   0.025  0.7165  0.1094  0.2470
 6632SOL    HW122788   1.274   0.027  -0.008 -2.7464  0.8298 -0.5205
 6632SOL    HW222789   1.242   0.118   0.109  0.2635  1.3283 -0.0199
 6633SOL     OW22790   6.193   2.918   6.660  0.6811  0.2970 -0.5205
 6633SOL    HW122791   6.197   2.911   6.755  1.2149 -1.8369 -0.6630
 6633SOL    HW222792   6.115   2.867   6.635 -0.6485  2.4765 -1.1460
 6634SOL     OW22793   0.024   8.800   2.584 -0.1517  0.0773  0.5459
 6634SOL    HW122794   0.051   8.843   2.665  0.9774  0.2545  0.1002
 6634SOL    HW222795   0.069   8.849   2.515  0.2142 -1.0740 -0.0584
 6635SOL     OW22796   8.542   5.480   1.726  0.5182  0.4229  0.2733
 6635SOL    HW122797   8.521   5.482   1.820 -0.6011  1.3545  0.0264
 6635SOL    HW222798   8.466   5.519   1.684  1.8974  2.0912 -0.8471
 6636SOL     OW22799   9.096   7.891   5.059 -0.6308  0.2409 -0.7755
 6636SOL    HW122800   9.171   7.881   5.000  0.6242 -1.2978  0.9622
 6636SOL    HW222801   9.032   7.827   5.028  0.9847 -2.3522  0.7971
 6637SOL     OW22802   6.120   7.944   3.193 -0.0258  0.4933  0.0218
 6637SOL    HW122803   6.171   7.937   3.113 -0.1896  0.2974 -0.0679
 6637SOL    HW222804   6.151   7.872   3.248 -1.1249 -0.4719 -0.5643
 6638SOL     OW22805   3.111   6.656   8.458 -0.0685 -0.1195  0.4057
 6638SOL    HW122806   3.074   6.663   8.370 -1.4345 -0.6521  0.9093
 6638SOL    HW222807   3.123   6.747   8.487  1.3158  0.0811 -0.6621
 6639SOL     OW22808   7.971   3.125   2.425  0.2631 -0.0815 -0.4000
 6639SOL    HW122809   7.958   3.145   2.518 -0.9394  0.2537 -0.6122
 6639SOL    HW222810   7.954   3.208   2.381  2.3832  0.1696 -0.8471
 6640SOL     OW22811   8.413   9.078   0.306  0.1457 -0.6005 -0.2367
 6640SOL    HW122812   8.331   9.127   0.309  0.7180  0.3177  1.3027
 6640SOL    HW222813   8.393   9.001   0.252 -1.3714  0.2199 -0.8897
 6641SOL     OW22814   1.690   0.474   0.456 -0.0643 -0.0122  0.2314
 6641SOL    HW122815   1.785   0.484   0.446 -0.1620  0.3787 -0.3643
 6641SOL    HW222816   1.672   0.385   0.427  0.0508  0.1125 -0.2373
 6642SOL     OW22817   0.529   4.310   2.483 -0.0369 -0.2911  0.1486
 6642SOL    HW122818   0.491   4.346   2.562 -2.3456 -1.5807 -0.2776
 6642SOL    HW222819   0.527   4.215   2.497  1.9115 -0.4592 -0.4466
 6643SOL     OW22820   7.773   3.149   8.085 -0.1041 -0.5079  0.3266
 6643SOL    HW122821   7.750   3.147   8.178 -0.8668 -0.6562  0.1484
 6643SOL    HW222822   7.813   3.234   8.071 -1.2067  0.0715  0.5298
 6644SOL     OW22823   7.573   3.417   3.512  0.0325 -0.4089 -0.4682
 6644SOL    HW122824   7.588   3.322   3.513 -1.7561 -0.7306  0.6791
 6644SOL    HW222825   7.505   3.430   3.446  0.4403  0.1220 -0.7936
 6645SOL     OW22826   1.205   8.720   8.915  0.1870 -0.3432 -0.3304
 6645SOL    HW122827   1.293   8.683   8.919 -0.2321 -1.2904  0.5143
 6645SOL    HW222828   1.189   8.754   9.003 -1.2212 -2.4668  0.3195
 6646SOL     OW22829   3.824   7.205   9.086 -0.7394  0.2735  1.0229
 6646SOL    HW122830   3.751   7.178   9.142 -1.6827 -0.1016 -0.3372
 6646SOL    HW222831   3.823   7.300   9.090 -1.6622  0.2906  0.5971
 6647SOL     OW22832   4.451   3.440   0.231  0.1895  0.2680  0.6903
 6647SOL    HW122833   4.360   3.445   0.259  1.0179  0.4973  3.5967
 6647SOL    HW222834   4.455   3.361   0.177 -2.1297  1.4703 -1.4487
 6648SOL     OW22835   9.149   3.678   1.548  0.3758 -0.3637 -0.3247
 6648SOL    HW122836   9.097   3.600   1.565  1.8308 -1.5024 -0.9018
 6648SOL    HW222837   9.118   3.709   1.462  0.1559 -0.6068 -0.3359
 6649SOL     OW22838   0.787   3.572   1.680 -0.1916  0.1718  0.2375
 6649SOL    HW122839   0.847   3.644   1.662 -2.0297  1.6308 -0.4063
 6649SOL    HW222840   0.722   3.609   1.740  0.4043 -1.8288  2.2189
 6650SOL     OW22841   1.060   7.657   8.738 -0.1389  0.2974 -0.0996
 6650SOL    HW122842   1.017   7.630   8.818  1.3852 -1.5652  0.1645
 6650SOL    HW222843   1.079   7.576   8.691  2.0074  1.0517 -0.7067
 6651SOL     OW22844   7.225   8.045   6.703  0.0071  0.0164  0.0706
 6651SOL    HW122845   7.153   8.042   6.767  0.6520  1.3912  0.9231
 6651SOL    HW222846   7.274   8.124   6.727 -0.1579  1.0453 -2.6147
 6652SOL     OW22847   0.480   0.248   2.933  0.0867 -0.4902  0.4116
 6652SOL    HW122848   0.410   0.184   2.920 -0.3644 -0.2759  1.5913
 6652SOL    HW222849   0.442   0.312   2.994  1.7031 -1.0654  2.1175
 6653SOL     OW22850   7.197   3.078   9.049  0.5990 -0.0721  0.6967
 6653SOL    HW122851   7.237   3.083   9.135 -0.6048  2.3292  1.1964
 6653SOL    HW222852   7.254   3.131   8.993  0.5697 -0.3877  0.3659
 6654SOL     OW22853   3.880   0.014   7.700  0.1878  0.3813  0.2746
 6654SOL    HW122854   3.848   0.099   7.731 -0.5099  0.4138 -0.4832
 6654SOL    HW222855   3.838   0.003   7.615 -1.0869 -1.4916  1.0801
 6655SOL     OW22856   3.283   5.010   6.306 -0.1175 -0.2727  0.1139
 6655SOL    HW122857   3.249   4.969   6.226  0.2391 -1.1815  0.4107
 6655SOL    HW222858   3.355   5.066   6.276 -0.8391  0.4232 -0.3391
 6656SOL     OW22859   0.308   8.075   2.192 -0.4326 -0.0192  0.0064
 6656SOL    HW122860   0.319   8.042   2.103  0.7565  1.4581 -0.4598
 6656SOL    HW222861   0.262   8.158   2.181  2.3175  1.7124  0.3503
 6657SOL     OW22862   7.207   0.881   1.572  0.5142 -0.5090 -0.1794
 6657SOL    HW122863   7.182   0.888   1.664  1.1421 -1.1222  0.0428
 6657SOL    HW222864   7.302   0.869   1.573  0.4025 -1.5578 -0.8505
 6658SOL     OW22865   0.376   8.683   5.511 -0.1326 -0.1254  0.0359
 6658SOL    HW122866   0.361   8.771   5.547 -0.4278 -0.3775  0.5317
 6658SOL    HW222867   0.469   8.668   5.525  0.6433  1.2956 -2.7263
 6659SOL     OW22868   6.655   8.621   7.659  0.6427 -0.3253  0.1821
 6659SOL    HW122869   6.560   8.626   7.672  0.5314  1.9774 -0.9477
 6659SOL    HW222870   6.692   8.673   7.730  1.0033 -0.4554  0.0899
 6660SOL     OW22871   1.610   4.377   4.495 -0.2496  0.3070  0.2672
 6660SOL    HW122872   1.637   4.417   4.412  0.3375 -0.0831  0.2644
 6660SOL    HW222873   1.579   4.289   4.470  0.5372 -0.0548  0.5296
 6661SOL     OW22874   4.284   0.007   3.080 -0.1454  0.1439 -0.0071
 6661SOL    HW122875   4.202  -0.038   3.097  0.2775 -0.8714 -0.5784
 6661SOL    HW222876   4.269   0.097   3.108 -1.6602  0.1333 -0.7104
 6662SOL     OW22877   8.517   4.417   4.680 -0.3215 -0.2788 -0.2603
 6662SOL    HW122878   8.474   4.370   4.751 -0.2007  1.2453  0.8717
 6662SOL    HW222879   8.589   4.465   4.723  0.5374 -0.2946 -1.6067
 6663SOL     OW22880   6.366   4.626   0.980  0.5240 -0.2220  0.4554
 6663SOL    HW122881   6.440   4.678   0.951  0.3954  0.6302  1.5584
 6663SOL    HW222882   6.335   4.670   1.060 -1.4951 -0.2203 -0.2553
 6664SOL     OW22883   2.810   5.969   3.028  0.3331  0.1115  0.3952
 6664SOL    HW122884   2.760   5.901   2.984  0.1046  0.1146  0.6442
 6664SOL    HW222885   2.814   5.941   3.119  0.0947  0.5102  0.5322
 6665SOL     OW22886   9.118   1.843   6.782 -0.1563 -0.0694  0.3319
 6665SOL    HW122887   9.085   1.830   6.871  0.8156 -1.1069  0.5668
 6665SOL    HW222888   9.169   1.924   6.786  2.3418 -1.5798  1.5129
 6666SOL     OW22889   6.330   2.132   6.258 -0.2639  0.2920  0.2610
 6666SOL    HW122890   6.346   2.046   6.296  2.7597  0.0588 -1.2907
 6666SOL    HW222891   6.235   2.141   6.261 -0.5185 -1.7480  3.2359
 6667SOL     OW22892   7.642   7.961   0.861  0.6720 -0.0655 -0.2739
 6667SOL    HW122893   7.681   8.022   0.923  2.2084 -0.9133 -0.3682
 6667SOL    HW222894   7.640   7.877   0.908 -0.7664 -0.1234 -0.3939
 6668SOL     OW22895   6.556   6.111   8.143 -0.2315  0.1330  0.3658
 6668SOL    HW122896   6.490   6.169   8.180  0.7708  0.8663  1.0592
 6668SOL    HW222897   6.509   6.059   8.078 -1.4741  0.6476  0.8295
 6669SOL     OW22898   1.372   1.168   2.038 -0.5766  0.6224 -0.4862
 6669SOL    HW122899   1.323   1.164   2.120 -1.9158 -3.1290 -1.3078
 6669SOL    HW222900   1.455   1.210   2.063 -1.0526 -0.0502  2.7259
 6670SOL     OW22901   5.424   7.730   8.680 -0.9280  0.4001  0.4908
 6670SOL    HW122902   5.391   7.818   8.700 -1.6387  0.3314 -0.2901
 6670SOL    HW222903   5.491   7.745   8.614 -1.4151  0.3285 -0.0301
 6671SOL     OW22904   8.982   4.447   0.053 -0.1238 -0.1841  0.3000
 6671SOL    HW122905   8.938   4.375   0.097  0.6424 -1.5508 -1.0941
 6671SOL    HW222906   9.065   4.456   0.099 -0.7928  0.7971  1.3793
 6672SOL     OW22907   2.340   4.382   0.298 -0.8498  0.3275 -0.3634
 6672SOL    HW122908   2.269   4.444   0.289  1.1019  3.1228  1.7611
 6672SOL    HW222909   2.419   4.436   0.304  1.1473 -2.4288  0.2597
 6673SOL     OW22910   9.260   8.338   4.000 -0.3219 -0.2698  0.0617
 6673SOL    HW122911   9.172   8.303   4.013 -0.7268  0.9178  0.6639
 6673SOL    HW222912   9.255   8.427   4.033  1.3105 -0.4314  0.8436
 6674SOL     OW22913   1.509   3.636   6.096 -0.6198  0.3791  0.0375
 6674SOL    HW122914   1.430   3.586   6.117 -2.0273  1.4724 -2.2871
 6674SOL    HW222915   1.478   3.709   6.043  2.0179  0.5137 -1.4890
 6675SOL     OW22916   4.883   9.135   5.659  0.0393  0.2933 -0.2301
 6675SOL    HW122917   4.977   9.117   5.653  0.1354  0.9402 -0.8547
 6675SOL    HW222918   4.841   9.052   5.636  0.4607  0.1325 -0.4340
 6676SOL     OW22919   2.320   7.806   4.548  0.3177  0.5327  0.5241
 6676SOL    HW122920   2.330   7.714   4.525 -0.2951  0.6838 -0.4116
 6676SOL    HW222921   2.373   7.817   4.626  0.6093 -0.5548  0.4972
 6677SOL     OW22922   4.893   5.940   9.009  0.6528 -0.5426  0.4233
 6677SOL    HW122923   4.916   6.032   9.002 -0.0961 -0.4339 -0.9031
 6677SOL    HW222924   4.941   5.909   9.086 -0.4079  1.3428  1.9131
 6678SOL     OW22925   4.684   8.497   1.739  0.0200  0.7794 -0.1438
 6678SOL    HW122926   4.688   8.550   1.819 -3.0690  1.8294 -0.5573
 6678SOL    HW222927   4.596   8.512   1.705  0.4592 -1.4501 -2.5383
 6679SOL     OW22928   1.496   9.257   3.025  0.1904  0.6026 -0.2227
 6679SOL    HW122929   1.528   9.182   2.974  0.3682  0.7618 -0.3473
 6679SOL    HW222930   1.405   9.235   3.044  0.4614 -0.0007  0.4105
 6680SOL     OW22931   1.377   8.514   6.173  0.1910 -0.3833  0.8925
 6680SOL    HW122932   1.314   8.556   6.115  0.4760  1.2059  1.6989
 6680SOL    HW222933   1.337   8.430   6.195 -1.1446  0.1448  0.5655
 6681SOL     OW22934   5.490   8.729   8.801  0.0510  0.0387 -0.0335
 6681SOL    HW122935   5.520   8.797   8.740  2.3721 -0.2918  0.6080
 6681SOL    HW222936   5.501   8.769   8.888  0.0475 -0.6481  0.2868
 6682SOL     OW22937   0.920   5.712   2.838 -0.3140 -0.4136  0.0110
 6682SOL    HW122938   0.844   5.660   2.864 -0.7844  0.4074  0.3053
 6682SOL    HW222939   0.922   5.784   2.900 -0.5175  0.6965 -1.2230
 6683SOL     OW22940   3.492   1.537   2.581 -0.0492 -0.3417  0.4134
 6683SOL    HW122941   3.479   1.567   2.671 -1.5953  0.7576 -0.1369
 6683SOL    HW222942   3.574   1.577   2.553  0.7696 -1.1866  1.5020
 6684SOL     OW22943   2.647   1.089   4.931  0.1754 -0.0133 -0.1323
 6684SOL    HW122944   2.570   1.140   4.959  0.1388 -0.0887 -0.0953
 6684SOL    HW222945   2.648   1.098   4.835 -0.6585 -1.1154 -0.2588
 6685SOL     OW22946   2.742   1.680   6.480  0.1684  0.1337  0.2848
 6685SOL    HW122947   2.836   1.691   6.495  0.0528  0.4923  0.7540
 6685SOL    HW222948   2.735   1.664   6.386  0.6364  0.8154  0.1255
 6686SOL     OW22949   0.096   3.814   7.446  0.1897 -0.1106  0.0032
 6686SOL    HW122950   0.085   3.754   7.520 -1.3008 -0.2407 -0.3033
 6686SOL    HW222951   0.173   3.780   7.400 -0.6174 -1.8479 -0.1778
 6687SOL     OW22952   7.244   2.603   4.696 -0.6444  0.0591  0.5528
 6687SOL    HW122953   7.253   2.509   4.712  1.2422  0.3036  1.1295
 6687SOL    HW222954   7.267   2.614   4.604 -0.5478 -0.0005  0.5699
 6688SOL     OW22955   4.890   2.461   0.189 -0.5868  0.4527 -0.1615
 6688SOL    HW122956   4.949   2.391   0.215  1.1436  1.5232 -1.0366
 6688SOL    HW222957   4.847   2.427   0.110  0.2173  0.3478 -0.5677
 6689SOL     OW22958   1.664   8.459   3.332 -0.4560 -0.0480  0.1007
 6689SOL    HW122959   1.578   8.472   3.372 -0.3412  1.4580 -0.0671
 6689SOL    HW222960   1.646   8.417   3.248 -0.8431 -1.5416  0.8942
 6690SOL     OW22961   7.715   8.482   4.333 -0.6150  0.5914  0.0039
 6690SOL    HW122962   7.630   8.468   4.375  0.1699  1.0863  1.8560
 6690SOL    HW222963   7.776   8.432   4.387  0.1736 -0.5899 -1.8939
 6691SOL     OW22964   6.219   0.627   6.495 -0.2341 -0.4430 -0.2173
 6691SOL    HW122965   6.134   0.669   6.508 -0.4143 -0.5195 -1.1191
 6691SOL    HW222966   6.220   0.556   6.559 -0.2630  0.4124  0.7654
 6692SOL     OW22967   2.462   4.506   6.529 -0.4125 -0.8068  0.1146
 6692SOL    HW122968   2.550   4.504   6.566 -0.7419 -0.9140  0.9215
 6692SOL    HW222969   2.472   4.471   6.441  0.3541 -0.8020  0.1904
 6693SOL     OW22970   4.581   1.001   7.372  0.2982  0.5880 -0.3438
 6693SOL    HW122971   4.549   1.071   7.314 -1.7952 -0.6821 -0.8468
 6693SOL    HW222972   4.540   1.020   7.456 -1.3555 -0.6687 -0.8113
 6694SOL     OW22973   6.307   5.974   6.823 -0.0947  0.2990  0.4244
 6694SOL    HW122974   6.383   5.916   6.817  1.2589  1.8648  1.3564
 6694SOL    HW222975   6.293   5.986   6.917 -0.6855  1.0199  0.2574
 6695SOL     OW22976   2.748   6.608   2.390 -0.0177 -0.4799  0.1366
 6695SOL    HW122977   2.806   6.536   2.415  1.1503  0.0611 -0.9197
 6695SOL    HW222978   2.723   6.649   2.473  3.2235  0.8642  0.6052
 6696SOL     OW22979   1.692   2.528   7.661  0.5830  0.6700 -0.1038
 6696SOL    HW122980   1.765   2.588   7.677  0.2765  1.1730 -0.5326
 6696SOL    HW222981   1.691   2.470   7.737  0.7469  1.3586  0.4347
 6697SOL     OW22982   5.217   0.052   2.883 -0.0982  0.7158 -0.1390
 6697SOL    HW122983   5.215   0.060   2.978 -1.7544  0.0706 -0.0729
 6697SOL    HW222984   5.286  -0.011   2.865 -0.9369 -0.5024  0.7831
 6698SOL     OW22985   7.140   8.292   1.184 -0.0690  0.2594  0.2118
 6698SOL    HW122986   7.215   8.296   1.124 -0.6751 -0.5250 -0.6326
 6698SOL    HW222987   7.171   8.240   1.258  0.3228  0.2029  0.0100
 6699SOL     OW22988   7.674   3.510   8.412  0.1982 -0.6654  0.0754
 6699SOL    HW122989   7.623   3.556   8.345  1.9597 -1.8509 -2.2203
 6699SOL    HW222990   7.643   3.419   8.407 -1.1051 -0.4086  2.4068
 6700SOL     OW22991   6.195   8.548   4.281 -0.2073 -0.4576  0.0084
 6700SOL    HW122992   6.145   8.561   4.361  1.1779 -1.3780  1.0785
 6700SOL    HW222993   6.132   8.512   4.219 -1.3877  0.5821  0.5516
 6701SOL     OW22994   5.053   8.500   5.859  0.7662 -0.1398 -0.7668
 6701SOL    HW122995   5.138   8.483   5.818  0.1790 -0.3852 -1.9305
 6701SOL    HW222996   5.065   8.581   5.908  1.9485 -0.7086 -0.0819
 6702SOL     OW22997   6.651   2.608   6.290 -0.0488  0.2314  0.1049
 6702SOL    HW122998   6.633   2.700   6.313 -1.8308  0.0937 -0.5856
 6702SOL    HW222999   6.568   2.564   6.303  0.5318 -1.1007 -0.5650
 6703SOL     OW23000   3.056   6.509   2.620 -0.3524  0.7439  0.1626
 6703SOL    HW123001   3.102   6.478   2.699 -1.1385  0.6013  0.5683
 6703SOL    HW223002   3.117   6.572   2.581 -0.8080  2.4376  2.0306
 6704SOL     OW23003   3.336   0.336   0.797 -0.0846 -0.3335  0.6262
 6704SOL    HW123004   3.266   0.372   0.743  0.3921  1.3797  1.1078
 6704SOL    HW223005   3.339   0.243   0.773  0.1667  0.3458 -2.3591
 6705SOL     OW23006   0.627   0.345   5.536  0.1582 -0.0450  0.1697
 6705SOL    HW123007   0.722   0.355   5.530  0.1262  1.6514  1.6236
 6705SOL    HW223008   0.609   0.334   5.629 -1.0445 -1.1281 -0.1538
 6706SOL     OW23009   5.736   1.056   1.614 -0.1738  0.2789  0.2346
 6706SOL    HW123010   5.655   1.013   1.641 -2.7561  2.3360 -3.3072
 6706SOL    HW223011   5.787   0.986   1.571 -1.8367 -0.3906 -0.7531
 6707SOL     OW23012   1.182   0.280   6.365 -0.3519  0.0227  0.6660
 6707SOL    HW123013   1.180   0.261   6.272  0.9391 -1.3468  0.8844
 6707SOL    HW223014   1.156   0.198   6.407  1.0886 -0.0098  1.5420
 6708SOL     OW23015   0.397   8.879   8.161 -0.3747 -0.1217 -0.3716
 6708SOL    HW123016   0.374   8.848   8.073 -1.3747 -0.3367 -0.0459
 6708SOL    HW223017   0.481   8.924   8.149 -1.5051  1.7213 -1.8399
 6709SOL     OW23018   8.824   1.909   5.173  0.6621 -0.5639 -0.2230
 6709SOL    HW123019   8.734   1.920   5.141  1.1784  2.4162 -0.8857
 6709SOL    HW223020   8.866   1.853   5.108 -0.3597 -0.9690 -0.5553
 6710SOL     OW23021   8.932   8.607   8.575 -0.2204 -0.7101  0.0786
 6710SOL    HW123022   9.023   8.614   8.546 -0.1757 -1.4353  0.0394
 6710SOL    HW223023   8.884   8.578   8.498 -0.0937 -2.7001  0.6910
 6711SOL     OW23024   4.421   2.103   5.962  0.0110 -0.7762 -0.0105
 6711SOL    HW123025   4.329   2.097   5.937 -0.0465 -1.4432  0.3391
 6711SOL    HW223026   4.469   2.071   5.886  0.0680  1.2637 -0.9006
 6712SOL     OW23027   6.758   2.143   1.431  0.5034 -0.0061  0.5202
 6712SOL    HW123028   6.842   2.185   1.415  0.6306 -0.2043  0.6684
 6712SOL    HW223029   6.749   2.142   1.527 -0.0623  0.7989  0.4911
 6713SOL     OW23030   0.141   6.762   6.138 -0.1677  0.0960 -0.2155
 6713SOL    HW123031   0.168   6.826   6.204 -2.1021  0.9349 -0.1986
 6713SOL    HW223032   0.091   6.696   6.187  0.3094 -0.4995 -0.5139
 6714SOL     OW23033   4.280   4.016   3.035 -0.8613 -0.0587  0.2980
 6714SOL    HW123034   4.194   4.052   3.059 -0.6153  1.7201 -1.2325
 6714SOL    HW223035   4.294   4.046   2.945  1.4168 -0.2285  0.5451
 6715SOL     OW23036   8.130   9.056   5.569 -0.2929  0.4981  0.3819
 6715SOL    HW123037   8.049   9.051   5.622 -1.1801  2.5987 -0.6744
 6715SOL    HW223038   8.200   9.048   5.633 -1.3030 -0.8963  1.3966
 6716SOL     OW23039   3.585   0.814   6.088 -0.2718  0.3857 -0.6176
 6716SOL    HW123040   3.491   0.827   6.103 -0.6078 -0.9614 -1.3721
 6716SOL    HW223041   3.611   0.747   6.151  0.0953  0.4736 -0.6718
 6717SOL     OW23042   0.413   8.446   6.731  0.0292  0.3845 -0.5305
 6717SOL    HW123043   0.447   8.517   6.678  1.4008  0.3392  0.2578
 6717SOL    HW223044   0.482   8.427   6.794 -1.0840 -0.3449  0.5217
 6718SOL     OW23045   8.160   8.979   4.428  0.1548 -0.0182 -0.4789
 6718SOL    HW123046   8.094   8.944   4.368 -0.2970  0.7108 -0.4220
 6718SOL    HW223047   8.229   8.913   4.428 -0.5424 -0.7786 -0.5818
 6719SOL     OW23048   2.639   4.260   2.089  0.3337 -0.3107  0.0724
 6719SOL    HW123049   2.723   4.217   2.108  0.4022 -0.0099  0.4478
 6719SOL    HW223050   2.663   4.347   2.059  0.1327  0.0367  0.8908
 6720SOL     OW23051   6.577   1.776   0.774  0.3229  0.1348 -0.4521
 6720SOL    HW123052   6.496   1.811   0.736  1.1525  0.1158 -2.3418
 6720SOL    HW223053   6.552   1.750   0.863 -2.0749 -1.0369 -1.3611
 6721SOL     OW23054   9.080   5.968   3.804 -0.0456 -0.1218  0.3400
 6721SOL    HW123055   9.144   6.014   3.858  0.1730 -0.0724  0.0452
 6721SOL    HW223056   9.008   6.030   3.795  0.4419  0.3484 -0.4286
 6722SOL     OW23057   4.494   0.893   6.189  0.0628 -0.2873  0.2276
 6722SOL    HW123058   4.460   0.980   6.167  1.1155  0.1228  0.1596
 6722SOL    HW223059   4.419   0.846   6.226 -0.1182  1.2487  1.9342
 6723SOL     OW23060   0.569   5.947   1.677  1.0389  0.2625 -0.2399
 6723SOL    HW123061   0.624   5.954   1.599 -0.7624  1.3116 -1.4906
 6723SOL    HW223062   0.571   6.035   1.715 -1.0304  0.8316 -1.2725
 6724SOL     OW23063   6.002   0.523   2.144  0.4417  0.0685 -0.4358
 6724SOL    HW123064   6.069   0.591   2.140 -0.4432  1.2756  2.5613
 6724SOL    HW223065   5.922   0.566   2.115  0.2132 -0.1771 -0.1810
 6725SOL     OW23066   8.228   0.650   4.486  0.4505  0.2919  0.0715
 6725SOL    HW123067   8.245   0.613   4.573  1.3017 -0.0465 -0.2283
 6725SOL    HW223068   8.237   0.576   4.426 -2.2591  0.0375 -0.1407
 6726SOL     OW23069   7.309   0.742   8.380  0.1655 -0.1582  0.2037
 6726SOL    HW123070   7.403   0.746   8.391  0.1077  0.4492  0.4947
 6726SOL    HW223071   7.276   0.710   8.464  0.0364  0.6342  0.4623
 6727SOL     OW23072   4.391   6.473   4.319 -0.3118 -0.1100  0.2481
 6727SOL    HW123073   4.335   6.408   4.277  0.3276 -0.1936 -0.5039
 6727SOL    HW223074   4.442   6.510   4.247  2.1969 -1.5945  1.1496
 6728SOL     OW23075   5.499   3.521   2.162 -0.1124  0.3381  0.2165
 6728SOL    HW123076   5.490   3.495   2.070 -1.6154 -0.5702  0.5857
 6728SOL    HW223077   5.458   3.608   2.166  0.1109  0.4539 -0.0067
 6729SOL     OW23078   5.520   8.303   8.187  0.1166  0.0544 -0.0118
 6729SOL    HW123079   5.554   8.269   8.104 -0.5164 -0.8774  0.0976
 6729SOL    HW223080   5.595   8.303   8.246 -0.2909 -3.7744  0.8042
 6730SOL     OW23081   3.462   6.344   0.413 -0.5255 -0.5082 -0.4842
 6730SOL    HW123082   3.486   6.301   0.331  1.9042  2.3156 -1.4312
 6730SOL    HW223083   3.403   6.415   0.387  0.6685  0.7417  0.0378
 6731SOL     OW23084   4.503   1.122   8.104 -0.5000 -0.2262 -0.6581
 6731SOL    HW123085   4.451   1.150   8.179 -0.6397 -0.2374 -0.7510
 6731SOL    HW223086   4.439   1.096   8.038 -0.3772 -0.6680 -0.6094
 6732SOL     OW23087   7.066   8.821   3.467  0.3554  0.4905  0.0144
 6732SOL    HW123088   7.024   8.895   3.422  0.5137 -0.1462 -1.2228
 6732SOL    HW223089   7.153   8.853   3.489 -0.4711  1.5848  1.9803
 6733SOL     OW23090   7.978   8.657   9.182  0.1030  0.0605 -0.3307
 6733SOL    HW123091   7.948   8.597   9.113  1.5246 -1.1746  0.0558
 6733SOL    HW223092   8.022   8.728   9.135  0.8394 -0.6422 -0.7317
 6734SOL     OW23093   6.971   2.807   1.744 -0.0968 -0.7516 -0.0921
 6734SOL    HW123094   6.930   2.745   1.684  0.0311  0.0453 -1.0319
 6734SOL    HW223095   7.047   2.840   1.696 -1.3557  1.7739 -0.5603
 6735SOL     OW23096   2.500   4.845   3.100 -0.1304  0.5529  0.2584
 6735SOL    HW123097   2.505   4.929   3.146  0.3333  0.5141  0.2817
 6735SOL    HW223098   2.493   4.868   3.008 -0.2161  0.6195  0.2815
 6736SOL     OW23099   3.854   4.466   1.134 -0.0022 -0.2187  0.2774
 6736SOL    HW123100   3.934   4.463   1.081 -0.8446  1.4148 -1.1752
 6736SOL    HW223101   3.825   4.375   1.139  0.8116 -0.5643 -0.9477
 6737SOL     OW23102   4.897   4.079   3.962 -0.1602 -0.3066  0.3530
 6737SOL    HW123103   4.956   4.051   4.031  0.1437  2.4730  1.3444
 6737SOL    HW223104   4.819   4.025   3.973  0.6048 -1.1963  1.6568
 6738SOL     OW23105   2.483   1.874   5.653 -0.0014  0.2526 -0.0569
 6738SOL    HW123106   2.556   1.922   5.693 -0.5361  1.1912 -0.2002
 6738SOL    HW223107   2.524   1.825   5.581  0.3377  1.6102 -0.8236
 6739SOL     OW23108   5.852   0.627   8.080 -0.2631 -0.1322  0.2607
 6739SOL    HW123109   5.813   0.561   8.138 -0.5949 -0.3458 -0.2042
 6739SOL    HW223110   5.812   0.611   7.995  0.9507 -0.4579 -0.2665
 6740SOL     OW23111   4.552   5.635   0.379  0.3467  0.0828  0.2859
 6740SOL    HW123112   4.576   5.657   0.469  0.0496 -1.3657  0.7523
 6740SOL    HW223113   4.494   5.707   0.351  0.7655  0.7530  1.1003
 6741SOL     OW23114   3.496   9.168   6.039  0.3680  0.5630  0.6739
 6741SOL    HW123115   3.447   9.249   6.025  1.2910  1.1322  0.6492
 6741SOL    HW223116   3.458   9.131   6.120 -1.8338 -0.3742 -0.6898
 6742SOL     OW23117   1.890   3.601   8.052  0.0428 -0.3306 -0.1885
 6742SOL    HW123118   1.884   3.647   8.135 -0.0561 -0.1029 -0.3188
 6742SOL    HW223119   1.964   3.642   8.007 -0.9095  0.7116 -0.9032
 6743SOL     OW23120   3.630   5.367   5.056  0.4510 -0.1820 -0.1940
 6743SOL    HW123121   3.717   5.394   5.087  0.5170 -0.3256 -0.2558
 6743SOL    HW223122   3.600   5.303   5.120  0.5679 -0.4446 -0.4026
 6744SOL     OW23123   6.747   7.176   1.049 -0.6737  0.3272  0.0320
 6744SOL    HW123124   6.807   7.186   1.123  0.1142 -0.2328 -0.5150
 6744SOL    HW223125   6.731   7.081   1.044 -0.9387  0.3888 -0.3467
 6745SOL     OW23126   1.093   7.103   8.658  0.0502  0.5566  0.0731
 6745SOL    HW123127   1.062   7.126   8.571 -1.0502 -1.9031 -0.2681
 6745SOL    HW223128   1.035   7.151   8.718 -0.5187  0.6463 -0.5440
 6746SOL     OW23129   3.782   4.283   4.935  0.0152 -0.1440  0.2555
 6746SOL    HW123130   3.730   4.350   4.979 -0.6708 -0.7926  0.4584
 6746SOL    HW223131   3.870   4.292   4.971 -0.5794 -0.8206  1.9800
 6747SOL     OW23132   3.532   7.639   2.357  0.1826  0.0873 -0.3328
 6747SOL    HW123133   3.620   7.677   2.347  0.2273 -0.1577 -0.9425
 6747SOL    HW223134   3.484   7.704   2.408  0.4710  0.6226 -0.7292
 6748SOL     OW23135   0.187   6.718   3.449  0.3217  0.1671 -0.2251
 6748SOL    HW123136   0.150   6.642   3.493 -1.1180  1.0945  0.2572
 6748SOL    HW223137   0.247   6.682   3.385 -2.1105 -1.5540 -1.7228
 6749SOL     OW23138   0.772   4.412   2.486 -0.1571 -0.3625 -0.7150
 6749SOL    HW123139   0.768   4.492   2.434 -0.4198  0.2717  0.2443
 6749SOL    HW223140   0.687   4.371   2.472 -0.3265 -0.0617 -0.5959
 6750SOL     OW23141   1.145   1.812   3.230 -0.2795 -0.2257 -0.1811
 6750SOL    HW123142   1.224   1.865   3.222 -0.4556  0.1588  0.5682
 6750SOL    HW223143   1.083   1.867   3.278 -0.4494 -1.1111  0.6468
 6751SOL     OW23144   8.070   8.679   7.224  0.1673  0.7487 -0.0223
 6751SOL    HW123145   8.034   8.767   7.216  2.2178  2.0521  3.1153
 6751SOL    HW223146   8.139   8.687   7.290  0.9462 -3.0963 -0.1210
 6752SOL     OW23147   0.058   3.879   0.428  0.4785 -0.3897  0.2861
 6752SOL    HW123148   0.109   3.952   0.392 -1.1753 -0.0381 -1.5426
 6752SOL    HW223149   0.092   3.868   0.516  3.2629  0.2046 -0.5867
 6753SOL     OW23150   4.152   6.798   7.946 -0.7021  0.6065  0.2396
 6753SOL    HW123151   4.181   6.853   8.018  1.3926  1.5717 -1.2625
 6753SOL    HW223152   4.073   6.842   7.912 -2.0255 -0.1420  2.1720
 6754SOL     OW23153   7.245   2.905   4.362 -0.3401  0.0090 -0.0743
 6754SOL    HW123154   7.334   2.894   4.329  0.2952  1.3577  1.0656
 6754SOL    HW223155   7.224   2.997   4.344 -2.3284 -0.7725 -2.1728
 6755SOL     OW23156   7.593   3.651   5.447  0.2568 -0.4483 -0.6833
 6755SOL    HW123157   7.592   3.734   5.495  0.0537 -0.9861  0.2580
 6755SOL    HW223158   7.525   3.661   5.381  0.5625  0.3149 -0.8997
 6756SOL     OW23159   5.820   3.974   3.351  0.1933 -0.2189 -0.7245
 6756SOL    HW123160   5.744   4.020   3.316 -0.1285  0.4678  0.7560
 6756SOL    HW223161   5.846   4.027   3.427  0.5127 -1.8717  0.3672
 6757SOL     OW23162   3.388   5.003   8.925  0.2523 -0.3650 -0.7088
 6757SOL    HW123163   3.334   5.080   8.914  2.2940  1.1281 -0.8760
 6757SOL    HW223164   3.415   5.004   9.017  1.8394  0.2782 -1.1386
 6758SOL     OW23165   4.141   1.401   8.937 -0.4928  0.6096  0.4697
 6758SOL    HW123166   4.122   1.390   9.030 -0.2997 -0.0742  0.4345
 6758SOL    HW223167   4.233   1.376   8.928 -0.8798 -0.6920 -0.1222
 6759SOL     OW23168   4.756   8.462   6.586 -0.0137  0.1263  0.2996
 6759SOL    HW123169   4.781   8.378   6.623 -3.0279 -0.8404  0.4807
 6759SOL    HW223170   4.759   8.447   6.491  0.5152  0.1728  0.3081
 6760SOL     OW23171   7.181   1.702   6.466  0.3574  0.4294 -0.3764
 6760SOL    HW123172   7.175   1.788   6.509 -0.2646  0.0066  0.3940
 6760SOL    HW223173   7.268   1.670   6.489  0.4851  0.7341 -0.4294
 6761SOL     OW23174   8.457   4.911   2.472 -0.6481 -0.4695  0.2499
 6761SOL    HW123175   8.534   4.928   2.527  0.9404 -0.8373 -1.7184
 6761SOL    HW223176   8.456   4.816   2.462 -1.3928 -0.4697  0.2702
 6762SOL     OW23177   0.945   5.706   4.333 -0.1865 -0.0639  0.3762
 6762SOL    HW123178   1.024   5.735   4.288 -1.3757  0.1844 -1.6989
 6762SOL    HW223179   0.975   5.679   4.420  2.2564 -0.5855 -0.5515
 6763SOL     OW23180   8.433   5.949   4.224 -0.4576 -0.0987  0.4466
 6763SOL    HW123181   8.480   5.934   4.142 -1.6266 -1.0436 -0.0794
 6763SOL    HW223182   8.352   5.898   4.215 -0.7914  0.1097  2.0247
 6764SOL     OW23183   7.600   3.939   4.141 -0.8568  0.0492  0.6499
 6764SOL    HW123184   7.585   3.849   4.171 -1.2853 -0.0269  0.2109
 6764SOL    HW223185   7.632   3.929   4.052 -0.8975  0.3380  0.6042
 6765SOL     OW23186   3.800   1.511   1.707  0.9547  0.1159 -0.5877
 6765SOL    HW123187   3.740   1.581   1.731 -0.5118 -1.0793 -0.6189
 6765SOL    HW223188   3.856   1.500   1.784 -0.5787 -0.4726  0.4942
 6766SOL     OW23189   7.933   5.030   7.229  0.1959  0.0028 -0.3011
 6766SOL    HW123190   8.002   4.972   7.260 -0.6378 -0.8632 -0.0003
 6766SOL    HW223191   7.867   5.028   7.298 -0.7467 -0.2947 -1.1809
 6767SOL     OW23192   2.368   8.036   3.821 -0.1733 -0.3560 -0.1793
 6767SOL    HW123193   2.310   8.054   3.895 -1.3396 -1.5948 -0.7557
 6767SOL    HW223194   2.434   7.977   3.856 -0.2816 -0.3338  0.0603
 6768SOL     OW23195   4.936   8.353   8.540  0.1582 -0.5885  0.0571
 6768SOL    HW123196   4.903   8.326   8.454  0.9131  0.9478 -0.7536
 6768SOL    HW223197   4.857   8.362   8.594 -0.9114  2.6889 -1.7341
 6769SOL     OW23198   6.393   3.418   6.698  0.7487 -0.6903 -0.1340
 6769SOL    HW123199   6.381   3.430   6.792  0.5164 -2.0481  0.0343
 6769SOL    HW223200   6.338   3.343   6.676  0.4268 -0.1019 -1.4540
 6770SOL     OW23201   2.987   8.017   7.977 -0.9745 -0.7194 -0.3561
 6770SOL    HW123202   2.940   8.083   7.926  1.1647  0.4108 -0.9999
 6770SOL    HW223203   3.079   8.028   7.951 -0.1436 -1.8596  1.8320
 6771SOL     OW23204   1.954   8.338   5.757  0.4214  0.0899  0.4020
 6771SOL    HW123205   1.945   8.243   5.758 -1.5221  0.1977 -0.9380
 6771SOL    HW223206   1.943   8.364   5.849  1.4356 -0.9710  0.8508
 6772SOL     OW23207   6.012   5.245   1.992 -0.1752  0.4624  0.0983
 6772SOL    HW123208   6.082   5.258   1.928  1.1940 -0.5727  1.3083
 6772SOL    HW223209   6.015   5.151   2.012 -0.4839  0.7757  1.7498
 6773SOL     OW23210   6.875   2.158   1.770 -0.2313  1.0237 -0.0271
 6773SOL    HW123211   6.957   2.151   1.720 -0.1407  1.9110 -0.0115
 6773SOL    HW223212   6.846   2.248   1.757 -1.5740  0.5378 -0.5857
 6774SOL     OW23213   2.510   9.054   4.609 -0.0905 -0.0355  0.0330
 6774SOL    HW123214   2.468   9.138   4.594 -1.5781 -0.6768  0.3878
 6774SOL    HW223215   2.581   9.050   4.545 -1.4064  0.5355 -1.5220
 6775SOL     OW23216   5.400   5.833   3.196  0.2006  0.1424  0.1459
 6775SOL    HW123217   5.395   5.897   3.267 -0.3536  0.3380 -0.0580
 6775SOL    HW223218   5.336   5.766   3.219  1.2836 -0.7171  0.7078
 6776SOL     OW23219   0.284   6.981   0.139 -0.8565  0.3055  0.2027
 6776SOL    HW123220   0.279   6.967   0.234  0.5219 -0.2095  0.2128
 6776SOL    HW223221   0.299   6.894   0.103 -1.1682  0.5313 -0.4826
 6777SOL     OW23222   3.003   4.356   6.397  0.2524  0.4851  0.3704
 6777SOL    HW123223   2.994   4.408   6.477 -2.0099 -0.5542  0.8662
 6777SOL    HW223224   2.913   4.333   6.373  1.0776 -2.8037 -0.0628
 6778SOL     OW23225   1.921   4.058   5.008 -0.0240  0.3220  0.3244
 6778SOL    HW123226   1.860   4.016   5.068  0.2627 -0.6988 -0.0677
 6778SOL    HW223227   1.978   3.987   4.979 -0.0040  0.8467 -0.9663
 6779SOL     OW23228   1.919   8.285   8.998  0.0474  0.5510 -0.0833
 6779SOL    HW123229   1.902   8.299   9.091 -1.2625 -0.4419 -0.1514
 6779SOL    HW223230   2.015   8.278   8.992  0.2464  1.9682  0.9703
 6780SOL     OW23231   7.585   2.952   8.094  0.1762  0.4010 -0.0291
 6780SOL    HW123232   7.552   2.998   8.171  1.3416  0.7780  0.2790
 6780SOL    HW223233   7.646   3.014   8.055 -0.4514  0.2337 -1.3032
 6781SOL     OW23234   0.543   3.036   3.715 -0.3742 -0.0766  0.0176
 6781SOL    HW123235   0.634   3.062   3.734 -0.0216 -1.7405  0.8111
 6781SOL    HW223236   0.490   3.103   3.758  0.4973 -0.4047  1.6902
 6782SOL     OW23237   8.357   8.850   0.978  0.2065  0.2564  0.2585
 6782SOL    HW123238   8.426   8.911   0.952  1.6202 -1.5181 -0.3587
 6782SOL    HW223239   8.276   8.890   0.946  1.0281  1.9264  0.1472
 6783SOL     OW23240   2.685   0.357   5.750  0.0317 -0.4632  0.1972
 6783SOL    HW123241   2.641   0.416   5.688 -1.6054 -1.0301  0.7484
 6783SOL    HW223242   2.680   0.404   5.833 -1.2208 -1.2995  0.6268
 6784SOL     OW23243   0.487   8.232   4.631 -0.0073  0.2406  0.4012
 6784SOL    HW123244   0.468   8.221   4.725 -1.8200 -0.5460 -0.0176
 6784SOL    HW223245   0.414   8.190   4.587  1.6402 -0.8597 -1.4232
 6785SOL     OW23246   4.425   5.314   1.348 -0.5347  0.1729 -0.0876
 6785SOL    HW123247   4.499   5.365   1.316  0.4859 -1.5351 -0.5769
 6785SOL    HW223248   4.383   5.282   1.268  0.6343 -2.1797  0.1658
 6786SOL     OW23249   6.256   1.832   4.996  0.3498  0.7118 -1.0498
 6786SOL    HW123250   6.346   1.837   5.029 -0.0646 -0.4598  0.3644
 6786SOL    HW223251   6.206   1.890   5.053 -0.2131 -0.6205 -0.1436
 6787SOL     OW23252   3.605   8.665   4.897 -0.0070 -0.3237  0.2374
 6787SOL    HW123253   3.685   8.613   4.895  0.8936  1.0207  0.1441
 6787SOL    HW223254   3.627   8.741   4.951 -0.8915  0.5900 -0.6560
 6788SOL     OW23255   6.268   3.886   3.958 -0.3844  0.4312  0.1459
 6788SOL    HW123256   6.362   3.894   3.939 -0.5458  1.4583 -0.3033
 6788SOL    HW223257   6.227   3.877   3.872 -0.7308  0.4417  0.3090
 6789SOL     OW23258   5.543   8.164   6.468 -0.1334  0.3109  0.2101
 6789SOL    HW123259   5.496   8.128   6.543  0.4296 -1.1733 -0.1214
 6789SOL    HW223260   5.486   8.147   6.394  0.0510  0.2596  0.0787
 6790SOL     OW23261   5.962   7.099   4.821 -0.3129 -0.0714 -0.5176
 6790SOL    HW123262   5.992   7.017   4.860 -0.1640  0.0585 -0.3554
 6790SOL    HW223263   5.960   7.081   4.727 -0.9234 -0.4657 -0.4346
 6791SOL     OW23264   6.129   4.611   4.124  0.5059  0.2645  0.5393
 6791SOL    HW123265   6.138   4.516   4.134  1.1510  0.2250 -0.2643
 6791SOL    HW223266   6.154   4.628   4.033  1.4714  1.3217  0.9708
 6792SOL     OW23267   2.662   7.440   4.484  0.4069  0.2335  0.6282
 6792SOL    HW123268   2.681   7.346   4.477 -0.2338  0.0994  0.6757
 6792SOL    HW223269   2.703   7.478   4.406  1.1557 -0.0022  0.8959
 6793SOL     OW23270   1.839   8.026   7.322  0.3627  0.2862  0.2045
 6793SOL    HW123271   1.774   7.960   7.347  1.4031 -1.1072 -0.6570
 6793SOL    HW223272   1.894   8.037   7.400  1.2023 -1.1261 -0.1666
 6794SOL     OW23273   5.280   2.403   1.401  0.0820  0.3687  0.6913
 6794SOL    HW123274   5.261   2.455   1.478 -1.6431  0.9028 -0.0534
 6794SOL    HW223275   5.235   2.320   1.416 -1.0918  0.8265 -0.1163
 6795SOL     OW23276   6.715   5.653   2.167  0.3791 -0.3148 -0.3692
 6795SOL    HW123277   6.634   5.636   2.214 -0.0519 -0.5753 -1.1809
 6795SOL    HW223278   6.756   5.726   2.214 -0.7349  0.3759 -0.4286
 6796SOL     OW23279   9.127   8.187   0.744 -0.0728  0.1972 -0.4077
 6796SOL    HW123280   9.116   8.145   0.830  1.2529  0.5204 -0.0589
 6796SOL    HW223281   9.123   8.281   0.762 -0.5889  0.2614 -0.8272
 6797SOL     OW23282   2.006   2.026   5.225 -0.0415  0.7777  0.2204
 6797SOL    HW123283   1.938   2.006   5.289 -0.8522 -0.6232 -1.0168
 6797SOL    HW223284   1.959   2.045   5.144  0.8740  3.9897  0.2782
 6798SOL     OW23285   6.546   6.550   0.447  0.1282 -0.4909  0.0888
 6798SOL    HW123286   6.639   6.541   0.426  0.6045 -0.0124  1.8212
 6798SOL    HW223287   6.519   6.462   0.473  0.3581 -0.4411  0.5103
 6799SOL     OW23288   4.050   4.196   3.052  0.0213 -0.6213  0.1912
 6799SOL    HW123289   4.075   4.282   3.018  0.4227 -0.8199 -0.0318
 6799SOL    HW223290   4.022   4.212   3.142 -3.2057  0.2517 -0.8561
 6800SOL     OW23291   4.389   0.438   0.542  0.2760 -0.1382 -0.0194
 6800SOL    HW123292   4.482   0.439   0.519  1.1882  0.1331  3.2167
 6800SOL    HW223293   4.373   0.523   0.582 -0.5010 -1.2741  2.2730
 6801SOL     OW23294   2.951   0.195   1.149 -0.1348  0.4275  0.6329
 6801SOL    HW123295   2.997   0.191   1.065  0.0874 -1.8967  0.7939
 6801SOL    HW223296   2.861   0.220   1.127  0.4167  1.9019 -0.0294
 6802SOL     OW23297   3.147   4.849   5.475 -0.0058 -0.1204 -0.2466
 6802SOL    HW123298   3.225   4.881   5.521 -1.2418  0.8806  1.2550
 6802SOL    HW223299   3.136   4.759   5.505 -1.4964  0.8741  2.5888
 6803SOL     OW23300   8.524   8.879   4.709  0.1752 -0.6303  0.1062
 6803SOL    HW123301   8.602   8.930   4.684 -1.1355  0.6686 -1.5633
 6803SOL    HW223302   8.559   8.801   4.751  2.3309  1.0402  1.6953
 6804SOL     OW23303   1.504   6.375   1.981  0.3851 -0.2707 -0.2415
 6804SOL    HW123304   1.447   6.398   2.054 -0.0737 -1.1518 -0.3142
 6804SOL    HW223305   1.448   6.324   1.922  1.5095 -2.0402  0.1783
 6805SOL     OW23306   1.669   9.038   3.287 -0.1080  0.1210  0.1200
 6805SOL    HW123307   1.731   9.015   3.218  1.5991 -1.0203  1.9308
 6805SOL    HW223308   1.687   9.130   3.305  1.2162 -0.2377  0.7369
 6806SOL     OW23309   4.195   8.549   4.453 -0.3817  0.3092  0.3396
 6806SOL    HW123310   4.230   8.508   4.374 -1.4565 -1.2611  0.6194
 6806SOL    HW223311   4.243   8.509   4.525 -0.4796  0.5695  0.5530
 6807SOL     OW23312   0.080   3.140   5.007 -0.4066  0.2830 -0.5942
 6807SOL    HW123313   0.043   3.145   4.919 -0.8624 -0.8724 -0.4735
 6807SOL    HW223314   0.174   3.146   4.993 -0.5088  3.5955 -0.8858
 6808SOL     OW23315   9.204   0.802   5.396  0.1485  0.2981 -0.4541
 6808SOL    HW123316   9.256   0.758   5.463  0.1142  0.2087 -0.4861
 6808SOL    HW223317   9.146   0.860   5.446  0.4510  0.5872 -0.4283
 6809SOL     OW23318   3.854   4.185   3.271 -0.4410 -0.5048 -0.3787
 6809SOL    HW123319   3.799   4.224   3.203 -1.0157 -2.5317 -1.1444
 6809SOL    HW223320   3.792   4.152   3.336  0.1062  2.5039  1.9181
 6810SOL     OW23321   4.985   6.669   8.636 -0.2252 -0.1013  0.1470
 6810SOL    HW123322   4.909   6.726   8.632  0.5561  0.9229 -0.7328
 6810SOL    HW223323   5.047   6.707   8.574  0.1000 -2.2488 -0.9600
 6811SOL     OW23324   5.441   5.950   4.584 -0.4860  0.5110  0.0581
 6811SOL    HW123325   5.442   5.874   4.641 -0.1184  2.1192  2.3080
 6811SOL    HW223326   5.348   5.972   4.574 -0.5570  0.1445 -0.1061
 6812SOL     OW23327   1.851   3.337   2.939  0.0086  0.3322 -0.1919
 6812SOL    HW123328   1.755   3.334   2.945  0.0730 -1.6621  0.7050
 6812SOL    HW223329   1.877   3.245   2.933  1.9519  0.7135  1.4820
 6813SOL     OW23330   4.207   5.684   2.324 -0.2785 -0.1667  0.1231
 6813SOL    HW123331   4.153   5.615   2.287  0.5079 -1.4054  1.2067
 6813SOL    HW223332   4.296   5.661   2.299 -0.1472  1.5557 -1.1760
 6814SOL     OW23333   1.612   4.387   6.314 -0.3386  0.5340  0.7150
 6814SOL    HW123334   1.554   4.315   6.289  1.8013 -1.8755  2.2007
 6814SOL    HW223335   1.700   4.354   6.295  0.7169  3.5700 -0.3416
 6815SOL     OW23336   0.278   3.961   6.799 -0.0837 -0.1349 -0.3162
 6815SOL    HW123337   0.290   3.909   6.878  1.8650  2.1025  0.9458
 6815SOL    HW223338   0.222   3.906   6.744 -0.3593 -2.3730  1.9938
 6816SOL     OW23339   3.420   7.396   1.777  0.0279 -0.2571 -0.2169
 6816SOL    HW123340   3.401   7.346   1.697 -0.2355  0.4448 -0.6055
 6816SOL    HW223341   3.375   7.349   1.847  0.2041 -0.8424 -0.4930
 6817SOL     OW23342   1.875   0.696   4.138 -0.1247 -0.4998  0.5016
 6817SOL    HW123343   1.829   0.765   4.090 -0.0289 -1.6995 -1.4410
 6817SOL    HW223344   1.850   0.710   4.229  2.5599  4.1916  0.8313
 6818SOL     OW23345   3.099   8.636   0.307  0.0940 -0.3795 -0.0132
 6818SOL    HW123346   3.088   8.614   0.399  0.3649  0.9120  0.3498
 6818SOL    HW223347   3.026   8.593   0.263  0.5124 -1.8515  0.6330
 6819SOL     OW23348   7.145   2.975   5.401 -0.0837 -0.4428  0.3617
 6819SOL    HW123349   7.108   3.021   5.477 -0.1709  0.4430 -0.2074
 6819SOL    HW223350   7.217   3.030   5.372 -0.1112 -0.7241 -0.2579
 6820SOL     OW23351   7.335   3.224   2.273 -0.1415 -0.4344  0.6940
 6820SOL    HW123352   7.318   3.299   2.216 -1.1678 -0.0264  1.4920
 6820SOL    HW223353   7.253   3.212   2.320  0.6094 -0.8934  1.9206
 6821SOL     OW23354   4.407   5.891   8.213 -0.1496  0.2558  0.5342
 6821SOL    HW123355   4.410   5.885   8.117 -0.6869 -1.0403  0.5650
 6821SOL    HW223356   4.483   5.842   8.243  0.7887  1.8057  0.7792
 6822SOL     OW23357   4.499   2.820   6.101  0.2822  0.0923  0.5933
 6822SOL    HW123358   4.447   2.900   6.104 -0.8068 -0.6180  1.3553
 6822SOL    HW223359   4.482   2.777   6.185  0.6150 -1.0908  0.0783
 6823SOL     OW23360   5.856   3.820   4.458  0.4607 -0.0788 -0.2053
 6823SOL    HW123361   5.945   3.852   4.442  0.5411 -0.0606  0.2418
 6823SOL    HW223362   5.831   3.860   4.542  1.2583 -2.5759  1.3513
 6824SOL     OW23363   7.961   1.943   4.973 -0.5577 -0.2786  0.1211
 6824SOL    HW123364   7.871   1.933   4.943 -0.9814  0.6711  1.0034
 6824SOL    HW223365   7.953   1.979   5.061  0.6936  0.8666 -0.1954
 6825SOL     OW23366   5.244   1.670   2.894 -0.0960 -0.0290 -0.4674
 6825SOL    HW123367   5.308   1.623   2.948 -1.3422 -1.0778  0.1636
 6825SOL    HW223368   5.161   1.626   2.912 -1.0085  1.2936 -1.2613
 6826SOL     OW23369   3.431   8.078   1.509  0.0791  0.8833  0.1849
 6826SOL    HW123370   3.368   8.051   1.442 -1.2281  1.7985  1.0090
 6826SOL    HW223371   3.446   8.170   1.492  0.2314  0.9686  0.7590
 6827SOL     OW23372   8.893   0.561   6.535  0.0716 -0.6076 -0.0976
 6827SOL    HW123373   8.958   0.493   6.549 -0.8987 -1.3517  0.9176
 6827SOL    HW223374   8.811   0.514   6.523 -0.5337  0.3616  0.1358
 6828SOL     OW23375   2.321   2.714   7.571 -0.4450 -0.1333 -0.1443
 6828SOL    HW123376   2.277   2.689   7.490  0.8535  0.8853 -1.2151
 6828SOL    HW223377   2.319   2.634   7.625 -2.7142 -0.3752 -0.4946
 6829SOL     OW23378   8.307   3.775   1.744  0.1765  0.0669 -0.2528
 6829SOL    HW123379   8.331   3.703   1.803 -0.3129 -0.6134 -0.8730
 6829SOL    HW223380   8.391   3.807   1.710  0.3284 -1.0722 -0.9779
 6830SOL     OW23381   1.254   3.304   8.872 -1.0386 -0.2271 -0.2643
 6830SOL    HW123382   1.341   3.332   8.842 -1.2883  0.1750 -0.6199
 6830SOL    HW223383   1.260   3.208   8.875  0.0889 -0.1327  1.7953
 6831SOL     OW23384   2.042   2.878   7.617  0.3009 -0.3078  0.3469
 6831SOL    HW123385   2.116   2.817   7.613 -0.3537 -1.0736 -2.0228
 6831SOL    HW223386   2.074   2.958   7.574 -0.2648 -0.7339 -0.9283
 6832SOL     OW23387   7.078   2.745   2.452 -0.1589 -0.3011 -0.0703
 6832SOL    HW123388   7.071   2.813   2.384 -0.4326  0.1932  0.4426
 6832SOL    HW223389   7.014   2.679   2.426  1.9377 -1.7148 -2.0528
 6833SOL     OW23390   2.051   2.142   1.089 -0.1883  0.0815  0.1092
 6833SOL    HW123391   2.069   2.229   1.124  1.0090 -0.8258  1.8771
 6833SOL    HW223392   2.128   2.121   1.036 -0.6423  0.2114 -0.6247
 6834SOL     OW23393   6.625   1.554   0.439 -0.3523 -0.3518  0.2891
 6834SOL    HW123394   6.707   1.557   0.390 -0.7823 -0.1227 -0.4408
 6834SOL    HW223395   6.562   1.515   0.378 -0.8985 -0.0789  0.6688
 6835SOL     OW23396   2.803   6.014   4.997  0.2928  0.2902  0.3481
 6835SOL    HW123397   2.837   5.928   4.969 -1.0006 -0.2390  0.3318
 6835SOL    HW223398   2.726   5.993   5.049 -0.8951  1.4962 -0.8756
 6836SOL     OW23399   7.789   5.902   5.824 -0.1862 -0.5485 -0.6766
 6836SOL    HW123400   7.882   5.885   5.807  0.0475 -0.7298  0.6210
 6836SOL    HW223401   7.785   5.997   5.837  0.0516 -0.6596  0.3750
 6837SOL     OW23402   1.961   2.287   2.609 -0.3554  0.1600 -0.4296
 6837SOL    HW123403   2.044   2.334   2.617  0.2945 -0.6833 -1.9412
 6837SOL    HW223404   1.920   2.322   2.530 -1.1921  0.1703 -0.0060
 6838SOL     OW23405   6.660   3.969   0.704  0.9978 -0.3245 -0.4627
 6838SOL    HW123406   6.682   4.047   0.755  0.5294  0.1859 -1.0184
 6838SOL    HW223407   6.645   3.901   0.769  1.8152 -0.0610  0.0140
 6839SOL     OW23408   0.002   8.028   4.099  0.8023  0.8190 -0.1822
 6839SOL    HW123409   0.028   8.053   4.010 -2.2620 -1.0881 -1.8199
 6839SOL    HW223410   0.018   7.934   4.102  0.4760  0.7936  1.1343
 6840SOL     OW23411   7.995   3.431   5.431  0.5871  0.1984 -0.5570
 6840SOL    HW123412   7.907   3.414   5.464  1.2100 -2.1126  0.1033
 6840SOL    HW223413   7.985   3.505   5.371 -1.5057  0.9694  0.6809
 6841SOL     OW23414   9.189   3.854   2.666  0.2470  0.1656  0.5561
 6841SOL    HW123415   9.144   3.882   2.586 -0.8433  3.3508  2.1093
 6841SOL    HW223416   9.120   3.818   2.721  0.7831 -0.8661  0.5807
 6842SOL     OW23417   7.127   1.997   8.066  1.0002 -0.0965 -0.6097
 6842SOL    HW123418   7.058   2.060   8.042  1.0572  0.3601  0.3898
 6842SOL    HW223419   7.196   2.014   8.002  0.9558  0.7711 -0.4514
 6843SOL     OW23420   4.668   7.495   2.548  0.0652 -0.1062 -0.6460
 6843SOL    HW123421   4.754   7.469   2.580 -0.6403 -0.8640  0.7036
 6843SOL    HW223422   4.633   7.553   2.616 -0.8182 -0.4612 -0.7912
 6844SOL     OW23423   8.866   9.202   5.306 -0.0365 -0.3608 -0.2833
 6844SOL    HW123424   8.795   9.232   5.363  0.4637  0.8695 -0.2718
 6844SOL    HW223425   8.850   9.108   5.294 -0.7235 -0.4354  1.0615
 6845SOL     OW23426   7.472   5.383   5.339  0.1857 -0.0357 -0.1056
 6845SOL    HW123427   7.536   5.426   5.281 -0.8623  0.6061 -0.8229
 6845SOL    HW223428   7.524   5.319   5.389  1.7143  1.7167  0.6603
 6846SOL     OW23429   1.742   0.113   7.143 -0.6542  0.2448 -0.1339
 6846SOL    HW123430   1.693   0.192   7.166 -2.3347 -1.6303  3.8762
 6846SOL    HW223431   1.677   0.057   7.100 -1.1920 -0.8983  2.0040
 6847SOL     OW23432   5.498   3.890   7.449 -0.0934 -0.2257  0.0803
 6847SOL    HW123433   5.494   3.878   7.544  1.3087 -0.9770  0.0832
 6847SOL    HW223434   5.560   3.963   7.437 -1.2121  0.6952 -0.2385
 6848SOL     OW23435   0.242   2.097   5.459  0.4055 -0.3270 -0.0995
 6848SOL    HW123436   0.291   2.092   5.377 -0.2100  1.1260 -0.5879
 6848SOL    HW223437   0.274   2.176   5.502 -2.0622  1.1828 -0.8561
 6849SOL     OW23438   1.249   1.993   7.416 -0.7914 -0.0839 -0.2491
 6849SOL    HW123439   1.294   1.939   7.351 -0.6274 -0.6967  0.3558
 6849SOL    HW223440   1.312   2.004   7.486 -0.9040  0.7298 -0.2712
 6850SOL     OW23441   4.090   7.343   4.778 -0.7526  0.1770 -0.8661
 6850SOL    HW123442   4.113   7.251   4.790 -0.2759 -0.0171 -2.9359
 6850SOL    HW223443   4.147   7.390   4.840 -0.9959 -0.8873  0.2023
 6851SOL     OW23444   4.466   8.398   8.841 -0.1411 -0.0152 -0.5096
 6851SOL    HW123445   4.551   8.365   8.870  0.6464  2.0754 -0.2955
 6851SOL    HW223446   4.407   8.323   8.852  1.5281 -1.3436 -0.0978
 6852SOL     OW23447   0.888   7.376   1.481  0.3445  0.3247  0.1279
 6852SOL    HW123448   0.924   7.464   1.472  0.7060  0.1213 -0.5068
 6852SOL    HW223449   0.811   7.387   1.536  0.3576  1.0426  0.0137
 6853SOL     OW23450   6.874   4.375   7.681  0.7236 -0.3552 -0.1823
 6853SOL    HW123451   6.787   4.339   7.661  0.9316 -0.4629 -0.9161
 6853SOL    HW223452   6.856   4.456   7.729  0.2564 -2.0251  2.6473
 6854SOL     OW23453   3.811   4.996   5.797 -0.0625 -0.1381  0.1659
 6854SOL    HW123454   3.885   5.003   5.857 -0.0409 -0.6845  0.2086
 6854SOL    HW223455   3.803   4.903   5.779  0.0571  0.0286 -0.8330
 6855SOL     OW23456   0.083   5.467   3.116  0.1540  0.0936  0.0872
 6855SOL    HW123457   0.101   5.534   3.182 -2.6956  0.3944  0.6867
 6855SOL    HW223458   0.061   5.517   3.037 -2.1827 -0.0529  0.5917
 6856SOL     OW23459   5.400   2.425   5.886 -0.0710 -0.2369 -0.2904
 6856SOL    HW123460   5.386   2.500   5.829 -1.2516  0.4420  0.8389
 6856SOL    HW223461   5.337   2.436   5.957  0.3693 -1.8056  0.4010
 6857SOL     OW23462   2.018   8.058   1.731  0.1802  0.1748 -0.1779
 6857SOL    HW123463   1.934   8.037   1.771  0.6100  2.5712  2.2754
 6857SOL    HW223464   2.073   7.982   1.750 -0.4894  0.0204  1.3304
 6858SOL     OW23465   7.622   8.079   0.262  0.2061 -0.5689  0.0001
 6858SOL    HW123466   7.598   8.057   0.352 -0.0282  1.4691  0.4876
 6858SOL    HW223467   7.557   8.143   0.235  0.8979 -0.3683 -1.2600
 6859SOL     OW23468   5.336   1.423   3.735 -0.1260  0.4570  0.5044
 6859SOL    HW123469   5.394   1.418   3.659  0.3280  0.8983  0.8124
 6859SOL    HW223470   5.384   1.379   3.804  0.8128  2.6430  1.3408
 6860SOL     OW23471   8.308   4.268   5.894 -0.1059  0.4023 -0.0074
 6860SOL    HW123472   8.356   4.188   5.915 -1.5260 -0.5509 -0.2391
 6860SOL    HW223473   8.344   4.334   5.954 -0.7875 -1.0792  2.1820
 6861SOL     OW23474   6.277   2.168   1.219 -0.2729  0.4173 -0.2318
 6861SOL    HW123475   6.356   2.220   1.226  1.0894 -1.6410  0.4900
 6861SOL    HW223476   6.214   2.226   1.175  2.3246  1.3483 -3.0863
 6862SOL     OW23477   4.122   7.794   6.918  0.3206  0.2980  0.0217
 6862SOL    HW123478   4.042   7.809   6.867  0.6834  0.4850 -0.5004
 6862SOL    HW223479   4.190   7.840   6.869  0.8355 -0.2588  0.2062
 6863SOL     OW23480   3.981   8.640   2.875  0.7801  0.3320  0.0056
 6863SOL    HW123481   3.887   8.622   2.880  0.7158  0.6186 -0.1322
 6863SOL    HW223482   4.020   8.557   2.847  0.6452  0.0218  0.7068
 6864SOL     OW23483   0.456   7.239   0.076  0.5216  0.1842  0.6537
 6864SOL    HW123484   0.460   7.292   0.155 -0.3806 -0.6669  1.3034
 6864SOL    HW223485   0.363   7.221   0.065  0.6062  0.5395 -0.7887
 6865SOL     OW23486   6.172   3.129   0.560 -0.2624  0.2848  0.2589
 6865SOL    HW123487   6.246   3.165   0.608 -0.8608  1.5744  0.2485
 6865SOL    HW223488   6.100   3.129   0.623 -0.5611  0.1821 -0.0790
 6866SOL     OW23489   9.066   2.197   7.282 -0.3412 -0.2085  0.5367
 6866SOL    HW123490   9.065   2.236   7.195 -1.0003 -2.5462 -0.5751
 6866SOL    HW223491   9.066   2.272   7.342  2.5285  1.5359 -1.3936
 6867SOL     OW23492   6.617   6.965   6.381  0.3648  0.2775  0.1371
 6867SOL    HW123493   6.584   6.916   6.456 -0.8648  0.6567 -0.1331
 6867SOL    HW223494   6.540   6.978   6.326  1.2557 -0.0062 -1.2006
 6868SOL     OW23495   8.415   1.888   3.221 -0.3383 -0.1514 -0.2186
 6868SOL    HW123496   8.509   1.906   3.226 -0.4664  1.0298 -1.4132
 6868SOL    HW223497   8.398   1.877   3.127 -1.4261 -0.2173 -0.0276
 6869SOL     OW23498   4.356   6.946   1.838 -0.4933 -0.6441  0.0983
 6869SOL    HW123499   4.344   7.040   1.852 -2.0350 -0.8174  0.0926
 6869SOL    HW223500   4.272   6.916   1.802  0.1738 -1.9205 -0.4586
 6870SOL     OW23501   7.330   4.053   3.253  0.2471 -0.1600 -0.1395
 6870SOL    HW123502   7.384   4.130   3.271 -0.5738  1.0189 -2.3226
 6870SOL    HW223503   7.388   3.991   3.211  0.9151 -0.7893  1.6310
 6871SOL     OW23504   6.620   0.187   6.594 -0.1708  0.0341 -0.3828
 6871SOL    HW123505   6.664   0.162   6.513 -0.2466  0.1901 -0.4721
 6871SOL    HW223506   6.628   0.110   6.650 -1.0553 -0.4697 -0.9201
 6872SOL     OW23507   4.604   4.114   1.428 -0.6959 -0.7485  0.0006
 6872SOL    HW123508   4.520   4.108   1.383 -1.9455  0.9783  1.8850
 6872SOL    HW223509   4.613   4.031   1.474 -1.6413 -0.7668  0.1724
 6873SOL     OW23510   4.229   3.011   1.181  0.0762  0.2779 -0.3994
 6873SOL    HW123511   4.303   3.051   1.134 -0.3444 -0.8794 -2.1235
 6873SOL    HW223512   4.202   2.938   1.125 -1.3847 -0.2796  0.9792
 6874SOL     OW23513   1.121   1.359   3.517  0.6946 -0.2151 -0.1756
 6874SOL    HW123514   1.096   1.437   3.466  1.3696  0.2961  0.2644
 6874SOL    HW223515   1.186   1.391   3.580 -0.8883 -0.6060  1.7476
 6875SOL     OW23516   7.549   4.377   0.262  0.7542 -0.0157 -0.4235
 6875SOL    HW123517   7.634   4.335   0.247  1.4327  0.9563  0.5663
 6875SOL    HW223518   7.556   4.462   0.219 -0.2507 -0.4654 -1.5478
 6876SOL     OW23519   7.782   0.403   1.681 -0.1940 -0.2681  0.1855
 6876SOL    HW123520   7.872   0.382   1.656 -0.3282 -1.2343  0.4447
 6876SOL    HW223521   7.728   0.350   1.622 -0.6289  1.0634 -0.6403
 6877SOL     OW23522   8.115   0.996   6.595  0.1619  0.4126  0.7969
 6877SOL    HW123523   8.166   0.915   6.586  0.4132  0.8145 -2.1918
 6877SOL    HW223524   8.091   1.020   6.506 -3.8106  1.2299  1.8798
 6878SOL     OW23525   7.279   3.925   2.853 -0.6961 -0.1859  0.4589
 6878SOL    HW123526   7.317   3.914   2.940 -0.8118 -2.6248  0.2732
 6878SOL    HW223527   7.335   3.873   2.796  0.3767  2.6986 -1.2922
 6879SOL     OW23528   5.296   3.731   8.512 -0.4936  0.3872  0.2807
 6879SOL    HW123529   5.236   3.769   8.576 -0.4684  2.1289 -0.6472
 6879SOL    HW223530   5.245   3.664   8.468 -0.4858 -0.9049  2.1327
 6880SOL     OW23531   7.293   1.287   6.015  0.9472 -0.2608  0.3122
 6880SOL    HW123532   7.233   1.235   6.068  1.2801 -2.2833 -1.1725
 6880SOL    HW223533   7.353   1.223   5.977  0.9800  1.1000 -2.1633
 6881SOL     OW23534   3.674   5.812   8.002  0.2584 -0.4068 -0.2134
 6881SOL    HW123535   3.652   5.876   8.069  0.8284  1.5177 -1.7885
 6881SOL    HW223536   3.600   5.812   7.942  1.0127  0.0985 -1.1684
 6882SOL     OW23537   5.005   3.947   6.740  0.1754 -0.8407 -0.2966
 6882SOL    HW123538   4.963   3.923   6.657 -0.7049 -0.5295  0.0449
 6882SOL    HW223539   4.953   3.902   6.807  0.4094 -0.4697  0.1390
 6883SOL     OW23540   6.835   4.843   7.205  0.0078  0.1937  0.4731
 6883SOL    HW123541   6.919   4.825   7.248 -0.5491  1.3571  2.1460
 6883SOL    HW223542   6.771   4.794   7.256 -0.6472  1.4211  0.8645
 6884SOL     OW23543   4.925   8.762   8.310  0.1342  0.5842 -0.0133
 6884SOL    HW123544   4.985   8.706   8.358  0.6803 -0.1944 -1.5276
 6884SOL    HW223545   4.981   8.811   8.250 -0.7788 -1.3543 -2.6390
 6885SOL     OW23546   9.052   6.360   6.628 -0.1654  0.1866  0.0983
 6885SOL    HW123547   9.141   6.391   6.610 -0.5674  1.6120  0.4093
 6885SOL    HW223548   9.059   6.265   6.629  1.8953  0.2648  2.7889
 6886SOL     OW23549   4.831   7.090   6.675  0.0053  0.6280  0.4619
 6886SOL    HW123550   4.920   7.121   6.661 -0.6803  2.4859  0.0074
 6886SOL    HW223551   4.792   7.153   6.735 -1.3686  0.5065 -0.2730
 6887SOL     OW23552   0.820   8.684   7.147  0.0983 -0.3688 -0.4392
 6887SOL    HW123553   0.887   8.751   7.136 -2.0314  2.0710  0.5228
 6887SOL    HW223554   0.867   8.601   7.133  2.9092  1.2481 -1.4008
 6888SOL     OW23555   1.001   6.990   2.161 -0.3144  0.5720 -0.0916
 6888SOL    HW123556   1.091   6.998   2.193 -0.9385  1.1013  1.6197
 6888SOL    HW223557   0.950   6.965   2.238 -1.9773  2.3729 -0.5346
 6889SOL     OW23558   6.884   6.781   7.432 -0.3225  0.1877 -0.2666
 6889SOL    HW123559   6.805   6.836   7.425 -1.2605 -1.2681 -1.6275
 6889SOL    HW223560   6.941   6.830   7.492 -1.5581  2.0932 -0.5484
 6890SOL     OW23561   2.405   6.014   1.273 -0.1269  0.0937  0.2032
 6890SOL    HW123562   2.454   6.081   1.319 -0.7250  0.6382  0.0595
 6890SOL    HW223563   2.453   5.933   1.290 -0.4045  0.2555  1.8748
 6891SOL     OW23564   7.289   3.373   4.891  0.4992  0.5842  0.3260
 6891SOL    HW123565   7.230   3.309   4.931  1.1575 -0.4171 -0.2564
 6891SOL    HW223566   7.374   3.329   4.886  1.0467  1.6083  0.1665
 6892SOL     OW23567   0.149   6.599   5.528 -0.1477 -0.0100  0.9101
 6892SOL    HW123568   0.145   6.560   5.440  1.4837  0.0709  0.7756
 6892SOL    HW223569   0.132   6.526   5.587  0.8485 -0.5264  0.5852
 6893SOL     OW23570   6.727   5.921   2.309 -0.1309  0.2815 -0.2499
 6893SOL    HW123571   6.639   5.884   2.318 -0.0755  0.2861  0.3591
 6893SOL    HW223572   6.718   5.989   2.242 -1.2162  2.1599  1.6799
 6894SOL     OW23573   0.438   4.131   4.106  0.2234  0.4968 -0.3797
 6894SOL    HW123574   0.451   4.183   4.027 -1.0360  1.3507 -0.0538
 6894SOL    HW223575   0.431   4.041   4.073  0.0121  0.8063 -1.2224
 6895SOL     OW23576   0.938   6.027   8.072 -0.2818 -0.3520 -0.3886
 6895SOL    HW123577   1.032   6.009   8.068 -0.5401 -2.5583  1.2898
 6895SOL    HW223578   0.932   6.108   8.123  0.7138 -1.0891  0.9907
 6896SOL     OW23579   4.249   0.689   8.011  0.0382  0.2957 -0.4997
 6896SOL    HW123580   4.166   0.708   8.055  0.2994  1.4239 -0.4438
 6896SOL    HW223581   4.316   0.722   8.072  0.5648 -1.1619 -0.2644
 6897SOL     OW23582   8.976   3.673   5.548  0.1649  0.2160  0.6293
 6897SOL    HW123583   8.935   3.609   5.490 -1.1484  0.4577  1.2771
 6897SOL    HW223584   9.063   3.635   5.566 -0.4319 -1.2016  0.6923
 6898SOL     OW23585   7.861   8.795   3.109  0.1128 -0.3630 -0.2921
 6898SOL    HW123586   7.846   8.709   3.071 -0.3199 -0.0034 -0.9692
 6898SOL    HW223587   7.943   8.824   3.070  1.2785 -1.2493  1.4123
 6899SOL     OW23588   4.205   3.746   8.097  0.3357  0.1259 -0.3400
 6899SOL    HW123589   4.276   3.734   8.159  0.6844  2.6736 -0.1454
 6899SOL    HW223590   4.171   3.833   8.115 -1.3443 -0.1252 -1.9421
 6900SOL     OW23591   1.828   4.734   6.571  0.1867 -0.2386  0.4426
 6900SOL    HW123592   1.833   4.765   6.661 -0.8392 -0.9246  0.7636
 6900SOL    HW223593   1.850   4.810   6.518 -0.6137  0.5800  1.2369
 6901SOL     OW23594   0.415   2.633   7.261 -0.6454 -0.0708  0.3807
 6901SOL    HW123595   0.365   2.712   7.281 -0.7674 -0.0999  0.1864
 6901SOL    HW223596   0.506   2.657   7.282 -0.4636  0.6183 -1.1045
 6902SOL     OW23597   2.998   8.414   3.086  0.1432 -0.3056 -0.4324
 6902SOL    HW123598   3.060   8.418   3.160  0.5060  1.0223 -0.7846
 6902SOL    HW223599   3.028   8.339   3.035 -0.6606 -1.8247  1.2146
 6903SOL     OW23600   1.698   8.163   2.430  0.3331 -0.3533  0.1115
 6903SOL    HW123601   1.628   8.149   2.366  0.1426  1.1009 -0.0396
 6903SOL    HW223602   1.664   8.127   2.511 -1.1354  1.3625  0.3302
 6904SOL     OW23603   2.922   1.930   8.610  0.1720 -0.4500 -0.1988
 6904SOL    HW123604   3.009   1.889   8.610  0.4845 -0.0179 -2.8039
 6904SOL    HW223605   2.862   1.861   8.638  1.0775 -1.6717 -1.1264
 6905SOL     OW23606   2.758   3.504   0.590  0.1693  0.7539  0.1785
 6905SOL    HW123607   2.812   3.565   0.540 -1.4992  1.4332 -0.8946
 6905SOL    HW223608   2.805   3.421   0.585  1.5110  1.4881 -0.0097
 6906SOL     OW23609   5.954   4.349   3.908  0.3359  0.0163 -0.7127
 6906SOL    HW123610   6.047   4.356   3.886  1.0173 -0.7766  1.5723
 6906SOL    HW223611   5.942   4.256   3.930 -0.5461  0.4168  0.6587
 6907SOL     OW23612   8.072   5.010   8.264  0.1375 -0.0118 -0.1120
 6907SOL    HW123613   8.121   5.058   8.197  0.0913 -2.4195 -2.0060
 6907SOL    HW223614   8.127   5.015   8.342  1.5318  0.5950 -1.0927
 6908SOL     OW23615   5.332   5.924   3.428 -0.0611 -0.3148 -0.2771
 6908SOL    HW123616   5.419   5.951   3.457  0.8582 -2.4245 -0.9160
 6908SOL    HW223617   5.275   5.942   3.503  1.0227  0.5235  0.3736
 6909SOL     OW23618   6.650   0.914   1.003  0.0929 -0.1781 -0.2527
 6909SOL    HW123619   6.733   0.936   1.047  0.2628 -0.0906 -0.6119
 6909SOL    HW223620   6.609   0.849   1.060 -0.1352  0.6234  0.5300
 6910SOL     OW23621   0.155   3.751   6.629  0.8744  0.6515  0.2377
 6910SOL    HW123622   0.166   3.667   6.675  0.0915  0.5146  0.1940
 6910SOL    HW223623   0.060   3.757   6.613  0.8539  1.8098  0.7346
 6911SOL     OW23624   6.576   8.807   6.432 -0.1797 -0.0037 -0.0897
 6911SOL    HW123625   6.649   8.804   6.494 -1.5083 -1.0757  1.4995
 6911SOL    HW223626   6.551   8.900   6.430  1.3071  0.4172 -0.8225
 6912SOL     OW23627   6.294   1.264   8.795 -0.9325 -0.2725  0.2941
 6912SOL    HW123628   6.347   1.283   8.872 -1.6490 -2.7973  1.5480
 6912SOL    HW223629   6.209   1.305   8.813 -0.8511 -0.1854  0.4759
 6913SOL     OW23630   8.673   0.894   5.730  1.0517 -0.3520 -0.1598
 6913SOL    HW123631   8.633   0.823   5.782  0.4303 -0.0895 -0.2638
 6913SOL    HW223632   8.713   0.952   5.795  1.7337 -0.8916 -0.0851
 6914SOL     OW23633   5.655   4.149   9.218  0.8459  0.3642  0.3417
 6914SOL    HW123634   5.705   4.159   9.300  0.9876 -0.6948  0.4054
 6914SOL    HW223635   5.685   4.221   9.163  2.5642 -0.3036  0.3291
 6915SOL     OW23636   5.314   1.530   5.314 -0.4894 -0.1251  0.0903
 6915SOL    HW123637   5.364   1.606   5.285 -0.0541 -1.0356 -1.6865
 6915SOL    HW223638   5.357   1.502   5.394  0.7899  0.1519 -0.4697
 6916SOL     OW23639   1.535   8.996   6.713  0.0742  0.0050  0.1253
 6916SOL    HW123640   1.532   9.089   6.735 -0.5604  0.1824 -0.6649
 6916SOL    HW223641   1.609   8.962   6.763 -1.2971  0.3792  2.5225
 6917SOL     OW23642   9.126   0.659   9.211 -0.2772 -0.6537  0.0362
 6917SOL    HW123643   9.156   0.749   9.226 -1.7553 -0.0961 -0.1446
 6917SOL    HW223644   9.110   0.654   9.117  1.7068 -1.7627 -0.2820
 6918SOL     OW23645   4.936   2.459   4.890 -0.8681 -0.6764  0.5053
 6918SOL    HW123646   4.866   2.425   4.835  0.0709 -1.2468 -0.3732
 6918SOL    HW223647   5.016   2.423   4.853 -0.0900  0.0006  1.4508
 6919SOL     OW23648   8.308   4.239   3.505  0.4627 -0.0106 -0.0604
 6919SOL    HW123649   8.279   4.331   3.499  0.7696  0.0519 -0.7218
 6919SOL    HW223650   8.268   4.197   3.429  0.4769 -0.3837  0.1379
 6920SOL     OW23651   6.485   0.055   2.003 -0.6866 -0.4501 -0.1194
 6920SOL    HW123652   6.429  -0.019   1.982 -1.2579  0.2233 -1.0494
 6920SOL    HW223653   6.563   0.042   1.948 -0.7969 -0.3611 -0.2996
 6921SOL     OW23654   1.361   0.934   5.074  1.4109 -0.1329  0.4874
 6921SOL    HW123655   1.296   0.914   5.141 -0.4317 -0.6872 -1.3628
 6921SOL    HW223656   1.414   0.855   5.067  1.1925 -0.3097  0.8259
 6922SOL     OW23657   7.314   6.951   2.953 -0.5164  0.2167 -0.4280
 6922SOL    HW123658   7.243   6.888   2.946 -0.6657  0.1754  1.0646
 6922SOL    HW223659   7.281   7.019   3.012  0.7223  0.0932  0.4569
 6923SOL     OW23660   6.945   2.812   3.547 -0.3772  0.2805 -0.1975
 6923SOL    HW123661   6.877   2.822   3.480 -0.0569  2.4633 -0.2604
 6923SOL    HW223662   6.899   2.822   3.630 -0.3698  0.2542 -0.1905
 6924SOL     OW23663   2.397   6.139   6.269  0.4351  0.1040 -0.0352
 6924SOL    HW123664   2.402   6.048   6.239 -0.0472  0.1522 -0.2608
 6924SOL    HW223665   2.485   6.174   6.251  0.2372  0.0622 -1.1974
 6925SOL     OW23666   4.056   4.138   2.129 -0.3837  0.1832 -0.2876
 6925SOL    HW123667   4.097   4.077   2.068  3.3842  2.1433 -0.0035
 6925SOL    HW223668   3.966   4.107   2.137 -0.2586 -1.9270 -4.4531
 6926SOL     OW23669   4.592   6.436   0.202 -0.2949 -0.2011 -0.0511
 6926SOL    HW123670   4.684   6.427   0.179 -0.1558 -0.6198  0.6361
 6926SOL    HW223671   4.552   6.480   0.127  0.3669 -0.4556 -0.5563
 6927SOL     OW23672   0.388   3.246   3.810  0.4493 -0.5155 -0.1057
 6927SOL    HW123673   0.296   3.251   3.837 -0.3412 -0.0092 -2.6527
 6927SOL    HW223674   0.395   3.309   3.738  1.9949 -2.8409 -2.1171
 6928SOL     OW23675   3.072   4.841   0.709  0.5506 -0.4191 -0.6226
 6928SOL    HW123676   3.094   4.749   0.696 -0.1120 -0.7523  0.4787
 6928SOL    HW223677   3.013   4.841   0.785  1.6697  1.0548  0.2961
 6929SOL     OW23678   5.597   4.137   7.950 -0.1928 -0.0541  0.1901
 6929SOL    HW123679   5.673   4.190   7.975 -0.2246  0.2997 -0.4397
 6929SOL    HW223680   5.544   4.196   7.897 -0.8918 -0.3150  0.5939
 6930SOL     OW23681   1.113   0.281   3.197 -0.1494  0.4932  0.0248
 6930SOL    HW123682   1.145   0.221   3.130  1.4902  1.3093  0.0358
 6930SOL    HW223683   1.118   0.368   3.158  0.8608  0.9888  1.1749
 6931SOL     OW23684   2.226   4.273   1.507 -0.1459  0.4768 -0.0867
 6931SOL    HW123685   2.321   4.283   1.515  0.0315 -0.8047 -0.3672
 6931SOL    HW223686   2.192   4.295   1.593  0.5246 -0.2460  0.3765
 6932SOL     OW23687   6.084   0.134   6.216 -0.0325 -0.3707 -0.2841
 6932SOL    HW123688   6.075   0.041   6.235  0.9152 -0.4865 -0.3155
 6932SOL    HW223689   6.112   0.173   6.299 -0.3850 -0.1172 -0.2818
 6933SOL     OW23690   4.878   9.244   4.844  0.1438  0.0604 -0.0788
 6933SOL    HW123691   4.930   9.273   4.769 -1.3746  1.4423 -0.6486
 6933SOL    HW223692   4.942   9.234   4.914  1.1725  2.1617 -0.6167
 6934SOL     OW23693   4.843   0.887   6.892  0.3432  0.6342  0.3984
 6934SOL    HW123694   4.771   0.910   6.951  0.1747 -1.3647  1.0588
 6934SOL    HW223695   4.803   0.885   6.805  0.2442  2.1446  0.3944
 6935SOL     OW23696   6.342   9.217   7.190 -0.4219  0.3628 -0.2525
 6935SOL    HW123697   6.319   9.153   7.123 -0.5745  1.3301 -1.1467
 6935SOL    HW223698   6.264   9.223   7.245 -0.5645  0.1067 -0.4255
 6936SOL     OW23699   2.708   5.279   1.347  0.2328 -0.0523 -1.0128
 6936SOL    HW123700   2.796   5.247   1.326 -0.6417 -1.3997 -3.0123
 6936SOL    HW223701   2.654   5.200   1.346 -0.8073  0.5334  1.6558
 6937SOL     OW23702   7.619   1.457   6.685 -0.0120 -0.2487 -0.2614
 6937SOL    HW123703   7.552   1.434   6.750  0.6054  0.0693  0.5025
 6937SOL    HW223704   7.696   1.480   6.737  0.4353  0.2162 -1.1076
 6938SOL     OW23705   3.391   4.578   8.290  0.0765  0.1098 -0.0889
 6938SOL    HW123706   3.368   4.666   8.260  2.0452  0.1296 -1.7896
 6938SOL    HW223707   3.430   4.591   8.377 -1.9670  0.5602  0.8116
 6939SOL     OW23708   0.628   3.494   8.594  0.4644  0.3595  0.3336
 6939SOL    HW123709   0.639   3.588   8.579 -0.8591  0.5795  0.6273
 6939SOL    HW223710   0.538   3.485   8.624  0.6641 -0.9804  0.5830
 6940SOL     OW23711   4.442   4.680   5.946 -0.0348  0.0705 -0.0213
 6940SOL    HW123712   4.502   4.608   5.961 -1.1954 -0.9521 -0.1540
 6940SOL    HW223713   4.371   4.642   5.894  0.6098  1.9127 -2.4591
 6941SOL     OW23714   2.834   5.399   5.527 -0.3351  0.0295 -0.0960
 6941SOL    HW123715   2.880   5.418   5.609 -0.9124 -0.3770  0.3323
 6941SOL    HW223716   2.744   5.427   5.544 -0.6631 -0.8947 -0.2673
 6942SOL     OW23717   0.783   1.954   0.918  0.4841 -0.2068 -0.1452
 6942SOL    HW123718   0.830   1.873   0.937  1.8920  0.3125 -1.2915
 6942SOL    HW223719   0.752   1.944   0.828  0.3110  0.3743 -0.1535
 6943SOL     OW23720   3.094   6.133   2.469 -0.6630 -0.4246  0.7383
 6943SOL    HW123721   3.173   6.144   2.522  0.8122  0.5304 -1.5467
 6943SOL    HW223722   3.082   6.038   2.463  1.7023 -0.6900 -0.7744
 6944SOL     OW23723   7.584   7.291   5.744  0.1375 -1.0127 -0.0078
 6944SOL    HW123724   7.616   7.374   5.778  0.1800 -1.2231  0.4745
 6944SOL    HW223725   7.512   7.315   5.685  0.1053 -0.6420  0.1818
 6945SOL     OW23726   3.596   4.560   5.820  0.4536  0.1485  0.6629
 6945SOL    HW123727   3.609   4.466   5.829 -1.4983 -0.3460 -0.8792
 6945SOL    HW223728   3.510   4.569   5.778  0.9332  2.5902 -0.0026
 6946SOL     OW23729   3.781   0.412   6.408  0.5932  0.3614  0.1747
 6946SOL    HW123730   3.810   0.500   6.433  1.2497  0.3099 -0.3624
 6946SOL    HW223731   3.850   0.354   6.441 -0.1040 -0.0151  1.0102
 6947SOL     OW23732   2.966   4.410   7.049 -0.3113 -0.2564 -0.3272
 6947SOL    HW123733   3.032   4.440   7.112 -1.5336  1.8768  0.0295
 6947SOL    HW223734   2.894   4.378   7.102 -1.3817  1.6248 -0.5680
 6948SOL     OW23735   3.775   5.987   1.357 -0.3797 -0.0178 -0.0550
 6948SOL    HW123736   3.698   5.955   1.309  0.4288 -0.4596 -1.0996
 6948SOL    HW223737   3.816   6.049   1.297 -0.3214  0.7785  0.7962
 6949SOL     OW23738   5.206   3.032   7.425  0.0655  0.1347  0.1509
 6949SOL    HW123739   5.279   3.092   7.433 -1.3383  1.8175  1.2578
 6949SOL    HW223740   5.237   2.951   7.466  2.4551 -0.4723 -2.5689
 6950SOL     OW23741   5.846   0.273   0.181 -0.1535  0.5480 -0.1853
 6950SOL    HW123742   5.797   0.191   0.185  0.8958 -0.1383 -0.8598
 6950SOL    HW223743   5.849   0.295   0.088  0.7559  0.5960 -0.1580
 6951SOL     OW23744   5.054   1.311   8.816 -0.3245 -0.0905  0.8964
 6951SOL    HW123745   5.143   1.276   8.813 -0.8432 -1.4892  1.1152
 6951SOL    HW223746   5.005   1.260   8.752 -1.2902 -0.2975  1.7646
 6952SOL     OW23747   8.086   3.904   3.955  0.1784  0.2643  0.6238
 6952SOL    HW123748   8.112   3.936   3.869  0.9903  0.7264  1.0359
 6952SOL    HW223749   8.065   3.812   3.940  0.6798  0.2410  0.0073
 6953SOL     OW23750   4.135   3.874   6.202  0.0716  0.1105  0.1585
 6953SOL    HW123751   4.184   3.819   6.264  1.0955  1.9878  1.1218
 6953SOL    HW223752   4.093   3.812   6.143  0.6349 -1.7107  1.5622
 6954SOL     OW23753   8.268   2.498   1.511 -0.0908 -0.1938  0.2617
 6954SOL    HW123754   8.300   2.582   1.478 -0.5235  0.5443  1.6533
 6954SOL    HW223755   8.212   2.520   1.585 -1.3291 -1.6362 -0.1790
 6955SOL     OW23756   5.213   2.439   4.770  0.2579 -0.0770  0.1399
 6955SOL    HW123757   5.167   2.361   4.739 -0.8373  1.1934 -1.6237
 6955SOL    HW223758   5.306   2.420   4.755 -0.0893 -0.4634 -1.7723
 6956SOL     OW23759   1.954   0.836   6.118  0.0424 -0.1825 -0.3161
 6956SOL    HW123760   1.943   0.769   6.050 -1.2289  0.0700 -0.3745
 6956SOL    HW223761   1.921   0.916   6.079  0.3530  0.2097  0.2119
 6957SOL     OW23762   4.799   2.838   2.293 -0.1306 -0.3847  0.2580
 6957SOL    HW123763   4.883   2.873   2.261  0.7949 -0.5507  2.3548
 6957SOL    HW223764   4.763   2.908   2.347 -1.1386 -0.5022 -0.2458
 6958SOL     OW23765   0.374   2.803   7.801  0.2627  0.4993 -0.0394
 6958SOL    HW123766   0.356   2.875   7.862  1.0879 -0.1780  1.0425
 6958SOL    HW223767   0.453   2.762   7.836  1.0070  0.3491 -1.8313
 6959SOL     OW23768   2.832   2.693   8.068 -0.4277 -0.6563 -0.6457
 6959SOL    HW123769   2.852   2.613   8.117 -1.1792 -0.5347 -0.1108
 6959SOL    HW223770   2.917   2.735   8.054 -0.1679 -0.8225  0.3464
 6960SOL     OW23771   6.540   8.789   1.320  0.0902  0.5156 -0.0204
 6960SOL    HW123772   6.471   8.724   1.332  0.4118  0.4937  2.1899
 6960SOL    HW223773   6.611   8.742   1.277 -0.8475  0.2628 -1.3345
 6961SOL     OW23774   8.468   2.107   7.132 -0.5695  0.0044 -0.3599
 6961SOL    HW123775   8.479   2.162   7.054  0.8222 -0.0890 -0.2551
 6961SOL    HW223776   8.500   2.161   7.204 -2.1162  0.1986  0.2195
 6962SOL     OW23777   0.250   3.617   2.316 -0.0576 -0.3995 -0.3044
 6962SOL    HW123778   0.197   3.623   2.395  1.7458  1.4600  0.8793
 6962SOL    HW223779   0.275   3.707   2.297  0.2738 -0.9060 -2.5238
 6963SOL     OW23780   6.857   0.710   0.421 -0.1453  0.5599 -0.3472
 6963SOL    HW123781   6.853   0.706   0.516  0.8823  0.9813 -0.2748
 6963SOL    HW223782   6.831   0.800   0.400  0.0228  0.5883 -0.4361
 6964SOL     OW23783   7.420   4.488   3.248 -0.2809  0.0244 -0.7008
 6964SOL    HW123784   7.492   4.548   3.266 -0.3235 -0.3065  0.7331
 6964SOL    HW223785   7.343   4.543   3.241 -0.1655  0.2268 -0.3873
 6965SOL     OW23786   2.045   7.393   7.702  0.1331 -0.4094  0.5028
 6965SOL    HW123787   2.065   7.359   7.615  0.1791 -0.8206  0.6682
 6965SOL    HW223788   2.125   7.378   7.753 -0.7509 -2.7630  1.3809
 6966SOL     OW23789   8.904   3.978   7.280  0.4949 -0.3283 -0.0126
 6966SOL    HW123790   8.887   4.033   7.204  1.0770 -0.5294 -0.2980
 6966SOL    HW223791   8.993   3.944   7.266  1.2211  0.8224  1.4923
 6967SOL     OW23792   5.148   3.764   8.999 -0.3091  0.1189 -0.4051
 6967SOL    HW123793   5.143   3.843   9.053  0.6510  1.6398 -2.3603
 6967SOL    HW223794   5.232   3.725   9.021 -0.2615  0.3049 -0.2565
 6968SOL     OW23795   3.052   2.975   9.192 -0.4479 -0.1096 -0.3597
 6968SOL    HW123796   2.999   2.981   9.113  0.1304 -1.1041 -0.8339
 6968SOL    HW223797   2.991   2.950   9.261 -1.2498  2.1656 -0.1347
 6969SOL     OW23798   8.882   5.897   3.363 -0.3972 -0.0580  0.0148
 6969SOL    HW123799   8.891   5.812   3.407 -0.4149 -0.3951 -0.6188
 6969SOL    HW223800   8.897   5.962   3.432 -1.3922 -0.5600  0.7314
 6970SOL     OW23801   3.631   2.090   2.005 -0.2759  0.5949  0.0387
 6970SOL    HW123802   3.613   2.074   1.913 -2.3668  1.5654  0.2140
 6970SOL    HW223803   3.574   2.028   2.052 -0.0970  0.8946  0.6673
 6971SOL     OW23804   1.394   3.170   0.769  0.3644 -0.0871  0.1596
 6971SOL    HW123805   1.473   3.117   0.757  0.4984  0.4948 -1.8744
 6971SOL    HW223806   1.324   3.107   0.786  0.8521 -0.7727 -0.3781
 6972SOL     OW23807   3.638   4.940   3.207 -0.3321  0.2991  1.0299
 6972SOL    HW123808   3.628   4.882   3.283 -0.4087 -1.7401 -0.4474
 6972SOL    HW223809   3.733   4.944   3.192 -0.1829  2.1166  2.2171
 6973SOL     OW23810   7.834   9.148   8.841 -0.7581 -0.3437 -0.3153
 6973SOL    HW123811   7.750   9.161   8.886 -0.1471 -0.0491  0.7724
 6973SOL    HW223812   7.893   9.114   8.909  0.4613  1.0355 -0.6280
 6974SOL     OW23813   1.855   2.483   6.819 -0.1889  0.5003 -0.8492
 6974SOL    HW123814   1.793   2.411   6.807  0.2594 -0.1545  0.5624
 6974SOL    HW223815   1.941   2.440   6.814  0.0713  0.6680  1.3600
 6975SOL     OW23816   5.349   4.392   5.707  0.5651 -0.0318 -0.4594
 6975SOL    HW123817   5.423   4.335   5.728  1.1868  0.2797 -1.7198
 6975SOL    HW223818   5.371   4.476   5.748 -0.1321 -0.5195  0.9970
 6976SOL     OW23819   2.509   8.516   6.351 -0.0369  0.0648  0.2034
 6976SOL    HW123820   2.578   8.534   6.415 -0.5225  0.1082  0.7271
 6976SOL    HW223821   2.446   8.461   6.399 -0.2349 -0.1930 -0.3465
 6977SOL     OW23822   0.859   7.364   3.042  0.2749 -0.0905 -0.1400
 6977SOL    HW123823   0.792   7.426   3.010  0.8029 -0.5198 -2.2045
 6977SOL    HW223824   0.813   7.280   3.047  0.2931 -0.1004 -0.1406
 6978SOL     OW23825   5.861   4.475   1.016  0.3684 -0.2743 -0.4686
 6978SOL    HW123826   5.917   4.478   1.094  1.3179 -1.4023 -1.0738
 6978SOL    HW223827   5.799   4.547   1.028  1.4460  0.5106  0.6048
 6979SOL     OW23828   5.569   1.221   6.095  0.6190 -0.1199 -0.0298
 6979SOL    HW123829   5.630   1.178   6.155  0.0797 -1.0667 -0.1366
 6979SOL    HW223830   5.596   1.313   6.095 -0.0691  0.1683  2.5772
 6980SOL     OW23831   6.538   7.585   3.068 -0.3798  0.0057 -0.1106
 6980SOL    HW123832   6.576   7.633   3.142 -1.5409  1.1858 -0.2208
 6980SOL    HW223833   6.445   7.576   3.091 -0.6090 -0.2773 -1.0883
 6981SOL     OW23834   7.524   2.873   4.431 -0.2807 -0.1590  0.1021
 6981SOL    HW123835   7.610   2.873   4.391  0.6735 -1.4362  1.9997
 6981SOL    HW223836   7.511   2.963   4.461  0.6226 -0.0717  0.2529
 6982SOL     OW23837   6.392   5.546   0.051 -0.4531  0.1594 -0.1533
 6982SOL    HW123838   6.332   5.495  -0.004  0.4338  0.7410 -1.7321
 6982SOL    HW223839   6.454   5.481   0.085 -1.4625 -0.3233  0.8325
 6983SOL     OW23840   7.742   7.955   2.544  0.0020 -0.0886 -0.8048
 6983SOL    HW123841   7.674   8.020   2.523 -0.1823 -0.2605 -0.7458
 6983SOL    HW223842   7.723   7.881   2.487 -0.1697 -0.3378 -0.4282
 6984SOL     OW23843   8.453   1.734   6.536 -0.2927  0.1730 -0.3868
 6984SOL    HW123844   8.487   1.651   6.503 -0.5531 -0.3469  0.6003
 6984SOL    HW223845   8.438   1.718   6.629  0.8646  1.7130  0.1143
 6985SOL     OW23846   1.356   5.871   1.007  0.1300  0.3038  0.0397
 6985SOL    HW123847   1.299   5.846   1.080 -0.4285 -0.9907 -0.8035
 6985SOL    HW223848   1.328   5.961   0.986 -0.3370  0.3560  0.8098
 6986SOL     OW23849   3.558   1.678   3.366  0.0541  0.3084  0.1560
 6986SOL    HW123850   3.562   1.721   3.452 -1.8689 -0.3573  0.6252
 6986SOL    HW223851   3.567   1.585   3.385 -0.1699  0.1723 -0.3940
 6987SOL     OW23852   8.600   5.812   1.800 -0.3327  0.6762 -0.6286
 6987SOL    HW123853   8.614   5.882   1.738 -0.8640  0.7396 -0.6796
 6987SOL    HW223854   8.541   5.751   1.755  0.3020  0.0875 -0.6703
 6988SOL     OW23855   8.734   7.035   6.006  0.1510 -0.0635 -0.7299
 6988SOL    HW123856   8.823   7.034   5.971  0.3550 -0.4031 -0.2111
 6988SOL    HW223857   8.739   7.091   6.084  0.2233 -1.1508  0.0736
 6989SOL     OW23858   8.087   5.264   3.701 -0.4196  0.3834 -0.4338
 6989SOL    HW123859   8.085   5.327   3.629 -0.2601  1.3306  0.3651
 6989SOL    HW223860   8.155   5.202   3.677 -0.2047  0.8311 -0.9958
 6990SOL     OW23861   0.496   6.862   5.265 -0.1646  0.1786  0.0365
 6990SOL    HW123862   0.511   6.954   5.282 -1.6684  1.3722 -3.9273
 6990SOL    HW223863   0.579   6.830   5.229 -0.2737  0.6253 -0.6321
 6991SOL     OW23864   1.915   8.623   2.076 -0.1217  0.6300  0.5210
 6991SOL    HW123865   1.908   8.638   2.170 -2.2647  2.3166  0.1699
 6991SOL    HW223866   1.900   8.708   2.036  2.5077  0.3214 -1.3816
 6992SOL     OW23867   3.096   7.351   0.280 -0.8209  0.6248 -0.6044
 6992SOL    HW123868   3.131   7.346   0.191 -0.3805 -0.9842 -0.3815
 6992SOL    HW223869   3.131   7.433   0.316  1.5699 -0.1924 -0.8854
 6993SOL     OW23870   6.554   7.850   3.439 -0.5251  0.4601  0.4535
 6993SOL    HW123871   6.549   7.946   3.443  1.6580  0.6322  0.6611
 6993SOL    HW223872   6.597   7.826   3.522 -2.2047 -0.8428  0.9959
 6994SOL     OW23873   6.692   5.926   7.111 -0.2327 -0.0075  0.3521
 6994SOL    HW123874   6.644   5.853   7.074 -0.4313  0.2405  0.1141
 6994SOL    HW223875   6.774   5.888   7.144  0.5327 -0.0422 -1.4751
 6995SOL     OW23876   5.690   4.906   7.010 -0.2115 -0.0836 -0.0510
 6995SOL    HW123877   5.707   4.939   7.098  1.2747 -0.2765 -0.2341
 6995SOL    HW223878   5.771   4.861   6.985 -0.8310 -0.5734 -1.2729
 6996SOL     OW23879   7.711   2.024   0.336  0.1499  0.3339  0.6922
 6996SOL    HW123880   7.700   1.958   0.268  0.2704 -0.0850  1.0708
 6996SOL    HW223881   7.806   2.037   0.342  0.2934 -1.0854  2.1245
 6997SOL     OW23882   2.124   4.187   6.148 -0.0349  0.6148  0.4237
 6997SOL    HW123883   2.110   4.128   6.222 -2.8599  0.6422  0.0079
 6997SOL    HW223884   2.092   4.272   6.179 -2.0352  0.4411 -1.0373
 6998SOL     OW23885   5.504   2.279   1.703  0.1647  0.0254  0.0130
 6998SOL    HW123886   5.541   2.276   1.615  0.7721  2.4347  0.1348
 6998SOL    HW223887   5.561   2.338   1.752  0.2772 -1.8298  2.2799
 6999SOL     OW23888   5.967   3.899   1.381 -0.0372 -0.5147  0.0636
 6999SOL    HW123889   5.872   3.911   1.369  0.4342  2.3007 -1.7621
 6999SOL    HW223890   5.998   3.868   1.296  0.9266  0.5897 -0.0054
 7000SOL     OW23891   0.817   1.075   5.827  0.0055 -0.1385 -0.0108
 7000SOL    HW123892   0.756   1.022   5.776  0.3455  0.1406 -0.7202
 7000SOL    HW223893   0.874   1.011   5.869 -0.6632 -0.3948  0.5303
 7001SOL     OW23894   8.545   3.255   2.245 -0.4770 -0.4473  0.1184
 7001SOL    HW123895   8.470   3.247   2.186 -0.9749 -1.1975  0.8384
 7001SOL    HW223896   8.506   3.256   2.332  0.2479  0.7163  0.4531
 7002SOL     OW23897   0.040   3.539   3.528  0.1193 -0.2327  0.0540
 7002SOL    HW123898   0.085   3.526   3.444  0.2050 -0.1928  0.0942
 7002SOL    HW223899   0.109   3.562   3.590  0.2529 -1.5955  0.4412
 7003SOL     OW23900   1.723   6.721   5.009  0.3968  0.1714 -0.5538
 7003SOL    HW123901   1.666   6.796   5.027 -0.7736 -1.0733  1.1448
 7003SOL    HW223902   1.795   6.731   5.070  0.5461  0.2121 -0.7355
 7004SOL     OW23903   8.389   7.464   6.799 -0.0235 -0.5104 -0.2474
 7004SOL    HW123904   8.308   7.418   6.779  0.0754 -1.9238  2.2162
 7004SOL    HW223905   8.368   7.517   6.876  1.1251 -0.1047 -0.1900
 7005SOL     OW23906   6.453   4.420   6.768 -0.4796  0.1110  0.2393
 7005SOL    HW123907   6.502   4.364   6.829  0.4041  1.3364  0.6938
 7005SOL    HW223908   6.511   4.495   6.752 -1.6079  0.8859 -0.3857
 7006SOL     OW23909   2.423   6.647   4.471  0.6208  0.5573 -0.6676
 7006SOL    HW123910   2.481   6.588   4.519  0.6608  0.5900 -0.6748
 7006SOL    HW223911   2.420   6.611   4.382 -1.8764 -1.2478  0.0652
 7007SOL     OW23912   3.129   3.609   9.171 -0.4091 -0.3644  0.1196
 7007SOL    HW123913   3.167   3.643   9.090 -0.5537  1.0883  0.6412
 7007SOL    HW223914   3.048   3.659   9.182 -0.7930 -1.1034  0.7597
 7008SOL     OW23915   2.067   1.883   7.901  0.4485 -0.1980 -0.2783
 7008SOL    HW123916   1.995   1.823   7.917  0.3526 -0.4689 -1.5706
 7008SOL    HW223917   2.070   1.940   7.978 -2.0146  0.6792 -0.7540
 7009SOL     OW23918   1.474   2.173   0.728  0.3098  0.1564 -0.0647
 7009SOL    HW123919   1.388   2.150   0.762  0.8018 -2.4823 -0.3872
 7009SOL    HW223920   1.514   2.227   0.796 -0.6494 -0.6971  1.2112
 7010SOL     OW23921   8.763   4.559   3.421  0.1109  0.2556 -0.1543
 7010SOL    HW123922   8.724   4.634   3.376  0.0111  0.2460 -0.0841
 7010SOL    HW223923   8.703   4.487   3.404  0.3392  0.1315 -0.4385
 7011SOL     OW23924   9.153   2.689   5.593  0.0383 -0.2196 -0.3757
 7011SOL    HW123925   9.201   2.606   5.599  1.1354  0.4970  1.1901
 7011SOL    HW223926   9.166   2.718   5.502  3.2849  0.3389  0.1621
 7012SOL     OW23927   8.296   7.512   3.252 -0.6838  0.2231 -0.1241
 7012SOL    HW123928   8.346   7.490   3.331 -0.1288  1.9099  0.0360
 7012SOL    HW223929   8.299   7.607   3.248  0.0456  0.1588 -2.6721
 7013SOL     OW23930   4.409   0.670   1.554  0.3867  0.1856  0.8779
 7013SOL    HW123931   4.318   0.650   1.577  0.3554  0.4175  0.9588
 7013SOL    HW223932   4.461   0.621   1.618  0.3411 -0.7446  0.2058
 7014SOL     OW23933   6.913   7.025   2.434  0.0144 -0.4970  0.3477
 7014SOL    HW123934   6.949   7.032   2.522  0.7082 -0.1764  0.0399
 7014SOL    HW223935   6.818   7.016   2.448  0.0365  0.3159  1.1033
 7015SOL     OW23936   2.522   4.337   5.000  0.3661  0.5849 -0.6075
 7015SOL    HW123937   2.515   4.263   5.061  0.4306  0.8777 -0.2389
 7015SOL    HW223938   2.544   4.297   4.916  2.0392  0.2909 -0.0801
 7016SOL     OW23939   4.002   1.365   4.920 -0.0577  0.5830 -0.4921
 7016SOL    HW123940   3.974   1.455   4.937 -0.4025  0.6724 -1.4365
 7016SOL    HW223941   4.066   1.374   4.849  2.1309  0.3440  1.3478
 7017SOL     OW23942   8.988   5.128   2.562  0.5876  0.0886  0.1023
 7017SOL    HW123943   9.002   5.174   2.644  0.9877 -1.4312  0.9329
 7017SOL    HW223944   8.943   5.191   2.506  0.7234  1.3092  1.3151
 7018SOL     OW23945   7.432   1.279   6.460 -0.5550  0.1311 -0.2330
 7018SOL    HW123946   7.430   1.317   6.548  0.7260 -0.5147  0.1062
 7018SOL    HW223947   7.346   1.239   6.449 -0.9421  0.7540  0.4846
 7019SOL     OW23948   1.557   0.232   2.755  0.0132 -0.2403  0.5995
 7019SOL    HW123949   1.476   0.191   2.784  0.1616 -2.2163 -1.4660
 7019SOL    HW223950   1.530   0.317   2.721 -1.3549 -1.1078 -0.6096
 7020SOL     OW23951   3.487   8.205   9.148  0.0794  0.0591 -0.0201
 7020SOL    HW123952   3.518   8.283   9.195  3.9955 -0.0379 -2.0466
 7020SOL    HW223953   3.440   8.240   9.072  1.6316  0.5312 -0.8061
 7021SOL     OW23954   3.715   1.765   0.317  0.5779 -0.4470 -0.3248
 7021SOL    HW123955   3.703   1.675   0.288  2.7526 -0.7543 -0.4918
 7021SOL    HW223956   3.731   1.815   0.237  1.7634 -0.3949 -0.0793
 7022SOL     OW23957   5.651   8.935   3.821  0.1092 -0.1390 -1.1134
 7022SOL    HW123958   5.556   8.943   3.814 -0.0266 -1.1098 -0.5800
 7022SOL    HW223959   5.685   8.971   3.739 -0.6080  1.8565 -0.5870
 7023SOL     OW23960   2.900   2.865   6.217 -0.2035 -0.3970  0.3026
 7023SOL    HW123961   2.829   2.828   6.164 -1.2828  0.3353  1.1865
 7023SOL    HW223962   2.934   2.789   6.266 -0.1473 -0.8129 -0.3679
 7024SOL     OW23963   1.323   1.798   0.031  0.8093 -0.1159 -0.3906
 7024SOL    HW123964   1.289   1.847   0.106  0.4119  0.1849 -0.7609
 7024SOL    HW223965   1.256   1.733   0.012  1.3758 -0.8862  0.1561
 7025SOL     OW23966   9.103   5.282   7.739 -0.4908  0.0169 -0.0610
 7025SOL    HW123967   9.016   5.272   7.778  0.1895 -1.2108  1.2993
 7025SOL    HW223968   9.149   5.339   7.800  0.5082 -1.7111  0.9096
 7026SOL     OW23969   4.599   3.303   8.702  0.1561 -0.3817 -0.4881
 7026SOL    HW123970   4.549   3.380   8.728 -0.0197 -0.5867 -0.2071
 7026SOL    HW223971   4.572   3.235   8.764  0.6767 -0.5353 -0.4191
 7027SOL     OW23972   8.775   1.222   4.806 -0.3572  0.1059 -0.6536
 7027SOL    HW123973   8.755   1.315   4.800  0.9318  0.3969 -0.8240
 7027SOL    HW223974   8.697   1.178   4.773 -0.4320  1.1716 -1.9589
 7028SOL     OW23975   2.101   8.184   3.431 -0.3421  0.9352  0.0516
 7028SOL    HW123976   2.073   8.268   3.395  3.3022  1.5848 -1.6860
 7028SOL    HW223977   2.123   8.204   3.522 -3.5493  0.7361  0.9949
 7029SOL     OW23978   2.942   6.806   2.333  0.1634  0.0061 -0.6194
 7029SOL    HW123979   2.897   6.722   2.345  2.4695 -1.4895 -1.7730
 7029SOL    HW223980   2.969   6.832   2.421 -1.3109  0.0100 -0.1474
 7030SOL     OW23981   3.900   1.828   1.814 -0.1586  0.0291 -0.2157
 7030SOL    HW123982   3.833   1.761   1.828 -2.7150  2.4315 -0.2005
 7030SOL    HW223983   3.920   1.861   1.901 -0.7569  0.9339 -0.4096
 7031SOL     OW23984   2.059   7.684   0.856  0.0293  0.1591  0.5512
 7031SOL    HW123985   2.113   7.713   0.930  1.1388 -1.4122  0.4059
 7031SOL    HW223986   1.981   7.646   0.897 -0.2028  0.9004  0.8226
 7032SOL     OW23987   8.544   6.117   5.329  0.1272  0.0271  0.0053
 7032SOL    HW123988   8.448   6.119   5.323  0.2009  0.7183 -1.2004
 7032SOL    HW223989   8.570   6.041   5.278  0.1908 -0.6787  1.0636
 7033SOL     OW23990   3.100   5.574   9.104  0.3796 -0.4235 -0.1090
 7033SOL    HW123991   3.045   5.580   9.182  0.0098  2.2149 -0.4920
 7033SOL    HW223992   3.051   5.516   9.045 -1.1497  0.4747  0.2223
 7034SOL     OW23993   6.533   5.508   8.699  0.1871  0.6700  0.4939
 7034SOL    HW123994   6.543   5.544   8.787  0.0058  0.0177  0.7926
 7034SOL    HW223995   6.619   5.471   8.678  0.0155  0.1138  0.7353
 7035SOL     OW23996   3.915   7.023   5.876  0.1970  0.1919  0.4177
 7035SOL    HW123997   3.908   6.973   5.958 -1.9020  2.9265  2.0749
 7035SOL    HW223998   4.009   7.039   5.866  0.6713 -1.7694  1.2235
 7036SOL     OW23999   8.301   1.578   3.302  0.2632  0.5552  0.0857
 7036SOL    HW124000   8.357   1.649   3.273 -1.2438  1.4674 -0.7063
 7036SOL    HW224001   8.320   1.506   3.242  0.9301  0.6863  0.1383
 7037SOL     OW24002   4.497   6.297   8.734 -0.0787 -0.4499 -0.3006
 7037SOL    HW124003   4.568   6.236   8.751 -1.4365 -1.4976  1.9155
 7037SOL    HW224004   4.480   6.340   8.818 -1.5317  0.3771 -0.9650
 7038SOL     OW24005   8.132   3.933   5.594  0.6195 -0.1070 -0.5744
 7038SOL    HW124006   8.163   3.876   5.665 -1.2275  1.0252  1.2324
 7038SOL    HW224007   8.186   3.908   5.519  1.4692 -2.5914  0.7357
 7039SOL     OW24008   3.170   7.637   1.042 -0.4025  0.2973  0.4625
 7039SOL    HW124009   3.129   7.674   1.120 -0.5179  0.9142  0.1189
 7039SOL    HW224010   3.174   7.543   1.059 -0.5532  0.4101  1.1484
 7040SOL     OW24011   4.276   0.260   0.370 -0.3289 -0.5676 -0.6472
 7040SOL    HW124012   4.334   0.274   0.295  0.8884  0.0631  0.3570
 7040SOL    HW224013   4.314   0.315   0.439  0.1492 -3.0964  1.2392
 7041SOL     OW24014   8.630   2.013   7.479  0.5457  0.0970  0.0017
 7041SOL    HW124015   8.672   1.961   7.410 -0.0724 -0.4912  0.0631
 7041SOL    HW224016   8.568   2.069   7.431  0.9135  0.4813 -0.0253
 7042SOL     OW24017   1.027   3.270   7.179 -0.2635  0.0057 -0.1191
 7042SOL    HW124018   0.994   3.354   7.209  0.7077  0.5208 -0.4457
 7042SOL    HW224019   1.121   3.273   7.199 -0.3934 -1.4476  0.8905
 7043SOL     OW24020   0.030   6.939   0.739 -0.3000  0.5871 -0.4426
 7043SOL    HW124021   0.104   6.885   0.767  0.6462  1.8059 -0.5008
 7043SOL    HW224022   0.059   6.978   0.656 -0.6968  1.6456 -0.1050
 7044SOL     OW24023   7.354   5.335   1.557 -0.3225 -0.3733  0.3586
 7044SOL    HW124024   7.289   5.297   1.616 -1.6015  1.0582 -0.0264
 7044SOL    HW224025   7.377   5.419   1.598 -0.9231  0.4522 -0.9137
 7045SOL     OW24026   7.108   1.162   8.010 -0.2942  0.3556  0.2672
 7045SOL    HW124027   7.139   1.250   7.989 -1.8618  0.8135 -0.3453
 7045SOL    HW224028   7.166   1.131   8.079  0.6894  1.6144  0.0339
 7046SOL     OW24029   5.468   3.074   6.066 -0.0736  0.5448 -0.2090
 7046SOL    HW124030   5.447   3.119   5.984  3.1016  0.1549 -1.4135
 7046SOL    HW224031   5.561   3.091   6.079 -0.2347 -0.2953  2.8118
 7047SOL     OW24032   5.631   8.226   0.138  0.3310 -0.5048 -0.8322
 7047SOL    HW124033   5.621   8.170   0.214  0.0662  1.3544  0.5685
 7047SOL    HW224034   5.717   8.204   0.102 -0.0908 -2.3082 -0.7971
 7048SOL     OW24035   1.118   0.606   3.209  0.2409  0.0410 -0.6944
 7048SOL    HW124036   1.060   0.562   3.270  1.6418 -1.6027 -0.4601
 7048SOL    HW224037   1.096   0.699   3.216 -1.8098 -0.4477 -0.1036
 7049SOL     OW24038   6.251   1.351   4.066  0.1569 -0.1812 -0.5108
 7049SOL    HW124039   6.335   1.328   4.105 -0.3990 -0.0074  0.8197
 7049SOL    HW224040   6.196   1.274   4.077 -0.1210 -0.0047 -0.6232
 7050SOL     OW24041   7.083   6.366   2.908 -0.4600 -0.5326 -0.5300
 7050SOL    HW124042   7.177   6.370   2.894 -0.2147  3.0949  1.1236
 7050SOL    HW224043   7.054   6.290   2.857  3.2262 -1.4843 -1.4760
 7051SOL     OW24044   4.370   8.618   6.204  0.1074 -0.0583  0.0751
 7051SOL    HW124045   4.358   8.667   6.122 -0.2275  1.0753  0.7845
 7051SOL    HW224046   4.370   8.685   6.272 -0.5985 -1.0732  1.1015
 7052SOL     OW24047   7.687   8.380   4.664 -0.2506  0.6037 -0.2207
 7052SOL    HW124048   7.596   8.412   4.662 -0.8262 -0.7136  1.5756
 7052SOL    HW224049   7.691   8.327   4.744  1.4091 -1.4214 -1.5558
 7053SOL     OW24050   4.273   3.714   1.453 -0.0753  0.9193 -0.2929
 7053SOL    HW124051   4.334   3.774   1.410 -0.9390  0.8611 -1.6702
 7053SOL    HW224052   4.210   3.771   1.496 -1.1285  1.0699 -1.9349
 7054SOL     OW24053   4.137   9.253   7.791  0.1783 -0.2928 -0.3195
 7054SOL    HW124054   4.045   9.263   7.767  0.5752 -0.9562 -2.3764
 7054SOL    HW224055   4.162   9.339   7.825 -0.8479  0.3492 -1.0981
 7055SOL     OW24056   6.334   3.452   0.445  0.0739  0.3694 -0.0332
 7055SOL    HW124057   6.357   3.365   0.477  1.6073  0.2103 -1.4306
 7055SOL    HW224058   6.252   3.473   0.491  0.0704 -1.4588  0.9197
 7056SOL     OW24059   8.767   8.584   0.242  0.2486  0.3957 -0.0825
 7056SOL    HW124060   8.836   8.570   0.177  1.5656  0.4906  1.2224
 7056SOL    HW224061   8.758   8.679   0.248  2.7368  0.6101  2.3494
 7057SOL     OW24062   4.066   6.609   0.582 -0.0199 -0.4417  0.0858
 7057SOL    HW124063   4.028   6.538   0.633  0.1156 -1.9235 -1.7748
 7057SOL    HW224064   4.014   6.686   0.606  1.3332 -0.4946  3.9647
 7058SOL     OW24065   9.106   6.342   3.353  0.0352 -0.1176  0.0992
 7058SOL    HW124066   9.134   6.265   3.402 -0.7303  0.4559  1.4886
 7058SOL    HW224067   9.013   6.327   3.334 -0.2976  0.7443  0.9764
 7059SOL     OW24068   4.405   5.486   8.646  0.0852  0.0502  0.0177
 7059SOL    HW124069   4.472   5.554   8.636 -0.0651  0.1013 -0.7576
 7059SOL    HW224070   4.330   5.520   8.597 -0.4374 -0.0954  0.7097
 7060SOL     OW24071   4.770   6.068   3.320 -0.3784  0.2591  0.1232
 7060SOL    HW124072   4.854   6.028   3.296  0.7499  2.8167 -0.5078
 7060SOL    HW224073   4.757   6.042   3.412 -0.1828 -2.1738 -0.4672
 7061SOL     OW24074   8.552   7.868   5.700 -0.2924  0.2970  0.0455
 7061SOL    HW124075   8.637   7.900   5.729 -0.0488  1.6378 -1.9692
 7061SOL    HW224076   8.497   7.872   5.778  0.4398  3.2806  0.5039
 7062SOL     OW24077   6.128   2.965   3.515  0.2118 -0.1733 -0.2571
 7062SOL    HW124078   6.052   2.969   3.456  0.0051 -0.2518  0.0034
 7062SOL    HW224079   6.143   3.056   3.540  0.7131 -0.0571 -0.9535
 7063SOL     OW24080   0.444   4.952   4.026  0.1432  0.0998 -0.5688
 7063SOL    HW124081   0.373   5.015   4.011 -1.0551 -0.4714  2.0427
 7063SOL    HW224082   0.488   4.983   4.105  1.3478 -0.7936 -0.8614
 7064SOL     OW24083   0.887   2.634   6.527 -0.1358  0.0216  0.1720
 7064SOL    HW124084   0.884   2.618   6.433 -0.1541  0.7883  0.0390
 7064SOL    HW224085   0.799   2.614   6.558 -0.4635  0.9205 -0.1646
 7065SOL     OW24086   0.624   1.513   3.246 -0.1535  0.0605 -0.1282
 7065SOL    HW124087   0.600   1.473   3.329 -2.0427  0.8342 -0.2640
 7065SOL    HW224088   0.654   1.601   3.269  0.7748 -0.2360 -0.1509
 7066SOL     OW24089   1.497   2.743   8.621  0.0583 -0.1144 -0.3379
 7066SOL    HW124090   1.474   2.833   8.599  0.5742 -0.0452 -0.6175
 7066SOL    HW224091   1.453   2.690   8.554  0.0754 -0.0408 -0.4073
 7067SOL     OW24092   8.305   3.216   0.064  0.3675 -0.2857  0.2533
 7067SOL    HW124093   8.328   3.124   0.049  0.3610 -0.1120 -0.8513
 7067SOL    HW224094   8.347   3.264  -0.007 -0.0736  0.5063  0.5099
 7068SOL     OW24095   6.968   8.071   5.419 -0.3818 -0.1315 -0.0655
 7068SOL    HW124096   6.974   8.033   5.507 -0.6187  0.3273  0.1502
 7068SOL    HW224097   6.910   8.011   5.372 -1.6851  0.5496  0.6052
 7069SOL     OW24098   4.808   0.686   5.577  0.0592  0.2935  0.3652
 7069SOL    HW124099   4.874   0.754   5.562 -1.1424  1.0227 -1.9604
 7069SOL    HW224100   4.859   0.605   5.580  1.0585  0.7291 -2.3053
 7070SOL     OW24101   7.918   5.059   1.555  0.1544 -0.4788 -0.2632
 7070SOL    HW124102   7.866   5.095   1.627 -0.6753 -1.7174 -0.2048
 7070SOL    HW224103   7.876   4.975   1.535  1.2275 -0.8085 -1.2508
 7071SOL     OW24104   0.677   9.009   5.501  0.1882 -0.2117 -0.3586
 7071SOL    HW124105   0.645   9.098   5.488  0.3518 -0.0324  0.4031
 7071SOL    HW224106   0.622   8.955   5.444 -0.5859  0.2540 -0.0791
 7072SOL     OW24107   3.071   6.745   4.292  0.3542  0.1711  0.3920
 7072SOL    HW124108   3.141   6.799   4.328  1.7176 -0.1174 -1.6266
 7072SOL    HW224109   3.113   6.661   4.275 -0.6223 -0.1743 -0.3787
 7073SOL     OW24110   7.355   1.729   5.446  0.4713 -0.2850 -0.6598
 7073SOL    HW124111   7.389   1.758   5.530 -0.2184  0.5971 -0.6735
 7073SOL    HW224112   7.366   1.804   5.388  0.9221 -0.8760 -1.3601
 7074SOL     OW24113   8.088   4.994   5.540 -0.0216  0.3216 -0.2699
 7074SOL    HW124114   8.125   4.923   5.594  1.8476  0.5210 -1.2211
 7074SOL    HW224115   8.019   4.951   5.489  1.2814 -0.9388 -1.0601
 7075SOL     OW24116   5.328   7.248   0.205  0.1254 -0.1398  0.2323
 7075SOL    HW124117   5.383   7.267   0.128  0.1108 -1.8999 -0.2515
 7075SOL    HW224118   5.343   7.322   0.264 -0.4594  1.6763 -1.7665
 7076SOL     OW24119   8.252   5.549   1.125  0.9304 -0.0063  0.2351
 7076SOL    HW124120   8.269   5.481   1.190 -0.6508  0.9030  1.6444
 7076SOL    HW224121   8.269   5.506   1.041  0.0396 -2.1298  1.0839
 7077SOL     OW24122   4.830   4.270   6.567  0.4795  0.0407 -0.2887
 7077SOL    HW124123   4.832   4.331   6.641  0.9392 -2.3290  1.8149
 7077SOL    HW224124   4.752   4.295   6.517  0.0572  1.6455  1.0830
 7078SOL     OW24125   2.389   4.293   6.005 -0.2060 -0.2416 -0.1959
 7078SOL    HW124126   2.359   4.205   6.030  1.6784 -0.5667  1.1403
 7078SOL    HW224127   2.485   4.288   6.010 -0.0701  2.1122  0.8016
 7079SOL     OW24128   5.604   4.226   8.342  0.8320 -0.2587 -0.0175
 7079SOL    HW124129   5.538   4.263   8.284 -0.1138  0.7019  1.6083
 7079SOL    HW224130   5.578   4.134   8.354  0.5841 -0.2445 -0.4586
 7080SOL     OW24131   7.399   5.419   2.499  0.3373 -0.2701 -0.9956
 7080SOL    HW124132   7.417   5.503   2.457 -1.0548 -0.1433 -1.4000
 7080SOL    HW224133   7.484   5.376   2.506  1.1431  1.3580 -0.3589
 7081SOL     OW24134   1.082   2.311   0.408 -0.0355 -0.1373  0.4159
 7081SOL    HW124135   1.134   2.366   0.466  0.7184 -1.8336  1.4071
 7081SOL    HW224136   1.018   2.371   0.370  0.6487  1.3877  1.5608
 7082SOL     OW24137   6.839   8.377   6.853 -0.3261  0.9051 -0.2403
 7082SOL    HW124138   6.759   8.327   6.836 -1.0439  1.3399  1.6411
 7082SOL    HW224139   6.808   8.461   6.887  0.8613  0.3328  2.5710
 7083SOL     OW24140   3.416   5.119   6.059  0.1802 -0.0527 -0.1120
 7083SOL    HW124141   3.358   5.089   5.988  2.4422 -0.6566 -1.8237
 7083SOL    HW224142   3.471   5.043   6.078  0.2453  0.4000  1.6884
 7084SOL     OW24143   8.822   4.977   4.405 -0.0732  0.4900  0.0507
 7084SOL    HW124144   8.895   4.929   4.366 -0.4546  1.1603 -1.5305
 7084SOL    HW224145   8.863   5.044   4.459  0.5889  2.4743 -2.7485
 7085SOL     OW24146   5.234   1.799   4.404 -0.3710  0.2085 -0.1475
 7085SOL    HW124147   5.259   1.760   4.320 -0.3485 -0.2934  0.0876
 7085SOL    HW224148   5.198   1.885   4.381 -0.5284  0.0015 -0.6827
 7086SOL     OW24149   5.402   5.275   2.689 -0.1793  0.0165  0.6536
 7086SOL    HW124150   5.433   5.190   2.659  2.5555  0.9208  0.6015
 7086SOL    HW224151   5.432   5.281   2.780 -0.2476  0.9317  0.6306
 7087SOL     OW24152   0.002   0.313   2.216 -0.5496 -0.5095  0.5402
 7087SOL    HW124153  -0.043   0.388   2.256  0.1865  1.5699 -2.2307
 7087SOL    HW224154  -0.069   0.259   2.181 -1.0351  0.2384  0.3447
 7088SOL     OW24155   8.795   3.586   4.961  0.1483 -0.1081 -0.2306
 7088SOL    HW124156   8.721   3.645   4.949 -1.5538 -1.7817  1.2480
 7088SOL    HW224157   8.759   3.499   4.944  1.3012 -1.1314  2.0952
 7089SOL     OW24158   1.936   2.851   3.219  0.2053  0.4572  0.1793
 7089SOL    HW124159   1.938   2.793   3.143 -0.5331 -1.1530  1.3309
 7089SOL    HW224160   1.900   2.933   3.185  0.4718 -0.0110 -1.3192
 7090SOL     OW24161   5.230   8.715   6.230 -0.3546  0.3515  0.3553
 7090SOL    HW124162   5.163   8.764   6.278  0.0766  3.3370 -1.7435
 7090SOL    HW224163   5.310   8.727   6.282 -0.4980  0.9571  0.4516
 7091SOL     OW24164   3.833   6.850   2.596 -0.2658 -0.1854 -0.9179
 7091SOL    HW124165   3.841   6.798   2.676  0.3767  0.8794 -0.2810
 7091SOL    HW224166   3.750   6.820   2.557 -1.2653  0.2097  0.8216
 7092SOL     OW24167   6.502   4.455   0.248  1.4426  0.1150  0.4937
 7092SOL    HW124168   6.461   4.499   0.322  0.8394  0.3196  0.0441
 7092SOL    HW224169   6.499   4.519   0.177 -1.8181 -1.4432 -0.9572
 7093SOL     OW24170   4.956   2.946   4.469 -0.2282  0.0657 -0.8026
 7093SOL    HW124171   4.931   2.867   4.421  1.5893 -0.5928 -0.7513
 7093SOL    HW224172   5.050   2.934   4.488  0.3524  2.6678 -1.6249
 7094SOL     OW24173   8.879   8.144   1.722  0.3048  0.8644  0.0456
 7094SOL    HW124174   8.900   8.051   1.712  1.8123  1.0527  1.1658
 7094SOL    HW224175   8.903   8.184   1.638  0.1687  0.3494 -0.2419
 7095SOL     OW24176   3.271   0.365   3.960  0.2208  0.3903  0.6440
 7095SOL    HW124177   3.307   0.437   3.908  0.3080  0.8588  1.3399
 7095SOL    HW224178   3.296   0.386   4.050 -0.1166 -0.2966  0.9038
 7096SOL     OW24179   4.678   0.335   2.589 -0.7293  0.4410  0.3868
 7096SOL    HW124180   4.619   0.410   2.591  0.4825  1.4879 -1.1714
 7096SOL    HW224181   4.698   0.322   2.496 -3.0250 -3.5763  0.1955
 7097SOL     OW24182   5.720   6.672   8.068  0.0143  0.1199  0.4888
 7097SOL    HW124183   5.637   6.689   8.022 -0.2477  0.9448  1.2372
 7097SOL    HW224184   5.785   6.719   8.017 -0.0083 -0.3605  0.0131
 7098SOL     OW24185   0.307   4.143   5.766  0.2759  0.4954  0.2421
 7098SOL    HW124186   0.227   4.102   5.798  0.3362  0.5235  0.4259
 7098SOL    HW224187   0.294   4.236   5.780  0.3791  0.4927  0.3548
 7099SOL     OW24188   5.602   3.198   7.820  0.0808 -0.1701 -0.6180
 7099SOL    HW124189   5.562   3.278   7.785  0.0477  0.7984  1.4827
 7099SOL    HW224190   5.530   3.155   7.866  0.3685 -0.8647 -0.8205
 7100SOL     OW24191   3.646   8.800   1.894 -0.3205 -0.3470 -0.3838
 7100SOL    HW124192   3.579   8.869   1.896 -1.6673 -1.6268 -0.0653
 7100SOL    HW224193   3.696   8.812   1.975 -0.3466  0.4136 -0.4685
 7101SOL     OW24194   6.427   3.686   5.298  0.1158  0.4927 -0.0037
 7101SOL    HW124195   6.370   3.683   5.221  1.5509 -0.8979 -1.0922
 7101SOL    HW224196   6.459   3.596   5.308 -1.2987  0.1987  3.2867
 7102SOL     OW24197   7.343   1.102   8.692 -0.0127 -0.1660 -0.8093
 7102SOL    HW124198   7.355   1.194   8.715 -0.3887 -0.5260  0.9745
 7102SOL    HW224199   7.387   1.093   8.608  2.6537  0.9977  0.3290
 7103SOL     OW24200   7.296   0.459   5.788  0.1857  0.0876  0.6340
 7103SOL    HW124201   7.356   0.495   5.854  0.4393 -0.9251  0.9701
 7103SOL    HW224202   7.282   0.368   5.815  0.9589 -0.6099 -1.1977
 7104SOL     OW24203   5.990   8.757   8.318  0.2870 -0.6107  0.2350
 7104SOL    HW124204   6.046   8.704   8.375 -1.3473 -0.8086  1.7339
 7104SOL    HW224205   5.903   8.749   8.355 -0.4966  0.9306 -1.1290
 7105SOL     OW24206   5.999   6.887   2.047 -0.0312  0.8108 -0.1694
 7105SOL    HW124207   5.922   6.842   2.080 -0.2101  0.0620 -1.5071
 7105SOL    HW224208   6.046   6.821   1.996  1.1043  1.4535 -0.0182
 7106SOL     OW24209   1.175   1.361   1.871 -0.0596  0.1192  0.1660
 7106SOL    HW124210   1.239   1.317   1.927  1.8674  2.4330 -0.0873
 7106SOL    HW224211   1.210   1.351   1.782  0.5945  2.2996  0.1306
 7107SOL     OW24212   8.595   2.939   8.257  0.3894 -0.0601  0.0082
 7107SOL    HW124213   8.621   2.874   8.323 -0.0557 -0.6778 -0.4060
 7107SOL    HW224214   8.601   2.891   8.174 -2.7687 -0.4965 -0.0614
 7108SOL     OW24215   1.668   0.220   5.691  0.1144 -0.3611 -0.5619
 7108SOL    HW124216   1.663   0.282   5.763 -0.0265  1.3224 -1.9517
 7108SOL    HW224217   1.752   0.176   5.702  0.4567  0.4606  0.1737
 7109SOL     OW24218   6.192   0.165   7.842  1.0876  0.2189 -0.1198
 7109SOL    HW124219   6.153   0.252   7.835 -0.2624 -0.3184  0.4630
 7109SOL    HW224220   6.234   0.151   7.757 -0.4356  0.6181 -0.9628
 7110SOL     OW24221   4.147   8.065   3.653  0.2806  0.0005 -0.0089
 7110SOL    HW124222   4.127   8.047   3.745 -1.8217  0.7605 -0.2473
 7110SOL    HW224223   4.065   8.046   3.607  0.4058  2.2487 -1.3290
 7111SOL     OW24224   3.177   1.319   4.384 -0.0143  0.7109 -0.3820
 7111SOL    HW124225   3.267   1.350   4.390  1.2231 -2.4300 -0.6648
 7111SOL    HW224226   3.144   1.359   4.304  1.1945  1.7247 -0.4168
 7112SOL     OW24227   8.189   1.164   7.341  0.4295 -0.3638  0.3018
 7112SOL    HW124228   8.125   1.109   7.385  0.3490  1.5720  2.8778
 7112SOL    HW224229   8.178   1.250   7.381  3.3821  0.4944 -0.4472
 7113SOL     OW24230   7.140   5.302   8.062  0.1329 -0.1328 -0.1560
 7113SOL    HW124231   7.195   5.233   8.025 -0.0446 -0.7127  0.6162
 7113SOL    HW224232   7.166   5.306   8.154 -0.0512  0.6486 -0.1332
 7114SOL     OW24233   8.212   7.142   3.893 -0.2107 -0.1160  0.3315
 7114SOL    HW124234   8.207   7.151   3.798 -1.7171 -0.4153  0.3729
 7114SOL    HW224235   8.181   7.054   3.912  0.8441 -0.3600  1.0648
 7115SOL     OW24236   3.105   0.441   4.944  0.3352  0.2358 -0.3080
 7115SOL    HW124237   3.071   0.477   4.862 -0.4772  0.6230  0.1833
 7115SOL    HW224238   3.144   0.515   4.989 -0.1564  0.2450  0.1160
 7116SOL     OW24239   3.984   0.148   5.555 -0.2774 -0.1060  0.0198
 7116SOL    HW124240   4.013   0.069   5.602  1.8885  0.4088 -0.3214
 7116SOL    HW224241   4.065   0.196   5.538 -1.3312  1.2165 -1.5526
 7117SOL     OW24242   1.363   3.726   9.015  0.1706  0.6315 -0.2200
 7117SOL    HW124243   1.297   3.686   8.959  0.2085  2.4840 -1.6841
 7117SOL    HW224244   1.319   3.738   9.099 -0.8972  0.5889 -0.7633
 7118SOL     OW24245   4.380   9.073   7.768  0.3789 -0.2231 -1.0201
 7118SOL    HW124246   4.307   9.049   7.710 -0.7837  1.8706 -0.5293
 7118SOL    HW224247   4.359   9.162   7.797  0.9999 -1.0414  2.4498
 7119SOL     OW24248   5.665   4.653   3.493  0.9561  0.1302  0.0942
 7119SOL    HW124249   5.609   4.730   3.477  2.4126  1.8421  2.5201
 7119SOL    HW224250   5.651   4.632   3.585  1.2721 -2.0233 -0.3021
 7120SOL     OW24251   5.174   8.366   2.082 -0.1435  0.5976 -0.0697
 7120SOL    HW124252   5.261   8.352   2.119 -0.1551  0.9671  0.1057
 7120SOL    HW224253   5.184   8.351   1.988 -0.2203 -0.8614  0.1295
 7121SOL     OW24254   6.569   6.491   1.185  0.7079 -0.1680 -0.3182
 7121SOL    HW124255   6.648   6.539   1.160  0.7761  0.2721  0.6636
 7121SOL    HW224256   6.526   6.549   1.248  1.0714 -1.6135  1.3292
 7122SOL     OW24257   1.752   2.697   1.941  1.0897  0.4076 -0.4672
 7122SOL    HW124258   1.831   2.671   1.987 -0.0378 -2.7908 -0.0953
 7122SOL    HW224259   1.710   2.760   2.000  1.0984 -1.4054  1.6185
 7123SOL     OW24260   7.010   8.270   7.853  0.0804  0.7028 -0.0732
 7123SOL    HW124261   6.939   8.302   7.798  1.6363 -0.0108 -2.6540
 7123SOL    HW224262   7.076   8.340   7.851  0.4304  0.3979  0.3845
 7124SOL     OW24263   7.492   1.073   8.948  0.0440  0.0359  0.2036
 7124SOL    HW124264   7.557   1.141   8.928  0.3933  0.0377  1.2786
 7124SOL    HW224265   7.458   1.047   8.863  3.2051 -1.6888 -0.7078
 7125SOL     OW24266   2.176   3.853   2.638  0.3654  0.3825  0.2078
 7125SOL    HW124267   2.258   3.879   2.681  0.4806 -0.2207  0.3641
 7125SOL    HW224268   2.184   3.759   2.627 -0.1044  0.3908 -0.2216
 7126SOL     OW24269   3.704   3.708   5.662 -0.0562  0.0792 -0.0192
 7126SOL    HW124270   3.790   3.749   5.657 -0.3511  0.6358 -3.1709
 7126SOL    HW224271   3.718   3.620   5.626 -0.5724 -0.3239  0.7464
 7127SOL     OW24272   4.880   3.318   6.723 -0.5091 -0.2385 -0.6485
 7127SOL    HW124273   4.929   3.300   6.643  1.1230  0.3168  0.1927
 7127SOL    HW224274   4.934   3.281   6.793 -0.7264  1.3813  0.4078
 7128SOL     OW24275   2.263   7.754   6.805  0.6397  0.4085 -0.0013
 7128SOL    HW124276   2.221   7.733   6.722 -1.3379 -1.2923  1.3232
 7128SOL    HW224277   2.248   7.849   6.815  1.9954  0.9014 -2.0724
 7129SOL     OW24278   7.452   3.116   4.514 -0.6620  0.2986 -0.2373
 7129SOL    HW124279   7.434   3.207   4.487  1.6237  0.7303 -0.4968
 7129SOL    HW224280   7.383   3.096   4.577 -1.3808  2.1248 -0.3691
 7130SOL     OW24281   1.067   4.367   4.679  0.1702  0.2335  0.1292
 7130SOL    HW124282   1.022   4.437   4.725 -0.2893  1.7380 -2.4299
 7130SOL    HW224283   1.157   4.370   4.712 -0.2223  0.9659  1.1830
 7131SOL     OW24284   2.839   2.052   6.880 -0.1603  0.2120  0.6349
 7131SOL    HW124285   2.859   2.145   6.888 -1.6471  0.8403 -1.7556
 7131SOL    HW224286   2.882   2.025   6.799  0.4757 -1.2856  1.4325
 7132SOL     OW24287   1.286   7.770   3.383 -0.0342  0.3128 -0.4306
 7132SOL    HW124288   1.237   7.715   3.444  0.8752 -0.2259 -0.1774
 7132SOL    HW224289   1.255   7.859   3.401  0.0696  0.1341  0.6659
 7133SOL     OW24290   8.472   7.209   1.825  0.4676 -0.7251  0.3638
 7133SOL    HW124291   8.489   7.252   1.908  0.1037 -0.5629  0.3565
 7133SOL    HW224292   8.437   7.278   1.768  2.0120 -0.5041 -0.3786
 7134SOL     OW24293   2.184   2.792   2.979  0.1236  0.0434  0.2519
 7134SOL    HW124294   2.090   2.775   2.977 -0.3326  2.1829  0.3005
 7134SOL    HW224295   2.223   2.724   2.924 -1.3466 -1.3339  0.8413
 7135SOL     OW24296   1.928   0.007   7.291 -0.1345 -0.7641  0.4063
 7135SOL    HW124297   1.852   0.045   7.245  0.8260  0.3328 -0.3357
 7135SOL    HW224298   1.951  -0.070   7.239  1.0911  0.6028 -1.1912
 7136SOL     OW24299   0.732   7.954   7.551 -0.0928  0.5384 -0.2593
 7136SOL    HW124300   0.695   8.034   7.589 -1.2861 -0.2922  0.3960
 7136SOL    HW224301   0.795   7.924   7.617 -0.5195  0.3103  0.0526
 7137SOL     OW24302   0.135   3.226   5.813 -0.2411  0.1385 -0.6369
 7137SOL    HW124303   0.131   3.256   5.722 -0.6293  0.9781 -0.3556
 7137SOL    HW224304   0.177   3.140   5.809  0.9792  0.7565 -1.4798
 7138SOL     OW24305   4.805   1.086   0.631 -0.2965 -0.2732 -0.1021
 7138SOL    HW124306   4.871   1.071   0.698 -0.1295 -0.9602 -0.4029
 7138SOL    HW224307   4.843   1.154   0.575 -0.3706  0.1896  0.4086
 7139SOL     OW24308   5.401   1.502   4.021  0.3128  0.1683 -0.0882
 7139SOL    HW124309   5.494   1.521   4.008  0.2751 -0.1571 -0.8776
 7139SOL    HW224310   5.380   1.437   3.954 -0.5110  0.3102  0.0191
 7140SOL     OW24311   0.875   1.285   0.677  0.0547  0.2171 -0.0594
 7140SOL    HW124312   0.966   1.304   0.652  0.6403 -0.9021  1.1364
 7140SOL    HW224313   0.831   1.370   0.673  1.5660  1.0896  0.9877
 7141SOL     OW24314   6.754   5.776   8.406  0.0880  0.2578  0.0771
 7141SOL    HW124315   6.732   5.706   8.344  2.2256  0.2486 -0.7559
 7141SOL    HW224316   6.721   5.744   8.490  1.4346 -2.0526 -0.1750
 7142SOL     OW24317   2.504   7.069   7.320  0.6489  0.6326  0.9320
 7142SOL    HW124318   2.431   7.069   7.258  0.4956 -0.7685  1.0878
 7142SOL    HW224319   2.569   7.011   7.280  1.2640  1.0772  1.2721
 7143SOL     OW24320   1.418   2.248   5.261  0.4597 -0.4742  1.0888
 7143SOL    HW124321   1.500   2.218   5.302  1.6312  1.1951  0.1096
 7143SOL    HW224322   1.436   2.339   5.237 -1.2389 -0.4751 -0.3428
 7144SOL     OW24323   2.573   3.733   1.042  0.2236 -0.0391 -0.2879
 7144SOL    HW124324   2.613   3.710   0.958 -0.4683  1.0037 -0.9230
 7144SOL    HW224325   2.495   3.783   1.018 -0.1721 -0.0330  0.9767
 7145SOL     OW24326   8.055   2.009   1.334  0.6246 -0.4316 -0.1471
 7145SOL    HW124327   8.014   2.088   1.370 -1.4997 -0.5583 -1.9862
 7145SOL    HW224328   8.037   1.941   1.398 -0.0481  0.0282  0.1665
 7146SOL     OW24329   3.640   3.766   1.225  0.1512  0.1001  0.0225
 7146SOL    HW124330   3.567   3.791   1.280 -0.8273 -0.4117 -1.0023
 7146SOL    HW224331   3.625   3.673   1.206  1.5030 -0.2282  0.4437
 7147SOL     OW24332   6.025   4.709   0.388 -0.2962  0.1582  0.0434
 7147SOL    HW124333   5.963   4.669   0.450  0.9495 -2.2496 -0.1119
 7147SOL    HW224334   6.108   4.665   0.408  1.1514  2.5175 -0.4518
 7148SOL     OW24335   2.227   5.856   4.456 -0.2418 -0.0348  0.0012
 7148SOL    HW124336   2.178   5.843   4.374  0.1821 -0.6900 -0.1600
 7148SOL    HW224337   2.160   5.862   4.523 -0.5930  0.4296 -0.3814
 7149SOL     OW24338   7.598   8.650   4.149 -0.0113 -0.4976 -0.0365
 7149SOL    HW124339   7.529   8.690   4.202 -0.1283 -1.0841  0.2624
 7149SOL    HW224340   7.645   8.592   4.209 -1.1065 -2.3732 -0.8804
 7150SOL     OW24341   1.252   4.369   8.280 -0.5488  0.3310  0.1843
 7150SOL    HW124342   1.191   4.317   8.228 -0.7953  0.4238  0.3796
 7150SOL    HW224343   1.307   4.304   8.324 -1.7146  0.1804  1.4758
 7151SOL     OW24344   2.835   1.576   8.219 -0.0970  0.1665  0.0930
 7151SOL    HW124345   2.823   1.493   8.172  0.4865  1.4802 -2.5381
 7151SOL    HW224346   2.755   1.625   8.201  0.4990  1.0228 -0.2604
 7152SOL     OW24347   8.224   2.461   6.092  0.4730  0.1318 -0.2708
 7152SOL    HW124348   8.215   2.466   5.997 -0.2087 -0.1094 -0.2244
 7152SOL    HW224349   8.304   2.411   6.106  0.4846  0.0205 -0.7169
 7153SOL     OW24350   5.966   9.067   8.383  0.1183 -0.3368 -0.0365
 7153SOL    HW124351   5.997   8.977   8.395  1.8925 -0.1209 -2.3631
 7153SOL    HW224352   6.046   9.120   8.382 -0.7927  1.0812 -0.1617
 7154SOL     OW24353   3.201   6.864   7.328 -0.2249  0.2549  0.0470
 7154SOL    HW124354   3.247   6.906   7.401 -1.7471 -0.4094  1.4563
 7154SOL    HW224355   3.225   6.772   7.334  0.4533  0.3437 -0.9674
 7155SOL     OW24356   5.867   7.870   6.022 -0.5430 -0.0009 -0.3640
 7155SOL    HW124357   5.853   7.778   5.997  0.5425 -0.1500 -0.4861
 7155SOL    HW224358   5.847   7.920   5.943  0.9176 -0.3146 -0.9654
 7156SOL     OW24359   6.870   5.425   2.125 -0.1822 -0.0861 -0.1270
 7156SOL    HW124360   6.919   5.427   2.208  0.0985  1.7756 -0.2784
 7156SOL    HW224361   6.830   5.512   2.120 -0.6638 -0.3787 -1.6807
 7157SOL     OW24362   4.899   2.282   1.156  0.0478  0.2970  0.4415
 7157SOL    HW124363   4.939   2.226   1.222  0.0004  0.8464  0.9358
 7157SOL    HW224364   4.974   2.318   1.107  0.1024  0.2868  0.5170
 7158SOL     OW24365   3.616   2.283   7.654  0.1160 -0.1082  0.2829
 7158SOL    HW124366   3.709   2.285   7.630  0.3901  1.4111  1.2974
 7158SOL    HW224367   3.582   2.368   7.624 -0.4618  0.1768  1.6638
 7159SOL     OW24368   7.046   4.341   2.773  0.2712  0.0880 -0.2614
 7159SOL    HW124369   7.035   4.344   2.868 -1.8860 -0.9087 -0.4398
 7159SOL    HW224370   7.019   4.428   2.743  1.9478  0.7697  0.0676
 7160SOL     OW24371   8.139   7.362   6.738  0.6694  0.8193 -0.4729
 7160SOL    HW124372   8.182   7.350   6.653  0.1305 -0.4537 -0.5817
 7160SOL    HW224373   8.063   7.417   6.719  1.6850  2.2914 -0.4379
 7161SOL     OW24374   0.819   1.798   8.307 -0.4998 -0.3761 -0.1345
 7161SOL    HW124375   0.890   1.738   8.283  0.0866  0.8175 -1.5360
 7161SOL    HW224376   0.829   1.872   8.247 -2.5029  0.1520  0.1152
 7162SOL     OW24377   9.230   8.452   1.121 -0.4175 -0.2688  0.4432
 7162SOL    HW124378   9.178   8.526   1.090 -1.2741 -0.4541  1.4207
 7162SOL    HW224379   9.207   8.441   1.213  0.1998 -1.3303  0.5016
 7163SOL     OW24380   1.284   0.136   7.772  0.1333 -0.1651 -0.5297
 7163SOL    HW124381   1.314   0.051   7.805  1.2610  0.2158 -0.5633
 7163SOL    HW224382   1.346   0.159   7.703  0.3996  1.1269  0.1061
 7164SOL     OW24383   1.364   0.635   7.317 -0.1839  0.2781  0.2664
 7164SOL    HW124384   1.372   0.554   7.266  0.7392 -0.4711  1.5541
 7164SOL    HW224385   1.304   0.613   7.388  0.6215  0.4877  1.0283
 7165SOL     OW24386   6.609   4.952   1.911 -0.6216  0.1680 -0.7740
 7165SOL    HW124387   6.540   4.946   1.846 -0.8053  1.0555 -0.6839
 7165SOL    HW224388   6.664   5.025   1.881  1.4413 -1.7506 -1.9098
 7166SOL     OW24389   5.875   4.567   6.339 -0.2324 -0.4818  0.4337
 7166SOL    HW124390   5.839   4.482   6.366 -0.4045 -0.5967 -0.1510
 7166SOL    HW224391   5.807   4.630   6.359 -0.7172 -0.6795 -0.5307
 7167SOL     OW24392   4.029   2.937   5.305  0.1188 -0.1056 -0.3581
 7167SOL    HW124393   3.978   2.871   5.352  2.1053 -0.8137  0.9313
 7167SOL    HW224394   3.974   3.015   5.306 -1.6946 -1.3293 -0.6884
 7168SOL     OW24395   1.360   8.340   8.458  0.4344 -0.3277  0.3649
 7168SOL    HW124396   1.454   8.346   8.443  0.2370  0.8997 -0.5325
 7168SOL    HW224397   1.337   8.250   8.436  1.4976 -0.8276  1.2549
 7169SOL     OW24398   3.250   0.627   0.262 -0.5565 -0.3951 -0.2737
 7169SOL    HW124399   3.222   0.713   0.292 -1.7424 -0.2543 -1.6952
 7169SOL    HW224400   3.280   0.641   0.172  1.4568 -1.0809  0.2246
 7170SOL     OW24401   1.872   7.697   6.693  0.2811 -0.0986  0.2051
 7170SOL    HW124402   1.824   7.664   6.769  1.0556 -0.0436  0.7422
 7170SOL    HW224403   1.862   7.792   6.698  0.5530 -0.0774  0.4035
 7171SOL     OW24404   7.375   8.249   1.021  0.3912  0.3515  0.2568
 7171SOL    HW124405   7.432   8.323   1.001 -0.3964  0.6126 -1.1271
 7171SOL    HW224406   7.380   8.193   0.944 -0.3136 -0.2039  0.6021
 7172SOL     OW24407   1.976   7.471   1.766 -0.0857  0.0107  0.6704
 7172SOL    HW124408   1.993   7.529   1.692  1.5887 -1.1298  0.0905
 7172SOL    HW224409   1.906   7.413   1.736 -1.4491  1.3743  1.0913
 7173SOL     OW24410   5.090   7.226   8.467  0.1125  0.3491 -0.0418
 7173SOL    HW124411   5.105   7.304   8.415 -0.6996  1.1661  0.9141
 7173SOL    HW224412   5.049   7.258   8.548 -1.8831 -1.2118 -0.3537
 7174SOL     OW24413   3.670   4.576   9.203  0.1704  0.1893 -0.8750
 7174SOL    HW124414   3.682   4.653   9.259  0.4969 -2.5449  3.2491
 7174SOL    HW224415   3.759   4.548   9.180  0.0871  0.4619 -1.5598
 7175SOL     OW24416   2.879   5.879   2.704 -0.0827  0.0845  0.1437
 7175SOL    HW124417   2.875   5.787   2.731 -0.1812  0.2670  0.7629
 7175SOL    HW224418   2.951   5.916   2.756  0.0834  0.3129 -0.2444
 7176SOL     OW24419   6.537   5.381   0.202  0.2814  0.2321  0.1052
 7176SOL    HW124420   6.522   5.311   0.265  0.0806 -0.7289 -0.9623
 7176SOL    HW224421   6.626   5.410   0.218  0.0386  0.3967  1.1975
 7177SOL     OW24422   0.190   9.041   8.207 -0.3501 -0.2244 -0.2672
 7177SOL    HW124423   0.250   9.108   8.237 -1.7661  0.6557  0.7201
 7177SOL    HW224424   0.246   8.967   8.183  1.0515  0.0299  1.9495
 7178SOL     OW24425   7.155   4.908   8.790 -0.3252  0.2255 -0.4421
 7178SOL    HW124426   7.068   4.934   8.819  0.0468  1.5365 -0.4055
 7178SOL    HW224427   7.153   4.917   8.695 -0.4812 -0.5890 -0.5205
 7179SOL     OW24428   3.516   3.774   5.418  0.6104  0.0062 -0.2930
 7179SOL    HW124429   3.549   3.781   5.507  0.5442 -2.1197 -0.0400
 7179SOL    HW224430   3.460   3.850   5.407  2.3002  1.4819  0.6976
 7180SOL     OW24431   5.699   6.232   7.592  0.3680 -0.0373  0.1008
 7180SOL    HW124432   5.611   6.239   7.630 -1.1469 -0.8349 -2.8969
 7180SOL    HW224433   5.722   6.139   7.603 -0.1034 -0.2851 -0.8731
 7181SOL     OW24434   5.947   1.427   0.572  0.6868 -0.3367  0.3205
 7181SOL    HW124435   5.871   1.378   0.542  0.0339  0.4871  0.5783
 7181SOL    HW224436   5.984   1.465   0.492 -0.9029  1.6490  0.4421
 7182SOL     OW24437   0.691   8.629   5.871  0.0986 -0.3075 -0.0139
 7182SOL    HW124438   0.739   8.667   5.945  0.3514  1.7132 -1.1414
 7182SOL    HW224439   0.698   8.695   5.802  0.6431 -2.4981 -2.1678
 7183SOL     OW24440   3.101   0.530   9.246  0.6772  0.0938 -0.0862
 7183SOL    HW124441   3.181   0.583   9.250  0.6304  0.2439 -0.9673
 7183SOL    HW224442   3.110   0.478   9.166 -0.2102  0.2893 -0.3243
 7184SOL     OW24443   0.067   7.729   5.885  0.0437  0.0104 -0.5173
 7184SOL    HW124444   0.125   7.769   5.819  0.4990 -0.0574 -0.1629
 7184SOL    HW224445  -0.021   7.750   5.855  0.2711  1.7866 -0.0464
 7185SOL     OW24446   7.704   7.171   3.545  0.5189 -0.2768  0.7160
 7185SOL    HW124447   7.723   7.255   3.587  0.1916 -0.3332  0.9789
 7185SOL    HW224448   7.781   7.117   3.565  0.7821 -0.0049  0.4482
 7186SOL     OW24449   8.007   4.476   2.096 -0.1911  0.0712  0.3270
 7186SOL    HW124450   8.090   4.490   2.050 -1.0089  2.1759 -0.6458
 7186SOL    HW224451   8.031   4.434   2.178  1.7776  0.1846 -0.1591
 7187SOL     OW24452   8.642   7.580   8.561  0.0119 -0.3971 -0.4819
 7187SOL    HW124453   8.549   7.558   8.567  0.1340 -1.4971 -2.0304
 7187SOL    HW224454   8.687   7.496   8.570  0.6402 -0.5012 -3.5254
 7188SOL     OW24455   1.453   5.651   5.099  0.4655 -0.1090 -0.0685
 7188SOL    HW124456   1.381   5.624   5.043  0.2615  1.2873 -0.5184
 7188SOL    HW224457   1.417   5.650   5.188 -0.0010  0.1851 -0.2501
 7189SOL     OW24458   4.135   4.047   7.243  0.6449 -0.0522  0.3089
 7189SOL    HW124459   4.169   3.974   7.295  1.9616  0.6873  0.5315
 7189SOL    HW224460   4.133   4.121   7.305  1.1273  0.5559 -0.3926
 7190SOL     OW24461   6.973   2.647   6.817 -0.1017  0.3092  0.1965
 7190SOL    HW124462   7.007   2.567   6.778 -1.6876 -0.7957  0.9588
 7190SOL    HW224463   6.994   2.639   6.910 -3.1042 -0.9224  0.9119
 7191SOL     OW24464   8.333   4.907   5.271 -0.1523 -0.4441 -0.1975
 7191SOL    HW124465   8.367   4.856   5.198  2.1781 -0.6464  0.9378
 7191SOL    HW224466   8.312   4.841   5.338  0.8169 -0.0976  0.4728
 7192SOL     OW24467   1.139   3.206   4.472  0.0200  0.5817 -0.1115
 7192SOL    HW124468   1.210   3.262   4.504  0.1415  0.5843 -0.3842
 7192SOL    HW224469   1.094   3.178   4.551  0.6988  0.0749  0.1064
 7193SOL     OW24470   8.677   8.466   4.554  0.8095  0.0866 -0.3436
 7193SOL    HW124471   8.678   8.372   4.573 -1.0180  0.1598  0.3319
 7193SOL    HW224472   8.684   8.471   4.459 -0.5385 -0.8283 -0.5174
 7194SOL     OW24473   3.105   4.546   4.607 -0.1268 -0.0803  0.8771
 7194SOL    HW124474   3.045   4.620   4.600  0.2627  0.1289 -0.9767
 7194SOL    HW224475   3.050   4.469   4.592 -0.4665 -0.1686  2.4350
 7195SOL     OW24476   6.666   0.043   7.770  0.0078  0.2607  0.5143
 7195SOL    HW124477   6.735   0.066   7.708  0.0306  0.9500  0.7799
 7195SOL    HW224478   6.603   0.115   7.763 -0.7000 -0.3668  0.2605
 7196SOL     OW24479   5.888   8.984   0.654 -0.3108  0.2191 -0.3815
 7196SOL    HW124480   5.931   8.960   0.572  1.6604  1.0687  0.3320
 7196SOL    HW224481   5.885   8.902   0.704  1.5731  0.3425 -0.0073
 7197SOL     OW24482   5.572   0.810   3.204 -0.8570 -0.3515  0.1422
 7197SOL    HW124483   5.517   0.775   3.134 -0.2944 -0.1872 -0.3838
 7197SOL    HW224484   5.660   0.783   3.181 -0.5731  0.3455  0.3972
 7198SOL     OW24485   5.609   2.523   5.060  0.1008 -0.3507  0.2779
 7198SOL    HW124486   5.558   2.520   4.978  0.7519  0.7504 -0.1976
 7198SOL    HW224487   5.669   2.450   5.053  2.2253  1.4097 -1.7072
 7199SOL     OW24488   1.448   7.367   3.212  0.0178 -0.4081  0.0083
 7199SOL    HW124489   1.467   7.373   3.119 -1.8474  1.0159 -0.3362
 7199SOL    HW224490   1.535   7.363   3.254  0.9348  0.5395 -1.6970
 7200SOL     OW24491   2.548   9.201   7.250  0.4669 -0.3260 -0.6774
 7200SOL    HW124492   2.577   9.251   7.175 -0.1771 -1.0447 -1.4261
 7200SOL    HW224493   2.628   9.162   7.285  0.7858  0.1137 -0.9061
 7201SOL     OW24494   5.918   4.664   3.398 -0.2672 -0.1899  0.7310
 7201SOL    HW124495   5.943   4.613   3.321 -0.3581  0.1577  0.4675
 7201SOL    HW224496   5.829   4.635   3.418 -0.3516 -0.0723  0.5279
 7202SOL     OW24497   6.562   5.233   7.236  0.0824  0.0666 -0.6630
 7202SOL    HW124498   6.626   5.299   7.262 -0.7274  0.0732  1.4799
 7202SOL    HW224499   6.555   5.242   7.141  1.5319  1.6220 -0.6614
 7203SOL     OW24500   5.390   6.818   5.498 -0.2477  0.4630  0.1294
 7203SOL    HW124501   5.359   6.851   5.583 -1.5545 -0.8475  0.2069
 7203SOL    HW224502   5.313   6.823   5.441  0.4490  0.7105 -0.8101
 7204SOL     OW24503   2.030   2.215   4.076  0.0392  0.5678 -0.1579
 7204SOL    HW124504   1.993   2.300   4.052  1.5619  1.7379  1.4400
 7204SOL    HW224505   2.073   2.230   4.160  0.4400 -1.7761  0.1267
 7205SOL     OW24506   2.319   1.417   7.424 -0.6511  0.0788  0.7496
 7205SOL    HW124507   2.283   1.483   7.363  0.0652 -0.7231 -0.5835
 7205SOL    HW224508   2.308   1.334   7.378  0.0233 -0.5371  1.6762
 7206SOL     OW24509   5.904   7.913   5.747  0.5686  0.0638 -0.0053
 7206SOL    HW124510   5.956   7.900   5.667 -0.1648 -1.2247 -0.3061
 7206SOL    HW224511   5.814   7.920   5.715  0.3597  0.3916  0.6524
 7207SOL     OW24512   0.421   6.672   6.070 -0.2807 -0.2592  0.2532
 7207SOL    HW124513   0.341   6.718   6.095  0.5709  1.6308 -0.3691
 7207SOL    HW224514   0.406   6.645   5.979  0.2634  1.2332 -0.2953
 7208SOL     OW24515   7.644   0.107   3.411  0.0606 -0.4624 -0.1693
 7208SOL    HW124516   7.592   0.056   3.473 -0.6494 -0.9779 -1.1644
 7208SOL    HW224517   7.621   0.198   3.431 -0.9574 -0.6651 -0.3372
 7209SOL     OW24518   8.339   8.118   5.709  0.1674 -0.3894 -0.0111
 7209SOL    HW124519   8.247   8.090   5.710  0.2710 -0.7256  0.1815
 7209SOL    HW224520   8.374   8.088   5.793  0.5920 -0.7287 -0.3010
 7210SOL     OW24521   8.660   8.908   3.658 -0.3218  0.4000 -0.0454
 7210SOL    HW124522   8.725   8.847   3.693 -0.1537  0.5250 -0.1394
 7210SOL    HW224523   8.603   8.854   3.602 -0.9811  0.0768  0.9164
 7211SOL     OW24524   0.051   1.764   7.245  0.2109  1.0672  0.6144
 7211SOL    HW124525   0.007   1.681   7.225 -0.2137  1.9780 -3.1076
 7211SOL    HW224526  -0.019   1.829   7.244  0.7787  1.7299  1.7009
 7212SOL     OW24527   7.981   4.272   8.653  0.4457 -0.0618 -0.1142
 7212SOL    HW124528   7.988   4.261   8.748 -0.2140  1.4332  0.1397
 7212SOL    HW224529   8.038   4.204   8.617 -0.7397 -1.9256  1.2809
 7213SOL     OW24530   0.368   6.568   2.885  0.4144  0.3621 -0.5167
 7213SOL    HW124531   0.327   6.648   2.851 -0.3356  0.5304  0.7357
 7213SOL    HW224532   0.460   6.576   2.860  0.3137  1.5422 -0.5653
 7214SOL     OW24533   5.012   7.569   4.860 -0.0442 -0.5480 -0.4450
 7214SOL    HW124534   4.925   7.608   4.856  0.5573  1.0740  1.0552
 7214SOL    HW224535   4.996   7.479   4.891 -1.0831  0.4006  2.0132
 7215SOL     OW24536   8.129   0.099   8.142  0.1601 -0.0849 -0.1430
 7215SOL    HW124537   8.071   0.099   8.218 -0.8295  0.5336 -0.8900
 7215SOL    HW224538   8.118   0.013   8.103  1.4011 -0.7777  0.9240
 7216SOL     OW24539   1.878   7.598   7.706  0.7820  0.1887  0.1338
 7216SOL    HW124540   1.851   7.575   7.794  0.4925  2.9014  0.8505
 7216SOL    HW224541   1.960   7.550   7.692  1.3441  0.4432  2.2656
 7217SOL     OW24542   6.114   2.340   2.367  0.3687 -0.3699  0.2728
 7217SOL    HW124543   6.138   2.294   2.447  1.0096  0.8634  0.8112
 7217SOL    HW224544   6.182   2.315   2.304  1.4136  0.7471  0.9174
 7218SOL     OW24545   6.771   4.000   7.200  0.0331  0.0352 -0.7100
 7218SOL    HW124546   6.832   3.936   7.236  0.6326 -0.1124 -1.9063
 7218SOL    HW224547   6.808   4.085   7.223 -0.3120 -0.0463  0.1578
 7219SOL     OW24548   1.203   1.298   4.503  0.1990 -0.2590  0.4611
 7219SOL    HW124549   1.165   1.343   4.578  0.6026  1.9340 -0.5663
 7219SOL    HW224550   1.149   1.220   4.492 -0.7409  0.1048  2.1551
 7220SOL     OW24551   3.309   2.411   3.868 -0.9031 -0.2577 -0.9398
 7220SOL    HW124552   3.358   2.428   3.949  0.8897 -0.1927 -1.9730
 7220SOL    HW224553   3.217   2.410   3.895 -0.3012 -1.8378  1.3667
 7221SOL     OW24554   6.670   8.964   0.991 -0.3732 -0.4208 -0.2671
 7221SOL    HW124555   6.601   8.899   0.978 -0.4391 -0.6183  0.9651
 7221SOL    HW224556   6.748   8.924   0.955 -0.6438 -0.7108 -0.5376
 7222SOL     OW24557   8.720   5.207   9.127  0.0468  0.0741  0.2217
 7222SOL    HW124558   8.802   5.255   9.118 -0.1887  0.6216  0.8982
 7222SOL    HW224559   8.743   5.131   9.181  0.6528 -1.2137 -1.7016
 7223SOL     OW24560   4.199   1.834   1.373 -0.1703 -0.0102  0.3392
 7223SOL    HW124561   4.120   1.846   1.425 -0.3938  2.7076 -0.4816
 7223SOL    HW224562   4.271   1.851   1.434 -0.2603 -0.7173  0.6554
 7224SOL     OW24563   7.930   7.136   7.185  0.5942  0.2956 -0.3158
 7224SOL    HW124564   7.951   7.192   7.260 -2.3408 -0.7891  1.5307
 7224SOL    HW224565   7.892   7.196   7.121  0.7037  0.9119  0.1831
 7225SOL     OW24566   2.331   0.961   8.818  0.1779 -0.2239 -0.5694
 7225SOL    HW124567   2.257   0.906   8.844 -0.1718  0.5271  0.0669
 7225SOL    HW224568   2.406   0.902   8.820 -0.0697 -0.5475  0.7942
 7226SOL     OW24569   1.517   0.151   6.532 -0.0133  0.1017 -0.0852
 7226SOL    HW124570   1.570   0.080   6.495  0.4499  1.4114 -2.1284
 7226SOL    HW224571   1.431   0.140   6.491 -0.1639  0.2699  0.1801
 7227SOL     OW24572   5.456   8.873   8.099  0.3804  0.0606  0.4504
 7227SOL    HW124573   5.536   8.895   8.050 -0.5859  2.6471 -0.1211
 7227SOL    HW224574   5.388   8.868   8.033 -0.3138 -0.0177  1.1590
 7228SOL     OW24575   8.060   0.414   2.407  0.0347  0.2384 -0.0982
 7228SOL    HW124576   7.992   0.412   2.340  0.6082 -2.3417 -0.6906
 7228SOL    HW224577   8.047   0.334   2.458  0.1414  1.7128  2.4083
 7229SOL     OW24578   9.011   2.933   4.183  0.5057 -0.2664 -0.4498
 7229SOL    HW124579   9.051   2.877   4.116  1.5763  0.3677 -0.3718
 7229SOL    HW224580   8.970   2.872   4.243  1.6116 -0.9934 -0.3924
 7230SOL     OW24581   2.527   1.000   7.860  0.3048 -0.2545  0.1257
 7230SOL    HW124582   2.460   1.050   7.813  1.7769  0.2183 -1.6003
 7230SOL    HW224583   2.484   0.918   7.884 -1.5474  0.9555  1.1539
 7231SOL     OW24584   8.809   3.907   6.957  0.0119 -0.2930  0.9727
 7231SOL    HW124585   8.762   3.910   6.874  0.6356 -3.9057  0.3048
 7231SOL    HW224586   8.818   3.998   6.984 -0.1037  1.0606 -2.9960
 7232SOL     OW24587   8.696   2.295   1.875  0.0444  0.5781  0.7991
 7232SOL    HW124588   8.628   2.261   1.816 -0.7910  0.4716  1.7984
 7232SOL    HW224589   8.660   2.283   1.963  0.5036  2.3896  1.2717
 7233SOL     OW24590   8.700   8.928   2.680  0.3169  0.3573  0.1895
 7233SOL    HW124591   8.751   8.867   2.734 -0.4580  1.0192  1.7420
 7233SOL    HW224592   8.708   9.012   2.725 -0.8739  0.8062 -0.3913
 7234SOL     OW24593   1.771   3.190   5.740  0.2383  0.2418  0.3387
 7234SOL    HW124594   1.799   3.281   5.731  0.2523  0.1903 -0.1621
 7234SOL    HW224595   1.688   3.186   5.692  0.5912 -0.1723 -0.2476
 7235SOL     OW24596   8.618   3.128   0.672 -0.4015 -0.2157 -0.5847
 7235SOL    HW124597   8.573   3.212   0.665 -2.2423 -0.9176  1.6170
 7235SOL    HW224598   8.594   3.080   0.593  1.7259  1.7027 -2.5261
 7236SOL     OW24599   8.598   2.921   1.911 -0.0665  0.1435 -0.2614
 7236SOL    HW124600   8.528   2.982   1.935 -1.3062 -0.9109 -1.1194
 7236SOL    HW224601   8.556   2.855   1.856  1.5649 -0.6357 -0.6432
 7237SOL     OW24602   0.679   6.111   0.887  0.4189  0.1567 -0.2216
 7237SOL    HW124603   0.679   6.174   0.959 -0.2944  1.2388 -1.1320
 7237SOL    HW224604   0.764   6.125   0.844  0.4160  0.2292 -0.2040
 7238SOL     OW24605   2.031   1.502   5.258 -0.5079 -0.0652  0.6130
 7238SOL    HW124606   2.050   1.411   5.237 -1.1507 -0.2383  0.7737
 7238SOL    HW224607   1.962   1.498   5.324 -1.8980  0.5623 -0.7452
 7239SOL     OW24608   3.544   0.151   3.720  0.0864  0.0726  0.0378
 7239SOL    HW124609   3.448   0.150   3.723 -0.0037 -2.1629 -1.4393
 7239SOL    HW224610   3.565   0.222   3.659 -0.7285 -0.5192 -0.9757
 7240SOL     OW24611   5.066   8.973   4.767  0.3424 -0.0425  0.0885
 7240SOL    HW124612   5.094   9.047   4.713 -0.2096  1.0651  1.2833
 7240SOL    HW224613   5.089   8.998   4.856 -0.4744 -1.0170  0.5907
 7241SOL     OW24614   7.566   0.993   0.267  0.0206  0.1867  0.4221
 7241SOL    HW124615   7.574   1.058   0.198 -1.7257  0.3419  0.3363
 7241SOL    HW224616   7.589   1.040   0.347  2.9551 -0.2183 -0.0502
 7242SOL     OW24617   6.217   6.749   3.982  0.2108  0.4629  0.6532
 7242SOL    HW124618   6.240   6.767   4.073 -0.3212 -0.4698  0.9818
 7242SOL    HW224619   6.265   6.669   3.960  1.0971  1.1945 -0.2068
 7243SOL     OW24620   5.446   5.465   8.535 -0.1027 -0.1991 -0.1550
 7243SOL    HW124621   5.401   5.509   8.462 -1.2321 -0.8204  0.1447
 7243SOL    HW224622   5.424   5.518   8.612 -0.3537 -0.5125 -0.0056
 7244SOL     OW24623   6.881   4.579   7.903 -0.0236  0.2635  0.2662
 7244SOL    HW124624   6.879   4.666   7.944  0.6025 -0.2924  1.5329
 7244SOL    HW224625   6.825   4.525   7.958 -0.9823  0.0071 -0.9241
 7245SOL     OW24626   5.443   8.620   5.549  0.5057 -0.5682  0.0798
 7245SOL    HW124627   5.372   8.597   5.609  0.7041 -0.1408  0.4809
 7245SOL    HW224628   5.515   8.648   5.606  0.8059 -0.4660 -0.3441
 7246SOL     OW24629   1.192   0.895   0.156 -0.1178  0.5647  0.1401
 7246SOL    HW124630   1.176   0.821   0.215 -1.0851  0.7560  0.1295
 7246SOL    HW224631   1.108   0.909   0.112 -0.0159  1.8095  0.3050
 7247SOL     OW24632   8.259   3.493   5.256 -0.2590  0.3166 -0.1757
 7247SOL    HW124633   8.226   3.418   5.306  0.8992  0.9854  1.6968
 7247SOL    HW224634   8.201   3.565   5.280 -0.6935  0.2947 -1.1124
 7248SOL     OW24635   5.712   0.720   4.624  0.1701  0.0506 -0.8268
 7248SOL    HW124636   5.639   0.773   4.654 -0.5734 -0.7650 -1.1437
 7248SOL    HW224637   5.785   0.745   4.681 -0.5761  0.2604  0.0612
 7249SOL     OW24638   4.459   1.639   6.865 -0.4444  0.0204  0.3550
 7249SOL    HW124639   4.475   1.676   6.952 -1.2027  0.9651  0.1097
 7249SOL    HW224640   4.546   1.612   6.834 -0.1639 -0.2856  1.3771
 7250SOL     OW24641   1.613   4.163   8.283  0.5060 -0.0148  0.1180
 7250SOL    HW124642   1.543   4.223   8.259  1.0470  1.4984  2.0943
 7250SOL    HW224643   1.568   4.086   8.317 -0.3875  1.8068  3.5482
 7251SOL     OW24644   4.351   2.760   5.652  0.0978 -0.3754  0.4230
 7251SOL    HW124645   4.339   2.725   5.740 -0.4209 -0.0445  0.4864
 7251SOL    HW224646   4.309   2.846   5.654 -0.5401 -0.6529 -0.3397
 7252SOL     OW24647   3.503   6.233   7.937  0.2258  0.5871  0.0265
 7252SOL    HW124648   3.476   6.151   7.897 -1.3081  1.5302 -0.9946
 7252SOL    HW224649   3.591   6.248   7.903  0.5548 -0.6422  0.2847
 7253SOL     OW24650   7.606   8.578   8.240  0.0481 -0.6107 -0.3002
 7253SOL    HW124651   7.529   8.533   8.274  0.7603 -0.8832  1.0218
 7253SOL    HW224652   7.661   8.508   8.205  0.4472 -0.6069  0.3082
 7254SOL     OW24653   0.356   3.473   0.603 -0.4903  0.9123  0.1321
 7254SOL    HW124654   0.381   3.511   0.688  0.5852 -0.9150  0.6911
 7254SOL    HW224655   0.279   3.420   0.622  1.2193 -1.5875  0.6196
 7255SOL     OW24656   4.714   2.300   4.815  0.5594 -0.2902 -0.2073
 7255SOL    HW124657   4.628   2.297   4.773 -0.1346  1.8348  0.9312
 7255SOL    HW224658   4.723   2.215   4.859 -1.1334 -0.4033 -0.0322
 7256SOL     OW24659   2.273   5.236   1.976 -0.8953 -0.0955 -0.0790
 7256SOL    HW124660   2.220   5.265   1.902  0.3066  2.1643 -0.1616
 7256SOL    HW224661   2.329   5.167   1.940 -0.3311  0.9665 -1.3209
 7257SOL     OW24662   1.689   5.329   1.756 -0.4524 -0.7327 -0.4527
 7257SOL    HW124663   1.679   5.323   1.851 -0.6512 -2.1402 -0.5407
 7257SOL    HW224664   1.664   5.419   1.735  0.4768 -0.1177  0.9184
 7258SOL     OW24665   8.165   2.926   8.607 -0.2432 -0.2165  0.2141
 7258SOL    HW124666   8.215   2.858   8.652  1.3305  0.9987  0.3737
 7258SOL    HW224667   8.177   3.005   8.660  0.3267  0.8761 -1.4459
 7259SOL     OW24668   0.926   2.121   6.874  0.0535 -0.2009  0.1835
 7259SOL    HW124669   0.964   2.170   6.947 -1.5290  0.3993  0.6231
 7259SOL    HW224670   0.867   2.058   6.915  1.4291 -1.9888 -0.4230
 7260SOL     OW24671   9.160   3.654   1.905  0.2615 -0.6770  0.0390
 7260SOL    HW124672   9.189   3.668   1.995  1.1175 -0.0118 -0.3290
 7260SOL    HW224673   9.241   3.650   1.854 -0.1907 -1.6420 -0.6255
 7261SOL     OW24674   3.797   5.571   1.465 -0.0136  0.0007  0.4401
 7261SOL    HW124675   3.820   5.484   1.499 -0.4857 -0.3838 -0.2097
 7261SOL    HW224676   3.712   5.559   1.423  0.3852  0.5461 -0.5628
 7262SOL     OW24677   3.164   5.595   7.813  0.2399 -0.1979  0.0829
 7262SOL    HW124678   3.148   5.522   7.874 -1.6234 -0.0340 -0.1521
 7262SOL    HW224679   3.129   5.671   7.859  0.9824  0.3397 -0.2313
 7263SOL     OW24680   1.824   5.237   4.350 -0.1714  0.3407  0.6490
 7263SOL    HW124681   1.780   5.217   4.268 -0.2010 -0.4331  0.8493
 7263SOL    HW224682   1.864   5.155   4.377 -0.0796  0.6105  1.3582
 7264SOL     OW24683   1.086   6.606   5.696 -0.5341 -0.2310 -0.0621
 7264SOL    HW124684   1.178   6.623   5.674 -0.9045  1.8952 -0.1799
 7264SOL    HW224685   1.050   6.564   5.618  0.3000 -1.0324 -0.0400
 7265SOL     OW24686   5.793   8.431   8.831  0.1551  0.2560  0.0380
 7265SOL    HW124687   5.888   8.442   8.819  0.2945 -2.1711 -1.8547
 7265SOL    HW224688   5.783   8.404   8.922  1.4295 -0.6182 -0.0572
 7266SOL     OW24689   6.257   6.690   7.719  0.1262 -0.2179 -0.0246
 7266SOL    HW124690   6.248   6.612   7.664  0.8671  0.1556 -0.7065
 7266SOL    HW224691   6.330   6.670   7.777  0.6707  0.1588 -0.5643
 7267SOL     OW24692   6.343   6.644   0.667 -0.1185 -0.1225 -0.1280
 7267SOL    HW124693   6.382   6.581   0.606 -2.5934 -1.9147 -0.0063
 7267SOL    HW224694   6.320   6.719   0.612 -0.2457 -0.7575 -0.9649
 7268SOL     OW24695   7.912   6.328   8.209 -1.3076  0.5622  0.4045
 7268SOL    HW124696   7.985   6.389   8.204  0.5633 -1.5882 -0.1225
 7268SOL    HW224697   7.885   6.329   8.301  0.2864  0.4258  0.8953
 7269SOL     OW24698   2.717   0.228   7.919 -0.5562  0.1893  0.1061
 7269SOL    HW124699   2.738   0.260   8.007 -0.5833 -0.3591  0.3114
 7269SOL    HW224700   2.794   0.180   7.891 -0.8447 -0.3079  0.1496
 7270SOL     OW24701   1.834   6.564   8.335 -0.0154 -0.4938 -0.0957
 7270SOL    HW124702   1.820   6.601   8.248  2.0975  1.7059  0.4169
 7270SOL    HW224703   1.839   6.470   8.320  1.2865 -0.1079 -2.5087
 7271SOL     OW24704   0.205   2.875   0.747  0.4920  0.2848  0.5139
 7271SOL    HW124705   0.277   2.932   0.775 -1.0200  1.2558  2.6516
 7271SOL    HW224706   0.176   2.833   0.828  0.6429 -2.5252 -0.7873
 7272SOL     OW24707   5.022   8.474   5.373  0.5734 -0.4864 -0.5173
 7272SOL    HW124708   5.088   8.509   5.314  2.4412 -2.9839 -0.0961
 7272SOL    HW224709   4.954   8.440   5.316 -0.6101  2.3916 -0.9560
 7273SOL     OW24710   5.337   1.131   5.992  0.2238 -0.1026  0.3729
 7273SOL    HW124711   5.424   1.172   5.994 -0.0326  0.4098  1.7265
 7273SOL    HW224712   5.313   1.120   6.084 -0.9620 -0.6593  0.0181
 7274SOL     OW24713   8.820   8.786   6.487  0.0597  0.2188  0.1168
 7274SOL    HW124714   8.900   8.733   6.483  0.5490  0.9653 -0.3563
 7274SOL    HW224715   8.751   8.723   6.509  0.7821 -0.4309  0.5937
 7275SOL     OW24716   1.662   2.860   0.384  0.6582 -0.1149 -0.0243
 7275SOL    HW124717   1.597   2.928   0.403  0.5511 -0.2292  0.0147
 7275SOL    HW224718   1.728   2.905   0.332  0.5603  0.0079 -0.0437
 7276SOL     OW24719   8.720   7.261   2.689 -0.3293  0.3029  0.9185
 7276SOL    HW124720   8.713   7.331   2.625  0.0445 -0.3033  0.1947
 7276SOL    HW224721   8.684   7.184   2.644 -0.2858 -0.0764  1.5260
 7277SOL     OW24722   8.855   8.564   7.345 -0.5982  0.3545 -0.5198
 7277SOL    HW124723   8.890   8.648   7.375 -0.2095  0.0364 -0.0711
 7277SOL    HW224724   8.930   8.504   7.351 -0.6768  0.1401 -1.5192
 7278SOL     OW24725   2.593   8.269   2.984  0.4146 -0.2076  0.4607
 7278SOL    HW124726   2.603   8.256   3.078 -1.9401  3.1181  1.3901
 7278SOL    HW224727   2.499   8.256   2.968  0.7807 -0.7744 -1.4529
 7279SOL     OW24728   2.656   8.311   1.622  0.6165  0.2092 -0.3295
 7279SOL    HW124729   2.734   8.255   1.619  0.6618  0.1921  0.8059
 7279SOL    HW224730   2.608   8.281   1.699  0.4552  1.4979  0.0949
 7280SOL     OW24731   3.312   2.803   6.074 -0.5495  0.1481  0.5325
 7280SOL    HW124732   3.223   2.769   6.067 -0.5710  0.4854 -1.7708
 7280SOL    HW224733   3.310   2.861   6.150 -2.4954  0.6298  0.1754
 7281SOL     OW24734   1.478   1.423   2.518  0.3844 -0.7974 -0.2163
 7281SOL    HW124735   1.483   1.434   2.613  0.4239 -2.6974  0.0491
 7281SOL    HW224736   1.513   1.335   2.503  0.9963 -0.2808 -2.0677
 7282SOL     OW24737   4.400   1.125   6.083  0.3728  0.3489 -0.5699
 7282SOL    HW124738   4.400   1.220   6.075 -0.3177  0.2645 -1.6741
 7282SOL    HW224739   4.311   1.098   6.063  0.6712 -0.5756 -0.7210
 7283SOL     OW24740   0.061   4.735   4.207 -0.0231 -0.3425 -0.2857
 7283SOL    HW124741   0.112   4.698   4.278  1.6680  1.0963 -0.6784
 7283SOL    HW224742  -0.006   4.669   4.188  0.6248 -1.5401  1.3921
 7284SOL     OW24743   3.204   2.148   3.143 -0.0833  0.3947  0.1350
 7284SOL    HW124744   3.259   2.227   3.144  1.2036 -0.4675  1.1119
 7284SOL    HW224745   3.139   2.163   3.212 -1.5957  1.7057 -1.4607
 7285SOL     OW24746   4.782   1.724   7.556  0.6873  0.6850  0.0457
 7285SOL    HW124747   4.787   1.784   7.629  0.9266  0.7976 -0.0639
 7285SOL    HW224748   4.847   1.755   7.494  1.0156  0.1465  0.1120
 7286SOL     OW24749   6.210   3.106   8.297  0.4889 -0.2062 -0.1008
 7286SOL    HW124750   6.215   3.014   8.326 -0.0536 -0.6342 -1.2999
 7286SOL    HW224751   6.116   3.122   8.286  0.5299  0.7288  0.7682
 7287SOL     OW24752   9.042   2.950   5.283  0.1367  0.1425 -0.5408
 7287SOL    HW124753   9.020   3.009   5.211  1.7689  3.0169  1.1726
 7287SOL    HW224754   9.088   3.004   5.346  0.8589 -2.7885  1.6613
 7288SOL     OW24755   4.352   2.671   3.842  0.0327  0.2168 -0.5331
 7288SOL    HW124756   4.421   2.703   3.901 -0.4189  1.8294 -0.8169
 7288SOL    HW224757   4.362   2.576   3.842  1.2462  0.3140  0.6617
 7289SOL     OW24758   0.332   8.945   1.765 -0.3189 -0.2030 -0.3062
 7289SOL    HW124759   0.318   8.854   1.741 -0.4901 -0.1338 -0.4720
 7289SOL    HW224760   0.424   8.949   1.791 -0.0726 -0.2336 -1.1488
 7290SOL     OW24761   6.478   2.735   3.698  0.0318 -0.7955 -0.4625
 7290SOL    HW124762   6.398   2.771   3.734  0.5771  1.5624 -1.4063
 7290SOL    HW224763   6.522   2.694   3.772  0.6095  2.8827  1.4764
 7291SOL     OW24764   5.701   3.659   8.837  0.1930  0.8607  0.7856
 7291SOL    HW124765   5.651   3.669   8.756  0.8564 -0.7646  0.1214
 7291SOL    HW224766   5.691   3.567   8.860  1.2956  0.9490  1.7047
 7292SOL     OW24767   3.136   4.876   8.974  0.0016 -0.1174  0.1475
 7292SOL    HW124768   3.217   4.911   8.938 -0.5263  0.8284 -0.1537
 7292SOL    HW224769   3.134   4.785   8.945  1.4388 -0.4425  1.0129
 7293SOL     OW24770   4.907   3.788   2.584  0.1147  0.0306  0.4515
 7293SOL    HW124771   4.946   3.712   2.540 -1.2527  0.6499 -2.0195
 7293SOL    HW224772   4.924   3.861   2.524 -1.7386  0.9651  1.0169
 7294SOL     OW24773   6.903   4.821   5.926 -0.0070 -0.3779  0.2574
 7294SOL    HW124774   6.963   4.808   5.999  0.6674 -0.2409 -0.2621
 7294SOL    HW224775   6.954   4.797   5.848 -0.2566  0.8183 -0.2969
 7295SOL     OW24776   2.478   1.663   7.541  0.0616  0.0380 -0.6044
 7295SOL    HW124777   2.439   1.706   7.617 -0.1984  1.7595 -1.6548
 7295SOL    HW224778   2.410   1.604   7.509 -0.7466  1.1040 -0.8981
 7296SOL     OW24779   1.474   1.580   2.768  0.5050  0.2076  0.6887
 7296SOL    HW124780   1.447   1.639   2.698  1.4080 -0.1408  0.0276
 7296SOL    HW224781   1.519   1.635   2.831  2.0392  0.1432 -0.3004
 7297SOL     OW24782   8.107   8.737   4.208 -0.2529 -0.2216  0.0330
 7297SOL    HW124783   8.126   8.675   4.279 -0.7502 -1.0201 -0.5201
 7297SOL    HW224784   8.012   8.732   4.196 -0.1660 -0.1670 -0.7474
 7298SOL     OW24785   8.344   8.088   0.500  0.0981  0.2906  0.4232
 7298SOL    HW124786   8.291   8.020   0.457  0.3222  0.7708 -0.6242
 7298SOL    HW224787   8.388   8.042   0.571  0.2579 -0.6713 -0.2834
 7299SOL     OW24788   3.336   4.482   7.597  0.0856 -0.3771  0.1266
 7299SOL    HW124789   3.304   4.425   7.527  0.9605 -0.3885 -0.2720
 7299SOL    HW224790   3.428   4.459   7.607  0.3356  0.6437  0.2736
 7300SOL     OW24791   5.079   8.685   6.864  0.5948  0.5471  0.4755
 7300SOL    HW124792   4.991   8.653   6.844  1.1932 -2.6445  2.3483
 7300SOL    HW224793   5.065   8.756   6.927 -0.6495  0.3851  0.4074
 7301SOL     OW24794   0.789   2.727   2.945  0.3155  0.0922  0.2595
 7301SOL    HW124795   0.813   2.732   2.852  0.6466  0.4433  0.3614
 7301SOL    HW224796   0.708   2.779   2.952 -0.0506 -0.4435  0.0586
 7302SOL     OW24797   2.252   2.861   6.645  0.5871 -0.0099 -0.0968
 7302SOL    HW124798   2.326   2.887   6.590  0.3693  1.4236  0.2305
 7302SOL    HW224799   2.276   2.775   6.679  1.7297  0.0730 -0.6425
 7303SOL     OW24800   1.081   0.550   8.863  0.1160 -0.0123  0.1694
 7303SOL    HW124801   1.077   0.507   8.777 -0.7551 -0.7597  0.5724
 7303SOL    HW224802   1.155   0.610   8.856  2.7993 -3.0214  0.2144
 7304SOL     OW24803   6.414   8.571   2.756  0.2205  0.2179  0.7707
 7304SOL    HW124804   6.330   8.528   2.742  1.3958 -1.2904 -2.9323
 7304SOL    HW224805   6.400   8.662   2.731 -0.5034  0.2376  1.2225
 7305SOL     OW24806   8.750   1.627   3.225  0.3344  0.2395  0.2804
 7305SOL    HW124807   8.744   1.540   3.265  0.1219  0.0826 -0.0921
 7305SOL    HW224808   8.662   1.663   3.232  0.1871  0.0216 -0.4760
 7306SOL     OW24809   1.159   9.106   7.818 -0.4417  0.6470  0.2226
 7306SOL    HW124810   1.126   9.037   7.875  1.5374  0.8653  1.7701
 7306SOL    HW224811   1.088   9.170   7.813 -2.5141 -1.5963 -1.6448
 7307SOL     OW24812   8.538   3.932   1.674  0.1716  0.1110 -0.5292
 7307SOL    HW124813   8.632   3.919   1.690 -0.1364 -1.1616  0.3795
 7307SOL    HW224814   8.526   3.908   1.582  0.4485 -1.5361 -0.1627
 7308SOL     OW24815   8.117   8.833   3.024  0.1338 -0.1554 -0.2837
 7308SOL    HW124816   8.170   8.873   2.955 -0.1964 -1.5400 -1.3930
 7308SOL    HW224817   8.129   8.738   3.012 -0.0915 -0.4358  1.4534
 7309SOL     OW24818   0.220   4.147   4.318  0.8124 -0.0245  0.6239
 7309SOL    HW124819   0.247   4.055   4.324 -2.9906 -1.6427 -2.4562
 7309SOL    HW224820   0.279   4.185   4.252  1.3929 -0.7275  0.7270
 7310SOL     OW24821   4.663   7.840   1.202  0.4852 -0.5357 -0.1608
 7310SOL    HW124822   4.589   7.789   1.236  1.1532 -1.4910 -0.0862
 7310SOL    HW224823   4.719   7.855   1.279  0.0985  0.6892 -0.0999
 7311SOL     OW24824   4.249   4.312   8.072 -0.6534 -0.1554  0.2101
 7311SOL    HW124825   4.236   4.363   8.152 -0.0252 -1.9389  1.5065
 7311SOL    HW224826   4.177   4.339   8.015 -1.2341  1.0302  1.4238
 7312SOL     OW24827   5.210   4.690   3.963 -0.4688  0.0745 -0.0007
 7312SOL    HW124828   5.142   4.714   3.901 -0.0485 -1.6292 -1.1890
 7312SOL    HW224829   5.163   4.664   4.042 -1.2544 -1.2781 -0.8696
 7313SOL     OW24830   6.841   4.912   7.897  0.3958 -0.6532  0.0947
 7313SOL    HW124831   6.933   4.928   7.920  0.2618  0.3110 -0.0321
 7313SOL    HW224832   6.794   4.988   7.931 -0.4040 -1.2780  0.4038
 7314SOL     OW24833   3.834   4.676   3.016  0.2807  0.3310  0.2606
 7314SOL    HW124834   3.761   4.687   2.955 -0.0231  1.9677  0.8641
 7314SOL    HW224835   3.901   4.632   2.965 -0.8102 -0.4493 -0.5643
 7315SOL     OW24836   6.307   5.536   3.078  0.0699 -0.5350 -0.2636
 7315SOL    HW124837   6.315   5.493   3.164 -0.8990  0.3609  0.2963
 7315SOL    HW224838   6.288   5.627   3.099  0.5022 -0.1567 -1.4498
 7316SOL     OW24839   2.956   8.290   4.050 -0.5508 -0.7030 -0.0238
 7316SOL    HW124840   3.027   8.325   3.995  0.3394 -0.2793  1.3443
 7316SOL    HW224841   2.920   8.366   4.095 -0.9481 -1.0976  0.3371
 7317SOL     OW24842   7.019   4.174   5.453 -0.0766 -0.0930 -0.1565
 7317SOL    HW124843   7.036   4.119   5.376 -0.2485  1.3875 -1.2918
 7317SOL    HW224844   6.932   4.146   5.483  0.1176 -0.8860 -0.3047
 7318SOL     OW24845   8.330   0.458   5.578  0.1804  0.2372  0.6555
 7318SOL    HW124846   8.243   0.427   5.552  0.1164  1.4110 -0.6528
 7318SOL    HW224847   8.344   0.419   5.664  0.0124 -3.1258 -0.6799
 7319SOL     OW24848   0.928   0.079   5.394 -0.7304 -0.2438 -0.0786
 7319SOL    HW124849   0.983   0.033   5.331 -0.5952  0.0703 -0.1889
 7319SOL    HW224850   0.986   0.096   5.468 -0.6458  0.1879 -0.2410
 7320SOL     OW24851   6.510   0.388   8.330 -0.0965  0.3306  0.1890
 7320SOL    HW124852   6.456   0.330   8.383 -0.3518  0.0828 -0.3350
 7320SOL    HW224853   6.448   0.440   8.279  0.0770  2.2010  1.7919
 7321SOL     OW24854   5.227   6.911   4.022  0.0485  0.6254 -0.0428
 7321SOL    HW124855   5.132   6.920   4.023  0.1014  1.7094  2.0973
 7321SOL    HW224856   5.244   6.828   4.067  0.1310  1.5259  1.6513
 7322SOL     OW24857   2.561   3.816   2.567 -0.5455 -0.1755 -0.6784
 7322SOL    HW124858   2.499   3.862   2.511  0.3859  0.6540 -1.0650
 7322SOL    HW224859   2.564   3.727   2.534  1.0825  0.6289 -2.9672
 7323SOL     OW24860   3.760   8.264   4.239  0.3334  0.3866  1.0001
 7323SOL    HW124861   3.746   8.172   4.215 -0.5095  1.2104 -2.1428
 7323SOL    HW224862   3.845   8.285   4.201  0.8313  0.7610  2.2890
 7324SOL     OW24863   5.458   2.172   8.114  0.1153 -0.2580  0.1025
 7324SOL    HW124864   5.546   2.165   8.076  0.9182  1.8323  1.3826
 7324SOL    HW224865   5.440   2.085   8.149  0.8298 -1.2478 -1.8362
 7325SOL     OW24866   9.183   5.445   4.062  0.4390  0.1209  0.0479
 7325SOL    HW124867   9.278   5.437   4.063  0.3961 -0.4363  1.2523
 7325SOL    HW224868   9.166   5.526   4.014  1.5530  0.6404  0.5092
 7326SOL     OW24869   7.160   3.780   8.050 -0.4322  0.4111 -0.2464
 7326SOL    HW124870   7.175   3.858   7.995  1.5420 -0.1283 -0.5505
 7326SOL    HW224871   7.248   3.751   8.074 -1.1137 -1.8473 -0.2891
 7327SOL     OW24872   2.105   6.279   0.405  0.0721  0.1668  0.4654
 7327SOL    HW124873   2.109   6.196   0.358 -0.0737  0.1712  0.4454
 7327SOL    HW224874   2.113   6.255   0.498 -1.5676 -0.0159  0.5785
 7328SOL     OW24875   4.778   8.252   2.766 -0.2381  0.0871  0.1472
 7328SOL    HW124876   4.687   8.254   2.737  0.3297 -1.6588 -2.0481
 7328SOL    HW224877   4.795   8.341   2.798 -1.8222  1.4414 -2.4412
 7329SOL     OW24878   5.817   4.538   4.735  0.8428  0.1533 -0.3570
 7329SOL    HW124879   5.796   4.494   4.653 -0.4619 -0.9114  0.5134
 7329SOL    HW224880   5.851   4.469   4.792 -0.4164  0.4112  0.7531
 7330SOL     OW24881   8.244   0.974   1.932  0.3941  0.2117 -0.1334
 7330SOL    HW124882   8.210   0.979   2.021 -1.3490  1.9743 -0.8344
 7330SOL    HW224883   8.307   1.046   1.927  0.3649  0.2194 -0.3764
 7331SOL     OW24884   6.699   1.766   7.356  0.1749 -0.0668 -0.8008
 7331SOL    HW124885   6.679   1.687   7.307  0.7048 -0.4305 -0.4366
 7331SOL    HW224886   6.754   1.818   7.298  0.3625 -0.2568 -0.7915
 7332SOL     OW24887   7.222   5.326   0.646 -0.1937  0.3920 -0.3623
 7332SOL    HW124888   7.290   5.304   0.710  0.7262  2.5204 -0.5049
 7332SOL    HW224889   7.257   5.403   0.601 -2.0442  0.5929 -1.5293
 7333SOL     OW24890   8.963   4.204   4.373 -0.4047  0.5936  0.7118
 7333SOL    HW124891   9.019   4.152   4.430 -0.4017 -0.2571 -0.0489
 7333SOL    HW224892   8.943   4.282   4.425  2.1623  1.3564  0.6850
 7334SOL     OW24893   6.966   2.140   9.195 -0.2236  0.3773  0.0110
 7334SOL    HW124894   7.058   2.144   9.171 -0.5588  0.7292 -1.3007
 7334SOL    HW224895   6.927   2.219   9.155 -0.8759  0.8801  1.5575
 7335SOL     OW24896   5.495   0.088   1.889  0.3889 -0.5069 -0.3879
 7335SOL    HW124897   5.516   0.011   1.836 -0.4567 -0.2598 -1.1006
 7335SOL    HW224898   5.436   0.140   1.834  2.2621  1.5134 -0.6357
 7336SOL     OW24899   7.522   6.629   6.269 -0.2545 -0.2612  0.2658
 7336SOL    HW124900   7.536   6.719   6.239  0.8387 -0.2051  0.8590
 7336SOL    HW224901   7.500   6.580   6.190  3.3317 -0.3005 -0.8943
 7337SOL     OW24902   4.573   7.007   5.838 -0.0814 -0.2264  0.1332
 7337SOL    HW124903   4.651   6.978   5.791 -0.1418  0.7393 -0.5869
 7337SOL    HW224904   4.564   7.100   5.815 -1.7638 -0.4586 -0.2859
 7338SOL     OW24905   2.634   8.806   5.203 -0.6355  0.7123  0.1786
 7338SOL    HW124906   2.616   8.878   5.263 -2.1989 -0.7150  1.5147
 7338SOL    HW224907   2.560   8.747   5.214  1.6384 -2.2399  0.8971
 7339SOL     OW24908   2.134   6.213   6.599 -0.1222 -0.2887  0.6502
 7339SOL    HW124909   2.100   6.204   6.688 -1.5102  1.6228  0.3786
 7339SOL    HW224910   2.059   6.193   6.543 -0.5344  2.5883  0.0104
 7340SOL     OW24911   0.802   2.189   7.682  0.5839 -0.3962  0.1106
 7340SOL    HW124912   0.736   2.224   7.622  0.8374 -0.2052 -0.0618
 7340SOL    HW224913   0.757   2.119   7.730  0.7844 -1.6411 -1.4098
 7341SOL     OW24914   9.013   8.968   8.902 -0.0824  0.1694  0.1688
 7341SOL    HW124915   8.949   9.038   8.914 -0.7919 -0.4857  0.2848
 7341SOL    HW224916   9.096   9.005   8.932 -0.5100  0.8575  0.5110
 7342SOL     OW24917   8.496   0.236   6.444  0.2207  0.3073  0.2771
 7342SOL    HW124918   8.538   0.151   6.460  0.9790  1.0938  2.9081
 7342SOL    HW224919   8.425   0.216   6.383  0.6543 -2.1398  0.4704
 7343SOL     OW24920   7.001   2.422   0.398  0.5732 -0.3118 -0.3074
 7343SOL    HW124921   6.956   2.462   0.324 -0.6442 -1.2847 -0.1164
 7343SOL    HW224922   6.948   2.346   0.421  1.5853 -0.7229  0.8018
 7344SOL     OW24923   2.605   9.193   1.190 -0.0144  0.0302 -0.5010
 7344SOL    HW124924   2.560   9.131   1.133  2.6177 -2.9652  0.3483
 7344SOL    HW224925   2.675   9.229   1.135  0.2106  0.0564 -0.1994
 7345SOL     OW24926   6.857   1.578   0.315 -0.7002  0.4229  0.8430
 7345SOL    HW124927   6.826   1.642   0.251  1.6953  0.4214 -0.4194
 7345SOL    HW224928   6.949   1.564   0.293 -0.9598 -3.1048  1.3880
 7346SOL     OW24929   2.191   6.408   7.616 -0.1045 -0.0799  0.2588
 7346SOL    HW124930   2.189   6.354   7.538 -0.3608 -0.3789  0.4703
 7346SOL    HW224931   2.172   6.497   7.585  1.9343  0.1909 -0.3192
 7347SOL     OW24932   3.166   5.374   4.951  0.2849  0.2602 -0.1666
 7347SOL    HW124933   3.231   5.328   4.897  1.3124  0.0793  1.1736
 7347SOL    HW224934   3.093   5.312   4.957  1.4073 -1.0382  1.1169
 7348SOL     OW24935   5.841   3.569   2.879 -0.5636 -0.6882  0.1642
 7348SOL    HW124936   5.847   3.514   2.801 -1.0625  0.4798 -0.7110
 7348SOL    HW224937   5.751   3.558   2.909 -1.2887  1.1480 -1.1733
 7349SOL     OW24938   9.057   1.160   2.711  0.2592 -0.5901  0.3413
 7349SOL    HW124939   9.036   1.110   2.632  0.3238 -0.4624  0.2432
 7349SOL    HW224940   8.976   1.209   2.730  0.1386 -0.8600  0.5350
 7350SOL     OW24941   8.370   5.688   1.693  0.1603 -0.2907 -0.1897
 7350SOL    HW124942   8.322   5.760   1.734  0.0888 -1.0828  1.1982
 7350SOL    HW224943   8.312   5.657   1.623 -0.4843  0.0179  0.1988
 7351SOL     OW24944   5.650   7.062   6.674 -0.5293 -0.7751  0.0263
 7351SOL    HW124945   5.651   7.046   6.769 -0.9989  0.3963  0.2375
 7351SOL    HW224946   5.675   6.977   6.636  1.7397 -0.7329  1.2471
 7352SOL     OW24947   1.726   7.802   1.753 -0.1168 -0.2342  0.0345
 7352SOL    HW124948   1.712   7.745   1.828  0.8176 -0.3381  0.1387
 7352SOL    HW224949   1.718   7.891   1.788 -1.8677 -0.2712 -0.1850
 7353SOL     OW24950   5.893   8.343   0.551  0.2601 -0.5869  0.5305
 7353SOL    HW124951   5.929   8.426   0.582  0.2814 -0.5693  0.4595
 7353SOL    HW224952   5.954   8.315   0.482  1.0437 -1.3569  1.4951
 7354SOL     OW24953   3.131   4.486   5.332 -0.4794 -0.8556 -0.6332
 7354SOL    HW124954   3.173   4.419   5.279  0.6375 -0.6085 -0.0904
 7354SOL    HW224955   3.171   4.568   5.302 -0.7905 -0.5828 -0.3064
 7355SOL     OW24956   6.969   1.968   0.169 -0.0632 -0.1754 -0.6160
 7355SOL    HW124957   6.968   2.039   0.106 -0.1137  0.0364 -0.3788
 7355SOL    HW224958   7.033   1.906   0.135 -2.1857 -1.5210 -2.4687
 7356SOL     OW24959   5.197   8.945   0.197 -0.2211  0.1366  0.1358
 7356SOL    HW124960   5.244   8.950   0.114 -0.0318  0.2701  0.2492
 7356SOL    HW224961   5.193   8.852   0.218  0.9012  0.1818  0.6334
 7357SOL     OW24962   1.712   1.017   1.663 -0.8055 -0.0286 -0.5007
 7357SOL    HW124963   1.665   1.095   1.691  0.0525  0.1198  0.6213
 7357SOL    HW224964   1.738   0.974   1.745 -1.2055 -1.4648 -1.1009
 7358SOL     OW24965   2.428   4.721   9.056  0.7230 -0.2338  0.4168
 7358SOL    HW124966   2.412   4.668   8.978  1.1147 -0.0589  0.2185
 7358SOL    HW224967   2.441   4.657   9.126  0.7082 -0.3908  0.2758
 7359SOL     OW24968   4.488   8.161   6.329  0.2185 -0.2893  0.2947
 7359SOL    HW124969   4.411   8.151   6.273 -0.9285 -0.2727  1.8081
 7359SOL    HW224970   4.502   8.075   6.367 -0.4682  0.2363  1.7820
 7360SOL     OW24971   4.643   2.611   7.413  0.0631 -0.1163  0.4433
 7360SOL    HW124972   4.620   2.527   7.453  0.2889 -0.8621 -0.9495
 7360SOL    HW224973   4.670   2.666   7.487  1.3864 -1.7530  1.2391
 7361SOL     OW24974   8.485   8.736   8.063 -0.3170  0.6006  0.7502
 7361SOL    HW124975   8.431   8.669   8.021 -0.4288  1.1699 -0.0282
 7361SOL    HW224976   8.434   8.763   8.139 -0.8278  0.6592  0.3952
 7362SOL     OW24977   4.213   3.685   6.392  0.1612 -0.6079 -0.0834
 7362SOL    HW124978   4.239   3.710   6.481  0.3881 -0.5083 -0.1790
 7362SOL    HW224979   4.157   3.608   6.405  0.3822 -0.7332  0.1284
 7363SOL     OW24980   0.598   2.318   1.983  0.7807  0.8615 -0.0461
 7363SOL    HW124981   0.561   2.236   2.016 -1.0071  1.0947 -1.3212
 7363SOL    HW224982   0.523   2.364   1.945  1.9790  2.5254 -0.4920
 7364SOL     OW24983   4.603   0.121   3.989  0.2003  0.7211 -0.4357
 7364SOL    HW124984   4.654   0.126   3.908 -0.1311  1.6820 -0.6033
 7364SOL    HW224985   4.668   0.114   4.058  0.6013  2.2154 -0.6260
 7365SOL     OW24986   0.268   4.223   0.538 -0.4516 -0.0480 -0.2800
 7365SOL    HW124987   0.216   4.159   0.585 -1.5953 -0.3358 -1.8581
 7365SOL    HW224988   0.291   4.180   0.456 -1.0413  1.4560 -1.2722
 7366SOL     OW24989   2.571   4.213   0.781  0.2232 -0.1751 -0.7333
 7366SOL    HW124990   2.529   4.273   0.720  0.3972  1.6411  0.8217
 7366SOL    HW224991   2.662   4.208   0.752  0.7127  2.0125  0.2785
 7367SOL     OW24992   4.914   0.992   1.501 -0.1811  0.1808 -0.5678
 7367SOL    HW124993   4.864   0.917   1.534 -1.2302  1.1312  0.0704
 7367SOL    HW224994   4.847   1.054   1.471  0.5912  1.5262  0.3756
 7368SOL     OW24995   1.636   4.076   3.230  0.2290 -0.1015 -0.2745
 7368SOL    HW124996   1.550   4.117   3.228  0.2341 -0.0746  0.0281
 7368SOL    HW224997   1.643   4.030   3.147  1.0883  2.2817 -1.6379
 7369SOL     OW24998   9.146   4.740   1.227 -0.2413  0.2414 -0.3399
 7369SOL    HW124999   9.096   4.820   1.213  1.2414  1.4771  1.1430
 7369SOL    HW225000   9.079   4.671   1.230 -1.7839  1.6997  0.6322
 7370SOL     OW25001   5.619   5.013   4.546 -0.0271  1.0571  0.1877
 7370SOL    HW125002   5.684   5.082   4.557  0.5778  0.5430 -0.0413
 7370SOL    HW225003   5.627   4.987   4.454 -0.2941  0.7323  0.2529
 7371SOL     OW25004   8.618   6.065   2.790  0.0353 -0.0971  0.3258
 7371SOL    HW125005   8.575   6.149   2.774 -0.1299 -0.2457 -0.0146
 7371SOL    HW225006   8.561   6.020   2.853 -0.2805 -0.2690 -0.0782
 7372SOL     OW25007   4.166   0.246   1.170 -0.1313  0.3081 -0.2486
 7372SOL    HW125008   4.154   0.172   1.109 -1.8269 -0.3825  0.8328
 7372SOL    HW225009   4.196   0.205   1.251  0.1942  0.9753 -0.0298
 7373SOL     OW25010   2.000   6.885   6.777  0.2542 -0.6625  0.2414
 7373SOL    HW125011   1.977   6.916   6.689 -0.8299  0.1090  0.7643
 7373SOL    HW225012   1.936   6.815   6.795 -0.4737  0.1625  0.9548
 7374SOL     OW25013   5.677   1.492   7.275  0.3399  0.3241 -0.2250
 7374SOL    HW125014   5.668   1.557   7.206  0.1288  0.2457 -0.2691
 7374SOL    HW225015   5.588   1.462   7.293  0.3693  0.4798  0.2087
 7375SOL     OW25016   0.034   1.272   7.774 -0.3634  0.0488 -0.4730
 7375SOL    HW125017   0.116   1.292   7.820 -1.2693  1.6688  0.5415
 7375SOL    HW225018   0.059   1.262   7.682  1.4709 -3.0031  0.1970
 7376SOL     OW25019   1.856   4.492   8.012  0.3751 -0.1542 -0.1915
 7376SOL    HW125020   1.935   4.442   8.032  0.1901 -0.0352  0.9335
 7376SOL    HW225021   1.870   4.575   8.058 -0.8637 -0.5452  0.9527
 7377SOL     OW25022   4.672   0.121   8.870 -0.0234 -0.0369  0.0002
 7377SOL    HW125023   4.721   0.187   8.820 -0.4934  0.5428  0.2983
 7377SOL    HW225024   4.647   0.056   8.805  1.6995 -0.6997 -0.0710
 7378SOL     OW25025   4.354   1.772   5.741  0.1582  0.4222 -0.1788
 7378SOL    HW125026   4.345   1.689   5.787 -0.1042  0.1689 -0.6852
 7378SOL    HW225027   4.297   1.764   5.665 -0.0018  1.1328 -0.1399
 7379SOL     OW25028   6.609   8.544   8.364  0.6761 -0.2500 -0.0122
 7379SOL    HW125029   6.657   8.595   8.299  0.6966 -1.2875 -0.8346
 7379SOL    HW225030   6.672   8.530   8.434  0.1725  2.2728  1.0576
 7380SOL     OW25031   8.278   2.448   9.143 -0.0215 -0.0102 -0.3419
 7380SOL    HW125032   8.317   2.477   9.225 -1.1484  2.1996 -0.5243
 7380SOL    HW225033   8.345   2.392   9.103  1.4764  0.7507  0.9878
 7381SOL     OW25034   5.072   1.160   7.478  0.4901 -0.0201 -0.2289
 7381SOL    HW125035   5.162   1.134   7.458  1.1926 -0.5409  3.0168
 7381SOL    HW225036   5.018   1.086   7.447  1.5847 -1.3609  0.9397
 7382SOL     OW25037   8.169   0.295   3.076  0.1738 -0.0489  0.3173
 7382SOL    HW125038   8.087   0.312   3.122  0.5165 -0.2397  1.0152
 7382SOL    HW225039   8.146   0.298   2.983 -0.6078 -0.0409  0.5071
 7383SOL     OW25040   4.792   4.420   7.382 -0.0889 -0.3778  0.3381
 7383SOL    HW125041   4.815   4.327   7.393  0.0909 -0.4266 -0.4278
 7383SOL    HW225042   4.770   4.429   7.290 -0.3466  0.2968  0.4599
 7384SOL     OW25043   5.800   2.769   4.618 -0.0504 -0.7772  0.1062
 7384SOL    HW125044   5.813   2.767   4.713 -1.2978  0.6812  0.3452
 7384SOL    HW225045   5.836   2.686   4.587  1.0401 -0.9692  1.7625
 7385SOL     OW25046   2.120   8.933   6.503 -0.4764  0.7116  0.0399
 7385SOL    HW125047   2.130   9.016   6.550  2.0224  0.8217 -0.5303
 7385SOL    HW225048   2.110   8.867   6.571 -0.3119  1.2424  0.5871
 7386SOL     OW25049   8.201   0.061   6.511 -0.3726 -0.1463  0.6718
 7386SOL    HW125050   8.200   0.120   6.436  0.9710  0.2814  0.9610
 7386SOL    HW225051   8.277   0.005   6.496  1.5527  1.6717  2.9574
 7387SOL     OW25052   7.881   2.957   0.852  0.3067  0.1364 -0.0436
 7387SOL    HW125053   7.868   2.978   0.760  0.1682  0.5677  0.0743
 7387SOL    HW225054   7.801   2.911   0.878  0.3761 -0.0499 -0.1518
 7388SOL     OW25055   1.970   0.355   7.431  0.0892 -0.2694 -0.1249
 7388SOL    HW125056   2.014   0.345   7.515 -0.2584  0.2219  0.1218
 7388SOL    HW225057   2.014   0.294   7.373  0.4801 -0.4494  0.3584
 7389SOL     OW25058   8.502   5.934   3.764 -0.0643  0.5628 -0.7019
 7389SOL    HW125059   8.481   6.025   3.744 -1.3217  0.6954  1.0181
 7389SOL    HW225060   8.589   5.920   3.726  0.2204  2.5317 -0.8340
 7390SOL     OW25061   2.896   8.087   4.291 -0.4711 -0.0116  0.4939
 7390SOL    HW125062   2.826   8.131   4.339  0.6584  1.6430  0.6700
 7390SOL    HW225063   2.928   8.152   4.229 -0.2725 -1.3280 -0.8562
 7391SOL     OW25064   8.452   6.871   2.956 -0.3121 -0.0471  0.3101
 7391SOL    HW125065   8.433   6.782   2.926  0.3597  0.6087 -2.3633
 7391SOL    HW225066   8.547   6.873   2.966 -0.2712  0.4589 -0.1012
 7392SOL     OW25067   8.447   8.558   4.351 -0.5209 -0.2830 -0.3084
 7392SOL    HW125068   8.402   8.535   4.433  0.8241  0.2198  0.6147
 7392SOL    HW225069   8.534   8.587   4.379 -0.3092  0.6993 -1.8612
 7393SOL     OW25070   2.272   3.605   6.282  0.1840  0.0988  0.0143
 7393SOL    HW125071   2.227   3.520   6.285  1.2304 -0.5292 -0.9807
 7393SOL    HW225072   2.280   3.632   6.373 -0.1034 -0.9213  0.3545
 7394SOL     OW25073   1.368   3.353   6.163  0.3696 -0.3945  0.3456
 7394SOL    HW125074   1.383   3.283   6.227 -1.4454 -0.1356  1.1032
 7394SOL    HW225075   1.281   3.386   6.184  1.1536  2.0673 -0.0244
 7395SOL     OW25076   3.615   7.136   9.227 -0.6543  0.6682 -0.1721
 7395SOL    HW125077   3.574   7.204   9.281 -1.1071  0.5944 -0.4163
 7395SOL    HW225078   3.560   7.059   9.239  0.1586  0.1706  0.5260
 7396SOL     OW25079   1.317   4.169   8.476 -0.1875  0.4180 -0.2554
 7396SOL    HW125080   1.246   4.135   8.530 -1.7606  0.0192 -2.4309
 7396SOL    HW225081   1.343   4.094   8.422  1.5284  0.7162  0.1091
 7397SOL     OW25082   8.374   9.117   6.450  0.1723  0.3691 -0.0982
 7397SOL    HW125083   8.371   9.030   6.410 -1.5538  0.1104  0.4887
 7397SOL    HW225084   8.463   9.126   6.482  0.2595 -1.3963  0.2599
 7398SOL     OW25085   0.927   6.820   3.434 -0.6901 -0.1189 -0.2074
 7398SOL    HW125086   0.901   6.903   3.474 -2.4567 -0.3774 -0.7237
 7398SOL    HW225087   0.847   6.767   3.435  0.5292 -2.0464  0.6303
 7399SOL     OW25088   7.186   0.361   7.506 -0.3126  0.0370 -0.7092
 7399SOL    HW125089   7.203   0.281   7.557  0.3198 -0.4992 -1.7367
 7399SOL    HW225090   7.234   0.429   7.554 -0.5678 -0.2582 -0.0185
 7400SOL     OW25091   1.604   6.616   3.778  0.4206 -0.0928 -0.2794
 7400SOL    HW125092   1.538   6.643   3.715  0.6938  0.4435 -0.3380
 7400SOL    HW225093   1.636   6.532   3.744  0.3644  0.0526 -0.6972
 7401SOL     OW25094   5.653   7.581   7.721  0.4433 -0.6431  0.0252
 7401SOL    HW125095   5.645   7.500   7.771  1.5870  0.0106  1.3337
 7401SOL    HW225096   5.715   7.635   7.771  0.4327  0.6740 -1.2921
 7402SOL     OW25097   4.988   0.955   1.218  0.1302 -0.0636 -0.6319
 7402SOL    HW125098   4.967   0.946   1.311  0.4246  2.7220 -0.2135
 7402SOL    HW225099   5.077   0.923   1.210  0.1744 -0.1435  0.1007
 7403SOL     OW25100   3.109   9.078   8.759  0.5966  0.0475  0.0053
 7403SOL    HW125101   3.092   9.116   8.846  0.1008 -0.0156 -0.0628
 7403SOL    HW225102   3.094   8.984   8.770 -3.1707  0.3714 -0.9813
 7404SOL     OW25103   6.733   4.764   3.767  0.2182 -0.2112  0.3417
 7404SOL    HW125104   6.790   4.697   3.805 -0.3499  0.0791  1.7380
 7404SOL    HW225105   6.792   4.817   3.713  1.0251 -0.7021  0.7168
 7405SOL     OW25106   6.188   4.313   3.788  0.1222 -0.2275 -0.3018
 7405SOL    HW125107   6.220   4.387   3.736 -0.3338  0.4165  0.3368
 7405SOL    HW225108   6.145   4.256   3.723  0.1758  0.2239 -0.7414
 7406SOL     OW25109   6.704   5.818   3.778  0.5006  0.6920 -0.3785
 7406SOL    HW125110   6.722   5.890   3.717 -3.0153  1.1931 -1.0135
 7406SOL    HW225111   6.612   5.798   3.765  0.8306 -2.5726  1.3093
 7407SOL     OW25112   6.309   6.326   7.938  0.4257  0.7749 -0.3333
 7407SOL    HW125113   6.240   6.392   7.951 -0.6231 -0.1811 -0.8090
 7407SOL    HW225114   6.261   6.244   7.930  1.7940 -0.5433  3.0676
 7408SOL     OW25115   8.020   0.050   2.948  0.2976 -0.2998 -0.0215
 7408SOL    HW125116   8.005   0.135   2.908 -3.6914 -0.7559  0.1410
 7408SOL    HW225117   7.942  -0.001   2.928  0.7581 -2.6173  3.1591
 7409SOL     OW25118   5.775   2.137   5.703 -0.1313 -0.0773  0.6756
 7409SOL    HW125119   5.824   2.058   5.681 -0.5979 -0.1297 -0.2407
 7409SOL    HW225120   5.841   2.202   5.726  0.2543 -0.7479  1.5460
 7410SOL     OW25121   1.290   8.109   0.049  0.3224 -0.0952 -0.3279
 7410SOL    HW125122   1.194   8.112   0.057  0.2697  0.8987 -1.0854
 7410SOL    HW225123   1.314   8.197   0.020  1.6343  0.1718  1.4228
 7411SOL     OW25124   2.272   4.986   4.385  0.4066 -0.1495  0.5252
 7411SOL    HW125125   2.238   4.946   4.305  2.2954 -1.1951  0.1873
 7411SOL    HW225126   2.321   5.062   4.355 -1.0520  1.0004  0.9562
 7412SOL     OW25127   5.467   4.761   3.068 -0.0109  0.1140  0.0041
 7412SOL    HW125128   5.460   4.699   3.141 -0.9309 -0.4109 -0.5037
 7412SOL    HW225129   5.557   4.750   3.036  0.4147  0.3771  1.0659
 7413SOL     OW25130   2.165   1.650   5.611 -0.1310  0.3256  0.7939
 7413SOL    HW125131   2.158   1.583   5.678  1.6018 -0.1676  0.5152
 7413SOL    HW225132   2.142   1.731   5.656  2.1304  0.1892  2.3428
 7414SOL     OW25133   3.337   6.219   7.512  0.0108 -0.2406 -0.0981
 7414SOL    HW125134   3.259   6.275   7.508 -0.1370 -0.5193 -1.5725
 7414SOL    HW225135   3.303   6.130   7.500  0.5475 -0.3745 -0.6556
 7415SOL     OW25136   3.092   0.056   1.876  0.4298 -0.4326  0.2611
 7415SOL    HW125137   3.063   0.141   1.908  1.8062  0.4991 -0.8299
 7415SOL    HW225138   3.143   0.020   1.948  1.0134  0.3077  0.2341
 7416SOL     OW25139   1.947   5.477   6.789  0.4326 -0.7425  0.0527
 7416SOL    HW125140   1.935   5.507   6.879 -0.7394 -1.4791  0.1570
 7416SOL    HW225141   1.969   5.384   6.797  0.5325 -0.7635 -0.4138
 7417SOL     OW25142   4.031   2.340   6.128 -0.0857  0.8643  0.0273
 7417SOL    HW125143   3.953   2.389   6.152 -0.9883 -0.8763  0.8448
 7417SOL    HW225144   4.000   2.276   6.063  1.3350  2.2417 -2.1404
 7418SOL     OW25145   5.624   7.056   5.119  0.0528 -0.2253  0.7061
 7418SOL    HW125146   5.649   6.987   5.180  1.2646 -0.6076 -0.1999
 7418SOL    HW225147   5.553   7.103   5.164  0.4343 -0.9275  2.0904
 7419SOL     OW25148   3.799   8.859   3.777 -0.5111  0.4133 -0.1123
 7419SOL    HW125149   3.810   8.775   3.733  1.1587  1.4236 -1.8028
 7419SOL    HW225150   3.758   8.916   3.711  0.0926  1.4083  0.3354
 7420SOL     OW25151   3.585   3.732   6.899 -0.0291 -0.1078 -0.4348
 7420SOL    HW125152   3.612   3.803   6.958 -0.6858 -0.1997 -0.0156
 7420SOL    HW225153   3.642   3.742   6.823 -0.3365  1.0901 -0.5283
 7421SOL     OW25154   8.900   3.614   8.936 -0.1281  0.6505  0.0090
 7421SOL    HW125155   8.968   3.655   8.882 -0.0263 -1.6953 -1.8330
 7421SOL    HW225156   8.820   3.660   8.913 -0.0105 -0.0368 -1.9738
 7422SOL     OW25157   2.899   8.952   7.124 -0.0270  0.3322 -0.4258
 7422SOL    HW125158   2.842   8.935   7.049 -0.6712  2.2492 -0.4250
 7422SOL    HW225159   2.918   9.045   7.119  1.7255  0.0682  0.5732
 7423SOL     OW25160   4.358   7.262   6.037 -0.1095 -0.4795  0.4462
 7423SOL    HW125161   4.307   7.301   6.108 -1.0250 -2.3363  0.8799
 7423SOL    HW225162   4.439   7.234   6.078  1.1582  2.0161 -0.1408
 7424SOL     OW25163   8.089   1.530   2.836 -0.0736  0.1880  0.1441
 7424SOL    HW125164   8.097   1.514   2.930  0.7051 -0.4569 -0.0254
 7424SOL    HW225165   8.006   1.490   2.812 -0.5140  0.7690  0.6309
 7425SOL     OW25166   2.228   7.760   3.709 -0.0316  0.1130 -0.0235
 7425SOL    HW125167   2.214   7.808   3.791 -0.7841 -1.2621  0.6935
 7425SOL    HW225168   2.296   7.810   3.663  1.0747  0.4217  1.8509
 7426SOL     OW25169   4.547   5.674   0.657  0.0171  0.3066  0.0554
 7426SOL    HW125170   4.604   5.604   0.689  0.1792  0.8721  1.0412
 7426SOL    HW225171   4.554   5.742   0.723 -0.7130  0.9600 -0.5275
 7427SOL     OW25172   6.466   1.039   7.031 -0.1372  0.5889 -0.5497
 7427SOL    HW125173   6.509   0.994   6.958 -1.1776 -2.3079  0.4825
 7427SOL    HW225174   6.430   0.968   7.085  0.0868  2.6130  2.4888
 7428SOL     OW25175   3.748   8.346   2.995 -0.0642 -0.0534  0.3540
 7428SOL    HW125176   3.667   8.343   3.046  1.7232 -1.8524  3.3821
 7428SOL    HW225177   3.772   8.438   2.993 -1.1664  0.2656  1.1376
 7429SOL     OW25178   5.849   0.051   4.936 -0.5596 -0.5271 -0.1596
 7429SOL    HW125179   5.919   0.116   4.936  0.5088 -1.6279 -1.2785
 7429SOL    HW225180   5.768   0.103   4.931  0.2510  0.7071 -0.8949
 7430SOL     OW25181   3.774   3.326   9.212 -0.5020 -0.0204  0.3961
 7430SOL    HW125182   3.687   3.287   9.210 -1.0409  1.1052  1.2364
 7430SOL    HW225183   3.777   3.384   9.136  0.0809 -1.1755 -0.4994
 7431SOL     OW25184   1.636   4.667   8.049 -0.2199 -0.1923 -0.1227
 7431SOL    HW125185   1.637   4.702   7.960 -0.4847 -0.2992 -0.1681
 7431SOL    HW225186   1.670   4.578   8.041  0.4055  0.0325 -0.0144
 7432SOL     OW25187   3.518   5.435   8.583 -0.1612 -0.2156 -0.0017
 7432SOL    HW125188   3.563   5.449   8.666  0.4941  1.1528 -0.5654
 7432SOL    HW225189   3.571   5.369   8.538 -0.4713 -0.8974  0.6155
 7433SOL     OW25190   2.234   5.160   0.026 -0.1102 -0.0576 -0.3409
 7433SOL    HW125191   2.195   5.191   0.108 -0.5778 -2.8818  0.6472
 7433SOL    HW225192   2.302   5.223   0.006  0.7844  0.2079  2.8738
 7434SOL     OW25193   8.042   8.575   6.213 -0.3254  0.3570 -0.2151
 7434SOL    HW125194   7.993   8.644   6.256 -0.5518  0.6681 -0.9607
 7434SOL    HW225195   7.987   8.547   6.140  1.3819  2.0726 -2.3173
 7435SOL     OW25196   0.390   2.011   5.787 -0.3213  0.0072 -0.0328
 7435SOL    HW125197   0.323   1.993   5.722 -0.0231  0.5121 -0.4813
 7435SOL    HW225198   0.471   1.977   5.749  0.0560  1.2926 -0.4271
 7436SOL     OW25199   1.912   6.015   0.424 -0.2607 -0.5004 -0.8350
 7436SOL    HW125200   1.952   5.963   0.495  0.3389 -0.2002 -0.9480
 7436SOL    HW225201   1.850   6.072   0.469 -0.5807 -0.9771 -0.6569
 7437SOL     OW25202   9.072   8.848   5.227  0.1728  0.2476 -0.2814
 7437SOL    HW125203   9.029   8.763   5.214 -1.1270  0.7838  0.3714
 7437SOL    HW225204   9.038   8.903   5.155 -0.8652  0.8950  0.6715
 7438SOL     OW25205   8.805   2.411   8.353  0.0246 -0.1263  0.2878
 7438SOL    HW125206   8.892   2.428   8.318 -0.4082  0.4992 -0.5351
 7438SOL    HW225207   8.820   2.364   8.434  1.1910  1.2351  0.9127
 7439SOL     OW25208   0.914   0.048   8.780  0.2114  0.3093  0.4048
 7439SOL    HW125209   0.970   0.005   8.845  0.7727 -0.4636 -0.5627
 7439SOL    HW225210   0.827   0.010   8.795  0.2752  0.3371  0.8757
 7440SOL     OW25211   6.302   8.128   3.951  0.3631  0.7103  0.4202
 7440SOL    HW125212   6.276   8.175   4.030 -0.2618 -1.4904  1.6312
 7440SOL    HW225213   6.227   8.070   3.932  2.3386 -2.3657  1.2064
 7441SOL     OW25214   7.564   6.971   5.530 -0.0156 -0.2955 -0.1677
 7441SOL    HW125215   7.565   6.938   5.620  0.5239 -0.0530 -0.0831
 7441SOL    HW225216   7.506   7.047   5.533 -0.5280 -0.6777 -0.1699
 7442SOL     OW25217   1.975   7.734   8.808 -0.5866  0.5693  0.1716
 7442SOL    HW125218   2.051   7.676   8.806 -2.8962 -2.7713  0.7778
 7442SOL    HW225219   1.969   7.768   8.719  0.9017 -0.0772 -0.2124
 7443SOL     OW25220   7.051   8.367   9.091  0.5174  0.3492 -0.0487
 7443SOL    HW125221   6.981   8.413   9.136 -0.2987  0.8724 -1.7799
 7443SOL    HW225222   7.048   8.278   9.127 -0.5650  0.5656  0.4338
 7444SOL     OW25223   8.057   3.610   3.942 -0.2658 -0.1221  0.0431
 7444SOL    HW125224   8.061   3.523   3.902  0.0678 -0.7909  1.4771
 7444SOL    HW225225   8.057   3.594   4.036 -1.8052  1.3736  0.3526
 7445SOL     OW25226   2.387   6.720   1.064 -0.1977  0.1357 -0.2459
 7445SOL    HW125227   2.320   6.656   1.089 -0.1954  0.2690  0.1093
 7445SOL    HW225228   2.344   6.776   1.000 -0.0402 -0.5375 -0.9540
 7446SOL     OW25229   4.868   6.722   5.851 -0.4356 -0.1149  0.0461
 7446SOL    HW125230   4.801   6.726   5.782  0.0423 -1.5061 -0.5353
 7446SOL    HW225231   4.948   6.696   5.804  0.2321  0.3303  0.9186
 7447SOL     OW25232   5.972   3.493   6.671 -0.5819 -0.2132  0.1372
 7447SOL    HW125233   6.034   3.446   6.615 -0.1805 -0.2199  0.5755
 7447SOL    HW225234   5.911   3.534   6.611 -0.6720 -0.9331 -0.2743
 7448SOL     OW25235   8.404   1.348   3.174 -0.0163 -0.2779  0.4423
 7448SOL    HW125236   8.398   1.253   3.183 -0.9210 -0.3546 -0.7435
 7448SOL    HW225237   8.451   1.362   3.092  1.8243  0.3444  1.5170
 7449SOL     OW25238   8.274   2.955   5.201 -0.2135 -0.0424 -0.6622
 7449SOL    HW125239   8.185   2.964   5.168 -1.1876 -1.9578  1.1857
 7449SOL    HW225240   8.291   3.037   5.247 -1.9567 -0.4529  0.8557
 7450SOL     OW25241   8.264   6.260   2.037 -0.0479  0.0989 -0.3839
 7450SOL    HW125242   8.343   6.269   2.090  1.5499 -0.5708 -2.5283
 7450SOL    HW225243   8.295   6.233   1.951 -2.7922 -2.3398 -0.7625
 7451SOL     OW25244   5.091   1.636   1.792 -0.1251 -0.3212 -0.3511
 7451SOL    HW125245   4.997   1.645   1.774  0.1085  2.3671 -0.7126
 7451SOL    HW225246   5.128   1.721   1.767  2.2296 -0.8969  0.9023
 7452SOL     OW25247   3.639   4.592   7.079  0.1609  0.3442 -0.2906
 7452SOL    HW125248   3.730   4.613   7.057  0.0215  0.8336 -0.4142
 7452SOL    HW225249   3.590   4.670   7.054 -0.1073  0.6170  1.0047
 7453SOL     OW25250   2.389   7.166   2.723  0.7742  0.0840  0.1536
 7453SOL    HW125251   2.476   7.201   2.742  0.1271  1.8103  0.1263
 7453SOL    HW225252   2.398   7.126   2.636  1.8462 -0.9835  0.7299
 7454SOL     OW25253   5.893   2.029   1.519  0.7534 -0.8108 -0.1351
 7454SOL    HW125254   5.916   2.025   1.611 -0.2871  3.9441  0.5519
 7454SOL    HW225255   5.977   2.032   1.473  1.2979 -0.6815  0.8390
 7455SOL     OW25256   7.780   9.131   0.321  0.1091 -0.5575  0.1958
 7455SOL    HW125257   7.849   9.068   0.299  0.3301 -0.9026  1.7417
 7455SOL    HW225258   7.817   9.182   0.393  0.2662  1.9530 -1.5651
 7456SOL     OW25259   0.993   2.604   3.982  0.1049 -0.7915  0.0591
 7456SOL    HW125260   0.972   2.522   4.026  1.3127 -1.1336  0.0511
 7456SOL    HW225261   0.966   2.673   4.043  1.4900 -1.2539  1.2513
 7457SOL     OW25262   7.814   6.918   7.328  0.1656  0.0078 -0.2207
 7457SOL    HW125263   7.868   6.963   7.263  0.0358 -0.4026 -0.6172
 7457SOL    HW225264   7.877   6.872   7.383  0.2942  0.5977  0.1340
 7458SOL     OW25265   2.666   0.521   7.355  0.0666  0.4207  0.0773
 7458SOL    HW125266   2.671   0.426   7.347  0.0872  0.3401  0.9254
 7458SOL    HW225267   2.757   0.548   7.367 -0.1119  0.2896  2.1954
 7459SOL     OW25268   5.970   0.767   5.979  0.2768  0.1196 -0.2217
 7459SOL    HW125269   5.958   0.672   5.981 -1.4915  0.3144  0.2698
 7459SOL    HW225270   6.064   0.780   5.988  0.6427 -1.5969 -1.2288
 7460SOL     OW25271   4.779   7.499   9.057  0.0512 -0.2903 -0.3755
 7460SOL    HW125272   4.781   7.567   8.990  0.5095  0.2249  0.1499
 7460SOL    HW225273   4.820   7.539   9.134 -1.7484 -0.3558  0.6920
 7461SOL     OW25274   4.267   1.059   7.402  0.3191 -0.2008 -0.2005
 7461SOL    HW125275   4.349   1.106   7.414 -0.2719  0.6980  0.4629
 7461SOL    HW225276   4.217   1.077   7.482 -0.3020 -1.1917 -0.3459
 7462SOL     OW25277   7.494   7.668   9.035 -0.6739 -0.3188 -0.0950
 7462SOL    HW125278   7.428   7.735   9.052 -1.1093 -0.8024  0.1516
 7462SOL    HW225279   7.561   7.713   8.983 -1.4622  0.0403 -0.8217
 7463SOL     OW25280   4.521   4.935   9.053  0.1973 -0.0441 -0.3105
 7463SOL    HW125281   4.508   5.019   9.008 -0.5420  0.3740  0.6407
 7463SOL    HW225282   4.441   4.923   9.104  1.0551 -0.4455  0.9818
 7464SOL     OW25283   6.764   7.462   0.283  0.3344 -0.1421  0.4322
 7464SOL    HW125284   6.785   7.549   0.250 -0.5379  0.1660  0.6488
 7464SOL    HW225285   6.848   7.418   0.293  0.9659  1.3692  2.2700
 7465SOL     OW25286   4.044   9.247   8.173  0.2654  0.2847 -0.6506
 7465SOL    HW125287   3.979   9.181   8.150  0.2670  0.2399 -0.5237
 7465SOL    HW225288   4.010   9.328   8.133  0.4031  0.1530 -1.0358
 7466SOL     OW25289   6.891   0.373   6.904 -0.4116  0.1379  0.6436
 7466SOL    HW125290   6.936   0.294   6.935 -0.4859 -0.5091 -0.8067
 7466SOL    HW225291   6.962   0.434   6.882 -0.1647 -0.8362 -1.5263
 7467SOL     OW25292   3.790   2.138   2.768  0.5051 -0.8198 -0.7311
 7467SOL    HW125293   3.766   2.227   2.795 -1.2625 -0.8551 -2.0260
 7467SOL    HW225294   3.825   2.148   2.680  0.8674 -1.3384 -0.6513
 7468SOL     OW25295   2.421   1.419   6.224  0.0891 -0.0315  0.5607
 7468SOL    HW125296   2.387   1.345   6.274 -2.5014  0.4631 -0.2728
 7468SOL    HW225297   2.375   1.496   6.260 -2.3121  0.2911 -2.6633
 7469SOL     OW25298   1.255   1.387   4.245 -0.3959  0.0132  0.1056
 7469SOL    HW125299   1.276   1.479   4.262 -0.3915  0.0591 -0.1478
 7469SOL    HW225300   1.251   1.347   4.332  0.3165  0.0948  0.1805
 7470SOL     OW25301   7.830   8.740   6.025 -0.1554  0.3622 -0.0559
 7470SOL    HW125302   7.866   8.825   6.051 -0.2938  0.3521  0.1653
 7470SOL    HW225303   7.735   8.752   6.032 -0.1965  0.3654 -0.5634
 7471SOL     OW25304   7.759   2.648   5.452  0.8042  0.1463  0.5247
 7471SOL    HW125305   7.719   2.585   5.511  0.4301  0.5997  0.7600
 7471SOL    HW225306   7.751   2.609   5.365 -0.1590  0.2413  0.5672
 7472SOL     OW25307   4.701   5.536   6.771  0.1305  0.0313 -0.7291
 7472SOL    HW125308   4.689   5.510   6.862  1.1749 -0.1732 -0.6420
 7472SOL    HW225309   4.769   5.478   6.737 -0.5045 -0.1519 -1.7608
 7473SOL     OW25310   1.954   4.307   2.949  0.3358  0.2923 -0.2282
 7473SOL    HW125311   1.985   4.349   3.029  0.3333 -1.1815  0.5975
 7473SOL    HW225312   2.034   4.272   2.908  0.1936 -0.1072 -0.1676
 7474SOL     OW25313   6.274   0.227   2.115  0.4485 -0.1247 -0.7741
 7474SOL    HW125314   6.260   0.170   2.190 -0.1094 -0.0091 -0.7813
 7474SOL    HW225315   6.356   0.197   2.076  0.5332 -0.4427 -0.3529
 7475SOL     OW25316   3.082   7.146   0.969 -0.3530  0.5068  0.1228
 7475SOL    HW125317   3.128   7.219   0.927  3.9491 -2.4600 -0.9773
 7475SOL    HW225318   3.028   7.108   0.899 -0.6089  1.1115 -0.0124
 7476SOL     OW25319   5.203   2.155   2.685 -0.0188 -0.2525  0.2801
 7476SOL    HW125320   5.263   2.224   2.711 -1.4721  1.0836  0.2591
 7476SOL    HW225321   5.116   2.196   2.688 -1.1714 -2.5756  2.0587
 7477SOL     OW25322   2.212   3.638   0.366 -0.6327 -0.5743 -0.7046
 7477SOL    HW125323   2.205   3.605   0.455  1.8947  1.5998  0.4389
 7477SOL    HW225324   2.273   3.577   0.323 -0.2676 -0.5053 -0.2950
 7478SOL     OW25325   8.378   4.188   8.379 -0.0178  0.2436 -0.3153
 7478SOL    HW125326   8.419   4.157   8.297  1.6309  0.4152  0.3917
 7478SOL    HW225327   8.380   4.112   8.437 -0.8062  0.2374 -0.2871
 7479SOL     OW25328   3.699   0.172   6.321 -0.3055 -0.2763 -0.1337
 7479SOL    HW125329   3.705   0.116   6.399  1.2566  0.5717  0.3973
 7479SOL    HW225330   3.720   0.259   6.353 -1.4032  0.4155 -1.2012
 7480SOL     OW25331   7.156   7.021   7.357  0.5623  0.5265  0.4087
 7480SOL    HW125332   7.114   6.986   7.435  2.2878  1.1977  1.7257
 7480SOL    HW225333   7.247   7.036   7.384  1.4282  0.0261 -1.9859
 7481SOL     OW25334   5.744   8.703   0.606  0.0835  0.4708  0.0786
 7481SOL    HW125335   5.695   8.743   0.677 -3.3222  0.4830 -2.0697
 7481SOL    HW225336   5.693   8.721   0.527  1.0443 -3.6197 -1.7810
 7482SOL     OW25337   5.152   4.801   4.880 -0.2590  0.2045 -0.9269
 7482SOL    HW125338   5.155   4.760   4.794 -0.3542 -0.8624 -0.4463
 7482SOL    HW225339   5.096   4.743   4.932 -0.4082  0.9588 -0.2131
 7483SOL     OW25340   1.908   7.843   5.257 -0.3601 -0.3982  0.0865
 7483SOL    HW125341   1.893   7.931   5.293 -0.0506  0.1394 -1.0792
 7483SOL    HW225342   1.951   7.795   5.329 -0.6857  0.3412  0.7915
 7484SOL     OW25343   0.108   3.242   7.355 -0.3436  0.0766  1.0852
 7484SOL    HW125344   0.169   3.292   7.409  1.6805  0.5428 -1.4555
 7484SOL    HW225345   0.134   3.151   7.368  0.8247  0.2572  0.1931
 7485SOL     OW25346   0.563   7.937   4.329 -0.1305 -0.5471 -0.0626
 7485SOL    HW125347   0.528   7.848   4.333  0.2105 -0.6682  0.2239
 7485SOL    HW225348   0.502   7.983   4.271 -0.6444 -0.8073  0.2652
 7486SOL     OW25349   1.272   6.234   3.123 -0.5838  0.0043 -0.1001
 7486SOL    HW125350   1.185   6.227   3.162 -1.2474  0.1754 -1.4986
 7486SOL    HW225351   1.323   6.283   3.187 -1.5989  0.1857  0.5920
 7487SOL     OW25352   2.650   6.022   0.432 -0.7313  0.1645  0.0615
 7487SOL    HW125353   2.586   6.091   0.451 -1.8969 -0.8589 -0.0416
 7487SOL    HW225354   2.705   6.059   0.363  0.2777  1.9300  1.7222
 7488SOL     OW25355   8.412   7.843   3.001  0.0045 -0.3053  0.2794
 7488SOL    HW125356   8.453   7.763   2.968 -1.0135 -1.2201  1.1440
 7488SOL    HW225357   8.460   7.914   2.959  1.5571 -1.3483  0.2291
 7489SOL     OW25358   3.908   4.021   7.014 -0.5215 -0.6200 -0.3286
 7489SOL    HW125359   3.967   3.991   7.083  0.0514  2.3036  0.6286
 7489SOL    HW225360   3.964   4.073   6.956 -1.7049  0.1925 -0.7813
 7490SOL     OW25361   7.976   1.980   7.840  0.3687  0.0814  0.0469
 7490SOL    HW125362   7.992   2.074   7.847  0.1441  0.0378  1.2611
 7490SOL    HW225363   7.907   1.962   7.903 -0.2989 -0.7417 -0.8830
 7491SOL     OW25364   4.149   9.047   8.655  0.3085  0.2768 -0.6844
 7491SOL    HW125365   4.128   9.104   8.729  2.0999 -0.7164  0.6836
 7491SOL    HW225366   4.227   9.088   8.615 -0.0425  0.2562 -1.4021
 7492SOL     OW25367   0.404   2.078   0.102  0.0759 -0.2040  0.2879
 7492SOL    HW125368   0.355   2.114   0.176 -1.4641 -0.3983 -0.6002
 7492SOL    HW225369   0.338   2.035   0.048  1.3368 -1.0688 -0.6234
 7493SOL     OW25370   4.664   5.569   1.024  0.3684  0.4355  0.4281
 7493SOL    HW125371   4.741   5.624   1.039 -0.7621  1.8115  1.4905
 7493SOL    HW225372   4.679   5.530   0.938  2.6151  0.0124  0.9535
 7494SOL     OW25373   5.086   0.652   7.789 -0.0331  0.0493 -0.6897
 7494SOL    HW125374   5.072   0.744   7.767  1.0286  0.9962  2.1919
 7494SOL    HW225375   5.176   0.634   7.762  1.8243  1.6569  3.6370
 7495SOL     OW25376   5.982   6.571   6.328 -0.5266 -0.2514 -0.5416
 7495SOL    HW125377   5.974   6.550   6.235 -0.9367  0.2631 -0.6256
 7495SOL    HW225378   5.917   6.516   6.371 -0.5363 -0.2783 -0.5905
 7496SOL     OW25379   6.637   0.416   0.434  0.1409 -0.7276 -0.0274
 7496SOL    HW125380   6.676   0.473   0.500  0.7985 -0.9704 -0.1944
 7496SOL    HW225381   6.571   0.366   0.481 -0.3415  0.0499  0.1549
 7497SOL     OW25382   3.941   2.783   0.402  0.0556  0.5002  0.2272
 7497SOL    HW125383   4.009   2.812   0.463 -1.1556  0.9314  1.3926
 7497SOL    HW225384   3.863   2.770   0.456 -0.2190 -2.2404 -0.6900
 7498SOL     OW25385   0.110   8.920   2.805 -0.2476 -0.0152  0.3489
 7498SOL    HW125386   0.104   8.949   2.896 -1.0048  1.7290 -0.2174
 7498SOL    HW225387   0.200   8.886   2.797 -0.6236 -1.5932  2.0915
 7499SOL     OW25388   7.279   5.992   2.817 -0.0626 -0.5394 -0.1217
 7499SOL    HW125389   7.320   5.970   2.734 -0.8680 -1.3921 -0.3128
 7499SOL    HW225390   7.331   5.945   2.882  0.1538 -0.4276 -0.2140
 7500SOL     OW25391   6.078   3.782   1.847 -0.3916 -0.5600  0.1626
 7500SOL    HW125392   6.104   3.806   1.936  0.9860 -2.5946  0.3623
 7500SOL    HW225393   6.080   3.864   1.798  1.9958  0.1192  1.2688
 7501SOL     OW25394   6.619   1.474   7.312  0.5201 -0.1668 -0.3050
 7501SOL    HW125395   6.614   1.418   7.389  0.5318 -2.0272 -1.5933
 7501SOL    HW225396   6.685   1.432   7.256  1.0584  1.5414 -1.0426
 7502SOL     OW25397   6.970   5.945   3.792  0.0470 -0.2640  0.1207
 7502SOL    HW125398   7.015   6.001   3.854  0.9468 -0.3380 -0.4453
 7502SOL    HW225399   6.966   5.997   3.711 -0.6710 -0.3527  0.0912
 7503SOL     OW25400   0.064   0.046   5.954  0.5043  0.1032 -0.2433
 7503SOL    HW125401   0.004  -0.028   5.970 -0.2458  0.6433 -0.4799
 7503SOL    HW225402   0.005   0.121   5.941  1.2614  0.8231  0.4190
 7504SOL     OW25403   7.000   2.307   5.514  0.5898 -0.2615 -0.0841
 7504SOL    HW125404   6.994   2.355   5.596  1.1719 -0.1222 -0.1153
 7504SOL    HW225405   6.970   2.368   5.447  1.6265  0.1797 -0.1632
 7505SOL     OW25406   6.048   8.559   7.281  0.0780 -0.2813 -0.9994
 7505SOL    HW125407   5.979   8.517   7.229  0.3072 -1.2096 -0.5705
 7505SOL    HW225408   6.001   8.619   7.340 -0.4613 -1.5618 -0.0832
 7506SOL     OW25409   7.843   0.856   0.185  0.1023 -0.4049  0.5982
 7506SOL    HW125410   7.803   0.942   0.176 -3.0645 -1.6640  1.4495
 7506SOL    HW225411   7.872   0.853   0.276  0.0183 -0.3151  0.6289
 7507SOL     OW25412   6.607   3.302   2.195 -0.4164  0.0050 -0.1134
 7507SOL    HW125413   6.684   3.335   2.150  0.0172  0.0617  0.6610
 7507SOL    HW225414   6.620   3.207   2.200  0.4202  0.1686  1.4732
 7508SOL     OW25415   5.542   1.090   7.783  0.3557 -0.8735 -0.2284
 7508SOL    HW125416   5.537   1.163   7.845  2.0697 -0.1058 -0.9196
 7508SOL    HW225417   5.477   1.110   7.716  0.8384  0.0697 -0.4299
 7509SOL     OW25418   1.142   3.564   1.477  0.2166  0.1809  0.0302
 7509SOL    HW125419   1.199   3.632   1.442  0.2510 -0.8114 -2.0352
 7509SOL    HW225420   1.082   3.544   1.405 -0.1018 -1.6076  0.7308
 7510SOL     OW25421   5.018   1.624   7.661 -0.5355 -0.5280 -0.0815
 7510SOL    HW125422   5.077   1.684   7.615  0.7257 -1.6907 -0.0378
 7510SOL    HW225423   4.939   1.622   7.607  0.1473 -0.3037 -1.1075
 7511SOL     OW25424   0.033   7.854   4.873 -0.1700  0.0434  0.4387
 7511SOL    HW125425   0.015   7.761   4.857 -1.3378  0.3641 -0.1851
 7511SOL    HW225426   0.002   7.898   4.795  0.9855  0.9149  0.4445
 7512SOL     OW25427   4.003   5.075   6.907  0.8385  0.6888 -0.0536
 7512SOL    HW125428   4.054   5.119   6.838 -0.2359  0.5494 -0.9716
 7512SOL    HW225429   3.923   5.128   6.915  0.3024 -0.1194  0.0440
 7513SOL     OW25430   7.050   9.040   0.494 -0.0318 -0.0268 -0.2920
 7513SOL    HW125431   7.075   9.047   0.402  0.8548 -0.7133 -0.1181
 7513SOL    HW225432   6.998   8.959   0.499 -0.0157 -0.0301 -0.1718
 7514SOL     OW25433   3.134   0.818   7.959 -0.2698  0.1583 -0.4993
 7514SOL    HW125434   3.126   0.911   7.940 -0.1534  0.5708  1.2707
 7514SOL    HW225435   3.048   0.782   7.938 -0.8292  0.9798  0.2735
 7515SOL     OW25436   1.843   0.208   2.311 -0.2126 -0.1183  0.0743
 7515SOL    HW125437   1.758   0.212   2.355 -0.6439 -0.2163 -0.7296
 7515SOL    HW225438   1.877   0.121   2.330 -1.4264 -1.0188 -1.6106
 7516SOL     OW25439   8.571   3.966   4.711 -0.3656 -0.2042 -0.0399
 7516SOL    HW125440   8.594   4.057   4.696  0.6647 -0.3896  0.3368
 7516SOL    HW225441   8.592   3.951   4.804 -0.2234 -0.9057 -0.1765
 7517SOL     OW25442   6.872   6.543   8.890  0.3345  0.1125 -0.7567
 7517SOL    HW125443   6.935   6.597   8.937  0.3356 -1.2431  0.9287
 7517SOL    HW225444   6.896   6.453   8.912 -1.9239 -0.4678 -0.3524
 7518SOL     OW25445   6.935   2.957   2.832  0.3982  0.4328 -0.6809
 7518SOL    HW125446   6.976   2.921   2.911 -1.2263 -0.2329 -0.1158
 7518SOL    HW225447   6.959   3.050   2.833 -0.0506  0.5646  0.9152
 7519SOL     OW25448   4.907   5.568   2.038 -0.4024  0.1211  0.1569
 7519SOL    HW125449   4.911   5.592   1.945  0.1808  0.1925  0.1967
 7519SOL    HW225450   4.935   5.648   2.084  2.4010 -0.8146  0.2680
 7520SOL     OW25451   2.521   0.710   1.071 -0.2432  0.4592  0.8740
 7520SOL    HW125452   2.549   0.642   1.010 -1.3318  0.0442  0.8177
 7520SOL    HW225453   2.476   0.663   1.141 -0.6223  1.0804  1.0536
 7521SOL     OW25454   2.759   1.850   5.054  0.3830 -0.5072  0.4935
 7521SOL    HW125455   2.730   1.764   5.085 -1.4599 -0.0374  0.1882
 7521SOL    HW225456   2.706   1.866   4.976  0.8388  0.8241  0.4359
 7522SOL     OW25457   6.741   5.422   7.229  0.5051 -0.0631  0.7892
 7522SOL    HW125458   6.829   5.388   7.241  0.9977  0.4172 -1.1286
 7522SOL    HW225459   6.739   5.504   7.279  2.5016  1.9762 -2.1790
 7523SOL     OW25460   5.004   3.159   1.008 -0.0070  0.2289  0.9434
 7523SOL    HW125461   4.928   3.102   1.017  0.3251 -0.0655  2.1624
 7523SOL    HW225462   5.063   3.111   0.950 -1.1665  0.9447 -0.8840
 7524SOL     OW25463   0.426   8.670   0.597  0.0900 -0.0572 -0.2395
 7524SOL    HW125464   0.376   8.740   0.639 -0.3079  0.3332 -1.3111
 7524SOL    HW225465   0.438   8.604   0.665  1.2519  1.4279  1.0622
 7525SOL     OW25466   7.722   7.665   6.802 -0.2226 -0.3120 -0.1640
 7525SOL    HW125467   7.734   7.579   6.842 -2.0972  0.4332  2.2823
 7525SOL    HW225468   7.803   7.681   6.755  1.4725 -2.1012  1.9191
 7526SOL     OW25469   5.058   1.464   1.496 -0.1266  0.4634  0.2980
 7526SOL    HW125470   5.038   1.438   1.586 -1.5570  1.2822  0.2360
 7526SOL    HW225471   5.042   1.385   1.445  1.6094 -0.2983  0.8221
 7527SOL     OW25472   2.666   5.359   3.218  0.4177  0.0386  0.3198
 7527SOL    HW125473   2.602   5.347   3.148  1.7888  0.0782 -0.9960
 7527SOL    HW225474   2.702   5.271   3.233  0.6338  0.1510  0.4787
 7528SOL     OW25475   6.307   4.068   0.564 -0.0271 -0.4800 -0.0908
 7528SOL    HW125476   6.216   4.039   0.571 -0.0817 -0.2555  0.1240
 7528SOL    HW225477   6.359   3.996   0.601 -0.2004 -0.0496  1.0195
 7529SOL     OW25478   3.895   6.044   2.326  0.6070 -0.0736  0.3718
 7529SOL    HW125479   3.958   6.028   2.255  1.5214  2.5443  0.5125
 7529SOL    HW225480   3.933   5.999   2.401  2.5973  1.7597  0.5493
 7530SOL     OW25481   2.779   1.981   3.880 -0.5554 -0.4701 -0.0961
 7530SOL    HW125482   2.820   1.994   3.966  0.5544  0.1123 -0.6897
 7530SOL    HW225483   2.724   2.058   3.869  1.6366  1.0445 -1.1632
 7531SOL     OW25484   1.548   1.855   4.286  0.1000  0.2915  0.3291
 7531SOL    HW125485   1.454   1.855   4.266  0.0427  0.2356  0.5972
 7531SOL    HW225486   1.564   1.942   4.323 -0.4326 -0.6502  2.9829
 7532SOL     OW25487   8.765   4.799   1.275 -0.1607 -0.2439 -0.6568
 7532SOL    HW125488   8.815   4.737   1.328 -0.4968  1.3079  1.6255
 7532SOL    HW225489   8.830   4.863   1.246 -0.2346 -0.1939 -0.7101
 7533SOL     OW25490   4.267   2.678   7.333  0.4131  0.0540  0.1223
 7533SOL    HW125491   4.232   2.760   7.365  0.8615 -0.3048  1.6268
 7533SOL    HW225492   4.254   2.616   7.406  1.3485 -0.8362 -0.4318
 7534SOL     OW25493   6.345   7.620   5.004 -0.5677 -0.0530 -0.3108
 7534SOL    HW125494   6.344   7.709   4.968  1.4878 -0.2440 -0.9659
 7534SOL    HW225495   6.402   7.571   4.945 -1.1319 -1.6581  0.4226
 7535SOL     OW25496   2.699   0.733   5.645  0.2108  0.5802 -0.0120
 7535SOL    HW125497   2.605   0.723   5.637  0.1248  0.4652  0.9573
 7535SOL    HW225498   2.724   0.794   5.576 -0.6998  1.2705  0.2564
 7536SOL     OW25499   2.327   8.957   8.102  0.0666 -0.2041 -0.2895
 7536SOL    HW125500   2.235   8.984   8.103 -0.0937 -0.7436  0.5139
 7536SOL    HW225501   2.362   8.993   8.020 -0.2424  2.0282  0.5111
 7537SOL     OW25502   2.749   3.757   8.766 -0.5742 -0.0330 -0.1510
 7537SOL    HW125503   2.839   3.727   8.780 -0.3337  0.5166 -0.4745
 7537SOL    HW225504   2.741   3.836   8.818 -1.2082 -0.6436  0.7044
 7538SOL     OW25505   1.509   2.117   0.448  0.3494  0.0860 -0.2094
 7538SOL    HW125506   1.452   2.167   0.390  1.0733 -0.2508 -1.2365
 7538SOL    HW225507   1.492   2.153   0.535 -2.6896 -1.0911 -0.1508
 7539SOL     OW25508   0.147   4.253   4.028 -0.4243 -0.2259 -0.4518
 7539SOL    HW125509   0.158   4.304   4.109 -2.0806  1.0769 -0.9854
 7539SOL    HW225510   0.055   4.226   4.028  0.2933 -2.9616 -0.4038
 7540SOL     OW25511   0.471   0.314   6.011  0.0891  0.2122  0.1106
 7540SOL    HW125512   0.433   0.314   6.099  1.4173  3.0471  0.7947
 7540SOL    HW225513   0.410   0.261   5.959 -1.3327 -0.6299  2.4670
 7541SOL     OW25514   1.631   4.476   7.705  0.5139 -0.1276  0.1993
 7541SOL    HW125515   1.720   4.505   7.727  0.3309 -0.2706  1.1874
 7541SOL    HW225516   1.599   4.542   7.644  0.7685  0.7428  0.9840
 7542SOL     OW25517   0.065   6.077   0.582 -0.2157  0.5196  0.4369
 7542SOL    HW125518   0.102   6.124   0.507 -1.0910  2.1462  0.9686
 7542SOL    HW225519   0.132   6.085   0.650  1.2729 -2.2856 -0.5255
 7543SOL     OW25520   5.861   7.715   6.690  0.0287  0.7571 -0.2277
 7543SOL    HW125521   5.854   7.668   6.608  0.0888  0.7330 -0.2185
 7543SOL    HW225522   5.896   7.651   6.752 -0.8989  0.4914  0.0475
 7544SOL     OW25523   7.402   7.368   2.405 -0.6497  0.2367  0.1873
 7544SOL    HW125524   7.367   7.361   2.494 -0.4945  1.9314  0.4109
 7544SOL    HW225525   7.346   7.433   2.362  0.3019  0.6912 -0.4071
 7545SOL     OW25526   4.829   4.223   6.982  0.1503 -0.0304  0.8832
 7545SOL    HW125527   4.925   4.217   6.985  0.1252 -0.1494  1.6603
 7545SOL    HW225528   4.810   4.315   6.999  0.1559  0.2252 -0.3926
 7546SOL     OW25529   7.701   4.598   0.195  0.0825  0.7778 -0.1722
 7546SOL    HW125530   7.787   4.557   0.195  0.6223  1.8803 -0.4763
 7546SOL    HW225531   7.719   4.691   0.209 -1.0323  1.0816 -0.6906
 7547SOL     OW25532   2.439   8.915   7.497  0.3795  0.2277 -0.5610
 7547SOL    HW125533   2.441   9.007   7.526  1.3132 -0.1262  0.5683
 7547SOL    HW225534   2.526   8.882   7.519 -0.4836 -1.3926  0.6183
 7548SOL     OW25535   4.425   0.995   3.931 -0.2301  0.0309  0.3150
 7548SOL    HW125536   4.398   0.918   3.981 -2.3702  0.0191 -0.7208
 7548SOL    HW225537   4.347   1.050   3.929  0.6364  1.2837 -0.6915
 7549SOL     OW25538   5.304   7.018   1.279 -0.3563  0.3501 -1.0111
 7549SOL    HW125539   5.326   6.998   1.188  0.5146 -0.8600 -0.5594
 7549SOL    HW225540   5.237   6.955   1.303  0.6009 -0.4359 -0.3313
 7550SOL     OW25541   8.726   8.648   2.390  0.5695 -0.0550 -0.2727
 7550SOL    HW125542   8.696   8.711   2.325  2.3212  0.3961 -0.7111
 7550SOL    HW225543   8.646   8.606   2.422 -0.3669 -0.1368 -2.5391
 7551SOL     OW25544   5.978   7.684   1.144  0.0359  1.2481 -0.2053
 7551SOL    HW125545   6.017   7.770   1.159  1.5127  0.6693 -0.5210
 7551SOL    HW225546   6.050   7.623   1.160 -0.2967  0.2098 -2.3801
 7552SOL     OW25547   7.561   8.658   2.177 -0.4063 -0.5484 -0.5309
 7552SOL    HW125548   7.469   8.634   2.191 -1.3177  2.3152 -1.1156
 7552SOL    HW225549   7.605   8.631   2.258 -2.1690 -0.0756  0.6392
 7553SOL     OW25550   2.258   7.938   7.961  0.3335  0.2155 -0.2587
 7553SOL    HW125551   2.192   7.915   7.896  0.8308 -2.2247  0.0261
 7553SOL    HW225552   2.265   8.034   7.955 -1.9414  0.3585 -1.4890
 7554SOL     OW25553   2.392   5.323   4.613  0.3835  0.0179  0.6410
 7554SOL    HW125554   2.388   5.297   4.521 -0.0716 -1.2426  0.9869
 7554SOL    HW225555   2.366   5.415   4.613 -1.8755 -0.5464 -0.2836
 7555SOL     OW25556   7.083   0.457   5.462 -0.5782 -0.2191  0.0234
 7555SOL    HW125557   7.091   0.548   5.432 -2.1829 -0.2648 -0.6418
 7555SOL    HW225558   7.123   0.457   5.549 -0.0132  0.9845 -0.2097
 7556SOL     OW25559   3.131   5.467   5.202  0.5046 -0.0601  0.0472
 7556SOL    HW125560   3.149   5.414   5.125 -1.0937 -0.8437  0.1636
 7556SOL    HW225561   3.197   5.439   5.266  2.1717  0.9628 -1.1498
 7557SOL     OW25562   7.666   2.798   0.923 -0.3395 -0.4281 -0.0683
 7557SOL    HW125563   7.631   2.818   1.010  1.2253  0.3155  0.4273
 7557SOL    HW225564   7.672   2.702   0.921  0.1986 -0.4304  0.9150
 7558SOL     OW25565   5.312   3.757   6.715 -0.6476  0.7891 -0.0871
 7558SOL    HW125566   5.371   3.828   6.692  0.6124 -0.3171 -0.3751
 7558SOL    HW225567   5.319   3.750   6.811 -0.2870  0.6449 -0.1234
 7559SOL     OW25568   3.903   5.623   4.462  0.2831 -0.3383  0.5931
 7559SOL    HW125569   3.858   5.660   4.538 -0.0869  0.4735 -0.0119
 7559SOL    HW225570   3.993   5.656   4.469  0.6699 -1.5074  1.4956
 7560SOL     OW25571   4.264   3.810   2.086  0.2847  0.0590 -0.0761
 7560SOL    HW125572   4.213   3.851   2.156 -0.8243 -1.4338  0.0410
 7560SOL    HW225573   4.313   3.882   2.046 -1.3925  1.4368  0.2549
 7561SOL     OW25574   2.989   7.426   1.238  1.0017 -0.0027 -0.5303
 7561SOL    HW125575   2.959   7.389   1.155  1.1522  1.2870 -1.1916
 7561SOL    HW225576   2.974   7.520   1.229  3.8355  0.5661 -0.3322
 7562SOL     OW25577   2.523   4.209   3.027 -0.1208  0.3909 -0.5868
 7562SOL    HW125578   2.457   4.199   3.096  1.4301  1.4450  1.1573
 7562SOL    HW225579   2.603   4.171   3.065  1.1236  2.2351 -1.2072
 7563SOL     OW25580   8.023   3.305   6.305 -0.2985 -0.3425 -0.0266
 7563SOL    HW125581   8.118   3.303   6.315 -0.2926 -1.3496 -0.1874
 7563SOL    HW225582   8.002   3.398   6.294  0.7466 -0.1895 -0.8542
 7564SOL     OW25583   7.916   4.542   2.708  0.6849  0.1721  0.2133
 7564SOL    HW125584   7.935   4.591   2.628  0.2215 -0.0257 -0.0220
 7564SOL    HW225585   7.990   4.561   2.766  1.0023  0.3536 -0.2447
 7565SOL     OW25586   2.898   1.065   0.701 -0.2325  0.2548 -0.4144
 7565SOL    HW125587   2.818   1.085   0.750 -1.5169  0.6289 -2.5478
 7565SOL    HW225588   2.964   1.126   0.736 -0.6329 -0.5307  1.8566
 7566SOL     OW25589   8.777   6.758   4.222  0.1012 -0.2020 -0.0787
 7566SOL    HW125590   8.683   6.776   4.227  0.5222  2.0743  0.7781
 7566SOL    HW225591   8.795   6.752   4.128 -0.6520  0.9033 -0.3119
 7567SOL     OW25592   6.763   6.906   1.078 -0.6458  0.0202  0.5530
 7567SOL    HW125593   6.793   6.853   1.004 -0.9808  1.4220 -0.6327
 7567SOL    HW225594   6.825   6.887   1.148 -0.1095 -1.0734 -0.1806
 7568SOL     OW25595   6.296   6.149   0.106  0.3659 -0.2750 -0.5309
 7568SOL    HW125596   6.265   6.061   0.128 -0.8903 -0.4646 -2.7403
 7568SOL    HW225597   6.217   6.203   0.109  0.8574  0.4698 -0.6973
 7569SOL     OW25598   4.942   3.372   2.726  0.0812 -0.0859  0.0166
 7569SOL    HW125599   4.931   3.277   2.734  1.4316 -0.1965  0.9305
 7569SOL    HW225600   4.912   3.407   2.810  1.0180  0.1246  0.2825
 7570SOL     OW25601   1.431   6.618   2.369  0.3188 -0.1939 -0.2674
 7570SOL    HW125602   1.405   6.528   2.351  2.3857 -0.9145  0.0106
 7570SOL    HW225603   1.361   6.672   2.332 -2.5435 -1.8893  2.1800
 7571SOL     OW25604   3.321   2.017   6.217 -0.1656  0.2386 -1.0139
 7571SOL    HW125605   3.316   1.925   6.192  1.2291 -0.5163  1.2581
 7571SOL    HW225606   3.391   2.054   6.163 -1.0979  0.1857 -2.3331
 7572SOL     OW25607   2.283   0.518   7.328  0.6966 -0.3023  0.7704
 7572SOL    HW125608   2.360   0.471   7.297  0.9735  0.1035  0.8283
 7572SOL    HW225609   2.286   0.509   7.423 -0.4768 -2.0521  0.6927
 7573SOL     OW25610   7.429   1.920   0.287  0.0633 -0.3238  0.2584
 7573SOL    HW125611   7.496   1.853   0.282  1.9268  1.4658 -0.0598
 7573SOL    HW225612   7.405   1.924   0.380  0.2871 -1.0597  0.3515
 7574SOL     OW25613   6.240   1.053   4.934 -0.0286  0.3094  0.1612
 7574SOL    HW125614   6.212   1.082   4.847 -1.3486  2.1599  1.1265
 7574SOL    HW225615   6.312   1.111   4.957  1.3271 -1.1358 -0.2340
 7575SOL     OW25616   2.821   1.858   2.303 -0.0492 -0.4568  0.3737
 7575SOL    HW125617   2.774   1.881   2.384  1.6588  1.3743  0.9280
 7575SOL    HW225618   2.755   1.816   2.249 -1.1281 -2.3280  2.9292
 7576SOL     OW25619   8.944   0.930   3.044 -0.5074 -0.0669  0.4537
 7576SOL    HW125620   8.887   1.003   3.069 -0.1478  0.3492  0.0650
 7576SOL    HW225621   9.030   0.970   3.032 -0.6445 -0.2327 -1.4072
 7577SOL     OW25622   7.238   8.412   2.907 -0.1875 -0.1142  0.3754
 7577SOL    HW125623   7.172   8.392   2.841 -1.1986 -2.1580  1.9066
 7577SOL    HW225624   7.319   8.375   2.871 -0.2953  0.4584 -0.5134
 7578SOL     OW25625   3.365   1.180   3.858 -0.3411  0.8847  0.1926
 7578SOL    HW125626   3.294   1.143   3.910  2.6800 -1.4770  3.1296
 7578SOL    HW225627   3.374   1.270   3.889 -1.4199  0.8930  0.4983
 7579SOL     OW25628   9.250   2.757   0.097 -0.3425 -0.5608 -0.2524
 7579SOL    HW125629   9.337   2.796   0.103 -0.0160 -1.0876 -1.3356
 7579SOL    HW225630   9.217   2.757   0.187  1.3105 -1.6192  0.3879
 7580SOL     OW25631   0.322   2.183   3.364  0.9698 -0.0078  0.2858
 7580SOL    HW125632   0.287   2.262   3.406 -1.5370 -1.3421  0.9414
 7580SOL    HW225633   0.380   2.144   3.430  0.5532  0.2272  0.8000
 7581SOL     OW25634   4.698   1.561   3.837 -0.3566  0.0115 -0.0329
 7581SOL    HW125635   4.676   1.543   3.928 -0.9792  0.5872 -0.0661
 7581SOL    HW225636   4.631   1.622   3.807 -1.0817 -1.3652 -1.3493
 7582SOL     OW25637   1.419   7.739   4.955  0.7256  0.0243 -0.0764
 7582SOL    HW125638   1.415   7.645   4.974  0.7214 -0.0643 -0.4920
 7582SOL    HW225639   1.441   7.743   4.862  2.6165  0.4274  0.3370
 7583SOL     OW25640   3.226   3.461   3.492 -0.0326 -0.4878 -0.0996
 7583SOL    HW125641   3.229   3.442   3.586 -0.5090 -0.9629 -0.1748
 7583SOL    HW225642   3.285   3.535   3.481  1.5473 -1.6542  0.2762
 7584SOL     OW25643   0.864   0.773   3.045  0.2176  0.6648 -0.4513
 7584SOL    HW125644   0.907   0.817   2.972 -1.4895  4.5452  0.6296
 7584SOL    HW225645   0.906   0.809   3.123 -0.6187 -0.4217  0.5474
 7585SOL     OW25646   1.886   0.070   4.754 -0.9646 -0.4744 -0.0752
 7585SOL    HW125647   1.881   0.001   4.688  0.4893  0.0196 -0.7543
 7585SOL    HW225648   1.930   0.028   4.828 -1.4065 -0.6694  0.0790
 7586SOL     OW25649   0.798   3.927   0.529  0.0133  0.5024 -0.4707
 7586SOL    HW125650   0.727   3.930   0.465 -0.5526  0.1155  0.1297
 7586SOL    HW225651   0.799   4.015   0.567  1.6690  1.3800 -2.3910
 7587SOL     OW25652   7.276   1.430   3.334  0.6296 -0.1676 -0.1249
 7587SOL    HW125653   7.241   1.445   3.422 -0.3752 -1.0669 -0.3471
 7587SOL    HW225654   7.350   1.489   3.327  0.6432  0.0066  1.2820
 7588SOL     OW25655   7.967   1.883   7.565 -0.4894  0.9899  0.4939
 7588SOL    HW125656   7.895   1.823   7.544 -0.1474  0.3052  1.2423
 7588SOL    HW225657   7.955   1.905   7.657  0.3269  0.7630  0.6656
 7589SOL     OW25658   2.506   6.063   5.077  0.2666  0.2999  0.4659
 7589SOL    HW125659   2.502   6.157   5.093  1.4971  0.4489 -0.0308
 7589SOL    HW225660   2.448   6.049   5.001  0.7606  0.7883 -0.0078
 7590SOL     OW25661   4.311   6.492   7.551 -0.7085 -0.1003  0.6736
 7590SOL    HW125662   4.245   6.533   7.606 -1.1847  0.3761 -0.2383
 7590SOL    HW225663   4.322   6.552   7.477  1.8410  0.5902  1.5164
 7591SOL     OW25664   7.679   8.493   2.362 -0.3668 -0.0762 -0.4011
 7591SOL    HW125665   7.650   8.402   2.360 -0.3705 -0.0853  0.0934
 7591SOL    HW225666   7.762   8.492   2.314 -0.6618 -0.2310 -0.9204
 7592SOL     OW25667   6.395   4.481   5.995 -0.7271  0.0560 -0.1437
 7592SOL    HW125668   6.371   4.551   6.056 -1.2966 -0.7529  0.5929
 7592SOL    HW225669   6.483   4.504   5.966 -0.5475  0.6179  0.7744
 7593SOL     OW25670   1.926   8.197   8.724  0.1015 -0.1976  0.3023
 7593SOL    HW125671   1.923   8.212   8.818  0.2218 -0.4190  0.3400
 7593SOL    HW225672   1.866   8.124   8.709 -0.3952  0.2380  0.1274
 7594SOL     OW25673   0.712   7.034   4.805  0.4484 -0.2621  0.1608
 7594SOL    HW125674   0.716   6.959   4.865 -0.8850 -0.5696 -0.0857
 7594SOL    HW225675   0.647   7.007   4.739  1.9671 -0.0024 -1.5292
 7595SOL     OW25676   3.814   8.614   6.841  0.0374 -0.2240 -0.5313
 7595SOL    HW125677   3.828   8.661   6.923  2.5462  2.8486 -2.4295
 7595SOL    HW225678   3.885   8.550   6.838  1.1968  1.0344 -1.0765
 7596SOL     OW25679   2.334   4.239   5.359 -0.0252  0.2117 -0.5510
 7596SOL    HW125680   2.358   4.228   5.451  2.0679  0.3733 -1.0382
 7596SOL    HW225681   2.246   4.278   5.362  0.2000  0.6861  1.3746
 7597SOL     OW25682   6.551   4.431   0.564 -0.1606 -0.6305 -0.1394
 7597SOL    HW125683   6.605   4.405   0.638 -0.6605 -0.3666  0.3188
 7597SOL    HW225684   6.568   4.363   0.498  0.9643 -0.3832 -0.1237
 7598SOL     OW25685   8.166   9.114   8.443 -0.4249  0.1447  0.2065
 7598SOL    HW125686   8.072   9.128   8.431 -0.7885 -1.5960  0.6868
 7598SOL    HW225687   8.177   9.106   8.538  0.3967  1.3426  0.2375
 7599SOL     OW25688   6.250   6.081   6.030 -0.0573 -0.1288  0.2115
 7599SOL    HW125689   6.336   6.038   6.034 -0.1006 -0.3799 -0.9373
 7599SOL    HW225690   6.263   6.155   5.971 -1.0941 -1.4339 -1.7679
 7600SOL     OW25691   0.456   7.526   3.694  0.1372  0.1632  0.0491
 7600SOL    HW125692   0.492   7.438   3.693 -0.4435 -0.0815  0.0393
 7600SOL    HW225693   0.392   7.527   3.623 -0.5921  0.2655  0.6880
 7601SOL     OW25694   6.246   1.910   2.560 -0.3745  0.3752  0.0185
 7601SOL    HW125695   6.171   1.926   2.617  0.7645  1.0372  1.3739
 7601SOL    HW225696   6.228   1.824   2.522 -2.9660  1.4729 -1.5969
 7602SOL     OW25697   4.437   1.189   4.721  0.0986  0.0710  0.5528
 7602SOL    HW125698   4.366   1.141   4.679 -0.1390  0.4504  0.5232
 7602SOL    HW225699   4.488   1.226   4.649  0.8981 -0.9970  0.5330
 7603SOL     OW25700   1.572   0.848   3.568 -0.4093  0.0189 -0.3542
 7603SOL    HW125701   1.577   0.943   3.558 -1.5311  0.1057 -0.1892
 7603SOL    HW225702   1.635   0.814   3.504 -1.5462  0.8067 -1.9617
 7604SOL     OW25703   0.365   7.113   1.202  0.3475 -0.7267 -0.4983
 7604SOL    HW125704   0.287   7.059   1.209 -0.4183  0.3322 -0.6527
 7604SOL    HW225705   0.384   7.140   1.292  0.1034 -0.3980 -0.5432
 7605SOL     OW25706   5.976   4.988   6.827  0.4484 -0.0930  0.8573
 7605SOL    HW125707   5.908   5.044   6.864  0.8454  0.2964  1.0023
 7605SOL    HW225708   5.961   4.902   6.865  0.8346  0.2953  1.9088
 7606SOL     OW25709   7.607   3.426   0.040 -0.0299  0.1641 -0.0466
 7606SOL    HW125710   7.692   3.468   0.030  0.5893 -0.6570  1.3213
 7606SOL    HW225711   7.626   3.332   0.034 -0.6947 -0.0629  1.0016
 7607SOL     OW25712   2.835   1.068   2.923 -1.0817 -0.2900 -0.0464
 7607SOL    HW125713   2.760   1.123   2.901 -0.1827  1.6198  1.3273
 7607SOL    HW225714   2.902   1.130   2.953  0.6761 -2.0097 -0.2096
 7608SOL     OW25715   8.357   5.160   5.346 -0.3571  0.0357 -0.2260
 7608SOL    HW125716   8.346   5.066   5.332 -2.0338  0.2343 -0.5154
 7608SOL    HW225717   8.401   5.167   5.431 -0.1523 -1.0085 -0.2335
 7609SOL     OW25718   8.763   3.420   8.172  0.1025  0.0401  0.2865
 7609SOL    HW125719   8.782   3.359   8.244 -0.3597 -0.1345  0.2681
 7609SOL    HW225720   8.699   3.373   8.118  1.2869 -0.3120 -0.8737
 7610SOL     OW25721   5.238   2.133   5.056  0.5609 -0.0816 -0.0531
 7610SOL    HW125722   5.280   2.198   5.112  0.2700  0.6801 -0.6961
 7610SOL    HW225723   5.149   2.124   5.091  0.5847 -0.0914  0.0048
 7611SOL     OW25724   8.328   6.382   7.766 -0.1389  0.5454  0.1484
 7611SOL    HW125725   8.365   6.400   7.679 -0.7457 -1.3053 -0.5490
 7611SOL    HW225726   8.312   6.469   7.804 -0.2642  1.4140 -1.7667
 7612SOL     OW25727   4.358   8.793   1.060  0.4315 -0.1794 -0.3861
 7612SOL    HW125728   4.391   8.833   0.979 -0.2404  0.9532 -0.1176
 7612SOL    HW225729   4.317   8.865   1.107  1.4937 -0.6511  1.3555
 7613SOL     OW25730   4.800   4.754   4.761 -0.4181 -0.2631 -0.0929
 7613SOL    HW125731   4.828   4.841   4.788 -3.6976  0.8979  0.0448
 7613SOL    HW225732   4.832   4.696   4.829 -1.3747  1.4231  1.9092
 7614SOL     OW25733   7.605   7.875   0.070  0.5385 -0.0190  0.6050
 7614SOL    HW125734   7.632   7.922   0.148  0.8280  0.1607  0.3997
 7614SOL    HW225735   7.608   7.782   0.095  0.2818  0.0567  0.9120
 7615SOL     OW25736   2.878   8.141   1.718  0.0187  0.5611  0.1724
 7615SOL    HW125737   2.890   8.103   1.805  2.7732 -0.3857 -0.5288
 7615SOL    HW225738   2.928   8.223   1.721  1.1464 -0.0658 -0.8394
 7616SOL     OW25739   4.656   2.947   0.936 -0.0315 -0.0042  0.2832
 7616SOL    HW125740   4.740   2.970   0.896 -0.0901 -1.2064 -0.5762
 7616SOL    HW225741   4.603   2.914   0.863 -2.0935  2.8287  0.3387
 7617SOL     OW25742   1.987   9.154   5.492 -0.2753 -0.1157 -0.8365
 7617SOL    HW125743   1.969   9.247   5.500 -1.8504 -0.1283 -3.1358
 7617SOL    HW225744   2.076   9.150   5.456 -0.5862  0.5682 -1.7154
 7618SOL     OW25745   7.005   0.732   5.434  0.3086  0.9372 -0.3106
 7618SOL    HW125746   6.981   0.821   5.406 -1.7756  0.5653  0.1359
 7618SOL    HW225747   7.051   0.746   5.517  2.3525  1.7164 -1.4854
 7619SOL     OW25748   0.874   3.170   8.518 -0.1291  0.4812 -0.6908
 7619SOL    HW125749   0.968   3.165   8.531 -0.1782  0.6196 -0.2422
 7619SOL    HW225750   0.862   3.161   8.424  0.1228 -2.4913 -0.5205
 7620SOL     OW25751   6.156   7.957   7.782 -0.1094  0.7977  0.0610
 7620SOL    HW125752   6.144   7.988   7.872  0.0034  0.1010  0.3187
 7620SOL    HW225753   6.067   7.940   7.750 -0.0842 -0.0300  0.4256
 7621SOL     OW25754   0.513   4.466   8.547 -0.0088  0.3273 -0.2018
 7621SOL    HW125755   0.507   4.489   8.640  0.8448 -0.8988  0.1824
 7621SOL    HW225756   0.594   4.415   8.540 -1.4912 -2.0548 -1.0776
 7622SOL     OW25757   8.010   2.860   1.962 -0.2402  0.0046 -0.2364
 7622SOL    HW125758   7.961   2.902   2.033 -1.3092  0.5069 -1.2353
 7622SOL    HW225759   7.951   2.791   1.930  0.0307  0.0886 -0.9354
 7623SOL     OW25760   6.345   6.959   6.373  0.9640 -0.0507 -0.2300
 7623SOL    HW125761   6.362   6.865   6.359 -0.0011 -0.1753 -0.6445
 7623SOL    HW225762   6.385   6.978   6.458  3.0820 -0.3284 -1.0876
 7624SOL     OW25763   4.690   8.517   0.709 -0.2355  0.1030 -0.6044
 7624SOL    HW125764   4.733   8.485   0.629  1.6705  0.9906  0.0066
 7624SOL    HW225765   4.742   8.480   0.780 -0.1888  1.5697  0.1640
 7625SOL     OW25766   0.007   2.379   0.320  0.1928 -0.5647 -0.0196
 7625SOL    HW125767  -0.050   2.412   0.250  2.4588 -0.5543 -2.0054
 7625SOL    HW225768   0.087   2.353   0.275  0.6815 -3.4476  2.2136
 7626SOL     OW25769   7.300   9.124   2.156 -0.4693 -0.2183  0.2751
 7626SOL    HW125770   7.288   9.150   2.247  0.8664  0.7854  0.2096
 7626SOL    HW225771   7.374   9.177   2.126 -1.0645 -0.3094 -1.4845
 7627SOL     OW25772   4.856   0.231   8.673  0.3768 -0.2396 -0.2452
 7627SOL    HW125773   4.840   0.163   8.607 -0.9052 -1.3893  1.1789
 7627SOL    HW225774   4.951   0.243   8.672  0.4369 -0.4971 -1.9913
 7628SOL     OW25775   7.239   2.137   8.338 -0.6391 -0.7153 -0.3185
 7628SOL    HW125776   7.259   2.066   8.276 -2.2703 -1.4191 -0.0907
 7628SOL    HW225777   7.160   2.178   8.304 -0.8409 -0.2901  0.6145
 7629SOL     OW25778   2.112   7.766   7.285 -0.3583  0.8375 -0.6242
 7629SOL    HW125779   2.026   7.730   7.305  0.8402 -1.5280  0.5979
 7629SOL    HW225780   2.148   7.707   7.219  0.7868  1.0869 -0.2400
 7630SOL     OW25781   3.775   1.548   9.008  0.2991  0.2190  0.3857
 7630SOL    HW125782   3.707   1.480   9.005  0.2275  0.2739  0.6572
 7630SOL    HW225783   3.815   1.537   9.095  1.9849 -1.1101 -0.5038
 7631SOL     OW25784   5.367   8.182   6.685 -0.1028  0.3010 -0.3882
 7631SOL    HW125785   5.328   8.132   6.757  0.1226  0.6031 -0.0548
 7631SOL    HW225786   5.293   8.199   6.626 -0.0014 -1.2965 -1.0307
 7632SOL     OW25787   4.023   7.177   2.081 -0.5224  0.8346  0.2588
 7632SOL    HW125788   4.019   7.185   1.985 -0.8954 -0.2075  0.1728
 7632SOL    HW225789   4.111   7.207   2.103  1.1154 -2.5658 -0.8710
 7633SOL     OW25790   4.598   5.565   1.843 -0.0007 -0.4561  0.2833
 7633SOL    HW125791   4.566   5.564   1.753 -1.3111  0.2751  0.7103
 7633SOL    HW225792   4.671   5.504   1.843  0.7177  0.3356 -1.5137
 7634SOL     OW25793   0.249   3.563   3.285  0.7474 -0.4520 -0.1346
 7634SOL    HW125794   0.234   3.651   3.321 -0.1446 -1.0764  1.0943
 7634SOL    HW225795   0.283   3.579   3.197  0.2172  1.1251 -0.0956
 7635SOL     OW25796   5.266   2.187   0.733  0.4113  0.2392 -0.3359
 7635SOL    HW125797   5.306   2.212   0.817 -0.4675  0.4025  0.0447
 7635SOL    HW225798   5.190   2.135   0.757  0.5915 -0.3721 -1.0650
 7636SOL     OW25799   5.254   5.438   8.823 -0.1479 -0.4944 -0.4335
 7636SOL    HW125800   5.179   5.380   8.839  1.1620 -2.3338 -0.6593
 7636SOL    HW225801   5.324   5.401   8.876  1.1036  0.1010 -1.6208
 7637SOL     OW25802   6.341   9.175   1.127  0.0630  0.1100  0.1698
 7637SOL    HW125803   6.284   9.252   1.125  0.7324  0.6226 -1.7599
 7637SOL    HW225804   6.413   9.200   1.185 -0.1639  0.6125  0.2427
 7638SOL     OW25805   4.637   0.664   5.324 -0.1902  0.2566 -0.0769
 7638SOL    HW125806   4.708   0.673   5.260 -0.4777  0.2798 -0.3940
 7638SOL    HW225807   4.681   0.673   5.409  0.1068  0.8119 -0.2830
 7639SOL     OW25808   6.503   0.265   7.782 -0.9253 -0.1245 -0.4285
 7639SOL    HW125809   6.438   0.334   7.765  0.4212  1.5402  0.8201
 7639SOL    HW225810   6.491   0.243   7.874 -0.2731 -0.4164 -0.4106
 7640SOL     OW25811   7.060   7.582   0.437  0.3654 -0.6570  0.2402
 7640SOL    HW125812   7.000   7.595   0.510  3.2740  0.3771  2.6104
 7640SOL    HW225813   7.054   7.663   0.386  0.0841 -0.3958  0.6814
 7641SOL     OW25814   7.389   0.928   5.048  0.2074 -0.3822 -0.4853
 7641SOL    HW125815   7.355   0.880   5.124  0.0872 -1.8641 -1.4343
 7641SOL    HW225816   7.319   0.989   5.025 -0.7361 -1.5578 -0.8099
 7642SOL     OW25817   1.108   7.099   5.327 -0.0383 -0.1961 -0.2199
 7642SOL    HW125818   1.031   7.054   5.362  0.0549  0.4428  0.8486
 7642SOL    HW225819   1.101   7.188   5.360  0.9417 -0.0184 -0.4547
 7643SOL     OW25820   1.682   6.246   5.062  0.3580  0.1049 -0.3870
 7643SOL    HW125821   1.649   6.331   5.090 -0.5107  0.0291 -1.1193
 7643SOL    HW225822   1.628   6.224   4.986  2.2707  0.0579 -1.7869
 7644SOL     OW25823   5.151   6.142   2.157  0.3376  0.1841  0.1707
 7644SOL    HW125824   5.242   6.131   2.128  0.5306  0.3364  0.7046
 7644SOL    HW225825   5.114   6.054   2.151  0.0330  0.4056 -1.6152
 7645SOL     OW25826   8.157   4.882   4.749 -0.3531  0.1108 -0.3381
 7645SOL    HW125827   8.144   4.838   4.665  0.5190 -1.4531  0.3143
 7645SOL    HW225828   8.249   4.868   4.770 -0.9734 -1.2725  1.7961
 7646SOL     OW25829   2.110   3.956   4.647 -0.8276 -0.7002 -0.1453
 7646SOL    HW125830   2.179   4.022   4.645 -0.7339 -0.8050 -0.2963
 7646SOL    HW225831   2.149   3.879   4.607 -1.2643 -0.5393 -0.8897
 7647SOL     OW25832   5.693   8.314   2.781 -0.3108  0.1535  0.0682
 7647SOL    HW125833   5.765   8.255   2.805  0.7097  0.1609 -2.6363
 7647SOL    HW225834   5.718   8.399   2.816  1.7032  0.4299 -1.8271
 7648SOL     OW25835   3.425   7.018   7.967 -0.0391  0.7152  0.4088
 7648SOL    HW125836   3.434   6.929   8.000  0.3223  0.6221  0.0606
 7648SOL    HW225837   3.433   7.073   8.045 -0.2421  0.4503  0.6226
 7649SOL     OW25838   0.975   4.351   4.961  0.1064  0.1059 -0.0903
 7649SOL    HW125839   0.938   4.281   5.015 -0.3789  0.4667  0.0580
 7649SOL    HW225840   0.899   4.391   4.918  0.5604 -0.6232 -1.6019
 7650SOL     OW25841   7.545   2.903   6.115 -0.1662  0.2765 -0.1211
 7650SOL    HW125842   7.570   2.995   6.114  0.9510  0.0014  0.7173
 7650SOL    HW225843   7.485   2.894   6.041 -4.1630  2.6716  2.4342
 7651SOL     OW25844   2.054   7.186   3.652  0.7378  0.0377  0.1758
 7651SOL    HW125845   2.091   7.263   3.695  0.5764 -0.2994  0.9416
 7651SOL    HW225846   1.959   7.197   3.662  0.7240 -0.4272  0.6113
 7652SOL     OW25847   5.312   4.820   8.213 -0.0111  0.3250  0.1556
 7652SOL    HW125848   5.380   4.756   8.236 -0.9629 -0.2690  1.4671
 7652SOL    HW225849   5.356   4.881   8.154  1.1586 -1.0564 -0.4859
 7653SOL     OW25850   8.486   4.230   9.204 -0.0116  0.4814 -0.3416
 7653SOL    HW125851   8.401   4.207   9.242  0.0057 -1.0021 -1.1460
 7653SOL    HW225852   8.468   4.307   9.151 -1.0206 -0.2434 -1.0829
 7654SOL     OW25853   6.646   8.628   6.798 -0.4030  0.2473 -0.2048
 7654SOL    HW125854   6.643   8.697   6.732 -1.2544  1.9421  1.5207
 7654SOL    HW225855   6.730   8.641   6.842  0.3941 -1.1974 -1.2233
 7655SOL     OW25856   2.805   2.947   3.324  0.4692  0.0449  0.3894
 7655SOL    HW125857   2.830   2.967   3.414 -0.1777  1.2226  0.3348
 7655SOL    HW225858   2.876   2.985   3.271  1.0816 -1.0481  0.4049
 7656SOL     OW25859   2.635   4.375   5.566  0.2015  0.1342  0.3315
 7656SOL    HW125860   2.729   4.377   5.545 -0.1209  0.4845 -1.1812
 7656SOL    HW225861   2.598   4.449   5.519 -0.8418  0.0227  0.9443
 7657SOL     OW25862   2.297   8.986   7.052  0.2891 -0.1416  0.4181
 7657SOL    HW125863   2.316   8.976   6.959 -0.6556 -2.5824  0.4032
 7657SOL    HW225864   2.383   8.977   7.094  0.7372  1.0710 -0.1796
 7658SOL     OW25865   8.891   6.325   4.716  0.7501  0.1827  0.4567
 7658SOL    HW125866   8.890   6.306   4.810 -0.0243  0.8572  0.6000
 7658SOL    HW225867   8.808   6.371   4.700  0.1268 -1.3093 -0.8484
 7659SOL     OW25868   7.759   9.054   8.231  0.3600  0.0591 -0.0134
 7659SOL    HW125869   7.708   8.977   8.204 -0.5480  0.3748  0.7660
 7659SOL    HW225870   7.803   9.026   8.311  0.1054  0.3171  0.2185
 7660SOL     OW25871   1.781   4.303   3.330  0.1997  0.3657  0.4695
 7660SOL    HW125872   1.744   4.322   3.416  1.9949 -1.1613  1.6560
 7660SOL    HW225873   1.727   4.231   3.297 -0.2756  0.7189  0.4647
 7661SOL     OW25874   1.865   8.926   5.003 -0.2878  0.6545 -0.6481
 7661SOL    HW125875   1.800   8.996   5.000 -0.3266  0.8314  2.2316
 7661SOL    HW225876   1.835   8.862   4.938 -2.2285  1.6431 -0.7844
 7662SOL     OW25877   2.738   5.633   4.205  0.0995 -0.2318  0.1704
 7662SOL    HW125878   2.794   5.651   4.281  1.6264  0.5647 -1.0782
 7662SOL    HW225879   2.692   5.715   4.189 -2.5276 -1.2439  1.9680
 7663SOL     OW25880   4.483   1.623   7.542 -0.0797  0.2582  0.2930
 7663SOL    HW125881   4.431   1.548   7.571 -0.6404  1.7671  3.6875
 7663SOL    HW225882   4.573   1.597   7.558 -0.0491 -0.5669 -1.0214
 7664SOL     OW25883   7.079   6.674   3.950  0.0524 -0.2658 -0.1019
 7664SOL    HW125884   7.024   6.596   3.946  3.1728 -2.6359 -2.7744
 7664SOL    HW225885   7.048   6.729   3.879  0.1846 -0.9201 -0.6807
 7665SOL     OW25886   6.928   8.155   1.016 -0.1765  0.0050  0.4157
 7665SOL    HW125887   6.972   8.083   1.060 -1.7256 -1.2866 -0.0288
 7665SOL    HW225888   6.910   8.219   1.085 -0.7751 -1.0719  1.2883
 7666SOL     OW25889   2.763   5.207   7.532  0.3613 -0.3082 -0.4126
 7666SOL    HW125890   2.699   5.278   7.522 -1.6493 -2.1321 -1.2652
 7666SOL    HW225891   2.774   5.198   7.627 -0.6832  0.0476 -0.2477
 7667SOL     OW25892   8.696   4.298   5.448  0.2522  0.3322 -0.2807
 7667SOL    HW125893   8.651   4.219   5.478  1.9001 -0.3692  0.4740
 7667SOL    HW225894   8.658   4.317   5.363  0.4600 -1.8208 -0.8990
 7668SOL     OW25895   2.908   6.900   4.100 -0.0727  0.0161  0.4358
 7668SOL    HW125896   2.897   6.811   4.066  1.8368 -0.1055  0.0193
 7668SOL    HW225897   2.944   6.889   4.188  0.1917  0.3718  0.3765
 7669SOL     OW25898   3.579   8.636   8.041  0.3896  0.1709  0.0416
 7669SOL    HW125899   3.565   8.709   8.102  0.0919 -0.6313  0.9624
 7669SOL    HW225900   3.593   8.678   7.956  0.6718  1.3183  0.6277
 7670SOL     OW25901   2.204   8.545   4.428  0.0351 -0.4313  0.1184
 7670SOL    HW125902   2.270   8.489   4.470 -0.5277 -0.7689  0.5582
 7670SOL    HW225903   2.255   8.601   4.369  0.9050  0.4379  1.6382
 7671SOL     OW25904   3.066   6.346   7.581 -0.0053 -0.0824  0.1386
 7671SOL    HW125905   3.058   6.336   7.675  0.1226  0.6472  0.2311
 7671SOL    HW225906   3.110   6.430   7.569  3.1717 -1.6666 -0.4576
 7672SOL     OW25907   6.722   7.861   6.456 -0.3925 -0.0097  0.0831
 7672SOL    HW125908   6.662   7.920   6.409  0.6781  0.0896 -1.2094
 7672SOL    HW225909   6.751   7.912   6.532  0.6916  1.2617 -1.1285
 7673SOL     OW25910   8.184   4.545   8.982  0.0437  0.3363 -0.3861
 7673SOL    HW125911   8.105   4.509   9.021  0.9699  0.3375  1.6154
 7673SOL    HW225912   8.153   4.603   8.912 -1.8160  1.7032  1.4651
 7674SOL     OW25913   2.502   2.229   2.007 -0.0381 -0.0368 -0.1476
 7674SOL    HW125914   2.482   2.148   1.961 -0.3225 -0.1979  0.2586
 7674SOL    HW225915   2.566   2.204   2.074 -0.2892  0.0299  0.1217
 7675SOL     OW25916   2.560   2.524   5.942 -0.2857 -0.0828  0.1184
 7675SOL    HW125917   2.637   2.468   5.951  0.1600  0.8975  4.0397
 7675SOL    HW225918   2.486   2.466   5.963 -0.1855 -0.0477  0.5743
 7676SOL     OW25919   6.367   8.363   3.806 -0.1025 -0.6360  0.3404
 7676SOL    HW125920   6.334   8.294   3.864  1.1983  0.5819  2.6873
 7676SOL    HW225921   6.456   8.335   3.783 -0.0732 -0.4034  0.1660
 7677SOL     OW25922   2.571   4.593   2.779 -0.3709 -0.2084 -0.5292
 7677SOL    HW125923   2.632   4.644   2.831 -0.4267 -0.3065 -0.3642
 7677SOL    HW225924   2.557   4.513   2.831 -1.0778  0.0602 -0.2848
 7678SOL     OW25925   2.267   0.303   5.332  0.2397  0.4808  0.2853
 7678SOL    HW125926   2.355   0.266   5.338 -0.4386 -1.4875 -0.9427
 7678SOL    HW225927   2.264   0.345   5.246  0.3347  1.6038  0.8146
 7679SOL     OW25928   0.953   8.934   7.129 -0.2474 -0.4498  0.4566
 7679SOL    HW125929   1.001   8.957   7.209 -0.5230  5.0064 -0.5450
 7679SOL    HW225930   0.872   8.985   7.133  0.4740  1.5339 -3.8973
 7680SOL     OW25931   0.520   9.077   8.914 -0.1701 -0.6267  0.1553
 7680SOL    HW125932   0.607   9.047   8.941 -0.5479 -1.4196  0.5409
 7680SOL    HW225933   0.487   9.007   8.857 -0.1192  0.1866 -0.8981
 7681SOL     OW25934   7.161   5.195   8.722 -0.1396  0.1329 -0.1765
 7681SOL    HW125935   7.211   5.274   8.741 -0.7393  0.1162  1.7784
 7681SOL    HW225936   7.222   5.123   8.738  0.3837  0.1758 -1.8804
 7682SOL     OW25937   0.316   2.662   5.150  0.6715 -0.3736  0.2225
 7682SOL    HW125938   0.263   2.738   5.127 -0.6007 -1.2323  0.2157
 7682SOL    HW225939   0.336   2.674   5.243 -1.6775 -1.2385  0.8952
 7683SOL     OW25940   2.391   0.664   9.076 -0.1351  0.0874  0.1121
 7683SOL    HW125941   2.456   0.650   9.007  0.2445  0.3333  0.4167
 7683SOL    HW225942   2.420   0.743   9.121 -0.6830  0.2376  0.2134
 7684SOL     OW25943   3.593   5.979   5.511  0.0105 -0.1198 -0.1021
 7684SOL    HW125944   3.530   6.040   5.474  0.5101  0.6493  0.3012
 7684SOL    HW225945   3.541   5.921   5.566 -0.5220 -0.3367 -0.8141
 7685SOL     OW25946   5.151   4.081   2.568 -0.0820  0.3600  0.3634
 7685SOL    HW125947   5.077   4.030   2.534  1.1076 -0.2986 -1.4029
 7685SOL    HW225948   5.130   4.095   2.660 -2.6445  0.6618 -0.1854
 7686SOL     OW25949   8.153   7.552   7.567 -0.4941 -0.1815 -0.1194
 7686SOL    HW125950   8.119   7.602   7.641  1.1369  0.0610  0.5166
 7686SOL    HW225951   8.079   7.498   7.538 -1.3868  0.2850  1.1930
 7687SOL     OW25952   8.601   0.883   3.676  0.3069 -0.3775  0.1274
 7687SOL    HW125953   8.628   0.905   3.587  0.7768 -1.6963 -0.0740
 7687SOL    HW225954   8.656   0.809   3.701 -0.3561 -0.5314  1.2235
 7688SOL     OW25955   8.127   0.776   8.418  0.4568  0.3578  0.4893
 7688SOL    HW125956   8.120   0.868   8.444 -0.5707  0.4659 -0.0993
 7688SOL    HW225957   8.214   0.749   8.447  1.1751  1.7958 -0.2300
 7689SOL     OW25958   3.219   1.752   7.832 -0.3792 -0.2401 -0.3673
 7689SOL    HW125959   3.149   1.747   7.767 -0.8513 -1.6233  0.2065
 7689SOL    HW225960   3.186   1.704   7.907  0.9282 -0.3548  0.1733
 7690SOL     OW25961   3.709   3.805   3.461 -0.4316  0.8518  0.1504
 7690SOL    HW125962   3.709   3.852   3.545  0.2872  2.3468 -0.6485
 7690SOL    HW225963   3.733   3.871   3.397 -2.3457  0.0786 -1.4652
 7691SOL     OW25964   9.107   4.411   3.825  0.2723  0.6496  0.1707
 7691SOL    HW125965   9.014   4.392   3.833  0.1573  0.6271 -1.0546
 7691SOL    HW225966   9.119   4.435   3.733  1.3600  1.2942  0.4603
 7692SOL     OW25967   0.907   3.371   9.235  0.2785  0.3894  0.0465
 7692SOL    HW125968   0.932   3.446   9.180  0.4049  1.0563  0.9741
 7692SOL    HW225969   0.856   3.315   9.177  2.3242 -0.0990 -1.4070
 7693SOL     OW25970   8.936   6.329   1.512  0.1318  0.4905 -0.3608
 7693SOL    HW125971   8.946   6.421   1.487 -2.1771  1.4368  1.7957
 7693SOL    HW225972   9.026   6.297   1.520  1.0083  2.5952 -0.9492
 7694SOL     OW25973   8.551   3.024   6.451 -0.1029 -0.5250 -0.1424
 7694SOL    HW125974   8.554   2.965   6.376  0.5589  1.0526 -1.4186
 7694SOL    HW225975   8.582   2.971   6.524  1.1194 -1.5771 -1.3705
 7695SOL     OW25976   2.033   9.236   2.875 -0.0690  0.1283  0.0542
 7695SOL    HW125977   2.115   9.218   2.922  0.3985 -1.7044 -1.3940
 7695SOL    HW225978   2.059   9.292   2.802 -0.1549 -0.1767 -0.2127
 7696SOL     OW25979   2.503   2.376   2.601 -0.3856  0.4150 -0.5152
 7696SOL    HW125980   2.530   2.405   2.514  2.3895 -1.6673 -0.4901
 7696SOL    HW225981   2.518   2.452   2.657  1.7393  0.6032 -1.2446
 7697SOL     OW25982   5.118   2.461   8.790 -0.5377  0.1864 -0.5237
 7697SOL    HW125983   5.171   2.462   8.870 -0.3689 -0.5057 -0.6203
 7697SOL    HW225984   5.157   2.528   8.735 -1.2390  1.3455  0.3337
 7698SOL     OW25985   6.035   3.466   1.447 -0.6735 -0.0535  0.7546
 7698SOL    HW125986   6.113   3.418   1.419 -1.3508 -0.1487 -1.1161
 7698SOL    HW225987   6.064   3.518   1.522  0.9684 -0.7293  0.6182
 7699SOL     OW25988   3.201   1.979   5.490 -0.3805 -0.3550 -0.0583
 7699SOL    HW125989   3.295   1.989   5.504 -0.0454 -1.8217 -1.0330
 7699SOL    HW225990   3.165   2.066   5.506  1.4832  0.9143 -2.2644
 7700SOL     OW25991   2.157   6.917   0.053 -0.4092 -0.0913  0.3724
 7700SOL    HW125992   2.237   6.960   0.082  0.6420 -1.3875 -0.4762
 7700SOL    HW225993   2.187   6.848  -0.007 -2.1205 -0.9915  0.4847
 7701SOL     OW25994   5.317   8.256   3.777 -0.0521  0.7294  0.3657
 7701SOL    HW125995   5.386   8.253   3.844  0.5853  1.9670 -0.1977
 7701SOL    HW225996   5.243   8.210   3.817  1.4825 -1.7865  0.4962
 7702SOL     OW25997   1.705   8.994   3.645  0.2245 -0.3184 -0.3096
 7702SOL    HW125998   1.610   9.008   3.653  0.4658  0.7506  1.1262
 7702SOL    HW225999   1.741   9.081   3.628  1.0971 -0.3317  1.2144
 7703SOL     OW26000   5.711   0.701   8.705 -0.8784  0.0147  0.2146
 7703SOL    HW126001   5.787   0.689   8.647 -1.7137  0.6575 -1.0501
 7703SOL    HW226002   5.722   0.633   8.771  0.6368 -0.1116 -0.1123
 7704SOL     OW26003   0.781   3.128   1.539  0.1522  0.3850  0.0407
 7704SOL    HW126004   0.803   3.184   1.464 -0.9287  1.3516  0.4121
 7704SOL    HW226005   0.833   3.162   1.611 -0.9835  1.3668  0.4254
 7705SOL     OW26006   2.076   7.866   2.778  0.3105  0.7583 -0.6557
 7705SOL    HW126007   2.071   7.916   2.697 -1.7440  2.5709  0.4832
 7705SOL    HW226008   1.986   7.841   2.797  1.0039 -1.5409 -0.0129
 7706SOL     OW26009   6.580   0.887   8.162 -0.0389  0.4692  0.1102
 7706SOL    HW126010   6.653   0.841   8.121 -0.4892  0.4735 -0.7215
 7706SOL    HW226011   6.597   0.880   8.256 -0.5129 -2.1579  0.0918
 7707SOL     OW26012   4.916   0.682   6.529 -0.1974 -0.0102  0.0637
 7707SOL    HW126013   4.893   0.623   6.601 -0.0238 -0.9283 -0.6136
 7707SOL    HW226014   4.865   0.761   6.546 -0.9525 -0.5998  0.6405
 7708SOL     OW26015   4.069   4.742   2.204 -0.4412  0.3025  0.0945
 7708SOL    HW126016   4.145   4.796   2.225 -0.7795  1.4715 -1.4793
 7708SOL    HW226017   4.101   4.678   2.140 -0.5716  0.1932  0.1381
 7709SOL     OW26018   1.939   6.822   5.996  0.0293 -0.1804 -0.5967
 7709SOL    HW126019   1.858   6.772   6.005 -0.7364  1.0502 -0.3846
 7709SOL    HW226020   1.973   6.828   6.085  0.9477 -1.5917 -0.8157
 7710SOL     OW26021   2.046   6.942   2.785 -0.0083 -0.7505  0.1752
 7710SOL    HW126022   2.125   6.889   2.775  2.0424  2.3481 -2.4221
 7710SOL    HW226023   2.077   7.024   2.824 -2.9498 -1.0586  3.7467
 7711SOL     OW26024   5.554   3.941   7.052  0.1088  0.3097  0.1131
 7711SOL    HW126025   5.595   3.945   6.965  0.7937 -0.2757  0.4036
 7711SOL    HW226026   5.549   3.848   7.072 -1.2936  0.3714  0.1315
 7712SOL     OW26027   3.630   0.821   3.268  0.3209  0.4548 -0.4630
 7712SOL    HW126028   3.629   0.889   3.336 -0.1649 -0.4202  0.4252
 7712SOL    HW226029   3.563   0.849   3.206  1.5233  1.8379 -1.1930
 7713SOL     OW26030   8.539   7.257   4.163 -0.1431 -0.0475  0.1539
 7713SOL    HW126031   8.529   7.177   4.113  0.3154 -0.0604  0.0786
 7713SOL    HW226032   8.507   7.326   4.105  0.0120 -0.1090 -0.0038
 7714SOL     OW26033   1.276   1.594   8.783  0.0903 -0.0393  0.3114
 7714SOL    HW126034   1.212   1.524   8.775 -0.0866  0.1861 -0.2832
 7714SOL    HW226035   1.324   1.592   8.701 -0.9246  1.5168 -0.3638
 7715SOL     OW26036   3.337   4.758   3.279  0.0802  0.4209  0.2339
 7715SOL    HW126037   3.320   4.821   3.210 -1.8881 -0.3563 -0.0393
 7715SOL    HW226038   3.260   4.762   3.336  0.1444 -1.2939  0.5164
 7716SOL     OW26039   4.262   3.954   7.761  0.2410  0.2695  0.5355
 7716SOL    HW126040   4.318   3.956   7.839 -0.0070  2.0247  0.7197
 7716SOL    HW226041   4.202   4.027   7.773 -0.4191 -0.0081 -0.8689
 7717SOL     OW26042   4.815   3.152   4.518 -0.6201 -0.4723  0.4488
 7717SOL    HW126043   4.756   3.151   4.442  0.3571  0.2058 -0.3542
 7717SOL    HW226044   4.876   3.080   4.502 -0.1596 -0.0720  0.3588
 7718SOL     OW26045   4.278   6.895   4.663 -0.2147 -0.1124 -0.4135
 7718SOL    HW126046   4.332   6.863   4.590 -2.1250 -0.6176 -1.6642
 7718SOL    HW226047   4.200   6.932   4.621 -1.4637 -0.5980  1.3799
 7719SOL     OW26048   3.314   5.610   4.878 -0.1294  0.2263  0.0801
 7719SOL    HW126049   3.407   5.622   4.899 -0.1474 -0.8486  0.8587
 7719SOL    HW226050   3.304   5.515   4.869 -0.7372  0.4486 -2.0317
 7720SOL     OW26051   0.098   0.998   2.773 -0.7327 -0.2507 -0.2254
 7720SOL    HW126052   0.151   1.075   2.752 -0.1817 -0.5326  0.1376
 7720SOL    HW226053   0.160   0.932   2.802 -1.3640 -0.2459  1.2221
 7721SOL     OW26054   6.211   5.784   3.439 -0.2576 -0.0353  0.0326
 7721SOL    HW126055   6.197   5.723   3.366 -1.2606 -2.3428  2.0109
 7721SOL    HW226056   6.161   5.862   3.415  0.5975 -0.1257 -2.3342
 7722SOL     OW26057   6.741   0.986   0.078 -0.8106  0.4124 -0.4470
 7722SOL    HW126058   6.810   0.924   0.052 -1.1008 -0.2157  0.2521
 7722SOL    HW226059   6.732   1.044   0.002 -1.4162 -1.1741 -1.6480
 7723SOL     OW26060   5.552   2.713   0.640 -0.4022 -0.3317  0.1635
 7723SOL    HW126061   5.478   2.731   0.583 -0.2991 -0.5520 -0.0380
 7723SOL    HW226062   5.591   2.633   0.606 -0.2664 -0.3968  0.4673
 7724SOL     OW26063   4.858   8.715   6.561  0.2404 -0.0981  0.3938
 7724SOL    HW126064   4.813   8.634   6.583  0.8082 -0.2223  1.1637
 7724SOL    HW226065   4.951   8.694   6.571  0.3648  0.9747  1.8683
 7725SOL     OW26066   5.829   8.032   7.339 -0.4532  0.6709  0.2378
 7725SOL    HW126067   5.775   8.022   7.417  1.2450 -0.1120  1.3674
 7725SOL    HW226068   5.893   8.098   7.363 -1.3558  2.2417 -1.3905
 7726SOL     OW26069   2.191   7.055   4.166 -0.2529 -0.3166  0.4131
 7726SOL    HW126070   2.234   6.998   4.102  3.2333 -0.0534  2.2754
 7726SOL    HW226071   2.192   7.003   4.247 -0.7735  0.8547  1.1894
 7727SOL     OW26072   4.379   0.551   8.783 -0.0058  0.1689  0.5464
 7727SOL    HW126073   4.395   0.495   8.859 -2.5810 -2.5770 -0.7549
 7727SOL    HW226074   4.322   0.620   8.816 -0.8187 -0.7980  1.2081
 7728SOL     OW26075   4.959   1.821   4.646  0.6415 -0.2571 -0.5509
 7728SOL    HW126076   4.948   1.753   4.712  0.3085 -1.2767 -1.6288
 7728SOL    HW226077   5.013   1.887   4.689 -2.5115  0.9134  2.0104
 7729SOL     OW26078   1.674   5.873   5.094 -0.5286  0.2728 -0.1608
 7729SOL    HW126079   1.598   5.931   5.098 -0.8111 -0.1521  1.9233
 7729SOL    HW226080   1.638   5.785   5.086 -0.2974  0.0429  1.1307
 7730SOL     OW26081   4.996   0.116   0.175 -0.4578  0.7878 -0.6663
 7730SOL    HW126082   5.082   0.108   0.134 -0.1131 -1.0320  0.3112
 7730SOL    HW226083   5.013   0.113   0.269 -1.5723  0.5352 -0.4532
 7731SOL     OW26084   4.555   1.752   7.108  0.3600 -0.0808  0.1162
 7731SOL    HW126085   4.620   1.820   7.125 -1.0050  1.3409 -0.1520
 7731SOL    HW226086   4.576   1.683   7.171  1.4540  0.7985  0.7622
 7732SOL     OW26087   3.278   7.143   8.626 -0.2445 -0.3903  0.2890
 7732SOL    HW126088   3.243   7.225   8.661 -1.1790 -0.2219 -0.9565
 7732SOL    HW226089   3.369   7.142   8.654 -0.2798  0.9567  0.5419
 7733SOL     OW26090   1.738   5.572   8.000  0.1505  0.0307 -0.3333
 7733SOL    HW126091   1.825   5.572   8.039  0.1425 -0.4302 -0.3079
 7733SOL    HW226092   1.740   5.498   7.938 -0.9254 -1.4215  1.2758
 7734SOL     OW26093   7.596   3.471   1.545 -0.1920 -0.1844  0.5508
 7734SOL    HW126094   7.573   3.393   1.496  1.2495  0.2625 -0.9207
 7734SOL    HW226095   7.609   3.539   1.479 -0.5912  1.1141  1.7293
 7735SOL     OW26096   0.531   5.994   3.124 -0.3794  0.2428 -0.7124
 7735SOL    HW126097   0.603   6.003   3.062  1.6262  1.3830  1.6310
 7735SOL    HW226098   0.501   6.083   3.139  0.0472  0.1437  0.8877
 7736SOL     OW26099   6.799   0.079   4.782 -0.1920 -0.2739  0.3246
 7736SOL    HW126100   6.779  -0.006   4.742  0.0336 -0.2111  0.0733
 7736SOL    HW226101   6.797   0.141   4.709  1.4315 -0.3473  0.1800
 7737SOL     OW26102   7.351   3.408   5.310 -0.0984 -0.1278  0.1306
 7737SOL    HW126103   7.373   3.446   5.395 -0.1636  2.0993 -0.7744
 7737SOL    HW226104   7.262   3.438   5.292 -1.0363 -2.6080  0.3052
 7738SOL     OW26105   0.280   5.780   6.054 -0.9027 -0.1727 -0.3343
 7738SOL    HW126106   0.342   5.709   6.067 -1.8223 -0.8126  0.8260
 7738SOL    HW226107   0.334   5.856   6.035  0.1816 -0.8680 -0.1421
 7739SOL     OW26108   1.843   5.137   3.418 -0.4449 -0.3606 -0.2887
 7739SOL    HW126109   1.844   5.090   3.335 -0.3972  2.5914 -2.1116
 7739SOL    HW226110   1.751   5.139   3.443 -0.7631  0.5823 -1.4624
 7740SOL     OW26111   4.832   8.424   7.376  0.1449 -0.0633  0.1501
 7740SOL    HW126112   4.766   8.484   7.409  2.0107  2.4994 -0.4843
 7740SOL    HW226113   4.897   8.419   7.447  1.6185  1.3729 -1.0211
 7741SOL     OW26114   3.812   6.745   3.487 -0.0085  0.0359  0.0500
 7741SOL    HW126115   3.799   6.757   3.393  1.7698  2.1061 -0.0038
 7741SOL    HW226116   3.764   6.817   3.527  0.6789  0.1986  0.6008
 7742SOL     OW26117   3.915   8.821   8.717 -0.3430  0.1647 -0.0828
 7742SOL    HW126118   3.899   8.900   8.666  1.4504 -0.7838 -2.3010
 7742SOL    HW226119   4.007   8.828   8.743 -0.1084 -1.2381 -0.4417
 7743SOL     OW26120   4.237   3.624   4.606 -0.4249  0.1285  0.0523
 7743SOL    HW126121   4.154   3.667   4.585 -0.9359 -0.6353  0.4702
 7743SOL    HW226122   4.285   3.688   4.658 -0.1970  1.0749 -1.2560
 7744SOL     OW26123   8.330   0.743   6.710 -0.2773  0.1496 -0.2115
 7744SOL    HW126124   8.396   0.709   6.650 -0.9326 -0.1380 -0.7804
 7744SOL    HW226125   8.277   0.667   6.735  0.0360  0.2433  0.8130
 7745SOL     OW26126   0.518   2.547   8.599 -0.1654  0.4684  0.3157
 7745SOL    HW126127   0.464   2.469   8.601  1.0205 -0.3810  1.6001
 7745SOL    HW226128   0.465   2.615   8.641 -0.1723 -0.4001  1.7573
 7746SOL     OW26129   8.329   1.078   7.696 -0.2347  0.1618  0.3635
 7746SOL    HW126130   8.316   1.173   7.697  0.5876  0.2821  0.2223
 7746SOL    HW226131   8.262   1.045   7.756 -1.7777  0.6416 -0.9964
 7747SOL     OW26132   2.950   1.975   4.099 -0.7146  0.0701  0.1164
 7747SOL    HW126133   2.986   2.021   4.174  1.2606 -0.5179 -0.4238
 7747SOL    HW226134   2.992   2.017   4.023 -2.1159  0.1680 -0.6385
 7748SOL     OW26135   2.725   7.980   6.581  0.2029  0.2073  0.4534
 7748SOL    HW126136   2.804   7.930   6.599  1.5089  1.8258 -0.5212
 7748SOL    HW226137   2.727   8.052   6.644 -0.8126 -0.0408  0.7902
 7749SOL     OW26138   7.847   2.837   5.935  0.0487  1.0263 -0.1971
 7749SOL    HW126139   7.808   2.900   5.996 -1.3836 -0.1518  0.1546
 7749SOL    HW226140   7.781   2.825   5.867  1.6636  2.3920 -2.1222
 7750SOL     OW26141   5.263   8.369   4.160  0.2535 -0.4504  0.3988
 7750SOL    HW126142   5.322   8.312   4.210  2.1445  1.2105  0.1811
 7750SOL    HW226143   5.321   8.425   4.109 -1.5418  1.1454  0.0032
 7751SOL     OW26144   8.250   4.363   4.390 -0.2372 -0.4038 -0.4059
 7751SOL    HW126145   8.224   4.362   4.298 -0.4498 -1.4858 -0.3552
 7751SOL    HW226146   8.345   4.369   4.389 -0.3372  2.0093 -0.6284
 7752SOL     OW26147   2.512   1.742   6.651  0.2052  0.2647  0.4637
 7752SOL    HW126148   2.594   1.695   6.635  1.0279  1.1963  1.6607
 7752SOL    HW226149   2.445   1.674   6.657  1.1142 -0.6359  0.7131
 7753SOL     OW26150   6.630   3.934   1.493  0.6612  0.3215 -0.0180
 7753SOL    HW126151   6.590   4.017   1.520 -1.1002 -0.2549 -0.6886
 7753SOL    HW226152   6.592   3.916   1.407 -0.6004 -2.1505  0.9599
 7754SOL     OW26153   3.350   1.580   5.613 -0.5148 -0.0746  0.1829
 7754SOL    HW126154   3.307   1.513   5.667  1.1295 -0.3434  1.2245
 7754SOL    HW226155   3.314   1.567   5.526  0.2580 -2.8278  0.1840
 7755SOL     OW26156   4.739   9.168   2.644  0.3859 -0.2037  0.1139
 7755SOL    HW126157   4.731   9.076   2.671  0.1985  0.3163  2.0134
 7755SOL    HW226158   4.674   9.179   2.575  1.3917 -1.8297 -1.1657
 7756SOL     OW26159   0.481   7.285   0.607  0.2283  0.3713 -0.4685
 7756SOL    HW126160   0.428   7.206   0.602 -0.2361  0.7072 -0.9221
 7756SOL    HW226161   0.524   7.280   0.693 -0.8446  0.2915  0.0757
 7757SOL     OW26162   5.919   4.506   3.136  0.4038 -0.0837 -0.0992
 7757SOL    HW126163   5.948   4.416   3.150 -0.0197 -0.1099  0.7097
 7757SOL    HW226164   5.927   4.520   3.042  0.1262 -1.0876 -0.2881
 7758SOL     OW26165   8.864   4.171   7.099 -0.5439 -0.3499  0.8144
 7758SOL    HW126166   8.804   4.240   7.072  0.3193 -0.8316 -2.8542
 7758SOL    HW226167   8.948   4.216   7.111 -0.6050 -0.3640  1.3251
 7759SOL     OW26168   3.558   3.407   6.397  0.0362 -0.4278  0.2884
 7759SOL    HW126169   3.562   3.379   6.488  0.2551 -1.8674 -0.1488
 7759SOL    HW226170   3.467   3.392   6.371 -0.5205  1.7364  0.7745
 7760SOL     OW26171   5.385   4.920   0.723  0.1458  0.0895  0.2331
 7760SOL    HW126172   5.421   4.992   0.671 -2.4492  0.5189 -1.1112
 7760SOL    HW226173   5.336   4.867   0.660  0.7369 -2.0576  1.4695
 7761SOL     OW26174   9.170   4.725   4.628  0.1740  0.6912 -0.4334
 7761SOL    HW126175   9.163   4.770   4.713  1.6399 -0.8155  0.5484
 7761SOL    HW226176   9.122   4.643   4.641  1.3789 -0.0618 -0.6770
 7762SOL     OW26177   3.998   8.831   2.600  0.0632 -0.0474 -0.0315
 7762SOL    HW126178   3.918   8.845   2.652  0.8769 -3.5518  2.5666
 7762SOL    HW226179   4.068   8.867   2.655  0.7787 -2.3707  0.6879
 7763SOL     OW26180   7.659   9.254   3.807  0.4676  0.9685 -0.0933
 7763SOL    HW126181   7.588   9.231   3.747 -0.6462  0.2618  1.4250
 7763SOL    HW226182   7.739   9.235   3.758 -0.3985 -0.8214 -0.9154
 7764SOL     OW26183   1.730   3.784   0.907  0.2475  0.0167 -0.1335
 7764SOL    HW126184   1.648   3.800   0.859  0.1840 -0.6116 -0.2429
 7764SOL    HW226185   1.788   3.744   0.843  0.6923  0.5988 -0.0909
 7765SOL     OW26186   0.596   8.382   1.934  0.4455  0.2927  1.1076
 7765SOL    HW126187   0.503   8.369   1.918  0.6662 -0.3197  0.2831
 7765SOL    HW226188   0.602   8.473   1.965 -0.2385  0.8646 -0.3461
 7766SOL     OW26189   4.551   1.288   5.899 -0.4553 -0.1639  0.5325
 7766SOL    HW126190   4.616   1.218   5.908 -0.4782 -0.4041 -0.8410
 7766SOL    HW226191   4.554   1.335   5.982  0.2849 -1.1824  1.1057
 7767SOL     OW26192   5.818   6.762   7.776 -0.3167 -0.0188 -0.1014
 7767SOL    HW126193   5.830   6.854   7.755 -1.1277  0.1321  0.0744
 7767SOL    HW226194   5.794   6.721   7.692 -0.2840 -0.0083 -0.1159
 7768SOL     OW26195   4.971   7.897   6.905 -0.2511 -0.4568 -0.8199
 7768SOL    HW126196   4.893   7.938   6.942 -0.5381 -1.6045 -0.1261
 7768SOL    HW226197   4.939   7.827   6.849  0.2180  0.6805 -2.5977
 7769SOL     OW26198   0.331   0.960   7.409 -0.8037  0.0118 -0.9203
 7769SOL    HW126199   0.319   0.878   7.361  0.6944 -0.8522  0.0983
 7769SOL    HW226200   0.398   1.007   7.360  0.6969 -0.8525  0.2294
 7770SOL     OW26201   1.976   7.084   9.141 -0.2299  0.4109 -0.2144
 7770SOL    HW126202   2.068   7.067   9.122 -0.7487 -1.2178 -1.5073
 7770SOL    HW226203   1.971   7.087   9.237  1.1308  0.4147 -0.1253
 7771SOL     OW26204   3.021   3.757   7.943  0.0422 -0.0125  0.0469
 7771SOL    HW126205   2.973   3.682   7.979 -1.4154 -0.1913 -2.0645
 7771SOL    HW226206   3.035   3.734   7.851  3.2321  0.5852  0.2911
 7772SOL     OW26207   8.397   0.168   7.821  0.2495  0.1235  0.2154
 7772SOL    HW126208   8.385   0.076   7.795  0.7543 -0.1075  0.7907
 7772SOL    HW226209   8.492   0.181   7.822  0.2128  0.3629  1.1284
 7773SOL     OW26210   3.690   0.219   9.027 -0.3776  0.1887  0.4399
 7773SOL    HW126211   3.605   0.213   9.071 -1.5066 -0.9731 -1.7656
 7773SOL    HW226212   3.702   0.313   9.012 -1.5931  0.3369  0.2465
 7774SOL     OW26213   0.124   1.356   7.096 -0.1360  0.3731  0.4981
 7774SOL    HW126214   0.216   1.333   7.112 -0.7889 -2.5491  0.6807
 7774SOL    HW226215   0.099   1.406   7.173  0.4849 -1.6639  2.1346
 7775SOL     OW26216   2.978   8.597   2.181  0.0067  0.2422 -0.3897
 7775SOL    HW126217   2.895   8.563   2.215  0.0686  2.0189  1.7906
 7775SOL    HW226218   3.023   8.521   2.145 -1.5546 -1.2071  0.6072
 7776SOL     OW26219   0.719   1.226   8.454 -0.8124  0.1509  0.0900
 7776SOL    HW126220   0.747   1.249   8.365 -1.5302 -0.1341 -0.2167
 7776SOL    HW226221   0.626   1.245   8.455 -1.1749 -1.4371  0.2394
 7777SOL     OW26222   1.574   3.159   7.225  0.3998 -0.0402  0.8051
 7777SOL    HW126223   1.627   3.092   7.183 -0.2522 -1.1062  1.6453
 7777SOL    HW226224   1.637   3.226   7.252  0.7718  1.4310 -3.0089
 7778SOL     OW26225   1.089   8.982   6.044  0.2983 -0.5174  0.3055
 7778SOL    HW126226   1.174   8.959   6.006  0.6540  0.2528  0.6019
 7778SOL    HW226227   1.097   8.960   6.137 -0.1371 -1.2401  0.1819
 7779SOL     OW26228   3.803   0.091   0.820  0.0888 -0.4462  0.6468
 7779SOL    HW126229   3.815   0.065   0.912  0.1850 -0.7002  0.5642
 7779SOL    HW226230   3.720   0.051   0.795  0.0269 -0.3152  0.6452
 7780SOL     OW26231   3.955   4.002   2.883  0.1050 -0.0304 -0.4975
 7780SOL    HW126232   3.990   4.085   2.915  0.8316 -1.0328  1.5398
 7780SOL    HW226233   3.888   3.978   2.948  1.0259 -1.7709 -0.1347
 7781SOL     OW26234   6.635   3.087   2.888  0.4919  0.1485 -0.6781
 7781SOL    HW126235   6.651   3.180   2.902 -0.8285  0.2771  0.2941
 7781SOL    HW226236   6.712   3.043   2.924  0.9658  0.8618 -0.8157
 7782SOL     OW26237   0.733   7.649   4.473  0.0423 -0.5507 -0.1446
 7782SOL    HW126238   0.649   7.674   4.433 -0.6591 -1.3466  0.7709
 7782SOL    HW226239   0.718   7.659   4.567  1.1662 -0.1792  0.0130
 7783SOL     OW26240   8.322   2.403   0.452 -0.2615 -0.6783  0.3186
 7783SOL    HW126241   8.372   2.438   0.525  0.4166  0.7134 -0.7550
 7783SOL    HW226242   8.277   2.480   0.415  1.8414 -0.6938 -2.5638
 7784SOL     OW26243   2.832   1.785   4.378 -0.3351 -0.2114 -0.3407
 7784SOL    HW126244   2.925   1.803   4.387 -0.7483  1.3396  1.7360
 7784SOL    HW226245   2.827   1.699   4.338  2.0200 -0.8375  0.5855
 7785SOL     OW26246   2.588   1.057   1.093  0.1997  0.2755 -0.2060
 7785SOL    HW126247   2.590   1.058   1.189  1.2270  3.3820 -0.1520
 7785SOL    HW226248   2.511   1.005   1.071 -1.4658  1.4654  2.3874
 7786SOL     OW26249   5.228   7.615   1.184  0.2686  0.5386  0.8209
 7786SOL    HW126250   5.256   7.528   1.155 -1.2133  0.8961 -2.0273
 7786SOL    HW226251   5.298   7.673   1.153 -0.1015  0.6475  0.1748
 7787SOL     OW26252   8.299   5.768   3.702  0.1425 -0.4442  0.7388
 7787SOL    HW126253   8.338   5.684   3.680 -0.4891 -0.6506  0.3865
 7787SOL    HW226254   8.374   5.826   3.716  0.6478 -0.2525 -2.0881
 7788SOL     OW26255   7.503   3.465   1.108 -0.8023 -0.0247  0.2806
 7788SOL    HW126256   7.419   3.419   1.120 -0.9922  0.5513  1.2813
 7788SOL    HW226257   7.569   3.395   1.112 -0.9626 -0.1580  3.2335
 7789SOL     OW26258   8.938   8.318   7.907  0.4688  0.0948  0.1792
 7789SOL    HW126259   8.987   8.400   7.902  0.6593  0.0373  0.9613
 7789SOL    HW226260   8.846   8.344   7.903  0.5451  0.2097 -1.2247
 7790SOL     OW26261   8.300   6.071   1.687 -0.7402 -0.6482  0.2060
 7790SOL    HW126262   8.224   6.118   1.654  0.2212 -0.8836 -2.6396
 7790SOL    HW226263   8.348   6.135   1.740 -2.6266 -0.3811  1.6683
 7791SOL     OW26264   4.852   8.500   5.063 -0.0130  0.3260  0.0933
 7791SOL    HW126265   4.887   8.585   5.089 -0.0874  0.2806  0.3522
 7791SOL    HW226266   4.761   8.519   5.037  0.3724  0.5401 -1.1592
 7792SOL     OW26267   1.990   1.344   4.692  0.3457 -0.8220 -0.0753
 7792SOL    HW126268   1.905   1.327   4.651  0.0426 -0.6039  0.4524
 7792SOL    HW226269   1.984   1.434   4.724  1.3200 -0.2701 -1.3477
 7793SOL     OW26270   6.124   5.533   3.866 -0.1287  0.2417  0.0861
 7793SOL    HW126271   6.119   5.623   3.834  0.5063  0.2772  0.0706
 7793SOL    HW226272   6.038   5.495   3.846 -0.4888  0.9165  0.3192
 7794SOL     OW26273   5.771   4.553   8.284  0.2216  0.1070  0.3284
 7794SOL    HW126274   5.783   4.584   8.374  2.0485 -0.2701  0.2507
 7794SOL    HW226275   5.798   4.461   8.286 -2.7700 -0.8995  0.0266
 7795SOL     OW26276   8.014   0.285   6.333  0.7637 -0.2926  0.4231
 7795SOL    HW126277   8.003   0.281   6.238  1.0070  0.6134  0.3424
 7795SOL    HW226278   7.927   0.267   6.368  0.6781 -0.6525  0.0263
 7796SOL     OW26279   4.661   4.677   5.633 -0.2883  0.2155  0.4786
 7796SOL    HW126280   4.660   4.684   5.728 -3.0208 -0.4166  0.6058
 7796SOL    HW226281   4.697   4.760   5.602  1.5417  0.0517  2.0283
 7797SOL     OW26282   0.746   7.184   2.360 -0.0576 -0.5122 -0.2360
 7797SOL    HW126283   0.770   7.230   2.280 -0.9158 -0.0654 -0.2475
 7797SOL    HW226284   0.658   7.150   2.343 -0.1681 -0.5772  0.4455
 7798SOL     OW26285   9.159   1.546   6.010  0.0919  0.5026 -0.7237
 7798SOL    HW126286   9.087   1.485   6.026  0.7841  0.0626  0.9105
 7798SOL    HW226287   9.235   1.490   5.996  0.5425  0.9824 -0.2162
 7799SOL     OW26288   8.044   6.818   4.640  0.0385 -0.4164 -0.3742
 7799SOL    HW126289   8.048   6.913   4.651 -1.7757 -0.4244  0.9218
 7799SOL    HW226290   7.991   6.805   4.562  1.4310 -0.3979 -1.3588
 7800SOL     OW26291   3.946   0.982   7.112  0.2844  0.1465  0.0638
 7800SOL    HW126292   3.889   0.906   7.112  0.3701  0.0815  0.4949
 7800SOL    HW226293   4.021   0.955   7.059  1.1267 -0.6920  1.6137
 7801SOL     OW26294   8.022   7.551   3.481 -0.1443 -0.0731  0.0524
 7801SOL    HW126295   8.067   7.530   3.400 -0.5746  0.7411 -0.4019
 7801SOL    HW226296   8.066   7.630   3.514 -0.1258 -0.2611  0.4943
 7802SOL     OW26297   8.439   1.982   2.331  0.0338  0.3084  0.2261
 7802SOL    HW126298   8.347   1.984   2.303 -0.1039  1.0296  0.6892
 7802SOL    HW226299   8.481   2.048   2.276  0.4189 -0.4739 -0.4341
 7803SOL     OW26300   8.450   2.686   7.425  0.0200 -0.5312 -0.1282
 7803SOL    HW126301   8.387   2.751   7.395 -0.3241 -0.2030  1.2646
 7803SOL    HW226302   8.397   2.608   7.444  0.2168 -0.6936 -0.2396
 7804SOL     OW26303   2.130   8.146   6.108 -0.6821 -0.3021  0.0611
 7804SOL    HW126304   2.035   8.136   6.101 -0.7460  0.9516 -1.3238
 7804SOL    HW226305   2.153   8.205   6.037  0.6681  2.2613  2.4328
 7805SOL     OW26306   5.458   8.685   9.185  0.3535 -0.1015 -0.5085
 7805SOL    HW126307   5.522   8.630   9.231  1.0998  0.6316 -0.6439
 7805SOL    HW226308   5.482   8.774   9.208  1.2465  0.3544 -2.8951
 7806SOL     OW26309   5.360   4.987   1.068 -0.6687  0.4374  0.6816
 7806SOL    HW126310   5.340   4.989   1.161  2.2703  3.8624  1.4412
 7806SOL    HW226311   5.454   5.003   1.063 -0.8517  1.2414 -2.9000
 7807SOL     OW26312   3.905   3.994   6.700  0.0931 -0.2851  0.2816
 7807SOL    HW126313   3.818   4.032   6.692  0.4434  0.4044 -0.3290
 7807SOL    HW226314   3.891   3.900   6.692 -0.5409 -0.1502 -0.2495
 7808SOL     OW26315   1.441   9.168   5.736  0.2282 -0.1916 -0.6579
 7808SOL    HW126316   1.352   9.204   5.738 -1.2558 -3.3830  3.4446
 7808SOL    HW226317   1.491   9.228   5.791 -0.3873 -0.4412  0.1964
 7809SOL     OW26318   5.426   6.337   1.620  0.0400 -0.2011 -0.4706
 7809SOL    HW126319   5.370   6.389   1.562 -0.0659  1.2066  0.8328
 7809SOL    HW226320   5.472   6.402   1.673  1.3761 -1.4063 -0.1139
 7810SOL     OW26321   6.409   8.589   3.032  0.3577  0.1284 -0.1591
 7810SOL    HW126322   6.410   8.578   2.937 -2.2449 -3.1541  0.0102
 7810SOL    HW226323   6.469   8.521   3.065  0.6505  0.7273  0.5746
 7811SOL     OW26324   1.684   9.257   8.373  0.1342 -0.5121 -0.0759
 7811SOL    HW126325   1.644   9.309   8.303 -0.6857 -2.5521 -1.1973
 7811SOL    HW226326   1.613   9.242   8.436  0.7764  1.0039  1.0998
 7812SOL     OW26327   4.883   4.617   1.977 -0.0049 -0.3889  0.2427
 7812SOL    HW126328   4.861   4.681   1.910 -0.0893  0.7433  1.3105
 7812SOL    HW226329   4.850   4.534   1.944 -0.0594  0.1442 -1.0897
 7813SOL     OW26330   7.877   5.533   5.871 -0.1120 -0.0254  0.7341
 7813SOL    HW126331   7.838   5.576   5.946  0.7813 -0.7096  1.6170
 7813SOL    HW226332   7.810   5.538   5.803 -0.8063  0.8915  1.4620
 7814SOL     OW26333   0.342   6.093   2.830 -0.6503  0.3174  0.0542
 7814SOL    HW126334   0.330   6.184   2.859  1.7938  0.0349  2.3416
 7814SOL    HW226335   0.387   6.101   2.745 -0.2396  1.2518  0.3442
 7815SOL     OW26336   1.799   6.959   2.352  0.6733  0.2979  0.2443
 7815SOL    HW126337   1.834   6.887   2.299  0.3125 -0.4496  0.9912
 7815SOL    HW226338   1.712   6.929   2.378  0.6436  0.8745  0.8367
 7816SOL     OW26339   0.652   2.212   3.137  0.0156  0.8883  0.3054
 7816SOL    HW126340   0.562   2.209   3.104 -0.4900  2.6308  1.3804
 7816SOL    HW226341   0.696   2.276   3.082  0.0209  1.5265  1.0340
 7817SOL     OW26342   6.828   3.768   4.439  0.2259 -0.0804  0.2587
 7817SOL    HW126343   6.804   3.855   4.472 -2.4136 -0.2589 -0.9074
 7817SOL    HW226344   6.903   3.784   4.383 -0.1306  1.4553  0.1649
 7818SOL     OW26345   5.675   4.426   3.958  0.0235  0.1395  0.0655
 7818SOL    HW126346   5.697   4.518   3.946 -0.3514  0.3009  0.5978
 7818SOL    HW226347   5.752   4.378   3.926 -0.1317  0.6061 -1.0556
 7819SOL     OW26348   5.634   2.672   7.595  0.0687  0.1264 -0.3169
 7819SOL    HW126349   5.666   2.714   7.516 -0.4695  1.5810  0.1980
 7819SOL    HW226350   5.713   2.648   7.644  0.4091  1.3725 -0.2225
 7820SOL     OW26351   4.611   1.920   2.495  0.1534 -0.1434 -0.1483
 7820SOL    HW126352   4.536   1.861   2.494 -0.1046  0.1815 -0.0897
 7820SOL    HW226353   4.595   1.977   2.570  0.1765  0.2884 -0.4714
 7821SOL     OW26354   1.031   0.839   1.028 -0.1903  0.3871 -0.8851
 7821SOL    HW126355   0.976   0.915   1.047  0.2270  0.1229  1.7294
 7821SOL    HW226356   1.107   0.850   1.085  1.2994 -0.5368 -2.5998
 7822SOL     OW26357   3.458   6.998   4.823  0.3754  0.5591  0.3119
 7822SOL    HW126358   3.535   7.055   4.823  0.1017  0.9352 -0.1303
 7822SOL    HW226359   3.392   7.047   4.775 -0.0625  0.1285  0.4672
 7823SOL     OW26360   7.729   7.998   4.650 -0.5069 -0.3086  0.4055
 7823SOL    HW126361   7.786   7.923   4.631  1.6891  1.5493 -0.9934
 7823SOL    HW226362   7.773   8.045   4.721 -0.8050  0.6299 -0.0011
 7824SOL     OW26363   8.536   1.315   3.478  0.0055  0.1817 -0.4080
 7824SOL    HW126364   8.514   1.403   3.509  1.1307  0.6804 -0.9635
 7824SOL    HW226365   8.461   1.289   3.425 -0.7161  0.4458  0.4721
 7825SOL     OW26366   9.254   6.511   5.123  0.3933 -0.5840  0.1453
 7825SOL    HW126367   9.332   6.457   5.135  1.4750  0.8352 -0.2276
 7825SOL    HW226368   9.260   6.542   5.033 -0.6705 -0.5230  0.0807
 7826SOL     OW26369   7.142   7.986   7.796  0.5471  0.3168 -0.4460
 7826SOL    HW126370   7.144   7.891   7.782  1.1361  0.1860  0.4744
 7826SOL    HW226371   7.230   8.008   7.828  0.3353  1.1350 -0.3957
 7827SOL     OW26372   5.827   7.378   5.420 -0.1431  0.2043 -0.0422
 7827SOL    HW126373   5.755   7.371   5.356  1.6966 -3.5636 -2.0280
 7827SOL    HW226374   5.901   7.410   5.369  0.1668  2.2818  1.5661
 7828SOL     OW26375   0.944   3.075   0.899  0.1766  0.2927  0.2190
 7828SOL    HW126376   0.892   3.084   0.819 -0.9987 -0.1083  0.9127
 7828SOL    HW226377   1.035   3.067   0.867 -0.2849 -0.1172 -1.0889
 7829SOL     OW26378   8.391   4.547   1.915 -0.0744  0.4587  0.2868
 7829SOL    HW126379   8.345   4.586   1.841 -0.4394  0.3216  0.4386
 7829SOL    HW226380   8.483   4.542   1.888 -0.2284  0.2909 -0.2027
 7830SOL     OW26381   8.890   9.221   1.294  0.5097  0.1876  0.1527
 7830SOL    HW126382   8.978   9.196   1.321 -0.2443 -0.2949  2.3938
 7830SOL    HW226383   8.840   9.139   1.295  0.0451  0.4357 -1.1996
 7831SOL     OW26384   2.622   3.885   1.602 -0.4401  0.1364 -0.5035
 7831SOL    HW126385   2.642   3.807   1.550 -1.1722 -1.0416  0.8920
 7831SOL    HW226386   2.603   3.851   1.690  1.6249  2.1008  0.8237
 7832SOL     OW26387   7.322   4.290   2.816 -0.9116  0.2545 -0.3617
 7832SOL    HW126388   7.343   4.282   2.909  2.6076  2.8249 -0.7535
 7832SOL    HW226389   7.230   4.318   2.815 -0.9875  0.3482  2.3427
 7833SOL     OW26390   9.235   3.809   6.198 -0.2590  0.5729  0.2526
 7833SOL    HW126391   9.271   3.864   6.268 -0.8478  0.9140  0.2925
 7833SOL    HW226392   9.312   3.777   6.151  0.0976  1.3014  0.3278
 7834SOL     OW26393   3.161   2.271   3.487  0.3092  0.1585 -0.2219
 7834SOL    HW126394   3.130   2.181   3.474  1.7107 -0.3075 -0.5047
 7834SOL    HW226395   3.095   2.325   3.444  0.0977 -0.8197 -1.2004
 7835SOL     OW26396   8.289   6.452   3.591  0.8622  0.0157  0.1787
 7835SOL    HW126397   8.257   6.363   3.603 -0.4463  0.5342  0.6920
 7835SOL    HW226398   8.335   6.473   3.672  0.6498  0.0182  0.2982
 7836SOL     OW26399   8.426   8.418   3.790  0.1949  0.0452 -0.3885
 7836SOL    HW126400   8.352   8.365   3.762  0.1665 -0.2649  0.2533
 7836SOL    HW226401   8.458   8.459   3.710 -0.2920 -0.2930 -0.7619
 7837SOL     OW26402   0.325   2.728   2.603  0.0794  0.1245 -0.8459
 7837SOL    HW126403   0.274   2.809   2.611 -0.2878 -0.2300  1.0552
 7837SOL    HW226404   0.347   2.705   2.693  0.1998 -1.8780 -1.3376
 7838SOL     OW26405   1.337   7.773   8.876  0.0845  0.2186 -0.3463
 7838SOL    HW126406   1.297   7.836   8.936  1.4320 -0.1285  0.9855
 7838SOL    HW226407   1.263   7.726   8.837 -0.9243  2.0860 -0.8342
 7839SOL     OW26408   5.488   7.024   7.328  0.3962 -0.0498  0.6893
 7839SOL    HW126409   5.471   7.064   7.244 -0.4986  0.5226  1.1256
 7839SOL    HW226410   5.512   7.096   7.385  0.7414 -0.3956  0.9893
 7840SOL     OW26411   9.034   5.181   4.439  0.1537 -0.0003 -1.0147
 7840SOL    HW126412   9.119   5.142   4.457 -0.4869 -0.7996  0.4378
 7840SOL    HW226413   9.043   5.272   4.466  0.0556 -0.5074  0.8179
 7841SOL     OW26414   1.756   7.025   5.384 -0.5581  0.3775  0.4028
 7841SOL    HW126415   1.841   6.984   5.365 -1.0365 -0.0483 -0.9503
 7841SOL    HW226416   1.721   6.973   5.456  0.1346  0.2798  0.6819
 7842SOL     OW26417   3.296   5.452   1.591  0.0793  0.4309  0.1157
 7842SOL    HW126418   3.356   5.407   1.532 -1.4207 -0.0210 -1.1217
 7842SOL    HW226419   3.216   5.463   1.540 -1.1948  0.2335  1.9971
 7843SOL     OW26420   9.105   8.431   5.146  0.2750 -0.5782  0.5416
 7843SOL    HW126421   9.094   8.335   5.147  0.2055 -0.5699  0.6310
 7843SOL    HW226422   9.161   8.449   5.221  0.4453 -0.5667  0.4101
 7844SOL     OW26423   5.918   7.879   6.342  0.4058 -0.2843  0.1250
 7844SOL    HW126424   5.965   7.796   6.353 -0.1463 -0.4610  1.2574
 7844SOL    HW226425   5.863   7.864   6.264 -0.7876 -1.5357  1.1510
 7845SOL     OW26426   4.441   6.103   1.868 -0.1453 -0.1420 -1.0403
 7845SOL    HW126427   4.532   6.121   1.890 -0.6031  2.7658 -1.1191
 7845SOL    HW226428   4.419   6.167   1.801 -2.4562 -0.2183 -0.4536
 7846SOL     OW26429   6.462   7.112   6.980  0.0500  0.2277 -0.4859
 7846SOL    HW126430   6.492   7.202   6.971  0.8202  0.0915  0.5054
 7846SOL    HW226431   6.531   7.060   6.939  0.7911 -0.0364  1.0337
 7847SOL     OW26432   9.113   3.239   7.277 -0.5633  0.1967  0.0819
 7847SOL    HW126433   9.078   3.247   7.366  1.0971 -1.2372  0.9102
 7847SOL    HW226434   9.206   3.259   7.286 -0.4998  0.7560 -1.4935
 7848SOL     OW26435   7.571   6.311   3.788  0.8936  0.0775 -0.5493
 7848SOL    HW126436   7.620   6.259   3.724  0.6087  0.4044 -1.0383
 7848SOL    HW226437   7.539   6.386   3.738  1.9132  1.1063  0.3163
 7849SOL     OW26438   3.390   5.569   6.573  0.4042  0.3896  0.1714
 7849SOL    HW126439   3.445   5.631   6.525 -0.1931  1.4400  0.8104
 7849SOL    HW226440   3.379   5.608   6.659 -1.1070  0.0775  0.1484
 7850SOL     OW26441   5.660   0.378   6.602 -0.3163 -0.1463 -0.0686
 7850SOL    HW126442   5.609   0.300   6.626 -0.1526 -0.6528 -1.3057
 7850SOL    HW226443   5.636   0.394   6.510  0.5953  0.5268 -0.1934
 7851SOL     OW26444   4.169   5.044   5.138  0.5533  0.4051 -0.0298
 7851SOL    HW126445   4.209   5.114   5.087  2.4249 -0.3340  0.3406
 7851SOL    HW226446   4.120   4.993   5.074  0.0950  1.4001 -0.4875
 7852SOL     OW26447   6.942   0.750   1.969 -0.0720 -0.5649 -0.4481
 7852SOL    HW126448   6.855   0.788   1.955 -0.4245 -0.8574  0.7880
 7852SOL    HW226449   6.933   0.660   1.936  0.4265  0.0163 -2.3085
 7853SOL     OW26450   5.665   3.580   0.592  0.3529  0.4618  0.5609
 7853SOL    HW126451   5.740   3.588   0.532  1.2317 -0.1610  1.5423
 7853SOL    HW226452   5.667   3.661   0.642  0.2392  0.5357  0.4465
 7854SOL     OW26453   6.253   5.287   2.981  0.0727 -0.0114  0.3882
 7854SOL    HW126454   6.289   5.374   2.999 -0.8054  0.2872  0.7599
 7854SOL    HW226455   6.261   5.241   3.065 -1.0328  0.2970  0.6851
 7855SOL     OW26456   8.228   1.591   8.386 -0.2670  0.5277  0.5192
 7855SOL    HW126457   8.209   1.548   8.469 -0.4926 -1.7363 -0.6372
 7855SOL    HW226458   8.317   1.562   8.363 -1.8922 -3.0091 -2.2886
 7856SOL     OW26459   4.194   2.340   9.219 -0.9353 -0.4345 -0.2066
 7856SOL    HW126460   4.254   2.267   9.232 -0.8194 -0.2371  0.3966
 7856SOL    HW226461   4.115   2.315   9.266 -2.4797 -1.9910 -3.3096
 7857SOL     OW26462   5.509   6.501   1.313 -0.1379  0.1813  0.6935
 7857SOL    HW126463   5.476   6.569   1.372  0.2189  0.0033  1.1008
 7857SOL    HW226464   5.565   6.547   1.251 -0.7651  0.4160  0.2923
 7858SOL     OW26465   7.389   5.179   4.517  0.2194  0.4128  0.2324
 7858SOL    HW126466   7.309   5.230   4.502 -0.2516 -0.1688  0.7702
 7858SOL    HW226467   7.393   5.167   4.612 -0.6486 -2.0853  0.0253
 7859SOL     OW26468   1.037   6.488   3.378 -0.6447 -0.6291 -0.3920
 7859SOL    HW126469   1.066   6.577   3.362 -0.1901 -0.7564 -0.2929
 7859SOL    HW226470   1.110   6.447   3.425 -0.0982 -1.5704 -1.9867
 7860SOL     OW26471   8.528   0.350   2.090  0.0025 -1.0185  0.1990
 7860SOL    HW126472   8.450   0.309   2.053 -0.6157 -1.3731  1.7923
 7860SOL    HW226473   8.514   0.444   2.077 -1.1616 -1.0124  1.2551
 7861SOL     OW26474   8.582   1.091   1.748 -0.3281  0.1382  0.2421
 7861SOL    HW126475   8.488   1.109   1.742 -0.4141 -0.4832 -0.3502
 7861SOL    HW226476   8.617   1.118   1.663 -0.4283 -2.2040 -0.6185
 7862SOL     OW26477   0.982   5.292   1.754  0.1145 -0.0869 -0.2862
 7862SOL    HW126478   0.978   5.343   1.674 -0.0013  2.9828  1.5079
 7862SOL    HW226479   0.953   5.204   1.729  0.9047  0.4974 -3.6990
 7863SOL     OW26480   6.055   3.671   9.142 -0.1196 -0.4843 -0.2472
 7863SOL    HW126481   5.993   3.744   9.144  0.9689  0.5055 -1.2072
 7863SOL    HW226482   6.016   3.605   9.198 -0.6926  1.2106  1.4588
 7864SOL     OW26483   2.073   5.031   7.287  0.2190 -0.6488  0.1551
 7864SOL    HW126484   2.021   4.985   7.353 -1.8039 -0.3632 -1.1607
 7864SOL    HW226485   2.079   4.969   7.214 -0.7275  0.3187 -0.7943
 7865SOL     OW26486   1.324   5.465   7.495 -0.3688 -0.3979  0.1380
 7865SOL    HW126487   1.376   5.495   7.570 -1.5302  1.3529  0.2907
 7865SOL    HW226488   1.377   5.490   7.419  0.7950 -2.1451  0.3101
 7866SOL     OW26489   2.422   6.916   5.119  0.1912 -0.0233  0.5231
 7866SOL    HW126490   2.337   6.875   5.105 -0.1249 -0.0238  2.2623
 7866SOL    HW226491   2.465   6.912   5.033 -0.9551 -1.3760 -0.0254
 7867SOL     OW26492   2.054   0.721   7.689  0.4182 -0.6395 -0.1550
 7867SOL    HW126493   1.982   0.777   7.659  0.0704 -1.2469 -0.4841
 7867SOL    HW226494   2.106   0.705   7.610  2.7363  2.2954  0.5864
 7868SOL     OW26495   8.357   0.509   9.124 -0.7145 -0.0195  0.0296
 7868SOL    HW126496   8.368   0.587   9.179  1.1295  0.4626 -0.9506
 7868SOL    HW226497   8.324   0.543   9.041  0.5410 -0.1947 -0.5599
 7869SOL     OW26498   2.001   7.485   0.258  0.3464  0.0399 -0.4096
 7869SOL    HW126499   1.984   7.507   0.167  0.0588 -0.1105 -0.3962
 7869SOL    HW226500   2.045   7.562   0.294  2.1454 -0.5910 -1.1349
 7870SOL     OW26501   8.148   2.915   6.293  0.4176  0.1438  0.7601
 7870SOL    HW126502   8.186   2.971   6.361  0.2808 -0.0296  0.9806
 7870SOL    HW226503   8.218   2.855   6.268  0.1819 -0.4121  1.4230
 7871SOL     OW26504   4.388   0.341   1.781 -0.2741 -0.6788  0.1800
 7871SOL    HW126505   4.319   0.304   1.835 -1.8738  1.2036 -0.4444
 7871SOL    HW226506   4.460   0.279   1.787 -1.9905 -2.6887  0.9222
 7872SOL     OW26507   7.873   4.058   4.910  0.1209  0.5553 -0.3524
 7872SOL    HW126508   7.854   4.045   4.817 -1.8642 -0.3807  0.1148
 7872SOL    HW226509   7.871   4.153   4.922 -1.1041  0.6454 -1.0329
 7873SOL     OW26510   4.813   4.395   1.879  0.2885  0.2728 -0.3462
 7873SOL    HW126511   4.790   4.322   1.936 -2.4281  3.1399  2.6582
 7873SOL    HW226512   4.751   4.390   1.807  1.1946 -1.2074 -1.0674
 7874SOL     OW26513   9.223   0.305   5.358  0.2710  0.6760 -0.5633
 7874SOL    HW126514   9.204   0.323   5.450  1.9230  2.7168 -0.5651
 7874SOL    HW226515   9.152   0.247   5.330 -1.1299  1.2578  1.5717
 7875SOL     OW26516   2.564   1.319   0.653  0.5646 -0.2321 -0.4167
 7875SOL    HW126517   2.508   1.259   0.604  2.1891 -0.5573 -1.9616
 7875SOL    HW226518   2.594   1.382   0.588  1.0312  0.6706  0.6355
 7876SOL     OW26519   4.782   2.537   3.940 -0.0620 -0.2232 -0.3064
 7876SOL    HW126520   4.743   2.537   4.027 -1.6723 -1.8380 -0.9494
 7876SOL    HW226521   4.851   2.471   3.945 -0.2343 -0.4039 -0.2558
 7877SOL     OW26522   6.278   6.881   2.874 -0.1130 -0.0035  0.5374
 7877SOL    HW126523   6.292   6.867   2.968  0.3067 -0.3743  0.4252
 7877SOL    HW226524   6.316   6.967   2.857  1.8292 -0.8445  0.3079
 7878SOL     OW26525   4.392   2.977   8.566  0.1408  0.6012  0.4884
 7878SOL    HW126526   4.338   3.056   8.578  0.4626  0.6533  1.7521
 7878SOL    HW226527   4.340   2.907   8.605  0.0937  0.2668 -0.1579
 7879SOL     OW26528   6.029   3.434   5.419  0.0585 -0.1984  0.0150
 7879SOL    HW126529   6.088   3.504   5.447  2.1451 -2.5138  2.0406
 7879SOL    HW226530   5.956   3.438   5.481  0.2921  0.0545  0.2770
 7880SOL     OW26531   1.102   3.934   3.581  0.1096  0.0687 -0.1326
 7880SOL    HW126532   1.149   3.851   3.567  1.0870  0.3501  1.3400
 7880SOL    HW226533   1.034   3.933   3.514 -1.2475 -2.9185  1.1104
 7881SOL     OW26534   2.059   4.294   2.552  0.0157  0.2762 -0.7352
 7881SOL    HW126535   2.111   4.319   2.629  1.2382  0.3420 -1.5468
 7881SOL    HW226536   2.029   4.205   2.572  0.5441  0.1890 -0.2887
 7882SOL     OW26537   4.858   1.149   7.253  0.1736  0.0463 -0.1066
 7882SOL    HW126538   4.791   1.082   7.270  0.2882 -0.3414 -1.0713
 7882SOL    HW226539   4.938   1.099   7.239  0.4244  0.4361 -0.0624
 7883SOL     OW26540   7.074   3.268   5.545 -0.1268 -0.3041 -0.0396
 7883SOL    HW126541   7.041   3.299   5.460 -0.0740  0.3866  0.1853
 7883SOL    HW226542   7.157   3.314   5.556 -0.5487  0.2672  0.7843
 7884SOL     OW26543   9.205   0.932   6.820 -0.3504 -0.5278 -0.1368
 7884SOL    HW126544   9.127   0.960   6.869  0.4030  0.5801  0.4824
 7884SOL    HW226545   9.189   0.963   6.731 -1.3191 -1.7287 -0.3938
 7885SOL     OW26546   0.259   1.283   1.679 -0.2492 -0.2154  0.0842
 7885SOL    HW126547   0.253   1.335   1.598  0.0081 -0.2276  0.0558
 7885SOL    HW226548   0.340   1.313   1.720  0.7133 -1.6636 -0.6924
 7886SOL     OW26549   7.995   1.516   3.596 -0.3384  0.4357  0.4521
 7886SOL    HW126550   8.084   1.484   3.582  0.2228  1.8088  0.7130
 7886SOL    HW226551   7.967   1.474   3.677  0.5432  0.9160  1.0313
 7887SOL     OW26552   5.286   1.708   2.345  0.2838 -0.2481 -0.2401
 7887SOL    HW126553   5.206   1.730   2.394  1.1172 -0.5272  1.3026
 7887SOL    HW226554   5.342   1.784   2.356  0.2115 -0.0244 -1.3880
 7888SOL     OW26555   6.397   3.355   2.771 -0.3283  0.0418 -0.3711
 7888SOL    HW126556   6.333   3.297   2.813 -0.4280 -0.4593 -1.2078
 7888SOL    HW226557   6.474   3.350   2.828  0.0362 -1.7348 -0.9752
 7889SOL     OW26558   4.019   5.124   7.438  0.6645 -0.4368  0.0698
 7889SOL    HW126559   3.950   5.182   7.468 -0.4201 -2.3401  1.3768
 7889SOL    HW226560   4.049   5.164   7.356  0.5156  2.3519  1.2732
 7890SOL     OW26561   1.865   1.082   0.423  0.0729 -0.0133  0.5432
 7890SOL    HW126562   1.780   1.112   0.393  0.6732  0.6380 -0.5956
 7890SOL    HW226563   1.855   1.069   0.517 -1.3410 -0.2044  0.3859
 7891SOL     OW26564   8.306   7.923   7.424  0.0766 -0.0058 -0.3770
 7891SOL    HW126565   8.288   7.894   7.513  0.3467 -0.2963 -0.4167
 7891SOL    HW226566   8.245   7.872   7.370 -0.2373  0.3273 -0.3383
 7892SOL     OW26567   0.908   8.121   5.607 -0.1155  0.2991  0.2524
 7892SOL    HW126568   0.882   8.212   5.592 -1.2077  0.0110  0.3277
 7892SOL    HW226569   0.826   8.075   5.628  0.2637 -0.9179 -0.7894
 7893SOL     OW26570   5.948   5.906   5.632 -0.1076  0.5400  0.2800
 7893SOL    HW126571   5.976   5.919   5.542 -0.6685  2.9457  0.3939
 7893SOL    HW226572   5.855   5.926   5.632  0.0296  1.2919  1.4945
 7894SOL     OW26573   8.020   4.394   6.330  0.6046  0.0216  0.2827
 7894SOL    HW126574   7.970   4.391   6.412 -0.1682 -1.3353 -0.2081
 7894SOL    HW226575   7.983   4.324   6.277  1.6609  0.3377 -0.9143
 7895SOL     OW26576   2.808   0.319   0.566  0.1763 -0.1519  0.1559
 7895SOL    HW126577   2.821   0.317   0.661  0.0590 -0.3156  0.1695
 7895SOL    HW226578   2.775   0.232   0.544 -3.5617  0.9809  0.5297
 7896SOL     OW26579   6.261   4.920   2.684 -0.1126 -0.3114  0.0565
 7896SOL    HW126580   6.185   4.862   2.683  0.1675 -0.6764 -0.2651
 7896SOL    HW226581   6.291   4.921   2.594  0.0833  0.0767  0.1251
 7897SOL     OW26582   0.480   8.101   4.882 -0.3336 -0.3085  0.0013
 7897SOL    HW126583   0.564   8.057   4.868  0.4945  0.3377  2.4513
 7897SOL    HW226584   0.416   8.047   4.836  1.3152 -1.1553 -1.4089
 7898SOL     OW26585   1.946   0.586   3.403  0.6681  0.8408  0.0559
 7898SOL    HW126586   1.950   0.493   3.384 -1.0352  1.0100 -1.4449
 7898SOL    HW226587   2.027   0.622   3.367  0.1014  0.2920 -1.8772
 7899SOL     OW26588   8.048   4.811   5.184 -0.1376  0.8742  0.0190
 7899SOL    HW126589   8.003   4.818   5.268 -1.0443  1.5671 -0.5069
 7899SOL    HW226590   8.132   4.855   5.198 -0.5943  1.6564  0.3484
 7900SOL     OW26591   7.574   0.519   4.964 -0.0259  0.1161  0.1594
 7900SOL    HW126592   7.645   0.455   4.960  0.6166  0.8588 -2.9855
 7900SOL    HW226593   7.587   0.563   5.048  3.7513  0.6676 -0.5145
 7901SOL     OW26594   2.963   8.302   0.973  0.7616 -0.1922 -0.1432
 7901SOL    HW126595   2.985   8.391   1.002  0.9436 -0.4214  0.4200
 7901SOL    HW226596   2.965   8.308   0.877  1.0027  0.3549 -0.1107
 7902SOL     OW26597   7.986   0.280   7.991  0.1304  0.3475 -0.3104
 7902SOL    HW126598   7.962   0.189   7.973  0.2954  0.5392 -1.5638
 7902SOL    HW226599   8.081   0.283   7.982  0.0416  0.8282 -1.2011
 7903SOL     OW26600   4.505   8.952   4.215  0.3939  0.5100  0.6974
 7903SOL    HW126601   4.480   9.034   4.257  0.6869  1.1704 -0.3749
 7903SOL    HW226602   4.546   8.979   4.133  0.3821 -0.7209  0.2707
 7904SOL     OW26603   0.877   4.600   3.067 -0.0986  0.2627 -0.0790
 7904SOL    HW126604   0.880   4.656   2.989 -0.6023  0.2971 -0.0732
 7904SOL    HW226605   0.797   4.550   3.057 -0.8819  1.2444  1.0817
 7905SOL     OW26606   2.797   3.151   7.837  0.1735  0.1285  0.3467
 7905SOL    HW126607   2.780   3.120   7.925  0.2478 -0.5390  0.1293
 7905SOL    HW226608   2.862   3.221   7.848  0.8160 -0.5173  0.7534
 7906SOL     OW26609   6.660   7.984   0.280  0.3693  0.3868  0.1208
 7906SOL    HW126610   6.648   8.009   0.371  0.4355 -0.4788  0.3746
 7906SOL    HW226611   6.706   8.059   0.241  0.4345  0.7186  0.8158
 7907SOL     OW26612   0.121   5.787   9.016  0.2216 -0.5670  0.0658
 7907SOL    HW126613   0.132   5.856   8.950 -1.6899  0.7342  1.0148
 7907SOL    HW226614   0.070   5.719   8.972  0.3834 -0.4733 -0.2718
 7908SOL     OW26615   1.883   6.027   3.780  0.0695 -0.1936 -0.5998
 7908SOL    HW126616   1.817   5.977   3.828  0.2986  0.6255  0.6191
 7908SOL    HW226617   1.895   5.979   3.698 -2.1717 -0.2637 -0.9515
 7909SOL     OW26618   9.218   3.554   0.596  0.1953 -0.5382 -0.1757
 7909SOL    HW126619   9.129   3.588   0.611  1.2044  1.6308  1.3098
 7909SOL    HW226620   9.236   3.574   0.504 -0.6673 -0.5718 -0.3627
 7910SOL     OW26621   3.884   8.770   3.336 -0.0036  0.5235  0.2603
 7910SOL    HW126622   3.941   8.735   3.268 -0.0703  2.6087 -0.9586
 7910SOL    HW226623   3.805   8.798   3.291 -0.2432  1.5386  1.2443
 7911SOL     OW26624   9.078   2.677   0.992 -0.0694 -0.1602 -0.4871
 7911SOL    HW126625   9.053   2.664   0.900 -0.6669 -0.6427 -0.2670
 7911SOL    HW226626   9.130   2.757   0.992  0.1893 -0.3179 -1.2942
 7912SOL     OW26627   2.078   5.030   2.384 -0.5107  0.3407 -0.1167
 7912SOL    HW126628   2.102   5.006   2.474  2.0429  0.5275 -0.6726
 7912SOL    HW226629   2.121   5.114   2.370 -1.1136  0.4431 -1.4523
 7913SOL     OW26630   4.977   2.767   7.976  0.0446  0.0001 -0.0099
 7913SOL    HW126631   4.988   2.786   8.069 -0.6010  2.0374 -0.2972
 7913SOL    HW226632   5.047   2.704   7.956 -0.4902 -1.3450  2.0473
 7914SOL     OW26633   6.694   3.816   5.019 -0.3320  0.7509 -0.0143
 7914SOL    HW126634   6.662   3.746   5.077  1.4855 -0.7671 -0.7397
 7914SOL    HW226635   6.662   3.792   4.932 -1.4056  1.9609  0.0283
 7915SOL     OW26636   4.584   7.287   8.677 -0.6026  0.4796  0.0846
 7915SOL    HW126637   4.578   7.207   8.730  0.0118  0.1286 -0.3643
 7915SOL    HW226638   4.645   7.264   8.607 -1.5666  0.8658 -0.9086
 7916SOL     OW26639   8.401   5.206   3.897  0.6710  0.3740  0.4293
 7916SOL    HW126640   8.463   5.138   3.872  1.7506  0.7978  1.8313
 7916SOL    HW226641   8.396   5.201   3.993  1.5510  2.8816  0.6848
 7917SOL     OW26642   4.311   0.028   5.454  0.2759 -0.6748  0.2995
 7917SOL    HW126643   4.300   0.112   5.498  0.1401 -0.4133 -0.2197
 7917SOL    HW226644   4.405   0.011   5.460  0.2397 -0.7131  0.8084
 7918SOL     OW26645   1.150   3.229   6.925 -0.6994  0.6470  0.0633
 7918SOL    HW126646   1.079   3.208   6.985 -1.9738  0.7539 -1.3566
 7918SOL    HW226647   1.217   3.269   6.980 -2.2107  1.6231  1.2651
 7919SOL     OW26648   6.444   4.551   1.985  0.4438  0.0644  0.0112
 7919SOL    HW126649   6.450   4.557   2.080 -1.2540  0.2356  0.1387
 7919SOL    HW226650   6.394   4.470   1.970 -0.6964  0.8525 -0.6365
 7920SOL     OW26651   8.482   6.855   8.593 -0.0369 -0.1026  0.0694
 7920SOL    HW126652   8.462   6.936   8.640  0.1706  0.5099 -0.8505
 7920SOL    HW226653   8.573   6.837   8.615  0.1226  0.2958 -0.2318
 7921SOL     OW26654   3.370   6.486   0.913  0.0946  0.3934  0.0732
 7921SOL    HW126655   3.446   6.544   0.918  0.4057 -0.0012 -0.0631
 7921SOL    HW226656   3.406   6.398   0.921 -0.3821  0.2164  0.3266
 7922SOL     OW26657   8.240   0.304   3.953 -0.4310 -0.2821  0.2186
 7922SOL    HW126658   8.195   0.230   3.912 -0.2879  0.5050 -1.4521
 7922SOL    HW226659   8.326   0.270   3.977 -1.5550 -1.5807  2.7131
 7923SOL     OW26660   7.597   3.907   0.415  0.0734  0.5270 -0.1005
 7923SOL    HW126661   7.535   3.979   0.403 -0.8236 -0.3181 -0.7132
 7923SOL    HW226662   7.615   3.906   0.509  0.6656  1.9872 -0.1697
 7924SOL     OW26663   7.675   3.939   8.309  0.4449  0.0291 -0.5795
 7924SOL    HW126664   7.663   4.032   8.293 -2.1799 -0.4274 -1.6297
 7924SOL    HW226665   7.662   3.929   8.404  0.4013  0.6770 -0.5144
 7925SOL     OW26666   7.645   8.550   0.437 -0.3786  0.1390  0.0226
 7925SOL    HW126667   7.552   8.528   0.433 -0.3418  0.1382 -1.0426
 7925SOL    HW226668   7.689   8.471   0.407  0.0120 -0.0710  1.1001
 7926SOL     OW26669   6.992   2.824   4.623  0.1258 -0.2926  0.0889
 7926SOL    HW126670   6.945   2.754   4.577  1.2623 -1.2040  0.2553
 7926SOL    HW226671   6.996   2.793   4.714  0.8575 -0.1398  0.1132
 7927SOL     OW26672   8.320   5.916   2.596  0.8452  0.0064  0.6538
 7927SOL    HW126673   8.304   5.834   2.644  0.5327 -0.3764 -0.0890
 7927SOL    HW226674   8.233   5.957   2.588  0.6511 -0.6082 -0.7629
 7928SOL     OW26675   4.810   4.913   0.980 -0.0359 -0.5864  0.0552
 7928SOL    HW126676   4.825   5.002   0.946 -0.3074 -0.5929 -0.0889
 7928SOL    HW226677   4.846   4.915   1.068 -2.6838  0.6046  1.2447
 7929SOL     OW26678   8.663   7.336   6.756  0.1306  0.3985  0.2496
 7929SOL    HW126679   8.593   7.389   6.718  1.3295  1.3650 -0.6773
 7929SOL    HW226680   8.692   7.280   6.683  1.5992  1.3720  0.0536
 7930SOL     OW26681   7.298   7.330   2.893 -0.6317  0.3148  0.4309
 7930SOL    HW126682   7.292   7.287   2.978  0.8317 -1.9469 -0.5160
 7930SOL    HW226683   7.391   7.336   2.874 -0.9230 -0.9628 -1.7917
 7931SOL     OW26684   6.196   7.790   6.604  0.7094 -0.5612 -0.1362
 7931SOL    HW126685   6.189   7.770   6.697 -1.7750 -0.6868 -0.3028
 7931SOL    HW226686   6.166   7.711   6.559 -0.4533  0.3238 -0.9734
 7932SOL     OW26687   2.916   4.375   5.698 -0.0863 -0.1988  0.3669
 7932SOL    HW126688   2.925   4.467   5.722  0.2780 -0.8540  2.9509
 7932SOL    HW226689   3.002   4.337   5.715 -0.1667 -1.0175 -0.8887
 7933SOL     OW26690   0.524   9.264   0.368  0.4974  0.1150 -0.6010
 7933SOL    HW126691   0.455   9.198   0.368 -0.9448  1.4885  2.2027
 7933SOL    HW226692   0.517   9.307   0.452  4.2542  0.9566 -0.5235
 7934SOL     OW26693   5.565   0.181   7.872  0.8078  0.2174  0.2547
 7934SOL    HW126694   5.581   0.088   7.857 -0.5204  0.0542 -0.2878
 7934SOL    HW226695   5.648   0.215   7.906  1.2242 -1.2183  0.7339
 7935SOL     OW26696   2.629   3.061   7.328 -0.2679  0.3830 -0.3074
 7935SOL    HW126697   2.714   3.081   7.289  0.6957  0.7391  1.8508
 7935SOL    HW226698   2.609   3.135   7.384 -1.0587 -0.5709  0.7320
 7936SOL     OW26699   2.982   7.873   1.594 -0.0774 -0.5841 -0.5043
 7936SOL    HW126700   2.937   7.804   1.642 -0.7507 -0.4683 -0.9518
 7936SOL    HW226701   3.020   7.929   1.661 -0.1757 -0.9681 -0.1284
 7937SOL     OW26702   6.600   2.843   1.752 -0.7228 -0.3908 -0.2099
 7937SOL    HW126703   6.601   2.794   1.834 -2.5491 -0.7224 -0.3478
 7937SOL    HW226704   6.681   2.816   1.707  0.3140 -0.1699  1.4566
 7938SOL     OW26705   0.091   2.700   7.400 -0.0949 -0.0603  1.0667
 7938SOL    HW126706   0.085   2.633   7.331 -1.1721 -1.6617  2.6465
 7938SOL    HW226707   0.176   2.684   7.442 -1.3071 -2.0687  2.9477
 7939SOL     OW26708   4.106   6.903   1.764  0.5466 -0.1847 -0.5269
 7939SOL    HW126709   4.094   6.943   1.678 -1.5145 -1.9495 -1.1511
 7939SOL    HW226710   4.018   6.874   1.790  1.1979 -0.2205  1.9516
 7940SOL     OW26711   0.244   5.122   2.239 -0.3254  0.2103 -0.0142
 7940SOL    HW126712   0.301   5.104   2.313  0.2404 -0.0963 -0.5147
 7940SOL    HW226713   0.166   5.164   2.277  0.8648  2.0413  0.5085
 7941SOL     OW26714   6.958   8.884   1.539  0.2265 -0.0969  0.3501
 7941SOL    HW126715   6.934   8.912   1.627  1.0844  0.0126  0.5581
 7941SOL    HW226716   6.875   8.880   1.492  0.0066  2.3608  0.4337
 7942SOL     OW26717   6.686   6.444   4.658  0.2166  0.0161  0.1318
 7942SOL    HW126718   6.611   6.467   4.712  0.1543 -0.3911  0.2238
 7942SOL    HW226719   6.683   6.348   4.652  0.4927  0.0247 -0.2007
 7943SOL     OW26720   3.303   3.953   5.738 -0.6863 -0.1255 -0.0336
 7943SOL    HW126721   3.395   3.955   5.765 -0.2961 -3.3245 -0.6870
 7943SOL    HW226722   3.293   4.029   5.681  0.8358  1.6845  1.9298
 7944SOL     OW26723   9.122   2.417   1.205 -0.0380  0.7447  0.1142
 7944SOL    HW126724   9.089   2.328   1.193  2.4844 -0.2943  0.0907
 7944SOL    HW226725   9.087   2.466   1.131  0.6343 -0.9373 -1.3892
 7945SOL     OW26726   0.076   2.149   1.337  0.5435  0.0845  0.4896
 7945SOL    HW126727  -0.010   2.129   1.300  1.2638  0.5819 -1.5712
 7945SOL    HW226728   0.125   2.187   1.265  1.8944  1.6156  2.1243
 7946SOL     OW26729   2.244   9.133   0.919 -0.1701  0.1291  0.1147
 7946SOL    HW126730   2.245   9.212   0.973  1.9719 -1.0559  1.9942
 7946SOL    HW226731   2.186   9.073   0.966 -0.5352  0.0438 -0.4412
 7947SOL     OW26732   2.413   5.990   3.965  0.2307 -0.2622 -0.0923
 7947SOL    HW126733   2.423   6.023   4.054  0.6082  1.5242 -0.7486
 7947SOL    HW226734   2.321   6.003   3.944  0.7443  2.6334 -1.0915
 7948SOL     OW26735   4.040   3.483   3.335 -0.0363 -0.2205  0.0359
 7948SOL    HW126736   4.090   3.404   3.356 -0.1339  0.2137  2.0810
 7948SOL    HW226737   4.095   3.555   3.366 -0.9089  0.3853  0.2109
 7949SOL     OW26738   0.054   6.977   4.707 -0.0932 -0.3989 -0.1985
 7949SOL    HW126739   0.137   7.020   4.725 -0.1154  0.1047 -1.2609
 7949SOL    HW226740   0.072   6.919   4.633  0.1386 -2.8818  1.6584
 7950SOL     OW26741   0.362   3.302   2.432  0.0313 -0.0220  0.0284
 7950SOL    HW126742   0.400   3.387   2.453 -1.1820  0.7658 -0.7986
 7950SOL    HW226743   0.271   3.309   2.460 -0.4535 -0.5270 -1.3189
 7951SOL     OW26744   5.596   0.904   8.981  1.0536 -0.0144  0.2015
 7951SOL    HW126745   5.672   0.904   8.923 -0.1964  1.4493 -1.5782
 7951SOL    HW226746   5.632   0.928   9.067  2.4465  2.5279 -0.9515
 7952SOL     OW26747   4.228   8.545   8.395  0.4885 -0.0193  0.4557
 7952SOL    HW126748   4.140   8.508   8.405 -0.2246  1.2851 -0.7339
 7952SOL    HW226749   4.233   8.614   8.461  0.2167  0.6288 -0.2005
 7953SOL     OW26750   2.951   1.603   2.403  0.0536  0.1019 -0.1789
 7953SOL    HW126751   2.911   1.672   2.350  1.7429  0.0718 -1.5446
 7953SOL    HW226752   2.960   1.643   2.490 -1.5371  0.6056 -0.2084
 7954SOL     OW26753   1.041   3.724   7.047 -0.2680  0.3357 -0.1809
 7954SOL    HW126754   1.029   3.718   6.952 -0.1559  1.7860 -0.3027
 7954SOL    HW226755   1.063   3.815   7.063 -0.6796  0.2024  1.2937
 7955SOL     OW26756   4.935   3.040   8.634  0.3407 -0.1179 -0.4206
 7955SOL    HW126757   4.885   3.049   8.715  0.8973 -1.8934  0.1862
 7955SOL    HW226758   5.015   3.090   8.650 -0.0945  0.5833 -0.3845
 7956SOL     OW26759   0.817   8.718   0.478 -0.0920  0.8014  0.2500
 7956SOL    HW126760   0.909   8.733   0.456  0.1073 -1.9809 -1.2112
 7956SOL    HW226761   0.789   8.800   0.520  2.8931  1.8844  0.3610
 7957SOL     OW26762   7.049   3.845   4.829 -0.6803  0.8580 -0.1202
 7957SOL    HW126763   7.080   3.899   4.756 -1.2361  0.4114 -0.7087
 7957SOL    HW226764   6.997   3.776   4.786 -0.0272 -0.1096  0.6146
 7958SOL     OW26765   2.587   6.384   9.036 -0.4301 -0.1960 -0.5798
 7958SOL    HW126766   2.509   6.437   9.017  0.5966  0.8802 -1.9503
 7958SOL    HW226767   2.660   6.445   9.032  0.6287 -1.4192 -0.5575
 7959SOL     OW26768   8.914   9.179   1.860  0.1693  0.4989  0.0958
 7959SOL    HW126769   8.872   9.233   1.927 -0.3992  0.0871  0.0741
 7959SOL    HW226770   8.988   9.232   1.830  1.0850  0.2626  1.8117
 7960SOL     OW26771   8.189   1.407   7.461  0.7457 -0.5076 -0.9678
 7960SOL    HW126772   8.260   1.471   7.452 -0.1435  1.7478  4.3290
 7960SOL    HW226773   8.118   1.442   7.408  1.8777  0.1531 -2.0935
 7961SOL     OW26774   5.898   4.517   2.836  0.1016  0.6496 -0.6484
 7961SOL    HW126775   5.876   4.560   2.754  1.0375  1.6648 -0.3838
 7961SOL    HW226776   5.849   4.435   2.834 -1.9797  1.8238 -1.0403
 7962SOL     OW26777   3.388   7.949   3.667 -0.1316  0.4554  0.3448
 7962SOL    HW126778   3.406   8.005   3.591 -1.2422  1.2601  0.6347
 7962SOL    HW226779   3.465   7.958   3.722  0.1956  0.7907 -0.1587
 7963SOL     OW26780   6.996   8.203   6.498 -0.7370  0.2111 -0.1466
 7963SOL    HW126781   7.081   8.229   6.462  0.1131 -1.5410  0.4778
 7963SOL    HW226782   6.932   8.238   6.435  0.5626 -0.4740 -1.9324
 7964SOL     OW26783   7.289   6.254   1.333  0.2253  0.0087 -0.0286
 7964SOL    HW126784   7.347   6.257   1.409  0.5151 -1.0488 -0.1876
 7964SOL    HW226785   7.284   6.161   1.310 -1.7714  0.0228  0.1574
 7965SOL     OW26786   2.443   5.021   6.278 -0.1999 -0.7558 -0.3654
 7965SOL    HW126787   2.411   5.059   6.196  2.2060 -1.9487 -1.9832
 7965SOL    HW226788   2.490   5.092   6.321 -1.7391 -0.0357  0.2041
 7966SOL     OW26789   2.954   8.951   5.528  0.3869 -0.2824 -0.1528
 7966SOL    HW126790   3.045   8.920   5.527 -0.1712 -2.0599  0.2489
 7966SOL    HW226791   2.944   9.000   5.446  1.4640 -0.8232 -0.6244
 7967SOL     OW26792   3.760   0.440   7.574 -0.0988  0.1209 -0.4950
 7967SOL    HW126793   3.793   0.426   7.485 -2.3090  1.9972 -1.7262
 7967SOL    HW226794   3.829   0.490   7.617 -0.1918  1.8856 -2.2169
 7968SOL     OW26795   1.093   0.103   4.506 -0.3561  0.0677 -0.5844
 7968SOL    HW126796   1.048   0.095   4.590 -1.0753  2.5583 -0.6583
 7968SOL    HW226797   1.105   0.197   4.494 -1.2171 -0.1070 -3.7422
 7969SOL     OW26798   3.747   0.975   0.644 -0.3731  0.0063  0.0226
 7969SOL    HW126799   3.803   0.943   0.715 -0.3289 -1.4302 -0.6304
 7969SOL    HW226800   3.680   1.027   0.689  0.9826  1.0948  0.8914
 7970SOL     OW26801   4.554   6.408   8.135 -0.2608  0.0862  0.1864
 7970SOL    HW126802   4.524   6.317   8.134 -1.7410  0.5350  1.0357
 7970SOL    HW226803   4.573   6.427   8.043 -2.4883 -0.3203 -0.4331
 7971SOL     OW26804   1.953   1.232   1.122  0.1467  0.0519 -0.0226
 7971SOL    HW126805   1.901   1.232   1.042 -0.3868 -1.0325  0.3088
 7971SOL    HW226806   1.892   1.207   1.191  0.5000  1.3716  0.8145
 7972SOL     OW26807   8.804   1.180   2.505  0.7803  0.6747 -0.7416
 7972SOL    HW126808   8.852   1.257   2.473  0.0224  0.7304 -1.8108
 7972SOL    HW226809   8.838   1.107   2.454  1.0094  0.4103 -0.2160
 7973SOL     OW26810   6.287   3.144   1.692 -0.2892 -0.3331  0.4419
 7973SOL    HW126811   6.304   3.078   1.625  1.2132  0.0441  0.4303
 7973SOL    HW226812   6.342   3.218   1.668  0.4200 -0.2426  2.1792
 7974SOL     OW26813   1.852   0.050   1.988  0.1062 -0.1813  0.2080
 7974SOL    HW126814   1.769   0.045   1.941  0.8972 -2.9202 -1.1168
 7974SOL    HW226815   1.915   0.082   1.923  0.5301 -0.4429  0.4824
 7975SOL     OW26816   3.548   7.059   6.661 -0.1496  0.5115  0.1527
 7975SOL    HW126817   3.631   7.061   6.709  0.2207  2.5364 -0.4985
 7975SOL    HW226818   3.481   7.077   6.727 -0.0564 -0.5990  0.5786
 7976SOL     OW26819   0.191   4.478   4.780 -0.3068 -0.6486 -1.0011
 7976SOL    HW126820   0.219   4.568   4.799 -1.2777 -0.5029 -0.1516
 7976SOL    HW226821   0.269   4.435   4.745  1.0134 -0.2603  1.2626
 7977SOL     OW26822   1.248   6.406   4.864 -0.0115 -0.0026  0.5413
 7977SOL    HW126823   1.274   6.491   4.899 -0.6436  0.5699 -0.3588
 7977SOL    HW226824   1.266   6.344   4.936  3.0476  0.4500  0.2874
 7978SOL     OW26825   6.722   9.203   8.325 -0.5820  0.1292 -0.5087
 7978SOL    HW126826   6.813   9.232   8.322 -0.3487 -0.4961  0.1981
 7978SOL    HW226827   6.698   9.189   8.233 -0.3464  1.4333 -0.7887
 7979SOL     OW26828   1.814   6.589   8.591 -0.4853 -0.5006 -0.1896
 7979SOL    HW126829   1.820   6.581   8.496 -0.8088  1.8790 -0.4693
 7979SOL    HW226830   1.721   6.580   8.611 -0.5552  0.0823 -0.2372
 7980SOL     OW26831   3.680   9.189   3.768  0.2227 -0.0039  0.3597
 7980SOL    HW126832   3.763   9.185   3.721  0.5877 -1.2682  1.0615
 7980SOL    HW226833   3.634   9.262   3.728  1.0241 -0.2537 -1.1102
 7981SOL     OW26834   6.864   1.789   5.661 -0.7054 -0.2305 -0.5665
 7981SOL    HW126835   6.800   1.746   5.718 -2.1255  0.4685 -1.5830
 7981SOL    HW226836   6.940   1.731   5.665 -0.0342  0.6025  3.3286
 7982SOL     OW26837   6.808   7.007   7.825  0.2887 -0.6071 -0.0835
 7982SOL    HW126838   6.845   7.088   7.791  0.4272 -0.6059  0.0728
 7982SOL    HW226839   6.758   7.033   7.902  2.9377 -1.0409  1.9301
 7983SOL     OW26840   6.070   6.215   4.762 -0.2158  0.7130 -0.4327
 7983SOL    HW126841   5.979   6.188   4.748  0.1299  0.1091 -1.7148
 7983SOL    HW226842   6.064   6.305   4.795 -1.2704  0.6944 -0.5419
 7984SOL     OW26843   9.070   1.141   5.609  0.2792  0.1177  0.0141
 7984SOL    HW126844   9.061   1.052   5.644  1.0251  0.3571  0.8413
 7984SOL    HW226845   9.013   1.142   5.532  0.0757 -1.0026  0.1321
 7985SOL     OW26846   2.676   4.913   7.156  0.4055 -0.5209  0.5962
 7985SOL    HW126847   2.748   4.976   7.149 -0.6512  0.7386  0.5918
 7985SOL    HW226848   2.648   4.920   7.248 -2.2541  2.0361 -0.2405
 7986SOL     OW26849   7.750   2.437   4.130  0.9168 -0.5753 -0.3997
 7986SOL    HW126850   7.803   2.507   4.167  1.4086 -0.6960 -0.8734
 7986SOL    HW226851   7.749   2.454   4.036 -0.6291 -0.0654 -0.3174
 7987SOL     OW26852   0.143   0.872   1.077 -0.0979  0.4843  0.1508
 7987SOL    HW126853   0.168   0.780   1.065 -0.3986  0.4914 -0.6227
 7987SOL    HW226854   0.158   0.912   0.991 -0.5566  1.0140  0.3137
 7988SOL     OW26855   6.025   8.232   7.188  0.0397 -0.2029 -0.5528
 7988SOL    HW126856   5.975   8.283   7.124 -0.4518 -1.7431 -1.4495
 7988SOL    HW226857   6.000   8.269   7.273 -1.7677 -0.2038 -1.0477
 7989SOL     OW26858   1.615   1.315   2.068  0.4705 -0.4360  0.0140
 7989SOL    HW126859   1.701   1.292   2.103  0.1688 -1.6568 -0.0148
 7989SOL    HW226860   1.605   1.408   2.089  0.7551 -0.8549  2.2160
 7990SOL     OW26861   0.187   4.850   8.317  0.0725  0.0347  0.4712
 7990SOL    HW126862   0.215   4.833   8.407  0.6379  0.5885  0.4108
 7990SOL    HW226863   0.242   4.923   8.289 -0.5120  0.2468 -0.1277
 7991SOL     OW26864   1.930   1.479   7.167  0.1408  0.3095 -0.3468
 7991SOL    HW126865   1.879   1.411   7.209 -0.9297  1.3816  0.1578
 7991SOL    HW226866   1.894   1.561   7.202 -0.6697  1.2701 -3.1564
 7992SOL     OW26867   5.553   7.929   2.855  0.2421 -0.4347 -0.4141
 7992SOL    HW126868   5.643   7.904   2.874  0.2644  0.3133  0.5581
 7992SOL    HW226869   5.511   7.849   2.823  1.2796 -0.7539 -1.0105
 7993SOL     OW26870   1.620   7.481   1.832  0.2140 -0.7752  0.1687
 7993SOL    HW126871   1.692   7.420   1.815  1.1053  0.1680  0.3822
 7993SOL    HW226872   1.555   7.429   1.879  1.2758 -1.3821  1.0267
 7994SOL     OW26873   1.992   4.290   0.398 -0.3614  0.0155 -0.3600
 7994SOL    HW126874   1.901   4.317   0.385  0.0214  2.1129  0.9439
 7994SOL    HW226875   2.041   4.371   0.407  1.8830 -1.0092 -2.1815
 7995SOL     OW26876   0.436   5.543   3.249 -0.1661  0.0371  0.0125
 7995SOL    HW126877   0.467   5.632   3.264 -1.0852  0.5543 -0.9852
 7995SOL    HW226878   0.487   5.489   3.309  0.3058  1.2496  0.7397
 7996SOL     OW26879   2.077   2.453   1.954 -0.3795  0.2553  0.5160
 7996SOL    HW126880   2.092   2.385   2.021  1.8299  0.0630 -0.0742
 7996SOL    HW226881   2.046   2.404   1.878  0.2184  0.0241  0.4126
 7997SOL     OW26882   1.684   4.550   8.844 -0.1870 -0.3347 -0.1989
 7997SOL    HW126883   1.621   4.620   8.865 -0.7194 -0.6798 -0.6266
 7997SOL    HW226884   1.647   4.507   8.767  1.3131  0.3554 -1.3354
 7998SOL     OW26885   3.341   8.757   7.487  0.6699 -0.0493  0.5046
 7998SOL    HW126886   3.271   8.766   7.551  1.4511  0.6144  1.2838
 7998SOL    HW226887   3.295   8.746   7.404 -0.3590 -0.4238  1.0985
 7999SOL     OW26888   7.381   6.178   0.337 -0.2949 -1.0399 -0.2200
 7999SOL    HW126889   7.442   6.104   0.335  1.4887  0.0889  3.4266
 7999SOL    HW226890   7.335   6.170   0.420 -0.2356  1.7446  0.1820
 8000SOL     OW26891   8.294   2.076   6.234 -0.0233 -0.3661  0.2024
 8000SOL    HW126892   8.369   2.031   6.273  0.1094 -1.0412 -0.7960
 8000SOL    HW226893   8.226   2.072   6.301  1.1446  1.2374  1.5831
 8001SOL     OW26894   2.692   0.050   2.306 -0.6660 -0.2456 -0.0902
 8001SOL    HW126895   2.781   0.034   2.273 -0.1771 -0.7758  1.3864
 8001SOL    HW226896   2.647   0.094   2.234  0.4252 -1.0582 -1.3095
 8002SOL     OW26897   6.250   3.684   4.167 -0.1120 -0.0303 -0.7484
 8002SOL    HW126898   6.268   3.750   4.100 -1.3991  0.3829 -0.7246
 8002SOL    HW226899   6.158   3.661   4.153 -0.7624  0.9042  1.5923
 8003SOL     OW26900   1.088   2.714   9.226 -0.8602 -0.0936  0.6856
 8003SOL    HW126901   1.002   2.699   9.265 -1.3462  1.6015  0.3615
 8003SOL    HW226902   1.093   2.809   9.217  0.6443 -0.2402 -0.2279
 8004SOL     OW26903   2.471   6.966   3.580  0.2453 -0.1841  0.1771
 8004SOL    HW126904   2.464   6.906   3.506 -1.7709 -1.5633  1.3709
 8004SOL    HW226905   2.442   7.050   3.546 -2.2258 -1.1344 -0.3356
 8005SOL     OW26906   7.309   3.850   7.109 -0.1283  0.3771 -0.6544
 8005SOL    HW126907   7.393   3.804   7.108 -0.8090 -0.8839 -0.5879
 8005SOL    HW226908   7.308   3.894   7.194 -0.0843 -0.6427 -0.1160
 8006SOL     OW26909   0.345   2.422   7.396 -0.2935 -0.0871 -0.2486
 8006SOL    HW126910   0.399   2.404   7.473 -1.2186  0.3323  0.5134
 8006SOL    HW226911   0.367   2.512   7.371 -2.6396  1.1679  1.8011
 8007SOL     OW26912   1.369   0.145   0.729  0.3960  0.1114  0.8661
 8007SOL    HW126913   1.460   0.143   0.699  0.3142  0.6659  0.5706
 8007SOL    HW226914   1.372   0.107   0.817  0.6278 -1.5982  0.1652
 8008SOL     OW26915   3.726   4.894   3.803 -0.6120 -0.4684  0.4986
 8008SOL    HW126916   3.726   4.807   3.764 -1.0259 -0.3167  0.1583
 8008SOL    HW226917   3.674   4.885   3.882 -0.1746 -0.6622  0.7693
 8009SOL     OW26918   6.336   1.776   1.422 -0.5805  0.0464 -0.5827
 8009SOL    HW126919   6.399   1.843   1.448 -0.3293 -0.3314 -0.1964
 8009SOL    HW226920   6.373   1.740   1.341 -0.9357  0.6560 -1.0246
 8010SOL     OW26921   3.777   1.436   6.080  0.1202 -0.3391  0.8393
 8010SOL    HW126922   3.733   1.363   6.037 -0.0950 -0.4929  1.3123
 8010SOL    HW226923   3.857   1.449   6.029 -0.3552 -0.2053  0.1144
 8011SOL     OW26924   8.566   1.423   7.785 -0.3088  0.4563 -0.6815
 8011SOL    HW126925   8.630   1.494   7.780  1.3873 -0.8525  0.9307
 8011SOL    HW226926   8.482   1.466   7.769  0.3461  3.3338  2.2966
 8012SOL     OW26927   5.387   4.530   4.991 -0.1895 -0.1112 -0.1470
 8012SOL    HW126928   5.374   4.613   5.037 -1.5710  0.4972 -1.5428
 8012SOL    HW226929   5.349   4.465   5.050  2.5881 -0.0975  1.8438
 8013SOL     OW26930   4.916   1.335   9.053 -0.8160  0.5166  0.0490
 8013SOL    HW126931   4.948   1.337   8.963 -2.4146 -0.5992 -0.5823
 8013SOL    HW226932   4.971   1.270   9.097 -0.1085  0.9806 -0.1358
 8014SOL     OW26933   6.627   6.366   0.172  0.7969  0.6479  0.9533
 8014SOL    HW126934   6.682   6.326   0.106 -0.7609 -0.7829  0.4703
 8014SOL    HW226935   6.663   6.336   0.255  0.2769 -0.9633  0.6201
 8015SOL     OW26936   2.286   6.281   3.979 -0.2674 -0.0301  0.1603
 8015SOL    HW126937   2.306   6.271   4.072 -0.0585 -2.8634 -0.0904
 8015SOL    HW226938   2.217   6.217   3.962 -0.6477  0.7714 -1.5675
 8016SOL     OW26939   6.002   6.353   2.480 -0.0415  0.0384 -0.1385
 8016SOL    HW126940   5.968   6.309   2.557  1.4652  1.9330  1.7321
 8016SOL    HW226941   6.022   6.442   2.510  1.1705  0.6779 -2.5652
 8017SOL     OW26942   1.796   8.967   9.257 -0.2881  0.5452 -0.3544
 8017SOL    HW126943   1.722   8.910   9.236 -1.1091  1.8279 -1.0463
 8017SOL    HW226944   1.757   9.039   9.308  0.7635  0.3995  0.7128
 8018SOL     OW26945   1.173   6.140   6.144  0.2043 -0.1213 -0.1018
 8018SOL    HW126946   1.106   6.200   6.111  0.3898  0.3774  0.4180
 8018SOL    HW226947   1.254   6.191   6.140  0.1059  0.2747  1.9195
 8019SOL     OW26948   5.696   0.123   3.470 -0.2992 -0.2893  0.2644
 8019SOL    HW126949   5.614   0.159   3.505 -0.2411  0.8334 -0.7021
 8019SOL    HW226950   5.761   0.190   3.489  0.4704 -1.2644  1.2103
 8020SOL     OW26951   7.630   7.493   2.489  0.2383  0.1294 -0.2303
 8020SOL    HW126952   7.568   7.428   2.457  0.4994  0.1643 -0.8283
 8020SOL    HW226953   7.613   7.499   2.583 -0.5879  0.0668 -0.3728
 8021SOL     OW26954   4.520   3.817   5.645 -0.0484  0.3970 -0.3880
 8021SOL    HW126955   4.576   3.873   5.700 -0.0209  0.3962 -0.4151
 8021SOL    HW226956   4.572   3.801   5.566  0.2718 -0.3221 -0.0445
 8022SOL     OW26957   0.686   4.290   4.874  0.1275  0.2502 -0.0899
 8022SOL    HW126958   0.677   4.221   4.940  0.8836  0.2933  0.0672
 8022SOL    HW226959   0.697   4.242   4.792  0.0599  0.1858 -0.0619
 8023SOL     OW26960   2.869   2.057   6.423  0.3057  0.7418  0.5816
 8023SOL    HW126961   2.910   2.115   6.359 -0.5032  2.1377  1.2946
 8023SOL    HW226962   2.853   1.976   6.374  2.1712  0.8075 -0.2096
 8024SOL     OW26963   3.038   2.460   8.800  0.0315 -0.1155 -0.5783
 8024SOL    HW126964   3.029   2.453   8.705 -2.1621  1.2612 -0.5328
 8024SOL    HW226965   2.992   2.541   8.823 -0.4623 -0.9785  1.7604
 8025SOL     OW26966   3.337   5.699   9.137  0.0152  0.0865  0.4115
 8025SOL    HW126967   3.267   5.642   9.105  1.3801 -1.3783 -0.0973
 8025SOL    HW226968   3.396   5.709   9.062  0.1594  1.6435  0.7020
 8026SOL     OW26969   2.453   5.710   3.872  0.1104  0.2644  0.0319
 8026SOL    HW126970   2.434   5.708   3.778  3.8119  0.5811 -0.8792
 8026SOL    HW226971   2.468   5.802   3.891  1.0005  0.0231  0.5341
 8027SOL     OW26972   4.620   4.309   1.687 -0.9093 -0.5719 -0.0208
 8027SOL    HW126973   4.631   4.294   1.593 -2.2891  2.2400 -0.7451
 8027SOL    HW226974   4.528   4.332   1.697 -0.2693  1.6706  1.5416
 8028SOL     OW26975   3.950   2.107   3.896  0.2944 -0.0279  0.1798
 8028SOL    HW126976   3.902   2.028   3.872  0.4501 -0.4411  1.1836
 8028SOL    HW226977   4.005   2.126   3.820  0.3214 -0.9271 -0.0352
 8029SOL     OW26978   8.373   1.802   8.815  0.3741  0.2887  0.3105
 8029SOL    HW126979   8.347   1.804   8.908  1.1831  1.4807  0.5359
 8029SOL    HW226980   8.407   1.890   8.798 -0.6019  0.3845 -1.3812
 8030SOL     OW26981   3.669   7.619   6.224 -0.0059  0.4904 -0.5991
 8030SOL    HW126982   3.632   7.684   6.165  0.6819  1.0540 -0.4263
 8030SOL    HW226983   3.670   7.537   6.174 -4.7082 -0.5036  0.4445
 8031SOL     OW26984   7.858   0.774   7.045 -0.3556  1.0082 -0.6505
 8031SOL    HW126985   7.915   0.703   7.076 -0.9367  0.9005  0.2037
 8031SOL    HW226986   7.895   0.853   7.084 -0.4219  1.0171 -0.6055
 8032SOL     OW26987   6.122   0.689   8.993 -0.4556 -0.6618 -0.1049
 8032SOL    HW126988   6.145   0.604   9.030 -2.2988 -1.4170 -0.5783
 8032SOL    HW226989   6.185   0.702   8.922  1.0152 -0.7263  1.1381
 8033SOL     OW26990   8.477   3.428   1.646 -0.1581  0.0038  0.1010
 8033SOL    HW126991   8.401   3.371   1.652 -1.1515  1.3216  0.5885
 8033SOL    HW226992   8.552   3.371   1.665 -1.1997 -0.9092  1.7514
 8034SOL     OW26993   6.103   8.943   7.463 -0.1637  0.1646  0.3650
 8034SOL    HW126994   6.023   8.994   7.462  0.7455  1.6580  0.7694
 8034SOL    HW226995   6.143   8.960   7.377 -0.4412 -0.8933  0.0021
 8035SOL     OW26996   4.027   2.231   6.412 -0.2983 -1.3024  0.3049
 8035SOL    HW126997   4.114   2.220   6.451 -0.5483 -1.2379  0.9019
 8035SOL    HW226998   4.020   2.161   6.348 -0.5943 -2.6066  1.7150
 8036SOL     OW26999   8.278   1.606   5.467  0.7145 -0.5127  0.1021
 8036SOL    HW127000   8.321   1.554   5.399  2.0422  0.8041 -0.0934
 8036SOL    HW227001   8.186   1.580   5.461  0.7328 -0.2214 -2.4213
 8037SOL     OW27002   0.086   9.062   1.756  0.2120  0.0199 -0.1125
 8037SOL    HW127003   0.172   9.021   1.769 -0.3705 -1.0694  0.3548
 8037SOL    HW227004   0.075   9.118   1.833  0.5958  0.3426 -0.2860
 8038SOL     OW27005   5.057   5.901   5.776 -0.0909 -0.0890 -0.0899
 8038SOL    HW127006   5.044   5.995   5.773 -1.9860 -0.3425 -1.0008
 8038SOL    HW227007   4.976   5.865   5.812 -0.0806 -1.4743 -1.3324
 8039SOL     OW27008   6.176   4.364   7.952  0.5463  0.1942 -0.3887
 8039SOL    HW127009   6.195   4.307   7.877 -1.2892  0.6040 -1.2104
 8039SOL    HW227010   6.127   4.437   7.914 -0.3740  0.4339  1.2178
 8040SOL     OW27011   5.814   8.038   8.241  0.2222  0.5463 -0.1618
 8040SOL    HW127012   5.847   8.127   8.226  0.6065  0.7577  1.7675
 8040SOL    HW227013   5.837   7.991   8.161  3.6642  1.1539  0.3311
 8041SOL     OW27014   6.381   4.838   2.989  0.9395  0.2921 -0.0413
 8041SOL    HW127015   6.288   4.836   3.012  0.4480 -0.0780 -1.9240
 8041SOL    HW227016   6.425   4.804   3.067 -0.4701  0.6721  0.9693
 8042SOL     OW27017   1.333   9.222   6.087  0.1174 -0.0728  0.2420
 8042SOL    HW127018   1.243   9.255   6.080  0.0803 -0.4160 -1.1716
 8042SOL    HW227019   1.385   9.286   6.039  0.5766 -0.1126  0.6809
 8043SOL     OW27020   2.102   4.074   5.888  0.0179 -0.0042  0.2864
 8043SOL    HW127021   2.192   4.043   5.887  0.0881  0.0346  1.9882
 8043SOL    HW227022   2.084   4.092   5.981 -1.9636 -0.6694  0.0756
 8044SOL     OW27023   0.498   6.498   0.848 -0.2502 -0.0136  0.4447
 8044SOL    HW127024   0.510   6.589   0.823 -3.0106  0.1796 -0.5095
 8044SOL    HW227025   0.566   6.450   0.799  0.6954  1.3966  0.3192
 8045SOL     OW27026   1.085   4.188   2.954 -0.0382  0.2472 -0.0123
 8045SOL    HW127027   0.999   4.214   2.921 -0.5658 -0.8760  0.4301
 8045SOL    HW227028   1.067   4.139   3.034  1.1893  2.6577  1.8958
 8046SOL     OW27029   1.046   4.035   1.774  0.0478 -0.2722  0.2921
 8046SOL    HW127030   1.013   3.958   1.728 -1.0577  0.3016  0.0910
 8046SOL    HW227031   1.101   3.999   1.843 -0.1017 -1.2301 -0.0600
 8047SOL     OW27032   3.822   3.209   6.491  0.7438  0.2723 -0.1797
 8047SOL    HW127033   3.871   3.290   6.507 -1.4635  1.6975 -0.3113
 8047SOL    HW227034   3.741   3.220   6.540 -0.6772 -0.7857 -2.1666
 8048SOL     OW27035   1.349   6.634   5.614  0.5534  0.1416  0.5660
 8048SOL    HW127036   1.374   6.612   5.704  0.4769  0.2295  0.6086
 8048SOL    HW227037   1.408   6.581   5.560 -1.5406 -2.4652  0.6392
 8049SOL     OW27038   8.342   0.741   5.345  0.2381  0.6659 -0.6071
 8049SOL    HW127039   8.315   0.823   5.387  0.4578  1.1836 -1.4465
 8049SOL    HW227040   8.260   0.697   5.323  0.1162  0.3158  0.4607
 8050SOL     OW27041   6.374   0.231   8.506  0.4260  0.1469  0.3423
 8050SOL    HW127042   6.428   0.155   8.531  0.1073 -0.0720  0.3699
 8050SOL    HW227043   6.307   0.195   8.448 -0.0780  0.3024  0.8125
 8051SOL     OW27044   9.229   4.388   4.878 -0.3442  0.0658  0.3147
 8051SOL    HW127045   9.293   4.405   4.809 -0.7280 -1.1257 -0.3534
 8051SOL    HW227046   9.249   4.454   4.945  0.0047  1.2824 -0.9223
 8052SOL     OW27047   0.025   4.487   2.299 -0.0206  0.6298 -0.0158
 8052SOL    HW127048   0.010   4.394   2.283  0.4186  0.4326  0.6765
 8052SOL    HW227049   0.119   4.500   2.286  0.3069  0.5286  1.9019
 8053SOL     OW27050   0.779   6.602   3.406  0.1269  0.4167  0.0911
 8053SOL    HW127051   0.866   6.564   3.398 -0.1023  0.3192 -2.7702
 8053SOL    HW227052   0.721   6.539   3.362 -0.9867  1.7499 -0.4049
 8054SOL     OW27053   8.040   2.193   6.614  0.0351 -0.1461  0.6469
 8054SOL    HW127054   8.020   2.283   6.640  1.8110  0.4449  0.0879
 8054SOL    HW227055   8.027   2.192   6.519  1.4045 -0.0609  0.4434
 8055SOL     OW27056   6.731   3.884   2.713  0.2502  0.0238 -0.1833
 8055SOL    HW127057   6.700   3.824   2.646 -1.4093  0.6101  0.0249
 8055SOL    HW227058   6.824   3.896   2.693  0.4657 -2.0381 -0.6285
 8056SOL     OW27059   1.252   6.373   6.296  0.2534 -0.5693  0.4012
 8056SOL    HW127060   1.295   6.426   6.363  0.5595 -1.7592  1.1845
 8056SOL    HW227061   1.159   6.396   6.303  0.1412 -1.3180  1.8861
 8057SOL     OW27062   5.549   5.734   6.759 -0.1219 -0.4423  0.4699
 8057SOL    HW127063   5.614   5.798   6.788  0.2443 -0.9454  0.7857
 8057SOL    HW227064   5.574   5.653   6.804  0.1511 -1.1204 -0.8548
 8058SOL     OW27065   5.082   1.416   6.161 -0.3765  0.3738  0.5083
 8058SOL    HW127066   5.085   1.454   6.249 -1.7374  0.7590  0.3989
 8058SOL    HW227067   4.990   1.400   6.144  0.0829 -2.9443  0.5073
 8059SOL     OW27068   9.111   6.630   3.350 -0.2849  0.0469 -0.7709
 8059SOL    HW127069   9.132   6.637   3.443  2.1632  0.8580 -1.3064
 8059SOL    HW227070   9.107   6.536   3.333  1.9970 -0.1828 -0.3253
 8060SOL     OW27071   3.336   0.608   5.556  0.4144  0.1220 -0.5151
 8060SOL    HW127072   3.323   0.693   5.515  2.6300  0.3385 -0.8488
 8060SOL    HW227073   3.412   0.619   5.613  0.3487 -1.4779 -0.0636
 8061SOL     OW27074   5.124   2.600   3.354  0.9165  0.1228 -0.2582
 8061SOL    HW127075   5.189   2.566   3.415  0.7844 -1.7834 -1.0824
 8061SOL    HW227076   5.100   2.524   3.300 -2.3736  0.6085  0.3227
 8062SOL     OW27077   2.629   3.538   8.620  0.5625 -0.7746  0.3927
 8062SOL    HW127078   2.635   3.575   8.531  1.2521 -1.8145 -0.0194
 8062SOL    HW227079   2.664   3.607   8.677 -1.1240  0.4353  0.0408
 8063SOL     OW27080   1.088   0.616   7.812  0.2839  0.2242  0.0190
 8063SOL    HW127081   1.051   0.664   7.738  1.5070 -0.9461 -1.4255
 8063SOL    HW227082   1.182   0.617   7.797  0.3535 -3.3818 -0.7054
 8064SOL     OW27083   0.155   1.540   5.090 -0.2205 -1.2939 -0.1713
 8064SOL    HW127084   0.189   1.625   5.063 -1.0384 -0.5967  0.9106
 8064SOL    HW227085   0.069   1.533   5.049 -0.8544 -0.8570  1.0418
 8065SOL     OW27086   8.288   0.047   3.005  0.4270 -0.1606 -0.1246
 8065SOL    HW127087   8.328   0.050   2.918  0.2073 -0.9587 -0.2636
 8065SOL    HW227088   8.198   0.076   2.991  0.3690 -0.3631 -0.1843
 8066SOL     OW27089   3.085   3.223   4.087 -0.0389 -0.1141  0.5292
 8066SOL    HW127090   3.126   3.213   4.001  2.5656  1.0563  1.5544
 8066SOL    HW227091   3.104   3.141   4.132 -0.0316 -0.0975  0.5560
 8067SOL     OW27092   7.031   6.089   8.603  0.2134  0.0186 -0.1003
 8067SOL    HW127093   7.111   6.122   8.646  0.1736  0.5610 -0.4279
 8067SOL    HW227094   7.053   6.001   8.575  0.4937 -0.0641  0.3652
 8068SOL     OW27095   5.836   7.796   1.658  0.0540  0.0808  0.0035
 8068SOL    HW127096   5.878   7.729   1.603 -2.4237 -0.9233 -0.7817
 8068SOL    HW227097   5.859   7.770   1.747  3.7995  1.5009 -0.3401
 8069SOL     OW27098   4.296   1.716   9.066  0.0154 -0.2539 -0.0752
 8069SOL    HW127099   4.221   1.678   9.111  1.3242 -3.0297 -0.0000
 8069SOL    HW227100   4.372   1.682   9.113  1.3840 -0.9729 -2.6088
 8070SOL     OW27101   6.866   6.759   8.142  0.0902  0.1074 -0.0725
 8070SOL    HW127102   6.801   6.813   8.188  1.1936  0.3971  1.2215
 8070SOL    HW227103   6.871   6.679   8.194  0.0184 -0.3484 -0.7612
 8071SOL     OW27104   8.457   3.579   0.092 -0.2428 -0.2256  0.1437
 8071SOL    HW127105   8.541   3.625   0.089 -0.3687 -0.0279 -1.2176
 8071SOL    HW227106   8.480   3.486   0.090 -0.0282 -0.1869 -1.7659
 8072SOL     OW27107   5.915   4.943   8.346 -0.2588 -0.0762 -0.0597
 8072SOL    HW127108   5.909   4.985   8.432 -1.3766 -1.2898  0.4902
 8072SOL    HW227109   5.835   4.970   8.301  1.3024  2.3404 -1.6365
 8073SOL     OW27110   0.124   8.694   4.272  0.1614  0.8564  0.5724
 8073SOL    HW127111   0.060   8.752   4.313  0.0299  0.5984  0.7319
 8073SOL    HW227112   0.152   8.635   4.343  0.8536  1.2111  0.5984
 8074SOL     OW27113   6.626   3.586   1.426 -0.8006  0.0018 -0.0080
 8074SOL    HW127114   6.645   3.545   1.342 -0.0878  1.4455 -0.5800
 8074SOL    HW227115   6.698   3.647   1.440  0.0925 -1.4886  2.5487
 8075SOL     OW27116   7.828   7.995   3.876  0.3862 -0.0086  0.7085
 8075SOL    HW127117   7.871   8.048   3.943 -1.6775 -0.1330  2.2446
 8075SOL    HW227118   7.898   7.971   3.816  1.5635  3.9654  0.1812
 8076SOL     OW27119   4.007   4.853   6.655 -0.0077 -0.0738  0.4513
 8076SOL    HW127120   3.947   4.791   6.697 -0.8874  0.7027  0.3771
 8076SOL    HW227121   4.072   4.873   6.723  0.4684 -1.2727  0.3853
 8077SOL     OW27122   9.074   5.270   0.413 -0.3477 -0.0826 -0.0401
 8077SOL    HW127123   9.086   5.186   0.457 -0.2919 -0.4484 -0.7434
 8077SOL    HW227124   9.163   5.304   0.401 -0.3833  0.2236  0.5052
 8078SOL     OW27125   4.276   5.098   3.180  0.0881 -0.4159  0.7945
 8078SOL    HW127126   4.301   5.012   3.145  1.3184  0.6301 -1.0995
 8078SOL    HW227127   4.217   5.134   3.114 -0.0080  0.3992  1.3091
 8079SOL     OW27128   7.829   2.521   6.026 -0.0025  0.1955  0.0632
 8079SOL    HW127129   7.870   2.607   6.020  1.0774 -0.2439  0.7377
 8079SOL    HW227130   7.741   2.538   6.061  0.6701  0.9310  1.5007
 8080SOL     OW27131   9.050   4.008   5.131 -0.0236 -0.1914 -0.7730
 8080SOL    HW127132   9.067   4.101   5.120 -1.1423 -0.0552 -1.3845
 8080SOL    HW227133   9.065   3.970   5.044 -2.5889 -0.0902 -1.3200
 8081SOL     OW27134   7.602   4.585   8.681  0.0471  0.1229  0.1224
 8081SOL    HW127135   7.529   4.644   8.662  1.7809  1.6426 -2.4373
 8081SOL    HW227136   7.632   4.555   8.595  2.2399 -0.6814  1.0845
 8082SOL     OW27137   7.048   7.815   4.717  0.3591 -0.0510 -0.2300
 8082SOL    HW127138   7.062   7.724   4.692  0.3598  0.6119 -2.9838
 8082SOL    HW227139   7.130   7.841   4.760 -0.2344 -1.7232  2.0714
 8083SOL     OW27140   7.896   7.816   6.656 -0.2222 -0.5900 -0.3922
 8083SOL    HW127141   7.957   7.823   6.583  0.6490  2.0320  0.4657
 8083SOL    HW227142   7.838   7.891   6.647 -0.1800 -0.2685  1.5107
 8084SOL     OW27143   3.765   0.063   5.388  0.1136  0.1783 -0.4539
 8084SOL    HW127144   3.707  -0.007   5.420  0.3364 -0.0437 -0.5372
 8084SOL    HW227145   3.829   0.073   5.458 -0.4681  0.9493 -0.0196
 8085SOL     OW27146   1.552   8.750   4.533 -0.0354 -0.2214  0.5091
 8085SOL    HW127147   1.577   8.701   4.455 -0.6785 -2.2078  1.4832
 8085SOL    HW227148   1.461   8.726   4.549  0.9062 -2.4108  3.5587
 8086SOL     OW27149   5.545   2.402   4.826 -0.1671  0.0345  0.3403
 8086SOL    HW127150   5.637   2.427   4.839 -0.7371  1.4749  2.0038
 8086SOL    HW227151   5.544   2.308   4.843  0.6074  0.4260  3.2682
 8087SOL     OW27152   4.620   9.161   4.861 -0.2771 -0.3473  0.0622
 8087SOL    HW127153   4.709   9.195   4.855  0.0513 -1.3064 -0.8115
 8087SOL    HW227154   4.576   9.197   4.784  0.5717 -3.1640 -1.9244
 8088SOL     OW27155   1.757   7.523   7.949 -0.3783  0.0313 -0.4510
 8088SOL    HW127156   1.669   7.546   7.980 -0.0732  0.7199 -0.0638
 8088SOL    HW227157   1.806   7.503   8.029  0.3867  1.7165 -0.4461
 8089SOL     OW27158   1.160   8.324   2.880  0.1573  0.2401  0.0646
 8089SOL    HW127159   1.217   8.278   2.819 -0.5951 -0.3567 -0.2012
 8089SOL    HW227160   1.177   8.284   2.965  0.5154  0.4253  0.0812
 8090SOL     OW27161   4.874   3.616   1.004 -0.4133  0.2548 -0.2654
 8090SOL    HW127162   4.809   3.561   0.960 -0.9090  0.6662 -0.0551
 8090SOL    HW227163   4.957   3.589   0.965 -0.8544  0.7558 -1.6489
 8091SOL     OW27164   7.836   9.155   0.911 -0.1385 -0.1446 -0.1222
 8091SOL    HW127165   7.830   9.162   1.006 -1.5870  0.4936 -0.2400
 8091SOL    HW227166   7.760   9.104   0.885  1.1166 -1.7533 -0.8289
 8092SOL     OW27167   0.238   0.740   4.409  0.3442 -0.1402  0.0943
 8092SOL    HW127168   0.282   0.808   4.358 -1.1187  0.1558 -0.8131
 8092SOL    HW227169   0.203   0.787   4.485  1.6590 -0.4068  0.9123
 8093SOL     OW27170   1.935   7.038   4.021 -0.3691  0.3666  0.1028
 8093SOL    HW127171   1.971   7.117   3.981  0.6142 -0.8104 -1.4670
 8093SOL    HW227172   1.982   7.030   4.104 -0.1632  1.1835  0.0748
 8094SOL     OW27173   6.294   2.276   7.813  0.1976 -0.2290  0.1416
 8094SOL    HW127174   6.376   2.292   7.767  1.2358 -0.2795  1.9025
 8094SOL    HW227175   6.313   2.203   7.872 -1.3187 -0.6805  0.1169
 8095SOL     OW27176   5.577   7.230   7.524 -0.1690  0.2245 -0.1214
 8095SOL    HW127177   5.587   7.322   7.500  2.7776 -0.3388 -1.5606
 8095SOL    HW227178   5.550   7.232   7.615  2.1327  2.5884  0.6368
 8096SOL     OW27179   5.328   2.771   5.917  0.3613  0.1727 -0.2229
 8096SOL    HW127180   5.399   2.766   5.981 -0.6432 -0.1433  0.9026
 8096SOL    HW227181   5.266   2.834   5.954 -1.8461 -2.4216  0.8291
 8097SOL     OW27182   3.699   8.289   6.274  0.5249  0.5212 -0.2261
 8097SOL    HW127183   3.667   8.368   6.229  2.0341  1.2651 -0.0554
 8097SOL    HW227184   3.743   8.322   6.352  1.1089 -0.5055 -0.1052
 8098SOL     OW27185   3.400   2.690   3.806  0.1658  0.6981  0.1470
 8098SOL    HW127186   3.467   2.666   3.870  1.7718  2.3739 -0.8115
 8098SOL    HW227187   3.411   2.627   3.735  0.9688  1.1691 -0.1532
 8099SOL     OW27188   2.304   7.120   9.057  0.1396 -0.0928 -0.2784
 8099SOL    HW127189   2.357   7.113   9.136  1.0340  0.2914 -0.8363
 8099SOL    HW227190   2.366   7.112   8.985 -0.7895 -1.3949 -0.9717
 8100SOL     OW27191   6.989   8.667   5.930 -0.5507 -0.3631  0.5775
 8100SOL    HW127192   6.935   8.673   5.851  0.1035 -0.8302  0.0839
 8100SOL    HW227193   7.021   8.577   5.930  4.1748  0.9799 -1.8557
 8101SOL     OW27194   0.115   3.677   8.665 -0.3435 -0.0754  0.1559
 8101SOL    HW127195   0.126   3.771   8.681 -0.7410 -0.1647  0.9492
 8101SOL    HW227196   0.153   3.664   8.578 -1.0371  0.9695 -0.3304
 8102SOL     OW27197   2.989   3.426   6.269 -0.3649  0.6493 -0.3985
 8102SOL    HW127198   2.945   3.356   6.221  0.7753  0.3457 -1.0302
 8102SOL    HW227199   2.951   3.507   6.234  1.1264  0.4831 -2.5870
 8103SOL     OW27200   2.203   3.667   1.805  0.0349 -0.0944 -0.1646
 8103SOL    HW127201   2.266   3.691   1.737  0.3162  3.4319  1.1474
 8103SOL    HW227202   2.213   3.572   1.814  1.6288 -0.3555 -3.3504
 8104SOL     OW27203   3.996   3.109   0.432 -0.0069 -0.6056 -0.6258
 8104SOL    HW127204   3.917   3.154   0.460  0.6406  0.6762 -0.7692
 8104SOL    HW227205   4.066   3.148   0.485  0.6604 -0.9996 -1.1981
 8105SOL     OW27206   7.097   0.410   4.877 -0.4582 -0.5431  0.0529
 8105SOL    HW127207   7.109   0.497   4.914  2.4004 -0.0436 -1.7633
 8105SOL    HW227208   7.161   0.355   4.922 -1.1523 -1.3529  0.0808
 8106SOL     OW27209   1.794   2.316   2.121  0.0205  0.4585 -0.2394
 8106SOL    HW127210   1.823   2.340   2.033 -0.5224 -0.1127 -0.5822
 8106SOL    HW227211   1.847   2.240   2.144  0.9305  1.2725  0.3766
 8107SOL     OW27212   4.810   5.511   6.175 -0.0852 -0.1770  0.4422
 8107SOL    HW127213   4.735   5.537   6.228  0.3748  0.4606  0.7967
 8107SOL    HW227214   4.774   5.494   6.088 -0.2533  3.2039 -0.2988
 8108SOL     OW27215   7.462   8.376   4.330 -0.2994 -0.6204 -0.2392
 8108SOL    HW127216   7.423   8.338   4.251  0.0399 -1.0643 -0.1966
 8108SOL    HW227217   7.412   8.336   4.402  0.4085 -1.4042 -0.1739
 8109SOL     OW27218   2.704   7.325   8.599 -0.3060 -0.4033 -0.1704
 8109SOL    HW127219   2.621   7.367   8.620  0.3082  0.7476  0.0336
 8109SOL    HW227220   2.683   7.264   8.528 -0.9482  1.5529 -1.7730
 8110SOL     OW27221   3.597   6.236   1.231 -0.3002  0.5362 -0.5194
 8110SOL    HW127222   3.559   6.312   1.273 -0.2138 -0.7384  2.0652
 8110SOL    HW227223   3.527   6.170   1.232  0.7947 -0.6892  1.0734
 8111SOL     OW27224   4.552   4.796   3.280 -0.5851 -0.0307 -0.3581
 8111SOL    HW127225   4.585   4.861   3.343 -0.9157  0.0985 -0.3107
 8111SOL    HW227226   4.602   4.812   3.200 -1.2738  0.8961 -0.6325
 8112SOL     OW27227   1.801   8.827   2.685  0.1757 -0.3685  0.2662
 8112SOL    HW127228   1.826   8.910   2.725  0.4556 -1.1130  1.7051
 8112SOL    HW227229   1.723   8.848   2.633  0.9267  1.0123 -0.3558
 8113SOL     OW27230   3.469   2.324   2.012 -0.3310 -0.7244 -0.1840
 8113SOL    HW127231   3.387   2.292   2.049  1.0640 -1.8020  2.2271
 8113SOL    HW227232   3.528   2.249   2.016  1.6907  0.8374  1.1769
 8114SOL     OW27233   8.248   6.123   5.346  0.7588  0.1456 -0.0222
 8114SOL    HW127234   8.173   6.063   5.345  1.6234 -1.0084  0.9027
 8114SOL    HW227235   8.219   6.196   5.401  0.3539 -0.3702  0.4696
 8115SOL     OW27236   5.140   2.796   6.331 -0.6107 -0.0969  0.1890
 8115SOL    HW127237   5.106   2.710   6.356 -0.0086  0.3629  2.8965
 8115SOL    HW227238   5.080   2.858   6.371 -0.2760  0.7526 -0.5932
 8116SOL     OW27239   2.727   9.022   5.068 -0.3965 -0.3676  0.2332
 8116SOL    HW127240   2.692   8.971   5.141 -0.9257 -0.0586  0.1983
 8116SOL    HW227241   2.807   8.976   5.043 -0.7264 -1.0308  0.3760
 8117SOL     OW27242   4.741   1.369   7.418  0.0940 -0.0738  0.3441
 8117SOL    HW127243   4.749   1.317   7.338 -1.1970 -1.2263  0.9312
 8117SOL    HW227244   4.825   1.360   7.461  0.8229  0.5882 -0.8669
 8118SOL     OW27245   6.922   6.003   0.156  0.4786 -0.1196 -0.1217
 8118SOL    HW127246   6.902   5.910   0.167  2.4170 -0.4811  0.7894
 8118SOL    HW227247   6.979   6.024   0.229  0.2300  1.7609 -0.4289
 8119SOL     OW27248   6.973   5.811   2.294  0.1287  0.1602  0.4801
 8119SOL    HW127249   6.896   5.857   2.325  0.0290  1.3350 -1.3648
 8119SOL    HW227250   7.004   5.862   2.219  1.3654 -1.5229 -0.2417
 8120SOL     OW27251   8.783   1.696   6.032 -0.0859 -0.3975 -0.4641
 8120SOL    HW127252   8.760   1.788   6.048  0.0690 -0.4381  0.0117
 8120SOL    HW227253   8.759   1.681   5.941 -1.6381 -0.3322 -0.0955
 8121SOL     OW27254   2.488   4.782   1.530 -0.1864 -0.7811 -1.0059
 8121SOL    HW127255   2.441   4.722   1.589 -0.1639 -0.4549 -0.6466
 8121SOL    HW227256   2.558   4.730   1.492  0.0904 -0.8767 -0.3777
 8122SOL     OW27257   1.461   9.113   2.581 -0.4458 -0.2145 -0.1511
 8122SOL    HW127258   1.389   9.151   2.631 -0.1214 -0.1662  0.2784
 8122SOL    HW227259   1.453   9.152   2.494 -1.2683 -0.6207 -0.2700
 8123SOL     OW27260   3.230   2.241   8.911 -0.0481 -0.1125 -0.4998
 8123SOL    HW127261   3.199   2.329   8.891 -0.6709 -0.3222 -0.4573
 8123SOL    HW227262   3.204   2.188   8.835  1.0679 -0.0942 -0.9183
 8124SOL     OW27263   0.293   3.897   4.326 -0.0461  0.2659 -0.3259
 8124SOL    HW127264   0.275   3.831   4.259 -0.4074 -0.3824  0.3974
 8124SOL    HW227265   0.330   3.849   4.399  0.9636  1.0620 -0.2842
 8125SOL     OW27266   2.776   8.854   2.389  0.1183 -0.1249 -0.5653
 8125SOL    HW127267   2.742   8.931   2.435 -0.1708 -0.7369  0.2665
 8125SOL    HW227268   2.731   8.855   2.304  0.8103  1.1280 -0.9579
 8126SOL     OW27269   1.534   2.782   6.673  0.3230  0.4658 -0.2401
 8126SOL    HW127270   1.462   2.723   6.651  0.3923  1.2079 -2.7583
 8126SOL    HW227271   1.599   2.727   6.716 -0.6535 -0.7310 -0.2513
 8127SOL     OW27272   7.342   8.685   2.412  0.3116  0.1810  0.2603
 8127SOL    HW127273   7.375   8.757   2.465  0.1618 -0.5335  1.3413
 8127SOL    HW227274   7.398   8.611   2.435 -0.9246 -0.6044  0.7924
 8128SOL     OW27275   3.063   9.116   3.106 -0.1309 -0.2401 -0.3478
 8128SOL    HW127276   3.057   9.036   3.158  0.0643 -0.0501 -0.0307
 8128SOL    HW227277   3.154   9.145   3.118  0.0634 -0.4740 -1.2095
 8129SOL     OW27278   8.159   3.012   0.724  0.2164  0.2723  0.5605
 8129SOL    HW127279   8.087   2.991   0.784 -0.7198 -0.1243 -0.6765
 8129SOL    HW227280   8.202   3.088   0.764  1.2265 -1.5041  3.0760
 8130SOL     OW27281   6.882   6.553   6.596  0.1153  0.2123  0.3056
 8130SOL    HW127282   6.943   6.510   6.536  0.3653 -0.7568  1.2270
 8130SOL    HW227283   6.883   6.499   6.674 -1.1381  0.7763  0.7410
 8131SOL     OW27284   7.297   1.724   8.174 -0.5938  0.2251 -0.4148
 8131SOL    HW127285   7.356   1.684   8.238 -0.3573  1.1463 -0.0407
 8131SOL    HW227286   7.217   1.741   8.223 -1.4867 -1.6693 -1.0913
 8132SOL     OW27287   0.433   1.563   6.515  0.3431 -0.3093  0.3490
 8132SOL    HW127288   0.480   1.636   6.555  1.6093 -2.0639  2.2899
 8132SOL    HW227289   0.341   1.588   6.519  0.5927  0.4589  2.6524
 8133SOL     OW27290   2.470   0.294   6.557  0.1536  0.1330  0.0596
 8133SOL    HW127291   2.501   0.321   6.470 -0.2375 -1.2060 -0.5167
 8133SOL    HW227292   2.389   0.247   6.540  0.0130 -0.0532  1.1765
 8134SOL     OW27293   8.800   7.103   1.038 -0.1027 -0.2520 -0.0078
 8134SOL    HW127294   8.774   7.092   0.947 -0.4025 -1.3707  0.1977
 8134SOL    HW227295   8.727   7.068   1.089 -0.0773  0.6531  0.6814
 8135SOL     OW27296   8.361   0.976   8.704 -0.6512 -0.4241 -0.3444
 8135SOL    HW127297   8.373   1.041   8.635 -2.1892  0.2057 -0.0575
 8135SOL    HW227298   8.415   0.902   8.677 -0.8850 -0.0303 -2.0026
 8136SOL     OW27299   2.451   7.469   7.242  0.1376  0.0125 -0.0185
 8136SOL    HW127300   2.436   7.435   7.330  0.1572 -0.9471 -0.3759
 8136SOL    HW227301   2.457   7.391   7.187 -0.1027  0.6130 -0.9081
 8137SOL     OW27302   2.349   8.671   8.965 -0.0277 -0.4751 -0.5562
 8137SOL    HW127303   2.276   8.733   8.974 -0.7277 -1.3019 -0.4454
 8137SOL    HW227304   2.427   8.724   8.982 -0.6798  0.1503  0.6388
 8138SOL     OW27305   8.280   4.916   4.229  0.0734 -0.5790 -0.7226
 8138SOL    HW127306   8.250   4.875   4.147 -0.2529 -0.2110 -0.7933
 8138SOL    HW227307   8.293   4.843   4.289  0.2038 -0.8435 -1.0687
 8139SOL     OW27308   1.645   3.499   0.075 -0.0919 -0.7973  0.2917
 8139SOL    HW127309   1.624   3.562   0.145 -0.0785  0.0698 -0.4570
 8139SOL    HW227310   1.608   3.416   0.106 -1.5213 -0.0842  0.6189
 8140SOL     OW27311   9.029   5.102   5.119 -0.6510 -0.4731  0.2638
 8140SOL    HW127312   9.063   5.024   5.164 -0.4518 -1.0616 -0.8562
 8140SOL    HW227313   9.093   5.118   5.049 -1.5659 -0.3226 -0.5575
 8141SOL     OW27314   4.646   7.046   2.203  0.0345 -0.3605  0.0757
 8141SOL    HW127315   4.577   7.075   2.262 -0.5061  1.3030 -1.2903
 8141SOL    HW227316   4.705   6.995   2.258 -1.8520 -1.1996  1.4508
 8142SOL     OW27317   7.111   8.242   2.382  0.2997 -0.1983  0.3357
 8142SOL    HW127318   7.027   8.259   2.425 -0.7400 -0.2605 -1.5571
 8142SOL    HW227319   7.124   8.148   2.390  0.6689 -0.0680  1.4264
 8143SOL     OW27320   0.736   3.282   8.724 -0.2383  0.5438  0.0116
 8143SOL    HW127321   0.728   3.365   8.677  0.0395  0.4833 -0.1472
 8143SOL    HW227322   0.760   3.219   8.656 -0.6305  0.2943  0.1013
 8144SOL     OW27323   1.767   1.320   8.465 -0.1079  0.0931  0.2317
 8144SOL    HW127324   1.770   1.416   8.464 -1.5644  0.1958  1.4887
 8144SOL    HW227325   1.708   1.299   8.538  0.6377 -1.7788  0.3472
 8145SOL     OW27326   7.288   7.394   6.760 -0.7208  0.5048  0.1737
 8145SOL    HW127327   7.358   7.330   6.753 -0.8039  0.3920  0.3603
 8145SOL    HW227328   7.211   7.350   6.723 -0.3628  1.1550 -1.4145
 8146SOL     OW27329   7.025   6.589   0.049 -0.0675 -0.1123  0.3651
 8146SOL    HW127330   7.072   6.510   0.020  0.4366  0.1484  0.4494
 8146SOL    HW227331   7.058   6.605   0.138 -0.3062  0.0879  0.4190
 8147SOL     OW27332   1.169   3.060   2.661 -0.3668 -0.8614  0.0274
 8147SOL    HW127333   1.078   3.054   2.693 -1.4228 -0.6999 -2.7110
 8147SOL    HW227334   1.192   2.970   2.640  1.4944 -1.4939  3.8420
 8148SOL     OW27335   4.308   7.765   3.057 -0.1534 -0.4396  0.0507
 8148SOL    HW127336   4.349   7.783   2.973  0.0068 -2.3138 -0.3250
 8148SOL    HW227337   4.345   7.681   3.084 -2.2019 -1.2118  0.6708
 8149SOL     OW27338   7.231   0.230   5.978  0.2679 -0.2593  0.3299
 8149SOL    HW127339   7.148   0.186   5.991  0.9017 -1.1502  1.5281
 8149SOL    HW227340   7.221   0.314   6.023  0.4523 -0.9102  1.6099
 8150SOL     OW27341   2.312   8.336   4.557  0.0261  0.2826 -0.4261
 8150SOL    HW127342   2.314   8.375   4.644 -2.5170  0.1027 -0.2020
 8150SOL    HW227343   2.238   8.275   4.560  0.4229 -0.3738 -2.4533
 8151SOL     OW27344   1.462   7.626   9.049 -0.2571 -0.6235 -0.1690
 8151SOL    HW127345   1.403   7.550   9.055  0.1787 -0.8630  2.0231
 8151SOL    HW227346   1.420   7.684   8.985 -1.0308 -2.3273 -1.2690
 8152SOL     OW27347   8.801   1.937   1.274 -0.2664 -0.2169 -0.8990
 8152SOL    HW127348   8.732   1.925   1.339  0.0714 -0.5621 -0.5974
 8152SOL    HW227349   8.763   1.995   1.209 -1.1956 -1.2222 -1.2772
 8153SOL     OW27350   0.121   5.132   3.677 -0.0973  0.3053  0.4390
 8153SOL    HW127351   0.097   5.067   3.610 -0.7235  0.2091  0.7505
 8153SOL    HW227352   0.170   5.199   3.629 -0.5256  0.2299 -0.1135
 8154SOL     OW27353   3.893   6.975   4.009  0.0398  0.4014  0.2759
 8154SOL    HW127354   3.929   6.935   4.087  1.7170 -0.1234 -0.7137
 8154SOL    HW227355   3.964   6.972   3.945 -0.6712  2.4443 -0.7229
 8155SOL     OW27356   0.657   9.196   1.953 -0.2494  0.3532  0.4499
 8155SOL    HW127357   0.715   9.258   1.907 -0.6576 -0.9255 -1.9305
 8155SOL    HW227358   0.688   9.199   2.044  0.3362  3.3249  0.2791
 8156SOL     OW27359   8.778   7.285   3.372  0.4304 -0.3258 -0.3030
 8156SOL    HW127360   8.745   7.362   3.326 -1.3166 -0.4577  0.6531
 8156SOL    HW227361   8.769   7.306   3.465  1.3536 -1.1110 -0.0171
 8157SOL     OW27362   8.573   0.684   7.266 -0.2586  0.3217  0.1536
 8157SOL    HW127363   8.494   0.737   7.275 -0.7619 -0.1217 -1.3535
 8157SOL    HW227364   8.605   0.703   7.178  1.1915  0.3021  0.6525
 8158SOL     OW27365   8.860   5.693   2.449 -0.0470 -0.3518  0.3404
 8158SOL    HW127366   8.801   5.638   2.500  1.0829 -1.9811 -0.0254
 8158SOL    HW227367   8.870   5.773   2.501  0.2879 -1.5424  2.1942
 8159SOL     OW27368   4.232   4.493   2.356  1.1231  0.4775  0.1094
 8159SOL    HW127369   4.224   4.544   2.275  1.5396 -1.3417 -1.1408
 8159SOL    HW227370   4.326   4.475   2.364  1.0740  0.5364  0.9470
 8160SOL     OW27371   1.187   0.238   0.985  0.0532 -0.1994 -0.1923
 8160SOL    HW127372   1.246   0.164   1.004 -0.0776 -0.3774 -0.4697
 8160SOL    HW227373   1.100   0.205   1.007  0.0591  0.0747  0.2490
 8161SOL     OW27374   5.235   4.668   1.857 -0.1311 -0.0595 -0.5158
 8161SOL    HW127375   5.270   4.583   1.832 -0.8932 -1.0447  1.5368
 8161SOL    HW227376   5.312   4.724   1.867  0.5241 -1.0013 -0.2193
 8162SOL     OW27377   1.040   6.472   7.999 -0.2160 -0.3703 -0.7451
 8162SOL    HW127378   0.993   6.534   7.944 -0.2979 -0.5623 -0.8919
 8162SOL    HW227379   1.005   6.486   8.087 -1.0090 -0.9486 -0.9575
 8163SOL     OW27380   3.941   3.210   5.462 -0.4934  0.1523 -0.1297
 8163SOL    HW127381   3.981   3.196   5.548 -3.4787  2.6319  1.8242
 8163SOL    HW227382   3.860   3.160   5.465 -0.8319  0.5942 -1.4043
 8164SOL     OW27383   2.308   8.083   7.701 -0.4583  0.2234 -0.0034
 8164SOL    HW127384   2.330   7.992   7.681  0.4302  0.4814 -0.2250
 8164SOL    HW227385   2.350   8.134   7.632 -0.7136  0.8249  0.2797
 8165SOL     OW27386   0.893   0.158   6.226 -0.3048 -0.5545 -0.0468
 8165SOL    HW127387   0.920   0.102   6.299 -4.2457 -1.7461  0.7578
 8165SOL    HW227388   0.905   0.104   6.148  2.0499 -0.0073 -0.1175
 8166SOL     OW27389   7.049   5.316   0.917  0.1709  0.3590 -0.4575
 8166SOL    HW127390   7.040   5.261   0.839  0.1815  0.9180 -0.8633
 8166SOL    HW227391   6.992   5.391   0.899 -1.6610 -0.5621  1.0531
 8167SOL     OW27392   0.443   3.499   8.244 -0.3657  0.2105 -0.2768
 8167SOL    HW127393   0.503   3.511   8.171  0.6048 -1.3396  0.2278
 8167SOL    HW227394   0.499   3.473   8.317 -1.5729 -0.6269  0.3849
 8168SOL     OW27395   1.270   2.314   7.783  0.1410 -0.1833  0.5408
 8168SOL    HW127396   1.314   2.384   7.736 -0.6899  0.1562  0.2500
 8168SOL    HW227397   1.339   2.270   7.832  0.8537  0.1143 -0.1792
 8169SOL     OW27398   8.446   1.171   6.251 -0.1955 -0.0649  0.1721
 8169SOL    HW127399   8.446   1.244   6.312 -0.0549 -0.4222  0.6024
 8169SOL    HW227400   8.534   1.133   6.258  0.2883  0.7236 -1.2525
 8170SOL     OW27401   5.552   7.801   5.965 -0.6129  0.3408 -0.2517
 8170SOL    HW127402   5.603   7.720   5.963  1.1506  1.3764  0.7324
 8170SOL    HW227403   5.516   7.808   5.877 -0.0619 -1.0448 -0.6205
 8171SOL     OW27404   5.061   3.232   3.963 -0.0508  0.2547  0.4553
 8171SOL    HW127405   5.035   3.208   4.052 -1.2404  2.7364  0.8749
 8171SOL    HW227406   5.049   3.152   3.912  0.5806 -1.2137  2.4787
 8172SOL     OW27407   5.020   5.583   1.765 -0.2764 -0.4695  0.1252
 8172SOL    HW127408   5.027   5.621   1.678 -2.1507  3.6003  1.5023
 8172SOL    HW227409   5.082   5.510   1.764  0.6641  0.1041 -4.1697
 8173SOL     OW27410   5.041   8.468   6.420  0.0808 -0.0347 -0.4079
 8173SOL    HW127411   5.012   8.549   6.378  1.3593  0.7565  0.1330
 8173SOL    HW227412   5.078   8.498   6.504 -0.3681 -1.3090  0.2717
 8174SOL     OW27413   2.597   1.852   6.299 -0.3977  0.0272 -0.0466
 8174SOL    HW127414   2.547   1.883   6.223 -0.9318 -1.2176 -0.2228
 8174SOL    HW227415   2.536   1.856   6.372 -0.0530  0.6829  0.2157
 8175SOL     OW27416   5.893   4.955   6.048  0.3333  0.1834 -0.1770
 8175SOL    HW127417   5.890   4.860   6.058 -1.4565  0.3840  1.8864
 8175SOL    HW227418   5.937   4.969   5.964 -0.6879 -2.5182 -1.2658
 8176SOL     OW27419   3.755   0.112   4.001  0.0739  0.4722 -0.0834
 8176SOL    HW127420   3.738   0.036   3.946 -0.2812  0.6518 -0.2215
 8176SOL    HW227421   3.803   0.173   3.945  0.0357  0.5049 -0.0797
 8177SOL     OW27422   1.930   2.679   0.282 -0.0102  0.7570  0.5741
 8177SOL    HW127423   1.850   2.667   0.232 -0.6340  1.5704  1.3318
 8177SOL    HW227424   2.000   2.647   0.225 -0.9360 -0.6723  0.1961
 8178SOL     OW27425   5.924   1.050   1.945  0.1817  0.2158  0.0498
 8178SOL    HW127426   6.015   1.075   1.962  0.5674 -2.4191  2.8044
 8178SOL    HW227427   5.929   0.958   1.919 -1.6491  0.1370 -0.1612
 8179SOL     OW27428   7.731   2.491   6.446  0.2268  1.3353  0.5203
 8179SOL    HW127429   7.802   2.516   6.386 -0.4110  0.4163 -0.6530
 8179SOL    HW227430   7.775   2.443   6.516  0.7021 -0.0229 -0.6628
 8180SOL     OW27431   2.964   2.968   7.688  0.7577  0.0546  0.2128
 8180SOL    HW127432   3.023   2.982   7.762 -1.4197 -2.1251  2.5500
 8180SOL    HW227433   2.885   3.015   7.710 -0.2159 -1.2728 -0.2920
 8181SOL     OW27434   0.703   8.238   9.074 -0.2313  0.2794  0.1904
 8181SOL    HW127435   0.727   8.282   8.993 -1.2857 -0.0286 -0.3126
 8181SOL    HW227436   0.669   8.308   9.130 -2.8631  0.0486 -0.9811
 8182SOL     OW27437   6.375   6.869   5.631 -0.1261 -0.1001  0.0987
 8182SOL    HW127438   6.387   6.882   5.725  2.3192 -1.4678  0.0609
 8182SOL    HW227439   6.427   6.938   5.590 -2.6573  1.6630 -0.3676
 8183SOL     OW27440   2.687   9.195   1.937  0.4574  0.0429 -0.0603
 8183SOL    HW127441   2.672   9.136   2.011  0.3913  1.5337  1.1852
 8183SOL    HW227442   2.724   9.274   1.977  0.7642  0.7644 -1.6822
 8184SOL     OW27443   5.273   9.164   8.890  0.0763 -0.1292 -0.1086
 8184SOL    HW127444   5.270   9.244   8.838  0.7325 -0.9592 -1.4710
 8184SOL    HW227445   5.203   9.175   8.955  1.6093  2.5165  1.2602
 8185SOL     OW27446   5.689   8.531   4.738 -0.2795 -0.1776  0.0284
 8185SOL    HW127447   5.623   8.582   4.785 -1.1841 -1.4488  0.1782
 8185SOL    HW227448   5.686   8.565   4.649  0.4258  1.2637  0.5313
 8186SOL     OW27449   4.011   0.772   6.315 -0.0776 -0.4261 -0.0412
 8186SOL    HW127450   3.968   0.734   6.392 -0.4427 -0.1316 -0.0976
 8186SOL    HW227451   3.985   0.864   6.315 -1.3879 -0.7586 -1.3929
 8187SOL     OW27452   2.522   3.143   3.301  0.3100  0.0401 -0.4777
 8187SOL    HW127453   2.516   3.087   3.379 -1.3551  2.7959  1.5462
 8187SOL    HW227454   2.479   3.092   3.232 -1.8991 -0.9181  1.4638
 8188SOL     OW27455   0.372   5.906   1.284 -0.4646 -0.2957 -0.3658
 8188SOL    HW127456   0.353   5.869   1.371  0.7147 -2.1114 -0.8293
 8188SOL    HW227457   0.288   5.937   1.252 -0.7956  1.2266  1.7534
 8189SOL     OW27458   6.528   5.370   8.229 -0.6013 -0.2533 -0.1996
 8189SOL    HW127459   6.598   5.309   8.250 -2.0248 -1.8953  0.0631
 8189SOL    HW227460   6.565   5.456   8.245  2.3965 -0.7772 -3.0324
 8190SOL     OW27461   7.194   4.209   8.410 -0.5969  0.0197  0.2666
 8190SOL    HW127462   7.235   4.260   8.480 -0.1798 -0.0194  0.0486
 8190SOL    HW227463   7.209   4.259   8.331 -0.0505 -0.5092  0.0268
 8191SOL     OW27464   2.161   7.310   7.454  0.0616  0.7858 -0.1583
 8191SOL    HW127465   2.156   7.284   7.362 -0.5857  0.6603 -0.0937
 8191SOL    HW227466   2.255   7.322   7.471  0.1748  0.9641 -0.8744
 8192SOL     OW27467   5.485   1.281   6.826  0.4264  0.0613 -0.1650
 8192SOL    HW127468   5.570   1.279   6.871  0.3064  0.2051  0.0695
 8192SOL    HW227469   5.446   1.196   6.846 -0.0148  0.4694  0.7653
 8193SOL     OW27470   2.126   2.959   4.726  0.6916  0.1235  0.0684
 8193SOL    HW127471   2.179   3.035   4.750  2.0947 -1.1505  1.1802
 8193SOL    HW227472   2.051   2.962   4.785  1.1311  0.2296  0.6230
 8194SOL     OW27473   2.658   6.176   6.191  0.2525  0.0174  0.3290
 8194SOL    HW127474   2.733   6.143   6.142 -0.1565 -0.6797  0.1554
 8194SOL    HW227475   2.685   6.263   6.221  0.2177  0.8310 -1.8198
 8195SOL     OW27476   1.871   7.075   7.521  0.4676  0.4224  0.3880
 8195SOL    HW127477   1.827   7.064   7.437 -0.8054  2.2887  0.7499
 8195SOL    HW227478   1.957   7.035   7.509  0.5331  1.1498 -1.9720
 8196SOL     OW27479   1.201   7.846   2.914 -0.0381 -0.1452  0.1982
 8196SOL    HW127480   1.116   7.876   2.947 -0.3574 -0.7968 -0.0106
 8196SOL    HW227481   1.188   7.837   2.819  0.2966 -0.1517  0.1506
 8197SOL     OW27482   1.467   4.768   9.160 -0.2221 -0.0650  0.3856
 8197SOL    HW127483   1.375   4.740   9.154 -0.3034  0.1585  0.6278
 8197SOL    HW227484   1.463   4.861   9.180  0.0370  0.4605 -1.7101
 8198SOL     OW27485   5.345   3.233   1.399 -0.1087 -0.0924  0.5154
 8198SOL    HW127486   5.310   3.213   1.312 -1.3236  0.0299  0.9546
 8198SOL    HW227487   5.420   3.174   1.408 -1.6687 -2.2198  0.5114
 8199SOL     OW27488   7.975   5.428   1.329 -0.2353 -0.2815  0.3331
 8199SOL    HW127489   7.956   5.452   1.238  2.7851  0.5653 -0.1899
 8199SOL    HW227490   8.009   5.339   1.324 -0.5447 -0.4235  0.7169
 8200SOL     OW27491   2.930   8.918   9.215  0.2730 -0.0523 -0.4421
 8200SOL    HW127492   2.894   8.998   9.177  1.3383 -0.4595 -2.4479
 8200SOL    HW227493   3.014   8.944   9.252 -0.5783  0.2574  1.3876
 8201SOL     OW27494   8.297   0.542   2.419  0.3376 -0.4281  0.0598
 8201SOL    HW127495   8.221   0.488   2.397  0.4172 -0.9453  0.9987
 8201SOL    HW227496   8.274   0.630   2.389 -0.8409 -0.4725  0.7469
 8202SOL     OW27497   5.874   4.137   0.143 -0.9348  0.0033  0.4961
 8202SOL    HW127498   5.969   4.127   0.147 -0.4539  1.2834 -3.5794
 8202SOL    HW227499   5.857   4.223   0.180 -0.0792  0.9850 -1.2769
 8203SOL     OW27500   0.767   5.489   8.746  0.3356 -0.1157 -0.5229
 8203SOL    HW127501   0.728   5.457   8.664 -1.5786  1.4325 -0.2712
 8203SOL    HW227502   0.724   5.439   8.815  2.0653 -1.5381 -0.3785
 8204SOL     OW27503   0.701   7.692   7.233 -0.0482  0.4863  0.7421
 8204SOL    HW127504   0.637   7.735   7.177  0.8773  0.0584 -0.6974
 8204SOL    HW227505   0.773   7.755   7.241  0.4316  0.0046  0.2893
 8205SOL     OW27506   5.055   4.652   3.170  0.1194 -0.1697 -0.1006
 8205SOL    HW127507   5.029   4.599   3.245 -1.1016  0.1215 -0.2927
 8205SOL    HW227508   5.082   4.736   3.208 -1.8240  0.4778 -0.0296
 8206SOL     OW27509   4.524   5.987   2.336 -0.1974  0.5248 -1.1208
 8206SOL    HW127510   4.608   6.035   2.339 -0.5744  1.2375  2.0284
 8206SOL    HW227511   4.525   5.943   2.252  4.2056 -0.9926 -0.5513
 8207SOL     OW27512   7.061   2.886   7.371  0.0639  0.4454 -0.2136
 8207SOL    HW127513   7.085   2.794   7.381 -1.4684 -0.0442 -0.6800
 8207SOL    HW227514   7.006   2.887   7.293 -1.5163  1.4209  0.8557
 8208SOL     OW27515   2.840   4.267   1.825  0.1941  0.5431 -0.6832
 8208SOL    HW127516   2.830   4.328   1.753 -0.1159  0.3242 -0.8280
 8208SOL    HW227517   2.865   4.321   1.900 -3.3739  1.3756  0.0826
 8209SOL     OW27518   5.288   0.028   1.171 -0.2630 -0.4047  0.0752
 8209SOL    HW127519   5.303   0.033   1.265 -0.8316 -1.2849  0.2247
 8209SOL    HW227520   5.296   0.118   1.140  2.4632 -0.3996  0.5518
 8210SOL     OW27521   5.060   4.223   6.430  0.0796  0.3963 -0.5587
 8210SOL    HW127522   4.970   4.222   6.462  0.0886  1.8776 -0.4257
 8210SOL    HW227523   5.110   4.173   6.494 -0.7151 -0.9115 -0.9175
 8211SOL     OW27524   4.316   6.320   0.676  0.0950 -0.6478  0.2965
 8211SOL    HW127525   4.358   6.375   0.610 -0.7628  1.2050  1.2216
 8211SOL    HW227526   4.284   6.381   0.742  0.2599 -2.3686  2.0814
 8212SOL     OW27527   8.683   3.607   1.060 -0.7006 -0.2787  0.2931
 8212SOL    HW127528   8.680   3.703   1.061 -0.4205 -0.2537 -0.4300
 8212SOL    HW227529   8.741   3.584   1.133 -0.2455  0.1312  0.0689
 8213SOL     OW27530   4.961   0.641   3.976  0.2402  0.5553  0.3679
 8213SOL    HW127531   4.904   0.717   3.991  0.9509  1.6798 -2.0887
 8213SOL    HW227532   5.050   0.676   3.984  0.5932 -0.3113  0.3546
 8214SOL     OW27533   2.524   4.427   7.614 -0.0602  0.5911 -0.0461
 8214SOL    HW127534   2.594   4.458   7.670 -1.0523  1.3258  0.8292
 8214SOL    HW227535   2.493   4.347   7.656 -1.6270  1.7963  1.2105
 8215SOL     OW27536   5.399   2.779   8.639 -0.6163  0.2813  0.0880
 8215SOL    HW127537   5.404   2.791   8.733 -0.9857 -1.0363  0.2881
 8215SOL    HW227538   5.345   2.701   8.627 -1.4149  0.9974 -1.2519
 8216SOL     OW27539   6.327   2.417   4.290 -0.2607 -0.0491 -0.2107
 8216SOL    HW127540   6.339   2.490   4.352  2.2516 -0.8759  0.3840
 8216SOL    HW227541   6.329   2.339   4.345  0.9532 -0.7530 -1.2188
 8217SOL     OW27542   1.327   3.709   1.299  0.2845  0.0123 -0.2096
 8217SOL    HW127543   1.272   3.749   1.232  0.0262  1.4789  0.8308
 8217SOL    HW227544   1.386   3.651   1.250 -1.5559 -0.9316 -1.4337
 8218SOL     OW27545   1.990   0.597   7.938 -0.4888 -0.0077 -0.1447
 8218SOL    HW127546   1.980   0.502   7.939  2.2150 -0.3997 -0.9624
 8218SOL    HW227547   2.013   0.618   7.847  1.3863  1.0302  0.4972
 8219SOL     OW27548   6.418   2.754   5.137 -0.5823  0.1347  0.3067
 8219SOL    HW127549   6.356   2.806   5.189 -0.7254  2.4825 -2.0343
 8219SOL    HW227550   6.376   2.745   5.052  0.9637 -0.9895 -0.3720
 8220SOL     OW27551   5.356   8.685   0.467 -0.1360  0.0546 -0.1666
 8220SOL    HW127552   5.336   8.761   0.522 -1.7318 -2.5804  3.3149
 8220SOL    HW227553   5.278   8.674   0.413 -1.0198 -0.4837  1.1632
 8221SOL     OW27554   4.083   7.246   0.514  0.1873 -0.8241 -0.0756
 8221SOL    HW127555   4.151   7.184   0.488  1.9361  0.7894  0.4038
 8221SOL    HW227556   4.017   7.192   0.558  0.0734 -2.7479 -2.3885
 8222SOL     OW27557   3.239   6.243   8.017 -0.0478  0.5241 -0.1985
 8222SOL    HW127558   3.332   6.264   8.004 -0.1154  2.4834  2.0040
 8222SOL    HW227559   3.234   6.149   7.999  1.9767  0.6911 -2.1095
 8223SOL     OW27560   8.759   7.579   5.372 -0.2782  1.1138  0.2114
 8223SOL    HW127561   8.779   7.568   5.279  2.3433 -0.5335  0.8650
 8223SOL    HW227562   8.683   7.521   5.388 -0.4867  1.0975 -0.7983
 8224SOL     OW27563   7.114   2.328   8.816 -0.3002  0.0966 -0.1410
 8224SOL    HW127564   7.070   2.263   8.872 -3.2069 -0.1807 -2.4868
 8224SOL    HW227565   7.203   2.294   8.805 -0.7616 -1.7693  1.2935
 8225SOL     OW27566   1.653   8.502   6.910  0.6310  0.7266  0.3268
 8225SOL    HW127567   1.595   8.427   6.907  1.4291  0.0955  0.3952
 8225SOL    HW227568   1.642   8.545   6.825  2.1971 -1.0359 -0.8407
 8226SOL     OW27569   1.260   6.508   3.745 -0.1023  0.0417 -0.2872
 8226SOL    HW127570   1.330   6.554   3.698  0.4477  0.1231  0.5904
 8226SOL    HW227571   1.187   6.570   3.745  0.5034  0.7700  0.5479
 8227SOL     OW27572   1.490   4.442   3.676  0.2814  0.4233 -0.0065
 8227SOL    HW127573   1.413   4.390   3.699 -1.6486  1.9445 -2.4565
 8227SOL    HW227574   1.484   4.521   3.730 -0.0432  0.6726 -0.4070
 8228SOL     OW27575   2.364   8.457   1.467 -0.3327 -0.2962 -0.1460
 8228SOL    HW127576   2.420   8.524   1.428  0.2599 -0.8267 -0.2306
 8228SOL    HW227577   2.314   8.503   1.534  1.8704 -0.1922  1.5400
 8229SOL     OW27578   5.821   3.190   1.892  0.4984  0.2278 -0.3709
 8229SOL    HW127579   5.891   3.213   1.831  0.9703  0.1871  0.1501
 8229SOL    HW227580   5.788   3.105   1.860  0.1073  0.6469 -1.1125
 8230SOL     OW27581   2.727   2.039   1.955 -0.2206 -0.6995  0.1864
 8230SOL    HW127582   2.805   1.999   1.993  0.8576  0.1004 -1.0780
 8230SOL    HW227583   2.729   2.012   1.863  0.4251  1.9811 -0.6609
 8231SOL     OW27584   6.382   7.512   6.660 -0.0177 -0.3382 -0.1950
 8231SOL    HW127585   6.451   7.577   6.647 -0.3817  0.3217  1.0675
 8231SOL    HW227586   6.387   7.456   6.582  1.0815  0.4769 -0.7328
 8232SOL     OW27587   0.568   0.904   3.360 -0.6554 -0.1014 -0.4013
 8232SOL    HW127588   0.603   0.818   3.335 -2.2246 -0.0934 -2.9978
 8232SOL    HW227589   0.635   0.966   3.333 -1.4966 -0.2470 -3.0660
 8233SOL     OW27590   3.570   0.956   3.504  0.5649  0.7281  0.3032
 8233SOL    HW127591   3.505   0.888   3.523  1.2886  0.1315  0.6753
 8233SOL    HW227592   3.520   1.038   3.507 -0.4080  0.1984 -0.5705
 8234SOL     OW27593   8.328   5.914   1.926  0.1120  0.0069 -0.4240
 8234SOL    HW127594   8.316   5.938   1.835  0.2571  1.4099 -0.0981
 8234SOL    HW227595   8.408   5.958   1.953  1.5940 -2.5551 -0.3175
 8235SOL     OW27596   2.997   7.824   3.963 -0.3424  0.2536 -0.0933
 8235SOL    HW127597   2.940   7.821   4.040 -0.4867 -0.2934 -0.2136
 8235SOL    HW227598   2.941   7.857   3.893 -0.5147 -0.2809 -0.2106
 8236SOL     OW27599   2.365   3.410   0.241 -0.6260  0.3646  0.5699
 8236SOL    HW127600   2.407   3.408   0.154 -1.5263  1.5466  0.0861
 8236SOL    HW227601   2.423   3.358   0.296  0.4331  0.3165 -0.5366
 8237SOL     OW27602   4.647   5.711   5.779  0.0931  0.2188 -0.2112
 8237SOL    HW127603   4.618   5.749   5.696 -1.3557  0.1884  0.2487
 8237SOL    HW227604   4.573   5.725   5.838  2.2121  3.0780  2.0078
 8238SOL     OW27605   1.712   1.552   7.534  0.0376 -0.3149 -0.4946
 8238SOL    HW127606   1.768   1.492   7.582 -0.4851 -1.6630 -1.5100
 8238SOL    HW227607   1.661   1.597   7.602  0.9414 -0.4784  0.3152
 8239SOL     OW27608   0.227   6.011   2.034  0.0319  0.3917 -0.0419
 8239SOL    HW127609   0.145   6.041   2.072  0.1145  0.3404  0.1776
 8239SOL    HW227610   0.285   5.998   2.109  0.0572 -0.1368 -0.1447
 8240SOL     OW27611   3.583   4.507   6.127 -0.4412 -0.0256 -0.0737
 8240SOL    HW127612   3.596   4.414   6.144  3.7437  0.7083  1.7922
 8240SOL    HW227613   3.665   4.536   6.088 -1.4323  3.0286 -0.1252
 8241SOL     OW27614   8.903   5.963   5.902 -0.2290  0.1244  0.0379
 8241SOL    HW127615   8.900   6.024   5.828 -1.2408  0.1276  0.0809
 8241SOL    HW227616   8.856   6.008   5.972  0.4381 -0.0188  0.5924
 8242SOL     OW27617   1.646   9.018   0.768 -0.1574  0.2134  0.5179
 8242SOL    HW127618   1.655   9.095   0.825 -0.8374 -0.0612  1.0096
 8242SOL    HW227619   1.717   8.960   0.794 -1.5812 -0.7755  2.5125
 8243SOL     OW27620   1.768   7.529   4.504  0.3051 -0.4006 -0.0462
 8243SOL    HW127621   1.790   7.620   4.522 -0.2213 -0.2144 -0.3051
 8243SOL    HW227622   1.695   7.534   4.443 -0.1571 -0.9832  0.4370
 8244SOL     OW27623   3.028   1.811   0.754 -0.1658 -0.4649  0.0700
 8244SOL    HW127624   3.018   1.860   0.836 -0.0216  1.6901 -1.1416
 8244SOL    HW227625   3.006   1.721   0.778  2.2861 -0.4349  3.0370
 8245SOL     OW27626   4.135   0.630   6.622  0.3708 -0.5259 -0.4826
 8245SOL    HW127627   4.185   0.553   6.595  0.9611 -0.9215  1.5347
 8245SOL    HW227628   4.197   0.703   6.616  0.2407 -0.4539 -0.9962
 8246SOL     OW27629   0.390   1.727   8.163 -0.1179  0.1620 -0.0940
 8246SOL    HW127630   0.356   1.790   8.226 -2.6351 -1.7222  0.5724
 8246SOL    HW227631   0.484   1.722   8.182 -0.4817  1.1014  2.1851
 8247SOL     OW27632   7.334   7.776   7.650  0.1385  0.1631 -0.3385
 8247SOL    HW127633   7.418   7.815   7.672 -0.1338  0.3638  0.3612
 8247SOL    HW227634   7.343   7.750   7.558  1.7904 -1.9860  0.3392
 8248SOL     OW27635   2.100   0.028   6.132  0.4784 -0.6662 -0.1095
 8248SOL    HW127636   2.142   0.113   6.140  1.4871 -1.2136  0.6531
 8248SOL    HW227637   2.172  -0.035   6.133 -0.3232 -1.6448  1.3794
 8249SOL     OW27638   3.821   5.630   5.197  0.0994  0.4320 -0.2066
 8249SOL    HW127639   3.833   5.539   5.223 -0.4591  0.4976  0.3042
 8249SOL    HW227640   3.780   5.671   5.272 -1.1663  0.7317 -1.0313
 8250SOL     OW27641   3.262   2.942   6.934  0.1951  0.1953 -0.0918
 8250SOL    HW127642   3.218   2.905   7.010  0.8151  0.9136  0.6300
 8250SOL    HW227643   3.290   3.029   6.962  0.2980  0.5328 -1.1925
 8251SOL     OW27644   4.882   5.709   1.006  0.0539 -0.2806  0.0795
 8251SOL    HW127645   4.882   5.735   0.914  1.2621  0.6353  0.3047
 8251SOL    HW227646   4.905   5.789   1.053  1.5763 -1.2026  0.9971
 8252SOL     OW27647   4.642   1.610   7.315 -0.1479 -0.2242  0.0501
 8252SOL    HW127648   4.575   1.622   7.382 -1.4716 -0.1448 -1.2333
 8252SOL    HW227649   4.695   1.536   7.346  1.2962  1.7665  2.6964
 8253SOL     OW27650   7.495   5.854   3.013 -0.2113 -0.3917  0.2909
 8253SOL    HW127651   7.493   5.763   3.043  2.7472 -0.3121  1.1024
 8253SOL    HW227652   7.501   5.906   3.093 -0.6835  0.4527 -0.2104
 8254SOL     OW27653   1.842   2.865   0.048 -0.3023  0.7137 -0.0360
 8254SOL    HW127654   1.872   2.783   0.008 -0.8070  1.1481 -1.3305
 8254SOL    HW227655   1.922   2.903   0.085 -0.0495 -0.3148  0.5162
 8255SOL     OW27656   3.044   1.697   4.108  0.6308 -0.1129  0.1608
 8255SOL    HW127657   2.999   1.781   4.105 -0.3398 -0.6151  0.1404
 8255SOL    HW227658   2.976   1.634   4.132  1.4693 -0.8068  0.8200
 8256SOL     OW27659   0.097   0.451   7.679  0.0388 -0.1314  0.7889
 8256SOL    HW127660   0.142   0.421   7.601 -2.5182  0.2390 -0.9543
 8256SOL    HW227661   0.118   0.544   7.685 -1.0428  0.2283 -0.4910
 8257SOL     OW27662   7.735   8.701   0.196 -0.5906  0.1080  0.1055
 8257SOL    HW127663   7.695   8.664   0.274 -0.3010 -0.6261 -0.0794
 8257SOL    HW227664   7.671   8.764   0.163 -2.2690 -2.0475 -0.9934
 8258SOL     OW27665   2.098   7.634   3.459 -0.6947 -0.2388 -0.0657
 8258SOL    HW127666   2.135   7.669   3.540 -1.1630 -2.4178  1.1689
 8258SOL    HW227667   2.159   7.662   3.391  1.0956 -0.4242  1.3706
 8259SOL     OW27668   4.237   1.986   4.384  0.0857  0.4120  0.1270
 8259SOL    HW127669   4.250   2.012   4.293 -0.4446 -1.2670 -0.4766
 8259SOL    HW227670   4.169   1.918   4.380 -0.1186  0.4813  1.8025
 8260SOL     OW27671   0.209   9.235   0.990 -0.6814 -0.0454  0.2887
 8260SOL    HW127672   0.265   9.169   1.030 -1.7176 -0.8213  0.4985
 8260SOL    HW227673   0.210   9.308   1.051  2.8917  1.4947 -1.3005
 8261SOL     OW27674   7.350   4.624   4.578  0.3407  0.1592 -0.0349
 8261SOL    HW127675   7.338   4.665   4.664 -0.6744  0.6756 -0.3975
 8261SOL    HW227676   7.444   4.609   4.571  0.5326  0.8700  0.8307
 8262SOL     OW27677   3.693   8.006   1.447  0.5328  0.3816 -0.6233
 8262SOL    HW127678   3.721   8.072   1.384 -1.8385 -0.4178 -2.6760
 8262SOL    HW227679   3.609   8.037   1.479  1.6804  0.7809  2.3212
 8263SOL     OW27680   0.208   8.432   7.502 -0.5801 -0.1355 -0.1369
 8263SOL    HW127681   0.198   8.337   7.495 -0.7769 -0.2602  1.5328
 8263SOL    HW227682   0.301   8.448   7.490  0.0380 -0.9337  2.7867
 8264SOL     OW27683   6.104   3.645   6.051  0.2096 -0.0808  0.1549
 8264SOL    HW127684   6.023   3.594   6.046 -0.4702  1.1203 -1.6507
 8264SOL    HW227685   6.119   3.656   6.145 -2.5986  1.0097  0.5635
 8265SOL     OW27686   1.255   1.216   1.330  0.4057 -0.5242  0.3488
 8265SOL    HW127687   1.224   1.306   1.337 -0.6431 -0.7762 -0.6249
 8265SOL    HW227688   1.201   1.166   1.391  0.4786 -0.6017  0.3507
 8266SOL     OW27689   4.703   1.687   5.257  0.2205 -0.2046  0.1880
 8266SOL    HW127690   4.689   1.647   5.342 -0.5770  0.7490  0.5331
 8266SOL    HW227691   4.618   1.680   5.213  0.5742 -0.5181 -0.4594
 8267SOL     OW27692   2.334   8.292   9.237 -0.0773 -0.0034 -0.3961
 8267SOL    HW127693   2.326   8.308   9.143 -1.0759 -0.6196 -0.4262
 8267SOL    HW227694   2.410   8.234   9.245  0.8700  1.1558 -0.6810
 8268SOL     OW27695   6.322   1.561   5.573 -0.0609 -0.3283  0.5513
 8268SOL    HW127696   6.401   1.603   5.606 -0.4351 -0.7042  1.9608
 8268SOL    HW227697   6.252   1.589   5.632 -0.8318 -0.6982 -0.1550
 8269SOL     OW27698   1.775   4.754   1.870  0.7369 -0.5253 -0.0482
 8269SOL    HW127699   1.721   4.805   1.931 -1.0720 -1.2427 -0.9527
 8269SOL    HW227700   1.726   4.757   1.788  0.2957 -3.9750 -0.0506
 8270SOL     OW27701   5.085   6.427   1.683 -0.2658  0.5467  0.0847
 8270SOL    HW127702   5.123   6.458   1.765 -0.4557 -0.3483  0.5243
 8270SOL    HW227703   5.158   6.426   1.621 -0.2567  1.8448  0.0522
 8271SOL     OW27704   1.367   7.461   1.606  0.3167 -0.0904  0.0914
 8271SOL    HW127705   1.457   7.478   1.580  0.1936  0.0222 -0.2567
 8271SOL    HW227706   1.348   7.526   1.673  0.0232  0.8057 -0.8464
 8272SOL     OW27707   7.393   1.545   0.994 -0.3847 -0.1478  0.2210
 8272SOL    HW127708   7.363   1.602   1.064 -1.7854  1.4279 -1.5367
 8272SOL    HW227709   7.478   1.579   0.969  0.9158 -1.7541  2.1630
 8273SOL     OW27710   4.384   7.336   1.104 -0.3616 -0.9048 -0.6612
 8273SOL    HW127711   4.334   7.311   1.182  0.7957 -1.9054 -0.2156
 8273SOL    HW227712   4.401   7.253   1.059 -0.6754 -0.3806 -1.7943
 8274SOL     OW27713   7.694   6.988   2.347  0.1072 -0.9231  0.5742
 8274SOL    HW127714   7.727   6.921   2.407  0.3002 -0.3527  1.1160
 8274SOL    HW227715   7.637   7.042   2.401 -2.4428 -2.3552 -0.5228
 8275SOL     OW27716   8.535   8.059   6.179 -0.8665  0.5040 -0.2911
 8275SOL    HW127717   8.596   8.042   6.251  0.0399 -0.9843 -1.3520
 8275SOL    HW227718   8.510   8.151   6.191 -1.0872  0.2183  2.1358
 8276SOL     OW27719   1.784   0.298   3.678  0.1414 -0.5196  0.2071
 8276SOL    HW127720   1.810   0.386   3.704  0.5052 -0.5887  0.0914
 8276SOL    HW227721   1.741   0.310   3.594  0.0105 -0.4288  0.2871
 8277SOL     OW27722   1.504   4.515   1.512 -0.7350  0.6051 -0.0156
 8277SOL    HW127723   1.462   4.563   1.440 -1.5518  0.7057  0.5064
 8277SOL    HW227724   1.574   4.466   1.471 -0.3447  1.6897 -0.6770
 8278SOL     OW27725   4.624   2.367   9.208 -0.1334 -0.1771 -0.1485
 8278SOL    HW127726   4.599   2.328   9.125  2.3307 -0.3345 -0.9126
 8278SOL    HW227727   4.597   2.459   9.201 -1.2241 -0.5093 -0.4947
 8279SOL     OW27728   0.674   2.851   7.293 -0.4235  0.2393  0.1353
 8279SOL    HW127729   0.691   2.879   7.383  0.0167  0.3569  0.0135
 8279SOL    HW227730   0.703   2.924   7.239  1.0474 -0.5669 -0.2039
 8280SOL     OW27731   9.066   0.938   3.834 -0.2943 -1.0896 -0.1394
 8280SOL    HW127732   8.987   0.990   3.845  1.2306  1.1628  1.2458
 8280SOL    HW227733   9.110   0.977   3.759  1.1940  0.2056  1.3206
 8281SOL     OW27734   1.030   0.936   5.450  0.0992  0.3235  0.5664
 8281SOL    HW127735   0.985   0.924   5.367 -0.3217 -1.0522  0.9676
 8281SOL    HW227736   0.993   0.869   5.508 -0.3639  1.9015  2.1911
 8282SOL     OW27737   5.440   8.321   2.157  0.1013  0.0359  0.2397
 8282SOL    HW127738   5.421   8.395   2.215  0.1994  0.1869  0.0825
 8282SOL    HW227739   5.516   8.279   2.195 -1.1993 -1.2578  1.5203
 8283SOL     OW27740   0.626   1.093   5.618  0.3950  0.5630 -0.0815
 8283SOL    HW127741   0.546   1.144   5.635  0.8693  0.6537  2.1159
 8283SOL    HW227742   0.596   1.019   5.564 -0.8580  1.4588 -0.6727
 8284SOL     OW27743   4.548   9.037   8.466 -0.4621 -0.3160  0.3708
 8284SOL    HW127744   4.510   8.994   8.389  0.0384 -0.4934  0.2198
 8284SOL    HW227745   4.519   8.984   8.540  2.5680 -2.7758 -0.0026
 8285SOL     OW27746   1.505   0.221   1.788 -0.0110 -0.0044  0.5057
 8285SOL    HW127747   1.451   0.204   1.711  2.3986 -1.1185 -1.0735
 8285SOL    HW227748   1.498   0.140   1.840  0.2597 -0.2086  0.2254
 8286SOL     OW27749   5.791   1.486   6.731  0.0584  0.4547 -0.2529
 8286SOL    HW127750   5.837   1.438   6.661 -1.3836 -0.0229 -0.8983
 8286SOL    HW227751   5.860   1.536   6.774  1.2799 -0.6245 -0.8764
 8287SOL     OW27752   5.784   3.598   5.098  0.0583  0.5673  0.0226
 8287SOL    HW127753   5.821   3.648   5.025 -0.6084 -0.8467 -1.3427
 8287SOL    HW227754   5.726   3.534   5.056 -0.8875  0.1749  1.8565
 8288SOL     OW27755   2.733   3.471   6.932  0.7959  0.0478  0.2789
 8288SOL    HW127756   2.822   3.501   6.912  0.4931  0.4010 -0.6035
 8288SOL    HW227757   2.684   3.487   6.851 -0.2274  0.4549  0.9625
 8289SOL     OW27758   7.988   0.714   0.768  0.2413  0.0878  0.7531
 8289SOL    HW127759   7.967   0.621   0.757 -0.2410  0.3303 -0.4995
 8289SOL    HW227760   8.069   0.726   0.719 -0.6454  0.6747 -0.6488
 8290SOL     OW27761   2.081   6.038   8.116 -0.6273  0.1685 -0.4097
 8290SOL    HW127762   2.080   6.088   8.035  0.7772  2.8101  1.0908
 8290SOL    HW227763   2.005   6.069   8.165  0.2265  0.8757  0.5162
 8291SOL     OW27764   5.467   7.946   2.060 -0.1614  0.5168  0.2481
 8291SOL    HW127765   5.418   7.994   2.127 -0.7773  0.0430  0.1538
 8291SOL    HW227766   5.538   7.903   2.108 -1.2475 -0.7288  0.8221
 8292SOL     OW27767   2.311   3.135   5.414  0.1104  0.3594 -0.0066
 8292SOL    HW127768   2.355   3.215   5.443 -1.2442  0.9259  0.5692
 8292SOL    HW227769   2.259   3.108   5.489  0.8384 -1.3116 -0.0578
 8293SOL     OW27770   4.256   1.929   1.950 -0.0909 -0.2800  0.0055
 8293SOL    HW127771   4.187   1.877   1.907 -1.3789  0.5066  1.0432
 8293SOL    HW227772   4.232   1.928   2.043  0.3688  1.3799  0.1770
 8294SOL     OW27773   5.294   5.957   7.109  0.4807 -0.7064  0.0473
 8294SOL    HW127774   5.345   6.014   7.052  1.3108 -0.3151  1.1505
 8294SOL    HW227775   5.284   5.876   7.059 -0.1028  0.1302 -1.2506
 8295SOL     OW27776   6.477   5.275   0.496 -0.3641  0.2978 -0.0661
 8295SOL    HW127777   6.547   5.340   0.484 -1.4079  1.3082 -0.9382
 8295SOL    HW227778   6.498   5.206   0.433  0.2070  0.2619  0.1542
 8296SOL     OW27779   4.536   2.064   5.460 -0.4946 -0.1127 -0.0385
 8296SOL    HW127780   4.503   2.103   5.541  0.4291 -1.7801  1.1951
 8296SOL    HW227781   4.522   2.132   5.394 -2.1472  0.9469  1.3025
 8297SOL     OW27782   1.755   4.156   3.771 -1.1401  0.0447 -0.3493
 8297SOL    HW127783   1.687   4.094   3.746 -1.7514  0.9058 -0.8477
 8297SOL    HW227784   1.794   4.183   3.688  0.1279 -0.7661 -0.0516
 8298SOL     OW27785   0.926   8.307   8.486 -0.5844  0.5696 -0.5139
 8298SOL    HW127786   0.892   8.316   8.397  0.0569  1.7110 -0.6629
 8298SOL    HW227787   0.857   8.260   8.533 -1.1530  0.4010 -1.4859
 8299SOL     OW27788   7.662   3.567   3.085  1.0801  0.1388  0.2244
 8299SOL    HW127789   7.741   3.603   3.125  0.2359 -1.2518  3.4788
 8299SOL    HW227790   7.595   3.575   3.153 -1.3267  0.1942 -1.9867
 8300SOL     OW27791   5.823   3.400   2.673 -0.0073 -0.4838  0.0601
 8300SOL    HW127792   5.850   3.431   2.586 -0.5371  0.1453  0.1130
 8300SOL    HW227793   5.822   3.304   2.665 -2.0949 -0.4161 -1.2929
 8301SOL     OW27794   4.017   5.541   5.803 -0.0296  0.3860  0.0100
 8301SOL    HW127795   4.055   5.465   5.759  0.7136  0.8673 -0.2035
 8301SOL    HW227796   3.938   5.561   5.754  1.3987  1.6496 -1.8892
 8302SOL     OW27797   9.242   8.363   6.717 -0.8055  0.2206 -0.3525
 8302SOL    HW127798   9.151   8.343   6.741 -0.7281  0.1706 -0.0927
 8302SOL    HW227799   9.294   8.301   6.769 -0.6069  0.4715 -0.2472
 8303SOL     OW27800   0.815   4.212   5.155 -0.0537  0.5238 -0.1360
 8303SOL    HW127801   0.865   4.264   5.218 -0.2017  0.1941  0.2546
 8303SOL    HW227802   0.727   4.209   5.192  0.4548 -2.0343  1.1367
 8304SOL     OW27803   2.298   7.950   8.362 -0.1533 -0.2741  0.3917
 8304SOL    HW127804   2.354   7.876   8.339  0.0621  0.2529 -0.8574
 8304SOL    HW227805   2.287   7.943   8.457  1.5678 -0.6980  0.5864
 8305SOL     OW27806   7.227   2.688   6.607 -0.0484  0.0086 -0.6123
 8305SOL    HW127807   7.319   2.697   6.585 -0.1392 -2.3659 -2.4019
 8305SOL    HW227808   7.227   2.648   6.693  0.5552  0.7026 -0.2778
 8306SOL     OW27809   4.789   6.674   1.589 -0.0538  0.1271  0.3538
 8306SOL    HW127810   4.807   6.752   1.642  0.9039 -0.6375  1.1877
 8306SOL    HW227811   4.707   6.640   1.625  0.6247 -0.4267  1.4201
 8307SOL     OW27812   7.890   6.208   4.676 -0.6201 -0.2569  0.5062
 8307SOL    HW127813   7.871   6.128   4.627 -1.0836  1.3368 -2.0967
 8307SOL    HW227814   7.984   6.222   4.664 -0.5158 -0.4380  1.0621
 8308SOL     OW27815   3.441   6.376   2.432 -0.5689 -0.3848  0.7784
 8308SOL    HW127816   3.384   6.440   2.390 -2.0144 -0.9575  1.8240
 8308SOL    HW227817   3.478   6.423   2.507  0.5759  0.0489 -0.0045
 8309SOL     OW27818   0.409   0.384   8.046  0.1617 -0.3887 -0.1995
 8309SOL    HW127819   0.349   0.451   8.079  1.6619  0.7029  0.4238
 8309SOL    HW227820   0.358   0.336   7.981 -1.1304  1.0025 -0.2647
 8310SOL     OW27821   4.678   8.285   8.992  0.3867  0.0809 -0.2033
 8310SOL    HW127822   4.690   8.375   9.022 -1.1334  0.8353 -1.7007
 8310SOL    HW227823   4.615   8.247   9.052 -0.4652  0.6725 -0.6979
 8311SOL     OW27824   7.795   2.508   8.493  0.1010  0.1397 -0.0193
 8311SOL    HW127825   7.727   2.549   8.547 -0.1563 -1.0266  0.5684
 8311SOL    HW227826   7.760   2.513   8.404 -0.9015 -0.6623  0.3016
 8312SOL     OW27827   3.678   0.420   8.212 -0.2127  0.0003 -0.1939
 8312SOL    HW127828   3.698   0.326   8.218  0.1953  0.0817 -0.2473
 8312SOL    HW227829   3.631   0.429   8.129 -1.2981 -0.3362  0.3720
 8313SOL     OW27830   3.197   8.802   7.988  0.1082 -0.1263 -0.6099
 8313SOL    HW127831   3.213   8.737   8.057 -0.3869  1.2091  0.8255
 8313SOL    HW227832   3.109   8.781   7.955 -0.1184 -0.0981 -0.0394
 8314SOL     OW27833   7.132   7.565   2.829  0.1610 -0.4623 -0.6622
 8314SOL    HW127834   7.129   7.604   2.916 -1.6238 -2.7440  0.3894
 8314SOL    HW227835   7.189   7.489   2.838 -0.6007 -1.1275 -1.2702
 8315SOL     OW27836   7.774   5.588   2.288 -0.4926 -0.1706  0.1005
 8315SOL    HW127837   7.784   5.497   2.262  1.0990 -0.5078  1.6542
 8315SOL    HW227838   7.861   5.626   2.275 -0.5677  0.5332  1.4797
 8316SOL     OW27839   2.339   9.169   0.628 -0.2582  0.1480  0.1280
 8316SOL    HW127840   2.287   9.089   0.638  0.7776 -0.4084  1.4578
 8316SOL    HW227841   2.389   9.155   0.548 -1.0940  0.0673 -0.3879
 8317SOL     OW27842   8.590   8.231   0.603 -0.1483 -0.5446 -0.2973
 8317SOL    HW127843   8.670   8.194   0.567 -0.8599 -1.6809 -0.7466
 8317SOL    HW227844   8.547   8.272   0.528 -0.4812 -0.8386 -0.2702
 8318SOL     OW27845   6.544   5.210   6.971 -0.3532 -0.3625 -0.6170
 8318SOL    HW127846   6.633   5.221   6.938 -0.2117 -0.6457 -0.3402
 8318SOL    HW227847   6.487   5.243   6.901 -0.0100  0.5110 -0.4984
 8319SOL     OW27848   0.321   7.068   0.697 -0.4448  0.0171 -0.3125
 8319SOL    HW127849   0.301   6.976   0.678 -3.3191  0.7027 -1.1064
 8319SOL    HW227850   0.354   7.067   0.787 -3.2222 -1.5366  0.8239
 8320SOL     OW27851   7.962   4.963   2.378 -0.1681 -0.9412  0.2571
 8320SOL    HW127852   8.038   5.011   2.343  0.1006 -1.3690  0.2478
 8320SOL    HW227853   8.000   4.888   2.424 -0.6042 -1.4642 -0.2209
 8321SOL     OW27854   3.334   8.667   3.374 -0.3257 -0.7257  0.6679
 8321SOL    HW127855   3.289   8.738   3.420 -3.0179 -1.3678 -0.7176
 8321SOL    HW227856   3.427   8.684   3.387 -0.9146  1.5676  2.5300
 8322SOL     OW27857   1.081   6.634   1.076 -0.1494 -0.0232 -0.2318
 8322SOL    HW127858   1.083   6.719   1.032 -0.3356 -0.1033 -0.3981
 8322SOL    HW227859   1.004   6.638   1.132  0.1624  0.1281  0.1951
 8323SOL     OW27860   7.332   6.816   1.026  0.4836  0.2519  0.2163
 8323SOL    HW127861   7.308   6.758   0.954 -0.9794  0.3400  0.6048
 8323SOL    HW227862   7.304   6.903   0.997 -1.4319  0.0925  1.4210
 8324SOL     OW27863   8.113   8.604   8.867 -0.0391 -0.5681 -0.0887
 8324SOL    HW127864   8.179   8.643   8.926  0.3023 -1.5522  0.1985
 8324SOL    HW227865   8.161   8.587   8.786 -0.2646 -0.1198 -0.3187
 8325SOL     OW27866   3.060   5.196   2.160 -0.0389  0.1183 -0.1839
 8325SOL    HW127867   3.108   5.268   2.121  1.2776 -1.0204 -0.7490
 8325SOL    HW227868   2.968   5.218   2.146  0.3703  0.6591 -2.2468
 8326SOL     OW27869   1.821   8.676   3.349  0.1888  0.3637  0.5851
 8326SOL    HW127870   1.754   8.608   3.341  0.6306  0.1564 -2.5462
 8326SOL    HW227871   1.891   8.648   3.290  0.8922  2.9467  0.0605
 8327SOL     OW27872   0.578   1.776   2.457 -0.0434 -0.3498 -0.1573
 8327SOL    HW127873   0.658   1.808   2.415  0.2345  0.4424  0.9230
 8327SOL    HW227874   0.512   1.778   2.388 -0.1820  3.0563 -0.1087
 8328SOL     OW27875   5.674   2.819   6.676 -0.0623  0.5236  0.5322
 8328SOL    HW127876   5.595   2.765   6.688  0.4434 -0.1735  0.8355
 8328SOL    HW227877   5.646   2.891   6.619 -1.1989  0.9093  1.5272
 8329SOL     OW27878   3.604   5.482   6.747 -0.0246 -0.2568 -0.2057
 8329SOL    HW127879   3.610   5.564   6.795 -0.0712 -1.4463  1.9520
 8329SOL    HW227880   3.510   5.467   6.737 -0.0165  0.1069 -0.9669
 8330SOL     OW27881   4.391   0.708   0.639 -0.0166  0.2505  0.2625
 8330SOL    HW127882   4.302   0.726   0.609 -0.5231  0.8111  1.9806
 8330SOL    HW227883   4.431   0.795   0.646  1.6667 -0.0839 -3.1363
 8331SOL     OW27884   6.567   3.578   2.658 -0.0950  0.0165  0.1328
 8331SOL    HW127885   6.632   3.562   2.727  1.5941  0.3268 -1.2975
 8331SOL    HW227886   6.572   3.499   2.603 -0.6932  0.1882 -0.1665
 8332SOL     OW27887   8.833   3.468   6.314  0.0051  0.3362  0.2784
 8332SOL    HW127888   8.814   3.499   6.403 -0.7969  3.1748 -0.7928
 8332SOL    HW227889   8.919   3.427   6.321 -0.7966 -1.1637  2.6805
 8333SOL     OW27890   1.045   1.587   8.060  0.2203  0.1196  0.2541
 8333SOL    HW127891   1.014   1.540   8.137  2.1315  0.1187  1.0754
 8333SOL    HW227892   1.075   1.671   8.094  0.1836  0.5044 -0.6486
 8334SOL     OW27893   3.558   3.677   4.707  0.0547  0.0874 -0.4133
 8334SOL    HW127894   3.517   3.760   4.730  0.3862  0.5582 -1.4762
 8334SOL    HW227895   3.651   3.691   4.723  0.1500  0.0302 -0.9072
 8335SOL     OW27896   6.262   7.040   4.608 -0.0197 -0.5258 -0.1683
 8335SOL    HW127897   6.340   6.996   4.574 -1.2847 -2.0833 -1.2263
 8335SOL    HW227898   6.238   7.103   4.541 -0.9417 -1.6721 -0.9644
 8336SOL     OW27899   5.616   8.666   2.185  0.6481 -0.6169  0.0868
 8336SOL    HW127900   5.686   8.628   2.132  0.4365 -0.7112 -0.1270
 8336SOL    HW227901   5.539   8.665   2.128  0.3029 -1.1568  0.5522
 8337SOL     OW27902   2.505   7.348   1.943 -0.2058  0.2862  0.0053
 8337SOL    HW127903   2.517   7.293   1.866  1.7151  1.7687 -0.8400
 8337SOL    HW227904   2.445   7.417   1.915 -0.7040 -0.0268  0.3045
 8338SOL     OW27905   2.242   1.623   7.225 -0.2287 -0.3969  0.2843
 8338SOL    HW127906   2.161   1.607   7.176 -0.4567 -0.2060  0.5914
 8338SOL    HW227907   2.258   1.717   7.214  0.3769 -0.5782 -0.4189
 8339SOL     OW27908   6.919   6.882   4.274 -0.2185 -0.0821  0.4534
 8339SOL    HW127909   7.000   6.831   4.276 -0.7055 -0.9183 -0.2547
 8339SOL    HW227910   6.946   6.970   4.248  0.2643 -0.7932 -1.5835
 8340SOL     OW27911   1.108   2.979   5.278 -0.2598 -0.2654 -0.0141
 8340SOL    HW127912   1.038   3.025   5.232 -1.4803 -1.1289  0.9094
 8340SOL    HW227913   1.180   3.043   5.282 -1.7565  1.4444  0.9202
 8341SOL     OW27914   2.826   4.822   0.262 -0.4645 -0.8821  0.2098
 8341SOL    HW127915   2.878   4.757   0.215 -1.5089 -1.9774  0.5430
 8341SOL    HW227916   2.891   4.886   0.293  0.2940 -0.0691 -2.6982
 8342SOL     OW27917   3.633   1.380   2.949 -0.3737  0.2422 -0.5795
 8342SOL    HW127918   3.631   1.308   2.886  1.4702  1.0068 -1.6121
 8342SOL    HW227919   3.661   1.340   3.031  1.1309 -0.1829 -1.2651
 8343SOL     OW27920   7.022   5.969   5.425  0.0743 -0.7537 -0.2324
 8343SOL    HW127921   6.935   5.957   5.462 -0.0771 -3.0701 -1.1941
 8343SOL    HW227922   7.076   5.998   5.499 -1.5903  1.3471  0.2329
 8344SOL     OW27923   0.931   0.267   0.632  0.0634 -0.1243 -0.0820
 8344SOL    HW127924   1.011   0.319   0.639  1.1972 -2.0048  2.1293
 8344SOL    HW227925   0.959   0.176   0.646 -2.0658 -1.2233 -2.1424
 8345SOL     OW27926   8.469   7.739   4.696  0.6360 -0.0500 -0.1125
 8345SOL    HW127927   8.435   7.654   4.722  0.9129  0.0036  0.4336
 8345SOL    HW227928   8.391   7.788   4.669  0.4512 -0.3980 -0.2176
 8346SOL     OW27929   2.395   5.677   8.134 -0.0173 -0.6932  0.2411
 8346SOL    HW127930   2.344   5.737   8.189  0.2088  0.7238 -1.0162
 8346SOL    HW227931   2.350   5.593   8.142 -1.7128  0.1724  0.2860
 8347SOL     OW27932   2.782   4.453   1.210 -0.3788 -0.4164  0.1219
 8347SOL    HW127933   2.847   4.478   1.276 -0.8721  0.1199  0.4062
 8347SOL    HW227934   2.818   4.373   1.171 -0.3315 -1.0450  1.4081
 8348SOL     OW27935   1.921   5.414   7.638  0.1786 -0.2124 -0.3040
 8348SOL    HW127936   1.995   5.437   7.581 -0.1576  2.5988  0.2802
 8348SOL    HW227937   1.905   5.321   7.620  2.0322 -0.1803 -2.5092
 8349SOL     OW27938   5.549   0.756   2.165  0.2804  0.1437 -0.1914
 8349SOL    HW127939   5.613   0.734   2.097  0.6006  0.0398  0.1439
 8349SOL    HW227940   5.476   0.795   2.117  0.2247 -0.5339 -0.6704
 8350SOL     OW27941   4.090   4.707   3.334 -0.5410  0.0695 -0.8036
 8350SOL    HW127942   4.179   4.737   3.312 -0.7079  0.5891 -0.7867
 8350SOL    HW227943   4.034   4.749   3.268 -0.7759 -0.2576 -0.8141
 8351SOL     OW27944   3.861   2.677   0.149  0.0704  0.3317 -0.1108
 8351SOL    HW127945   3.922   2.714   0.086  1.8681 -0.7930  0.8775
 8351SOL    HW227946   3.873   2.730   0.228 -1.1652  0.8721 -0.2666
 8352SOL     OW27947   6.276   2.087   8.026 -0.5265 -0.2975  0.5210
 8352SOL    HW127948   6.217   2.027   8.073 -1.1443 -1.3002 -1.4065
 8352SOL    HW227949   6.319   2.137   8.095  0.0509 -2.9690  2.2852
 8353SOL     OW27950   3.423   2.502   3.005  0.0263  0.2561 -0.0275
 8353SOL    HW127951   3.335   2.466   2.996  0.2033  0.0788 -1.3023
 8353SOL    HW227952   3.412   2.596   2.993 -0.0564  0.2942  0.3458
 8354SOL     OW27953   5.906   4.487   7.517  0.6336 -0.1639 -0.3682
 8354SOL    HW127954   5.854   4.437   7.454 -0.4203 -0.2118  0.5136
 8354SOL    HW227955   5.942   4.559   7.466 -1.2616  0.5407 -0.7978
 8355SOL     OW27956   1.172   1.474   5.026  0.3285 -0.0654 -0.3058
 8355SOL    HW127957   1.100   1.491   5.086  0.5542 -0.5931  0.1298
 8355SOL    HW227958   1.199   1.384   5.046  0.6387 -0.1224 -0.9563
 8356SOL     OW27959   8.416   3.029   2.502  0.0906  0.0146 -0.2149
 8356SOL    HW127960   8.348   3.009   2.438 -0.1440  0.5838 -0.1507
 8356SOL    HW227961   8.373   3.086   2.566  0.4697 -0.0968  0.1476
 8357SOL     OW27962   1.596   9.135   4.740 -0.4377  0.3304 -0.2537
 8357SOL    HW127963   1.661   9.107   4.804 -2.0455 -1.0295  0.8603
 8357SOL    HW227964   1.639   9.125   4.656  1.2412  0.7812  0.5133
 8358SOL     OW27965   0.980   5.813   3.797  0.5786 -0.2034 -0.2499
 8358SOL    HW127966   0.978   5.894   3.747  2.0451 -0.8900 -1.5036
 8358SOL    HW227967   0.977   5.841   3.888  2.3909  1.3573 -0.6038
 8359SOL     OW27968   4.642   1.399   3.329 -0.4255  0.2284  0.0750
 8359SOL    HW127969   4.568   1.447   3.292 -0.8523 -0.2316  0.3287
 8359SOL    HW227970   4.603   1.336   3.389  0.1460 -0.2556 -0.0492
 8360SOL     OW27971   2.754   2.204   1.506  0.5856 -0.1983  0.4700
 8360SOL    HW127972   2.707   2.142   1.450 -0.6307  1.5740 -0.5678
 8360SOL    HW227973   2.709   2.287   1.493  3.4972  1.4629  0.0027
 8361SOL     OW27974   4.064   1.037   7.616 -0.2804 -0.0429  0.5347
 8361SOL    HW127975   4.008   1.111   7.641 -0.8128 -0.5190  0.7935
 8361SOL    HW227976   4.045   0.970   7.682 -1.1785 -1.0704 -0.7053
 8362SOL     OW27977   1.242   8.636   8.635  0.0528 -0.0415 -0.3684
 8362SOL    HW127978   1.333   8.615   8.618  0.2969 -1.1564  1.8922
 8362SOL    HW227979   1.232   8.623   8.730 -2.8260 -1.5543 -0.7565
 8363SOL     OW27980   3.775   3.237   6.232  0.2056 -0.2697  0.0926
 8363SOL    HW127981   3.719   3.315   6.224 -0.4937 -0.7778 -0.0936
 8363SOL    HW227982   3.785   3.225   6.326 -0.7022 -0.6496  0.1532
 8364SOL     OW27983   3.858   9.161   4.196  0.0785 -0.3627 -0.9065
 8364SOL    HW127984   3.791   9.223   4.167  0.3989 -0.5970 -2.1921
 8364SOL    HW227985   3.827   9.076   4.165  0.1561 -0.7174 -0.0457
 8365SOL     OW27986   0.668   1.290   2.601  0.1629  0.2466 -0.0641
 8365SOL    HW127987   0.698   1.371   2.559 -1.6182  0.5309 -0.9025
 8365SOL    HW227988   0.572   1.294   2.595  0.0054 -1.5987  0.5105
 8366SOL     OW27989   6.586   3.546   7.409  0.0144 -0.4565 -0.0333
 8366SOL    HW127990   6.645   3.498   7.351 -0.6739  0.0235 -1.1630
 8366SOL    HW227991   6.554   3.480   7.471  2.0965 -0.6287  0.9545
 8367SOL     OW27992   7.341   8.190   7.237  0.1599  0.3469  0.0322
 8367SOL    HW127993   7.388   8.141   7.170  1.1100  1.6805 -0.3264
 8367SOL    HW227994   7.278   8.243   7.189 -1.9163 -1.5340  0.5193
 8368SOL     OW27995   7.992   3.298   7.856  0.0795  0.2486  0.5686
 8368SOL    HW127996   8.006   3.299   7.951 -0.1629  0.1582  0.6054
 8368SOL    HW227997   8.048   3.226   7.825  0.8622  0.8589  0.5274
 8369SOL     OW27998   4.128   4.888   5.613  0.7742  0.4184 -0.4284
 8369SOL    HW127999   4.223   4.900   5.610  1.2313 -2.1120  1.0618
 8369SOL    HW228000   4.105   4.898   5.705 -0.1862 -0.3558 -0.5672
 8370SOL     OW28001   8.002   7.468   7.079  0.5540  0.3471 -0.6472
 8370SOL    HW128002   7.988   7.507   7.165 -0.4299 -0.3001 -0.4922
 8370SOL    HW228003   8.089   7.430   7.083  0.0947 -0.6330  0.4570
 8371SOL     OW28004   6.971   8.317   2.065 -0.1004  0.0960 -0.0566
 8371SOL    HW128005   6.934   8.359   1.987 -1.3857  0.5480  0.7708
 8371SOL    HW228006   6.998   8.389   2.121 -1.1102 -0.1737  0.8073
 8372SOL     OW28007   5.120   6.887   8.935 -0.5491 -0.6112  0.2500
 8372SOL    HW128008   5.112   6.982   8.930  1.1607 -0.3663  1.3889
 8372SOL    HW228009   5.144   6.860   8.846 -1.6756 -0.0814 -0.2365
 8373SOL     OW28010   6.237   6.943   9.234  0.5745  0.5804  0.2567
 8373SOL    HW128011   6.144   6.925   9.223  0.6086  0.5658 -0.0033
 8373SOL    HW228012   6.239   7.021   9.290  0.4165  0.2892  0.6776
 8374SOL     OW28013   3.949   5.924   3.857 -0.6301  0.8445 -0.3234
 8374SOL    HW128014   3.985   5.878   3.934  0.7211  0.9776 -0.8439
 8374SOL    HW228015   4.025   5.964   3.815 -1.1424 -0.1708 -2.3755
 8375SOL     OW28016   2.804   0.506   0.371  0.4562  0.3419  0.6041
 8375SOL    HW128017   2.882   0.485   0.320  0.5494  0.1974  0.8047
 8375SOL    HW228018   2.803   0.441   0.441 -2.2232 -2.5840 -1.8276
 8376SOL     OW28019   6.997   0.071   8.054  0.5196  0.4240  0.1035
 8376SOL    HW128020   7.074   0.082   8.110  0.1465 -0.1183  0.7425
 8376SOL    HW228021   6.977   0.158   8.021  1.7217  0.4912 -0.4927
 8377SOL     OW28022   8.668   3.992   2.169 -0.1243 -0.2729 -0.4963
 8377SOL    HW128023   8.661   4.032   2.256  2.6381 -1.7476  0.5361
 8377SOL    HW228024   8.645   4.062   2.108  0.7400  1.7148  1.3485
 8378SOL     OW28025   3.294   4.765   1.684 -0.1390 -0.1260 -0.6699
 8378SOL    HW128026   3.286   4.770   1.780  1.9676  1.1537 -0.4855
 8378SOL    HW228027   3.346   4.686   1.669 -2.6324 -1.8199 -1.0228
 8379SOL     OW28028   7.975   7.361   1.861  0.0336 -0.2219 -0.0234
 8379SOL    HW128029   8.031   7.289   1.832 -1.2231 -1.3047  0.1081
 8379SOL    HW228030   8.032   7.438   1.860  1.6061 -1.3317  0.4970
 8380SOL     OW28031   6.855   6.458   5.577  0.1609  0.7304 -0.2546
 8380SOL    HW128032   6.786   6.481   5.514 -0.1994 -0.6945 -0.4084
 8380SOL    HW228033   6.850   6.363   5.584  1.6276  0.6780  0.3111
 8381SOL     OW28034   7.808   1.877   8.037 -0.4941  0.1153  0.0844
 8381SOL    HW128035   7.775   1.794   8.070  0.6886 -0.7033 -0.7159
 8381SOL    HW228036   7.871   1.906   8.103  0.8154 -0.8115 -0.7182
 8382SOL     OW28037   4.959   5.575   3.165  0.3127 -0.6319 -0.2174
 8382SOL    HW128038   4.889   5.583   3.230  2.1239  1.1112  1.6554
 8382SOL    HW228039   4.935   5.497   3.114 -2.8915 -0.1683  0.3706
 8383SOL     OW28040   3.934   3.553   5.848 -0.5472  0.5310 -0.5688
 8383SOL    HW128041   3.884   3.524   5.772 -1.9398  0.7234  0.2489
 8383SOL    HW228042   4.023   3.520   5.832 -1.3770 -1.6266 -1.0746
 8384SOL     OW28043   8.739   8.615   8.133  0.3939  0.6332 -0.1472
 8384SOL    HW128044   8.774   8.644   8.048  1.2246 -0.4471 -0.1989
 8384SOL    HW228045   8.651   8.653   8.137  0.4605  0.9636 -1.3552
 8385SOL     OW28046   2.252   1.817   6.854  0.4029 -0.0505 -0.2083
 8385SOL    HW128047   2.190   1.769   6.909  0.4883 -1.0309 -0.9408
 8385SOL    HW228048   2.336   1.808   6.898 -0.0898  2.1671  1.3533
 8386SOL     OW28049   8.859   1.574   2.988  0.4172 -0.0032  0.8037
 8386SOL    HW128050   8.826   1.601   3.073 -0.2086 -2.1261  1.3157
 8386SOL    HW228051   8.785   1.585   2.929  0.1036 -0.7339  1.0496
 8387SOL     OW28052   3.584   5.747   0.276  0.3083  0.6942 -0.2041
 8387SOL    HW128053   3.499   5.790   0.272 -0.3809 -0.6620 -1.2914
 8387SOL    HW228054   3.633   5.796   0.342 -0.8419  2.3145 -0.4871
 8388SOL     OW28055   6.262   4.767   2.421 -0.1319 -0.0622 -0.1648
 8388SOL    HW128056   6.200   4.806   2.359 -0.5410  1.0152  0.8833
 8388SOL    HW228057   6.346   4.807   2.398 -0.0963 -0.3738 -0.6051
 8389SOL     OW28058   2.684   2.544   6.796  1.0723  0.0685  0.2618
 8389SOL    HW128059   2.635   2.481   6.742  2.6893 -2.2617  1.3199
 8389SOL    HW228060   2.776   2.525   6.776  1.6306  1.2120  1.6152
 8390SOL     OW28061   8.064   7.070   0.980 -0.6407 -0.4989 -0.3335
 8390SOL    HW128062   8.106   7.029   1.056  0.9063  0.6828 -0.4813
 8390SOL    HW228063   8.055   7.162   1.005 -0.1236 -0.0979 -1.5621
 8391SOL     OW28064   2.752   1.873   0.085 -0.2818 -0.1877  0.1024
 8391SOL    HW128065   2.836   1.860   0.040 -0.5270 -1.4941  0.0027
 8391SOL    HW228066   2.776   1.914   0.168  0.4281 -0.3247 -0.0260
 8392SOL     OW28067   1.435   4.773   8.200 -0.0836 -0.4112  0.1766
 8392SOL    HW128068   1.469   4.862   8.197  2.1843 -1.1136  2.2453
 8392SOL    HW228069   1.494   4.723   8.143  0.7341 -1.1513  1.6350
 8393SOL     OW28070   4.569   4.311   6.446 -0.1873  0.0712 -0.4350
 8393SOL    HW128071   4.512   4.375   6.403 -0.6041  0.5964  0.8345
 8393SOL    HW228072   4.517   4.232   6.452 -1.7111  1.1461  2.6318
 8394SOL     OW28073   5.213   0.513   1.392 -0.0457 -0.3796 -0.1821
 8394SOL    HW128074   5.294   0.528   1.343  0.2286 -0.1262  0.3362
 8394SOL    HW228075   5.145   0.555   1.339  0.5114  1.5904  0.5585
 8395SOL     OW28076   8.494   7.442   3.063 -0.3009 -0.3781  0.0634
 8395SOL    HW128077   8.474   7.364   3.012 -0.9523 -0.0819 -0.1565
 8395SOL    HW228078   8.417   7.455   3.119 -0.8472  0.9123 -0.9381
 8396SOL     OW28079   2.233   5.872   0.437 -0.2892 -0.3390 -0.1140
 8396SOL    HW128080   2.155   5.832   0.474 -0.4364  1.3062  1.4924
 8396SOL    HW228081   2.280   5.907   0.513  0.7551  0.8512 -1.2579
 8397SOL     OW28082   2.568   0.785   8.718  0.0388  0.2104  0.0450
 8397SOL    HW128083   2.496   0.784   8.655  2.0099  2.7813 -2.5276
 8397SOL    HW228084   2.589   0.693   8.733 -0.9767 -0.5415 -2.6053
 8398SOL     OW28085   2.621   2.789   7.943  0.1742 -0.1113  0.1781
 8398SOL    HW128086   2.659   2.849   7.878  0.4845  1.2786  1.5850
 8398SOL    HW228087   2.696   2.760   7.995 -0.2299 -0.2724  0.6682
 8399SOL     OW28088   4.127   7.340   1.261  0.1279 -0.2727 -0.4917
 8399SOL    HW128089   4.189   7.402   1.300 -0.6260 -0.1172  0.4913
 8399SOL    HW228090   4.063   7.395   1.215  0.9672 -0.4516 -1.9348
 8400SOL     OW28091   7.623   3.132   8.563 -0.1052 -0.3087 -0.4826
 8400SOL    HW128092   7.614   3.056   8.621 -0.3106  0.1353  0.0714
 8400SOL    HW228093   7.594   3.206   8.616  3.1490  0.6789  0.1810
 8401SOL     OW28094   3.933   5.907   0.604 -0.1793 -0.1795 -0.5842
 8401SOL    HW128095   3.989   5.907   0.681 -1.5794  0.0528  0.4738
 8401SOL    HW228096   3.950   5.991   0.562 -0.6950  0.4817  0.4764
 8402SOL     OW28097   6.692   8.105   1.926 -0.5016  0.3052 -0.3338
 8402SOL    HW128098   6.741   8.029   1.895 -1.1931  0.1866 -1.1556
 8402SOL    HW228099   6.753   8.151   1.984  0.7248  0.3779 -1.6371
 8403SOL     OW28100   8.042   5.014   1.101 -0.2025 -0.2502 -0.7491
 8403SOL    HW128101   7.966   5.047   1.054  0.2900 -1.0565 -2.1731
 8403SOL    HW228102   8.041   5.060   1.185 -1.6618  0.5056 -1.1624
 8404SOL     OW28103   4.415   6.944   4.139 -0.3138 -0.5594  0.1486
 8404SOL    HW128104   4.475   6.910   4.072  0.3488  0.2532  0.3183
 8404SOL    HW228105   4.375   7.021   4.099  1.7523  1.2979  1.4019
 8405SOL     OW28106   1.407   2.380   1.165 -0.2206 -0.0281 -0.3524
 8405SOL    HW128107   1.365   2.295   1.154 -1.2915  0.3948  0.2297
 8405SOL    HW228108   1.336   2.438   1.194  1.2901 -0.0116  4.0443
 8406SOL     OW28109   4.076   5.657   3.821  0.8370 -0.2794 -0.0682
 8406SOL    HW128110   3.990   5.691   3.795  0.8842  0.3297  0.5315
 8406SOL    HW228111   4.100   5.595   3.752  0.1822 -0.0120 -0.5440
 8407SOL     OW28112   9.242   5.000   0.365 -1.0527 -0.1278  0.1933
 8407SOL    HW128113   9.213   5.027   0.452 -2.5078  1.3886 -0.7005
 8407SOL    HW228114   9.337   5.014   0.367 -1.1624  0.6289  1.2984
 8408SOL     OW28115   6.487   3.960   5.582 -0.4326 -0.2681  0.0326
 8408SOL    HW128116   6.401   4.002   5.587 -0.6400 -0.2500 -2.5421
 8408SOL    HW228117   6.539   4.018   5.528 -0.0410 -2.1662 -1.7543
 8409SOL     OW28118   2.350   4.126   8.363 -0.5608  0.2149  0.3749
 8409SOL    HW128119   2.428   4.172   8.331 -0.5952  0.2775  0.3804
 8409SOL    HW228120   2.298   4.194   8.406  0.5972 -0.2692  2.6667
 8410SOL     OW28121   8.851   5.857   5.570  0.5919  0.1895 -0.2185
 8410SOL    HW128122   8.929   5.839   5.517  1.8716 -0.2725  1.7507
 8410SOL    HW228123   8.859   5.800   5.646 -2.3379 -0.7996 -0.5410
 8411SOL     OW28124   4.646   0.355   0.826 -0.0097  0.3646 -0.3123
 8411SOL    HW128125   4.581   0.297   0.787  0.0526  0.2449 -0.2392
 8411SOL    HW228126   4.613   0.373   0.914 -0.9532  1.9108 -0.9620
 8412SOL     OW28127   0.017   1.445   8.760  0.0575  0.2584  0.0102
 8412SOL    HW128128  -0.070   1.439   8.720 -0.7010  2.0855  1.2275
 8412SOL    HW228129   0.078   1.435   8.687 -1.1115 -1.9512 -0.7383
 8413SOL     OW28130   6.277   8.775   6.327 -0.7662 -0.0096  0.2321
 8413SOL    HW128131   6.292   8.845   6.390  0.4417  0.3664 -0.4402
 8413SOL    HW228132   6.320   8.699   6.366 -2.1593 -0.4210  1.0064
 8414SOL     OW28133   7.009   2.076   2.360  0.6655  0.4165 -0.2229
 8414SOL    HW128134   7.024   2.057   2.453 -1.7247  0.4307  0.2164
 8414SOL    HW228135   6.914   2.082   2.351  0.7837 -0.4338 -2.8642
 8415SOL     OW28136   2.643   3.628   0.799 -0.0707  0.4701  0.2574
 8415SOL    HW128137   2.697   3.632   0.720  1.3621  0.8247  1.2135
 8415SOL    HW228138   2.599   3.543   0.794  1.8935 -0.5953  0.2447
 8416SOL     OW28139   3.319   7.277   5.569  0.0840 -0.3780 -0.5056
 8416SOL    HW128140   3.305   7.198   5.621 -1.1333 -1.3714 -2.2264
 8416SOL    HW228141   3.231   7.315   5.558  0.4548  0.3901 -0.9270
 8417SOL     OW28142   1.128   7.905   4.787  0.0959  0.3870 -0.1162
 8417SOL    HW128143   1.129   7.816   4.752 -2.4769 -0.9321  2.6905
 8417SOL    HW228144   1.106   7.960   4.712 -3.4090 -2.0124 -1.1172
 8418SOL     OW28145   2.531   2.641   4.803  0.3899 -0.0363 -0.0803
 8418SOL    HW128146   2.550   2.669   4.713  0.8198  0.5840  0.1972
 8418SOL    HW228147   2.448   2.594   4.796 -0.2759  1.1574 -0.5994
 8419SOL     OW28148   9.185   8.952   2.185  0.1207  0.3441  0.0729
 8419SOL    HW128149   9.265   8.943   2.237  0.8249 -0.2839 -1.0721
 8419SOL    HW228150   9.147   9.036   2.212  1.5336  0.9839  0.1342
 8420SOL     OW28151   5.781   5.755   2.601 -0.1528  0.1532 -0.1165
 8420SOL    HW128152   5.849   5.784   2.662  0.2596 -0.4344 -0.2844
 8420SOL    HW228153   5.827   5.696   2.541 -0.7579 -0.0390 -0.3947
 8421SOL     OW28154   7.710   0.102   0.677  0.2195 -0.0288  0.0634
 8421SOL    HW128155   7.640   0.113   0.612  1.1437 -0.4811 -1.0448
 8421SOL    HW228156   7.666   0.108   0.761 -1.2388 -0.8525 -0.6082
 8422SOL     OW28157   4.055   4.463   7.899 -0.5647  0.0783  0.2992
 8422SOL    HW128158   4.046   4.550   7.860 -0.2295  1.0704  2.3065
 8422SOL    HW228159   3.970   4.422   7.886 -1.4294  1.5262  1.1814
 8423SOL     OW28160   5.612   1.436   6.422  0.1638  0.4625 -0.3553
 8423SOL    HW128161   5.587   1.486   6.499 -0.5318  1.0212 -0.9379
 8423SOL    HW228162   5.580   1.347   6.440  0.5525  0.4431  0.2608
 8424SOL     OW28163   4.552   4.681   6.970  0.1571 -0.2761 -0.0030
 8424SOL    HW128164   4.597   4.760   6.997 -0.0423  0.1408 -0.8587
 8424SOL    HW228165   4.571   4.673   6.877 -3.3438  1.1925 -1.0029
 8425SOL     OW28166   1.846   6.211   4.220 -0.1919  0.2473 -0.3573
 8425SOL    HW128167   1.873   6.128   4.180  3.1552  1.6035 -1.3206
 8425SOL    HW228168   1.862   6.276   4.152 -1.4775  1.8552  0.8106
 8426SOL     OW28169   0.156   1.176   5.633  0.0451 -0.5554 -0.0672
 8426SOL    HW128170   0.071   1.161   5.592  0.1227  1.0064 -0.9236
 8426SOL    HW228171   0.137   1.189   5.725 -0.3757 -2.2626  0.1096
 8427SOL     OW28172   6.706   6.551   4.087 -0.5931 -0.3937 -0.2937
 8427SOL    HW128173   6.651   6.622   4.120 -1.6520 -1.5030  0.4013
 8427SOL    HW228174   6.664   6.471   4.119  2.4375 -1.2833  1.9387
 8428SOL     OW28175   1.465   5.370   5.832 -0.5128 -0.1822 -0.5125
 8428SOL    HW128176   1.474   5.294   5.890 -0.5805  1.2735  1.5093
 8428SOL    HW228177   1.418   5.336   5.756 -1.5964 -1.9272  0.8401
 8429SOL     OW28178   8.627   7.116   1.600  0.3982 -0.1468  0.3243
 8429SOL    HW128179   8.554   7.122   1.538  0.5755  1.1698  0.2201
 8429SOL    HW228180   8.588   7.135   1.685  0.3115 -1.1634  0.5328
 8430SOL     OW28181   3.485   6.666   9.205  0.0758  0.1820  0.2973
 8430SOL    HW128182   3.539   6.591   9.232 -0.1518  0.3458  1.2157
 8430SOL    HW228183   3.415   6.626   9.152  1.2868  0.0057 -1.2661
 8431SOL     OW28184   2.670   5.312   8.206  0.3697  0.3748  0.2533
 8431SOL    HW128185   2.692   5.224   8.235 -1.9382 -0.4649 -0.3158
 8431SOL    HW228186   2.616   5.348   8.277 -2.4196 -0.4125 -1.3117
 8432SOL     OW28187   1.315   3.313   5.891 -0.1572 -0.3600  0.0591
 8432SOL    HW128188   1.227   3.343   5.913 -0.1031  0.2993 -0.5996
 8432SOL    HW228189   1.348   3.274   5.972 -1.4942 -1.7162 -0.0131
 8433SOL     OW28190   7.970   2.220   3.893  0.9886  0.1854  0.0686
 8433SOL    HW128191   7.958   2.170   3.812  2.1434 -1.2647  0.7601
 8433SOL    HW228192   7.899   2.285   3.892  2.1803  1.6671 -3.1710
 8434SOL     OW28193   2.516   7.364   7.787 -0.6024  0.0340 -0.2019
 8434SOL    HW128194   2.425   7.337   7.774 -0.4879 -0.1220 -0.7236
 8434SOL    HW228195   2.513   7.426   7.860 -0.8567 -1.5372  1.2065
 8435SOL     OW28196   2.713   6.093   2.406  0.2429 -0.1033 -0.2746
 8435SOL    HW128197   2.682   6.182   2.391 -0.5722 -0.3530 -0.1123
 8435SOL    HW228198   2.746   6.093   2.496 -0.0406 -0.0439 -0.1705
 8436SOL     OW28199   2.983   6.087   1.763  0.2851  0.3792  0.3342
 8436SOL    HW128200   2.984   5.994   1.741  1.0559 -0.0816  2.1716
 8436SOL    HW228201   2.993   6.131   1.678 -0.1492 -1.1860 -0.5732
 8437SOL     OW28202   3.639   8.037   4.695  0.5410 -0.1991 -0.4371
 8437SOL    HW128203   3.593   7.999   4.770  1.6939 -2.7807 -0.9232
 8437SOL    HW228204   3.668   8.123   4.726 -2.5371  0.5773  0.6264
 8438SOL     OW28205   9.040   1.822   2.929  0.2474  0.1311  0.3026
 8438SOL    HW128206   9.027   1.727   2.925  1.8442 -0.0890 -0.2517
 8438SOL    HW228207   9.033   1.843   3.022 -0.9471 -0.3866  0.3471
 8439SOL     OW28208   7.497   1.012   6.636 -0.6486  0.6530  0.3980
 8439SOL    HW128209   7.592   1.017   6.627 -0.6957  2.2470  0.4966
 8439SOL    HW228210   7.475   0.924   6.607  0.8565  0.2589  0.3692
 8440SOL     OW28211   5.818   8.898   5.866  0.6867 -0.5625 -0.1061
 8440SOL    HW128212   5.756   8.970   5.878  0.2024 -0.8685 -0.7004
 8440SOL    HW228213   5.903   8.940   5.856  0.6180 -0.1461  0.9744
 8441SOL     OW28214   5.807   4.410   0.238  0.5458 -0.4446  0.3521
 8441SOL    HW128215   5.712   4.404   0.226  0.5565 -1.0920  0.5784
 8441SOL    HW228216   5.818   4.471   0.311  0.3588  0.6473 -0.5007
 8442SOL     OW28217   7.569   8.122   8.304  0.0826 -0.1803 -0.0550
 8442SOL    HW128218   7.533   8.162   8.383  0.5590 -1.1122  0.6410
 8442SOL    HW228219   7.495   8.076   8.264  0.5123 -2.5470  1.6534
 8443SOL     OW28220   7.826   5.587   4.660 -0.4249 -0.2833 -0.1576
 8443SOL    HW128221   7.738   5.601   4.695  0.9204 -0.0993  3.5568
 8443SOL    HW228222   7.846   5.496   4.680  0.8943  0.1966  0.8547
 8444SOL     OW28223   9.051   4.221   5.645 -0.4089  0.0667  0.0544
 8444SOL    HW128224   9.064   4.151   5.581  2.3389 -0.2143  0.7868
 8444SOL    HW228225   9.016   4.294   5.593  0.5740 -0.5338 -1.5393
 8445SOL     OW28226   7.366   3.323   7.082 -0.3819 -0.1616 -0.2743
 8445SOL    HW128227   7.344   3.258   7.149 -0.3903 -0.8672 -0.9433
 8445SOL    HW228228   7.354   3.407   7.125 -1.9493 -0.5708  0.1375
 8446SOL     OW28229   2.324   1.798   8.755  0.0565  0.3242  0.2212
 8446SOL    HW128230   2.276   1.717   8.737  0.4315  0.1220  0.1256
 8446SOL    HW228231   2.266   1.848   8.812 -0.5212  0.3331 -0.3599
 8447SOL     OW28232   8.413   6.364   3.813 -0.1250  0.4747  0.1716
 8447SOL    HW128233   8.407   6.291   3.875 -0.4330  1.2742  1.1036
 8447SOL    HW228234   8.484   6.339   3.754 -0.0713 -0.4711  0.6181
 8448SOL     OW28235   2.055   1.245   8.988 -0.3209 -0.5681  0.3923
 8448SOL    HW128236   2.151   1.252   8.995 -0.2156 -1.3735 -0.0608
 8448SOL    HW228237   2.036   1.266   8.897 -0.7698  1.2525  0.8636
 8449SOL     OW28238   4.025   3.076   1.432  0.1804  0.2274  0.2155
 8449SOL    HW128239   4.049   3.140   1.498  1.6732  0.5832 -0.6237
 8449SOL    HW228240   4.033   3.123   1.349 -3.5843  0.3865 -0.1912
 8450SOL     OW28241   5.050   6.461   6.459  0.0335  0.0063  0.2819
 8450SOL    HW128242   5.020   6.441   6.370 -0.3482  3.1512 -0.4031
 8450SOL    HW228243   5.140   6.429   6.462  0.4592  0.9167 -1.6711
 8451SOL     OW28244   4.113   4.037   5.760  0.9865 -0.0579  0.4616
 8451SOL    HW128245   4.180   4.031   5.692 -0.3915 -1.1272 -0.8800
 8451SOL    HW228246   4.133   3.966   5.820 -0.7736 -2.6651 -1.7673
 8452SOL     OW28247   3.769   2.519   0.803  0.0458 -0.5563 -0.1624
 8452SOL    HW128248   3.758   2.612   0.783  1.4482 -0.1091  0.9206
 8452SOL    HW228249   3.853   2.496   0.763 -0.8136 -1.6844 -1.3913
 8453SOL     OW28250   8.276   2.974   9.107  0.4039 -0.2786 -0.0111
 8453SOL    HW128251   8.310   3.038   9.044  1.2248 -0.7574 -0.0712
 8453SOL    HW228252   8.349   2.914   9.121 -0.2916 -1.0881  0.1932
 8454SOL     OW28253   2.453   8.219   8.529 -0.0112  0.1669 -0.0261
 8454SOL    HW128254   2.488   8.145   8.480  1.5416 -1.3980  3.1837
 8454SOL    HW228255   2.369   8.188   8.562  0.0848  0.2675  0.3168
 8455SOL     OW28256   7.620   1.778   9.031 -0.4344 -0.5605  1.1264
 8455SOL    HW128257   7.601   1.869   9.007 -0.9557 -1.0486 -0.4483
 8455SOL    HW228258   7.547   1.752   9.087 -0.7003 -0.2452  0.9283
 8456SOL     OW28259   6.642   5.452   2.403 -0.0965 -0.0485  0.1184
 8456SOL    HW128260   6.729   5.487   2.420  0.2909  1.3367 -3.7785
 8456SOL    HW228261   6.655   5.387   2.335 -1.9470 -1.1869  0.7868
 8457SOL     OW28262   3.189   2.261   4.254  0.4598 -0.2187 -0.0243
 8457SOL    HW128263   3.210   2.190   4.193  1.0946 -0.7084  0.7325
 8457SOL    HW228264   3.110   2.231   4.299  1.8208 -1.4323  1.7100
 8458SOL     OW28265   1.265   7.708   6.315  0.1108  0.3914 -0.5128
 8458SOL    HW128266   1.314   7.670   6.242 -2.2495 -0.0548 -1.9937
 8458SOL    HW228267   1.191   7.752   6.273 -1.6881 -0.4295  1.6226
 8459SOL     OW28268   4.204   2.375   2.838  0.6775 -0.4732  0.5008
 8459SOL    HW128269   4.246   2.388   2.923  2.2240 -2.0448  0.0219
 8459SOL    HW228270   4.209   2.281   2.822 -3.3996 -0.8968  0.5239
 8460SOL     OW28271   3.950   6.748   2.843  0.0069  0.2796  0.1582
 8460SOL    HW128272   4.034   6.767   2.885  0.5240  0.1589 -0.7772
 8460SOL    HW228273   3.900   6.829   2.849  0.5132  0.6052  0.0058
 8461SOL     OW28274   6.901   0.000   2.659 -0.0761  0.2010 -0.5404
 8461SOL    HW128275   6.942   0.003   2.746 -1.4486 -0.3603  0.1475
 8461SOL    HW228276   6.957  -0.059   2.608  1.8688  2.0387 -0.6937
 8462SOL     OW28277   1.746   3.762   2.647 -0.0586  0.0980  0.7078
 8462SOL    HW128278   1.752   3.821   2.571  0.7380 -0.3414  0.4211
 8462SOL    HW228279   1.654   3.769   2.675 -0.4097  0.1381 -0.4023
 8463SOL     OW28280   6.197   6.795   2.599  0.3816 -0.4634  0.2857
 8463SOL    HW128281   6.213   6.857   2.670 -0.8350  0.5693 -0.2963
 8463SOL    HW228282   6.123   6.743   2.629 -0.2342  0.0760 -0.2573
 8464SOL     OW28283   0.083   2.111   2.235 -0.2487  0.1018  0.0495
 8464SOL    HW128284   0.031   2.060   2.173 -0.1269 -0.1678  0.1627
 8464SOL    HW228285   0.068   2.068   2.319 -0.8957  0.8375  0.3143
 8465SOL     OW28286   5.498   2.796   3.356 -0.1297 -0.0859 -0.2748
 8465SOL    HW128287   5.402   2.797   3.357 -0.1731  0.7081 -1.5868
 8465SOL    HW228288   5.522   2.706   3.375 -1.1841 -0.5665 -1.1287
 8466SOL     OW28289   5.829   3.123   7.477  0.1729  0.2752  0.5797
 8466SOL    HW128290   5.856   3.183   7.407  0.7865 -0.2104  0.3851
 8466SOL    HW228291   5.911   3.101   7.522 -0.1149 -0.0316  0.9550
 8467SOL     OW28292   8.698   2.936   2.490  0.0765  0.6358  0.2474
 8467SOL    HW128293   8.619   2.984   2.515 -0.1709  0.2254  0.2622
 8467SOL    HW228294   8.714   2.962   2.399 -0.0929  0.6908  0.2335
 8468SOL     OW28295   3.247   7.521   7.969 -0.0009  0.3513 -0.4955
 8468SOL    HW128296   3.237   7.614   7.985 -0.8226  0.1453  0.2968
 8468SOL    HW228297   3.289   7.515   7.883  1.1933  1.4483 -0.0001
 8469SOL     OW28298   7.197   7.340   0.607  0.5848 -0.2891 -0.0617
 8469SOL    HW128299   7.276   7.366   0.560  0.4256 -0.0967 -0.2269
 8469SOL    HW228300   7.137   7.415   0.597  0.8536  0.1223  1.1608
 8470SOL     OW28301   4.899   6.951   6.001 -0.0355 -0.0432 -0.2555
 8470SOL    HW128302   4.912   6.916   6.089 -0.5360 -0.1610 -0.2276
 8470SOL    HW228303   4.877   6.875   5.948  0.8585 -0.0670 -0.6174
 8471SOL     OW28304   6.871   8.207   3.283  0.0676  0.0825  0.1354
 8471SOL    HW128305   6.956   8.172   3.308 -0.3962 -0.8609  0.4243
 8471SOL    HW228306   6.883   8.302   3.283  1.5147 -0.0616 -1.2312
 8472SOL     OW28307   7.344   6.717   1.290  0.4667 -0.0668 -0.2195
 8472SOL    HW128308   7.381   6.633   1.263  0.6182  0.0408 -0.3529
 8472SOL    HW228309   7.353   6.772   1.212  0.7361  0.1932 -0.0083
 8473SOL     OW28310   6.172   4.654   5.556  0.2271 -0.0511 -0.3099
 8473SOL    HW128311   6.218   4.613   5.629 -0.4519  2.0206  1.3757
 8473SOL    HW228312   6.084   4.616   5.558 -0.3954  1.3603  1.2307
 8474SOL     OW28313   0.399   6.179   4.934 -0.2090  0.2902  0.0803
 8474SOL    HW128314   0.442   6.159   5.017 -1.8797 -0.0655  0.9059
 8474SOL    HW228315   0.306   6.169   4.953 -0.6949  1.4886 -1.5051
 8475SOL     OW28316   1.299   3.620   2.179  0.4967  0.3420 -0.0291
 8475SOL    HW128317   1.339   3.647   2.096 -0.3995  2.4072  0.1523
 8475SOL    HW228318   1.205   3.619   2.162  0.2151  1.8515  1.1968
 8476SOL     OW28319   0.720   3.955   1.821  0.3127 -0.0260  0.5567
 8476SOL    HW128320   0.657   3.984   1.886  0.6008 -0.7554  1.1707
 8476SOL    HW228321   0.668   3.910   1.755  0.1836 -0.6272  1.0619
 8477SOL     OW28322   0.177   2.855   6.306 -0.2491 -0.1163 -0.4086
 8477SOL    HW128323   0.098   2.803   6.320 -0.0609 -0.6371 -1.1892
 8477SOL    HW228324   0.247   2.791   6.298  0.3169  0.3518  0.5680
 8478SOL     OW28325   4.302   8.963   8.936 -0.3061  0.1205  0.0621
 8478SOL    HW128326   4.217   8.946   8.975  0.6769 -2.3121  1.3710
 8478SOL    HW228327   4.327   9.050   8.968 -1.6697  0.2467  0.8265
 8479SOL     OW28328   4.620   5.975   3.978 -0.0973  0.4533 -0.6194
 8479SOL    HW128329   4.616   5.891   3.933 -0.5994  0.0358  0.1771
 8479SOL    HW228330   4.679   6.028   3.925  1.7195 -1.0129 -0.1881
 8480SOL     OW28331   2.704   4.808   7.772 -0.3415  0.6888 -0.1650
 8480SOL    HW128332   2.761   4.867   7.723  0.4653  0.1000  0.0522
 8480SOL    HW228333   2.622   4.806   7.722 -0.9267  3.1065  0.5828
 8481SOL     OW28334   1.501   0.868   8.441  0.0958  0.2269 -0.1893
 8481SOL    HW128335   1.495   0.788   8.494  0.5707  0.4705  0.2457
 8481SOL    HW228336   1.536   0.838   8.357  2.0457  0.2072  0.5790
 8482SOL     OW28337   4.541   6.572   7.693  0.4303 -0.3493  0.2907
 8482SOL    HW128338   4.460   6.539   7.653  0.8867 -0.7606 -0.3118
 8482SOL    HW228339   4.522   6.664   7.711  0.3568 -0.0118 -1.3232
 8483SOL     OW28340   9.141   2.039   8.992  0.1539  0.9150  0.4667
 8483SOL    HW128341   9.158   1.975   8.922 -2.1544 -0.4112  1.0023
 8483SOL    HW228342   9.122   2.120   8.945 -0.0271  0.3886 -0.4122
 8484SOL     OW28343   7.993   8.362   5.881 -0.3957 -0.4137 -0.2703
 8484SOL    HW128344   8.077   8.323   5.905 -0.6880 -1.9647 -1.5501
 8484SOL    HW228345   7.949   8.379   5.964  0.4911 -1.2230  0.3793
 8485SOL     OW28346   0.450   2.558   0.726  0.1483 -0.1114  0.0660
 8485SOL    HW128347   0.526   2.509   0.694 -0.2773 -0.5682 -0.2580
 8485SOL    HW228348   0.405   2.496   0.783 -1.8195 -1.0635 -2.3415
 8486SOL     OW28349   6.619   4.866   8.968  0.7992 -0.0938  0.0234
 8486SOL    HW128350   6.639   4.950   8.926 -0.5726 -0.3592 -1.2080
 8486SOL    HW228351   6.616   4.803   8.896 -0.7430 -0.7156  0.6008
 8487SOL     OW28352   4.316   6.942   3.614 -0.3013  0.1372 -0.3033
 8487SOL    HW128353   4.299   6.996   3.536 -2.7159  0.8776  0.6408
 8487SOL    HW228354   4.299   7.001   3.688 -0.3228 -1.1767  0.7749
 8488SOL     OW28355   1.545   2.644   4.454 -0.3669  0.4114  0.1282
 8488SOL    HW128356   1.462   2.690   4.450 -0.1955  0.7286  0.1995
 8488SOL    HW228357   1.603   2.693   4.395 -0.7446 -0.8805 -1.3969
 8489SOL     OW28358   7.456   4.736   1.639 -0.5791 -0.5107  0.4386
 8489SOL    HW128359   7.492   4.746   1.727  0.5854  3.1041 -0.2627
 8489SOL    HW228360   7.386   4.801   1.634 -0.5939 -0.6179 -1.3047
 8490SOL     OW28361   8.875   0.422   4.283 -0.3381  0.2667  0.1483
 8490SOL    HW128362   8.800   0.478   4.303  1.2817  2.3613  0.6567
 8490SOL    HW228363   8.838   0.333   4.280 -2.9746  1.2819 -0.4759
 8491SOL     OW28364   5.400   6.733   1.410  0.1256  0.1325  0.1121
 8491SOL    HW128365   5.315   6.756   1.372  0.3268  1.2685  0.3240
 8491SOL    HW228366   5.388   6.748   1.504  0.4377 -0.1239  0.1946
 8492SOL     OW28367   3.418   5.182   4.305  0.0794 -0.0738  0.0304
 8492SOL    HW128368   3.339   5.147   4.263 -1.0662  0.9919  1.2106
 8492SOL    HW228369   3.401   5.276   4.315  1.3318  0.1141  0.6613
 8493SOL     OW28370   7.213   5.079   0.506  0.2156 -0.0229  0.0373
 8493SOL    HW128371   7.236   5.164   0.543  0.5037  0.5675 -1.4569
 8493SOL    HW228372   7.269   5.017   0.552  1.3386  0.8231 -0.1608
 8494SOL     OW28373   4.460   2.215   5.220 -0.4462  0.7361  0.1286
 8494SOL    HW128374   4.514   2.278   5.269  0.7084 -0.9561  1.1240
 8494SOL    HW228375   4.469   2.242   5.129 -0.6610  2.4878  0.5782
 8495SOL     OW28376   3.196   7.137   3.438 -0.0496 -0.1499 -0.0147
 8495SOL    HW128377   3.179   7.049   3.406  1.4190 -0.1042 -1.0028
 8495SOL    HW228378   3.109   7.176   3.448 -0.7450 -1.7919  0.7752
 8496SOL     OW28379   8.816   2.059   8.829  0.8520  0.1079  0.0454
 8496SOL    HW128380   8.755   2.088   8.897  1.2202 -0.0222  0.4351
 8496SOL    HW228381   8.900   2.097   8.855  1.0217 -0.0595 -0.2603
 8497SOL     OW28382   4.892   5.210   1.336  0.8314  0.6515 -0.0007
 8497SOL    HW128383   4.821   5.268   1.307 -0.9198 -1.6195 -0.5909
 8497SOL    HW228384   4.920   5.247   1.419 -1.0869  1.6568  0.2722
 8498SOL     OW28385   8.700   0.759   4.231 -0.1603 -0.7258  0.2957
 8498SOL    HW128386   8.694   0.664   4.235 -1.3929 -0.6220  2.8303
 8498SOL    HW228387   8.629   0.785   4.172  0.4187 -1.3521 -0.7060
 8499SOL     OW28388   0.826   1.997   5.156 -0.0584  0.0711  0.1755
 8499SOL    HW128389   0.759   2.048   5.202  0.6183  0.5474  0.6438
 8499SOL    HW228390   0.780   1.960   5.081 -0.8048  0.5418  0.3882
 8500SOL     OW28391   5.485   4.717   1.254  0.4665 -0.3703  0.2143
 8500SOL    HW128392   5.395   4.731   1.286  0.1949 -1.0189 -0.2601
 8500SOL    HW228393   5.535   4.696   1.333  0.4237  0.9994  0.6312
 8501SOL     OW28394   2.198   7.528   2.117 -0.5773  0.7861 -0.5041
 8501SOL    HW128395   2.202   7.452   2.175 -3.1797  1.3923  0.6492
 8501SOL    HW228396   2.199   7.492   2.029  0.9600 -0.3560 -0.0533
 8502SOL     OW28397   5.450   2.786   8.896 -0.7248  0.5629  0.0281
 8502SOL    HW128398   5.493   2.729   8.959  0.3934  2.2336  0.8698
 8502SOL    HW228399   5.373   2.818   8.942 -1.5640 -0.5337 -0.5840
 8503SOL     OW28400   2.447   0.810   4.170 -0.6232 -0.0328 -0.4293
 8503SOL    HW128401   2.448   0.889   4.225  0.9635  0.4984 -1.1586
 8503SOL    HW228402   2.355   0.784   4.168 -1.3507  2.2793 -0.8459
 8504SOL     OW28403   1.803   4.164   0.091  0.2580  0.1116  0.2232
 8504SOL    HW128404   1.753   4.244   0.077 -0.2844 -0.1334  0.7361
 8504SOL    HW228405   1.857   4.155   0.012 -2.0984 -0.7862 -1.3857
 8505SOL     OW28406   3.438   6.431   1.387 -0.3578  0.2026  0.3622
 8505SOL    HW128407   3.486   6.508   1.419  1.1995 -0.9498  0.9229
 8505SOL    HW228408   3.353   6.466   1.360  1.2131  2.6277 -2.0003
 8506SOL     OW28409   5.769   2.893   4.371 -0.0025  0.3192 -0.2989
 8506SOL    HW128410   5.769   2.988   4.370  0.2014  0.3308 -1.7583
 8506SOL    HW228411   5.758   2.869   4.463 -0.1622  1.7418  0.0646
 8507SOL     OW28412   7.574   5.521   1.403 -0.6109 -0.2841  0.1214
 8507SOL    HW128413   7.644   5.502   1.465  0.0321  2.6780  0.4613
 8507SOL    HW228414   7.509   5.570   1.454 -0.6198  1.1916 -1.2263
 8508SOL     OW28415   2.600   0.935   8.151 -0.0477  0.5636  0.4286
 8508SOL    HW128416   2.529   0.889   8.196 -0.3118  0.4454 -0.1012
 8508SOL    HW228417   2.563   0.959   8.066  0.5693  0.4373  0.1175
 8509SOL     OW28418   5.025   0.707   1.923  0.3742 -0.5391 -0.5376
 8509SOL    HW128419   4.981   0.762   1.858  3.3472  2.1633 -0.5494
 8509SOL    HW228420   5.057   0.632   1.873 -0.1939 -0.1710 -1.4901
 8510SOL     OW28421   6.351   7.572   4.023  0.3677  0.0241  0.1795
 8510SOL    HW128422   6.269   7.532   4.054 -0.3345 -0.5465 -2.1716
 8510SOL    HW228423   6.416   7.546   4.088 -0.7574 -2.0377  0.5779
 8511SOL     OW28424   6.647   8.165   5.976  0.0427 -0.0158 -0.3876
 8511SOL    HW128425   6.584   8.236   5.984 -1.2940 -1.3301  1.7717
 8511SOL    HW228426   6.726   8.198   6.018 -0.3179  0.4873 -0.0979
 8512SOL     OW28427   6.766   3.169   9.049 -0.1449  0.2436  0.1547
 8512SOL    HW128428   6.823   3.224   9.102  0.7842  0.5068 -1.0868
 8512SOL    HW228429   6.708   3.127   9.112  0.0451  1.5633  1.2582
 8513SOL     OW28430   6.653   5.656   0.737  0.3743  0.1681 -0.5277
 8513SOL    HW128431   6.706   5.720   0.690  0.8991 -0.2548 -0.5252
 8513SOL    HW228432   6.569   5.699   0.751  1.1863  1.4237  0.7873
 8514SOL     OW28433   3.646   8.858   0.321 -0.7203 -0.3867  0.4274
 8514SOL    HW128434   3.609   8.927   0.266 -1.0172  0.3754  1.5412
 8514SOL    HW228435   3.597   8.779   0.298 -0.9280 -0.0554 -0.2877
 8515SOL     OW28436   0.942   6.920   0.857 -0.3188 -0.2372 -0.7188
 8515SOL    HW128437   1.016   6.917   0.796  1.1415  4.1069  0.4294
 8515SOL    HW228438   0.874   6.968   0.810  0.0018  1.2149  0.2286
 8516SOL     OW28439   5.240   8.340   8.221  0.0299 -0.0470 -0.0860
 8516SOL    HW128440   5.335   8.336   8.219  0.0250 -0.7219  0.5509
 8516SOL    HW228441   5.219   8.428   8.188  0.7427 -0.7549 -2.6745
 8517SOL     OW28442   0.484   1.779   2.984  0.1501  0.3857  0.4166
 8517SOL    HW128443   0.560   1.789   3.042  0.3398  2.0855 -0.0859
 8517SOL    HW228444   0.509   1.822   2.903  0.0718 -2.3688 -1.1852
 8518SOL     OW28445   7.262   7.954   4.177  0.0932 -0.2577 -0.4928
 8518SOL    HW128446   7.232   7.908   4.255 -2.6022 -0.3347 -1.4788
 8518SOL    HW228447   7.297   7.885   4.121  2.6561 -0.1246  0.8183
 8519SOL     OW28448   7.238   5.883   4.726  0.4189  0.2678 -0.7013
 8519SOL    HW128449   7.269   5.820   4.791  3.0084 -0.1287 -2.1689
 8519SOL    HW228450   7.305   5.952   4.725 -1.2815  2.0108 -0.6159
 8520SOL     OW28451   7.610   1.124   6.353  0.4334 -0.3148  0.0154
 8520SOL    HW128452   7.698   1.121   6.391  0.8628 -0.1533 -0.9338
 8520SOL    HW228453   7.556   1.168   6.419  1.0770 -0.3362  0.5638
 8521SOL     OW28454   4.082   2.025   4.129 -0.0068 -0.0079  0.3794
 8521SOL    HW128455   4.043   2.051   4.046  0.7500  1.1043  0.3494
 8521SOL    HW228456   4.018   1.967   4.169 -2.0439  2.3064  0.6777
 8522SOL     OW28457   3.352   9.263   2.369  0.1329  0.1285 -0.1498
 8522SOL    HW128458   3.286   9.302   2.426  0.6518 -0.3034  0.7690
 8522SOL    HW228459   3.384   9.187   2.418  1.3369  0.3596 -0.5461
 8523SOL     OW28460   5.124   3.491   0.551  0.2504  0.2430  0.1229
 8523SOL    HW128461   5.171   3.557   0.500  0.0926 -0.2468 -0.6686
 8523SOL    HW228462   5.036   3.490   0.514  0.5233 -1.1065 -0.5500
 8524SOL     OW28463   6.369   0.793   6.741  0.9252 -0.3777 -0.5241
 8524SOL    HW128464   6.303   0.766   6.806  0.1180 -0.3327 -1.3058
 8524SOL    HW228465   6.321   0.848   6.680  1.5658 -0.8150 -1.4402
 8525SOL     OW28466   6.322   6.600   3.081 -0.2494 -0.2448  0.3175
 8525SOL    HW128467   6.340   6.626   2.991  1.9342 -0.4915  0.6283
 8525SOL    HW228468   6.357   6.672   3.134 -1.4653 -0.1259  0.9898
 8526SOL     OW28469   5.860   0.891   2.826 -0.0450  0.0806  0.1462
 8526SOL    HW128470   5.809   0.952   2.879  2.7689  1.8662  1.0506
 8526SOL    HW228471   5.828   0.904   2.737  0.8958  3.5840  0.1584
 8527SOL     OW28472   6.294   6.788   2.343  0.5011  0.0326  0.4154
 8527SOL    HW128473   6.251   6.803   2.427 -3.5896 -1.0809 -1.2174
 8527SOL    HW228474   6.347   6.709   2.356  1.4431  0.9337  2.3379
 8528SOL     OW28475   8.368   6.158   3.990 -0.1721 -0.0548 -0.5876
 8528SOL    HW128476   8.285   6.112   4.000 -0.8561  0.9452 -1.4706
 8528SOL    HW228477   8.421   6.127   4.063 -1.2536 -0.8474 -0.1099
 8529SOL     OW28478   3.176   3.333   3.236  0.4154 -0.0904 -0.5977
 8529SOL    HW128479   3.199   3.376   3.318 -0.5846  0.3164 -0.5225
 8529SOL    HW228480   3.258   3.295   3.205  0.9004  0.1713  0.3395
 8530SOL     OW28481   0.627   2.546   6.569 -0.3413  0.1383  0.0256
 8530SOL    HW128482   0.588   2.472   6.522 -1.0696 -1.1773  2.5079
 8530SOL    HW228483   0.555   2.581   6.622  0.4141  1.6326  0.1140
 8531SOL     OW28484   3.498   2.499   1.400  0.9575  0.3705  0.4785
 8531SOL    HW128485   3.533   2.414   1.426  1.4543  0.4411  0.0571
 8531SOL    HW228486   3.432   2.478   1.333 -1.0510  0.1088  2.4081
 8532SOL     OW28487   7.144   2.599   3.291  0.6429 -0.0956 -0.1939
 8532SOL    HW128488   7.055   2.598   3.257  1.2180  0.5957 -1.8417
 8532SOL    HW228489   7.183   2.517   3.260  0.8575  0.0548 -0.3301
 8533SOL     OW28490   0.273   3.524   1.267 -0.5635  0.0780  0.1831
 8533SOL    HW128491   0.218   3.470   1.210 -0.2398 -0.3414  0.2629
 8533SOL    HW228492   0.342   3.557   1.210 -0.7676  0.4243  0.1319
 8534SOL     OW28493   6.115   6.207   1.268  0.0110 -0.0314 -0.3624
 8534SOL    HW128494   6.150   6.154   1.197 -1.2523 -1.0768 -0.2349
 8534SOL    HW228495   6.041   6.254   1.230 -1.0576 -1.0649  0.3840
 8535SOL     OW28496   0.615   3.906   2.255 -0.5408 -0.3162  0.7235
 8535SOL    HW128497   0.676   3.947   2.316 -0.4551 -1.2954  1.3056
 8535SOL    HW228498   0.610   3.968   2.182 -0.5329  0.8139  1.6358
 8536SOL     OW28499   1.875   7.453   8.194 -0.1715 -0.1807 -0.3119
 8536SOL    HW128500   1.830   7.529   8.231  0.9717 -0.3521  1.5728
 8536SOL    HW228501   1.813   7.381   8.203 -0.8668  0.2999 -1.1295
 8537SOL     OW28502   7.836   1.671   7.036  0.5800 -0.7759 -0.4758
 8537SOL    HW128503   7.777   1.617   6.984 -1.0312  0.5712 -0.1160
 8537SOL    HW228504   7.892   1.714   6.971 -0.5398 -0.1148 -1.0236
 8538SOL     OW28505   0.246   4.466   8.955 -0.3418 -0.0821  0.0564
 8538SOL    HW128506   0.218   4.376   8.970 -1.7918  0.2489 -0.5003
 8538SOL    HW228507   0.173   4.506   8.908  0.3773  1.3229  0.0899
 8539SOL     OW28508   3.501   8.744   0.594 -0.1599 -0.1593 -0.2645
 8539SOL    HW128509   3.580   8.764   0.643 -0.6492  0.6954  0.1971
 8539SOL    HW228510   3.516   8.781   0.507 -0.2854  0.5246  0.0023
 8540SOL     OW28511   2.787   3.949   2.630 -0.0200 -0.8998 -0.3698
 8540SOL    HW128512   2.705   3.900   2.630  0.4723 -1.7863  0.8389
 8540SOL    HW228513   2.773   4.021   2.568 -1.0165 -2.1463 -1.6411
 8541SOL     OW28514   7.053   1.006   7.027 -0.0736  0.3729 -0.4044
 8541SOL    HW128515   6.972   0.955   7.025 -0.3310  0.7438  0.2973
 8541SOL    HW228516   7.027   1.092   7.059  0.6268  0.4444  0.0079
 8542SOL     OW28517   1.017   0.723   9.178  0.0810  0.4024 -0.0948
 8542SOL    HW128518   1.029   0.652   9.241 -2.1540  0.5823  0.6486
 8542SOL    HW228519   0.922   0.728   9.166  0.3724  1.1233 -2.6643
 8543SOL     OW28520   0.176   8.886   2.359  0.1033 -0.0502 -0.0798
 8543SOL    HW128521   0.245   8.917   2.300  0.4688 -0.8458 -0.0807
 8543SOL    HW228522   0.164   8.794   2.335 -1.2766  0.1856 -0.3788
 8544SOL     OW28523   5.342   3.934   5.867  0.1402  0.5049  0.1598
 8544SOL    HW128524   5.296   4.017   5.849  1.8865  1.5347  0.2680
 8544SOL    HW228525   5.408   3.957   5.933  0.8426 -0.9231 -0.0195
 8545SOL     OW28526   4.153   0.509   5.633 -0.3035 -0.2435  0.1014
 8545SOL    HW128527   4.096   0.547   5.566 -0.6351  0.5431  0.8170
 8545SOL    HW228528   4.112   0.532   5.716  0.6853 -0.2643  0.6108
 8546SOL     OW28529   8.755   4.959   2.848  0.4858 -0.4346 -0.3256
 8546SOL    HW128530   8.755   5.030   2.912 -0.7565 -1.2461  0.6285
 8546SOL    HW228531   8.847   4.946   2.827  0.7320  1.7451 -0.8885
 8547SOL     OW28532   5.232   6.566   3.313 -0.1279 -0.1851 -0.1622
 8547SOL    HW128533   5.303   6.552   3.375 -1.8657 -0.3545  1.9198
 8547SOL    HW228534   5.218   6.661   3.314  1.6228  0.1952 -2.5222
 8548SOL     OW28535   6.029   8.527   5.793 -0.4600 -0.1427  0.2582
 8548SOL    HW128536   6.111   8.575   5.779 -0.3559 -0.0181  1.2158
 8548SOL    HW228537   5.973   8.552   5.719 -0.4382  1.5271  0.7746
 8549SOL     OW28538   1.956   2.963   4.451 -0.1625 -0.6676 -0.4664
 8549SOL    HW128539   2.040   2.995   4.417 -0.6828  1.0815 -0.1932
 8549SOL    HW228540   1.970   2.958   4.545 -0.9233  1.6647 -0.1489
 8550SOL     OW28541   5.259   4.349   1.822 -0.8435 -0.1402 -0.8015
 8550SOL    HW128542   5.213   4.347   1.738 -1.5510  0.2219 -0.4331
 8550SOL    HW228543   5.329   4.285   1.813 -2.6197 -2.1884 -0.6896
 8551SOL     OW28544   6.933   1.020   7.883  0.0754  0.4245  0.2604
 8551SOL    HW128545   6.896   1.077   7.816 -1.4683  3.1146  3.1358
 8551SOL    HW228546   7.008   1.070   7.918  1.0408 -1.0449  0.3685
 8552SOL     OW28547   6.822   8.550   1.910  0.9674  0.3129  0.5107
 8552SOL    HW128548   6.760   8.500   1.855  0.1178  0.6962  1.0985
 8552SOL    HW228549   6.797   8.641   1.897  0.8759  0.4214  1.3820
 8553SOL     OW28550   0.214   3.443   5.141 -0.4099 -0.2174 -0.4785
 8553SOL    HW128551   0.198   3.529   5.103 -0.0852  0.8370  1.6751
 8553SOL    HW228552   0.307   3.427   5.126  0.1762  1.0720  1.4839
 8554SOL     OW28553   7.953   1.465   5.792 -0.3523  0.3259 -0.3305
 8554SOL    HW128554   8.003   1.407   5.849 -1.1664  0.5954  0.6792
 8554SOL    HW228555   7.992   1.551   5.804 -0.2834  0.3156 -0.4748
 8555SOL     OW28556   7.425   2.773   2.187  0.8726  0.1984  0.5843
 8555SOL    HW128557   7.403   2.862   2.157 -0.1101  0.3662  1.7180
 8555SOL    HW228558   7.433   2.782   2.282 -0.7534 -1.1970  0.9056
 8556SOL     OW28559   8.187   7.910   2.141  0.8997  0.2203  0.8336
 8556SOL    HW128560   8.104   7.903   2.094  0.9108 -2.4024  1.0740
 8556SOL    HW228561   8.165   7.895   2.232  1.6498 -0.9603  0.8500
 8557SOL     OW28562   0.358   3.954   9.181 -0.0914 -0.2021  0.0986
 8557SOL    HW128563   0.275   3.932   9.222 -0.5862  0.7045 -0.3969
 8557SOL    HW228564   0.341   4.034   9.131  1.2777  0.4837  0.6541
 8558SOL     OW28565   8.406   5.640   4.362 -0.0478 -0.4322 -0.7424
 8558SOL    HW128566   8.339   5.613   4.425 -0.4411  2.2149  0.0767
 8558SOL    HW228567   8.356   5.669   4.286  0.0372  2.0854  0.0838
 8559SOL     OW28568   8.686   8.479   5.442 -0.3506  0.7005 -0.0995
 8559SOL    HW128569   8.664   8.434   5.523  0.8352  0.8487  0.3291
 8559SOL    HW228570   8.650   8.424   5.373  0.9119 -0.8426  0.4103
 8560SOL     OW28571   0.292   0.690   7.716 -0.0615  0.2550 -0.0323
 8560SOL    HW128572   0.201   0.715   7.700  0.0528  0.2995 -0.6226
 8560SOL    HW228573   0.344   0.757   7.672  0.2530 -0.4957 -0.8308
 8561SOL     OW28574   4.900   1.122   2.064 -0.1504 -0.3471  0.5170
 8561SOL    HW128575   4.844   1.085   1.997 -0.0413 -1.0443  0.8077
 8561SOL    HW228576   4.963   1.176   2.016 -0.4218 -0.3939  0.1096
 8562SOL     OW28577   6.814   0.121   3.629  0.2265 -0.3851  0.3401
 8562SOL    HW128578   6.731   0.086   3.596  1.3715  0.4497 -4.1708
 8562SOL    HW228579   6.791   0.207   3.665 -1.0275 -0.6993  0.3447
 8563SOL     OW28580   5.979   0.985   7.563 -0.1993 -0.2283  0.2424
 8563SOL    HW128581   5.885   0.990   7.547 -0.4110 -0.1896  1.4434
 8563SOL    HW228582   5.987   0.942   7.648  0.9208 -1.5372 -0.4678
 8564SOL     OW28583   8.598   0.435   6.595 -1.0114 -0.0806 -0.4530
 8564SOL    HW128584   8.549   0.513   6.568 -2.3376 -0.5608  0.4712
 8564SOL    HW228585   8.570   0.367   6.533 -2.0507 -0.5160  0.4536
 8565SOL     OW28586   0.244   6.108   0.805 -0.2925 -0.8619 -0.6373
 8565SOL    HW128587   0.339   6.107   0.793 -0.2698 -1.7949 -0.4799
 8565SOL    HW228588   0.225   6.026   0.851 -0.9233  0.3740  1.4168
 8566SOL     OW28589   1.611   0.494   8.103 -0.0991  0.2366  0.5432
 8566SOL    HW128590   1.536   0.547   8.127 -1.2748 -0.1614 -1.9400
 8566SOL    HW228591   1.672   0.555   8.060  0.2348  0.2463  1.0240
 8567SOL     OW28592   7.549   4.823   3.473  0.1311  0.8472 -0.2968
 8567SOL    HW128593   7.602   4.880   3.528 -0.4156  0.3452  0.7936
 8567SOL    HW228594   7.610   4.786   3.410  1.5908 -1.3032  2.1774
 8568SOL     OW28595   0.576   0.606   5.418  0.9115  0.0173  0.4056
 8568SOL    HW128596   0.610   0.519   5.440  0.0515 -0.4973 -0.2175
 8568SOL    HW228597   0.495   0.614   5.468  1.3330  0.7551  0.9911
 8569SOL     OW28598   2.494   7.076   4.636  0.2857 -0.2265 -0.5758
 8569SOL    HW128599   2.417   7.042   4.682 -0.5127 -0.1232 -1.8025
 8569SOL    HW228600   2.518   7.006   4.575  0.6118  0.1070 -0.8365
 8570SOL     OW28601   3.144   3.075   0.839 -0.2335 -0.2372  0.1913
 8570SOL    HW128602   3.192   3.088   0.757  1.1021 -2.2116  0.5793
 8570SOL    HW228603   3.211   3.080   0.907 -0.9402 -0.8299  0.9590
 8571SOL     OW28604   3.234   1.235   6.788 -0.0334  0.1495  0.2087
 8571SOL    HW128605   3.161   1.248   6.726  2.0418  1.1349 -2.2035
 8571SOL    HW228606   3.293   1.308   6.770  2.4190 -1.5820  0.7999
 8572SOL     OW28607   1.690   1.846   2.216 -0.2379 -0.0792 -0.8564
 8572SOL    HW128608   1.667   1.772   2.272 -0.3561 -0.3595 -1.2693
 8572SOL    HW228609   1.752   1.809   2.153 -2.0828 -0.4306 -2.5701
 8573SOL     OW28610   8.503   0.433   2.840  0.0084 -0.3433  0.0026
 8573SOL    HW128611   8.424   0.400   2.798  0.7795  0.0173 -1.8704
 8573SOL    HW228612   8.570   0.427   2.772  1.2732  0.6168  1.1030
 8574SOL     OW28613   7.141   5.607   2.383 -0.2163 -0.4251  0.4597
 8574SOL    HW128614   7.108   5.696   2.371 -0.3559 -0.5538 -0.1408
 8574SOL    HW228615   7.237   5.616   2.380 -0.2179 -0.5945 -2.0804
 8575SOL     OW28616   3.034   8.864   2.151 -0.4773 -0.2130 -0.4722
 8575SOL    HW128617   2.947   8.904   2.147  0.2743  1.4305 -1.2861
 8575SOL    HW228618   3.017   8.770   2.155 -2.2935  0.1001  0.0529
 8576SOL     OW28619   3.744   8.941   5.310  0.1311 -0.4586 -0.0153
 8576SOL    HW128620   3.696   9.004   5.363  0.5664 -1.0084  1.0501
 8576SOL    HW228621   3.833   8.942   5.345  0.3613 -1.0233 -0.5643
 8577SOL     OW28622   6.823   7.348   8.524  0.2615 -0.5442  0.3496
 8577SOL    HW128623   6.834   7.443   8.521 -4.3941  0.2462  1.6022
 8577SOL    HW228624   6.784   7.330   8.609 -1.2584 -3.2353 -0.7876
 8578SOL     OW28625   7.190   0.768   3.289 -0.5915  0.4498 -0.2285
 8578SOL    HW128626   7.283   0.785   3.300 -0.7974 -0.0213  3.7628
 8578SOL    HW228627   7.156   0.844   3.242  1.6012  1.2019 -0.6701
 8579SOL     OW28628   2.297   6.569   5.167  0.0145  0.2027 -0.5357
 8579SOL    HW128629   2.252   6.639   5.120 -1.4475  0.1713  0.7318
 8579SOL    HW228630   2.276   6.489   5.119 -0.4885  0.3171 -0.5065
 8580SOL     OW28631   7.034   0.837   8.591 -0.0741  0.8773 -0.5925
 8580SOL    HW128632   7.118   0.825   8.636 -0.9320  0.8691  1.0870
 8580SOL    HW228633   6.980   0.884   8.654 -2.9133 -3.1757  0.3382
 8581SOL     OW28634   9.108   5.800   4.354  0.1638  0.1121 -0.0766
 8581SOL    HW128635   9.091   5.806   4.448  1.5346 -1.4661  0.3269
 8581SOL    HW228636   9.055   5.869   4.315 -3.2882 -1.4542  1.4648
 8582SOL     OW28637   3.020   1.055   7.836 -0.6105  0.9136 -0.2171
 8582SOL    HW128638   3.000   0.983   7.777  1.1806  0.9078 -0.8701
 8582SOL    HW228639   2.943   1.111   7.833 -1.9297 -0.8065  0.0956
 8583SOL     OW28640   3.679   5.265   4.794 -0.0111 -0.2528 -0.6535
 8583SOL    HW128641   3.626   5.283   4.872  0.4742  0.4625 -0.4917
 8583SOL    HW228642   3.686   5.169   4.793  1.2013 -0.2349  1.0105
 8584SOL     OW28643   1.328   1.362   3.735  0.2567 -0.0587 -0.4780
 8584SOL    HW128644   1.342   1.272   3.707  0.1383  0.2174 -1.4311
 8584SOL    HW228645   1.416   1.395   3.753  0.2411 -0.6691  0.9060
 8585SOL     OW28646   8.843   1.224   3.574 -0.2689  0.4344 -0.2704
 8585SOL    HW128647   8.932   1.242   3.602  0.0162 -2.1196  0.7971
 8585SOL    HW228648   8.789   1.289   3.618  0.8931  0.8203  0.6178
 8586SOL     OW28649   2.227   3.548   3.870  0.1825  0.1540 -0.6174
 8586SOL    HW128650   2.281   3.501   3.933  0.7155 -1.5557 -2.2481
 8586SOL    HW228651   2.210   3.485   3.800 -2.5960  1.1333 -0.9782
 8587SOL     OW28652   0.375   3.789   7.357 -0.1415  0.1084  0.0238
 8587SOL    HW128653   0.463   3.764   7.384  0.0806  0.7279 -0.1168
 8587SOL    HW228654   0.388   3.837   7.275 -0.6215  0.0747 -0.0736
 8588SOL     OW28655   7.866   9.228   1.182  0.3262  0.0340 -0.1631
 8588SOL    HW128656   7.773   9.210   1.166  0.6991 -2.9107  0.5014
 8588SOL    HW228657   7.878   9.211   1.276  1.5124  0.5137 -0.2109
 8589SOL     OW28658   0.651   2.473   4.416 -0.4705 -0.1149  0.3122
 8589SOL    HW128659   0.567   2.477   4.461 -0.0113 -1.2229  1.3260
 8589SOL    HW228660   0.708   2.533   4.464 -0.1823 -0.7464  0.7679
 8590SOL     OW28661   7.820   3.235   9.252  0.4781 -0.6149 -0.2902
 8590SOL    HW128662   7.831   3.193   9.337  1.1615 -1.2428 -0.6797
 8590SOL    HW228663   7.902   3.282   9.237  0.5032 -0.8097 -0.7717
 8591SOL     OW28664   1.491   0.800   2.520  0.2731  0.0703  0.3254
 8591SOL    HW128665   1.470   0.762   2.435 -2.1683  0.3351  0.7499
 8591SOL    HW228666   1.533   0.884   2.499  0.9632 -0.5011 -0.6033
 8592SOL     OW28667   5.476   6.881   2.801 -0.6326  0.1415 -0.4918
 8592SOL    HW128668   5.487   6.798   2.848  0.5857  0.4846 -0.1170
 8592SOL    HW228669   5.388   6.910   2.823 -1.1652 -1.1615 -0.8211
 8593SOL     OW28670   1.749   5.224   4.074 -0.3012 -0.2321 -0.7652
 8593SOL    HW128671   1.833   5.182   4.056  1.0779  0.5134  2.9029
 8593SOL    HW228672   1.684   5.156   4.056  1.4932 -2.4654  0.5442
 8594SOL     OW28673   0.985   6.467   0.475 -0.0289  0.0457 -0.3178
 8594SOL    HW128674   1.066   6.429   0.443  1.2684  1.8753  0.6215
 8594SOL    HW228675   0.967   6.540   0.416 -0.8070 -0.1209 -0.3040
 8595SOL     OW28676   6.166   2.868   6.922 -0.0998  0.0090 -0.0584
 8595SOL    HW128677   6.183   2.945   6.977 -1.2953  0.4671 -0.3115
 8595SOL    HW228678   6.196   2.794   6.975 -1.0081  0.4674  1.1351
 8596SOL     OW28679   8.115   4.532   5.564 -0.0585  0.0777  0.4740
 8596SOL    HW128680   8.063   4.539   5.644  0.7143  0.5097  0.9503
 8596SOL    HW228681   8.184   4.469   5.586  0.3252  0.4137  0.2451
 8597SOL     OW28682   6.967   7.344   7.966  0.7005  0.2439  0.1004
 8597SOL    HW128683   7.036   7.404   7.993 -0.7148  1.7289  0.5535
 8597SOL    HW228684   6.910   7.397   7.910 -0.6134 -0.6624  0.5566
 8598SOL     OW28685   5.899   8.140   1.269  0.4339  0.2446  0.4316
 8598SOL    HW128686   5.814   8.178   1.245  1.2245  0.9741 -1.4394
 8598SOL    HW228687   5.910   8.162   1.361 -1.4982 -0.0860  0.7968
 8599SOL     OW28688   5.623   8.274   6.128  0.6471  0.0551 -0.4316
 8599SOL    HW128689   5.622   8.324   6.210 -1.7955 -1.5885  0.6608
 8599SOL    HW228690   5.594   8.337   6.062  1.2899  1.0516  0.2034
 8600SOL     OW28691   4.383   0.677   8.488  0.6089  0.0429 -0.0926
 8600SOL    HW128692   4.476   0.672   8.510  0.5637 -0.2800  0.0228
 8600SOL    HW228693   4.352   0.587   8.491  0.3828  0.1006 -0.5397
 8601SOL     OW28694   2.128   3.115   7.370 -0.1537 -0.2469 -0.0115
 8601SOL    HW128695   2.070   3.165   7.312 -1.3637 -0.5943  0.8708
 8601SOL    HW228696   2.160   3.043   7.316 -0.1798  0.1972 -0.6333
 8602SOL     OW28697   6.638   3.961   1.020 -0.8351 -0.8781  0.2579
 8602SOL    HW128698   6.633   3.955   1.115 -0.0248 -1.5045  0.2687
 8602SOL    HW228699   6.671   3.876   0.992  1.2947  0.1069 -0.4019
 8603SOL     OW28700   3.484   5.767   2.279 -0.4767  0.2028  0.1853
 8603SOL    HW128701   3.534   5.824   2.337  1.2894 -1.5125  0.4437
 8603SOL    HW228702   3.442   5.826   2.217  2.5511  1.7200 -0.5713
 8604SOL     OW28703   3.398   8.503   6.585  0.1654 -0.1640 -0.2577
 8604SOL    HW128704   3.386   8.544   6.671 -0.0812 -0.6340 -0.0680
 8604SOL    HW228705   3.366   8.414   6.595  0.5768 -0.3683 -0.7131
 8605SOL     OW28706   6.314   8.315   1.810 -0.8002 -0.4514 -0.1543
 8605SOL    HW128707   6.386   8.276   1.761 -0.8540  0.5364 -1.0482
 8605SOL    HW228708   6.334   8.295   1.902  0.8425  0.1458 -0.3388
 8606SOL     OW28709   2.057   3.184   2.207  0.3048  0.3279 -0.3900
 8606SOL    HW128710   2.109   3.145   2.137 -0.1212  0.1730 -0.6231
 8606SOL    HW228711   1.977   3.214   2.164  0.2464  0.6637 -0.0556
 8607SOL     OW28712   6.397   2.945   1.560 -0.2452  0.5348 -0.2891
 8607SOL    HW128713   6.465   2.949   1.493  0.5491 -1.6805  0.3041
 8607SOL    HW228714   6.445   2.941   1.643 -0.9271 -2.4923  0.0886
 8608SOL     OW28715   3.381   2.210   2.312 -0.4352 -0.3666 -0.2760
 8608SOL    HW128716   3.365   2.296   2.351  0.4644  0.3763 -1.4992
 8608SOL    HW228717   3.334   2.212   2.229  1.8065  0.0162 -1.6113
 8609SOL     OW28718   8.788   4.795   2.422  0.3811  0.5988  0.0739
 8609SOL    HW128719   8.749   4.858   2.362 -1.9241 -1.5817 -0.8865
 8609SOL    HW228720   8.786   4.712   2.374  3.9959 -0.1692  0.9917
 8610SOL     OW28721   3.303   6.671   7.874  0.0833 -0.4212  0.1782
 8610SOL    HW128722   3.220   6.697   7.913  0.4102  1.1957 -0.1222
 8610SOL    HW228723   3.279   6.612   7.803 -0.9871  1.3137 -0.9898
 8611SOL     OW28724   9.122   1.655   5.755  0.0494  0.5710  0.3672
 8611SOL    HW128725   9.047   1.713   5.749  1.0173  1.9155  0.7290
 8611SOL    HW228726   9.129   1.634   5.848 -0.3910 -0.2730  0.2171
 8612SOL     OW28727   4.347   7.414   7.557 -0.3621 -0.7460 -0.0506
 8612SOL    HW128728   4.343   7.466   7.637 -0.0500 -3.1480  1.6348
 8612SOL    HW228729   4.440   7.414   7.533 -0.1542 -1.5785  0.7157
 8613SOL     OW28730   5.668   5.081   7.560  0.0122  0.1780  0.1796
 8613SOL    HW128731   5.665   4.989   7.588  0.4588 -0.5637 -2.0433
 8613SOL    HW228732   5.613   5.127   7.624 -0.9574 -1.7718  0.8297
 8614SOL     OW28733   7.452   3.448   8.260 -0.4014  0.2429  0.1198
 8614SOL    HW128734   7.391   3.377   8.283 -0.2992 -0.0619 -0.5205
 8614SOL    HW228735   7.492   3.419   8.178  0.6999  0.3847  0.5962
 8615SOL     OW28736   1.453   8.940   2.200 -1.0309  0.3870  0.2019
 8615SOL    HW128737   1.397   8.877   2.245  0.2165 -0.5963  0.4555
 8615SOL    HW228738   1.434   8.927   2.107  1.2895 -2.6325 -0.0297
 8616SOL     OW28739   2.395   3.496   5.765 -0.6349 -0.2568  0.4548
 8616SOL    HW128740   2.359   3.556   5.700  1.9204 -0.5933 -1.4393
 8616SOL    HW228741   2.403   3.549   5.845 -3.3962  0.2994  0.4583
 8617SOL     OW28742   2.495   9.232   1.528 -0.3583 -0.3546  0.1508
 8617SOL    HW128743   2.546   9.284   1.590 -0.3494 -1.7098  1.3362
 8617SOL    HW228744   2.552   9.222   1.452  0.4234 -0.2816  0.7141
 8618SOL     OW28745   8.452   1.143   8.480  0.4498 -0.3181 -0.0188
 8618SOL    HW128746   8.496   1.224   8.506  0.7048 -0.9388  1.5634
 8618SOL    HW228747   8.515   1.099   8.422  0.1412  0.7807 -1.2311
 8619SOL     OW28748   3.794   8.865   1.624 -0.0758  0.0128 -0.2580
 8619SOL    HW128749   3.806   8.956   1.596  0.5959 -0.4538 -1.6127
 8619SOL    HW228750   3.734   8.870   1.698 -0.6987  1.4931 -0.8183
 8620SOL     OW28751   9.029   0.280   7.394  0.1495  0.4551 -0.0091
 8620SOL    HW128752   9.043   0.239   7.309 -1.1077  0.8418 -0.4239
 8620SOL    HW228753   9.036   0.209   7.457  0.3749  0.0391 -0.4997
 8621SOL     OW28754   3.320   7.884   2.875  0.3499  0.1995  0.1999
 8621SOL    HW128755   3.283   7.836   2.801  0.2237  1.3345 -0.4993
 8621SOL    HW228756   3.251   7.882   2.942 -0.1676  0.5136 -0.3161
 8622SOL     OW28757   5.536   3.289   8.159 -0.5799  0.1350 -0.3136
 8622SOL    HW128758   5.540   3.260   8.068 -1.8363  1.4320 -0.8271
 8622SOL    HW228759   5.449   3.263   8.188  0.0682 -0.9058  0.7747
 8623SOL     OW28760   2.361   1.165   6.335 -0.2620 -0.0884  0.6709
 8623SOL    HW128761   2.413   1.158   6.415 -0.9081  0.1869  1.1210
 8623SOL    HW228762   2.271   1.171   6.365 -0.5942 -0.8678 -0.1104
 8624SOL     OW28763   4.785   6.129   5.066  0.1663  0.1658 -0.2552
 8624SOL    HW128764   4.735   6.135   5.147  1.5049 -0.1162  0.6162
 8624SOL    HW228765   4.861   6.075   5.088  0.4398 -0.0976 -1.7558
 8625SOL     OW28766   0.653   3.593   7.011 -0.4274 -0.5181 -0.0072
 8625SOL    HW128767   0.697   3.655   6.953  2.0226 -2.0861  0.0009
 8625SOL    HW228768   0.658   3.634   7.098 -1.0236  0.3072 -0.3477
 8626SOL     OW28769   4.740   7.138   4.050 -0.3954 -0.0317  0.8104
 8626SOL    HW128770   4.783   7.204   4.105  1.4806 -0.4955 -0.0193
 8626SOL    HW228771   4.715   7.069   4.112 -3.0562  1.6629  1.8084
 8627SOL     OW28772   6.214   0.058   5.828 -0.4537 -0.1194 -0.6812
 8627SOL    HW128773   6.275   0.112   5.778  0.2351 -0.9431 -0.7567
 8627SOL    HW228774   6.258   0.042   5.912 -1.1609  0.4042 -0.2015
 8628SOL     OW28775   8.975   4.485   2.538  0.2661 -0.5026  0.2615
 8628SOL    HW128776   8.961   4.417   2.472  0.5330 -0.6566  0.3637
 8628SOL    HW228777   8.927   4.454   2.615  0.9715 -0.9222  0.5386
 8629SOL     OW28778   5.136   4.533   4.198 -0.0254 -0.3748  0.5139
 8629SOL    HW128779   5.115   4.507   4.287 -0.7567 -1.8587 -0.0380
 8629SOL    HW228780   5.121   4.453   4.146 -0.1959  0.6011 -1.0106
 8630SOL     OW28781   2.317   1.083   7.378  0.1927  0.3977  0.3443
 8630SOL    HW128782   2.249   1.128   7.428  1.5551 -0.8331  3.5397
 8630SOL    HW228783   2.274   1.004   7.345 -0.8539  1.4745 -1.0438
 8631SOL     OW28784   3.450   7.484   2.616  0.0969 -0.2717 -0.1786
 8631SOL    HW128785   3.398   7.431   2.555  0.1953 -0.4588 -0.1015
 8631SOL    HW228786   3.421   7.455   2.703 -1.3118  1.2168 -0.0953
 8632SOL     OW28787   1.977   1.438   6.909 -0.0321  0.0325  0.7876
 8632SOL    HW128788   1.899   1.383   6.894  0.4263 -0.5536  0.5268
 8632SOL    HW228789   1.988   1.437   7.004 -0.5327  0.3832  0.8526
 8633SOL     OW28790   7.518   8.749   9.173  0.2826 -0.6206  0.0874
 8633SOL    HW128791   7.485   8.666   9.207  0.9117 -2.1013 -2.5623
 8633SOL    HW228792   7.589   8.773   9.232 -1.3723 -0.7014  2.2101
 8634SOL     OW28793   2.270   7.481   6.674  0.4422 -0.1796  1.1130
 8634SOL    HW128794   2.345   7.541   6.670 -0.4247  0.9048  0.4783
 8634SOL    HW228795   2.205   7.521   6.616 -0.3611 -1.4818  1.0823
 8635SOL     OW28796   5.470   0.506   1.663 -0.0546  0.0793 -0.4139
 8635SOL    HW128797   5.425   0.571   1.716  0.3437  0.6986 -0.8140
 8635SOL    HW228798   5.563   0.517   1.684  0.0223 -0.3326 -0.5178
 8636SOL     OW28799   6.475   2.339   2.297  0.0654  0.2978 -0.2215
 8636SOL    HW128800   6.530   2.370   2.370  1.1908 -1.4769 -0.2586
 8636SOL    HW228801   6.414   2.278   2.338  0.2882 -0.2302 -0.6699
 8637SOL     OW28802   1.764   8.142   3.431  0.1757  0.1082  0.5253
 8637SOL    HW128803   1.726   8.137   3.343 -1.4332  0.2090  1.1994
 8637SOL    HW228804   1.691   8.130   3.490  1.3301 -0.5879  1.8802
 8638SOL     OW28805   2.849   7.913   0.282  0.3302  0.1669  0.1803
 8638SOL    HW128806   2.814   7.843   0.337  0.3234  2.1259  2.8642
 8638SOL    HW228807   2.772   7.960   0.250  0.3277  1.0910  1.4457
 8639SOL     OW28808   6.102   4.333   8.828  0.3471 -0.1935  0.4585
 8639SOL    HW128809   6.154   4.256   8.851 -1.4537 -0.8591  2.7608
 8639SOL    HW228810   6.132   4.401   8.887 -1.4956 -0.6863  2.0635
 8640SOL     OW28811   8.967   7.984   7.157 -0.4331  0.2365  0.1244
 8640SOL    HW128812   8.913   8.033   7.096 -1.7373  0.7860  1.6579
 8640SOL    HW228813   8.920   7.902   7.171 -0.8302  0.6490  1.3409
 8641SOL     OW28814   0.890   7.000   5.489 -0.9194 -0.1500 -0.4553
 8641SOL    HW128815   0.918   6.909   5.501 -0.5672  0.0101 -0.0286
 8641SOL    HW228816   0.879   7.034   5.577  1.1040  0.8718 -0.5345
 8642SOL     OW28817   0.007   8.964   6.856  0.4317  0.5574 -0.2186
 8642SOL    HW128818  -0.086   8.981   6.837  0.5633  0.3642 -1.0547
 8642SOL    HW228819   0.040   8.920   6.778  1.2761  0.7881  0.0022
 8643SOL     OW28820   6.391   1.473   5.152  0.1464  0.0871 -0.2283
 8643SOL    HW128821   6.371   1.417   5.227  1.1255  0.8533  0.6340
 8643SOL    HW228822   6.390   1.414   5.077 -1.4087 -0.5885  0.2909
 8644SOL     OW28823   3.920   6.625   8.189 -0.4775 -0.6090 -0.1750
 8644SOL    HW128824   3.831   6.589   8.189  0.1312 -2.1695 -0.3787
 8644SOL    HW228825   3.910   6.711   8.149 -1.8150 -0.9657 -0.6788
 8645SOL     OW28826   3.127   4.688   2.870  0.2104 -0.4551  0.2465
 8645SOL    HW128827   3.106   4.738   2.949  1.4668  0.1999  0.1854
 8645SOL    HW228828   3.117   4.597   2.897 -3.0035 -0.2556  0.1101
 8646SOL     OW28829   8.704   8.998   1.174  0.2617  0.1943 -0.7581
 8646SOL    HW128830   8.705   8.985   1.269 -1.7903  1.5274 -0.5009
 8646SOL    HW228831   8.711   8.910   1.138 -1.5634 -0.6048  0.6966
 8647SOL     OW28832   7.399   5.916   2.537  0.2883  0.0799 -0.3034
 8647SOL    HW128833   7.476   5.971   2.546  0.3675 -0.0408 -0.2477
 8647SOL    HW228834   7.347   5.959   2.468  0.1379  0.4637  0.0457
 8648SOL     OW28835   1.850   6.120   2.916  0.4355  0.0556  0.1546
 8648SOL    HW128836   1.946   6.126   2.923  0.6693  1.0987 -2.6102
 8648SOL    HW228837   1.835   6.035   2.874  0.2807  0.4137 -0.5404
 8649SOL     OW28838   4.737   5.363   3.550  0.5574  0.0003 -0.4320
 8649SOL    HW128839   4.697   5.307   3.483 -0.2875 -0.1423  0.1652
 8649SOL    HW228840   4.677   5.437   3.557  0.4429 -0.1667  0.4188
 8650SOL     OW28841   8.721   3.245   3.308 -0.2816  0.3394  0.1072
 8650SOL    HW128842   8.710   3.179   3.376  0.9188 -1.5374 -1.4021
 8650SOL    HW228843   8.636   3.248   3.264 -0.0599 -0.9982 -0.4480
 8651SOL     OW28844   2.974   8.634   4.115 -0.3415 -0.3198 -0.2078
 8651SOL    HW128845   2.982   8.594   4.201  1.5259  0.0717 -0.1633
 8651SOL    HW228846   3.024   8.715   4.121  0.5162 -0.6691 -1.8898
 8652SOL     OW28847   2.148   0.199   3.872  0.7575 -0.4575 -0.2671
 8652SOL    HW128848   2.221   0.142   3.850 -1.1634 -2.3750 -2.1854
 8652SOL    HW228849   2.138   0.256   3.796  1.3044  1.0319  0.7317
 8653SOL     OW28850   7.445   6.453   6.076  0.0220 -0.1575  0.9324
 8653SOL    HW128851   7.460   6.360   6.095 -0.1630 -0.2316  0.7145
 8653SOL    HW228852   7.350   6.462   6.074  0.0334  0.1172  1.3409
 8654SOL     OW28853   6.368   7.908   1.987 -0.1335  0.1106  0.3140
 8654SOL    HW128854   6.304   7.891   2.055 -0.1029 -2.9784 -0.3037
 8654SOL    HW228855   6.328   7.875   1.907  1.3512  0.0862 -0.4590
 8655SOL     OW28856   1.081   1.810   8.798 -0.0332 -0.2747 -0.1158
 8655SOL    HW128857   1.014   1.756   8.840 -0.7406 -0.6960 -1.7225
 8655SOL    HW228858   1.159   1.754   8.795  0.0392 -0.2236  0.6447
 8656SOL     OW28859   1.673   5.192   6.854 -0.1616  0.1034  0.1788
 8656SOL    HW128860   1.679   5.242   6.772  0.3108  0.1744  0.2557
 8656SOL    HW228861   1.748   5.133   6.852 -0.9330 -0.9009 -0.0973
 8657SOL     OW28862   0.731   4.680   3.889  0.4522  0.0546 -0.0710
 8657SOL    HW128863   0.801   4.739   3.860  1.2036 -0.8924 -0.2249
 8657SOL    HW228864   0.650   4.725   3.865  0.8779  2.4664  2.4712
 8658SOL     OW28865   4.703   8.907   6.415 -0.2346  0.5131 -0.1477
 8658SOL    HW128866   4.789   8.867   6.425  0.0755  1.0611 -0.5497
 8658SOL    HW228867   4.641   8.837   6.437  0.3089  0.0911  0.0632
 8659SOL     OW28868   0.583   9.084   0.834  0.3180  0.4486  0.5270
 8659SOL    HW128869   0.587   9.177   0.859 -0.8453  0.6141  0.1506
 8659SOL    HW228870   0.597   9.037   0.917  1.8629  0.9302  0.5690
 8660SOL     OW28871   1.584   7.141   7.353  0.0783 -0.0394 -0.2472
 8660SOL    HW128872   1.569   7.181   7.438  0.1648  1.8047 -1.0538
 8660SOL    HW228873   1.537   7.058   7.357 -1.6740  0.9479  0.8710
 8661SOL     OW28874   2.632   2.655   1.132  0.2502  0.5025 -0.1649
 8661SOL    HW128875   2.551   2.689   1.169  1.3696  1.1658  1.7963
 8661SOL    HW228876   2.639   2.698   1.046 -2.6557 -1.4766 -1.5574
 8662SOL     OW28877   6.599   4.051   6.464  0.0128 -0.0260 -0.3432
 8662SOL    HW128878   6.519   4.065   6.413  0.6119  0.7298 -1.1175
 8662SOL    HW228879   6.652   4.130   6.448 -0.4695  1.0954  2.8572
 8663SOL     OW28880   7.111   1.603   7.520  0.2000 -0.2250  0.4272
 8663SOL    HW128881   7.017   1.602   7.538  0.5189  0.0511  2.3078
 8663SOL    HW228882   7.132   1.696   7.509  0.2496 -0.2975 -0.1481
 8664SOL     OW28883   1.661   7.136   2.852  0.0806  0.3834  0.2632
 8664SOL    HW128884   1.746   7.179   2.842  1.2378 -1.6743  0.6638
 8664SOL    HW228885   1.675   7.048   2.817 -1.3206 -0.6368  2.1063
 8665SOL     OW28886   1.929   5.988   8.900  0.5731  0.0951  0.1255
 8665SOL    HW128887   1.973   6.032   8.973 -0.6357 -0.2434  1.1122
 8665SOL    HW228888   1.980   5.908   8.886  1.6143  0.8201 -0.3403
 8666SOL     OW28889   5.647   1.868   0.905 -0.6747  0.6269  0.7682
 8666SOL    HW128890   5.616   1.816   0.831 -0.8811  1.2818  0.3811
 8666SOL    HW228891   5.626   1.817   0.982  0.7052 -0.6893  0.3308
 8667SOL     OW28892   8.847   1.820   8.726 -0.1354 -0.1031  0.1730
 8667SOL    HW128893   8.761   1.792   8.695  0.2970 -0.6084 -0.6127
 8667SOL    HW228894   8.831   1.902   8.772 -0.7296  1.0811 -2.0198
 8668SOL     OW28895   3.874   5.924   5.653 -0.0189  0.0344  0.2803
 8668SOL    HW128896   3.863   5.829   5.658  1.6446 -0.1467  1.4130
 8668SOL    HW228897   3.909   5.940   5.566  0.0361 -0.4338  0.2132
 8669SOL     OW28898   5.068   0.471   5.404  0.1366  0.8970 -0.3680
 8669SOL    HW128899   5.137   0.410   5.379  1.7180  2.3174  0.2614
 8669SOL    HW228900   5.001   0.417   5.445  0.5014 -0.6330 -1.6793
 8670SOL     OW28901   4.475   6.999   0.107  0.0950  0.4373  0.0038
 8670SOL    HW128902   4.451   6.918   0.152  0.1954  0.0633 -0.6039
 8670SOL    HW228903   4.489   7.063   0.177 -0.1821 -0.0173  0.4767
 8671SOL     OW28904   6.130   3.131   1.251  0.2428  0.2539 -0.4265
 8671SOL    HW128905   6.068   3.126   1.179 -0.5259 -2.0207  0.3010
 8671SOL    HW228906   6.136   3.041   1.284  2.6452  0.7144  0.6274
 8672SOL     OW28907   6.806   8.286   8.357 -0.2481 -0.2984 -0.0318
 8672SOL    HW128908   6.851   8.288   8.441  0.5584 -0.5997 -0.4494
 8672SOL    HW228909   6.806   8.193   8.332 -2.5022 -0.5580  0.6964
 8673SOL     OW28910   8.591   0.893   0.334 -0.2519 -0.1816  0.5324
 8673SOL    HW128911   8.570   0.983   0.310 -0.0161  0.1282  1.4360
 8673SOL    HW228912   8.680   0.880   0.302  0.1037  0.2678  1.2935
 8674SOL     OW28913   1.037   4.077   7.646  0.2929  0.6277 -0.4648
 8674SOL    HW128914   1.125   4.062   7.679  0.6038  0.3263 -1.3964
 8674SOL    HW228915   1.046   4.148   7.582  0.0371 -0.0329 -1.2568
 8675SOL     OW28916   3.940   6.556   6.345 -0.3045 -0.1864  0.0782
 8675SOL    HW128917   3.916   6.470   6.380 -0.5459 -0.3857 -0.5626
 8675SOL    HW228918   3.879   6.571   6.273  1.6807 -0.8697 -1.8478
 8676SOL     OW28919   2.895   3.791   8.382  0.7115 -0.4954 -0.2687
 8676SOL    HW128920   2.899   3.816   8.474 -2.2579  1.4975 -0.5319
 8676SOL    HW228921   2.919   3.872   8.335 -1.1645 -0.4263 -1.1876
 8677SOL     OW28922   1.021   1.505   2.468 -0.2116 -0.2321 -0.0689
 8677SOL    HW128923   1.039   1.538   2.556  1.1398 -2.1625  0.4527
 8677SOL    HW228924   0.926   1.496   2.465 -0.2869 -0.0242  1.1592
 8678SOL     OW28925   4.354   1.509   4.941 -0.0425 -0.3580 -0.3108
 8678SOL    HW128926   4.365   1.542   5.030 -0.6669 -0.7222 -0.0887
 8678SOL    HW228927   4.419   1.440   4.932  1.9036  1.4693 -1.0888
 8679SOL     OW28928   6.061   2.013   4.039 -0.3608 -0.1663 -0.0217
 8679SOL    HW128929   6.018   1.936   4.076  1.0528 -0.1515  1.7604
 8679SOL    HW228930   6.153   2.002   4.060  0.0478  1.4427 -0.8059
 8680SOL     OW28931   4.563   0.722   1.247  0.3398 -0.1045  0.0732
 8680SOL    HW128932   4.602   0.773   1.176  2.4499 -0.8278  0.6309
 8680SOL    HW228933   4.603   0.756   1.327 -0.4344 -0.6772  0.7291
 8681SOL     OW28934   0.220   2.206   1.116  0.2396  0.6212 -0.6648
 8681SOL    HW128935   0.297   2.152   1.137  0.4529  1.2879  0.3497
 8681SOL    HW228936   0.165   2.149   1.062  1.1207 -0.1073 -0.8206
 8682SOL     OW28937   8.793   5.053   1.079 -0.2396  0.1051  0.1754
 8682SOL    HW128938   8.815   5.081   0.990  0.8895  0.3058  0.5129
 8682SOL    HW228939   8.705   5.015   1.070 -0.4485  0.7899 -0.8852
 8683SOL     OW28940   2.841   6.289   9.217  0.2927  0.2207  0.5213
 8683SOL    HW128941   2.904   6.225   9.184 -0.4259 -1.3612  2.0326
 8683SOL    HW228942   2.808   6.333   9.139 -0.2040 -2.2218 -0.7522
 8684SOL     OW28943   2.976   0.467   8.553  0.3515 -0.4715  0.8978
 8684SOL    HW128944   2.900   0.429   8.597 -0.4259  0.6554  0.5602
 8684SOL    HW228945   2.992   0.411   8.478 -0.6223 -0.2823  0.5460
 8685SOL     OW28946   4.677   9.138   9.004 -0.4830 -0.3943  0.1022
 8685SOL    HW128947   4.706   9.093   8.925 -1.5003 -1.4668  0.3132
 8685SOL    HW228948   4.624   9.211   8.973  1.7557  1.1990 -0.2661
 8686SOL     OW28949   9.172   0.880   5.714  0.0489  0.1695  0.5497
 8686SOL    HW128950   9.218   0.803   5.746  0.1397 -0.2027 -0.4222
 8686SOL    HW228951   9.088   0.846   5.682 -0.2068  0.5813  0.7785
 8687SOL     OW28952   7.441   4.515   3.914 -0.0889 -0.3067 -0.3220
 8687SOL    HW128953   7.431   4.555   3.828  1.9666  2.3170  0.5062
 8687SOL    HW228954   7.503   4.443   3.900  0.5448  0.3516 -1.0161
 8688SOL     OW28955   5.923   8.669   7.831  0.3522  0.1553 -0.0888
 8688SOL    HW128956   5.941   8.687   7.923  1.0346 -2.5352  0.3925
 8688SOL    HW228957   6.006   8.687   7.786  0.8756 -1.1437  0.3048
 8689SOL     OW28958   4.923   9.119   6.434  0.5036 -0.0086  0.1457
 8689SOL    HW128959   4.915   9.166   6.517 -2.0536 -1.5418  0.8756
 8689SOL    HW228960   4.840   9.074   6.424  1.2111 -0.8791 -2.6805
 8690SOL     OW28961   4.400   3.873   8.337 -0.3658 -0.4769 -0.6026
 8690SOL    HW128962   4.310   3.900   8.320 -0.0802  0.5287 -0.5590
 8690SOL    HW228963   4.397   3.835   8.425 -0.0636  3.1041  1.1085
 8691SOL     OW28964   3.400   5.728   6.811  0.5237 -0.7164 -0.8561
 8691SOL    HW128965   3.469   5.703   6.873  0.5925 -2.4575 -1.5635
 8691SOL    HW228966   3.425   5.815   6.781  2.5284 -1.3467 -1.1938
 8692SOL     OW28967   4.859   5.465   1.451 -0.5364 -0.2138  0.1802
 8692SOL    HW128968   4.934   5.406   1.458 -1.1214 -0.8156  1.8513
 8692SOL    HW228969   4.895   5.553   1.465 -0.2451 -0.5835  1.9430
 8693SOL     OW28970   0.500   1.511   9.102  0.1279 -0.4315  0.0578
 8693SOL    HW128971   0.485   1.484   9.012 -0.1443 -0.4330  0.1039
 8693SOL    HW228972   0.586   1.553   9.100  0.5254 -1.2293 -0.0320
 8694SOL     OW28973   7.543   0.629   8.490 -0.1157 -0.6767 -0.2315
 8694SOL    HW128974   7.585   0.579   8.420 -1.9323  1.1589 -2.8262
 8694SOL    HW228975   7.495   0.563   8.541  0.7948 -2.0153 -1.0344
 8695SOL     OW28976   0.340   0.746   8.007 -0.5119  0.6932 -0.0335
 8695SOL    HW128977   0.328   0.723   7.914  0.3226 -1.0983  0.2558
 8695SOL    HW228978   0.291   0.679   8.054 -0.5229  1.3087  0.8360
 8696SOL     OW28979   0.843   2.709   1.283  0.0696  0.2065  0.6637
 8696SOL    HW128980   0.905   2.729   1.353 -1.0577  0.0725  1.7272
 8696SOL    HW228981   0.885   2.639   1.233  1.5055  1.2480  0.3277
 8697SOL     OW28982   2.335   2.223   2.948  0.2349 -0.7906  0.1089
 8697SOL    HW128983   2.429   2.207   2.958  1.1603  3.2559 -0.5839
 8697SOL    HW228984   2.301   2.220   3.037  1.7797  1.1698  0.8330
 8698SOL     OW28985   0.053   0.528   2.496  0.3369  0.6860  0.5224
 8698SOL    HW128986   0.048   0.435   2.520  0.3636  0.0493 -1.6622
 8698SOL    HW228987  -0.036   0.561   2.507 -0.2199 -0.2452 -0.8053
 8699SOL     OW28988   4.662   4.020   0.783 -0.7359  0.0207 -0.2046
 8699SOL    HW128989   4.619   3.964   0.719 -1.2601 -1.7013  1.5444
 8699SOL    HW228990   4.726   3.963   0.826 -0.7818  0.9573  1.1713
 8700SOL     OW28991   5.497   5.210   2.928  0.0185  0.1603 -0.0088
 8700SOL    HW128992   5.460   5.235   3.013 -2.7304 -3.0700 -0.0826
 8700SOL    HW228993   5.555   5.136   2.948 -0.2908 -0.3292 -0.8652
 8701SOL     OW28994   2.729   2.058   2.871  0.0951 -0.1678  0.2022
 8701SOL    HW128995   2.822   2.036   2.873 -0.2094 -1.6017  2.7319
 8701SOL    HW228996   2.726   2.151   2.891  0.9633 -0.3323  1.1620
 8702SOL     OW28997   8.756   3.570   1.902 -0.0959 -0.2299 -0.0222
 8702SOL    HW128998   8.696   3.643   1.895  1.3836  1.0825  0.3423
 8702SOL    HW228999   8.772   3.560   1.995 -0.1361 -0.9054 -0.0784
 8703SOL     OW29000   3.293   0.858   1.736  0.6563 -0.3546  0.2164
 8703SOL    HW129001   3.289   0.889   1.826 -2.1878 -2.1268  0.8502
 8703SOL    HW229002   3.295   0.762   1.744 -0.3657 -0.5727 -1.5432
 8704SOL     OW29003   5.933   3.075   3.358  0.0635  0.2720  0.1784
 8704SOL    HW129004   5.880   3.143   3.317 -0.5050 -0.3095 -0.0648
 8704SOL    HW229005   5.869   3.009   3.388  0.4395  0.7047  2.0705
 8705SOL     OW29006   4.079   2.584   3.531 -0.4054 -0.3907 -0.4293
 8705SOL    HW129007   4.124   2.649   3.585  0.3473 -1.0558 -0.2294
 8705SOL    HW229008   3.987   2.590   3.556 -0.5975  1.5473 -1.3979
 8706SOL     OW29009   6.661   2.326   3.458  0.0856  0.2738 -0.5323
 8706SOL    HW129010   6.589   2.267   3.480  0.4575 -0.2843 -0.8134
 8706SOL    HW229011   6.695   2.293   3.375  1.4735 -0.2179  0.2057
 8707SOL     OW29012   0.041   4.463   1.219 -0.0767 -0.1431  0.0111
 8707SOL    HW129013   0.011   4.387   1.268  1.4712  0.6856  2.4104
 8707SOL    HW229014  -0.038   4.516   1.208 -0.7103 -0.9569  0.4922
 8708SOL     OW29015   6.010   5.710   2.401  0.4334 -0.2436  0.1879
 8708SOL    HW129016   6.104   5.701   2.384  0.1302 -0.9794 -1.2611
 8708SOL    HW229017   6.001   5.796   2.443  1.7332 -0.1021  0.2042
 8709SOL     OW29018   1.224   2.573   0.295  0.2681 -0.6630  1.2005
 8709SOL    HW129019   1.299   2.528   0.332  0.8055  0.6179  1.7364
 8709SOL    HW229020   1.166   2.503   0.265  2.2436 -1.6765 -0.4556
 8710SOL     OW29021   5.162   5.978   4.550 -0.2572 -0.0520  0.2639
 8710SOL    HW129022   5.112   5.999   4.629  0.7738  1.3338  0.5826
 8710SOL    HW229023   5.104   6.002   4.478 -0.0012  1.8466  0.6277
 8711SOL     OW29024   6.424   7.694   1.204  0.3166  0.0918 -0.2028
 8711SOL    HW129025   6.413   7.759   1.273 -1.6463 -2.2312  1.8940
 8711SOL    HW229026   6.335   7.677   1.172  0.6921 -1.7671 -0.3844
 8712SOL     OW29027   4.675   6.056   4.242 -0.2243 -0.1655 -0.1379
 8712SOL    HW129028   4.696   6.013   4.159  0.9091  1.2422 -0.6189
 8712SOL    HW229029   4.664   6.148   4.219  0.3005  0.2802  1.2974
 8713SOL     OW29030   3.207   2.521   9.035 -0.2988 -0.0380 -0.4319
 8713SOL    HW129031   3.249   2.604   9.012 -0.2414 -0.5398 -2.2924
 8713SOL    HW229032   3.139   2.510   8.970 -1.1981 -0.8296  0.6007
 8714SOL     OW29033   2.017   2.766   2.051  0.3877  0.1653  0.0188
 8714SOL    HW129034   2.016   2.711   2.129  2.1696  2.0157  1.4608
 8714SOL    HW229035   2.106   2.758   2.016  0.0214  0.4265 -1.0404
 8715SOL     OW29036   4.840   7.189   0.757 -1.0967 -1.0478  0.0249
 8715SOL    HW129037   4.842   7.285   0.757  1.4002 -1.0386 -0.4964
 8715SOL    HW229038   4.797   7.166   0.839  0.1701  0.5378  1.2081
 8716SOL     OW29039   7.344   2.379   2.031 -0.2246  0.4830 -0.6646
 8716SOL    HW129040   7.294   2.449   2.073  1.9047  0.5276  2.0404
 8716SOL    HW229041   7.283   2.305   2.025 -1.6053  1.5998 -0.8074
 8717SOL     OW29042   0.969   8.505   3.101 -0.3535 -0.4347  0.1408
 8717SOL    HW129043   0.930   8.436   3.047 -0.4548 -0.2322 -0.0457
 8717SOL    HW229044   0.895   8.546   3.146 -0.1920 -1.1921  1.1476
 8718SOL     OW29045   5.961   6.833   8.060  0.2529  0.1210 -0.3287
 8718SOL    HW129046   6.034   6.862   8.005  0.3610 -0.4157 -0.4839
 8718SOL    HW229047   5.996   6.756   8.106 -0.1684 -0.0582 -0.3054
 8719SOL     OW29048   8.107   3.712   5.374 -0.1075 -0.5230 -0.1872
 8719SOL    HW129049   8.017   3.705   5.342  0.0495  0.1541 -0.8258
 8719SOL    HW229050   8.129   3.805   5.363 -0.3744 -0.0042  2.9081
 8720SOL     OW29051   0.746   4.165   0.657 -0.1207  0.7580  0.0137
 8720SOL    HW129052   0.652   4.184   0.662  0.1733  2.1796  0.5999
 8720SOL    HW229053   0.774   4.164   0.748  0.5669  1.0431 -0.1948
 8721SOL     OW29054   5.973   1.001   0.564  0.3208 -0.0039  0.3310
 8721SOL    HW129055   5.981   0.918   0.518 -0.9862  0.8255 -1.5182
 8721SOL    HW229056   5.909   0.985   0.633  0.6364 -0.7077  0.4683
 8722SOL     OW29057   0.479   1.561   4.059  0.5420  0.0037 -0.2871
 8722SOL    HW129058   0.550   1.502   4.085  0.5368 -0.5328 -1.4513
 8722SOL    HW229059   0.410   1.545   4.124  1.7155  1.0883  1.3374
 8723SOL     OW29060   6.369   8.715   5.053  0.1210  0.1390 -0.2758
 8723SOL    HW129061   6.314   8.760   5.117 -0.2204  0.0634 -0.5074
 8723SOL    HW229062   6.397   8.785   4.993 -1.5625 -0.1305 -1.4593
 8724SOL     OW29063   6.644   4.952   5.524  0.4911  0.5380  0.1471
 8724SOL    HW129064   6.634   4.927   5.616 -1.5041 -1.4863 -0.5399
 8724SOL    HW229065   6.555   4.953   5.489  1.2945 -0.2494 -2.1252
 8725SOL     OW29066   1.145   6.343   1.420  0.0930  0.5287  0.3837
 8725SOL    HW129067   1.094   6.396   1.480  1.8062  1.8174  0.7932
 8725SOL    HW229068   1.235   6.347   1.454  1.1056  1.1207 -2.0864
 8726SOL     OW29069   8.913   7.153   5.702 -0.0647 -0.1502  0.5284
 8726SOL    HW129070   8.930   7.072   5.748  0.6952 -1.0479 -1.2338
 8726SOL    HW229071   8.998   7.195   5.693 -0.2764  0.2676  0.3974
 8727SOL     OW29072   9.052   0.537   2.040  1.1010 -0.7840 -0.2391
 8727SOL    HW129073   9.095   0.571   1.962 -0.4071  1.5051 -0.1713
 8727SOL    HW229074   8.972   0.495   2.007 -0.1987  1.3164  0.0837
 8728SOL     OW29075   0.906   0.091   6.834 -0.3232  0.5550 -0.2709
 8728SOL    HW129076   0.811   0.098   6.824 -0.1975  2.5070 -0.4175
 8728SOL    HW229077   0.921  -0.001   6.858 -2.4400  0.7120  1.9705
 8729SOL     OW29078   0.936   3.882   3.341  0.2508  0.1454 -0.1936
 8729SOL    HW129079   0.981   3.862   3.259  0.0536 -0.5158 -0.1474
 8729SOL    HW229080   0.843   3.866   3.322  0.1675  0.3025  0.0697
 8730SOL     OW29081   2.794   0.771   2.729 -0.1584  0.3646 -0.0654
 8730SOL    HW129082   2.843   0.827   2.669  1.6744 -0.0141  0.9755
 8730SOL    HW229083   2.735   0.831   2.775  2.2245  1.6809  1.4987
 8731SOL     OW29084   4.586   1.079   5.119  0.6317  0.1755 -0.0003
 8731SOL    HW129085   4.646   1.135   5.169 -0.0563 -0.1221  1.1991
 8731SOL    HW229086   4.530   1.039   5.185 -0.0533 -0.5559 -0.9932
 8732SOL     OW29087   7.164   3.910   3.412 -0.1349 -0.0968  0.0758
 8732SOL    HW129088   7.221   3.956   3.350  1.0448 -0.8213  0.5911
 8732SOL    HW229089   7.146   3.826   3.371 -0.2858 -0.1399  0.2285
 8733SOL     OW29090   8.589   1.094   0.125  0.5282  0.3243  0.3667
 8733SOL    HW129091   8.593   1.055   0.037  0.2231 -1.7944  1.2403
 8733SOL    HW229092   8.499   1.124   0.134  0.0342 -1.1227  0.5816
 8734SOL     OW29093   5.674   4.922   9.005  0.0043  0.4279  0.3150
 8734SOL    HW129094   5.734   4.954   8.937 -0.9881 -0.8006 -1.2054
 8734SOL    HW229095   5.732   4.890   9.074  1.2852 -2.1371 -1.7398
 8735SOL     OW29096   0.651   7.990   5.700  0.1540 -0.5714  0.4266
 8735SOL    HW129097   0.577   8.009   5.759 -0.9370 -0.0719 -1.0300
 8735SOL    HW229098   0.633   7.902   5.667 -1.2237  0.4786 -1.8498
 8736SOL     OW29099   3.040   8.742   3.824  0.1920 -1.0523 -0.0404
 8736SOL    HW129100   3.042   8.669   3.886 -0.3276 -1.1235 -0.1037
 8736SOL    HW229101   2.949   8.769   3.822  0.5705  0.4708  1.0114
 8737SOL     OW29102   6.330   3.176   7.319  0.1141  0.5747 -0.2259
 8737SOL    HW129103   6.304   3.112   7.252  0.5137 -0.4124  0.5339
 8737SOL    HW229104   6.270   3.159   7.392 -0.4695  1.8004 -0.3942
 8738SOL     OW29105   2.865   4.245   8.896 -0.5343 -0.6336  0.1328
 8738SOL    HW129106   2.918   4.325   8.896 -0.6045 -0.4747  3.0400
 8738SOL    HW229107   2.778   4.274   8.871 -0.0316 -0.3095 -1.3729
 8739SOL     OW29108   0.278   7.949   4.784  0.0787  0.3373  0.4270
 8739SOL    HW129109   0.290   7.898   4.704  0.8918  0.3177  0.5559
 8739SOL    HW229110   0.190   7.926   4.814  0.6099 -1.3622  0.7548
 8740SOL     OW29111   2.002   1.558   3.842 -0.0834  0.1593 -0.3647
 8740SOL    HW129112   2.033   1.609   3.917  0.5588  0.0988 -0.5785
 8740SOL    HW229113   1.930   1.505   3.877  1.2177 -1.0388  0.6143
 8741SOL     OW29114   1.603   6.226   1.242 -0.4140  0.2706  0.0880
 8741SOL    HW129115   1.558   6.309   1.225  0.6538  0.8284 -0.0887
 8741SOL    HW229116   1.664   6.217   1.169  0.9036  0.3417  1.1469
 8742SOL     OW29117   0.549   5.333   3.942  0.3685  0.5696  0.0390
 8742SOL    HW129118   0.525   5.253   3.895  0.2205  0.0833  0.9126
 8742SOL    HW229119   0.545   5.402   3.876  0.4568 -0.1380 -0.7216
 8743SOL     OW29120   2.576   4.127   0.068  0.2924  0.5290 -0.1843
 8743SOL    HW129121   2.564   4.032   0.055  2.4348  0.3818 -1.8023
 8743SOL    HW229122   2.609   4.135   0.157 -1.3632 -0.0529  0.5164
 8744SOL     OW29123   4.176   7.771   5.099 -0.0072  0.6596  0.0896
 8744SOL    HW129124   4.119   7.713   5.049  0.9417 -0.4552  0.2746
 8744SOL    HW229125   4.133   7.857   5.094 -0.8662  0.1816 -1.0922
 8745SOL     OW29126   7.771   2.189   2.665  0.4521  0.3743 -0.5605
 8745SOL    HW129127   7.840   2.168   2.602 -0.0268  1.3510 -1.4288
 8745SOL    HW229128   7.763   2.284   2.661 -0.6117  0.3135 -0.1070
 8746SOL     OW29129   8.557   9.087   5.728 -0.2195 -0.0933 -0.6113
 8746SOL    HW129130   8.569   9.001   5.689  0.1590  0.4931 -1.8465
 8746SOL    HW229131   8.641   9.106   5.770  0.1941  0.2491 -1.5588
 8747SOL     OW29132   1.064   4.058   4.182 -0.8498  0.2579 -0.4956
 8747SOL    HW129133   1.102   3.975   4.210 -0.0546  0.2589 -1.5280
 8747SOL    HW229134   1.063   4.054   4.086 -0.9125  1.3885 -0.5658
 8748SOL     OW29135   3.707   4.354   3.631  0.1218 -0.2199 -0.2186
 8748SOL    HW129136   3.639   4.379   3.569  1.2264 -0.1815 -1.4517
 8748SOL    HW229137   3.680   4.394   3.714 -0.5002  1.1905 -1.0739
 8749SOL     OW29138   5.011   3.818   4.857  0.2633 -0.4803  0.2149
 8749SOL    HW129139   4.979   3.905   4.835 -0.7675 -0.7867  0.4579
 8749SOL    HW229140   4.972   3.800   4.943  0.6586 -1.0956  0.2700
 8750SOL     OW29141   2.923   2.342   7.535 -0.3373 -0.1468 -0.1010
 8750SOL    HW129142   2.832   2.314   7.546 -0.5002  0.1280 -0.7128
 8750SOL    HW229143   2.942   2.392   7.614 -0.3498 -1.1606  0.5573
 8751SOL     OW29144   5.864   4.889   4.005 -0.3896  0.5448 -0.5222
 8751SOL    HW129145   5.945   4.926   3.972 -0.8852  1.1412 -1.0929
 8751SOL    HW229146   5.878   4.794   4.003  0.0671  0.6239 -1.1872
 8752SOL     OW29147   1.294   4.412   6.341  0.0258 -0.8192  0.1122
 8752SOL    HW129148   1.219   4.392   6.284  1.9656  1.6432 -3.7653
 8752SOL    HW229149   1.359   4.346   6.318  0.2084 -0.9714  1.0330
 8753SOL     OW29150   9.173   7.170   6.556  0.1536  0.3480 -0.4326
 8753SOL    HW129151   9.196   7.200   6.468  2.6152  0.1847  0.0766
 8753SOL    HW229152   9.180   7.248   6.611  2.0882 -0.1579  0.1347
 8754SOL     OW29153   4.558   7.360   9.147  0.3746 -0.1111 -0.3330
 8754SOL    HW129154   4.643   7.392   9.117  1.1685 -0.5546  1.2687
 8754SOL    HW229155   4.579   7.311   9.227 -1.6809  2.1829  1.7977
 8755SOL     OW29156   1.937   7.521   6.106 -0.1631 -0.7409 -0.2353
 8755SOL    HW129157   1.939   7.468   6.027  0.1027 -1.9638  0.5561
 8755SOL    HW229158   2.004   7.481   6.163  0.6435  0.9596  0.0802
 8756SOL     OW29159   5.959   3.720   0.514 -0.4636  0.1507  0.6236
 8756SOL    HW129160   5.982   3.795   0.569  0.5854  0.7137 -0.5445
 8756SOL    HW229161   5.942   3.758   0.427  0.6060 -1.0113 -0.1223
 8757SOL     OW29162   6.116   2.210   8.989 -0.0535  0.0793  0.3160
 8757SOL    HW129163   6.029   2.182   8.962 -0.0987  1.1345 -0.7386
 8757SOL    HW229164   6.176   2.146   8.950 -0.2862  0.0905 -0.0652
 8758SOL     OW29165   8.241   5.186   3.164 -0.4584  0.6281 -0.4078
 8758SOL    HW129166   8.329   5.158   3.192  0.0662 -1.2954 -3.4403
 8758SOL    HW229167   8.182   5.141   3.224  0.5517  1.4302  1.2820
 8759SOL     OW29168   0.155   5.668   3.707 -0.2938  0.2469 -0.4982
 8759SOL    HW129169   0.225   5.699   3.649  0.3532  0.4172  0.3459
 8759SOL    HW229170   0.201   5.617   3.774 -1.1078 -0.6181 -0.5747
 8760SOL     OW29171   4.206   4.617   0.676  0.7012  0.0708  0.4676
 8760SOL    HW129172   4.197   4.592   0.584 -0.7517  1.0345  0.3077
 8760SOL    HW229173   4.275   4.560   0.710  2.3844  0.7624 -1.6014
 8761SOL     OW29174   7.272   8.146   2.671 -0.2985 -0.0054  0.0499
 8761SOL    HW129175   7.189   8.173   2.629  0.2543 -0.1628 -1.1885
 8761SOL    HW229176   7.316   8.229   2.690 -0.8962  0.0963  1.0886
 8762SOL     OW29177   2.844   7.396   8.059 -0.2016 -0.4267 -0.4678
 8762SOL    HW129178   2.894   7.451   8.120  0.1561 -2.2216  0.9541
 8762SOL    HW229179   2.876   7.420   7.973  0.0812  1.4182  0.1001
 8763SOL     OW29180   7.709   2.382   0.110 -0.0369 -0.1552  0.0632
 8763SOL    HW129181   7.724   2.290   0.088  1.9379  0.5337 -1.8328
 8763SOL    HW229182   7.624   2.403   0.070 -0.8923 -1.3104  1.1981
 8764SOL     OW29183   6.128   1.354   6.781  0.6099 -0.3926  0.6483
 8764SOL    HW129184   6.199   1.329   6.840  0.3614 -2.5255  0.1385
 8764SOL    HW229185   6.077   1.418   6.830  1.7930 -0.2623  1.7611
 8765SOL     OW29186   4.511   8.351   7.679  0.6517  0.7654  0.1556
 8765SOL    HW129187   4.553   8.426   7.720 -0.8154  0.5875  2.1174
 8765SOL    HW229188   4.584   8.296   7.650  1.7602  1.8134  0.8560
 8766SOL     OW29189   6.784   3.842   6.412  0.1425 -0.3643  0.1331
 8766SOL    HW129190   6.742   3.790   6.344  0.0736 -0.3221  0.1435
 8766SOL    HW229191   6.723   3.914   6.429 -1.7355 -2.3873  2.9823
 8767SOL     OW29192   7.817   0.043   7.987 -0.3352  0.0252 -0.1314
 8767SOL    HW129193   7.801  -0.006   8.068 -1.3823  0.8097  0.1628
 8767SOL    HW229194   7.860  -0.020   7.929 -0.2138 -0.7618  0.7849
 8768SOL     OW29195   1.588   1.521   4.514 -0.3514 -0.2557 -0.1411
 8768SOL    HW129196   1.615   1.433   4.540  1.3969  0.1045 -0.6036
 8768SOL    HW229197   1.666   1.559   4.474 -0.8784  1.7485  0.6380
 8769SOL     OW29198   2.812   1.428   1.506 -0.2370 -0.0696 -0.0347
 8769SOL    HW129199   2.762   1.502   1.540  0.6989  0.9320 -0.7555
 8769SOL    HW229200   2.798   1.358   1.569  0.2949  1.2694  1.6262
 8770SOL     OW29201   5.575   8.245   7.910  0.2802  0.1180  0.4184
 8770SOL    HW129202   5.486   8.266   7.880  0.4909  0.7238  0.2110
 8770SOL    HW229203   5.586   8.152   7.887 -0.0327  0.2336 -0.2334
 8771SOL     OW29204   6.799   7.833   4.581 -0.0467 -0.4216  0.0804
 8771SOL    HW129205   6.878   7.825   4.635 -0.0523 -0.8628  0.0261
 8771SOL    HW229206   6.821   7.902   4.517  0.4705 -0.8677 -0.2353
 8772SOL     OW29207   4.372   8.876   7.000 -0.5205 -0.4323 -0.3389
 8772SOL    HW129208   4.300   8.882   6.938 -1.9883 -0.1139  1.3260
 8772SOL    HW229209   4.422   8.957   6.987 -0.2894 -0.7555 -1.6479
 8773SOL     OW29210   1.252   5.294   4.916  0.2079 -0.4779  0.1761
 8773SOL    HW129211   1.273   5.229   4.983  1.2548 -0.6932 -0.3442
 8773SOL    HW229212   1.330   5.297   4.860  0.6361  1.9583  0.7750
 8774SOL     OW29213   8.070   9.150   3.175  0.1038  0.0857 -0.0094
 8774SOL    HW129214   8.071   9.190   3.088 -2.0950  0.8529  0.2484
 8774SOL    HW229215   7.977   9.139   3.195  0.5884 -1.1186  1.7874
 8775SOL     OW29216   5.118   8.645   3.246 -0.9425 -0.0492 -0.2137
 8775SOL    HW129217   5.177   8.670   3.174 -2.2461 -1.0740 -1.7023
 8775SOL    HW229218   5.047   8.709   3.242 -1.6698 -0.8563 -0.7105
 8776SOL     OW29219   4.892   7.358   0.438  0.5990  0.4013 -0.1750
 8776SOL    HW129220   4.941   7.436   0.465 -0.5886  0.6997  1.2658
 8776SOL    HW229221   4.888   7.304   0.517  0.3060 -0.5318 -0.8104
 8777SOL     OW29222   6.551   3.390   3.563  0.2829  0.2877  0.1090
 8777SOL    HW129223   6.606   3.369   3.639  0.7733  2.9780  0.6046
 8777SOL    HW229224   6.533   3.483   3.572 -1.1669  0.2995 -2.1558
 8778SOL     OW29225   9.181   9.051   7.116  0.1833 -0.0041 -0.3121
 8778SOL    HW129226   9.117   9.108   7.073  0.7975  1.1146  0.2238
 8778SOL    HW229227   9.210   8.991   7.047 -0.2288  0.5354 -0.9691
 8779SOL     OW29228   0.838   8.576   0.998 -0.2512 -0.2512  0.5287
 8779SOL    HW129229   0.871   8.598   1.085  1.3999 -0.3573 -0.0190
 8779SOL    HW229230   0.827   8.661   0.954 -2.4786 -0.1098  1.2698
 8780SOL     OW29231   7.933   4.537   8.623 -0.3381 -0.1381  0.5783
 8780SOL    HW129232   7.898   4.560   8.537  0.8648  0.0525  0.1213
 8780SOL    HW229233   7.947   4.443   8.619 -1.7045 -0.3956  1.1248
 8781SOL     OW29234   3.925   5.144   2.972  0.0373  0.2968  0.1568
 8781SOL    HW129235   3.929   5.171   3.064  0.2380  1.2051 -0.1061
 8781SOL    HW229236   4.013   5.160   2.938 -0.0897  0.1526 -0.2439
 8782SOL     OW29237   6.423   3.529   8.322  0.4913 -0.5019  0.0870
 8782SOL    HW129238   6.504   3.489   8.293  1.4355  1.5636 -0.2926
 8782SOL    HW229239   6.422   3.516   8.417  2.3888  1.2746  0.4169
 8783SOL     OW29240   5.315   1.024   7.368 -0.4196 -0.1440  0.2188
 8783SOL    HW129241   5.388   1.087   7.368 -0.3487 -0.2195  0.8585
 8783SOL    HW229242   5.343   0.956   7.429 -0.3495 -0.9718 -0.7160
 8784SOL     OW29243   6.850   0.073   0.175 -0.0747  0.3086 -0.3445
 8784SOL    HW129244   6.892   0.127   0.242  0.0498 -1.8767  1.4368
 8784SOL    HW229245   6.756   0.085   0.190 -0.0553 -0.9808  0.9664
 8785SOL     OW29246   1.801   4.894   9.094 -0.2864  0.6461  0.1971
 8785SOL    HW129247   1.795   4.987   9.069  0.3588  0.7096  0.2791
 8785SOL    HW229248   1.754   4.848   9.024  0.6479  0.9115 -0.6269
 8786SOL     OW29249   9.036   4.957   1.503  0.0227 -0.2018  0.0574
 8786SOL    HW129250   9.117   4.976   1.456 -0.2716 -2.3942 -1.5002
 8786SOL    HW229251   8.967   4.975   1.439 -0.5544 -0.8160  0.4897
 8787SOL     OW29252   5.064   2.792   8.444 -0.4975 -0.1025  0.1012
 8787SOL    HW129253   5.091   2.855   8.511 -0.0356 -0.9910  0.7710
 8787SOL    HW229254   4.969   2.804   8.438 -0.3543  1.0020 -0.1492
 8788SOL     OW29255   8.873   2.703   8.119 -0.0722 -0.2090 -0.4886
 8788SOL    HW129256   8.894   2.717   8.211 -1.4390 -0.2059 -0.1463
 8788SOL    HW229257   8.947   2.653   8.084  0.8095  0.4262  0.4173
 8789SOL     OW29258   1.018   8.382   6.073  0.0271  0.0845 -0.8973
 8789SOL    HW129259   0.991   8.449   6.010 -0.4410  0.4481 -0.3170
 8789SOL    HW229260   0.989   8.300   6.034 -0.9519  0.3740 -0.8088
 8790SOL     OW29261   6.788   4.219   0.415  0.1061  0.8067  0.2003
 8790SOL    HW129262   6.877   4.195   0.388  0.0322 -0.0085  0.6474
 8790SOL    HW229263   6.768   4.159   0.487 -0.5693  1.4059  0.5303
 8791SOL     OW29264   7.213   1.239   5.109  0.2179  0.4300  0.5983
 8791SOL    HW129265   7.247   1.283   5.031 -0.1790  1.1006  0.8023
 8791SOL    HW229266   7.279   1.257   5.176  0.0958  0.6410  0.6608
 8792SOL     OW29267   4.826   8.777   1.178  0.3618  0.6783 -0.4946
 8792SOL    HW129268   4.888   8.761   1.249  0.3203  0.0175 -0.6026
 8792SOL    HW229269   4.743   8.741   1.210 -0.3092  2.6285  0.1602
 8793SOL     OW29270   8.090   3.654   3.079 -0.2506  0.0114 -0.0955
 8793SOL    HW129271   8.004   3.689   3.105  0.5798  2.6105 -0.5360
 8793SOL    HW229272   8.080   3.634   2.986 -0.9336 -1.6790  0.3135
 8794SOL     OW29273   5.863   2.510   8.246  0.0704 -0.4305  0.5483
 8794SOL    HW129274   5.927   2.441   8.228  0.9906  0.1061  1.6534
 8794SOL    HW229275   5.889   2.583   8.191 -0.1328 -0.5115  0.3417
 8795SOL     OW29276   3.271   0.674   7.277  0.3367  0.0025 -0.1593
 8795SOL    HW129277   3.261   0.658   7.183  0.0963  2.1927 -0.5665
 8795SOL    HW229278   3.310   0.761   7.282 -0.3479  0.2413  1.7892
 8796SOL     OW29279   5.940   9.122   2.685  0.3002  0.2768  0.3483
 8796SOL    HW129280   5.966   9.036   2.721 -0.4493 -1.4230 -2.8113
 8796SOL    HW229281   6.024   9.164   2.664  0.6829  0.4144  1.9945
 8797SOL     OW29282   4.375   3.033   4.449  0.0660  0.2123 -0.3563
 8797SOL    HW129283   4.444   3.007   4.509 -1.2707 -1.7487  0.4262
 8797SOL    HW229284   4.303   3.062   4.505 -0.5136  0.1958 -1.0728
 8798SOL     OW29285   1.820   7.957   6.684 -0.3098  0.2124 -0.2277
 8798SOL    HW129286   1.884   7.996   6.625  1.5236  0.3108  1.7060
 8798SOL    HW229287   1.811   8.020   6.755 -2.2626 -0.0088 -0.2253
 8799SOL     OW29288   5.044   6.162   6.818  0.9915  0.1285 -0.3197
 8799SOL    HW129289   4.999   6.148   6.901  0.3036  1.3678 -0.4568
 8799SOL    HW229290   5.064   6.075   6.786  2.8648 -0.3996  1.9978
 8800SOL     OW29291   6.482   0.869   2.350  0.1105  0.1377  0.1186
 8800SOL    HW129292   6.447   0.784   2.323  0.6352  0.3580 -1.3554
 8800SOL    HW229293   6.576   0.862   2.335  0.4019  0.3719  1.7301
 8801SOL     OW29294   3.356   1.857   7.313  0.7033 -0.9725 -0.3996
 8801SOL    HW129295   3.346   1.838   7.406  0.3007  0.8988 -0.0194
 8801SOL    HW229296   3.412   1.787   7.280  2.4143 -0.6524  1.6493
 8802SOL     OW29297   4.524   2.889   7.459  0.0864 -0.4029 -0.1685
 8802SOL    HW129298   4.592   2.857   7.399 -0.8424 -0.5516 -1.1750
 8802SOL    HW229299   4.500   2.813   7.511 -1.0358 -1.0264 -1.5175
 8803SOL     OW29300   0.885   3.795   1.410  0.5072 -0.1904 -0.0936
 8803SOL    HW129301   0.811   3.742   1.380  0.5778  0.5042 -1.5879
 8803SOL    HW229302   0.941   3.805   1.333  2.1265 -0.6005  0.9780
 8804SOL     OW29303   0.249   0.256   2.313  0.2371 -0.3759  0.1119
 8804SOL    HW129304   0.171   0.288   2.267  1.9420  0.7828 -2.1955
 8804SOL    HW229305   0.292   0.335   2.345  1.1350 -0.8777  0.1727
 8805SOL     OW29306   7.511   0.073   4.055  0.4821  0.2169  0.1867
 8805SOL    HW129307   7.563   0.052   3.978  0.2731  0.7748 -0.1136
 8805SOL    HW229308   7.543   0.159   4.083 -0.1645  0.4936  0.0933
 8806SOL     OW29309   4.207   3.581   5.179  0.3439  0.5697 -0.4288
 8806SOL    HW129310   4.148   3.544   5.246 -2.5525 -1.5775 -3.7919
 8806SOL    HW229311   4.285   3.525   5.184  0.2281  0.4841  1.1215
 8807SOL     OW29312   2.932   4.872   3.951  0.3828 -0.1065 -0.0821
 8807SOL    HW129313   2.918   4.785   3.991 -1.0833  0.8064  1.5707
 8807SOL    HW229314   2.944   4.930   4.026  0.3229  1.2846 -1.1265
 8808SOL     OW29315   4.989   1.859   5.312 -0.2362  0.0406  0.3675
 8808SOL    HW129316   4.943   1.858   5.396  1.0572  3.3806  1.2643
 8808SOL    HW229317   4.926   1.900   5.252 -0.5498 -0.8158  0.1029
 8809SOL     OW29318   5.215   7.610   5.847  0.0086 -0.3569  0.0920
 8809SOL    HW129319   5.210   7.556   5.769  0.0083 -1.4346  0.8221
 8809SOL    HW229320   5.300   7.654   5.840  0.1863 -0.7613 -0.3082
 8810SOL     OW29321   3.267   2.068   5.208  0.6844 -0.2482 -0.6500
 8810SOL    HW129322   3.176   2.038   5.214  0.3826  0.9628  2.3927
 8810SOL    HW229323   3.261   2.163   5.205  1.8683 -0.1684 -2.7409
 8811SOL     OW29324   1.265   7.295   5.833  0.0412  0.1994  0.8415
 8811SOL    HW129325   1.265   7.217   5.777  4.5620 -1.3466  2.5935
 8811SOL    HW229326   1.223   7.267   5.914 -0.1211  0.2411  0.7732
 8812SOL     OW29327   6.410   1.334   6.494  0.2982 -0.0925 -0.1162
 8812SOL    HW129328   6.321   1.347   6.460  0.3165 -0.3565 -0.2673
 8812SOL    HW229329   6.467   1.359   6.422  0.3405 -0.3323 -0.1682
 8813SOL     OW29330   4.659   8.656   3.493 -0.7155 -0.0889  0.4253
 8813SOL    HW129331   4.581   8.601   3.499 -1.8146  1.1378 -1.3663
 8813SOL    HW229332   4.717   8.609   3.432 -0.7658 -0.2306  0.4872
 8814SOL     OW29333   6.137   7.543   1.689  0.1358  0.1629  0.4454
 8814SOL    HW129334   6.209   7.590   1.732  1.0680  1.1936 -2.0585
 8814SOL    HW229335   6.101   7.606   1.628 -1.3329 -1.1315 -0.0825
 8815SOL     OW29336   0.884   8.701   2.457 -0.6238 -0.9538  0.1923
 8815SOL    HW129337   0.879   8.788   2.419 -2.5536 -0.8013  0.6888
 8815SOL    HW229338   0.950   8.708   2.527 -0.1231 -0.1568 -0.3470
 8816SOL     OW29339   4.761   7.973   4.056  0.3999  0.0325 -0.0539
 8816SOL    HW129340   4.709   7.986   3.977  1.4817  1.2763 -0.5972
 8816SOL    HW229341   4.813   7.895   4.037 -0.5270 -0.6388  0.1045
 8817SOL     OW29342   0.661   2.734   4.730 -0.2331 -0.3098 -0.2827
 8817SOL    HW129343   0.624   2.683   4.802 -1.2402  0.8515  0.0512
 8817SOL    HW229344   0.632   2.823   4.745  1.1932  0.3292 -1.0606
 8818SOL     OW29345   3.061   5.716   3.551 -0.1623 -0.3963 -0.1382
 8818SOL    HW129346   3.064   5.774   3.627  2.3470 -0.2747 -0.2655
 8818SOL    HW229347   3.070   5.628   3.589  1.0604 -0.3374 -0.2759
 8819SOL     OW29348   1.059   0.782   2.538 -0.3481  0.2405 -0.3307
 8819SOL    HW129349   1.075   0.873   2.514  0.4872 -0.0147 -0.7925
 8819SOL    HW229350   1.030   0.741   2.457  2.8203 -0.7075 -1.1319
 8820SOL     OW29351   3.136   7.813   6.936  0.2466  0.1121 -0.3356
 8820SOL    HW129352   3.220   7.770   6.915 -0.3608 -0.7081 -1.1999
 8820SOL    HW229353   3.145   7.839   7.028  0.5075 -2.2766  0.3834
 8821SOL     OW29354   7.711   2.059   7.252  0.5235  0.3490 -0.1295
 8821SOL    HW129355   7.784   2.043   7.192  1.0180 -3.8043  1.2625
 8821SOL    HW229356   7.753   2.079   7.336 -0.0433  1.0973 -0.0157
 8822SOL     OW29357   6.800   6.799   6.677 -0.0229 -0.2306  0.3129
 8822SOL    HW129358   6.881   6.814   6.725 -0.3462 -1.6508  1.3555
 8822SOL    HW229359   6.816   6.719   6.626 -0.8230 -0.6462  0.6891
 8823SOL     OW29360   0.477   1.362   2.378 -0.5862 -0.1455 -0.6001
 8823SOL    HW129361   0.489   1.268   2.368  0.8927 -0.1502  0.7817
 8823SOL    HW229362   0.395   1.371   2.426  0.7546 -0.9496  2.0024
 8824SOL     OW29363   7.118   5.450   6.842  0.0019 -0.3140 -0.0506
 8824SOL    HW129364   7.192   5.396   6.815  0.6037 -0.2682  1.4197
 8824SOL    HW229365   7.041   5.405   6.807  0.5445 -1.7197  0.4839
 8825SOL     OW29366   4.187   2.875   3.217  0.5509  0.5067 -0.1589
 8825SOL    HW129367   4.212   2.881   3.309 -0.6608 -0.8219  0.2948
 8825SOL    HW229368   4.165   2.782   3.204  0.0603  0.7975 -1.6041
 8826SOL     OW29369   6.820   7.937   7.433 -0.3106 -0.1315 -0.0222
 8826SOL    HW129370   6.841   7.892   7.351  2.7964 -0.8491  1.0320
 8826SOL    HW229371   6.858   8.024   7.423  1.1986 -0.6385  1.0773
 8827SOL     OW29372   7.115   9.097   5.623  0.4810  0.2092 -0.1802
 8827SOL    HW129373   7.156   9.012   5.607 -1.8844 -1.5453  2.1136
 8827SOL    HW229374   7.120   9.108   5.718 -0.5931  1.9421 -0.2747
 8828SOL     OW29375   1.528   6.488   5.479 -0.5138  0.0176  0.3226
 8828SOL    HW129376   1.490   6.421   5.422 -1.0575  0.3275  0.3150
 8828SOL    HW229377   1.613   6.453   5.503 -0.7084 -0.5875  0.1544
 8829SOL     OW29378   7.000   2.036   5.155 -0.1497 -0.3752  0.1858
 8829SOL    HW129379   6.949   1.987   5.090 -0.6562  0.6489 -0.2153
 8829SOL    HW229380   6.941   2.046   5.229 -0.2899  0.2082 -0.0029
 8830SOL     OW29381   1.513   1.050   8.907  0.4053 -0.4315 -0.6811
 8830SOL    HW129382   1.493   1.078   8.817  0.2622 -0.4714 -0.6621
 8830SOL    HW229383   1.578   0.981   8.896  2.9415  1.7758 -0.6097
 8831SOL     OW29384   3.877   9.137   5.713 -0.4212  0.0600  0.2996
 8831SOL    HW129385   3.870   9.044   5.732 -1.0504  0.2589  1.0759
 8831SOL    HW229386   3.969   9.158   5.731  0.4893 -0.9793 -2.6281
 8832SOL     OW29387   7.525   0.883   8.533  0.0359  0.0498 -0.4708
 8832SOL    HW129388   7.443   0.861   8.576  0.6176  1.5944  1.5659
 8832SOL    HW229389   7.571   0.799   8.525 -1.1834 -0.6372 -0.5045
 8833SOL     OW29390   0.397   6.773   4.900  0.7032 -0.6005  0.3200
 8833SOL    HW129391   0.409   6.862   4.932 -0.7017  0.4295 -1.8249
 8833SOL    HW229392   0.466   6.762   4.834 -0.3697 -0.2925 -0.8990
 8834SOL     OW29393   0.097   6.315   1.120  0.4423 -0.7438 -0.4925
 8834SOL    HW129394   0.175   6.361   1.089 -0.8876  0.3858 -2.3682
 8834SOL    HW229395   0.065   6.367   1.194  1.2631 -1.0491  0.0951
 8835SOL     OW29396   0.145   7.705   2.218 -0.3061  0.0343 -0.0647
 8835SOL    HW129397   0.151   7.692   2.312  0.4362  1.2166  0.0754
 8835SOL    HW229398   0.073   7.649   2.190 -1.3713  0.6150  1.3996
 8836SOL     OW29399   7.010   5.611   3.446  0.3812  0.3214  0.0289
 8836SOL    HW129400   6.958   5.686   3.419 -0.2393  0.4351  1.4265
 8836SOL    HW229401   7.029   5.564   3.365 -0.2736  1.3071 -0.7203
 8837SOL     OW29402   4.977   0.660   3.678 -0.1699 -0.0082 -0.1905
 8837SOL    HW129403   4.938   0.603   3.744 -0.9645  1.4341  0.6380
 8837SOL    HW229404   4.952   0.749   3.705  0.3355  0.6903 -1.8750
 8838SOL     OW29405   8.107   6.850   5.793  0.4828 -0.0910 -0.0119
 8838SOL    HW129406   8.070   6.920   5.739 -2.3090  1.1520  3.1735
 8838SOL    HW229407   8.073   6.769   5.755  0.2282  0.5656 -1.2251
 8839SOL     OW29408   0.537   3.207   6.694 -0.1803  0.3535  0.3448
 8839SOL    HW129409   0.576   3.181   6.611  1.2550 -3.1975  1.9139
 8839SOL    HW229410   0.449   3.169   6.692 -0.4023  0.8731  0.1831
 8840SOL     OW29411   1.683   9.202   0.536  0.2197  0.5814 -0.1567
 8840SOL    HW129412   1.625   9.149   0.590 -0.1076 -0.9372 -1.9029
 8840SOL    HW229413   1.751   9.141   0.506  2.3226  2.1251  1.1681
 8841SOL     OW29414   2.059   2.749   5.780  0.7277  0.5101 -0.0437
 8841SOL    HW129415   2.128   2.748   5.714  1.0888  2.0941  0.2662
 8841SOL    HW229416   1.993   2.810   5.745 -0.8001 -1.3363 -0.5657
 8842SOL     OW29417   1.770   6.535   2.575 -0.1707 -0.0560  0.6877
 8842SOL    HW129418   1.853   6.502   2.541 -0.2668  0.5744 -0.1978
 8842SOL    HW229419   1.793   6.610   2.629 -0.2702  1.5963 -1.4218
 8843SOL     OW29420   2.445   4.722   1.139  0.2462 -0.6570 -0.5174
 8843SOL    HW129421   2.446   4.641   1.190  0.0590 -0.9879 -1.0334
 8843SOL    HW229422   2.424   4.694   1.050  0.8982 -0.1257 -0.8436
 8844SOL     OW29423   7.614   3.616   2.837  0.7404 -0.0086 -0.5091
 8844SOL    HW129424   7.701   3.654   2.818  0.6093  1.2802  1.2210
 8844SOL    HW229425   7.616   3.598   2.931 -1.0193  0.4923 -0.3456
 8845SOL     OW29426   1.489   7.313   9.109  0.4749 -0.2749 -0.5800
 8845SOL    HW129427   1.441   7.240   9.071  1.1931  0.1120 -2.3535
 8845SOL    HW229428   1.581   7.285   9.109  0.6287  0.2118 -0.2755
 8846SOL     OW29429   5.569   5.406   4.586 -0.3325  0.0874 -0.7940
 8846SOL    HW129430   5.620   5.325   4.587  1.7898  1.3360  1.0284
 8846SOL    HW229431   5.481   5.379   4.615  0.4136 -1.5137  0.1367
 8847SOL     OW29432   1.882   5.411   2.699 -0.1826  0.3994  0.5891
 8847SOL    HW129433   1.929   5.494   2.694 -0.5776  0.6136  0.4224
 8847SOL    HW229434   1.856   5.392   2.609  0.9005 -0.4910  0.4428
 8848SOL     OW29435   6.840   5.301   4.073  0.2538  0.7212  0.0608
 8848SOL    HW129436   6.834   5.208   4.051 -1.1229  0.7366  0.2821
 8848SOL    HW229437   6.751   5.334   4.060  0.9931  2.2931 -1.2319
 8849SOL     OW29438   6.410   8.382   4.157 -0.3358  0.2246  0.1743
 8849SOL    HW129439   6.320   8.351   4.168  0.5250 -1.8947  2.1478
 8849SOL    HW229440   6.404   8.477   4.168 -2.4730  0.2971 -1.1175
 8850SOL     OW29441   7.035   0.661   4.447 -0.3291 -0.9023 -0.3795
 8850SOL    HW129442   7.124   0.688   4.467 -0.6468 -0.2218  0.1506
 8850SOL    HW229443   6.980   0.731   4.482 -1.0742 -1.3306 -0.6682
 8851SOL     OW29444   1.811   6.860   4.736  0.8400 -0.6115  0.1352
 8851SOL    HW129445   1.816   6.800   4.811  0.1015 -0.6942  0.1236
 8851SOL    HW229446   1.766   6.810   4.668 -0.4621  0.2030  0.3806
 8852SOL     OW29447   6.563   6.007   6.350 -0.5724 -0.0439  0.1288
 8852SOL    HW129448   6.623   5.948   6.305  0.8306  1.3662  0.0575
 8852SOL    HW229449   6.580   5.993   6.443  1.0713  1.4324  0.1115
 8853SOL     OW29450   5.142   3.207   5.083  0.0989  0.2852  0.4918
 8853SOL    HW129451   5.076   3.273   5.105 -0.5676 -0.3114  0.3279
 8853SOL    HW229452   5.153   3.215   4.988  0.9862  1.0334  0.6417
 8854SOL     OW29453   7.136   7.485   0.079 -0.1050 -0.0073  0.1799
 8854SOL    HW129454   7.138   7.420   0.009  0.4837 -0.5152  0.6689
 8854SOL    HW229455   7.123   7.568   0.033  0.3285 -0.3260 -0.5388
 8855SOL     OW29456   3.251   1.862   4.861  0.3853  0.7774  0.2999
 8855SOL    HW129457   3.190   1.835   4.930 -0.3596  1.3893 -0.1064
 8855SOL    HW229458   3.331   1.813   4.880 -0.0364  0.3980  1.1830
 8856SOL     OW29459   5.895   0.564   6.987  0.2173 -0.0844 -0.6016
 8856SOL    HW129460   5.869   0.578   6.896 -3.1980 -1.6599 -0.0016
 8856SOL    HW229461   5.814   0.544   7.033  1.8044  0.7953  2.8862
 8857SOL     OW29462   5.945   0.430   7.375 -0.1292 -0.0828 -0.1524
 8857SOL    HW129463   5.987   0.404   7.293  1.2896  1.4055  0.0483
 8857SOL    HW229464   5.896   0.352   7.403 -0.4881 -0.6896 -2.2754
 8858SOL     OW29465   6.385   8.374   5.582  0.1284 -0.3670  0.5212
 8858SOL    HW129466   6.349   8.310   5.644  0.5224 -1.0870  0.0242
 8858SOL    HW229467   6.360   8.459   5.618  0.9079 -0.7392  2.0336
 8859SOL     OW29468   0.964   7.747   0.214  0.4688  0.9135  0.0903
 8859SOL    HW129469   1.017   7.699   0.151 -1.3176 -2.0108  0.6027
 8859SOL    HW229470   1.009   7.736   0.298 -0.2584 -0.5229  0.3172
 8860SOL     OW29471   1.022   8.503   7.048  0.4329 -0.3980  0.0124
 8860SOL    HW129472   1.070   8.584   7.033  0.9794 -1.1996 -3.3138
 8860SOL    HW229473   1.087   8.444   7.087  1.1410 -0.3522 -1.0553
 8861SOL     OW29474   1.478   5.903   2.064  0.2155 -0.2677  0.1539
 8861SOL    HW129475   1.437   5.919   1.979 -1.5364  0.2249  1.0411
 8861SOL    HW229476   1.487   5.808   2.070 -0.5203 -0.3646 -0.2100
 8862SOL     OW29477   1.506   2.118   2.690 -0.5676  0.2575 -0.0343
 8862SOL    HW129478   1.574   2.084   2.631  0.4823  0.3406  1.0669
 8862SOL    HW229479   1.439   2.050   2.692  2.4332 -3.1196  3.7871
 8863SOL     OW29480   2.862   8.704   9.047 -0.0339 -0.2952  0.1274
 8863SOL    HW129481   2.889   8.619   9.079 -1.0486  0.1392  2.3403
 8863SOL    HW229482   2.920   8.766   9.092 -0.1382  0.2502 -0.4778
 8864SOL     OW29483   3.710   0.974   4.135 -0.7651 -0.0200  0.1694
 8864SOL    HW129484   3.618   0.985   4.111 -0.8073 -0.4440  0.1327
 8864SOL    HW229485   3.727   0.881   4.123 -0.5877 -0.1107  1.1112
 8865SOL     OW29486   3.415   3.555   4.943 -0.4463  0.7088 -0.2020
 8865SOL    HW129487   3.453   3.605   4.870 -0.4081  1.1255  0.0971
 8865SOL    HW229488   3.452   3.596   5.021 -1.9290  1.4869  0.1294
 8866SOL     OW29489   4.049   8.282   8.168 -0.7107  0.1107  0.3131
 8866SOL    HW129490   4.142   8.297   8.151 -0.3616 -0.7986  1.2966
 8866SOL    HW229491   4.011   8.266   8.081  0.3571 -1.0230  0.0238
 8867SOL     OW29492   2.188   0.746   4.206  0.1036 -0.6323  0.1731
 8867SOL    HW129493   2.136   0.822   4.233 -1.2199 -1.4860  0.1083
 8867SOL    HW229494   2.167   0.678   4.270  2.4199 -0.5400  1.1190
 8868SOL     OW29495   9.169   2.613   2.095 -0.3121 -0.2337  0.0924
 8868SOL    HW129496   9.089   2.603   2.044 -2.4016  1.2453  2.8113
 8868SOL    HW229497   9.159   2.551   2.168  1.2040 -0.2698  0.3059
 8869SOL     OW29498   4.256   1.474   3.058  0.2583  0.1368  0.1318
 8869SOL    HW129499   4.266   1.391   3.011  1.1558 -0.0767  0.6842
 8869SOL    HW229500   4.161   1.490   3.057  0.0205 -1.1205  0.3997
 8870SOL     OW29501   2.471   4.508   9.232  0.0578  0.1583  0.3045
 8870SOL    HW129502   2.543   4.445   9.234  0.2198  0.3500  0.6303
 8870SOL    HW229503   2.393   4.455   9.212  0.6210  0.2930 -2.8313
 8871SOL     OW29504   7.694   6.419   4.344  0.2224 -0.2539  0.4778
 8871SOL    HW129505   7.676   6.462   4.260  0.3686 -0.3701  0.3854
 8871SOL    HW229506   7.713   6.328   4.320 -1.1600 -0.6472  0.7599
 8872SOL     OW29507   5.231   0.922   7.796  0.1031  0.2380 -0.0264
 8872SOL    HW129508   5.289   0.851   7.823  0.0397 -1.1514 -3.1208
 8872SOL    HW229509   5.192   0.954   7.877 -0.4972 -3.7950  1.4747
 8873SOL     OW29510   2.154   4.728   2.121  0.1101  0.2001  0.3772
 8873SOL    HW129511   2.229   4.783   2.147  1.0610 -0.7419 -0.2767
 8873SOL    HW229512   2.193   4.643   2.100 -1.1861 -0.3789  0.2267
 8874SOL     OW29513   5.120   0.465   7.170  0.7716  0.8624 -0.0542
 8874SOL    HW129514   5.207   0.500   7.149  1.9638 -1.3125  0.8901
 8874SOL    HW229515   5.083   0.529   7.230  1.7360  1.8240 -0.4424
 8875SOL     OW29516   5.915   1.619   2.656  0.2410 -0.0195 -0.5027
 8875SOL    HW129517   5.934   1.712   2.668  0.0562  0.1009 -1.1671
 8875SOL    HW229518   5.998   1.581   2.628  0.4561 -0.1570  0.2802
 8876SOL     OW29519   1.517   4.645   0.146  0.0156 -0.1828 -0.6917
 8876SOL    HW129520   1.519   4.671   0.054 -1.4785 -0.6131 -0.8659
 8876SOL    HW229521   1.434   4.679   0.179  0.5913  0.0748  0.5391
 8877SOL     OW29522   5.752   3.833   6.549 -0.7062 -0.1708 -0.8530
 8877SOL    HW129523   5.758   3.738   6.541  2.5298 -0.0936 -0.6061
 8877SOL    HW229524   5.769   3.866   6.461 -3.7647  0.2682 -1.3964
 8878SOL     OW29525   5.078   3.028   5.470 -0.4972 -0.6206  0.5538
 8878SOL    HW129526   5.061   2.977   5.392 -2.4356  0.1974  0.3842
 8878SOL    HW229527   5.023   2.989   5.538  1.1894 -1.3535  1.5883
 8879SOL     OW29528   2.416   9.180   0.035 -0.3260  0.3311 -0.2703
 8879SOL    HW129529   2.394   9.268   0.003 -0.3598  0.3894 -0.0839
 8879SOL    HW229530   2.362   9.122  -0.018 -0.6660  0.4527 -0.0595
 8880SOL     OW29531   8.795   1.935   2.878  0.2957  0.0132  0.7123
 8880SOL    HW129532   8.880   1.893   2.875 -0.1283 -0.8720 -2.4645
 8880SOL    HW229533   8.732   1.864   2.871 -0.6771  0.7896  1.1964
 8881SOL     OW29534   6.298   8.630   8.725 -0.2702 -0.2646  0.1010
 8881SOL    HW129535   6.306   8.717   8.687  0.1110  0.4477  1.7520
 8881SOL    HW229536   6.342   8.573   8.662  2.0966  1.1435  0.3791
 8882SOL     OW29537   8.136   0.353   9.081 -0.5582  0.3051  0.1410
 8882SOL    HW129538   8.206   0.407   9.118 -0.3301 -1.0600  1.8395
 8882SOL    HW229539   8.180   0.293   9.022 -0.9376  2.5784 -2.6632
 8883SOL     OW29540   1.447   2.046   5.873  0.1654  0.6321  0.9120
 8883SOL    HW129541   1.382   2.009   5.933  0.0383  2.5087  2.0161
 8883SOL    HW229542   1.395   2.089   5.805  0.2941 -2.0882 -1.0990
 8884SOL     OW29543   1.750   6.260   6.118 -0.2392 -0.8260  0.5865
 8884SOL    HW129544   1.784   6.309   6.193 -0.4772 -0.6672  0.5887
 8884SOL    HW229545   1.725   6.175   6.154  1.1552 -1.3505  0.3981
 8885SOL     OW29546   6.499   5.250   6.282 -0.3631 -0.1615  0.0678
 8885SOL    HW129547   6.417   5.206   6.302  0.6225 -1.6057  1.1729
 8885SOL    HW229548   6.558   5.224   6.353  2.2009 -2.3636 -2.6114
 8886SOL     OW29549   7.673   2.384   3.189 -0.2213 -0.8089  0.4327
 8886SOL    HW129550   7.760   2.417   3.208  0.1818 -1.4235 -0.2874
 8886SOL    HW229551   7.685   2.325   3.114 -0.9928 -2.1836  1.3403
 8887SOL     OW29552   5.355   2.934   4.802  0.2593  0.2895  0.2273
 8887SOL    HW129553   5.424   2.880   4.763  0.3062  1.1482 -0.9307
 8887SOL    HW229554   5.394   2.967   4.883  1.0455  0.3970 -0.1872
 8888SOL     OW29555   8.572   1.126   7.883 -0.5614  0.0424  0.1143
 8888SOL    HW129556   8.602   1.208   7.845  1.0766 -1.2995 -1.7583
 8888SOL    HW229557   8.510   1.091   7.819  0.3339 -1.1039 -0.1768
 8889SOL     OW29558   6.748   3.895   0.008  0.2894  0.0440  0.1867
 8889SOL    HW129559   6.782   3.821   0.057 -0.9644  0.9061  2.4907
 8889SOL    HW229560   6.667   3.919   0.053  0.8742  3.1068 -0.1862
 8890SOL     OW29561   8.140   3.335   3.948 -0.5745  0.0227 -0.0150
 8890SOL    HW129562   8.227   3.373   3.941 -0.3625 -0.3549  0.5603
 8890SOL    HW229563   8.150   3.260   4.006 -1.1084 -0.5538 -0.6523
 8891SOL     OW29564   7.660   2.636   2.971 -0.1013 -0.3521 -0.1027
 8891SOL    HW129565   7.671   2.697   2.898  0.0453 -1.1914 -0.7868
 8891SOL    HW229566   7.750   2.618   3.000 -0.1647  0.0679  0.3671
 8892SOL     OW29567   1.829   7.559   9.083 -0.2120 -0.5052 -0.4080
 8892SOL    HW129568   1.796   7.646   9.061  1.5249  0.0597 -0.9796
 8892SOL    HW229569   1.799   7.503   9.011  0.1212 -0.0064 -0.9391
 8893SOL     OW29570   8.405   0.357   5.807 -0.3728  0.0863 -0.1220
 8893SOL    HW129571   8.424   0.413   5.882  1.7960  1.1605 -1.3660
 8893SOL    HW229572   8.413   0.268   5.840  3.0152  0.4910  0.4845
 8894SOL     OW29573   5.243   4.123   4.712  0.4241  0.2043  0.5967
 8894SOL    HW129574   5.338   4.115   4.722  0.8767  1.1045 -2.0624
 8894SOL    HW229575   5.217   4.041   4.670 -0.1886 -0.4695  2.2218
 8895SOL     OW29576   7.279   1.062   8.379 -0.1148  0.5143 -0.0781
 8895SOL    HW129577   7.277   0.967   8.385 -1.9824  0.3930 -1.4080
 8895SOL    HW229578   7.263   1.092   8.468 -0.1034 -0.4456  0.2586
 8896SOL     OW29579   3.033   6.096   6.536  0.3256  0.2034  0.2380
 8896SOL    HW129580   3.026   6.055   6.450  0.1023 -0.0875  0.3942
 8896SOL    HW229581   3.001   6.185   6.523 -1.7115 -0.4499  0.4596
 8897SOL     OW29582   5.714   7.209   4.893  0.4936  0.3725  0.2846
 8897SOL    HW129583   5.801   7.171   4.881  0.5228  0.8840 -1.3457
 8897SOL    HW229584   5.685   7.176   4.978  0.3264 -3.7026 -1.1294
 8898SOL     OW29585   0.799   4.427   0.834  0.0752  0.2569 -0.3582
 8898SOL    HW129586   0.709   4.442   0.803  1.0367  0.4070 -3.4566
 8898SOL    HW229587   0.833   4.515   0.849 -0.1035  0.2281  0.2262
 8899SOL     OW29588   5.742   2.324   1.066  0.0590 -0.0899  0.1770
 8899SOL    HW129589   5.667   2.383   1.062  0.5433  0.5247  0.0832
 8899SOL    HW229590   5.725   2.259   0.998 -0.4182 -0.0003  0.2020
 8900SOL     OW29591   3.244   5.050   1.447 -0.0072  0.2348  0.2041
 8900SOL    HW129592   3.214   5.059   1.537  0.8643  0.3723  0.4828
 8900SOL    HW229593   3.316   5.112   1.438  0.0838  0.0437 -0.5141
 8901SOL     OW29594   7.834   4.098   1.739 -1.0526 -0.1164  0.2093
 8901SOL    HW129595   7.898   4.036   1.775 -0.7991 -0.5547 -0.9411
 8901SOL    HW229596   7.845   4.177   1.792 -1.9842 -1.2977  2.3094
 8902SOL     OW29597   6.185   0.981   8.197  0.7906 -0.1517 -0.4198
 8902SOL    HW129598   6.202   1.003   8.289  0.6310  0.2379 -0.4793
 8902SOL    HW229599   6.094   0.954   8.196  0.4186  1.0499 -0.6645
 8903SOL     OW29600   0.195   7.244   3.345  0.4479  0.0832  0.4242
 8903SOL    HW129601   0.249   7.180   3.299  0.5101 -0.3301  1.0557
 8903SOL    HW229602   0.111   7.241   3.301  0.0742 -1.2949  1.1756
 8904SOL     OW29603   7.526   3.154   3.762 -0.5802 -0.3199 -0.4472
 8904SOL    HW129604   7.501   3.074   3.715  1.1107 -0.2727 -1.5242
 8904SOL    HW229605   7.556   3.214   3.693 -1.0268  0.9485  0.4239
 8905SOL     OW29606   1.883   4.801   5.358 -0.2210 -0.1591 -0.3150
 8905SOL    HW129607   1.828   4.870   5.395  0.5564  0.4213 -0.2277
 8905SOL    HW229608   1.831   4.721   5.368  0.0559 -0.0913  2.2939
 8906SOL     OW29609   4.192   5.770   0.085  0.3930  0.0756 -0.0486
 8906SOL    HW129610   4.258   5.785   0.018  1.8206 -1.2935  0.9940
 8906SOL    HW229611   4.208   5.681   0.116 -1.5811 -0.0946  0.6444
 8907SOL     OW29612   4.536   0.512   3.294  0.4154  0.1465 -0.0561
 8907SOL    HW129613   4.559   0.596   3.333 -0.2855  0.9264 -1.2316
 8907SOL    HW229614   4.442   0.505   3.304  0.5970 -1.0861  1.0857
 8908SOL     OW29615   1.939   4.214   5.698 -0.5752 -0.3652 -0.2132
 8908SOL    HW129616   1.976   4.126   5.689  0.0856  0.0099 -1.3148
 8908SOL    HW229617   1.845   4.202   5.688 -0.3444 -0.7249 -2.2465
 8909SOL     OW29618   4.690   6.318   6.409  0.5015 -0.1061  0.3549
 8909SOL    HW129619   4.711   6.245   6.467  0.0149 -1.7184 -1.4016
 8909SOL    HW229620   4.773   6.338   6.366 -0.1039 -2.5416 -2.2483
 8910SOL     OW29621   4.268   2.987   5.877 -0.1387 -0.5368  0.0923
 8910SOL    HW129622   4.201   2.922   5.857 -0.4152 -1.1184  2.5169
 8910SOL    HW229623   4.291   2.970   5.969  1.2479  1.4992  0.1968
 8911SOL     OW29624   5.934   4.178   7.908  0.0920  0.2664  0.1686
 8911SOL    HW129625   5.961   4.149   7.995  0.4514  0.6852  0.2010
 8911SOL    HW229626   6.013   4.171   7.854  0.4124  1.9445  0.3779
 8912SOL     OW29627   2.998   4.293   8.344  0.0661  0.2208  0.1121
 8912SOL    HW129628   2.956   4.341   8.416 -0.3000  0.7219 -0.4214
 8912SOL    HW229629   3.047   4.361   8.297 -0.1805  0.0133 -0.4532
 8913SOL     OW29630   5.075   0.066   2.096  0.7999  0.4579 -0.4993
 8913SOL    HW129631   5.163   0.058   2.132 -0.3843 -0.1433  2.5214
 8913SOL    HW229632   5.028  -0.009   2.131 -0.8513  0.4805 -2.4646
 8914SOL     OW29633   3.133   2.670   8.039  0.5260 -0.1199 -0.5209
 8914SOL    HW129634   3.182   2.626   7.969  0.2651  1.0334 -1.4511
 8914SOL    HW229635   3.162   2.761   8.035  2.0583 -0.3743  2.2445
 8915SOL     OW29636   2.505   7.829   3.533  0.0198 -0.7931 -0.1778
 8915SOL    HW129637   2.550   7.900   3.488 -0.6188 -0.5557 -0.4467
 8915SOL    HW229638   2.558   7.813   3.611  0.1630 -0.0107 -0.1102
 8916SOL     OW29639   3.633   5.043   6.906  0.0374  0.3126  0.0436
 8916SOL    HW129640   3.712   5.094   6.888  0.4812 -0.3590  0.0661
 8916SOL    HW229641   3.565   5.109   6.917  0.6805  0.9291  0.4799
 8917SOL     OW29642   5.642   5.308   3.908  0.2433 -0.2149  0.5382
 8917SOL    HW129643   5.661   5.214   3.903 -0.6992 -0.3940  0.0121
 8917SOL    HW229644   5.589   5.317   3.988 -0.0171 -0.2034  0.3670
 8918SOL     OW29645   7.249   0.595   3.542 -0.5176 -0.2746  0.1201
 8918SOL    HW129646   7.228   0.625   3.454  0.7881 -1.5001 -0.6644
 8918SOL    HW229647   7.183   0.528   3.561 -3.0406  2.4449  1.6185
 8919SOL     OW29648   7.272   1.440   1.374 -0.3905  0.3645  0.0832
 8919SOL    HW129649   7.280   1.378   1.301 -0.1575  1.2136 -0.6246
 8919SOL    HW229650   7.295   1.524   1.337 -0.5593  0.8654  1.0779
 8920SOL     OW29651   2.225   0.720   5.327 -0.6800  0.3135  0.4129
 8920SOL    HW129652   2.263   0.652   5.272 -0.4303 -0.3065  1.3163
 8920SOL    HW229653   2.279   0.797   5.310  1.2974 -0.6392  1.9195
 8921SOL     OW29654   0.393   6.315   1.574 -0.5893  0.8006  0.2247
 8921SOL    HW129655   0.395   6.263   1.493 -0.2927  1.1646 -0.0041
 8921SOL    HW229656   0.388   6.250   1.643  1.1191  0.3783  0.0072
 8922SOL     OW29657   1.680   9.016   4.488 -0.2510 -0.4848  0.7324
 8922SOL    HW129658   1.646   8.927   4.484  0.4702 -0.7130 -1.3578
 8922SOL    HW229659   1.627   9.065   4.424  1.1553 -0.0871 -0.1635
 8923SOL     OW29660   1.141   3.740   8.253  0.3303 -0.2809 -0.0760
 8923SOL    HW129661   1.176   3.733   8.342  1.5494 -1.6248 -0.6189
 8923SOL    HW229662   1.149   3.652   8.217 -1.6570 -0.1478 -1.0078
 8924SOL     OW29663   2.812   2.628   8.783  0.2210 -1.0015  0.3377
 8924SOL    HW129664   2.727   2.602   8.748 -1.8706  1.9317  2.7160
 8924SOL    HW229665   2.816   2.723   8.770  1.3136 -0.4397  3.6484
 8925SOL     OW29666   8.269   3.332   5.056  0.1843  0.4589 -0.4276
 8925SOL    HW129667   8.278   3.396   5.127 -1.3857  0.9282 -0.6086
 8925SOL    HW229668   8.176   3.312   5.053  0.4975 -1.0693 -1.0753
 8926SOL     OW29669   4.013   1.585   2.146 -0.5883  0.2251  0.3778
 8926SOL    HW129670   4.080   1.561   2.210 -2.0327 -2.8862  0.8896
 8926SOL    HW229671   3.937   1.607   2.199 -1.3944 -1.0608 -0.2083
 8927SOL     OW29672   7.960   1.180   5.839 -0.3130  0.4260 -0.1859
 8927SOL    HW129673   7.943   1.191   5.932 -0.4629  0.2186 -0.1888
 8927SOL    HW229674   8.043   1.133   5.836 -0.6421 -0.1616 -0.1465
 8928SOL     OW29675   6.178   6.422   7.673 -0.2413 -0.3972 -0.3520
 8928SOL    HW129676   6.121   6.464   7.737 -0.2477  0.3256 -0.8212
 8928SOL    HW229677   6.248   6.382   7.725 -0.9151 -0.8886  0.1921
 8929SOL     OW29678   8.466   4.635   6.681  0.0419 -0.0308  0.9771
 8929SOL    HW129679   8.378   4.665   6.659  0.2661  0.6709  0.9823
 8929SOL    HW229680   8.480   4.558   6.626  0.7992  1.9842 -1.8854
 8930SOL     OW29681   1.495   7.066   2.533 -0.0353 -0.6474 -0.1049
 8930SOL    HW129682   1.545   7.029   2.605  2.1461  1.7397 -0.2666
 8930SOL    HW229683   1.512   7.007   2.459  0.2921 -1.3755  0.5445
 8931SOL     OW29684   8.870   0.240   3.481 -0.0465 -0.3113  0.0336
 8931SOL    HW129685   8.908   0.207   3.562 -0.2572 -0.5328  0.0447
 8931SOL    HW229686   8.859   0.161   3.427 -0.8229 -0.2994  0.1669
 8932SOL     OW29687   4.339   5.933   3.853  0.5488 -0.6554  0.2411
 8932SOL    HW129688   4.390   5.982   3.917  0.0989 -0.9595  0.8440
 8932SOL    HW229689   4.375   5.844   3.858 -0.1575 -0.9226  0.8208
 8933SOL     OW29690   2.531   4.075   3.951 -0.0494 -0.2818 -0.4091
 8933SOL    HW129691   2.468   4.138   3.988  0.3813 -0.0935  0.0068
 8933SOL    HW229692   2.528   4.001   4.011 -0.9769 -0.9175 -1.2060
 8934SOL     OW29693   5.114   6.697   5.286 -0.5356  0.1824  0.6445
 8934SOL    HW129694   5.053   6.702   5.213 -2.6212 -0.0345  2.2782
 8934SOL    HW229695   5.144   6.606   5.287 -0.9235  0.0534  0.3867
 8935SOL     OW29696   4.514   2.264   1.382  0.8703 -0.0080  0.2530
 8935SOL    HW129697   4.570   2.340   1.363  1.2487 -0.5230 -0.7355
 8935SOL    HW229698   4.575   2.191   1.389  0.2138 -1.1890 -3.8773
 8936SOL     OW29699   4.670   9.032   1.165 -0.1131 -0.1725 -0.1847
 8936SOL    HW129700   4.580   9.016   1.134  0.0090  0.8655 -1.1821
 8936SOL    HW229701   4.711   8.946   1.164 -0.4395 -0.3626 -1.9993
 8937SOL     OW29702   2.188   4.610   1.542  0.4392  0.4073  0.0301
 8937SOL    HW129703   2.093   4.614   1.553  0.4342 -0.0564  0.1662
 8937SOL    HW229704   2.220   4.565   1.620  0.4924 -1.9674 -1.2446
 8938SOL     OW29705   0.715   6.994   4.480 -0.2721  0.0682  0.0550
 8938SOL    HW129706   0.789   7.046   4.511  0.5653 -0.6815 -0.6512
 8938SOL    HW229707   0.755   6.921   4.433 -1.4643 -0.3274 -0.3691
 8939SOL     OW29708   4.040   3.812   4.513  0.5849  0.4374 -0.0499
 8939SOL    HW129709   3.959   3.833   4.466  0.2298 -1.2064 -0.2380
 8939SOL    HW229710   4.097   3.887   4.497 -0.0979  0.6345 -1.8148
 8940SOL     OW29711   0.957   3.476   5.906 -0.0968 -0.1158  0.3522
 8940SOL    HW129712   0.977   3.383   5.901 -1.1214 -0.3532  0.4068
 8940SOL    HW229713   0.874   3.480   5.954 -0.9423  0.7005 -1.1016
 8941SOL     OW29714   1.356   4.434   8.821 -0.5546 -0.0254 -0.0022
 8941SOL    HW129715   1.278   4.439   8.876 -1.1490 -1.5979 -0.6476
 8941SOL    HW229716   1.392   4.347   8.839  0.9103  0.5667  0.0827
 8942SOL     OW29717   8.144   9.206   8.992  0.0714 -0.0574 -0.2672
 8942SOL    HW129718   8.136   9.221   9.086 -0.9770  0.9285 -0.5011
 8942SOL    HW229719   8.171   9.291   8.956  1.3111 -0.6377 -0.7834
 8943SOL     OW29720   3.185   6.924   6.413  0.0510 -0.5293  0.4131
 8943SOL    HW129721   3.173   6.836   6.377  0.2182 -0.3473 -0.0981
 8943SOL    HW229722   3.129   6.979   6.358 -0.6100 -0.4169  1.1801
 8944SOL     OW29723   7.205   7.308   6.391 -0.3862  0.8524 -0.3064
 8944SOL    HW129724   7.187   7.289   6.483  0.4269 -0.0006 -0.3133
 8944SOL    HW229725   7.175   7.398   6.379 -0.2523  1.0639  0.8654
 8945SOL     OW29726   7.130   4.264   1.331  0.0125 -0.0391  0.5328
 8945SOL    HW129727   7.209   4.218   1.359  0.1219  0.4513  1.0360
 8945SOL    HW229728   7.079   4.277   1.411 -0.2446  0.2847  0.3202
 8946SOL     OW29729   4.058   8.074   1.820  0.0852  0.3444 -0.3143
 8946SOL    HW129730   4.083   8.034   1.737  0.7371  1.9439 -0.9367
 8946SOL    HW229731   4.136   8.063   1.876 -0.1256 -0.1797 -0.1195
 8947SOL     OW29732   1.212   6.334   3.502  0.3507  0.1577 -1.0105
 8947SOL    HW129733   1.240   6.330   3.593 -0.6878  0.9012 -0.6386
 8947SOL    HW229734   1.287   6.301   3.452  1.0046 -0.0658  0.0901
 8948SOL     OW29735   1.188   6.008   3.357  0.1179 -0.4329 -0.0301
 8948SOL    HW129736   1.239   5.928   3.344  0.3710  0.2352 -5.4365
 8948SOL    HW229737   1.251   6.079   3.346 -0.6126  0.5549  1.7901
 8949SOL     OW29738   2.748   5.004   1.878 -0.5824 -0.0232  0.1731
 8949SOL    HW129739   2.717   4.932   1.933  1.0339 -1.0715 -0.2238
 8949SOL    HW229740   2.711   4.986   1.792 -2.1189  0.9641  0.5736
 8950SOL     OW29741   2.979   7.482   7.825 -0.8929 -0.1900  0.1911
 8950SOL    HW129742   2.938   7.540   7.760 -0.8041 -0.7271 -0.3508
 8950SOL    HW229743   3.064   7.460   7.786 -2.4163 -3.8830 -1.5672
 8951SOL     OW29744   5.154   8.016   3.845  0.5782  0.0617  0.7498
 8951SOL    HW129745   5.111   7.943   3.890 -2.1138  0.8944 -0.2721
 8951SOL    HW229746   5.206   7.974   3.776  0.9405 -0.9714  1.6140
 8952SOL     OW29747   4.398   8.569   0.720  0.2393 -1.1338  0.4351
 8952SOL    HW129748   4.489   8.540   0.719 -0.2339 -2.7449 -0.3992
 8952SOL    HW229749   4.357   8.517   0.789 -0.6977 -2.8158 -1.2807
 8953SOL     OW29750   6.729   3.589   5.960  0.1238  0.1760 -0.3483
 8953SOL    HW129751   6.775   3.505   5.965 -1.0505 -0.6857 -2.6513
 8953SOL    HW229752   6.644   3.567   5.923 -1.0315  2.1338  1.0139
 8954SOL     OW29753   6.331   5.793   3.136  0.7941  0.0059 -0.1362
 8954SOL    HW129754   6.395   5.779   3.065  0.9274  1.5563 -0.3646
 8954SOL    HW229755   6.358   5.875   3.176  0.1412 -0.3705  1.1111
 8955SOL     OW29756   6.578   6.898   4.870 -0.2617  0.2515  0.1302
 8955SOL    HW129757   6.662   6.852   4.874 -0.4063 -0.3266 -2.0802
 8955SOL    HW229758   6.513   6.834   4.899 -0.3938 -0.8740 -2.3868
 8956SOL     OW29759   4.236   8.591   2.647 -0.1698  0.3606 -0.1250
 8956SOL    HW129760   4.221   8.675   2.691 -1.1366 -0.0003  0.2749
 8956SOL    HW229761   4.318   8.559   2.684  0.1611  1.0911 -0.2206
 8957SOL     OW29762   1.488   4.423   0.284  0.2936 -0.0194 -0.2846
 8957SOL    HW129763   1.429   4.466   0.346  1.3304 -0.4727  1.0718
 8957SOL    HW229764   1.529   4.495   0.236  0.1799  0.3977  0.2339
 8958SOL     OW29765   8.063   0.650   1.776 -0.0175 -0.6499 -0.1391
 8958SOL    HW129766   8.024   0.737   1.762  0.0354 -0.4394  0.8893
 8958SOL    HW229767   8.148   0.668   1.817 -0.0259 -1.1800  0.1212
 8959SOL     OW29768   3.600   0.113   1.217  0.6233  0.3481  0.3747
 8959SOL    HW129769   3.626   0.143   1.304 -0.3352  1.3212  0.3418
 8959SOL    HW229770   3.682   0.109   1.167  1.4488 -1.8191  1.7443
 8960SOL     OW29771   3.520   1.576   6.076 -0.7336  0.0472 -0.0611
 8960SOL    HW129772   3.580   1.596   6.004 -0.8588  0.4985 -0.0418
 8960SOL    HW229773   3.557   1.497   6.116  0.6064  1.0468  0.7782
 8961SOL     OW29774   4.890   5.307   3.310  0.2664 -0.4354  0.5999
 8961SOL    HW129775   4.978   5.271   3.301 -0.6389 -2.7759  0.1127
 8961SOL    HW229776   4.892   5.358   3.390  2.2422  0.2271  0.1823
 8962SOL     OW29777   2.387   2.061   1.669  0.1970 -0.2979  0.1473
 8962SOL    HW129778   2.312   2.041   1.613  0.1792 -0.4397  0.2238
 8962SOL    HW229779   2.405   1.980   1.716 -0.9266  0.2975  1.6997
 8963SOL     OW29780   7.563   7.149   2.506 -0.2379 -0.5248  0.0579
 8963SOL    HW129781   7.480   7.189   2.479  0.7579  1.0589 -0.8609
 8963SOL    HW229782   7.551   7.128   2.598 -1.4321  0.3611  0.1324
 8964SOL     OW29783   5.047   8.316   3.010  0.7106  0.0096 -0.4127
 8964SOL    HW129784   5.018   8.404   2.987  1.7486  0.3894 -0.3234
 8964SOL    HW229785   4.967   8.271   3.039  0.3410  1.2443  0.5795
 8965SOL     OW29786   0.910   0.062   2.073  0.1383 -0.1446 -0.2914
 8965SOL    HW129787   0.957   0.130   2.120  0.8606 -0.5495 -0.4150
 8965SOL    HW229788   0.860   0.016   2.140 -0.2592  0.4217 -0.1915
 8966SOL     OW29789   3.237   1.169   6.256 -0.4974  0.3949  0.2277
 8966SOL    HW129790   3.286   1.251   6.247 -3.2654  2.3889  1.7119
 8966SOL    HW229791   3.193   1.158   6.172 -1.7842  1.6983  0.6813
 8967SOL     OW29792   1.028   4.875   7.960  0.7428  0.5325 -0.4416
 8967SOL    HW129793   1.010   4.812   7.890  1.9446 -0.1693 -0.1579
 8967SOL    HW229794   1.033   4.821   8.039 -0.2287  1.2709  0.1492
 8968SOL     OW29795   5.786   0.257   5.980  0.2235  0.6688  0.0141
 8968SOL    HW129796   5.839   0.219   5.909 -2.3985 -0.0439 -1.6788
 8968SOL    HW229797   5.806   0.351   5.976  1.8561  0.3493 -0.0883
 8969SOL     OW29798   5.389   0.846   0.158 -0.2899  0.3089 -0.5080
 8969SOL    HW129799   5.471   0.849   0.207  0.4412  2.7903 -1.7283
 8969SOL    HW229800   5.333   0.788   0.209  2.1227 -1.3358  0.4702
 8970SOL     OW29801   1.220   5.550   4.981  0.5920  0.1554 -0.1207
 8970SOL    HW129802   1.231   5.456   4.963  1.6547  0.0516  0.9937
 8970SOL    HW229803   1.143   5.554   5.038 -0.3963  0.1303 -1.4013
 8971SOL     OW29804   5.385   4.600   2.163 -0.5543 -0.0111 -0.1859
 8971SOL    HW129805   5.474   4.632   2.149 -0.6225  0.3285  0.1428
 8971SOL    HW229806   5.386   4.511   2.129  0.1143 -0.2683  0.4706
 8972SOL     OW29807   0.815   0.985   4.245 -0.0267 -0.5167 -0.0185
 8972SOL    HW129808   0.722   0.963   4.249  0.2643 -1.9313 -0.4678
 8972SOL    HW229809   0.861   0.902   4.264  1.1579  0.3891  1.3410
 8973SOL     OW29810   5.832   3.865   6.285 -0.0787  0.3097  0.3038
 8973SOL    HW129811   5.907   3.813   6.312  0.1342  1.3321  1.8316
 8973SOL    HW229812   5.865   3.955   6.280 -0.4863  0.3788 -2.0871
 8974SOL     OW29813   2.818   1.353   8.480 -0.0383  0.4127  0.2029
 8974SOL    HW129814   2.774   1.438   8.469 -0.8393  0.3761  2.5763
 8974SOL    HW229815   2.792   1.324   8.567  1.3821 -1.6272  0.0048
 8975SOL     OW29816   5.142   5.269   0.315  0.5251 -0.4007 -0.1182
 8975SOL    HW129817   5.122   5.247   0.224  0.3885 -0.8815  0.0272
 8975SOL    HW229818   5.085   5.211   0.367  1.0999 -0.6110  0.2810
 8976SOL     OW29819   5.836   2.271   8.928  1.0558 -0.0212  0.0547
 8976SOL    HW129820   5.772   2.242   8.993  1.2388 -0.7970 -0.1030
 8976SOL    HW229821   5.813   2.222   8.848  0.0045  1.8823 -0.8739
 8977SOL     OW29822   2.676   1.731   5.873  0.4285  0.8122 -0.4804
 8977SOL    HW129823   2.732   1.668   5.829 -1.6218 -0.0679 -2.0332
 8977SOL    HW229824   2.655   1.691   5.957  1.1807  0.6296 -0.3749
 8978SOL     OW29825   1.194   7.083   5.677 -0.7807 -0.0773  0.6031
 8978SOL    HW129826   1.142   7.134   5.615 -1.4723 -2.1758 -0.6791
 8978SOL    HW229827   1.247   7.025   5.621  1.1434  0.3102  1.9447
 8979SOL     OW29828   2.324   7.210   6.306 -0.2708  0.1293  0.6562
 8979SOL    HW129829   2.414   7.215   6.336  0.2105  0.6908 -0.7921
 8979SOL    HW229830   2.297   7.301   6.294 -0.1772 -0.0567 -1.2598
 8980SOL     OW29831   8.902   6.722   4.473 -0.6630 -0.0696 -0.1884
 8980SOL    HW129832   8.856   6.770   4.542 -2.1486 -0.5799 -0.8002
 8980SOL    HW229833   8.842   6.721   4.399  0.2302 -0.9682 -0.9327
 8981SOL     OW29834   8.953   8.891   8.653 -0.1749  0.1335 -0.0256
 8981SOL    HW129835   9.030   8.856   8.608  0.2978  0.3142  0.6148
 8981SOL    HW229836   8.983   8.905   8.743 -1.3770 -1.1951  0.6179
 8982SOL     OW29837   1.633   3.859   8.810 -0.4137  0.2546  0.2224
 8982SOL    HW129838   1.658   3.931   8.752  1.1078 -1.3900 -1.2930
 8982SOL    HW229839   1.671   3.881   8.895  2.1674  0.1564 -0.8316
 8983SOL     OW29840   6.959   3.340   1.486  0.0865 -0.1040 -0.1742
 8983SOL    HW129841   7.000   3.406   1.430 -1.2937  1.4472  0.5648
 8983SOL    HW229842   7.018   3.265   1.482  2.1344  1.4374 -0.4561
 8984SOL     OW29843   1.839   3.054   8.789 -0.1170 -0.1132  0.2625
 8984SOL    HW129844   1.867   2.968   8.818 -1.2641 -0.5926  0.0263
 8984SOL    HW229845   1.906   3.082   8.727  0.2790 -0.8312  0.3626
 8985SOL     OW29846   7.441   1.363   8.103  0.2004  0.4863  0.1942
 8985SOL    HW129847   7.535   1.375   8.087  0.3117  0.0181  0.4801
 8985SOL    HW229848   7.432   1.272   8.129 -0.4182  0.3676 -0.4095
 8986SOL     OW29849   6.643   0.697   1.940  0.2157  0.2015  0.4566
 8986SOL    HW129850   6.627   0.790   1.957  0.3761  0.7195 -1.8507
 8986SOL    HW229851   6.647   0.691   1.844 -0.2535 -2.2748  0.5375
 8987SOL     OW29852   7.450   3.139   4.046  1.0083  0.2132 -0.2640
 8987SOL    HW129853   7.509   3.064   4.053 -1.1752 -1.4939  1.3461
 8987SOL    HW229854   7.419   3.137   3.956 -1.0774 -2.6273  0.3917
 8988SOL     OW29855   1.911   6.584   1.243 -0.1449 -0.2640  0.1009
 8988SOL    HW129856   1.922   6.545   1.330 -0.5093  1.8862  1.1687
 8988SOL    HW229857   1.821   6.563   1.218 -0.8677  1.1722  1.3687
 8989SOL     OW29858   6.518   5.822   6.826 -0.0836 -0.0508 -0.1760
 8989SOL    HW129859   6.486   5.751   6.881  1.4808  1.0732  2.3816
 8989SOL    HW229860   6.613   5.812   6.826  0.0286  0.6661 -1.7926
 8990SOL     OW29861   7.700   8.331   2.653  0.0083 -0.2527 -0.4268
 8990SOL    HW129862   7.611   8.314   2.621 -0.5105 -0.4992  1.0287
 8990SOL    HW229863   7.713   8.425   2.641  0.7887 -0.6554 -3.5139
 8991SOL     OW29864   1.385   7.519   4.166 -0.1074 -0.3740 -0.2558
 8991SOL    HW129865   1.416   7.500   4.077 -0.2709  0.6263 -0.5377
 8991SOL    HW229866   1.451   7.481   4.223  1.9125  2.0419 -0.8305
 8992SOL     OW29867   4.819   9.137   7.689 -0.2107 -0.1904 -0.2239
 8992SOL    HW129868   4.895   9.187   7.660 -1.1889  1.0328 -0.7916
 8992SOL    HW229869   4.785   9.097   7.609 -1.0683  0.5553 -0.2358
 8993SOL     OW29870   4.833   4.535   3.034 -0.7267  0.0548 -0.4819
 8993SOL    HW129871   4.907   4.589   3.061  0.1167 -0.5369 -1.5407
 8993SOL    HW229872   4.778   4.530   3.112  0.1151  0.8743  0.1928
 8994SOL     OW29873   1.862   1.369   7.634 -0.1412  0.4820 -0.7421
 8994SOL    HW129874   1.956   1.385   7.626  0.4034 -2.2152 -0.5825
 8994SOL    HW229875   1.848   1.283   7.594 -2.6032  0.8983 -0.9667
 8995SOL     OW29876   7.578   4.620   5.530 -0.1576 -0.5781 -0.0149
 8995SOL    HW129877   7.640   4.650   5.597 -0.3333 -1.1523  0.4202
 8995SOL    HW229878   7.631   4.568   5.470  0.4544  1.7302 -1.6248
 8996SOL     OW29879   2.798   0.412   9.178 -0.0810 -0.2436  0.6593
 8996SOL    HW129880   2.845   0.347   9.230  1.5196  0.6245  0.3438
 8996SOL    HW229881   2.776   0.481   9.240  0.5444  0.1140  0.4943
 8997SOL     OW29882   8.161   3.963   0.639  0.7615 -0.1170  0.2406
 8997SOL    HW129883   8.114   4.016   0.576 -0.5339 -3.1299 -1.5703
 8997SOL    HW229884   8.218   3.907   0.586  2.1102 -0.5381  2.0031
 8998SOL     OW29885   5.089   1.793   7.879  0.1850  0.0229 -0.3737
 8998SOL    HW129886   5.027   1.728   7.844  0.9750 -1.5427  1.0219
 8998SOL    HW229887   5.166   1.742   7.904  1.2485  1.6629 -0.1655
 8999SOL     OW29888   5.319   1.235   8.759 -0.5520 -0.3442  0.1255
 8999SOL    HW129889   5.287   1.146   8.738  0.0305 -0.9270  1.5998
 8999SOL    HW229890   5.402   1.221   8.804 -0.8176  0.9252  1.0545
 9000SOL     OW29891   0.981   6.658   4.621  0.0792 -0.8797  0.4507
 9000SOL    HW129892   0.977   6.661   4.716 -1.3857 -1.4969  0.4237
 9000SOL    HW229893   0.895   6.626   4.593  0.4699 -0.7032 -1.0809
 9001SOL     OW29894   8.417   2.283   4.908 -0.1152  0.1853 -0.3346
 9001SOL    HW129895   8.404   2.365   4.860  0.7535  0.9876  0.7419
 9001SOL    HW229896   8.379   2.216   4.851  0.2375  1.1749 -1.8130
 9002SOL     OW29897   3.286   7.689   5.155  0.0902 -0.5571  0.1814
 9002SOL    HW129898   3.206   7.676   5.207 -0.4563  0.3968 -0.3779
 9002SOL    HW229899   3.278   7.779   5.122  0.2187 -1.2475 -1.8729
 9003SOL     OW29900   8.339   4.535   4.164  0.8587 -0.5450 -0.1625
 9003SOL    HW129901   8.272   4.468   4.152  0.2202 -0.3126  1.8195
 9003SOL    HW229902   8.421   4.490   4.143  0.1269 -0.5329 -3.7563
 9004SOL     OW29903   0.915   7.742   2.257  0.1821 -0.6695  0.4617
 9004SOL    HW129904   0.993   7.737   2.312  0.0359 -0.2598  0.7092
 9004SOL    HW229905   0.888   7.834   2.263  1.5040 -0.0117 -2.1239
 9005SOL     OW29906   5.948   7.160   3.150  0.1683  0.0986 -0.4396
 9005SOL    HW129907   5.908   7.073   3.149 -0.7361  0.4947 -1.6618
 9005SOL    HW229908   5.883   7.216   3.107  1.5143  1.0152 -1.3566
 9006SOL     OW29909   4.140   6.044   8.227  0.0631 -0.5701  0.6543
 9006SOL    HW129910   4.194   5.970   8.254 -0.6181 -0.8024  1.4344
 9006SOL    HW229911   4.111   6.083   8.310 -0.2192  0.0938  0.2451
 9007SOL     OW29912   1.536   0.604   7.550  0.1666 -0.1443 -0.0479
 9007SOL    HW129913   1.631   0.598   7.558  0.1364  1.3075  3.0706
 9007SOL    HW229914   1.520   0.603   7.456  3.1421 -1.5572 -0.6650
 9008SOL     OW29915   0.935   6.700   7.866  0.1948  0.9232 -0.8708
 9008SOL    HW129916   1.024   6.720   7.837  1.7254 -0.2090  2.5806
 9008SOL    HW229917   0.908   6.777   7.915  0.1969  0.3804 -0.0047
 9009SOL     OW29918   4.162   0.519   4.885 -0.3177  0.0579  0.2881
 9009SOL    HW129919   4.217   0.442   4.900 -0.1285  0.4325  1.6317
 9009SOL    HW229920   4.076   0.484   4.865 -0.3913 -0.5012  1.5442
 9010SOL     OW29921   1.747   7.503   5.800 -0.0171 -0.5732 -0.0858
 9010SOL    HW129922   1.656   7.475   5.811  0.5256 -1.9756  1.3364
 9010SOL    HW229923   1.794   7.423   5.778  1.0875 -0.1756  0.7072
 9011SOL     OW29924   7.801   6.681   3.466  0.3002 -0.0290  0.0096
 9011SOL    HW129925   7.771   6.772   3.462 -0.7427 -0.3474  0.1801
 9011SOL    HW229926   7.758   6.638   3.391  0.0619 -0.5725  0.4491
 9012SOL     OW29927   1.279   8.574   5.668  0.6066  0.6124  0.0941
 9012SOL    HW129928   1.219   8.634   5.623  0.7876  0.3191 -0.5406
 9012SOL    HW229929   1.336   8.632   5.719 -0.5316  0.8768  1.1232
 9013SOL     OW29930   7.156   0.533   3.121  0.1598 -0.9354  0.3007
 9013SOL    HW129931   7.162   0.617   3.166 -1.0080  0.4033 -1.8683
 9013SOL    HW229932   7.223   0.478   3.163  1.1899  1.1685  1.5584
 9014SOL     OW29933   1.088   5.480   0.644 -0.0671 -0.3059  0.2996
 9014SOL    HW129934   1.168   5.519   0.609  0.0521 -0.6583  0.1731
 9014SOL    HW229935   1.094   5.388   0.619  0.4944 -0.7800  2.0887
 9015SOL     OW29936   5.676   3.917   5.662  0.1092 -0.5787 -0.4212
 9015SOL    HW129937   5.620   3.840   5.675  0.0673 -0.2923  1.3954
 9015SOL    HW229938   5.761   3.891   5.698  0.6807 -0.4531 -1.6583
 9016SOL     OW29939   4.767   1.946   5.883 -0.5393 -0.5109 -0.5751
 9016SOL    HW129940   4.730   2.032   5.863  1.0024 -0.4735 -4.0062
 9016SOL    HW229941   4.852   1.965   5.924 -0.1976 -0.3345 -1.3356
 9017SOL     OW29942   1.918   1.487   8.984 -0.3621  0.3416 -0.1308
 9017SOL    HW129943   1.989   1.434   9.020 -0.0234 -0.1525 -1.4723
 9017SOL    HW229944   1.863   1.424   8.937  0.0798  1.1585 -1.8059
 9018SOL     OW29945   8.881   6.120   4.539  0.3846  0.8116 -0.1440
 9018SOL    HW129946   8.915   6.197   4.585  1.1124  0.6079 -0.3225
 9018SOL    HW229947   8.788   6.119   4.559  0.9948 -0.7248  3.5579
 9019SOL     OW29948   2.941   9.238   2.860  0.0666 -0.9241 -0.2502
 9019SOL    HW129949   3.002   9.292   2.811 -1.5400  0.1341 -1.1717
 9019SOL    HW229950   2.986   9.222   2.944  1.7125 -0.4785 -1.0020
 9020SOL     OW29951   6.901   1.673   7.084  0.4661  0.5086 -0.1769
 9020SOL    HW129952   6.970   1.656   7.020  0.5685  1.7344 -0.4136
 9020SOL    HW229953   6.892   1.768   7.085 -1.7639  0.3608 -0.7150
 9021SOL     OW29954   8.355   7.221   5.086 -0.3842  0.1215  0.0902
 9021SOL    HW129955   8.296   7.167   5.139  0.9710 -0.5475  0.9786
 9021SOL    HW229956   8.342   7.189   4.997  0.4190 -1.7823  0.5957
 9022SOL     OW29957   5.179   4.326   3.209  0.2698 -0.0506 -0.4935
 9022SOL    HW129958   5.253   4.384   3.194 -0.4623  0.8738 -0.7016
 9022SOL    HW229959   5.217   4.239   3.216  1.2831  0.2879 -1.4522
 9023SOL     OW29960   2.040   3.304   0.195  0.0718  0.0493 -0.3445
 9023SOL    HW129961   2.084   3.324   0.277 -0.8646  1.1453 -0.0961
 9023SOL    HW229962   1.954   3.344   0.202 -2.0970 -4.1687  0.2264
 9024SOL     OW29963   1.490   6.600   1.826 -0.4183  0.1483  0.0218
 9024SOL    HW129964   1.454   6.568   1.743  1.3000  1.8019 -1.4341
 9024SOL    HW229965   1.511   6.521   1.875 -2.9067 -0.8721 -0.3999
 9025SOL     OW29966   0.263   6.957   2.989 -0.3722  0.3102  0.2075
 9025SOL    HW129967   0.172   6.977   2.967 -0.5520 -0.1741  0.4756
 9025SOL    HW229968   0.305   6.941   2.905 -0.4982  0.6837  0.0713
 9026SOL     OW29969   2.211   2.324   4.266  0.0156  0.0430  0.2216
 9026SOL    HW129970   2.292   2.281   4.295 -0.1693 -0.4044  0.0705
 9026SOL    HW229971   2.165   2.346   4.348 -0.1296 -0.5042  0.2886
 9027SOL     OW29972   5.760   8.728   6.530  0.9300 -0.7800  0.4267
 9027SOL    HW129973   5.764   8.643   6.574  1.3101  0.0757  2.1197
 9027SOL    HW229974   5.845   8.737   6.488  2.0628  0.0044  2.7448
 9028SOL     OW29975   3.530   0.086   8.454  0.6742  0.2856  0.2942
 9028SOL    HW129976   3.465   0.031   8.411  0.2383  0.9516  0.0755
 9028SOL    HW229977   3.596   0.025   8.486 -1.0705 -0.6602  2.4010
 9029SOL     OW29978   3.983   6.619   1.284 -0.0324  0.1616 -0.1676
 9029SOL    HW129979   4.074   6.622   1.256 -0.3576  0.3186 -1.2578
 9029SOL    HW229980   3.960   6.710   1.303  0.2569  0.0311  0.9189
 9030SOL     OW29981   1.424   0.084   2.376  0.4991 -0.0102  0.0072
 9030SOL    HW129982   1.414   0.076   2.281 -0.7708 -0.8303  0.1845
 9030SOL    HW229983   1.347   0.133   2.405  0.0468 -1.0990  0.7611
 9031SOL     OW29984   3.209   1.213   8.344  0.3603 -0.6308  0.7395
 9031SOL    HW129985   3.148   1.193   8.273 -1.8204  0.8150  2.0986
 9031SOL    HW229986   3.281   1.259   8.301  0.2944 -1.9026 -0.8405
 9032SOL     OW29987   3.373   0.164   6.492 -0.0750 -0.0527  0.2843
 9032SOL    HW129988   3.416   0.250   6.496 -1.3120  0.5911  0.0886
 9032SOL    HW229989   3.441   0.103   6.520  1.5353  0.7191 -1.6730
 9033SOL     OW29990   7.157   8.022   0.483 -0.1575  0.2711  0.3036
 9033SOL    HW129991   7.221   8.071   0.431 -1.2228 -1.9783 -3.5349
 9033SOL    HW229992   7.072   8.055   0.453 -0.8515 -2.4083 -0.9758
 9034SOL     OW29993   3.219   0.634   6.988  0.0076  0.0409  0.2198
 9034SOL    HW129994   3.147   0.572   6.976  0.4421 -0.1161 -1.9166
 9034SOL    HW229995   3.178   0.720   6.981 -0.0651 -0.0468 -0.4927
 9035SOL     OW29996   7.049   6.150   7.626  0.5929 -0.0113  0.4634
 9035SOL    HW129997   7.103   6.210   7.576 -0.0111  0.9677  0.9570
 9035SOL    HW229998   6.959   6.169   7.598  0.2631  0.4119  1.7307
 9036SOL     OW29999   3.930   5.287   2.593  0.0599  0.7207  0.3500
 9036SOL    HW130000   4.010   5.262   2.548  0.2203 -1.3754  1.6567
 9036SOL    HW230001   3.954   5.363   2.645  0.7896  1.0203 -0.4041
 9037SOL     OW30002   4.811   4.811   7.734  0.2204 -0.2682  0.1340
 9037SOL    HW130003   4.845   4.738   7.683  0.6137  0.5684 -0.8558
 9037SOL    HW230004   4.866   4.814   7.812  0.6354 -0.6090 -0.1435
 9038SOL     OW30005   0.148   0.556   6.051 -0.2336  0.2984  0.1708
 9038SOL    HW130006   0.162   0.496   6.124  1.1691  0.9969  0.5200
 9038SOL    HW230007   0.058   0.588   6.063 -0.0890  0.2636  1.4894
 9039SOL     OW30008   1.730   5.351   6.282  1.1189  0.2079  0.1310
 9039SOL    HW130009   1.773   5.275   6.322 -0.7633 -0.8988  0.1937
 9039SOL    HW230010   1.772   5.361   6.197  2.2857 -0.0663  0.6605
 9040SOL     OW30011   5.442   1.752   6.348  0.3411  0.2265  0.0073
 9040SOL    HW130012   5.469   1.716   6.433 -1.3706  1.0548  0.9592
 9040SOL    HW230013   5.524   1.772   6.303  1.2908 -0.4355  1.3704
 9041SOL     OW30014   3.531   3.481   4.501  0.0735  0.1101 -0.0217
 9041SOL    HW130015   3.531   3.402   4.556 -0.0516 -1.3571 -2.0417
 9041SOL    HW230016   3.523   3.553   4.564 -1.6256 -1.5436  1.7891
 9042SOL     OW30017   0.951   7.312   4.058  0.2165 -0.9255  0.0750
 9042SOL    HW130018   0.955   7.299   3.963  0.0171 -1.1390  0.0939
 9042SOL    HW230019   0.931   7.405   4.069  2.2755 -0.4164 -0.0628
 9043SOL     OW30020   0.354   5.068   5.401  0.0844  0.1559  0.0452
 9043SOL    HW130021   0.405   5.139   5.360  0.7493 -0.5687 -0.4191
 9043SOL    HW230022   0.418   5.023   5.457 -0.7246  0.9072  1.6315
 9044SOL     OW30023   0.283   4.640   7.609  0.1451  0.2346  0.3764
 9044SOL    HW130024   0.365   4.592   7.618  0.7685  1.5099  2.2137
 9044SOL    HW230025   0.278   4.694   7.688 -1.2876  1.9820 -0.8229
 9045SOL     OW30026   0.273   5.138   5.036  0.3506  0.9112 -0.7187
 9045SOL    HW130027   0.271   5.222   5.081  0.1354  2.6303 -3.6539
 9045SOL    HW230028   0.348   5.092   5.073 -1.6041  0.7076  3.5507
 9046SOL     OW30029   2.566   0.585   1.546  0.4397  0.1334 -0.7018
 9046SOL    HW130030   2.529   0.672   1.558  1.1812  0.3254  0.3380
 9046SOL    HW230031   2.660   0.597   1.560  0.4727 -0.9308  0.1059
 9047SOL     OW30032   7.775   5.080   0.964 -0.6787  0.1301 -0.1939
 9047SOL    HW130033   7.781   4.985   0.955  1.2726  0.1775  0.2459
 9047SOL    HW230034   7.687   5.095   1.000 -0.2836 -1.6732  1.7407
 9048SOL     OW30035   7.390   4.038   8.634 -0.2064 -0.3700  0.2433
 9048SOL    HW130036   7.364   3.972   8.569 -0.3104 -1.8310  1.7082
 9048SOL    HW230037   7.363   4.122   8.595 -0.9950 -1.2556 -1.2243
 9049SOL     OW30038   3.507   0.597   3.491 -0.1516  0.1056  0.0658
 9049SOL    HW130039   3.441   0.531   3.469  0.0135  0.0801 -0.3644
 9049SOL    HW230040   3.517   0.649   3.411  0.6246 -0.1276  0.0013
 9050SOL     OW30041   3.682   7.595   3.049 -0.0875 -0.4341 -0.3392
 9050SOL    HW130042   3.623   7.645   3.105  0.9754 -1.0054  1.3380
 9050SOL    HW230043   3.660   7.504   3.065 -0.5461 -0.5986 -1.7538
 9051SOL     OW30044   6.214   1.022   2.727 -0.5057  0.3109  0.5288
 9051SOL    HW130045   6.259   1.060   2.652 -1.2728 -2.4358 -1.4817
 9051SOL    HW230046   6.136   1.077   2.739 -0.4756  0.6800 -0.8325
 9052SOL     OW30047   5.091   8.048   0.144 -0.2362  0.2066 -0.6326
 9052SOL    HW130048   5.109   8.140   0.164  2.1993 -0.0088 -1.4916
 9052SOL    HW230049   5.057   8.050   0.054 -1.2637  0.3335 -0.2523
 9053SOL     OW30050   4.888   4.444   8.233 -0.0689  0.4151 -0.2913
 9053SOL    HW130051   4.821   4.396   8.282 -0.4613 -1.6380 -2.6527
 9053SOL    HW230052   4.863   4.433   8.142  2.4351  1.2659 -1.1567
 9054SOL     OW30053   4.216   0.341   3.282  0.1770 -0.2825  0.6297
 9054SOL    HW130054   4.130   0.346   3.323  0.1974  0.1294  0.6267
 9054SOL    HW230055   4.276   0.372   3.350  0.2447  0.1113  0.3975
 9055SOL     OW30056   0.825   3.094   0.668 -0.2683 -0.7522  0.8082
 9055SOL    HW130057   0.781   3.016   0.635 -0.1585  0.2374 -1.8514
 9055SOL    HW230058   0.913   3.089   0.632  0.4362 -0.4379  2.3945
 9056SOL     OW30059   6.206   5.236   1.510 -0.3349  0.0353  0.4476
 9056SOL    HW130060   6.185   5.235   1.417  3.7325  0.1152 -0.6455
 9056SOL    HW230061   6.183   5.148   1.540 -0.2345 -0.5251 -1.0238
 9057SOL     OW30062   2.984   7.789   5.048 -0.0074 -0.4395  0.6539
 9057SOL    HW130063   2.922   7.772   4.978  1.4286  0.0845 -0.7977
 9057SOL    HW230064   2.969   7.881   5.073  0.3436 -0.2330  0.1199
 9058SOL     OW30065   3.328   6.849   5.791  0.2029  0.1815 -0.1067
 9058SOL    HW130066   3.372   6.776   5.834 -0.5854  0.4165  1.1304
 9058SOL    HW230067   3.279   6.892   5.861 -3.0602 -0.7942 -1.6085
 9059SOL     OW30068   8.061   0.737   0.089 -0.4597 -0.3240 -0.6491
 9059SOL    HW130069   7.982   0.779   0.124 -1.3060 -1.1194 -1.5261
 9059SOL    HW230070   8.047   0.735  -0.005 -0.2144 -2.0741 -0.6782
 9060SOL     OW30071   4.734   5.152   0.781 -0.0483 -0.0243  0.1823
 9060SOL    HW130072   4.653   5.135   0.828  0.0813  1.6732  1.0581
 9060SOL    HW230073   4.715   5.125   0.691 -0.4052 -2.9878  1.0385
 9061SOL     OW30074   7.253   6.304   6.357 -0.2520  0.3019  0.3520
 9061SOL    HW130075   7.206   6.290   6.276 -1.8521 -2.0274  1.5534
 9061SOL    HW230076   7.303   6.223   6.370 -1.2370 -0.0563  2.3751
 9062SOL     OW30077   4.217   6.996   5.979 -1.0528  0.1951  0.1828
 9062SOL    HW130078   4.203   7.089   5.962 -1.5630 -0.2864 -2.5507
 9062SOL    HW230079   4.293   6.993   6.037 -2.2676  2.3411  2.0687
 9063SOL     OW30080   6.690   1.558   3.533  0.3170  0.0368  0.5290
 9063SOL    HW130081   6.683   1.472   3.576  0.6185 -0.0526  0.4033
 9063SOL    HW230082   6.713   1.618   3.603 -0.6997  0.1615  0.7673
 9064SOL     OW30083   5.682   1.497   2.251 -0.0462 -0.1938 -0.5983
 9064SOL    HW130084   5.732   1.441   2.192  0.8144  0.2506 -0.3121
 9064SOL    HW230085   5.739   1.572   2.267 -1.4684  1.1581 -1.5685
 9065SOL     OW30086   8.464   0.244   4.946 -0.2007 -0.7831 -0.1566
 9065SOL    HW130087   8.451   0.321   4.891 -1.6339 -0.0543  1.1167
 9065SOL    HW230088   8.557   0.245   4.968 -0.0408  0.1272 -0.7900
 9066SOL     OW30089   4.245   8.268   7.064 -0.1448  0.5683 -0.1310
 9066SOL    HW130090   4.236   8.198   6.999 -0.8126  1.6768 -1.2612
 9066SOL    HW230091   4.155   8.283   7.095  0.0928  0.4441  0.6555
 9067SOL     OW30092   3.954   3.854   5.229 -0.0934  0.5777  0.0834
 9067SOL    HW130093   3.955   3.856   5.133 -2.0500 -1.4160 -0.0610
 9067SOL    HW230094   3.874   3.900   5.253 -1.7823 -2.2719  0.4470
 9068SOL     OW30095   5.439   5.317   0.544 -0.7097 -0.2468  0.4899
 9068SOL    HW130096   5.443   5.248   0.479 -0.9954  0.8854 -0.7761
 9068SOL    HW230097   5.351   5.311   0.581 -1.7311  1.0724 -1.5400
 9069SOL     OW30098   5.505   1.722   0.705 -0.0322 -0.5029 -0.1019
 9069SOL    HW130099   5.535   1.637   0.674 -1.5789 -0.1638 -2.8491
 9069SOL    HW230100   5.410   1.719   0.697 -0.3236  0.7480  1.9561
 9070SOL     OW30101   0.282   4.274   8.610 -0.2956 -0.4605 -0.9062
 9070SOL    HW130102   0.373   4.304   8.607 -0.2582 -0.6292 -1.8604
 9070SOL    HW230103   0.231   4.348   8.576 -0.6746  0.1174  0.8038
 9071SOL     OW30104   5.947   0.288   6.635  0.0800 -0.2728 -0.2051
 9071SOL    HW130105   5.926   0.195   6.643 -2.1060  0.0939 -0.8176
 9071SOL    HW230106   5.864   0.333   6.655  0.9425  1.5115 -0.4445
 9072SOL     OW30107   8.024   1.154   7.848  0.3652 -0.0284  0.1391
 9072SOL    HW130108   8.080   1.214   7.799 -0.5690  1.8110  1.2196
 9072SOL    HW230109   8.022   1.189   7.937 -1.0115 -1.0884  0.5657
 9073SOL     OW30110   6.735   2.184   3.241 -0.5989  0.3856 -0.7313
 9073SOL    HW130111   6.826   2.155   3.241 -0.9275 -0.6994 -0.4283
 9073SOL    HW230112   6.690   2.123   3.182 -1.4207 -0.1041  0.3641
 9074SOL     OW30113   7.577   4.599   1.929 -0.4915  0.4171  0.0045
 9074SOL    HW130114   7.495   4.622   1.972 -0.7445  0.8968 -0.7125
 9074SOL    HW230115   7.554   4.527   1.871 -0.0107 -0.6815  1.1470
 9075SOL     OW30116   6.184   5.079   0.091 -0.5171  0.5970 -0.0947
 9075SOL    HW130117   6.146   5.166   0.106 -0.8900  0.2917  0.8278
 9075SOL    HW230118   6.173   5.034   0.175  0.6877  0.0333 -0.2223
 9076SOL     OW30119   8.369   2.590   2.616  0.1887  0.6832  0.8513
 9076SOL    HW130120   8.289   2.640   2.605 -1.6071 -2.2752 -0.8287
 9076SOL    HW230121   8.348   2.524   2.683  1.2754 -0.0041  0.5539
 9077SOL     OW30122   0.714   6.503   8.404  0.2824 -0.2601 -0.4517
 9077SOL    HW130123   0.621   6.482   8.412  0.0651  0.6300 -0.5813
 9077SOL    HW230124   0.716   6.590   8.364  1.1426  0.2463  0.6286
 9078SOL     OW30125   0.941   6.428   2.803 -0.0381 -0.2698  0.2495
 9078SOL    HW130126   0.986   6.472   2.731 -2.2019  1.2096 -0.2984
 9078SOL    HW230127   0.981   6.463   2.882  0.6112  0.0492 -0.2130
 9079SOL     OW30128   2.251   4.227   0.553  0.1350  0.5017  0.0173
 9079SOL    HW130129   2.168   4.230   0.504 -0.1017  3.9261  0.3816
 9079SOL    HW230130   2.318   4.212   0.486 -0.6511 -1.0037 -0.4606
 9080SOL     OW30131   9.238   3.100   6.403  0.0673  0.5354 -0.0148
 9080SOL    HW130132   9.255   3.079   6.311  1.7711 -0.4869  0.4813
 9080SOL    HW230133   9.238   3.015   6.447  2.4210  1.1412  1.3560
 9081SOL     OW30134   7.869   8.528   6.470 -0.7332 -0.6737 -0.1336
 9081SOL    HW130135   7.859   8.623   6.458 -0.6907 -0.2748  2.4936
 9081SOL    HW230136   7.782   8.497   6.493 -0.7687 -1.3360 -1.0924
 9082SOL     OW30137   1.202   4.249   7.474 -0.5787 -0.0950  0.4337
 9082SOL    HW130138   1.162   4.326   7.433  0.4760  0.0427 -0.3896
 9082SOL    HW230139   1.294   4.254   7.449 -0.8916 -3.0250 -1.9132
 9083SOL     OW30140   6.300   4.476   3.596  0.2359 -0.1872  0.2280
 9083SOL    HW130141   6.309   4.430   3.513  0.8003 -0.9081  0.6716
 9083SOL    HW230142   6.329   4.565   3.578  1.1337 -0.5518 -0.1505
 9084SOL     OW30143   3.319   0.951   8.753  0.4409  0.2435 -0.2124
 9084SOL    HW130144   3.276   0.940   8.838 -2.1233  0.8704 -1.3427
 9084SOL    HW230145   3.345   1.043   8.751 -0.5528  0.5260 -0.5407
 9085SOL     OW30146   2.711   6.335   3.334 -0.3250 -0.1184 -0.0402
 9085SOL    HW130147   2.758   6.381   3.264  0.0607  0.0156  0.3016
 9085SOL    HW230148   2.689   6.250   3.297 -1.4425  0.4914 -0.8417
 9086SOL     OW30149   1.532   6.610   0.386 -0.4760  0.2237  0.0068
 9086SOL    HW130150   1.562   6.525   0.354 -1.1130  0.7188 -2.0764
 9086SOL    HW230151   1.568   6.674   0.324 -1.4538  1.2966  0.4974
 9087SOL     OW30152   8.213   3.337   1.967  0.1099  0.3879  0.2083
 9087SOL    HW130153   8.224   3.405   1.901  0.7484 -0.9894 -1.1456
 9087SOL    HW230154   8.160   3.270   1.924  0.5248 -0.5291  1.0901
 9088SOL     OW30155   5.830   3.865   7.593 -0.2496  0.0371  0.3427
 9088SOL    HW130156   5.787   3.913   7.664 -1.5396  1.0740 -1.0859
 9088SOL    HW230157   5.895   3.926   7.558 -1.0386  0.3068 -0.6812
 9089SOL     OW30158   0.515   3.912   3.275 -0.1149  0.8389 -0.6936
 9089SOL    HW130159   0.422   3.888   3.279  0.2224 -0.4258 -0.1490
 9089SOL    HW230160   0.514   4.007   3.261 -1.4898  0.7614 -1.3162
 9090SOL     OW30161   0.759   5.809   2.326 -0.5023 -0.1797  0.5020
 9090SOL    HW130162   0.679   5.838   2.370 -1.5870  0.1250 -1.5581
 9090SOL    HW230163   0.774   5.721   2.361 -1.6769 -0.2029  1.0110
 9091SOL     OW30164   6.260   3.174   6.563  0.4655  0.7476 -0.3422
 9091SOL    HW130165   6.222   3.091   6.591 -0.5708  1.5513  0.7757
 9091SOL    HW230166   6.299   3.156   6.478 -1.3601 -0.4422 -0.9855
 9092SOL     OW30167   3.439   3.050   8.460 -0.1927 -0.1911  0.2395
 9092SOL    HW130168   3.442   3.074   8.553  1.0911 -1.0481  0.4475
 9092SOL    HW230169   3.411   2.958   8.461  1.5392 -0.7675 -0.0661
 9093SOL     OW30170   0.688   7.995   4.781 -0.1207  0.1083  0.3308
 9093SOL    HW130171   0.728   7.982   4.695  1.0177 -0.9532  0.9834
 9093SOL    HW230172   0.757   7.972   4.843 -1.3614 -0.5298  1.5245
 9094SOL     OW30173   8.626   3.489   5.578 -0.5937  0.3648  0.3487
 9094SOL    HW130174   8.569   3.426   5.534  0.0326 -0.1814  0.3015
 9094SOL    HW230175   8.673   3.437   5.644 -1.6076  1.1834  1.7690
 9095SOL     OW30176   1.340   5.941   1.823 -0.2638 -0.2570  0.1890
 9095SOL    HW130177   1.248   5.942   1.847  0.0744  1.3002  1.6608
 9095SOL    HW230178   1.341   5.912   1.732 -2.4260  1.7928 -0.6059
 9096SOL     OW30179   7.843   6.369   5.820  0.4140  0.2470  0.0821
 9096SOL    HW130180   7.901   6.295   5.799 -0.5923 -0.2511 -1.0921
 9096SOL    HW230181   7.895   6.446   5.798  1.0146 -0.1551  0.0438
 9097SOL     OW30182   0.424   3.879   8.800  0.4592  0.0406 -0.3242
 9097SOL    HW130183   0.383   3.927   8.728 -0.3119  1.5982  1.0837
 9097SOL    HW230184   0.350   3.846   8.852  0.9639  0.7021  0.8604
 9098SOL     OW30185   6.492   3.430   5.326 -0.0147  0.1439  0.1236
 9098SOL    HW130186   6.416   3.382   5.358 -0.2306  0.0888 -0.4674
 9098SOL    HW230187   6.567   3.389   5.369 -0.3790  0.8231  1.4722
 9099SOL     OW30188   5.681   7.838   4.404 -0.5807 -0.7060  0.5443
 9099SOL    HW130189   5.684   7.886   4.487 -0.5890 -0.1078  0.2003
 9099SOL    HW230190   5.589   7.815   4.393 -0.4157 -1.7969  1.2661
 9100SOL     OW30191   3.196   7.578   1.612 -0.3317  0.1882 -0.5094
 9100SOL    HW130192   3.121   7.521   1.592 -1.6033  0.9685  1.6304
 9100SOL    HW230193   3.212   7.626   1.531 -0.8525 -1.4124 -1.6130
 9101SOL     OW30194   1.661   7.242   8.199 -0.3204  0.0623  0.5346
 9101SOL    HW130195   1.747   7.201   8.215 -0.6281  0.0315  2.3144
 9101SOL    HW230196   1.612   7.227   8.280 -1.4395  1.5162  0.1589
 9102SOL     OW30197   6.450   4.691   3.545  0.5420  0.6341 -1.1471
 9102SOL    HW130198   6.518   4.698   3.612 -0.1000 -1.7937 -0.1183
 9102SOL    HW230199   6.427   4.782   3.524  1.2675  1.5064  1.4473
 9103SOL     OW30200   4.733   1.419   1.461  0.1088  0.5100  0.0557
 9103SOL    HW130201   4.720   1.477   1.386 -0.8075  1.0439  0.6114
 9103SOL    HW230202   4.751   1.333   1.423 -1.6097  0.4954 -0.7932
 9104SOL     OW30203   6.680   6.655   0.053  0.5060 -0.2431 -0.0368
 9104SOL    HW130204   6.764   6.610   0.040  1.2879  1.3101 -0.5624
 9104SOL    HW230205   6.696   6.714   0.127  0.5947  1.6653 -1.5087
 9105SOL     OW30206   8.399   0.760   0.468 -0.2496 -0.0089  0.2270
 9105SOL    HW130207   8.447   0.833   0.428 -2.0310 -0.2524 -2.6001
 9105SOL    HW230208   8.427   0.683   0.419 -2.3634 -0.3713 -0.5006
 9106SOL     OW30209   3.982   0.546   5.412  0.6529 -0.4685 -0.1886
 9106SOL    HW130210   3.922   0.521   5.342  0.0926  1.1559 -0.3537
 9106SOL    HW230211   4.066   0.510   5.386  0.6889  0.8947 -2.2479
 9107SOL     OW30212   4.209   5.558   5.197 -0.0958 -0.3632 -0.3557
 9107SOL    HW130213   4.292   5.521   5.168 -0.6126 -1.0767 -0.9647
 9107SOL    HW230214   4.177   5.496   5.263  0.9741  1.1423  1.6859
 9108SOL     OW30215   1.460   7.418   7.040  0.4110 -0.1636 -0.0506
 9108SOL    HW130216   1.529   7.402   7.105 -0.2504 -1.1435  0.4388
 9108SOL    HW230217   1.414   7.496   7.072  1.5108  0.7191 -0.5786
 9109SOL     OW30218   5.168   5.186   1.292 -0.3154 -0.2585  0.4912
 9109SOL    HW130219   5.081   5.221   1.274  0.0814  0.3829 -0.2504
 9109SOL    HW230220   5.160   5.144   1.378 -1.7325 -1.5228 -0.2217
 9110SOL     OW30221   6.930   4.194   8.706 -0.1838  0.0017 -0.8029
 9110SOL    HW130222   6.951   4.140   8.630  0.9859 -1.3171  0.4036
 9110SOL    HW230223   6.863   4.144   8.753  2.3908 -1.6034  1.4424
 9111SOL     OW30224   7.260   7.764   5.827  0.2414 -0.0271 -0.5278
 9111SOL    HW130225   7.338   7.772   5.771 -0.4637  1.3996 -1.3763
 9111SOL    HW230226   7.187   7.780   5.768 -0.7371 -1.5343  0.2195
 9112SOL     OW30227   1.308   8.563   2.871  0.2509 -0.2610 -0.1675
 9112SOL    HW130228   1.356   8.483   2.848  1.0980  0.3859 -0.7323
 9112SOL    HW230229   1.216   8.539   2.865  0.4134 -0.4849 -3.1870
 9113SOL     OW30230   3.943   4.297   5.239  0.8963 -0.0063  0.1963
 9113SOL    HW130231   3.889   4.219   5.223  0.1677  0.8101 -1.5829
 9113SOL    HW230232   3.998   4.273   5.313 -2.7237 -0.5063  3.0603
 9114SOL     OW30233   1.723   0.041   3.286  0.0390  0.3736  0.0424
 9114SOL    HW130234   1.646   0.092   3.259 -0.2901 -0.0443  0.1810
 9114SOL    HW230235   1.783   0.048   3.212 -1.1400 -1.3564 -1.1837
 9115SOL     OW30236   4.093   5.839   7.896 -0.0670 -0.3462  0.0251
 9115SOL    HW130237   4.064   5.806   7.811  0.8617 -0.8729 -0.1011
 9115SOL    HW230238   4.053   5.926   7.903 -0.9550 -0.6945 -0.5079
 9116SOL     OW30239   1.894   0.350   4.775  0.3741 -0.3273 -0.3602
 9116SOL    HW130240   1.865   0.262   4.749  0.4507 -0.2350 -0.7694
 9116SOL    HW230241   1.990   0.345   4.770  0.3538  0.3149 -2.2430
 9117SOL     OW30242   7.874   0.906   4.400 -0.1549  0.0831  0.0664
 9117SOL    HW130243   7.956   0.877   4.358  0.2268  0.7187  0.3480
 9117SOL    HW230244   7.817   0.929   4.327 -0.4640 -1.3487 -0.1588
 9118SOL     OW30245   8.094   8.826   3.963  0.0468 -0.1163  0.1178
 9118SOL    HW130246   8.093   8.804   4.056  1.4080 -0.5269  0.0514
 9118SOL    HW230247   8.143   8.755   3.922  2.2151  1.6039 -0.4623
 9119SOL     OW30248   6.240   6.065   2.418 -0.0827 -0.1237  0.0765
 9119SOL    HW130249   6.334   6.052   2.423  0.1264  1.3375  0.3123
 9119SOL    HW230250   6.229   6.141   2.360 -1.1357 -0.4819 -0.2261
 9120SOL     OW30251   7.427   5.621   7.633  0.2231  0.0314  0.0695
 9120SOL    HW130252   7.462   5.692   7.688  1.3559 -0.3878 -0.0746
 9120SOL    HW230253   7.489   5.549   7.646  0.1215 -0.3108 -1.2095
 9121SOL     OW30254   6.064   3.749   7.958  0.2749 -1.2528 -0.7110
 9121SOL    HW130255   6.059   3.704   7.874  1.1237  0.2203 -1.6011
 9121SOL    HW230256   6.117   3.827   7.941 -3.0498  1.4707  0.1182
 9122SOL     OW30257   3.546   5.715   6.434  0.2846 -0.9563  0.2874
 9122SOL    HW130258   3.519   5.783   6.372 -0.4661 -0.2496  1.3574
 9122SOL    HW230259   3.641   5.706   6.420  0.6847  1.3637  1.1095
 9123SOL     OW30260   6.243   3.533   7.630  0.1696 -0.1846  0.2366
 9123SOL    HW130261   6.194   3.456   7.660 -0.2671  0.0513  0.1282
 9123SOL    HW230262   6.310   3.547   7.698  0.7138 -1.0846 -0.0867
 9124SOL     OW30263   5.286   2.302   0.476  0.6621  0.3342  0.2760
 9124SOL    HW130264   5.359   2.364   0.469  2.2838 -1.5732 -0.5687
 9124SOL    HW230265   5.292   2.268   0.565  0.7948  0.1845  0.2096
 9125SOL     OW30266   6.206   2.737   0.543  0.0461 -0.0561 -0.2520
 9125SOL    HW130267   6.244   2.781   0.620 -1.5200  0.4435  0.2737
 9125SOL    HW230268   6.190   2.808   0.481  1.6056 -0.5022 -1.2024
 9126SOL     OW30269   4.574   3.648   1.266 -0.1469  0.2947 -0.2924
 9126SOL    HW130270   4.505   3.582   1.271  0.2275 -0.2392 -1.5969
 9126SOL    HW230271   4.537   3.716   1.209 -0.6094  1.3475  1.2068
 9127SOL     OW30272   0.416   4.838   8.734  0.3919  0.4055 -0.1076
 9127SOL    HW130273   0.328   4.870   8.713  0.0364  0.4421  1.3552
 9127SOL    HW230274   0.444   4.794   8.654 -0.4713  1.4102 -1.0161
 9128SOL     OW30275   4.067   3.279   1.618  0.0746  0.0095 -0.2425
 9128SOL    HW130276   4.000   3.325   1.669 -0.0041 -1.7775  1.3860
 9128SOL    HW230277   4.147   3.329   1.632 -0.5081  1.0486 -0.5738
 9129SOL     OW30278   7.021   1.738   7.947 -0.2331 -0.0732  0.3309
 9129SOL    HW130279   7.072   1.810   7.986  0.1528 -0.8140  1.2266
 9129SOL    HW230280   6.993   1.685   8.021 -1.0451 -0.5181 -0.2759
 9130SOL     OW30281   1.453   6.664   4.422 -0.2224 -0.0986  0.1640
 9130SOL    HW130282   1.438   6.756   4.399 -1.5442 -0.2510  0.3434
 9130SOL    HW230283   1.383   6.642   4.483  0.9138 -0.8424  1.2472
 9131SOL     OW30284   4.100   6.588   7.817  0.0210 -0.7834  0.1227
 9131SOL    HW130285   4.049   6.607   7.739 -0.3364  0.3441  0.6113
 9131SOL    HW230286   4.126   6.674   7.851  0.9000 -1.2781  0.7687
 9132SOL     OW30287   0.498   4.867   1.259 -0.2674  0.0574  0.2086
 9132SOL    HW130288   0.542   4.952   1.263  1.6914 -0.8903  0.1187
 9132SOL    HW230289   0.419   4.878   1.311 -1.2576  2.5701 -1.6347
 9133SOL     OW30290   7.448   2.741   9.097 -0.4494 -0.5205 -0.4069
 9133SOL    HW130291   7.537   2.769   9.077 -0.5546 -1.4447 -2.3407
 9133SOL    HW230292   7.397   2.764   9.020 -1.8630 -0.1890  0.5950
 9134SOL     OW30293   6.488   2.615   6.857 -0.4370 -0.1634 -0.1744
 9134SOL    HW130294   6.549   2.610   6.784  0.0412 -0.0628  0.2147
 9134SOL    HW230295   6.511   2.695   6.903  1.7919 -2.0575  2.2731
 9135SOL     OW30296   3.732   3.267   4.404 -0.0178  0.1659 -0.0947
 9135SOL    HW130297   3.708   3.290   4.493 -2.4143  1.6869 -1.0353
 9135SOL    HW230298   3.758   3.350   4.364  0.6094 -0.4165 -0.9497
 9136SOL     OW30299   7.616   7.205   6.401 -0.1676 -0.0790  1.2025
 9136SOL    HW130300   7.552   7.163   6.458  0.8326  0.5386  2.8663
 9136SOL    HW230301   7.671   7.134   6.369  0.0730 -0.3049  2.0960
 9137SOL     OW30302   9.123   7.446   3.526  0.3401 -0.3463 -0.4357
 9137SOL    HW130303   9.184   7.435   3.598  0.1235 -1.3464 -0.3919
 9137SOL    HW230304   9.036   7.448   3.567  0.2822  0.2534 -0.5712
 9138SOL     OW30305   5.525   3.158   0.885  0.3686 -0.0908  0.0999
 9138SOL    HW130306   5.450   3.107   0.854  0.3770  0.1405 -0.3117
 9138SOL    HW230307   5.587   3.157   0.813  0.9959 -0.7267  0.6361
 9139SOL     OW30308   8.866   1.279   2.886 -0.7945  0.7080  0.3775
 9139SOL    HW130309   8.845   1.368   2.914  0.3106  0.8885  0.6932
 9139SOL    HW230310   8.903   1.238   2.964  1.4519  0.9095 -0.5213
 9140SOL     OW30311   7.936   3.821   6.995  0.1997 -0.3700  0.3862
 9140SOL    HW130312   7.976   3.880   6.931  0.2840 -0.1799  0.6113
 9140SOL    HW230313   7.885   3.759   6.942 -1.0908  0.7922  0.2092
 9141SOL     OW30314   4.181   8.975   1.182 -0.1527  0.1706 -0.3659
 9141SOL    HW130315   4.233   9.053   1.202 -1.6048  1.5622 -1.6969
 9141SOL    HW230316   4.093   8.997   1.212 -0.2948 -1.5960  0.6231
 9142SOL     OW30317   0.763   7.552   3.795  0.2648 -0.2030 -0.1123
 9142SOL    HW130318   0.790   7.626   3.850  0.5410 -0.4456  0.0837
 9142SOL    HW230319   0.671   7.538   3.817  0.7441 -1.2382  1.3942
 9143SOL     OW30320   2.987   0.809   1.502 -0.5405  0.0010 -0.0580
 9143SOL    HW130321   2.892   0.798   1.494 -0.6935  1.1744 -0.0413
 9143SOL    HW230322   2.998   0.859   1.583  0.2199 -1.7057  0.9241
 9144SOL     OW30323   9.253   2.860   6.951 -0.2866  0.1851 -0.1104
 9144SOL    HW130324   9.276   2.767   6.950  0.7030  0.3227  2.7685
 9144SOL    HW230325   9.336   2.906   6.942 -0.5481  0.7887  0.4783
 9145SOL     OW30326   3.012   7.685   5.390 -0.0834 -0.3535  0.7349
 9145SOL    HW130327   2.953   7.624   5.344 -0.1450  0.2050  0.0670
 9145SOL    HW230328   2.958   7.761   5.409 -0.2933 -0.9105  2.5113
 9146SOL     OW30329   8.561   5.247   2.294 -0.1942  0.1562  0.2434
 9146SOL    HW130330   8.511   5.320   2.331  0.2004  0.0954  0.9054
 9146SOL    HW230331   8.649   5.282   2.281  0.1350 -0.3390  1.0500
 9147SOL     OW30332   0.654   0.663   4.024  0.5292 -0.4630 -0.3871
 9147SOL    HW130333   0.693   0.585   4.065 -0.5227 -0.0741  1.5001
 9147SOL    HW230334   0.706   0.736   4.057  0.4037 -0.2365 -0.6903
 9148SOL     OW30335   6.862   8.197   0.203 -0.1249  0.1137  0.4204
 9148SOL    HW130336   6.878   8.183   0.297 -0.3780  0.5758  0.5388
 9148SOL    HW230337   6.806   8.274   0.200 -1.7059 -1.0083 -0.0127
 9149SOL     OW30338   5.627   0.852   7.924 -0.2782  0.3520  0.2272
 9149SOL    HW130339   5.614   0.937   7.883 -3.1784  1.1563  2.4594
 9149SOL    HW230340   5.546   0.803   7.908  0.4854 -1.1896  0.7548
 9150SOL     OW30341   3.283   2.602   8.669 -0.6387 -0.6708  0.6419
 9150SOL    HW130342   3.189   2.588   8.660 -0.7363  0.3362 -0.0479
 9150SOL    HW230343   3.323   2.518   8.646 -1.3143 -0.7411 -0.2814
 9151SOL     OW30344   3.701   8.594   2.935  0.4460  0.3636 -0.4567
 9151SOL    HW130345   3.668   8.650   3.006  0.2741  0.6085 -0.7289
 9151SOL    HW230346   3.623   8.562   2.891  0.4479 -1.6791  0.8849
 9152SOL     OW30347   4.522   7.946   5.139  0.2247  0.2732 -0.1804
 9152SOL    HW130348   4.610   7.983   5.136  1.2986 -2.1329 -0.9733
 9152SOL    HW230349   4.474   7.993   5.070  0.6333  2.0634  0.6918
 9153SOL     OW30350   6.296   6.144   5.161  0.4682 -0.2263 -0.0746
 9153SOL    HW130351   6.285   6.107   5.249 -0.0578 -6.6030 -2.3005
 9153SOL    HW230352   6.211   6.133   5.119  1.6954 -1.3417 -2.4800
 9154SOL     OW30353   5.483   7.638   7.996  0.6579  0.5389  0.0534
 9154SOL    HW130354   5.529   7.577   8.054  0.4092 -2.1745 -2.4258
 9154SOL    HW230355   5.410   7.670   8.050  3.0324  1.9246  2.7521
 9155SOL     OW30356   3.691   1.681   0.626  0.8471 -0.1120 -0.0661
 9155SOL    HW130357   3.777   1.692   0.585  0.3340  3.3143 -0.5277
 9155SOL    HW230358   3.705   1.702   0.719  0.8000 -1.4019  0.2546
 9156SOL     OW30359   6.092   8.935   4.422 -0.0748 -0.8010 -0.4985
 9156SOL    HW130360   6.024   8.935   4.355 -0.1775 -1.7982 -0.4006
 9156SOL    HW230361   6.171   8.908   4.376  0.0168 -0.7514 -0.3705
 9157SOL     OW30362   0.604   2.130   4.905  0.3327 -0.2655 -0.0347
 9157SOL    HW130363   0.571   2.213   4.873  0.3866 -0.3403 -0.2841
 9157SOL    HW230364   0.690   2.121   4.865  0.1840 -0.6042 -0.2793
 9158SOL     OW30365   1.981   6.514   1.543 -0.1188 -0.2430  0.1870
 9158SOL    HW130366   2.056   6.572   1.529  0.0399 -0.5218 -0.1320
 9158SOL    HW230367   2.016   6.442   1.597 -0.2557 -0.1671  0.3781
 9159SOL     OW30368   3.690   1.877   8.498 -0.0210 -0.9164  0.5093
 9159SOL    HW130369   3.686   1.869   8.403  1.5202 -0.7521  0.4129
 9159SOL    HW230370   3.617   1.824   8.529 -0.6503 -0.8434 -0.7566
 9160SOL     OW30371   6.234   8.212   8.374  0.3051 -0.0133 -0.3075
 9160SOL    HW130372   6.192   8.266   8.307 -0.7075  0.7627  0.8995
 9160SOL    HW230373   6.321   8.249   8.383 -0.6502  2.0965  1.1158
 9161SOL     OW30374   5.360   1.653   0.054  0.4383  0.0777 -0.3331
 9161SOL    HW130375   5.358   1.676   0.147 -0.0560  0.5524 -0.4557
 9161SOL    HW230376   5.326   1.730   0.009  1.3834  0.1364 -0.9786
 9162SOL     OW30377   3.308   2.348   5.338  0.4428  0.7379 -0.1842
 9162SOL    HW130378   3.310   2.429   5.389  0.8796  0.0528  0.9281
 9162SOL    HW230379   3.342   2.281   5.398  1.0667 -0.0851 -1.4162
 9163SOL     OW30380   3.291   7.968   5.112  0.3951  0.0610  0.2864
 9163SOL    HW130381   3.286   8.039   5.048 -0.6137 -1.1490 -1.0567
 9163SOL    HW230382   3.231   7.995   5.182 -1.2906 -0.1822 -1.0038
 9164SOL     OW30383   5.800   9.004   7.393  0.4804  0.0931 -0.0956
 9164SOL    HW130384   5.841   9.026   7.310  1.1172 -0.4493  0.0672
 9164SOL    HW230385   5.763   9.086   7.425 -0.2896  0.1931 -1.1938
 9165SOL     OW30386   6.374   2.763   0.207 -0.0261  0.4468 -0.5116
 9165SOL    HW130387   6.410   2.813   0.281  0.7716  0.8742 -1.1671
 9165SOL    HW230388   6.422   2.680   0.209 -3.8097 -2.0757  2.8134
 9166SOL     OW30389   0.784   3.066   1.868 -0.2261 -0.2215  0.2590
 9166SOL    HW130390   0.693   3.057   1.897 -0.3420  0.0063 -0.0276
 9166SOL    HW230391   0.788   3.152   1.828  0.3395  0.1315  1.0557
 9167SOL     OW30392   9.146   9.135   7.861  0.0010 -0.3993 -0.0353
 9167SOL    HW130393   9.128   9.073   7.932  0.5796 -2.0352 -1.2329
 9167SOL    HW230394   9.242   9.141   7.859 -0.0134  3.0882  2.0698
 9168SOL     OW30395   4.936   3.108   2.774  0.1605 -0.0323  0.2168
 9168SOL    HW130396   4.951   3.029   2.723 -0.2264  0.5826 -0.8826
 9168SOL    HW230397   4.861   3.087   2.830 -0.4975 -0.1666 -0.6904
 9169SOL     OW30398   3.677   3.461   3.651 -0.0712  0.4598 -0.1599
 9169SOL    HW130399   3.616   3.393   3.678  0.2668 -0.7624 -2.2127
 9169SOL    HW230400   3.651   3.483   3.561  1.0285  1.6577 -0.2255
 9170SOL     OW30401   4.435   2.573   5.087  0.2573  0.8569  0.1609
 9170SOL    HW130402   4.446   2.642   5.152 -2.2693  0.8446  0.6973
 9170SOL    HW230403   4.440   2.618   5.003  3.2785  0.9139  0.2723
 9171SOL     OW30404   1.915   2.461   4.007  0.0109 -0.0165 -0.6932
 9171SOL    HW130405   1.979   2.528   4.034 -0.0617 -0.0685 -0.3887
 9171SOL    HW230406   1.831   2.495   4.036 -0.1605  0.2647 -1.4975
 9172SOL     OW30407   5.427   7.173   9.096 -0.1583  0.0768  0.2309
 9172SOL    HW130408   5.392   7.165   9.007 -2.6138  2.2503  0.8495
 9172SOL    HW230409   5.390   7.099   9.143 -2.0222  0.9370  0.2350
 9173SOL     OW30410   7.887   5.812   1.542 -0.1884 -0.6407 -0.0487
 9173SOL    HW130411   7.809   5.847   1.586 -0.3741  0.0814 -0.9280
 9173SOL    HW230412   7.855   5.734   1.496 -1.1841  1.3587 -3.0119
 9174SOL     OW30413   4.812   5.496   8.035  0.3671  0.2776  0.3539
 9174SOL    HW130414   4.824   5.412   8.080  2.4481 -1.3813 -2.8498
 9174SOL    HW230415   4.721   5.494   8.005  0.8649 -1.8818 -1.2935
 9175SOL     OW30416   6.267   5.237   2.721 -0.5879 -0.8825 -0.3879
 9175SOL    HW130417   6.272   5.254   2.815  1.0336 -0.6723 -0.4926
 9175SOL    HW230418   6.263   5.141   2.714 -0.7973 -0.8958 -0.1051
 9176SOL     OW30419   4.904   4.791   0.430 -0.1420 -0.1133  0.0802
 9176SOL    HW130420   4.946   4.708   0.456  0.3193  0.1018  0.0401
 9176SOL    HW230421   4.974   4.856   0.438 -0.8099  0.4833  1.2362
 9177SOL     OW30422   4.843   3.621   0.149 -0.0828 -0.2295  0.2987
 9177SOL    HW130423   4.821   3.693   0.208 -1.4687 -1.5004  1.4434
 9177SOL    HW230424   4.783   3.632   0.076 -0.3695 -0.2746  0.5240
 9178SOL     OW30425   3.515   1.512   2.056 -0.1815  0.1435  0.4107
 9178SOL    HW130426   3.563   1.483   2.134 -0.1971 -2.8138 -0.5489
 9178SOL    HW230427   3.424   1.487   2.072 -0.2982  0.0794 -0.2962
 9179SOL     OW30428   4.211   8.281   3.334 -0.5527 -0.3971  0.3561
 9179SOL    HW130429   4.140   8.261   3.395  0.2848  0.8274  1.7764
 9179SOL    HW230430   4.288   8.291   3.389 -0.1860  3.0635 -0.5469
 9180SOL     OW30431   2.904   5.719   5.620  0.4993 -0.2119 -0.0657
 9180SOL    HW130432   2.820   5.751   5.652 -0.2226 -1.7535 -0.3856
 9180SOL    HW230433   2.920   5.769   5.540 -0.3764 -0.3158 -0.3049
 9181SOL     OW30434   3.694   1.357   2.298 -0.7599 -0.2210 -0.0225
 9181SOL    HW130435   3.703   1.285   2.236  0.1308 -0.7733  0.7107
 9181SOL    HW230436   3.690   1.314   2.384  0.4681  0.6109  0.4778
 9182SOL     OW30437   8.750   6.837   0.866  0.3284 -0.6493 -0.1218
 9182SOL    HW130438   8.766   6.760   0.812  0.6665  0.7011 -2.0199
 9182SOL    HW230439   8.833   6.884   0.867 -0.1269  0.1793  0.2349
 9183SOL     OW30440   6.876   8.991   5.809 -0.3990 -0.5768  0.5593
 9183SOL    HW130441   6.938   9.013   5.738 -2.3402 -0.5150 -1.2016
 9183SOL    HW230442   6.865   8.896   5.802 -1.1026 -0.4831  0.3115
 9184SOL     OW30443   5.121   4.135   8.745  0.2006  0.0620  0.4764
 9184SOL    HW130444   5.197   4.168   8.695  1.1090 -1.4118  0.8204
 9184SOL    HW230445   5.063   4.099   8.678  1.0174 -1.1214  0.3673
 9185SOL     OW30446   3.135   0.303   5.493 -0.3672  0.3723  0.0388
 9185SOL    HW130447   3.174   0.252   5.564  1.1454  0.1214 -0.9126
 9185SOL    HW230448   3.050   0.264   5.478 -0.7292  0.4288  1.6909
 9186SOL     OW30449   1.932   9.206   2.228  0.1614  0.3472 -0.1872
 9186SOL    HW130450   2.020   9.175   2.205  0.1032  0.2443 -0.2701
 9186SOL    HW230451   1.909   9.265   2.156  0.3966  0.8297  0.1198
 9187SOL     OW30452   4.568   9.190   2.417  0.5100 -0.5277  0.5060
 9187SOL    HW130453   4.547   9.108   2.373  0.6277 -0.5219  0.4387
 9187SOL    HW230454   4.484   9.222   2.450  0.3537 -0.3178 -0.0759
 9188SOL     OW30455   9.163   4.899   5.258  0.0498 -0.0402  0.1123
 9188SOL    HW130456   9.257   4.916   5.265  0.0250 -0.1350  0.7496
 9188SOL    HW230457   9.155   4.839   5.184  0.4470  0.2948 -0.2064
 9189SOL     OW30458   1.887   7.619   3.868 -0.2111 -0.1666 -0.1886
 9189SOL    HW130459   1.890   7.708   3.833  1.9142  0.2632  0.9372
 9189SOL    HW230460   1.915   7.628   3.959 -1.1378 -1.8552  0.3037
 9190SOL     OW30461   9.121   4.218   4.662 -0.6528  0.3390  0.1989
 9190SOL    HW130462   9.124   4.313   4.674  1.7657  0.1559  1.7662
 9190SOL    HW230463   9.054   4.188   4.723 -2.5979  1.0784 -1.4344
 9191SOL     OW30464   4.150   0.209   9.067 -0.4230  0.9674 -0.0559
 9191SOL    HW130465   4.159   0.129   9.120  1.1235  2.0328  1.3838
 9191SOL    HW230466   4.068   0.197   9.019  0.2953 -1.9815 -0.7576
 9192SOL     OW30467   4.104   9.060   4.606  0.1629  0.8168 -0.4376
 9192SOL    HW130468   4.120   8.988   4.546  1.6858  0.7873 -0.0287
 9192SOL    HW230469   4.055   9.124   4.554  1.3290  0.7376 -1.6967
 9193SOL     OW30470   3.975   6.983   8.989  0.4285  0.3575  0.1231
 9193SOL    HW130471   4.070   6.975   8.991  0.4533 -0.0456 -1.2514
 9193SOL    HW230472   3.958   7.075   9.011  1.2884  0.9838 -1.5824
 9194SOL     OW30473   6.069   7.246   3.555 -0.1356 -0.4324 -0.2723
 9194SOL    HW130474   6.153   7.226   3.597  1.0411  0.3922 -2.0788
 9194SOL    HW230475   6.037   7.324   3.601  0.8058  0.0808 -0.4579
 9195SOL     OW30476   2.211   0.272   5.617  0.1280 -0.2733  0.1715
 9195SOL    HW130477   2.284   0.225   5.657 -0.0011  1.0049  2.0006
 9195SOL    HW230478   2.245   0.303   5.533  2.0114  1.0431  1.3513
 9196SOL     OW30479   5.937   8.545   0.078 -0.5745  0.3156 -0.5329
 9196SOL    HW130480   6.028   8.555   0.108 -0.7082 -0.0414 -0.0073
 9196SOL    HW230481   5.944   8.488   0.002 -0.3594  0.2685 -0.4803
 9197SOL     OW30482   3.426   5.727   8.255 -0.5890  0.1411  0.0337
 9197SOL    HW130483   3.344   5.684   8.228 -0.5286 -0.2879  0.5038
 9197SOL    HW230484   3.430   5.711   8.350 -0.5159  1.1175  0.2066
 9198SOL     OW30485   5.290   3.404   7.999  0.3680 -0.7467 -0.2552
 9198SOL    HW130486   5.291   3.334   8.063  0.9529 -2.2403 -1.8301
 9198SOL    HW230487   5.198   3.416   7.977  0.2423 -0.8064  0.2441
 9199SOL     OW30488   5.280   5.617   3.834 -0.2871  0.2334  0.2955
 9199SOL    HW130489   5.363   5.572   3.819  1.1116  2.5445  0.5747
 9199SOL    HW230490   5.243   5.575   3.911  2.3482  1.3120  2.2944
 9200SOL     OW30491   3.960   9.219   6.786 -0.0543 -0.5946  0.0567
 9200SOL    HW130492   3.888   9.226   6.723  0.1078  0.6891 -0.0128
 9200SOL    HW230493   3.935   9.146   6.844 -0.7795 -0.9957 -0.7443
 9201SOL     OW30494   0.595   2.072   1.680 -0.5557  0.4763  0.1785
 9201SOL    HW130495   0.667   2.090   1.620 -0.6348  1.1529  0.2696
 9201SOL    HW230496   0.632   2.015   1.747 -0.5627 -0.5972 -0.7004
 9202SOL     OW30497   7.060   8.210   6.927 -0.2787 -0.0325  0.3512
 9202SOL    HW130498   7.042   8.119   6.903  2.3617  0.1214 -3.1059
 9202SOL    HW230499   6.990   8.261   6.886 -1.2076 -0.3740  1.4599
 9203SOL     OW30500   8.390   6.123   0.740  0.0931  0.3281  0.0174
 9203SOL    HW130501   8.326   6.075   0.688  0.0365  1.0797 -0.6295
 9203SOL    HW230502   8.418   6.061   0.807  0.5400 -0.8482 -1.2050
 9204SOL     OW30503   1.311   7.559   5.250 -0.4511 -0.2791 -0.3491
 9204SOL    HW130504   1.270   7.473   5.241  0.1353 -0.4931 -0.9828
 9204SOL    HW230505   1.360   7.572   5.169 -0.5310  0.6554 -0.2666
 9205SOL     OW30506   4.432   7.599   1.056  0.0452 -0.0419 -0.5018
 9205SOL    HW130507   4.371   7.600   0.983 -2.3939  0.8202  1.4221
 9205SOL    HW230508   4.435   7.508   1.085  0.6016 -0.2857 -1.2882
 9206SOL     OW30509   2.301   6.749   5.866  0.1666  0.1713 -0.5933
 9206SOL    HW130510   2.297   6.770   5.959  0.2722  2.7325 -1.0947
 9206SOL    HW230511   2.215   6.712   5.846 -0.8594  2.0647  0.0459
 9207SOL     OW30512   6.462   8.502   0.888 -0.1403  0.0229 -0.0224
 9207SOL    HW130513   6.429   8.415   0.912  2.0046 -1.4086 -1.8995
 9207SOL    HW230514   6.407   8.529   0.815  1.6188 -1.6256 -2.0711
 9208SOL     OW30515   4.141   2.823   1.428 -0.4566  0.2913  0.0131
 9208SOL    HW130516   4.128   2.916   1.410 -1.4008  0.0520 -0.5804
 9208SOL    HW230517   4.055   2.791   1.455  0.2593 -0.0222  2.0911
 9209SOL     OW30518   7.648   4.716   4.135 -0.2020 -0.2018  0.7440
 9209SOL    HW130519   7.695   4.800   4.132  0.4254 -0.5716 -1.5675
 9209SOL    HW230520   7.558   4.739   4.111 -0.2410 -0.0806  0.9973
 9210SOL     OW30521   8.833   8.652   5.785  0.4187 -0.4152 -0.8348
 9210SOL    HW130522   8.747   8.627   5.820 -0.7365  0.4449 -2.8624
 9210SOL    HW230523   8.872   8.570   5.757  0.1834 -0.8049 -0.0337
 9211SOL     OW30524   1.604   8.202   1.140 -0.3261 -0.0752 -0.3772
 9211SOL    HW130525   1.581   8.141   1.071 -1.8535  0.9114 -0.7889
 9211SOL    HW230526   1.523   8.213   1.190  0.1423  0.9730  0.1741
 9212SOL     OW30527   7.544   3.664   7.880 -0.2927  0.1768  0.4457
 9212SOL    HW130528   7.613   3.721   7.846  0.6946 -0.7346  0.8714
 9212SOL    HW230529   7.525   3.698   7.967  1.2518 -0.8984  1.2489
 9213SOL     OW30530   4.569   8.593   8.650 -0.3288 -0.0239 -0.0319
 9213SOL    HW130531   4.496   8.655   8.647 -0.8650 -0.5381  1.4284
 9213SOL    HW230532   4.621   8.613   8.573 -2.8060 -0.6301 -1.9873
 9214SOL     OW30533   2.726   2.551   7.068  0.0929 -0.0278 -0.4301
 9214SOL    HW130534   2.721   2.525   6.976  2.0418  0.8260 -0.8256
 9214SOL    HW230535   2.774   2.480   7.110  0.3478  0.1955 -0.3411
 9215SOL     OW30536   0.516   0.234   3.346  0.8556 -0.2103  0.0674
 9215SOL    HW130537   0.574   0.213   3.273  1.2358 -0.6289  0.4866
 9215SOL    HW230538   0.524   0.329   3.357  1.3507 -0.2455  0.0328
 9216SOL     OW30539   4.564   1.159   3.450 -0.3236  0.3074 -0.0369
 9216SOL    HW130540   4.550   1.122   3.537  1.2643 -0.4085 -0.0550
 9216SOL    HW230541   4.561   1.084   3.391 -0.7531  0.7070 -0.5340
 9217SOL     OW30542   2.198   0.036   8.996 -0.1227 -0.3554  0.5274
 9217SOL    HW130543   2.103   0.029   8.987 -0.0303 -2.4834  0.7579
 9217SOL    HW230544   2.211   0.089   9.074 -1.0848  0.5618  0.0993
 9218SOL     OW30545   4.368   4.711   1.662 -0.3868  0.2873  0.3338
 9218SOL    HW130546   4.354   4.743   1.751  0.4798 -0.3816  0.7115
 9218SOL    HW230547   4.399   4.788   1.614 -0.4107  0.5381  0.7175
 9219SOL     OW30548   8.704   6.692   3.214 -0.1219 -0.0980 -0.2666
 9219SOL    HW130549   8.759   6.769   3.226 -0.2778  0.0462 -0.4864
 9219SOL    HW230550   8.701   6.679   3.119  0.0772 -0.4984 -0.2234
 9220SOL     OW30551   1.060   3.266   3.508 -0.6051  0.3169  0.4651
 9220SOL    HW130552   0.990   3.202   3.496  0.7704 -1.8480  2.9900
 9220SOL    HW230553   1.021   3.334   3.563 -0.9412 -0.5436  1.3161
 9221SOL     OW30554   2.408   5.385   9.246 -0.0242  0.0517  0.3338
 9221SOL    HW130555   2.428   5.431   9.164  1.0625 -0.6133  0.2013
 9221SOL    HW230556   2.356   5.448   9.297 -1.7433  0.0757 -1.3126
 9222SOL     OW30557   8.611   0.159   2.293  0.2887 -0.3383 -0.4052
 9222SOL    HW130558   8.611   0.230   2.229  0.0677  0.6517  0.6434
 9222SOL    HW230559   8.527   0.168   2.339 -0.2551 -2.0211 -1.0183
 9223SOL     OW30560   5.113   7.742   2.367  0.4086 -0.4057 -0.5279
 9223SOL    HW130561   5.091   7.653   2.338  0.2265 -0.4548 -0.2409
 9223SOL    HW230562   5.088   7.798   2.293 -1.5189 -0.3558  0.1092
 9224SOL     OW30563   7.180   0.629   5.044  0.5010 -0.8256 -0.1011
 9224SOL    HW130564   7.216   0.543   5.065  1.5602 -0.0156  1.5961
 9224SOL    HW230565   7.243   0.691   5.079  0.6048  0.7019 -2.7476
 9225SOL     OW30566   3.440   0.850   7.419 -0.1660 -0.4147 -0.5755
 9225SOL    HW130567   3.439   0.945   7.429 -3.0001 -0.3505 -0.5211
 9225SOL    HW230568   3.462   0.816   7.506  3.2750  0.0893 -1.1140
 9226SOL     OW30569   9.164   8.427   1.383  0.3076  0.1093  0.3386
 9226SOL    HW130570   9.073   8.449   1.362  0.1688  0.4648  1.2270
 9226SOL    HW230571   9.187   8.487   1.454  1.8539  1.2947 -1.0799
 9227SOL     OW30572   2.587   2.872   2.904 -0.5364  0.0605  0.4006
 9227SOL    HW130573   2.568   2.821   2.825 -0.0964 -2.1574  1.6520
 9227SOL    HW230574   2.672   2.912   2.887  0.2075 -1.5168  0.2391
 9228SOL     OW30575   8.039   3.414   0.760  0.5201 -0.2442  0.5803
 9228SOL    HW130576   7.954   3.444   0.793  0.4681  1.4092 -0.8764
 9228SOL    HW230577   8.027   3.409   0.665  2.8929  3.3118 -0.0827
 9229SOL     OW30578   2.805   5.192   0.847  0.3441 -0.3936  0.3987
 9229SOL    HW130579   2.745   5.227   0.913 -0.0960 -0.2326 -0.0829
 9229SOL    HW230580   2.870   5.261   0.836 -0.6274  0.3957 -0.6852
 9230SOL     OW30581   3.174   8.570   5.912 -0.7280 -0.0046 -0.2672
 9230SOL    HW130582   3.152   8.662   5.927  0.0811  0.1391  0.0686
 9230SOL    HW230583   3.187   8.534   5.999 -1.3697 -0.5242 -0.3825
 9231SOL     OW30584   0.608   3.332   1.834 -0.4162  0.2481 -0.1243
 9231SOL    HW130585   0.652   3.414   1.857  0.0049  0.1213 -0.4679
 9231SOL    HW230586   0.584   3.342   1.742  3.0293 -1.4558 -1.3839
 9232SOL     OW30587   7.852   2.574   2.176  0.1587  0.0984  0.5217
 9232SOL    HW130588   7.946   2.588   2.189  0.3129 -0.1022 -0.3348
 9232SOL    HW230589   7.810   2.643   2.226  0.7090 -0.7572  2.2415
 9233SOL     OW30590   0.387   8.953   5.951 -0.0680 -0.2316  0.4071
 9233SOL    HW130591   0.435   9.007   5.888  1.0177 -1.3752  0.2013
 9233SOL    HW230592   0.346   8.885   5.897 -0.8004 -0.0631  0.7392
 9234SOL     OW30593   1.432   3.472   2.910 -0.0530 -0.6033 -0.3948
 9234SOL    HW130594   1.381   3.521   2.974  1.1174  0.3255 -0.1521
 9234SOL    HW230595   1.394   3.384   2.911 -1.4659 -0.0180 -0.0344
 9235SOL     OW30596   4.135   6.165   1.742  0.5002 -0.0685  0.0173
 9235SOL    HW130597   4.123   6.082   1.695 -0.8517 -0.9250  1.7828
 9235SOL    HW230598   4.214   6.202   1.703  0.9438 -2.0036 -1.0857
 9236SOL     OW30599   1.860   2.611   6.108  0.4896  0.5268  0.9092
 9236SOL    HW130600   1.866   2.654   6.194 -0.5118  1.2525  0.6322
 9236SOL    HW230601   1.821   2.677   6.051  0.1520 -0.3207  0.1453
 9237SOL     OW30602   8.825   6.250   4.302  0.4608  0.3318 -0.0471
 9237SOL    HW130603   8.856   6.180   4.359  2.0946  1.1172  0.0601
 9237SOL    HW230604   8.800   6.321   4.361  0.1083  0.3623 -0.2249
 9238SOL     OW30605   2.379   7.699   8.942 -0.8535  0.0277  0.9989
 9238SOL    HW130606   2.406   7.727   9.029 -1.2226  0.6023  0.9312
 9238SOL    HW230607   2.418   7.763   8.883  1.6420 -1.8048  0.4818
 9239SOL     OW30608   6.025   8.796   2.565 -0.0037 -0.0648 -0.1862
 9239SOL    HW130609   5.939   8.822   2.532 -0.1612 -0.2652  0.0587
 9239SOL    HW230610   6.020   8.811   2.660 -0.1859 -1.2063  0.0019
 9240SOL     OW30611   6.891   7.876   3.898 -0.1082  0.1841 -0.1864
 9240SOL    HW130612   6.884   7.962   3.938 -2.2280  0.3418 -0.8080
 9240SOL    HW230613   6.820   7.825   3.937  1.3636 -1.4797  0.5129
 9241SOL     OW30614   0.858   6.202   5.244 -0.2867 -0.4828  0.1789
 9241SOL    HW130615   0.941   6.223   5.286  0.7150 -0.1808 -1.8654
 9241SOL    HW230616   0.820   6.133   5.299  0.7282  0.1981  1.7992
 9242SOL     OW30617   8.946   6.976   5.000  0.1571 -0.4323 -0.0780
 9242SOL    HW130618   8.912   6.894   4.964  0.3687 -2.0006  2.9694
 9242SOL    HW230619   8.894   6.990   5.079  0.3756  2.2435 -0.3372
 9243SOL     OW30620   1.802   8.055   0.008 -0.1491 -0.2180 -0.3338
 9243SOL    HW130621   1.759   8.056   0.093 -0.3399  0.9045 -0.4253
 9243SOL    HW230622   1.825   7.964  -0.007  0.3302 -0.3545  1.1394
 9244SOL     OW30623   4.085   2.720   4.526 -0.5369  0.0084  0.2984
 9244SOL    HW130624   4.004   2.771   4.517  0.0715  0.7433 -1.4700
 9244SOL    HW230625   4.133   2.738   4.446  0.8361 -1.4110  0.7607
 9245SOL     OW30626   8.788   8.123   0.152 -0.0033 -0.4325  0.1014
 9245SOL    HW130627   8.853   8.166   0.096 -1.5747  0.8232 -0.8599
 9245SOL    HW230628   8.731   8.076   0.090 -0.4750 -0.8410  0.8348
 9246SOL     OW30629   7.402   3.563   6.605 -0.0394  0.4489 -0.6627
 9246SOL    HW130630   7.314   3.561   6.567 -0.4217  0.5642  0.1926
 9246SOL    HW230631   7.429   3.471   6.608  0.4053  0.5113 -2.1087
 9247SOL     OW30632   6.361   3.047   5.860  0.0370 -0.1886 -0.0124
 9247SOL    HW130633   6.389   3.128   5.903 -0.6144  0.4554 -0.7588
 9247SOL    HW230634   6.298   3.009   5.921  0.3288 -0.1203  0.3346
 9248SOL     OW30635   4.873   8.283   6.928 -0.0077 -0.3664  0.3593
 9248SOL    HW130636   4.900   8.259   7.017 -0.5754  1.0919  0.9597
 9248SOL    HW230637   4.914   8.368   6.913 -0.0268 -0.5322 -0.7374
 9249SOL     OW30638   0.600   0.376   6.901 -0.3919  0.0875 -0.3656
 9249SOL    HW130639   0.621   0.325   6.823  0.4054 -2.3468  1.3090
 9249SOL    HW230640   0.513   0.411   6.884 -0.8384 -1.5797 -1.7961
 9250SOL     OW30641   1.382   8.961   7.102  0.0356  0.1260 -0.2802
 9250SOL    HW130642   1.439   8.898   7.147  0.9420  1.0236 -0.1318
 9250SOL    HW230643   1.310   8.908   7.068  0.7097 -0.9735 -0.0496
 9251SOL     OW30644   1.528   9.177   3.987 -0.2612  0.6499  0.2250
 9251SOL    HW130645   1.585   9.101   3.994 -0.7212  0.1304 -1.3861
 9251SOL    HW230646   1.586   9.248   3.958  0.1622  0.9505  1.7036
 9252SOL     OW30647   6.328   7.207   1.965 -0.5772 -0.0203  0.0716
 9252SOL    HW130648   6.354   7.161   1.885 -1.1038  0.4905 -0.4017
 9252SOL    HW230649   6.304   7.138   2.027  0.5511 -0.4499  0.0489
 9253SOL     OW30650   2.340   8.248   7.493  0.3877 -0.4007  0.1234
 9253SOL    HW130651   2.302   8.187   7.431 -1.7477 -0.2126  1.1749
 9253SOL    HW230652   2.372   8.320   7.439  1.5429 -1.6755 -0.9870
 9254SOL     OW30653   1.457   8.867   4.142  0.4809 -0.0520  0.1720
 9254SOL    HW130654   1.553   8.871   4.143  0.4581  1.0195  0.0974
 9254SOL    HW230655   1.431   8.908   4.225  0.0914 -0.0177  0.0314
 9255SOL     OW30656   3.985   7.571   3.671 -0.9236  0.2120 -0.0537
 9255SOL    HW130657   3.895   7.598   3.691 -1.1243 -1.0371  0.8378
 9255SOL    HW230658   4.039   7.619   3.733 -1.3581 -1.9969  2.2069
 9256SOL     OW30659   0.372   0.702   6.099 -0.2205  0.2955 -0.2161
 9256SOL    HW130660   0.377   0.739   6.187 -2.1702 -0.3765  0.2246
 9256SOL    HW230661   0.286   0.660   6.095 -0.6661  1.2645 -2.8230
 9257SOL     OW30662   1.926   6.624   7.690 -0.1038 -0.3961  0.8933
 9257SOL    HW130663   2.003   6.634   7.635  0.3352 -2.0794  1.1345
 9257SOL    HW230664   1.883   6.709   7.688  1.5746  0.4723  0.4812
 9258SOL     OW30665   6.924   1.224   8.242 -0.3639  0.0102  0.1941
 9258SOL    HW130666   6.895   1.140   8.278 -1.7425 -0.2347 -1.3107
 9258SOL    HW230667   6.988   1.200   8.175 -0.1748  0.2042  0.3078
 9259SOL     OW30668   8.477   4.065   6.881 -0.4553 -0.5021 -0.0396
 9259SOL    HW130669   8.562   4.029   6.856  0.1486 -1.2574  2.7680
 9259SOL    HW230670   8.421   3.987   6.892 -0.7731 -0.1954  0.5576
 9260SOL     OW30671   0.414   3.973   4.605 -0.2144 -0.4501  0.0713
 9260SOL    HW130672   0.376   3.892   4.571  0.6073 -0.7941 -0.0424
 9260SOL    HW230673   0.377   4.042   4.549  0.1357 -0.8866 -0.7157
 9261SOL     OW30674   4.865   3.032   0.525  0.6899 -0.1210  0.1724
 9261SOL    HW130675   4.863   2.962   0.460 -0.9910  0.6005 -0.6282
 9261SOL    HW230676   4.941   3.086   0.501 -0.6895  0.9413 -2.1659
 9262SOL     OW30677   8.145   4.222   2.043  0.3840  0.1348  0.4845
 9262SOL    HW130678   8.162   4.185   1.956 -0.1170 -0.1306  0.4942
 9262SOL    HW230679   8.232   4.233   2.082  0.5861 -0.2046  0.1358
 9263SOL     OW30680   3.442   3.210   6.671  0.0123 -0.3291  0.5273
 9263SOL    HW130681   3.354   3.179   6.690  0.1842 -1.0566  0.1914
 9263SOL    HW230682   3.474   3.151   6.602  0.3744  0.5860 -0.1141
 9264SOL     OW30683   2.002   2.253   8.269 -0.3031  0.9143  0.1611
 9264SOL    HW130684   2.082   2.248   8.320 -0.4330  1.5244  0.4368
 9264SOL    HW230685   1.933   2.272   8.334 -0.6985  0.2205 -0.0462
 9265SOL     OW30686   3.377   8.031   3.178 -0.0806 -0.1401 -0.1644
 9265SOL    HW130687   3.407   7.944   3.149  1.3595  0.4806 -0.6071
 9265SOL    HW230688   3.293   8.043   3.134 -0.2899 -1.3028 -0.1119
 9266SOL     OW30689   8.709   5.417   5.688  0.5982  0.0015 -0.0855
 9266SOL    HW130690   8.800   5.403   5.714  0.3527 -0.2521  0.6708
 9266SOL    HW230691   8.658   5.400   5.768 -0.1295 -0.0924 -0.5545
 9267SOL     OW30692   0.282   4.107   2.314  0.3280 -0.3592 -0.3800
 9267SOL    HW130693   0.340   4.088   2.388  0.7816  0.8293 -0.4161
 9267SOL    HW230694   0.251   4.021   2.286  1.2896 -0.9416  0.2797
 9268SOL     OW30695   8.041   2.706   0.519  0.1683 -0.1462 -0.6171
 9268SOL    HW130696   7.957   2.723   0.477 -0.7320  0.9173  1.4762
 9268SOL    HW230697   8.029   2.624   0.567 -0.3227  0.8880  1.1162
 9269SOL     OW30698   6.998   1.237   2.405 -0.2433 -0.5842  0.0366
 9269SOL    HW130699   6.909   1.218   2.375 -0.0943 -0.6140 -0.3875
 9269SOL    HW230700   7.033   1.152   2.430  0.2432 -0.8276 -1.3747
 9270SOL     OW30701   4.518   6.208   8.473  0.3067  0.1918 -0.3266
 9270SOL    HW130702   4.467   6.247   8.544 -0.2093  1.0693 -1.1548
 9270SOL    HW230703   4.558   6.283   8.429  0.6045 -0.3442 -0.9731
 9271SOL     OW30704   3.239   5.412   4.502 -0.1914  0.1047 -0.0862
 9271SOL    HW130705   3.271   5.420   4.413 -2.3206 -0.8653 -1.0214
 9271SOL    HW230706   3.272   5.489   4.547  2.7151 -0.4432 -1.0756
 9272SOL     OW30707   6.816   4.892   6.646 -0.1379  0.5074  0.4492
 9272SOL    HW130708   6.798   4.898   6.739  0.7570  0.3260  0.6519
 9272SOL    HW230709   6.895   4.945   6.633  1.5054 -1.7901  0.3559
 9273SOL     OW30710   6.302   3.515   1.831 -0.0608  0.0528 -0.3172
 9273SOL    HW130711   6.345   3.544   1.911 -0.4014  0.6744 -0.3572
 9273SOL    HW230712   6.366   3.456   1.789  0.6456  0.7544 -0.2448
 9274SOL     OW30713   1.430   7.698   7.072  0.0915 -0.2279  0.3005
 9274SOL    HW130714   1.458   7.660   7.156  2.7133 -1.0077 -0.8195
 9274SOL    HW230715   1.477   7.781   7.067 -2.7808  1.5756  1.0743
 9275SOL     OW30716   2.347   3.131   7.524 -0.3972 -0.0578  0.2039
 9275SOL    HW130717   2.286   3.123   7.451  0.6939 -2.9450 -0.5058
 9275SOL    HW230718   2.299   3.095   7.599  0.1122 -1.6538 -0.2001
 9276SOL     OW30719   5.708   3.623   6.969 -0.2734  0.4047 -0.4834
 9276SOL    HW130720   5.797   3.611   6.934 -0.4174 -0.4939 -0.5754
 9276SOL    HW230721   5.722   3.644   7.062  0.0326 -0.2677 -0.3691
 9277SOL     OW30722   5.350   6.594   5.740 -0.5167 -0.1760 -0.1991
 9277SOL    HW130723   5.297   6.597   5.661 -0.4906 -0.3424 -0.2241
 9277SOL    HW230724   5.415   6.526   5.722 -0.6881 -0.4149  0.0772
 9278SOL     OW30725   1.735   6.387   4.009  0.6486 -0.0235  0.1456
 9278SOL    HW130726   1.743   6.482   4.016  3.6993 -0.2067  0.5368
 9278SOL    HW230727   1.797   6.363   3.940 -1.5076 -1.6185 -1.3704
 9279SOL     OW30728   4.482   1.000   3.646  0.4919  0.2937 -0.1242
 9279SOL    HW130729   4.425   1.033   3.716 -1.9839 -0.2834 -1.7349
 9279SOL    HW230730   4.488   0.906   3.663  2.9570  0.6148  1.2992
 9280SOL     OW30731   6.068   1.627   7.650  0.4476 -0.1686 -0.2916
 9280SOL    HW130732   6.085   1.534   7.637  0.1287 -0.3701  0.6648
 9280SOL    HW230733   6.085   1.642   7.743  0.0861  0.6354 -0.3472
 9281SOL     OW30734   6.530   5.313   5.394 -0.1385  0.0327  0.4478
 9281SOL    HW130735   6.514   5.284   5.483  2.1734 -1.7932  0.3538
 9281SOL    HW230736   6.508   5.407   5.394 -2.0286 -0.3379  2.3625
 9282SOL     OW30737   6.661   7.199   5.288 -0.5251 -0.2068 -0.1146
 9282SOL    HW130738   6.716   7.193   5.209 -0.0125 -0.1957  0.2335
 9282SOL    HW230739   6.572   7.203   5.255 -0.2624  0.7899 -0.7445
 9283SOL     OW30740   0.238   2.413   2.778  0.9719 -0.0653  0.1343
 9283SOL    HW130741   0.224   2.503   2.748 -0.8747  0.1811  1.5436
 9283SOL    HW230742   0.272   2.423   2.867  0.0554 -0.7215  0.5802
 9284SOL     OW30743   3.711   9.231   3.363 -0.2283  0.0940 -0.3435
 9284SOL    HW130744   3.789   9.273   3.327 -0.0964 -0.0393 -0.2141
 9284SOL    HW230745   3.745   9.163   3.421 -0.4195  1.0619  0.9420
 9285SOL     OW30746   1.291   3.261   7.766  0.6156 -0.1021  0.8525
 9285SOL    HW130747   1.344   3.340   7.776  2.4848 -1.1385 -0.3680
 9285SOL    HW230748   1.350   3.189   7.785 -0.7516 -1.2778  0.8440
 9286SOL     OW30749   2.446   3.433   6.515  0.4105  0.4482  0.5150
 9286SOL    HW130750   2.434   3.340   6.534  2.8426 -0.2072 -0.7018
 9286SOL    HW230751   2.383   3.452   6.446  0.0106 -0.3390  0.6531
 9287SOL     OW30752   4.118   2.542   7.085 -0.1822  0.5424 -0.1477
 9287SOL    HW130753   4.178   2.468   7.080  0.7239  1.2793 -0.4717
 9287SOL    HW230754   4.154   2.597   7.155 -0.7714  0.7408  0.0011
 9288SOL     OW30755   7.690   5.628   0.267  0.5579 -0.2591  0.4990
 9288SOL    HW130756   7.778   5.606   0.298  0.5351 -0.3177  0.5221
 9288SOL    HW230757   7.679   5.575   0.188  1.2404  1.0859 -0.5437
 9289SOL     OW30758   6.955   3.058   0.696 -0.1765 -0.3668  0.1360
 9289SOL    HW130759   7.050   3.049   0.683  0.1187  1.1020  1.0593
 9289SOL    HW230760   6.929   2.976   0.737  1.2371  0.2134  2.4436
 9290SOL     OW30761   2.404   3.264   7.215 -0.0276  0.0022 -0.1242
 9290SOL    HW130762   2.464   3.288   7.286  0.9631  0.5935 -1.1267
 9290SOL    HW230763   2.445   3.188   7.174 -1.4585 -1.4226  0.9517
 9291SOL     OW30764   1.459   1.559   7.711 -0.4054 -0.1586  0.3730
 9291SOL    HW130765   1.399   1.598   7.648 -0.5041 -0.3792  0.3285
 9291SOL    HW230766   1.402   1.521   7.778 -0.2829  2.3180  2.0022
 9292SOL     OW30767   8.639   9.045   8.255 -0.3356 -0.3096  0.2562
 9292SOL    HW130768   8.689   9.038   8.336 -2.3699  2.6039  1.9636
 9292SOL    HW230769   8.561   8.993   8.271  0.1897 -1.4574 -0.7556
 9293SOL     OW30770   4.351   9.223   8.627 -0.1033 -0.3728 -0.2418
 9293SOL    HW130771   4.408   9.202   8.701 -2.2946  0.3725  1.7892
 9293SOL    HW230772   4.403   9.283   8.572  2.1858 -2.2834 -0.3030
 9294SOL     OW30773   0.586   3.825   0.363  0.0557 -0.0357  0.4994
 9294SOL    HW130774   0.613   3.787   0.279  1.6579  0.2717  0.8345
 9294SOL    HW230775   0.534   3.756   0.405  1.1220 -1.0653  0.1911
 9295SOL     OW30776   7.008   5.724   7.549 -0.7679  0.1935  0.2093
 9295SOL    HW130777   6.927   5.775   7.548 -0.7123  0.2805  0.2031
 9295SOL    HW230778   7.063   5.766   7.615 -1.3117 -0.7662  1.3046
 9296SOL     OW30779   6.810   1.257   1.022 -0.0327 -0.5803  0.1214
 9296SOL    HW130780   6.880   1.319   1.045 -1.4499  0.3893  2.0405
 9296SOL    HW230781   6.833   1.228   0.933  1.1822  2.0235 -0.5225
 9297SOL     OW30782   8.404   1.779   6.822  0.1073 -0.0375 -0.0873
 9297SOL    HW130783   8.434   1.866   6.851 -2.1913  0.4042  1.2873
 9297SOL    HW230784   8.385   1.733   6.904  2.0612 -2.2068 -0.7694
 9298SOL     OW30785   4.144   6.726   3.007 -0.0907 -0.0280  0.1410
 9298SOL    HW130786   4.120   6.777   3.084 -3.0309  0.0084 -0.6728
 9298SOL    HW230787   4.239   6.720   3.011  0.0595  2.1339  2.3686
 9299SOL     OW30788   3.666   5.961   7.564 -0.5930  0.1534  0.2393
 9299SOL    HW130789   3.635   5.876   7.596  0.1531 -0.3008 -0.2320
 9299SOL    HW230790   3.711   5.942   7.482 -0.4344  1.0092  0.1140
 9300SOL     OW30791   6.527   2.288   1.334 -0.3520  0.0958  0.0522
 9300SOL    HW130792   6.584   2.364   1.349  0.6798 -0.5226 -0.5638
 9300SOL    HW230793   6.584   2.213   1.351 -1.0882 -0.5440 -0.2723
 9301SOL     OW30794   6.071   0.648   8.248  0.1904 -0.0570  0.1227
 9301SOL    HW130795   5.997   0.658   8.188  0.1192  1.3142  0.3917
 9301SOL    HW230796   6.068   0.726   8.303  1.3865 -0.3479  0.6501
 9302SOL     OW30797   5.611   6.490   4.141  0.4144 -0.4941  0.0117
 9302SOL    HW130798   5.558   6.510   4.063  0.3189 -1.6011 -0.2324
 9302SOL    HW230799   5.598   6.396   4.154  0.1783 -0.2737  1.5629
 9303SOL     OW30800   2.390   5.743   0.980  0.2868 -0.0698  0.3592
 9303SOL    HW130801   2.391   5.713   1.071 -0.1174  2.2075  1.1766
 9303SOL    HW230802   2.482   5.761   0.959  0.6514 -2.4371 -0.4205
 9304SOL     OW30803   8.107   0.191   6.744 -0.0844 -0.0405 -0.2124
 9304SOL    HW130804   8.085   0.113   6.794 -0.7916 -0.0337 -0.5059
 9304SOL    HW230805   8.137   0.157   6.659 -0.4578  0.0074 -0.3643
 9305SOL     OW30806   2.025   8.747   6.125  0.1480 -0.0556  0.2276
 9305SOL    HW130807   1.952   8.713   6.073 -0.1291  2.5356 -1.2611
 9305SOL    HW230808   1.992   8.828   6.163  1.7368  0.3153  0.9081
 9306SOL     OW30809   4.052   8.328   2.813  0.5758 -0.2626  0.2800
 9306SOL    HW130810   4.015   8.306   2.898 -0.1322 -0.4299 -0.0698
 9306SOL    HW230811   4.142   8.296   2.818  0.5893 -0.1395  1.0147
 9307SOL     OW30812   2.908   4.578   2.426  0.3346 -0.2302 -0.0596
 9307SOL    HW130813   2.877   4.639   2.493 -1.9729 -0.5654 -0.7545
 9307SOL    HW230814   2.864   4.496   2.446 -1.1636 -0.1090 -2.4631
 9308SOL     OW30815   7.473   5.175   5.761 -0.3507 -0.0847 -0.0918
 9308SOL    HW130816   7.384   5.176   5.796 -0.7862  0.7805 -1.1577
 9308SOL    HW230817   7.514   5.098   5.800 -1.6962 -0.7275  0.0921
 9309SOL     OW30818   2.926   9.196   2.230 -0.6888 -0.1374  0.2600
 9309SOL    HW130819   2.975   9.122   2.264  0.6699  0.8703  0.5603
 9309SOL    HW230820   2.988   9.246   2.178 -1.9496  0.0316 -1.1598
 9310SOL     OW30821   2.046   6.899   2.497  0.2178 -0.5216 -0.0403
 9310SOL    HW130822   1.972   6.945   2.459  0.8505  1.5344  1.0875
 9310SOL    HW230823   2.047   6.926   2.588  2.7227  0.0455 -0.1671
 9311SOL     OW30824   4.870   8.159   4.785  0.1422 -0.8203  0.6321
 9311SOL    HW130825   4.820   8.146   4.704 -2.6059  1.6042  1.7396
 9311SOL    HW230826   4.932   8.229   4.763  0.7182 -1.4738  0.1480
 9312SOL     OW30827   3.457   0.846   2.733  0.7318 -0.3598 -0.2540
 9312SOL    HW130828   3.385   0.886   2.684  1.5247  0.3040 -0.9060
 9312SOL    HW230829   3.414   0.789   2.796 -0.4101  0.7681  0.0407
 9313SOL     OW30830   5.398   1.190   4.589  0.2432  0.2974 -0.5028
 9313SOL    HW130831   5.302   1.189   4.595  0.2540  2.1916  0.8669
 9313SOL    HW230832   5.416   1.190   4.495 -1.0581 -0.7891 -0.7799
 9314SOL     OW30833   3.829   6.885   5.637 -0.1033  0.4299  0.6134
 9314SOL    HW130834   3.876   6.914   5.715 -1.5774  1.1594  1.2586
 9314SOL    HW230835   3.801   6.966   5.594  1.0816  0.0612 -0.9560
 9315SOL     OW30836   4.757   1.674   2.579  0.5418 -0.7798  0.6582
 9315SOL    HW130837   4.683   1.735   2.578  2.0083  1.1352 -1.0616
 9315SOL    HW230838   4.781   1.667   2.672 -0.5006  0.2563  1.0318
 9316SOL     OW30839   0.089   5.364   0.330 -0.3322  0.5803  0.1148
 9316SOL    HW130840   0.165   5.400   0.375 -0.2979  0.9829 -0.2646
 9316SOL    HW230841   0.126   5.303   0.266 -0.4348 -1.1352  1.6105
 9317SOL     OW30842   2.009   2.690   4.098 -0.5554  0.0474 -0.0040
 9317SOL    HW130843   1.943   2.739   4.147 -1.8697  0.4474 -2.0589
 9317SOL    HW230844   2.056   2.757   4.048  0.9303 -0.3161  0.8641
 9318SOL     OW30845   6.260   8.483   3.556 -0.4451  0.2858  0.0988
 9318SOL    HW130846   6.287   8.465   3.646  2.2668  0.0214 -0.6852
 9318SOL    HW230847   6.204   8.409   3.533 -0.6157  0.0078  1.3404
 9319SOL     OW30848   8.042   8.884   5.200  0.1462  0.5992  0.0612
 9319SOL    HW130849   7.999   8.905   5.117  2.1495  2.0078 -0.7059
 9319SOL    HW230850   8.019   8.958   5.258  1.0757  1.0981 -0.1918
 9320SOL     OW30851   3.027   2.605   9.237  0.2550  0.0396 -0.4554
 9320SOL    HW130852   2.957   2.598   9.173 -1.0770  2.5477  0.5945
 9320SOL    HW230853   3.101   2.640   9.187  0.0595 -0.4748 -1.1187
 9321SOL     OW30854   9.103   5.580   2.754  0.0397 -0.0573  0.0219
 9321SOL    HW130855   9.130   5.671   2.761 -0.2816  0.0827 -0.4611
 9321SOL    HW230856   9.014   5.579   2.791  0.1252 -0.2180  0.2240
 9322SOL     OW30857   3.985   9.081   7.460 -0.2029 -0.3868 -0.7181
 9322SOL    HW130858   3.967   9.163   7.506 -0.0781 -0.7769  0.0607
 9322SOL    HW230859   4.001   9.107   7.370 -1.1069  0.3396 -0.6881
 9323SOL     OW30860   2.893   4.971   1.169 -0.1244  0.0521 -0.2075
 9323SOL    HW130861   2.892   5.067   1.161 -1.7452  0.0188 -0.6874
 9323SOL    HW230862   2.808   4.950   1.208  0.8697 -1.0924  1.4847
 9324SOL     OW30863   2.003   5.919   1.305 -0.2061  0.1210  0.3479
 9324SOL    HW130864   1.980   6.012   1.314 -0.2265  0.1709 -0.1565
 9324SOL    HW230865   2.014   5.907   1.210 -0.0609 -0.3573  0.4256
 9325SOL     OW30866   7.021   2.669   1.130  0.0814 -0.0998 -0.2159
 9325SOL    HW130867   6.995   2.712   1.049 -1.4216 -1.0401 -0.2735
 9325SOL    HW230868   7.075   2.595   1.102 -1.0703 -0.8824 -0.4535
 9326SOL     OW30869   6.925   7.597   7.621  0.4164  0.4034  0.5893
 9326SOL    HW130870   6.866   7.522   7.629  0.4644  0.3849  0.7651
 9326SOL    HW230871   6.991   7.568   7.558  0.5524  0.2243  0.8145
 9327SOL     OW30872   2.844   7.830   4.186 -0.0834 -0.2705 -0.1965
 9327SOL    HW130873   2.750   7.815   4.184 -0.1259 -0.4742  1.5643
 9327SOL    HW230874   2.853   7.922   4.211  0.1922 -0.1941 -0.5648
 9328SOL     OW30875   5.156   1.799   1.486 -0.2081  0.7215 -0.0406
 9328SOL    HW130876   5.199   1.821   1.569 -1.4211  1.4238  0.4201
 9328SOL    HW230877   5.092   1.732   1.509 -2.2967  2.6535  0.1039
 9329SOL     OW30878   1.278   3.004   8.887  0.2976 -0.1222  0.2108
 9329SOL    HW130879   1.368   2.973   8.896  0.8211  1.1096 -0.4648
 9329SOL    HW230880   1.263   3.005   8.792 -0.4415 -0.3553  0.3222
 9330SOL     OW30881   7.900   4.171   4.206 -0.4853 -0.1654 -0.3990
 9330SOL    HW130882   7.888   4.147   4.114  2.1158 -2.3075 -0.2903
 9330SOL    HW230883   7.826   4.229   4.225 -2.9314 -2.1566 -2.9248
 9331SOL     OW30884   8.597   1.469   0.368 -0.4094 -0.9858 -0.3158
 9331SOL    HW130885   8.592   1.472   0.464 -1.2991  0.5176 -0.3790
 9331SOL    HW230886   8.652   1.393   0.349  0.0191 -1.1387  1.3972
 9332SOL     OW30887   2.934   7.212   3.440  0.3755 -0.5442 -0.1687
 9332SOL    HW130888   2.921   7.131   3.392 -1.7339 -2.0040  2.5788
 9332SOL    HW230889   2.852   7.260   3.430  0.6895  0.1027  0.2698
 9333SOL     OW30890   6.750   8.689   0.406 -0.1072  0.0596  0.3790
 9333SOL    HW130891   6.745   8.695   0.311 -2.3174  0.5246  0.4871
 9333SOL    HW230892   6.831   8.735   0.428 -0.0358  0.7633 -1.1972
 9334SOL     OW30893   8.695   7.436   1.248 -0.3378  0.3398 -0.3244
 9334SOL    HW130894   8.734   7.520   1.276  2.3774 -0.4459 -1.4644
 9334SOL    HW230895   8.757   7.370   1.278 -1.8329 -1.2058 -0.5064
 9335SOL     OW30896   1.758   0.772   1.486 -0.6010  0.2638 -0.1213
 9335SOL    HW130897   1.712   0.822   1.554  0.8751 -0.2319  1.2918
 9335SOL    HW230898   1.816   0.713   1.535  1.7765  1.0892 -1.8205
 9336SOL     OW30899   1.883   1.899   1.166 -0.3039  0.0334  0.3496
 9336SOL    HW130900   1.872   1.843   1.089 -0.5071 -0.7368  0.9157
 9336SOL    HW230901   1.932   1.975   1.135  4.2471 -2.5092  0.3763
 9337SOL     OW30902   0.705   5.813   4.770  0.3351  0.1484  0.2228
 9337SOL    HW130903   0.757   5.893   4.768 -0.8620  1.0011  1.6310
 9337SOL    HW230904   0.663   5.813   4.856  0.9980 -2.4627  0.6278
 9338SOL     OW30905   5.632   8.094   3.492  0.5048 -0.2571  0.3032
 9338SOL    HW130906   5.540   8.119   3.505  0.8351  0.1306  2.1887
 9338SOL    HW230907   5.634   8.000   3.510  0.0914 -0.8124 -2.1863
 9339SOL     OW30908   8.902   1.318   5.027  0.0788 -0.1760  0.4897
 9339SOL    HW130909   8.831   1.361   5.074 -0.0170  0.0734  0.1238
 9339SOL    HW230910   8.858   1.255   4.970  0.2455 -1.1616  1.4130
 9340SOL     OW30911   4.915   3.048   6.393  0.3993  0.2683  0.1377
 9340SOL    HW130912   4.875   3.018   6.312 -1.4698 -0.2409  1.1855
 9340SOL    HW230913   4.844   3.091   6.440  1.6102  1.1480  1.2144
 9341SOL     OW30914   2.995   0.896   5.907 -0.2951 -0.4930 -0.4284
 9341SOL    HW130915   2.907   0.891   5.944 -0.2174 -1.1728 -0.3205
 9341SOL    HW230916   3.048   0.839   5.963  0.7979  1.8623  1.0712
 9342SOL     OW30917   8.010   6.961   1.765 -0.3047  0.0901 -0.0863
 9342SOL    HW130918   7.926   6.979   1.808 -0.7648 -1.6335 -0.1662
 9342SOL    HW230919   8.042   6.882   1.809  1.9858  1.4885  0.8930
 9343SOL     OW30920   1.150   0.961   4.211  0.1266 -0.2091  0.0326
 9343SOL    HW130921   1.117   0.880   4.172  0.5299 -0.7614  0.8170
 9343SOL    HW230922   1.202   0.932   4.286 -0.6510  0.8332  1.0052
 9344SOL     OW30923   5.534   4.024   2.110 -0.1474 -0.0181 -0.2133
 9344SOL    HW130924   5.625   4.038   2.084 -0.3944  0.5089 -0.8381
 9344SOL    HW230925   5.487   4.100   2.075 -0.8241 -0.2662  0.1277
 9345SOL     OW30926   4.052   3.872   1.538  0.4408 -0.0746 -0.1367
 9345SOL    HW130927   4.019   3.842   1.453 -0.9627 -2.8107  1.2525
 9345SOL    HW230928   3.979   3.921   1.577  0.1588 -0.9796  0.4926
 9346SOL     OW30929   5.107   0.835   2.160  0.0346 -0.3705  0.2110
 9346SOL    HW130930   5.070   0.776   2.094  0.9659 -0.6382 -0.0837
 9346SOL    HW230931   5.133   0.777   2.232 -1.3536 -0.0418  1.0233
 9347SOL     OW30932   5.314   4.408   6.770 -0.1169  0.2443  0.1893
 9347SOL    HW130933   5.275   4.332   6.727  1.4742  0.5420 -1.9313
 9347SOL    HW230934   5.255   4.427   6.844 -0.9432 -2.5672  0.3543
 9348SOL     OW30935   6.040   4.080   4.037 -0.5456  0.6380  0.0387
 9348SOL    HW130936   6.120   4.029   4.026 -0.8721  0.3782 -1.2298
 9348SOL    HW230937   5.971   4.014   4.047 -0.9072  0.8085 -1.1602
 9349SOL     OW30938   8.090   2.764   5.809  0.0173  0.3134  0.1334
 9349SOL    HW130939   8.159   2.826   5.832 -0.2053  0.3451  0.7180
 9349SOL    HW230940   8.014   2.793   5.859  0.4078 -1.5372  1.8936
 9350SOL     OW30941   0.866   2.271   3.309  0.0704 -0.0359 -0.3135
 9350SOL    HW130942   0.785   2.252   3.262 -0.6207  1.2502  0.3328
 9350SOL    HW230943   0.935   2.261   3.243 -0.6826 -0.3377 -1.0678
 9351SOL     OW30944   4.365   7.094   0.487 -0.6142  0.3325 -0.2905
 9351SOL    HW130945   4.402   7.161   0.430 -1.3369 -0.7344 -2.1176
 9351SOL    HW230946   4.401   7.012   0.453 -1.1375 -0.3584  0.7580
 9352SOL     OW30947   7.494   3.875   3.069 -0.0603  0.0494  0.4803
 9352SOL    HW130948   7.502   3.787   3.032 -1.8816 -0.3537  0.9385
 9352SOL    HW230949   7.531   3.933   3.002  0.8158 -1.0175  0.0058
 9353SOL     OW30950   4.904   7.225   5.996 -0.0947 -0.2388 -0.2209
 9353SOL    HW130951   4.968   7.245   5.928  2.6043  0.0612  2.2421
 9353SOL    HW230952   4.916   7.131   6.014 -0.4051 -0.2008  0.2127
 9354SOL     OW30953   3.663   1.462   0.294 -0.5380 -0.5729  0.3955
 9354SOL    HW130954   3.664   1.400   0.367  1.8274  1.4882  2.2718
 9354SOL    HW230955   3.576   1.501   0.298 -0.6002 -0.7983  1.8849
 9355SOL     OW30956   1.461   7.667   0.063 -0.9430 -0.4859 -0.3346
 9355SOL    HW130957   1.536   7.611   0.085 -0.3448  0.8012  1.0783
 9355SOL    HW230958   1.463   7.673  -0.033  1.5905  0.5694 -0.2945
 9356SOL     OW30959   7.419   8.807   4.319 -0.1752 -0.3759 -0.2529
 9356SOL    HW130960   7.399   8.901   4.322  2.0676  0.1234  0.4489
 9356SOL    HW230961   7.481   8.794   4.390 -2.5632 -2.9944  1.5911
 9357SOL     OW30962   1.529   3.297   4.774  0.4228  0.3502  0.2236
 9357SOL    HW130963   1.508   3.205   4.756  1.5178 -0.2002  1.5779
 9357SOL    HW230964   1.620   3.307   4.744  0.0959  1.1859 -0.5248
 9358SOL     OW30965   3.861   1.964   3.259 -0.5026 -0.0162  0.1957
 9358SOL    HW130966   3.780   1.999   3.224 -2.4537 -2.0124  2.3294
 9358SOL    HW230967   3.857   1.870   3.241  0.5759 -0.3957  1.6531
 9359SOL     OW30968   1.923   5.501   7.065 -0.5856  0.6067 -0.5682
 9359SOL    HW130969   1.995   5.538   7.116  0.3049  1.9726 -2.6356
 9359SOL    HW230970   1.939   5.407   7.066 -0.5864  0.5772  1.5520
 9360SOL     OW30971   8.401   0.291   3.326 -0.2934  0.0830  0.0159
 9360SOL    HW130972   8.489   0.310   3.359  0.8800 -0.6203 -2.4502
 9360SOL    HW230973   8.350   0.368   3.350  0.5674 -0.1004  2.7568
 9361SOL     OW30974   2.829   8.234   6.473  0.2862  0.1982 -0.5918
 9361SOL    HW130975   2.855   8.247   6.382 -2.5319  0.8764 -1.4176
 9361SOL    HW230976   2.807   8.141   6.478 -1.5145  0.5410 -1.2642
 9362SOL     OW30977   3.410   2.849   2.240  0.1496 -0.4118  0.0356
 9362SOL    HW130978   3.320   2.826   2.214 -0.1796  0.4579  0.3581
 9362SOL    HW230979   3.444   2.770   2.281 -0.8195 -0.4638  0.7766
 9363SOL     OW30980   1.276   1.276   7.348  0.2912  0.2006  0.6638
 9363SOL    HW130981   1.290   1.370   7.337  1.0885  0.0794  0.5872
 9363SOL    HW230982   1.191   1.259   7.307  0.3327  0.8148  0.3120
 9364SOL     OW30983   4.404   3.935   4.535  0.6597  0.0945  0.1602
 9364SOL    HW130984   4.479   3.878   4.520  2.6446  2.6640 -0.4314
 9364SOL    HW230985   4.347   3.920   4.460  2.1449  0.3366 -1.0630
 9365SOL     OW30986   6.916   8.172   0.473  0.4017 -0.0446 -0.5262
 9365SOL    HW130987   6.948   8.263   0.480 -1.2715  0.4927  0.6663
 9365SOL    HW230988   6.882   8.152   0.560  0.8529 -1.8988 -0.7390
 9366SOL     OW30989   5.780   0.290   1.427 -0.8522 -0.8164  0.0860
 9366SOL    HW130990   5.741   0.292   1.514 -0.9257 -0.2760  0.0439
 9366SOL    HW230991   5.873   0.309   1.442 -1.4724  3.5501 -0.2684
 9367SOL     OW30992   3.095   0.764   2.427  0.2797 -0.0215 -0.3875
 9367SOL    HW130993   3.140   0.728   2.351  0.6615  0.7092 -0.5255
 9367SOL    HW230994   3.083   0.857   2.406  2.6081  0.8058  1.3984
 9368SOL     OW30995   1.979   7.606   4.153 -0.0092  0.2166 -0.3885
 9368SOL    HW130996   1.954   7.515   4.169  0.7617  0.2678  1.4004
 9368SOL    HW230997   2.071   7.601   4.128 -1.0659  0.1735 -5.1500
 9369SOL     OW30998   7.767   2.840   7.231  0.2822 -0.6827  0.1770
 9369SOL    HW130999   7.859   2.836   7.255  0.1299 -0.7029  0.7710
 9369SOL    HW231000   7.744   2.750   7.209  0.0882 -0.9097  1.2539
 9370SOL     OW31001   6.793   6.957   3.683  0.4148  0.1567  0.8089
 9370SOL    HW131002   6.796   6.960   3.587  0.5086 -0.9607  0.7723
 9370SOL    HW231003   6.702   6.939   3.703  0.9215 -2.8124  0.8047
 9371SOL     OW31004   5.002   4.156   1.353  0.7297  0.0922 -1.3789
 9371SOL    HW131005   5.015   4.120   1.265  2.9193 -0.6747 -0.8067
 9371SOL    HW231006   5.086   4.197   1.374  0.7545 -1.0302  0.9211
 9372SOL     OW31007   2.292   7.599   7.884  0.2574  0.1575 -0.4628
 9372SOL    HW131008   2.222   7.575   7.944  1.2345 -1.0285  0.2467
 9372SOL    HW231009   2.247   7.632   7.806 -1.0395  1.2918  0.7197
 9373SOL     OW31010   0.500   5.970   6.078  0.3155  0.1961  0.0163
 9373SOL    HW131011   0.584   5.960   6.123  0.1050 -0.0277  0.3694
 9373SOL    HW231012   0.446   6.021   6.139 -0.1840 -0.6483  0.3043
 9374SOL     OW31013   8.581   7.708   7.309  0.0300 -0.3932 -0.0623
 9374SOL    HW131014   8.507   7.733   7.254  1.1847  2.6885 -0.4365
 9374SOL    HW231015   8.579   7.772   7.380  2.8689  0.4275 -0.6285
 9375SOL     OW31016   4.374   0.953   2.618  0.4194  0.1673 -0.0257
 9375SOL    HW131017   4.452   0.920   2.662  0.6936  1.6337  0.6257
 9375SOL    HW231018   4.325   0.874   2.595  1.0365 -0.7047  1.4971
 9376SOL     OW31019   1.561   6.507   5.004  0.1738 -0.6525 -0.4864
 9376SOL    HW131020   1.587   6.481   4.916 -1.6767  2.7997 -2.2502
 9376SOL    HW231021   1.609   6.588   5.021 -0.8567 -0.2910  0.8953
 9377SOL     OW31022   5.349   2.272   3.662  0.1161 -0.2300 -0.4332
 9377SOL    HW131023   5.419   2.254   3.725 -0.8514  0.2971  0.8491
 9377SOL    HW231024   5.332   2.187   3.621  0.7379 -0.6000  0.0406
 9378SOL     OW31025   3.965   1.496   6.609  0.4108  0.5584 -0.1850
 9378SOL    HW131026   3.908   1.573   6.609  1.9190  1.7229 -0.2289
 9378SOL    HW231027   3.996   1.488   6.519  0.3107 -0.0832 -0.1699
 9379SOL     OW31028   3.776   4.965   7.607 -0.2997  0.1206  0.0552
 9379SOL    HW131029   3.847   4.910   7.574 -0.4022 -0.5351  0.9033
 9379SOL    HW231030   3.718   4.976   7.532  0.1121 -0.2830 -0.3346
 9380SOL     OW31031   9.032   3.516   2.397 -0.3338 -0.1265  0.4038
 9380SOL    HW131032   9.000   3.428   2.376  0.0698  0.0528 -1.1298
 9380SOL    HW231033   8.967   3.552   2.457 -1.1839 -1.0062  0.0365
 9381SOL     OW31034   8.510   6.872   1.461 -0.2359  0.4370  0.4353
 9381SOL    HW131035   8.567   6.870   1.538 -0.3898 -1.1778  0.5368
 9381SOL    HW231036   8.485   6.781   1.447  0.2245  0.5930 -1.8768
 9382SOL     OW31037   6.903   1.021   3.236  0.4837  0.4808 -0.1980
 9382SOL    HW131038   6.887   0.951   3.299 -1.6473  0.8008 -0.3366
 9382SOL    HW231039   6.923   1.097   3.291 -3.0204  1.1888  0.2904
 9383SOL     OW31040   0.096   1.148   2.116  0.2672  0.1590  0.0781
 9383SOL    HW131041   0.029   1.215   2.100  0.0594  0.1177  0.7486
 9383SOL    HW231042   0.158   1.158   2.044  0.5021  1.3960  0.4331
 9384SOL     OW31043   8.598   8.667   0.813 -0.8096  0.2512 -0.0205
 9384SOL    HW131044   8.523   8.646   0.756  0.8866  0.0955 -2.3593
 9384SOL    HW231045   8.627   8.753   0.783  1.3218 -0.6720 -0.8706
 9385SOL     OW31046   8.734   0.463   2.646 -0.0618  0.8197  0.0070
 9385SOL    HW131047   8.738   0.406   2.570  1.4532  0.5647  0.2553
 9385SOL    HW231048   8.785   0.418   2.713 -3.0125  0.0283  1.9213
 9386SOL     OW31049   2.647   4.485   2.528  1.1456  0.3254 -0.2390
 9386SOL    HW131050   2.610   4.530   2.604  2.2831  0.7199  0.0939
 9386SOL    HW231051   2.732   4.453   2.558  2.2678  1.7383 -1.7335
 9387SOL     OW31052   2.018   9.082   7.115 -0.3069 -0.1094  0.4348
 9387SOL    HW131053   1.970   9.009   7.075 -0.0849 -0.1103  0.1711
 9387SOL    HW231054   2.106   9.048   7.130  0.0369  0.3562 -0.4470
 9388SOL     OW31055   3.832   5.753   4.688  0.3326  0.4917 -0.1799
 9388SOL    HW131056   3.775   5.815   4.733 -1.5324 -0.4355 -1.1507
 9388SOL    HW231057   3.885   5.714   4.758 -1.5320  0.0576  1.0686
 9389SOL     OW31058   4.930   8.710   0.921  0.4464  0.1556 -0.2519
 9389SOL    HW131059   4.955   8.623   0.952 -0.6173 -0.1780 -0.2917
 9389SOL    HW231060   4.877   8.747   0.992  0.3576  0.5123 -0.4993
 9390SOL     OW31061   4.595   2.917   4.639  0.7719  0.1747  0.0969
 9390SOL    HW131062   4.575   2.896   4.731 -2.8503 -0.3361 -0.6650
 9390SOL    HW231063   4.626   2.835   4.602 -0.0803 -0.2815  0.3511
 9391SOL     OW31064   2.566   2.840   3.375  0.2941 -0.0625  0.3041
 9391SOL    HW131065   2.516   2.850   3.294  0.2374 -0.2534  0.3141
 9391SOL    HW231066   2.645   2.892   3.361  0.5560 -0.5657 -0.1063
 9392SOL     OW31067   3.609   8.351   0.533  0.1065  0.4192  0.0584
 9392SOL    HW131068   3.629   8.415   0.600 -0.8419  1.3475 -0.5188
 9392SOL    HW231069   3.590   8.270   0.581 -1.5385  1.3216  0.9952
 9393SOL     OW31070   8.635   8.005   2.470  0.1671  0.1695  0.3414
 9393SOL    HW131071   8.697   8.025   2.540 -0.6808  0.0098  1.1515
 9393SOL    HW231072   8.591   8.088   2.453  1.8637  0.7655 -1.5534
 9394SOL     OW31073   2.501   5.031   6.820  0.0641  0.0667  0.1309
 9394SOL    HW131074   2.450   5.019   6.900  1.6770  1.3006  1.4333
 9394SOL    HW231075   2.506   4.944   6.780  0.4695 -0.9052  2.1878
 9395SOL     OW31076   1.145   2.595   3.290  0.7265  0.1722 -0.4634
 9395SOL    HW131077   1.061   2.640   3.296 -0.0461 -1.1154 -1.1140
 9395SOL    HW231078   1.203   2.658   3.248 -0.1830  0.7325 -0.9169
 9396SOL     OW31079   1.539   6.017   1.444  0.9641 -0.2638 -0.4930
 9396SOL    HW131080   1.568   6.075   1.374 -0.5657  1.1335 -0.0222
 9396SOL    HW231081   1.606   5.949   1.448  0.5480 -1.1463 -4.1417
 9397SOL     OW31082   8.173   6.487   4.514 -0.8851  0.1962  0.4068
 9397SOL    HW131083   8.079   6.504   4.521 -0.5560  3.1632 -0.8219
 9397SOL    HW231084   8.204   6.551   4.450  1.8353 -1.3812 -0.0025
 9398SOL     OW31085   1.309   4.651   6.094 -0.5905  0.3542  0.7981
 9398SOL    HW131086   1.253   4.578   6.119  0.0278 -0.6558 -0.6462
 9398SOL    HW231087   1.398   4.617   6.099 -0.2708  1.0932  0.3800
 9399SOL     OW31088   2.403   1.383   5.210 -0.8020 -0.1853  0.7594
 9399SOL    HW131089   2.367   1.341   5.288 -0.3236  0.3054  1.2502
 9399SOL    HW231090   2.457   1.455   5.244  0.7638 -0.9800  0.0494
 9400SOL     OW31091   8.558   4.007   7.427  0.4506 -0.9828  0.5418
 9400SOL    HW131092   8.552   4.057   7.509  0.5382 -0.7891  0.4307
 9400SOL    HW231093   8.637   3.955   7.437  3.1982  2.4355 -1.2666
 9401SOL     OW31094   5.130   5.105   4.807 -0.1125  0.2621 -0.6625
 9401SOL    HW131095   5.130   5.010   4.807  0.1014  0.2622 -0.5367
 9401SOL    HW231096   5.053   5.130   4.857  0.0304  0.1556 -0.3915
 9402SOL     OW31097   8.378   7.115   1.432 -0.7271  0.0582 -0.3040
 9402SOL    HW131098   8.383   7.021   1.448  0.8709 -0.0402 -1.2113
 9402SOL    HW231099   8.375   7.123   1.336  1.5616  0.9673 -0.3638
 9403SOL     OW31100   5.827   6.016   7.849  0.0185 -0.6459  0.6300
 9403SOL    HW131101   5.826   5.995   7.756  0.1001  1.1823  0.1775
 9403SOL    HW231102   5.850   5.933   7.892  1.7854 -1.1282 -1.0871
 9404SOL     OW31103   5.152   1.906   8.701  0.0491 -0.1321 -0.1566
 9404SOL    HW131104   5.141   1.873   8.612  3.3576 -0.7187 -0.4701
 9404SOL    HW231105   5.153   2.001   8.691  0.9156 -0.2055 -0.8482
 9405SOL     OW31106   0.140   2.721   2.187 -0.3813  0.4272  0.4333
 9405SOL    HW131107   0.046   2.721   2.169 -0.4923  0.1368  0.9985
 9405SOL    HW231108   0.170   2.634   2.160 -0.4360  0.2117  1.0445
 9406SOL     OW31109   1.670   1.224   4.907  0.0472 -0.8224 -0.8158
 9406SOL    HW131110   1.686   1.275   4.827  2.4914 -0.5275 -0.2346
 9406SOL    HW231111   1.599   1.271   4.951 -1.7822 -1.3242 -3.0239
 9407SOL     OW31112   2.409   7.647   0.756  0.1096  0.2098  1.2310
 9407SOL    HW131113   2.341   7.699   0.713  0.0105 -0.1597  0.9340
 9407SOL    HW231114   2.404   7.673   0.848  0.0665  0.7248  1.0867
 9408SOL     OW31115   0.804   8.646   5.107 -0.5756  0.5387  0.0274
 9408SOL    HW131116   0.829   8.554   5.098 -1.2728  0.2789  0.6433
 9408SOL    HW231117   0.840   8.673   5.191 -1.1750  0.5530  0.2832
 9409SOL     OW31118   7.619   3.233   7.075  0.0750  0.2141 -0.9295
 9409SOL    HW131119   7.593   3.141   7.080  1.5659 -0.1723  0.8255
 9409SOL    HW231120   7.537   3.281   7.084 -0.7827 -0.8963 -2.2661
 9410SOL     OW31121   3.812   1.161   7.772  0.7809 -0.1670  0.1345
 9410SOL    HW131122   3.792   1.075   7.811 -0.9479  0.1383  0.0085
 9410SOL    HW231123   3.883   1.195   7.826  1.1218 -1.4347  0.5375
 9411SOL     OW31124   0.990   5.160   5.540 -0.5368 -0.3693 -0.4810
 9411SOL    HW131125   0.948   5.138   5.624  1.9291 -0.6073  0.7899
 9411SOL    HW231126   1.005   5.076   5.498  0.9570 -0.5059  0.2833
 9412SOL     OW31127   3.694   0.343   1.420 -0.4080  0.6437 -0.1079
 9412SOL    HW131128   3.773   0.313   1.376 -0.8114  0.9306 -1.0442
 9412SOL    HW231129   3.719   0.427   1.459  0.0037  0.2946  0.4108
 9413SOL     OW31130   1.405   1.296   0.204 -0.3333  0.3008  0.6108
 9413SOL    HW131131   1.374   1.329   0.288 -0.7646  0.1699  0.5070
 9413SOL    HW231132   1.357   1.347   0.139  1.5513  1.9192  0.3916
 9414SOL     OW31133   1.874   1.782   6.711 -0.4012  0.3211 -0.2434
 9414SOL    HW131134   1.895   1.874   6.698 -0.5367  0.5727  1.1108
 9414SOL    HW231135   1.949   1.747   6.759 -0.2817 -0.3216 -0.8820
 9415SOL     OW31136   6.575   5.101   0.304 -0.2195  0.3240  0.2226
 9415SOL    HW131137   6.669   5.087   0.289 -0.4047 -0.5204 -0.2186
 9415SOL    HW231138   6.533   5.033   0.252 -1.0831  0.7355  0.3811
 9416SOL     OW31139   3.325   7.829   0.951 -0.4808 -0.3737 -0.0285
 9416SOL    HW131140   3.266   7.764   0.989 -1.0790 -0.6276 -1.3196
 9416SOL    HW231141   3.268   7.881   0.894  0.3663  0.0163 -0.5312
 9417SOL     OW31142   7.749   8.332   5.725  0.3763 -0.0430  0.3894
 9417SOL    HW131143   7.775   8.287   5.645  1.0438  0.9729  0.0199
 9417SOL    HW231144   7.826   8.327   5.781 -0.0820 -0.7367  0.9834
 9418SOL     OW31145   1.492   8.325   4.549 -0.0480 -0.2564 -0.4803
 9418SOL    HW131146   1.417   8.299   4.603  1.2233 -0.9281  1.0567
 9418SOL    HW231147   1.459   8.324   4.459 -1.9700 -0.1533  0.1814
 9419SOL     OW31148   5.187   3.499   8.737  0.1101  0.3543 -0.2141
 9419SOL    HW131149   5.223   3.567   8.794 -0.8129 -1.2514  2.4601
 9419SOL    HW231150   5.236   3.420   8.759 -0.9028 -0.5224 -0.9667
 9420SOL     OW31151   4.696   8.890   6.743 -0.1112 -0.7485  0.1563
 9420SOL    HW131152   4.616   8.840   6.760  0.6467 -1.7047  1.0621
 9420SOL    HW231153   4.738   8.845   6.670  0.3632 -1.1896  0.6960
 9421SOL     OW31154   3.892   5.442   7.147 -0.2298  0.5662 -0.4597
 9421SOL    HW131155   3.950   5.365   7.147 -1.8340 -0.7109 -1.4329
 9421SOL    HW231156   3.938   5.506   7.093  0.8926  0.1097 -0.0892
 9422SOL     OW31157   3.181   7.394   8.790 -0.7493 -0.0929  0.1437
 9422SOL    HW131158   3.209   7.409   8.700 -1.1557 -0.2943 -0.0170
 9422SOL    HW231159   3.092   7.360   8.782 -1.2370  1.0239  0.6836
 9423SOL     OW31160   2.892   7.880   2.456 -0.3105 -0.1303 -0.1065
 9423SOL    HW131161   2.950   7.804   2.447  0.6952  0.3936  1.4111
 9423SOL    HW231162   2.950   7.955   2.445 -1.0112  0.4182 -0.0915
 9424SOL     OW31163   4.539   3.689   0.125  0.6294  0.3259  0.3823
 9424SOL    HW131164   4.450   3.725   0.137  0.9640  1.8406 -1.2421
 9424SOL    HW231165   4.535   3.602   0.163 -1.8348 -0.0029 -0.4524
 9425SOL     OW31166   6.625   9.068   3.531 -0.1142  0.2635  0.0613
 9425SOL    HW131167   6.550   9.049   3.474 -0.8913 -0.3111  1.2389
 9425SOL    HW231168   6.604   9.152   3.571  0.8560  1.1209 -1.1266
 9426SOL     OW31169   8.626   1.022   2.010  0.3772  0.2774 -0.1878
 9426SOL    HW131170   8.615   1.047   1.919 -1.3967 -2.4220 -0.8351
 9426SOL    HW231171   8.706   0.969   2.012  0.0552 -0.2179 -0.3231
 9427SOL     OW31172   6.168   8.744   2.960 -0.8203 -0.4754  0.3476
 9427SOL    HW131173   6.113   8.700   3.026 -0.6425 -0.4756  0.4957
 9427SOL    HW231174   6.257   8.715   2.979 -0.7520 -0.3720  0.1887
 9428SOL     OW31175   7.599   1.526   1.392 -0.2229  0.1543  0.2835
 9428SOL    HW131176   7.542   1.571   1.329 -1.3460 -0.0793  1.0931
 9428SOL    HW231177   7.571   1.561   1.477  0.4940 -0.3669  0.7363
 9429SOL     OW31178   3.385   7.705   6.937  0.2951  0.3999 -0.3532
 9429SOL    HW131179   3.363   7.629   6.991 -0.9182  1.7935  1.2171
 9429SOL    HW231180   3.454   7.750   6.985 -1.0643  1.8638  0.2944
 9430SOL     OW31181   8.015   8.143   8.816  0.0201 -0.4660  0.3046
 9430SOL    HW131182   8.027   8.237   8.824 -1.3344 -0.1668 -0.6977
 9430SOL    HW231183   7.927   8.127   8.852 -0.2387 -1.1511 -0.5759
 9431SOL     OW31184   0.153   8.829   5.257  0.5477  0.1367 -0.2130
 9431SOL    HW131185   0.087   8.822   5.326  1.4848 -2.0637  0.5415
 9431SOL    HW231186   0.205   8.906   5.281 -0.9565  1.2030 -0.1931
 9432SOL     OW31187   6.486   6.510   7.358 -0.6461  0.8253 -0.1533
 9432SOL    HW131188   6.477   6.486   7.450  0.7904  0.4299 -0.0824
 9432SOL    HW231189   6.516   6.430   7.315 -3.1191  0.4670 -1.3488
 9433SOL     OW31190   1.048   9.033   0.776  0.6548 -0.6186 -0.2860
 9433SOL    HW131191   1.004   8.976   0.839  1.3431 -0.1909  0.6027
 9433SOL    HW231192   1.101   8.974   0.723 -0.3042 -1.0383 -0.8041
 9434SOL     OW31193   3.403   7.644   6.669 -0.1685 -0.2885  0.0759
 9434SOL    HW131194   3.432   7.555   6.690 -1.6030 -0.8938 -0.3576
 9434SOL    HW231195   3.370   7.678   6.753 -0.4282 -0.5011  0.0622
 9435SOL     OW31196   4.052   4.848   4.983  0.1766  0.6637  0.3842
 9435SOL    HW131197   4.105   4.786   5.032  2.3358  1.3777 -0.9224
 9435SOL    HW231198   3.999   4.794   4.924  1.9623 -0.0038 -0.6757
 9436SOL     OW31199   0.094   0.940   4.533  0.2165 -0.4089  0.3971
 9436SOL    HW131200   0.111   0.970   4.622  0.2921 -2.0150  0.9463
 9436SOL    HW231201   0.038   1.009   4.495 -0.0549  0.1561  1.7644
 9437SOL     OW31202   6.029   7.346   6.654 -0.1356 -0.0868  0.0358
 9437SOL    HW131203   6.026   7.256   6.685 -0.2442  0.3916  1.4552
 9437SOL    HW231204   6.118   7.357   6.620 -0.0101 -0.6094  0.1911
 9438SOL     OW31205   1.907   8.998   0.501  0.8414  0.0634  0.1836
 9438SOL    HW131206   1.963   9.026   0.572 -0.2151  0.5065  0.8646
 9438SOL    HW231207   1.910   8.903   0.504  0.7392  0.0785  0.8763
 9439SOL     OW31208   5.857   2.582   9.048  0.0143 -0.3238  0.2843
 9439SOL    HW131209   5.863   2.502   8.996  1.3333  0.2325 -0.4651
 9439SOL    HW231210   5.825   2.648   8.987 -1.0128 -0.2330  0.8834
 9440SOL     OW31211   5.786   2.455   3.565 -0.1812  0.5790 -0.0150
 9440SOL    HW131212   5.853   2.399   3.525 -1.2117 -0.5262 -0.2617
 9440SOL    HW231213   5.782   2.426   3.656 -0.6931  0.2631 -0.1349
 9441SOL     OW31214   8.583   8.301   5.649 -0.4816 -0.1687  0.3740
 9441SOL    HW131215   8.532   8.349   5.714  1.8416  0.4325  1.9083
 9441SOL    HW231216   8.565   8.209   5.667 -0.9127  0.0316  1.0027
 9442SOL     OW31217   4.922   7.304   4.489  0.5881 -0.1137  0.0321
 9442SOL    HW131218   5.004   7.338   4.526  0.2567  0.0222  0.6514
 9442SOL    HW231219   4.854   7.358   4.528  0.1282 -0.8931  0.3213
 9443SOL     OW31220   1.149   3.964   6.488  0.1595 -0.2209  0.1237
 9443SOL    HW131221   1.175   4.000   6.403 -0.4270 -0.2565 -0.0742
 9443SOL    HW231222   1.210   4.003   6.550 -0.3617  0.9998 -0.1051
 9444SOL     OW31223   2.130   3.510   4.588  0.1863  0.5224 -0.2071
 9444SOL    HW131224   2.171   3.449   4.527 -0.1069  0.0655  0.0439
 9444SOL    HW231225   2.082   3.571   4.532  1.7989  1.5263 -0.5412
 9445SOL     OW31226   5.299   4.267   8.591  0.4845  0.1774 -0.5301
 9445SOL    HW131227   5.284   4.349   8.636 -0.0925  0.2359 -0.8209
 9445SOL    HW231228   5.313   4.292   8.499 -1.1359 -0.1361 -0.8962
 9446SOL     OW31229   8.834   6.750   6.136 -0.1121  0.3241  0.4935
 9446SOL    HW131230   8.847   6.786   6.048  2.4267  0.9422  1.0514
 9446SOL    HW231231   8.739   6.742   6.144 -0.4111 -0.3585 -2.5249
 9447SOL     OW31232   1.437   7.911   5.190  0.1042  0.0837 -0.0712
 9447SOL    HW131233   1.407   7.866   5.268 -0.6764  1.8273  0.6899
 9447SOL    HW231234   1.428   7.847   5.120 -1.4325 -0.7840  0.8683
 9448SOL     OW31235   8.074   4.706   3.628 -0.1615 -0.0705 -0.4430
 9448SOL    HW131236   8.000   4.767   3.633 -0.6941 -0.6749 -0.7885
 9448SOL    HW231237   8.130   4.742   3.559 -0.8958 -0.4104 -1.2350
 9449SOL     OW31238   8.493   9.180   2.516 -0.2090 -0.6576 -0.0432
 9449SOL    HW131239   8.541   9.250   2.473  0.8758 -0.4635  1.4258
 9449SOL    HW231240   8.522   9.100   2.471  0.8154 -0.4456  0.2083
 9450SOL     OW31241   0.104   1.861   0.869 -0.4542  0.2149 -0.7994
 9450SOL    HW131242   0.057   1.780   0.890  0.1984  0.2458  0.9051
 9450SOL    HW231243   0.045   1.931   0.895  0.6659  0.2584  1.9303
 9451SOL     OW31244   7.688   1.666   5.294 -0.3907 -0.3677  0.1212
 9451SOL    HW131245   7.682   1.617   5.375  1.6774  0.7521  1.0375
 9451SOL    HW231246   7.607   1.646   5.247 -1.1160 -1.9379  1.9293
 9452SOL     OW31247   2.386   8.360   6.848 -0.3918  0.2425  0.0028
 9452SOL    HW131248   2.359   8.441   6.805  0.6688 -0.6639 -2.5625
 9452SOL    HW231249   2.337   8.291   6.804  0.1437 -0.7025  0.8136
 9453SOL     OW31250   5.890   4.548   5.323  0.3073 -0.1115  0.1503
 9453SOL    HW131251   5.918   4.618   5.264  1.0325  0.8185  1.5436
 9453SOL    HW231252   5.813   4.511   5.280 -0.3729  1.8388 -0.4440
 9454SOL     OW31253   4.215   5.294   6.247 -0.1480 -0.2227  0.4215
 9454SOL    HW131254   4.260   5.218   6.209  0.2147  0.5149 -0.6643
 9454SOL    HW231255   4.251   5.301   6.336 -0.6291 -1.6629  0.7656
 9455SOL     OW31256   6.504   5.146   3.442 -0.5547  0.3546  0.6221
 9455SOL    HW131257   6.528   5.209   3.509 -0.2805  0.1010  0.7628
 9455SOL    HW231258   6.585   5.131   3.392 -1.1715  1.9839 -0.9853
 9456SOL     OW31259   1.900   3.245   4.498 -0.1476  0.0230 -0.2885
 9456SOL    HW131260   1.897   3.188   4.421 -0.1949 -0.2299 -0.1036
 9456SOL    HW231261   1.991   3.244   4.526 -0.0796  0.3372 -0.5069
 9457SOL     OW31262   4.362   2.986   6.425  0.1753  0.2772 -0.0528
 9457SOL    HW131263   4.381   2.899   6.459 -2.7969 -0.6344 -0.4187
 9457SOL    HW231264   4.295   3.021   6.483 -1.8214  0.4838 -2.3223
 9458SOL     OW31265   2.260   7.891   5.037 -0.0479  0.3861 -0.6279
 9458SOL    HW131266   2.289   7.905   5.127 -2.1335 -0.8539  0.3004
 9458SOL    HW231267   2.323   7.829   5.001  0.5519  0.5478  0.1222
 9459SOL     OW31268   7.481   7.679   4.260  0.3998 -0.6425 -0.3760
 9459SOL    HW131269   7.414   7.689   4.192  0.3152 -0.8267 -0.3213
 9459SOL    HW231270   7.431   7.664   4.340  0.5164 -1.4292 -0.4442
 9460SOL     OW31271   5.577   7.831   8.240  0.1457  0.0751  0.4726
 9460SOL    HW131272   5.522   7.878   8.177 -0.0773 -0.3740  0.3265
 9460SOL    HW231273   5.666   7.839   8.205 -0.1181 -1.2508 -0.6085
 9461SOL     OW31274   7.924   6.118   3.866  0.4922 -0.1635  0.0689
 9461SOL    HW131275   7.892   6.182   3.802  0.1824  0.0238  0.4045
 9461SOL    HW231276   7.850   6.058   3.878  0.9272 -0.8422 -0.5618
 9462SOL     OW31277   5.024   9.048   1.702 -0.0775  0.4250  0.1764
 9462SOL    HW131278   5.103   8.995   1.694  1.1125  2.3272 -1.5227
 9462SOL    HW231279   5.053   9.129   1.743 -0.8948  1.5838 -1.4121
 9463SOL     OW31280   7.104   4.416   6.467 -0.1625 -0.5935  0.2019
 9463SOL    HW131281   7.058   4.490   6.507  0.6720  0.5087 -0.8073
 9463SOL    HW231282   7.106   4.437   6.374  0.8623 -1.4671  0.0135
 9464SOL     OW31283   5.365   1.601   7.184  0.0089  0.2847 -0.1089
 9464SOL    HW131284   5.385   1.508   7.187 -0.1291  0.1972 -1.4938
 9464SOL    HW231285   5.296   1.613   7.249  0.3143 -0.4945  0.3670
 9465SOL     OW31286   3.453   4.895   1.233 -0.0548  0.4915  0.0749
 9465SOL    HW131287   3.517   4.892   1.303  0.2701 -0.8525 -0.2377
 9465SOL    HW231288   3.370   4.873   1.275  0.3368 -1.5918 -0.1051
 9466SOL     OW31289   7.511   4.820   8.465 -0.2537  0.0414  0.4245
 9466SOL    HW131290   7.570   4.811   8.390  0.2346 -1.1593  0.9105
 9466SOL    HW231291   7.473   4.907   8.456  0.3764  0.2172 -0.7879
 9467SOL     OW31292   6.391   4.853   7.528 -0.1243  0.3146 -0.2426
 9467SOL    HW131293   6.448   4.929   7.516  1.4258 -0.6689  0.4964
 9467SOL    HW231294   6.380   4.847   7.623 -1.2042  0.2838 -0.3590
 9468SOL     OW31295   7.860   2.139   4.483  0.2289  0.5036  0.5301
 9468SOL    HW131296   7.864   2.046   4.461 -0.0023  0.4695  0.6284
 9468SOL    HW231297   7.929   2.180   4.431  1.1270  0.0950  1.3647
 9469SOL     OW31298   9.116   0.911   2.585  0.1547  0.4651 -0.2635
 9469SOL    HW131299   9.161   0.927   2.668 -0.1446  0.5020 -0.1084
 9469SOL    HW231300   9.133   0.818   2.567  1.2087  0.7384 -0.7584
 9470SOL     OW31301   3.808   5.384   6.573 -0.5443  0.1517 -0.3727
 9470SOL    HW131302   3.740   5.426   6.626 -1.5416  0.6581 -1.9905
 9470SOL    HW231303   3.784   5.291   6.574 -1.0376  0.2721 -0.5987
 9471SOL     OW31304   8.370   5.768   1.041  0.3338 -0.0064  0.2931
 9471SOL    HW131305   8.328   5.688   1.073 -1.1231  0.1276 -1.1514
 9471SOL    HW231306   8.395   5.815   1.120  0.3655 -1.4479  1.1788
 9472SOL     OW31307   0.061   8.219   1.475 -0.3764 -0.0809 -0.3499
 9472SOL    HW131308   0.013   8.281   1.421 -0.7896  0.1360  0.2592
 9472SOL    HW231309   0.023   8.134   1.454  1.5542 -0.4728 -2.7344
 9473SOL     OW31310   7.433   5.352   6.857  0.0090  0.2736  0.4321
 9473SOL    HW131311   7.502   5.286   6.848  0.2123  0.5020  0.3227
 9473SOL    HW231312   7.478   5.435   6.846 -0.6212  0.3754 -1.8292
 9474SOL     OW31313   3.095   0.496   8.831 -0.5573  0.5629  0.2754
 9474SOL    HW131314   3.051   0.572   8.869 -1.5065  0.2754 -0.2188
 9474SOL    HW231315   3.071   0.498   8.738 -0.7618 -0.4442  0.2890
 9475SOL     OW31316   4.860   2.151   8.156 -0.2594  0.5611 -0.0613
 9475SOL    HW131317   4.921   2.089   8.115  0.9308  0.1424  2.1989
 9475SOL    HW231318   4.775   2.107   8.154  0.9455 -2.4370  3.6602
 9476SOL     OW31319   6.337   3.788   7.594 -0.0734 -0.5108  0.2837
 9476SOL    HW131320   6.303   3.838   7.668  0.2763  0.9077 -0.4552
 9476SOL    HW231321   6.284   3.708   7.591  0.0466 -0.6877  2.1565
 9477SOL     OW31322   6.748   2.050   2.279  0.0744 -0.2956  0.4561
 9477SOL    HW131323   6.675   1.989   2.272  0.0734 -0.3132  0.6183
 9477SOL    HW231324   6.781   2.058   2.189  1.3907 -2.1630  0.6943
 9478SOL     OW31325   6.303   4.770   4.298  0.0155 -0.1161  0.0850
 9478SOL    HW131326   6.223   4.737   4.258  0.4188 -0.0441 -0.8110
 9478SOL    HW231327   6.365   4.697   4.294  0.1085 -0.0570  0.4316
 9479SOL     OW31328   9.036   2.252   8.851 -0.1466  0.2986 -0.3193
 9479SOL    HW131329   9.096   2.273   8.779  0.8103 -0.0526  0.3586
 9479SOL    HW231330   9.029   2.333   8.901 -1.2004  0.6878 -1.0559
 9480SOL     OW31331   0.460   6.158   1.345  0.0419  0.2829 -0.3418
 9480SOL    HW131332   0.541   6.161   1.295  1.1248 -2.1536  1.1041
 9480SOL    HW231333   0.429   6.068   1.337 -1.4787  0.6547  0.7396
 9481SOL     OW31334   5.533   1.915   4.814  0.1349 -0.1342  0.5940
 9481SOL    HW131335   5.624   1.892   4.798  0.2883  1.1390 -0.5348
 9481SOL    HW231336   5.524   1.913   4.909  1.1581 -0.9122  0.6898
 9482SOL     OW31337   7.327   6.710   9.034 -0.2628 -0.7539 -0.1878
 9482SOL    HW131338   7.339   6.636   9.093  0.3715  0.3042  1.0803
 9482SOL    HW231339   7.379   6.781   9.074 -4.0282  1.6430  0.9809
 9483SOL     OW31340   6.772   2.575   8.167  0.2470  0.1582  0.3921
 9483SOL    HW131341   6.696   2.518   8.152 -0.4671  1.2762 -0.5327
 9483SOL    HW231342   6.744   2.634   8.238 -0.5436  1.7793 -1.1656
 9484SOL     OW31343   6.645   8.405   5.349 -0.0528  0.0860 -0.5943
 9484SOL    HW131344   6.733   8.383   5.321  0.2834 -1.7372  1.6608
 9484SOL    HW231345   6.637   8.499   5.331  2.1242  0.1855 -1.3303
 9485SOL     OW31346   6.447   3.825   1.890 -0.2716  0.5640  0.0619
 9485SOL    HW131347   6.507   3.769   1.841  0.1995  0.6363  0.5453
 9485SOL    HW231348   6.482   3.913   1.880 -0.3365  0.6166  0.2809
 9486SOL     OW31349   6.658   8.544   8.014 -0.2491 -0.3096  0.1525
 9486SOL    HW131350   6.732   8.522   8.071  0.6613  0.1503 -0.8303
 9486SOL    HW231351   6.687   8.622   7.967 -1.7915  0.5326  0.5334
 9487SOL     OW31352   0.871   4.242   6.344 -0.1991  0.0143 -0.2645
 9487SOL    HW131353   0.872   4.214   6.435  2.1231  1.4878  0.2351
 9487SOL    HW231354   0.913   4.171   6.296  0.0257 -0.0768  0.0637
 9488SOL     OW31355   4.876   6.706   9.006  0.0502  0.2124 -0.1043
 9488SOL    HW131356   4.947   6.770   9.003  0.2194  0.0677  0.6848
 9488SOL    HW231357   4.903   6.637   8.945  0.6846  0.0597  0.3429
 9489SOL     OW31358   1.002   8.104   2.583  0.1240 -0.3389 -0.9599
 9489SOL    HW131359   0.962   8.190   2.595  0.0327 -0.0288 -3.0534
 9489SOL    HW231360   0.940   8.043   2.623 -0.7493  0.4193 -1.1057
 9490SOL     OW31361   8.553   2.030   1.015 -1.0104 -0.4811  0.1219
 9490SOL    HW131362   8.605   2.034   0.935 -0.5601  0.4585  0.4438
 9490SOL    HW231363   8.475   2.081   0.996  0.0359  1.5249  0.9157
 9491SOL     OW31364   3.453   2.795   4.593 -0.0178  0.3176  0.2757
 9491SOL    HW131365   3.511   2.766   4.522 -1.8498 -1.4751 -0.5836
 9491SOL    HW231366   3.457   2.725   4.658 -0.7042  0.4854  0.5061
 9492SOL     OW31367   4.910   5.172   2.377 -0.0279 -0.1422  0.7387
 9492SOL    HW131368   4.940   5.116   2.306  0.2782 -0.1213  0.8513
 9492SOL    HW231369   4.886   5.254   2.334  0.3614 -0.0536  0.6831
 9493SOL     OW31370   0.959   8.989   2.308 -0.4315  0.3875  0.0364
 9493SOL    HW131371   0.977   8.948   2.223 -0.3619 -0.9456  0.6722
 9493SOL    HW231372   1.029   9.054   2.319  1.4044 -1.5666  0.4328
 9494SOL     OW31373   7.316   0.406   5.093  0.1955  0.2478  0.2139
 9494SOL    HW131374   7.408   0.419   5.072 -0.2500 -0.1842 -2.3974
 9494SOL    HW231375   7.314   0.325   5.144  1.0559 -1.8372 -2.7671
 9495SOL     OW31376   6.308   6.386   4.275  0.2379 -0.6236  0.6000
 9495SOL    HW131377   6.292   6.383   4.369 -1.5937 -0.6432  0.3345
 9495SOL    HW231378   6.260   6.311   4.240  1.5965 -1.1203 -0.2841
 9496SOL     OW31379   4.990   3.569   1.749 -0.2101  0.1073  0.1277
 9496SOL    HW131380   4.984   3.663   1.731 -0.5226 -0.1709 -1.3018
 9496SOL    HW231381   4.936   3.528   1.682 -2.4874 -0.9676  2.4534
 9497SOL     OW31382   2.908   3.327   1.191  0.6315 -0.0674 -0.4515
 9497SOL    HW131383   2.932   3.252   1.246  1.5892 -1.4013 -2.5866
 9497SOL    HW231384   2.879   3.394   1.254 -1.4578 -2.5898  1.4950
 9498SOL     OW31385   1.866   8.509   0.811  0.4359  0.3173  0.1700
 9498SOL    HW131386   1.867   8.477   0.901  0.4990 -0.7763 -0.2090
 9498SOL    HW231387   1.803   8.453   0.766  1.3376  0.0115 -0.7557
 9499SOL     OW31388   7.466   3.682   2.002  0.8448  0.7115  0.4290
 9499SOL    HW131389   7.500   3.660   1.916 -0.0186 -1.4462  0.5762
 9499SOL    HW231390   7.540   3.667   2.062  1.3746  1.9879  0.1177
 9500SOL     OW31391   3.853   0.583   3.843 -0.4727 -0.8762  0.1200
 9500SOL    HW131392   3.911   0.595   3.768  0.3388 -0.5327  0.7821
 9500SOL    HW231393   3.765   0.587   3.807 -0.0879 -1.6134 -0.9423
 9501SOL     OW31394   3.256   2.959   0.454 -0.2815  0.4490  0.1639
 9501SOL    HW131395   3.235   2.885   0.511  1.5599 -0.8899 -0.7854
 9501SOL    HW231396   3.288   3.027   0.514 -2.2581  0.6383  1.0712
 9502SOL     OW31397   0.811   1.906   8.743 -0.4527 -0.0746 -0.1727
 9502SOL    HW131398   0.905   1.893   8.730 -0.2954  0.7313  0.0910
 9502SOL    HW231399   0.794   1.867   8.829 -0.2247  0.3618  0.0749
 9503SOL     OW31400   3.185   3.637   4.647 -0.0218 -0.2925  0.4129
 9503SOL    HW131401   3.198   3.613   4.556  2.8655 -0.5491  0.7961
 9503SOL    HW231402   3.172   3.553   4.692 -3.6397 -0.0704  0.0911
 9504SOL     OW31403   1.057   2.791   4.545  0.5163  0.0707  0.2104
 9504SOL    HW131404   0.975   2.742   4.538 -0.0509  0.6912  1.9054
 9504SOL    HW231405   1.120   2.727   4.578  0.2917 -0.0199  0.4671
 9505SOL     OW31406   1.155   2.523   9.035  0.1460 -0.3920 -0.4530
 9505SOL    HW131407   1.069   2.500   9.001 -0.3611  0.0655  0.4823
 9505SOL    HW231408   1.139   2.598   9.093  1.2674  0.1577 -0.8065
 9506SOL     OW31409   6.090   5.652   5.251  0.0688 -0.4445 -0.1117
 9506SOL    HW131410   6.131   5.684   5.332  1.6489 -1.8104 -0.3262
 9506SOL    HW231411   6.021   5.593   5.281 -0.2769  0.1074  0.2209
 9507SOL     OW31412   1.916   3.003   3.854 -0.1106  0.3182  0.1364
 9507SOL    HW131413   1.965   2.928   3.821  1.7200  1.4253  0.2303
 9507SOL    HW231414   1.837   3.006   3.799 -0.2366 -1.6395  0.1493
 9508SOL     OW31415   6.830   5.880   6.241  0.2942  0.1902 -0.0089
 9508SOL    HW131416   6.822   5.833   6.158  0.5701 -0.5807  0.3936
 9508SOL    HW231417   6.862   5.814   6.303 -0.8503  0.5021  0.9409
 9509SOL     OW31418   4.712   5.755   2.311  0.4727 -0.4563  0.0616
 9509SOL    HW131419   4.800   5.792   2.306 -0.1397  1.2587  1.0555
 9509SOL    HW231420   4.672   5.779   2.227  0.2859  0.6333  0.4477
 9510SOL     OW31421   4.371   5.005   0.481 -0.3526 -0.0631 -0.3995
 9510SOL    HW131422   4.332   5.083   0.439 -0.8144  0.4787  0.9885
 9510SOL    HW231423   4.312   4.934   0.456  0.2638 -0.0675 -1.9723
 9511SOL     OW31424   4.974   6.524   1.397 -0.8710 -0.8733  0.2002
 9511SOL    HW131425   4.921   6.485   1.327 -0.8824 -0.9198  0.2342
 9511SOL    HW231426   4.921   6.595   1.432 -0.1435  0.2989 -1.0212
 9512SOL     OW31427   8.607   9.242   6.531 -0.6723 -0.2314 -0.0297
 9512SOL    HW131428   8.651   9.161   6.555 -1.1132 -0.1935  0.9351
 9512SOL    HW231429   8.675   9.308   6.533 -0.5839 -0.3350  0.5719
 9513SOL     OW31430   5.899   2.001   7.903  0.0689 -0.8319 -0.3003
 9513SOL    HW131431   5.848   1.977   7.826 -0.8409 -0.1608  0.0735
 9513SOL    HW231432   5.890   1.926   7.962 -0.9020 -0.5310 -0.0455
 9514SOL     OW31433   3.104   3.756   2.786 -0.4282 -0.3287  0.0434
 9514SOL    HW131434   3.110   3.797   2.872 -0.6679 -0.3236  0.0570
 9514SOL    HW231435   3.015   3.774   2.757 -0.5366 -0.8360  0.0513
 9515SOL     OW31436   2.399   2.922   3.107 -0.4914 -0.2676 -0.1195
 9515SOL    HW131437   2.318   2.887   3.069 -1.1634 -2.2651  2.8396
 9515SOL    HW231438   2.461   2.924   3.033 -2.8172  0.1645 -2.1965
 9516SOL     OW31439   3.557   6.601   2.063  0.6036  0.6946  0.3790
 9516SOL    HW131440   3.555   6.605   1.968 -2.6232  3.5441  0.3503
 9516SOL    HW231441   3.609   6.677   2.090 -0.6957  1.4697  0.7998
 9517SOL     OW31442   7.946   6.129   5.629 -0.2505 -0.5347  0.3000
 9517SOL    HW131443   7.979   6.044   5.599 -0.7460 -0.9498  0.8956
 9517SOL    HW231444   7.853   6.115   5.641 -0.1920 -0.1515  1.2420
 9518SOL     OW31445   4.786   0.745   5.839  0.3943 -0.0283 -0.0244
 9518SOL    HW131446   4.691   0.735   5.853  0.7097 -0.9046  1.8257
 9518SOL    HW231447   4.798   0.736   5.745 -1.2008 -1.5140 -0.1285
 9519SOL     OW31448   6.750   1.856   4.441 -0.2932 -0.3211 -0.3061
 9519SOL    HW131449   6.665   1.885   4.475 -0.7114 -0.6272 -1.0571
 9519SOL    HW231450   6.732   1.771   4.400  0.2825 -0.1803 -0.8748
 9520SOL     OW31451   2.268   1.028   3.694  0.3573 -0.1452  0.8640
 9520SOL    HW131452   2.280   1.103   3.751 -1.2323 -0.0436  1.1092
 9520SOL    HW231453   2.176   1.005   3.704 -0.4205  0.8019 -2.7686
 9521SOL     OW31454   9.113   0.364   6.246 -0.6816  0.0604  0.2335
 9521SOL    HW131455   9.121   0.362   6.341 -1.7759 -0.5069  0.3217
 9521SOL    HW231456   9.130   0.456   6.223  1.9975 -0.2226  0.7083
 9522SOL     OW31457   7.892   7.987   0.224  0.5052 -0.0003 -0.1645
 9522SOL    HW131458   7.905   7.904   0.270  0.0580 -0.6178 -1.1283
 9522SOL    HW231459   7.806   8.017   0.253  0.1566 -0.4655 -0.7017
 9523SOL     OW31460   9.119   1.761   8.657 -0.0997  0.6468 -0.3077
 9523SOL    HW131461   9.085   1.676   8.630  2.0918  0.1280 -1.6762
 9523SOL    HW231462   9.049   1.799   8.710 -1.0059 -2.1537  0.6869
 9524SOL     OW31463   2.317   7.044   5.351  0.6272 -0.4085  0.2764
 9524SOL    HW131464   2.379   7.110   5.382  0.8846 -0.1109 -0.8323
 9524SOL    HW231465   2.363   7.000   5.280  0.1197 -1.1925  0.4213
 9525SOL     OW31466   7.677   3.558   3.951  0.0464 -0.1328 -0.1254
 9525SOL    HW131467   7.752   3.534   4.004 -0.2776 -1.2311 -0.1364
 9525SOL    HW231468   7.619   3.606   4.010 -0.1901 -1.1145  0.4546
 9526SOL     OW31469   3.692   4.896   5.040  0.0251  0.1235 -0.1212
 9526SOL    HW131470   3.694   4.803   5.063 -2.5713 -0.2497 -1.1213
 9526SOL    HW231471   3.702   4.898   4.945 -1.0784  0.7697 -0.2395
 9527SOL     OW31472   7.062   3.403   5.301  0.3757 -0.2889 -0.2804
 9527SOL    HW131473   6.979   3.447   5.282  0.2207 -1.0874 -1.6315
 9527SOL    HW231474   7.085   3.359   5.219  1.9506 -0.4006  0.1858
 9528SOL     OW31475   8.019   9.220   4.512 -0.1582  0.0071 -0.0371
 9528SOL    HW131476   7.944   9.215   4.452  0.9059 -1.0689 -1.3644
 9528SOL    HW231477   8.064   9.137   4.500  1.1450  0.5510  0.8803
 9529SOL     OW31478   7.685   0.223   8.708 -0.7231  0.3553  0.4390
 9529SOL    HW131479   7.706   0.313   8.732  2.3247  0.0725 -0.6947
 9529SOL    HW231480   7.655   0.228   8.617  0.3660  0.1810  0.0536
 9530SOL     OW31481   4.039   8.345   7.677  0.7254  0.1505  0.2421
 9530SOL    HW131482   4.126   8.348   7.716  0.3149  0.3992  1.1802
 9530SOL    HW231483   4.015   8.437   7.664  1.3541  0.0765 -1.8250
 9531SOL     OW31484   2.033   0.929   5.758  0.0971  0.4228 -0.2163
 9531SOL    HW131485   2.090   0.854   5.773 -2.1304 -1.1884  0.6606
 9531SOL    HW231486   1.976   0.902   5.686 -0.1860  1.6377 -0.4795
 9532SOL     OW31487   3.538   0.656   8.276 -0.2777 -0.2820 -0.2089
 9532SOL    HW131488   3.592   0.578   8.269 -0.1334 -0.6230  3.1843
 9532SOL    HW231489   3.500   0.652   8.364 -1.2454  2.8575 -0.3399
 9533SOL     OW31490   9.067   7.682   8.897 -0.0717 -0.1925 -0.1653
 9533SOL    HW131491   9.114   7.746   8.844 -1.3708  0.5237 -0.4978
 9533SOL    HW231492   8.975   7.697   8.877 -0.6224  0.0260  2.2061
 9534SOL     OW31493   1.670   7.688   1.987 -0.0613 -0.0794  0.2456
 9534SOL    HW131494   1.670   7.602   1.945 -0.1766 -0.5845  1.2502
 9534SOL    HW231495   1.759   7.699   2.019  0.1933  0.5783 -0.6457
 9535SOL     OW31496   4.436   6.217   6.273 -0.4937 -0.4178 -0.3762
 9535SOL    HW131497   4.381   6.289   6.303  1.1747  1.0092 -0.5952
 9535SOL    HW231498   4.491   6.255   6.205  1.4636 -1.4832  0.5255
 9536SOL     OW31499   5.959   7.523   4.431 -0.4852 -0.0752  0.1480
 9536SOL    HW131500   6.053   7.518   4.452 -0.8213  0.8761  2.1983
 9536SOL    HW231501   5.916   7.509   4.516 -2.2826 -1.9447 -0.9756
 9537SOL     OW31502   1.175   1.090   2.662 -0.1513  0.0523 -0.2390
 9537SOL    HW131503   1.256   1.082   2.713 -0.0686  0.5348 -0.2911
 9537SOL    HW231504   1.203   1.086   2.571  0.3189  3.7919 -0.4294
 9538SOL     OW31505   2.086   0.432   5.804  0.2709  0.6422 -0.3405
 9538SOL    HW131506   2.165   0.411   5.753 -0.2076  1.7965 -1.6049
 9538SOL    HW231507   2.016   0.383   5.761  0.1233  0.3992  0.1714
 9539SOL     OW31508   1.681   1.374   9.023  0.0872 -0.3216  0.1151
 9539SOL    HW131509   1.673   1.469   9.013 -0.7943 -0.3309  0.6461
 9539SOL    HW231510   1.595   1.346   9.056  0.1538 -1.3749 -0.5644
 9540SOL     OW31511   4.260   4.657   1.191 -0.1106 -0.0085 -0.4743
 9540SOL    HW131512   4.238   4.702   1.109  2.8941  1.3473 -0.6829
 9540SOL    HW231513   4.312   4.720   1.240  2.3780 -2.4315  0.2557
 9541SOL     OW31514   3.248   6.174   0.243  0.0874 -0.0266  0.3250
 9541SOL    HW131515   3.200   6.249   0.280 -1.0530 -0.5074 -0.1320
 9541SOL    HW231516   3.181   6.124   0.197  0.8841 -1.2001  0.4137
 9542SOL     OW31517   4.416   2.470   1.702  0.4464 -0.0157 -0.8300
 9542SOL    HW131518   4.347   2.491   1.764  0.4508  1.4638 -1.2766
 9542SOL    HW231519   4.384   2.393   1.654 -0.2710 -0.1703 -0.1172
 9543SOL     OW31520   5.683   4.900   4.282 -0.4450  0.9655 -0.1980
 9543SOL    HW131521   5.657   4.811   4.303 -0.6214  1.0509 -0.0482
 9543SOL    HW231522   5.665   4.909   4.188  0.0310  0.6893 -0.3150
 9544SOL     OW31523   0.413   4.034   2.536  0.6372  0.4590  0.1456
 9544SOL    HW131524   0.461   3.952   2.549 -0.8164 -0.4121  0.1755
 9544SOL    HW231525   0.333   4.023   2.587 -1.1995  0.4574 -2.5243
 9545SOL     OW31526   7.902   8.619   1.560  0.1274  0.0118  0.0680
 9545SOL    HW131527   7.879   8.609   1.652 -1.9468 -3.1665 -0.6482
 9545SOL    HW231528   7.973   8.556   1.546  0.2895  0.3304 -0.5601
 9546SOL     OW31529   6.916   3.049   6.967 -0.4079 -0.6413  0.3125
 9546SOL    HW131530   6.865   3.093   7.035 -0.6899 -0.3512 -0.0826
 9546SOL    HW231531   6.931   3.116   6.900  1.0945 -0.5234  0.7325
 9547SOL     OW31532   8.886   6.739   3.632 -0.3353  0.0367  0.0231
 9547SOL    HW131533   8.976   6.708   3.620 -1.0510 -2.2326  0.0032
 9547SOL    HW231534   8.894   6.814   3.691  1.6014  0.1572 -0.3242
 9548SOL     OW31535   4.838   1.198   3.261 -0.6971 -0.4924  0.4234
 9548SOL    HW131536   4.773   1.264   3.287 -0.7327 -0.0377 -0.7423
 9548SOL    HW231537   4.787   1.131   3.215 -0.4789 -0.6612  0.4247
 9549SOL     OW31538   4.445   3.089   1.045  0.2197 -0.1578 -0.5087
 9549SOL    HW131539   4.502   3.027   0.999 -3.2796 -3.5229 -0.8460
 9549SOL    HW231540   4.412   3.147   0.976  3.7634  2.6797 -0.1462
 9550SOL     OW31541   3.152   5.128   7.261 -0.8019 -0.0404 -0.4917
 9550SOL    HW131542   3.220   5.194   7.247 -1.5862  0.4201 -2.3850
 9550SOL    HW231543   3.198   5.044   7.249 -0.0022  0.1372  1.0342
 9551SOL     OW31544   5.391   6.583   5.105 -0.6238 -0.1605  0.0779
 9551SOL    HW131545   5.424   6.623   5.024  0.5498  0.7806  0.9875
 9551SOL    HW231546   5.388   6.489   5.087 -1.4195  0.1188 -1.4044
 9552SOL     OW31547   4.547   5.344   2.135 -0.1683  0.6059  0.0061
 9552SOL    HW131548   4.475   5.397   2.103 -1.8905 -1.4677  0.2140
 9552SOL    HW231549   4.536   5.259   2.092  1.0569 -0.3321  1.4124
 9553SOL     OW31550   3.628   8.520   2.052  0.1203  0.0282 -0.0359
 9553SOL    HW131551   3.610   8.535   1.960  1.5171 -1.9748 -0.6979
 9553SOL    HW231552   3.604   8.429   2.067 -1.2395  0.6456  1.9236
 9554SOL     OW31553   5.774   7.924   3.056  0.0454 -0.1515  0.1526
 9554SOL    HW131554   5.846   7.864   3.075 -0.0846 -1.1514 -2.1098
 9554SOL    HW231555   5.696   7.869   3.060 -0.1951  0.0879 -0.8158
 9555SOL     OW31556   2.106   1.799   0.451 -0.2184 -0.3529  0.1093
 9555SOL    HW131557   2.023   1.755   0.434 -0.1636 -0.1555 -0.6913
 9555SOL    HW231558   2.090   1.890   0.429  0.7274 -0.6219 -1.8941
 9556SOL     OW31559   2.263   3.208   2.653 -0.2573  0.0213 -0.1436
 9556SOL    HW131560   2.255   3.154   2.732 -1.8112  0.8367  0.3142
 9556SOL    HW231561   2.185   3.264   2.655 -0.3743  0.0218 -2.3119
 9557SOL     OW31562   4.926   3.568   6.150 -0.1458  0.2510  0.0699
 9557SOL    HW131563   4.851   3.561   6.209 -1.3328  0.2409 -1.3716
 9557SOL    HW231564   4.975   3.486   6.164  0.4586  0.9102  2.0917
 9558SOL     OW31565   3.869   6.618   6.629 -0.5458 -0.4968  0.2186
 9558SOL    HW131566   3.792   6.674   6.640 -0.6567 -0.6846  0.3939
 9558SOL    HW231567   3.924   6.666   6.567  0.0982  0.6024  1.5786
 9559SOL     OW31568   1.980   3.676   3.897  0.1185 -0.3738 -0.2640
 9559SOL    HW131569   2.066   3.671   3.855 -0.5250 -1.5244 -1.5248
 9559SOL    HW231570   1.993   3.638   3.984  1.6442  2.7274  1.0172
 9560SOL     OW31571   4.083   5.049   8.644  0.1673 -0.0419  0.4660
 9560SOL    HW131572   4.066   5.079   8.555 -0.6330  0.5923  0.8117
 9560SOL    HW231573   4.109   5.129   8.691 -2.7793  0.3797  1.5993
 9561SOL     OW31574   2.572   4.676   3.398  0.1651  0.7368 -0.0557
 9561SOL    HW131575   2.491   4.686   3.448  1.1134  1.2953  1.4586
 9561SOL    HW231576   2.623   4.755   3.419  0.3688  1.3126 -2.4527
 9562SOL     OW31577   4.098   1.431   6.381  0.4728 -0.1448 -0.8020
 9562SOL    HW131578   4.165   1.365   6.394  0.5334 -0.0511 -0.6359
 9562SOL    HW231579   4.118   1.469   6.295  0.6611 -0.0825 -0.7302
 9563SOL     OW31580   0.250   1.559   3.366  0.4448  0.1402  0.8087
 9563SOL    HW131581   0.249   1.600   3.280 -0.0485  0.2716  0.8711
 9563SOL    HW231582   0.169   1.589   3.408  0.5716 -0.0946  1.2351
 9564SOL     OW31583   7.332   7.931   0.123 -0.2768 -0.2297  0.1636
 9564SOL    HW131584   7.401   7.867   0.109 -0.9876 -1.0533  0.2985
 9564SOL    HW231585   7.255   7.878   0.146 -0.8315  0.6850  0.4660
 9565SOL     OW31586   2.196   0.154   4.509 -0.6102  0.2041 -0.3443
 9565SOL    HW131587   2.250   0.190   4.438  0.4650 -0.5735  0.0581
 9565SOL    HW231588   2.178   0.229   4.565 -1.6002  0.8626 -1.4986
 9566SOL     OW31589   6.126   1.322   6.188  0.5088 -0.4747  0.1076
 9566SOL    HW131590   6.177   1.253   6.231  0.8354 -0.1420  0.2631
 9566SOL    HW231591   6.042   1.322   6.234  0.4457 -0.8747 -0.0011
 9567SOL     OW31592   3.812   5.024   1.763 -0.4629  0.5978 -0.6295
 9567SOL    HW131593   3.788   5.080   1.836 -1.2676 -0.0413 -0.3872
 9567SOL    HW231594   3.896   4.986   1.788 -1.2458 -0.4743  0.4988
 9568SOL     OW31595   2.444   3.436   4.838 -0.0463  0.3093  0.2931
 9568SOL    HW131596   2.484   3.379   4.905 -0.2607  0.2559  0.3762
 9568SOL    HW231597   2.448   3.384   4.758  0.4275  0.4663  0.2119
 9569SOL     OW31598   1.353   4.049   0.417  0.0033  0.2591 -0.3821
 9569SOL    HW131599   1.346   4.086   0.505 -0.1285  0.1321 -0.3398
 9569SOL    HW231600   1.330   4.121   0.359 -0.7411  0.1088 -0.2811
 9570SOL     OW31601   4.875   6.162   0.292 -0.7892 -0.1308  0.4639
 9570SOL    HW131602   4.843   6.194   0.208  1.8371  0.2536 -0.4937
 9570SOL    HW231603   4.927   6.235   0.327 -2.2720 -0.0592  2.7576
 9571SOL     OW31604   6.748   1.135   9.084 -0.1155 -0.1550 -0.4104
 9571SOL    HW131605   6.777   1.194   9.016 -0.7160 -0.5618 -1.0344
 9571SOL    HW231606   6.703   1.064   9.037 -1.1262 -0.0989  0.4428
 9572SOL     OW31607   0.364   2.006   3.652 -0.2353 -0.4011  0.2388
 9572SOL    HW131608   0.291   1.961   3.612 -0.2860 -0.5089  0.4487
 9572SOL    HW231609   0.324   2.064   3.717 -0.1627 -0.1450  0.0589
 9573SOL     OW31610   5.187   5.929   8.125 -0.0988 -0.1475 -0.0239
 9573SOL    HW131611   5.240   5.877   8.065  1.4117  1.3886 -0.0911
 9573SOL    HW231612   5.247   5.956   8.194 -1.0332  0.7816  0.4561
 9574SOL     OW31613   3.854   5.298   8.204  0.2368  0.2242 -0.0691
 9574SOL    HW131614   3.934   5.329   8.161 -1.3724  1.7964 -2.1561
 9574SOL    HW231615   3.794   5.373   8.201 -1.1290 -0.6609  2.0741
 9575SOL     OW31616   9.218   6.225   2.634  0.4137  0.1810  0.0236
 9575SOL    HW131617   9.139   6.198   2.588 -0.9133  0.0070  2.2634
 9575SOL    HW231618   9.195   6.309   2.675  1.7240  0.6127 -0.0643
 9576SOL     OW31619   1.569   6.272   0.867 -0.7026 -0.5408  0.0954
 9576SOL    HW131620   1.586   6.216   0.942 -1.6635  0.5385  1.1527
 9576SOL    HW231621   1.591   6.360   0.897 -2.0107  0.0324 -0.5640
 9577SOL     OW31622   8.574   8.042   4.112  0.6412 -0.5105 -0.1415
 9577SOL    HW131623   8.665   8.052   4.139  0.7872 -2.0575  0.0441
 9577SOL    HW231624   8.562   8.107   4.043  1.7472  0.0101  0.1297
 9578SOL     OW31625   1.839   3.541   5.488 -0.0797 -0.7073  0.0822
 9578SOL    HW131626   1.920   3.502   5.456  1.1568  1.9398 -0.2119
 9578SOL    HW231627   1.821   3.495   5.570 -0.4104 -3.9267 -1.6368
 9579SOL     OW31628   2.694   0.248   1.097  0.1086  0.7447  0.4805
 9579SOL    HW131629   2.618   0.269   1.044  0.4773 -1.4003 -1.0196
 9579SOL    HW231630   2.670   0.274   1.186 -2.0964  0.7043 -0.0606
 9580SOL     OW31631   0.229   7.023   1.889 -0.2920 -0.3657 -0.1952
 9580SOL    HW131632   0.150   6.997   1.937 -1.6355  1.9604 -1.0078
 9580SOL    HW231633   0.206   7.012   1.797  0.3033  0.3819 -0.4419
 9581SOL     OW31634   6.690   4.703   2.477 -0.4873  0.1110 -0.5924
 9581SOL    HW131635   6.769   4.738   2.434 -0.6674 -1.5577 -2.4209
 9581SOL    HW231636   6.646   4.781   2.511  2.4243  1.0181  1.4653
 9582SOL     OW31637   7.588   8.874   6.111  0.1281  0.0587  0.5534
 9582SOL    HW131638   7.499   8.839   6.109 -0.3124  1.1756 -0.3441
 9582SOL    HW231639   7.599   8.906   6.200  0.9165 -3.1677  1.7411
 9583SOL     OW31640   7.986   8.003   3.315  0.0947  0.2924  0.4814
 9583SOL    HW131641   7.897   7.994   3.348  0.6215 -3.1919  1.3807
 9583SOL    HW231642   7.980   7.980   3.222  0.1152 -0.7603  0.7253
 9584SOL     OW31643   3.980   4.869   7.153 -0.2631  0.2049  0.0107
 9584SOL    HW131644   3.995   4.881   7.247  2.0130  0.6991 -0.3614
 9584SOL    HW231645   3.888   4.892   7.140 -0.5010  0.5453  2.0421
 9585SOL     OW31646   4.994   7.392   3.560 -0.0103  0.1309 -0.1219
 9585SOL    HW131647   5.004   7.367   3.468 -1.6521 -1.1323 -0.0108
 9585SOL    HW231648   5.056   7.336   3.607  0.0363 -0.0153 -0.3559
 9586SOL     OW31649   2.862   3.817   0.962 -0.1328  0.5049 -0.2308
 9586SOL    HW131650   2.899   3.902   0.985 -0.0342  0.7649 -1.2655
 9586SOL    HW231651   2.780   3.812   1.011  0.4290  0.6792  0.7450
 9587SOL     OW31652   8.443   7.388   2.358  0.3980 -0.0175 -0.4575
 9587SOL    HW131653   8.479   7.468   2.322  0.9494  0.1031  0.3376
 9587SOL    HW231654   8.420   7.410   2.448  0.9011 -0.8480 -0.1122
 9588SOL     OW31655   2.465   0.858   1.568 -0.1433 -0.6269  0.0335
 9588SOL    HW131656   2.408   0.833   1.495  0.2833 -0.3137 -0.4118
 9588SOL    HW231657   2.405   0.894   1.633 -0.6837 -2.0196  0.3607
 9589SOL     OW31658   9.134   0.678   0.890  0.1581  0.5169  0.0870
 9589SOL    HW131659   9.122   0.738   0.816  1.1328 -1.6188 -1.9775
 9589SOL    HW231660   9.216   0.632   0.869 -1.2616 -2.5289  0.7145
 9590SOL     OW31661   5.396   1.348   7.246 -0.3144 -0.1218  0.4875
 9590SOL    HW131662   5.392   1.292   7.323  0.2002 -1.7768 -0.6276
 9590SOL    HW231663   5.353   1.297   7.177  2.0719 -0.1246 -1.1123
 9591SOL     OW31664   4.867   8.500   3.378  0.3635 -0.9760 -0.4487
 9591SOL    HW131665   4.956   8.532   3.369 -0.2992  1.4162  0.5739
 9591SOL    HW231666   4.865   8.460   3.465  0.2476 -0.2787 -0.1264
 9592SOL     OW31667   4.806   7.239   1.706  0.9686 -0.0463  0.0794
 9592SOL    HW131668   4.796   7.185   1.627  1.5329 -1.0585  0.6886
 9592SOL    HW231669   4.750   7.198   1.771  0.6346  0.6925  0.2746
 9593SOL     OW31670   7.681   2.755   3.502 -0.2951  0.1232 -0.4488
 9593SOL    HW131671   7.763   2.802   3.489 -0.4647  0.3344 -0.7532
 9593SOL    HW231672   7.654   2.728   3.415  0.8128 -2.2935 -0.1343
 9594SOL     OW31673   1.179   2.635   0.886  0.3038  0.2335  0.2666
 9594SOL    HW131674   1.186   2.547   0.846  1.5711  0.0515  0.8468
 9594SOL    HW231675   1.112   2.679   0.834 -0.3091 -1.0639 -0.0794
 9595SOL     OW31676   6.111   4.242   6.903 -0.0218  0.0071  0.1769
 9595SOL    HW131677   6.032   4.231   6.850 -1.6001 -2.8972  2.8221
 9595SOL    HW231678   6.078   4.262   6.991  2.2950  0.2437  1.0646
 9596SOL     OW31679   0.082   5.981   2.666  0.2843  0.4281  0.1026
 9596SOL    HW131680   0.055   6.072   2.654 -0.8190  0.1471  0.4166
 9596SOL    HW231681   0.174   5.987   2.692 -0.3535  1.5900  2.3473
 9597SOL     OW31682   8.324   8.872   0.174  0.1182  0.1875  0.0680
 9597SOL    HW131683   8.342   8.800   0.234 -1.0753  0.2673  0.5361
 9597SOL    HW231684   8.367   8.846   0.092  3.5334  1.0014  1.4290
 9598SOL     OW31685   3.770   7.585   8.843  0.4100 -0.3295  0.1421
 9598SOL    HW131686   3.746   7.512   8.900  1.5830  0.2352  1.4138
 9598SOL    HW231687   3.719   7.659   8.876  2.1994  0.3650  1.5030
 9599SOL     OW31688   4.727   9.061   2.975 -0.0287  0.3538  0.7090
 9599SOL    HW131689   4.756   9.047   2.885  2.2089  0.3651  1.3782
 9599SOL    HW231690   4.634   9.082   2.967 -0.4975 -2.0842 -1.3753
 9600SOL     OW31691   1.647   3.950   5.499  0.0839 -0.2420  0.2516
 9600SOL    HW131692   1.613   3.998   5.424  3.3828 -0.6659 -1.7075
 9600SOL    HW231693   1.608   3.863   5.491 -2.3850  0.6896  1.2209
 9601SOL     OW31694   0.986   0.596   8.113  0.2065  0.2257  0.1135
 9601SOL    HW131695   0.955   0.661   8.049 -0.9459 -1.3737 -1.0366
 9601SOL    HW231696   0.926   0.522   8.103 -0.1982 -0.0333  3.2579
 9602SOL     OW31697   4.306   4.545   6.622  0.0050 -0.3304 -0.0281
 9602SOL    HW131698   4.237   4.608   6.603  1.5544  1.7327  0.8209
 9602SOL    HW231699   4.274   4.496   6.698 -1.0162 -0.2552 -0.3987
 9603SOL     OW31700   8.912   4.640   5.280  0.4602 -0.2894  0.3159
 9603SOL    HW131701   8.997   4.632   5.237  0.5518  0.4221  0.3664
 9603SOL    HW231702   8.851   4.664   5.211  0.3298 -0.6035  0.3168
 9604SOL     OW31703   1.118   8.741   6.761  0.3368 -0.0156 -0.4402
 9604SOL    HW131704   1.099   8.831   6.734  0.9359  0.1883 -0.1905
 9604SOL    HW231705   1.156   8.700   6.684 -1.9991 -0.7361 -1.2856
 9605SOL     OW31706   5.094   1.562   0.423  0.1129 -0.2611 -0.1887
 9605SOL    HW131707   5.128   1.640   0.380  0.0934  0.6208  1.3126
 9605SOL    HW231708   5.008   1.548   0.384 -0.8932  1.8685  1.1100
 9606SOL     OW31709   6.493   9.081   0.072 -0.0272 -0.0488  0.0321
 9606SOL    HW131710   6.527   9.014   0.130  1.0731  0.8168  0.4377
 9606SOL    HW231711   6.425   9.038   0.021  0.0048 -1.2015  0.9425
 9607SOL     OW31712   7.073   8.287   3.525 -0.3729  0.1855 -0.2295
 9607SOL    HW131713   7.110   8.293   3.613 -2.2741  0.7204  0.5985
 9607SOL    HW231714   7.119   8.354   3.475  0.6017  0.0033  0.3948
 9608SOL     OW31715   7.997   0.610   4.234  0.1206 -0.2713  0.2048
 9608SOL    HW131716   7.952   0.652   4.307 -0.1202  0.0188 -0.1078
 9608SOL    HW231717   8.065   0.557   4.276 -0.9326 -1.2553  0.7232
 9609SOL     OW31718   2.032   5.434   4.341  0.2130  0.0061  0.2458
 9609SOL    HW131719   1.971   5.361   4.354 -0.0660  0.0866 -0.5543
 9609SOL    HW231720   2.016   5.492   4.415  0.0327 -0.4626  0.5837
 9610SOL     OW31721   2.817   2.018   0.366  0.2314  0.4048  0.5218
 9610SOL    HW131722   2.724   2.010   0.388 -0.1113  2.1575 -0.1193
 9610SOL    HW231723   2.854   1.932   0.386 -1.4397 -0.2033  1.1776
 9611SOL     OW31724   6.405   0.519   2.575  0.8874 -0.5494 -0.1705
 9611SOL    HW131725   6.365   0.566   2.649 -0.5583  0.5087 -1.5396
 9611SOL    HW231726   6.499   0.530   2.588  0.6284  2.1156  0.0158
 9612SOL     OW31727   3.254   5.983   7.070  0.2051 -0.0841 -0.5874
 9612SOL    HW131728   3.268   6.069   7.111 -0.6650 -0.5179  0.6993
 9612SOL    HW231729   3.269   5.998   6.977  0.9628  1.2553 -0.2774
 9613SOL     OW31730   4.777   7.879   4.505 -0.2044 -0.3932  0.0202
 9613SOL    HW131731   4.862   7.910   4.474 -0.2895 -1.9590 -2.0131
 9613SOL    HW231732   4.718   7.896   4.432 -0.6161 -3.4539 -0.4789
 9614SOL     OW31733   3.099   2.516   0.494  0.2060 -0.1630  0.0763
 9614SOL    HW131734   3.135   2.439   0.537  0.3767 -0.1681 -0.0761
 9614SOL    HW231735   3.095   2.492   0.401  1.5140  0.4993 -0.1629
 9615SOL     OW31736   6.513   6.927   4.596  0.1071  0.1064 -0.0644
 9615SOL    HW131737   6.564   6.863   4.546 -1.6739 -0.7267 -0.9009
 9615SOL    HW231738   6.531   6.907   4.687  0.5976 -0.7289 -0.3360
 9616SOL     OW31739   7.115   6.327   9.202 -0.5057 -0.5908  0.1592
 9616SOL    HW131740   7.131   6.332   9.107  1.9195 -1.7530  0.4115
 9616SOL    HW231741   7.176   6.260   9.232  0.1963  1.0914  2.8185
 9617SOL     OW31742   3.337   0.071   1.078 -0.1262  0.0301 -0.3856
 9617SOL    HW131743   3.312   0.069   1.171  1.6133  0.1652  0.1162
 9617SOL    HW231744   3.361  -0.019   1.058  0.8598  0.2603 -0.2913
 9618SOL     OW31745   4.810   1.609   1.925 -0.5165  0.4797 -0.7395
 9618SOL    HW131746   4.771   1.522   1.936  1.1289 -0.3553 -1.1167
 9618SOL    HW231747   4.875   1.615   1.995  0.6330  0.6463 -1.7879
 9619SOL     OW31748   2.439   4.977   1.995 -0.3849 -0.2800 -0.2264
 9619SOL    HW131749   2.370   4.986   2.061  0.6404  0.2632  0.8265
 9619SOL    HW231750   2.508   4.928   2.040  1.2912  2.0607 -0.0661
 9620SOL     OW31751   1.021   4.610   0.775 -0.5632  0.3394  0.3168
 9620SOL    HW131752   0.963   4.650   0.840 -1.6774 -0.0632 -0.4027
 9620SOL    HW231753   1.014   4.668   0.699  0.7296  0.8048  0.5323
 9621SOL     OW31754   6.028   8.558   3.094  0.2707  0.1177  0.1873
 9621SOL    HW131755   5.961   8.492   3.110  0.7486 -0.1903  0.9781
 9621SOL    HW231756   6.109   8.519   3.129  0.3328  1.6564  1.9079
 9622SOL     OW31757   4.525   4.694   8.726 -0.1019 -0.6593  0.1514
 9622SOL    HW131758   4.558   4.605   8.739  1.7049  0.1324  1.4073
 9622SOL    HW231759   4.508   4.726   8.815  1.2130  0.9042 -0.1110
 9623SOL     OW31760   8.855   8.347   5.821 -0.0238 -0.1954  0.6218
 9623SOL    HW131761   8.762   8.363   5.833 -0.0639 -0.6007  0.8622
 9623SOL    HW231762   8.871   8.263   5.864  0.4091 -0.2354  0.3930
 9624SOL     OW31763   9.177   4.384   2.941 -0.0663 -0.5911 -0.4785
 9624SOL    HW131764   9.182   4.345   3.028 -0.0232 -1.4480 -0.8552
 9624SOL    HW231765   9.249   4.447   2.939 -0.0526 -0.5836  0.0995
 9625SOL     OW31766   3.505   7.640   5.344 -0.5986  0.5919  0.1166
 9625SOL    HW131767   3.503   7.725   5.388 -0.1153  0.4620  0.3957
 9625SOL    HW231768   3.457   7.654   5.262 -0.6988  1.0788  0.2568
 9626SOL     OW31769   6.016   4.723   6.887  0.8323 -0.5817 -1.2920
 9626SOL    HW131770   5.975   4.652   6.838  1.3395 -0.1838 -2.3290
 9626SOL    HW231771   6.100   4.686   6.916  0.1082 -1.1430  0.1658
 9627SOL     OW31772   3.801   3.704   6.684 -0.0228 -0.4132 -0.1521
 9627SOL    HW131773   3.839   3.638   6.625  1.3182 -0.1239  0.3362
 9627SOL    HW231774   3.840   3.685   6.769 -0.2316  0.5187  0.1670
 9628SOL     OW31775   6.248   3.420   3.351  0.6530  0.1835 -0.6098
 9628SOL    HW131776   6.288   3.503   3.327  0.2255  0.1959 -1.2904
 9628SOL    HW231777   6.156   3.429   3.327  0.2493  0.1160  0.8542
 9629SOL     OW31778   6.475   2.838   8.173  0.3647  0.0244 -0.6770
 9629SOL    HW131779   6.475   2.838   8.269 -0.2781  2.3028 -0.6077
 9629SOL    HW231780   6.460   2.747   8.149  0.9805 -0.6827  1.3652
 9630SOL     OW31781   8.630   6.568   3.887 -0.1367  0.6103  0.0412
 9630SOL    HW131782   8.628   6.506   3.960  1.7887  0.6795  0.2145
 9630SOL    HW231783   8.653   6.652   3.928 -0.0929  0.8762 -0.5248
 9631SOL     OW31784   5.879   1.604   8.355 -0.0556 -0.5673 -0.1333
 9631SOL    HW131785   5.934   1.661   8.408  0.0821 -1.1569  0.3693
 9631SOL    HW231786   5.803   1.586   8.410  0.5079 -1.9114  0.2534
 9632SOL     OW31787   7.893   4.690   0.728  0.5787 -0.4643  0.0103
 9632SOL    HW131788   7.818   4.722   0.677  0.7900  1.0585  0.6184
 9632SOL    HW231789   7.962   4.675   0.663  1.2058  2.4784 -0.1394
 9633SOL     OW31790   2.995   0.961   1.732 -0.0381 -0.0868 -0.1445
 9633SOL    HW131791   2.938   0.959   1.809 -0.7130  2.3610 -0.4738
 9633SOL    HW231792   3.065   0.900   1.752 -1.8624 -1.9172  1.0297
 9634SOL     OW31793   1.475   3.957   8.391  0.5498 -0.2595 -0.2986
 9634SOL    HW131794   1.481   3.866   8.360 -1.8799 -0.8695  0.7856
 9634SOL    HW231795   1.498   3.953   8.483 -0.4235  0.0317 -0.0270
 9635SOL     OW31796   4.840   8.770   4.294 -0.4471 -0.1058 -0.4808
 9635SOL    HW131797   4.862   8.688   4.250  0.2640 -1.0354  1.4625
 9635SOL    HW231798   4.756   8.753   4.336 -0.8136  0.5428 -0.9280
 9636SOL     OW31799   0.904   3.342   6.702  0.0632  0.1126  0.3635
 9636SOL    HW131800   0.973   3.373   6.761 -0.8352 -0.1834  1.6367
 9636SOL    HW231801   0.837   3.307   6.761 -0.6642 -0.6614 -0.8787
 9637SOL     OW31802   0.687   1.825   6.193 -0.4650  0.0774 -0.2699
 9637SOL    HW131803   0.763   1.869   6.230 -0.7420  1.9459 -1.7759
 9637SOL    HW231804   0.612   1.864   6.239 -0.6835  0.8985 -1.2830
 9638SOL     OW31805   7.561   2.546   0.510  0.3339  0.4019  0.0747
 9638SOL    HW131806   7.589   2.455   0.499 -0.5920  0.0668  0.4141
 9638SOL    HW231807   7.478   2.540   0.557  0.6269  1.4590  0.7530
 9639SOL     OW31808   5.193   3.386   6.698 -0.0846 -0.3321 -0.5440
 9639SOL    HW131809   5.162   3.474   6.675  0.2692  0.4916  1.7858
 9639SOL    HW231810   5.283   3.400   6.726  0.5572 -1.7706 -1.7800
 9640SOL     OW31811   3.329   7.980   0.446  0.2379 -0.3404  0.0818
 9640SOL    HW131812   3.320   8.067   0.407  2.3560  0.4599  1.2010
 9640SOL    HW231813   3.353   7.924   0.372 -2.6114 -0.3878 -0.9336
 9641SOL     OW31814   4.898   3.462   2.971  0.1016  0.0481  0.1769
 9641SOL    HW131815   4.929   3.433   3.057 -1.1040  0.2078  0.6824
 9641SOL    HW231816   4.807   3.489   2.985 -0.2981 -0.4136 -1.2486
 9642SOL     OW31817   2.813   2.542   4.731 -0.6292 -0.5640  0.5832
 9642SOL    HW131818   2.823   2.631   4.698  0.5236 -0.5634  0.8903
 9642SOL    HW231819   2.718   2.531   4.744 -0.6953  1.0895  1.8543
 9643SOL     OW31820   7.385   1.983   5.277  0.0845  0.5785  0.4814
 9643SOL    HW131821   7.339   2.050   5.327  0.9908  1.9612 -0.4517
 9643SOL    HW231822   7.390   2.018   5.188  1.5509 -0.2085  0.2058
 9644SOL     OW31823   3.041   2.869   7.076 -0.0765  0.9676  0.0192
 9644SOL    HW131824   2.996   2.845   7.157 -0.3260 -0.7770 -0.5857
 9644SOL    HW231825   3.046   2.787   7.026  2.7997  1.3273 -0.4304
 9645SOL     OW31826   0.593   1.044   0.242 -0.2424  0.4680  0.6497
 9645SOL    HW131827   0.608   0.959   0.200 -0.7694  1.4365 -1.6301
 9645SOL    HW231828   0.642   1.106   0.189 -1.1604  1.8010  1.3092
 9646SOL     OW31829   4.687   8.204   0.066 -0.4507  0.0400  0.7178
 9646SOL    HW131830   4.766   8.259   0.064 -0.0870 -0.4521  1.4559
 9646SOL    HW231831   4.637   8.236   0.141  0.7767 -1.9853  2.5180
 9647SOL     OW31832   7.551   1.725   0.639  1.0710 -0.3921 -0.0104
 9647SOL    HW131833   7.628   1.693   0.687  0.9822  0.0541  0.4398
 9647SOL    HW231834   7.491   1.755   0.708  0.9855  0.3693 -0.4050
 9648SOL     OW31835   3.237   5.506   3.788  0.1221  0.5014 -0.3261
 9648SOL    HW131836   3.318   5.529   3.744  0.8654 -1.2485  0.0709
 9648SOL    HW231837   3.246   5.543   3.876  1.2827 -1.1717  0.2912
 9649SOL     OW31838   4.989   7.891   4.766 -0.2723  0.4475  0.1824
 9649SOL    HW131839   4.974   7.985   4.763 -1.5372  0.2482 -1.0256
 9649SOL    HW231840   5.029   7.871   4.681  1.1638  0.0518  0.9233
 9650SOL     OW31841   2.038   4.609   6.436 -0.3613 -0.2959 -0.1436
 9650SOL    HW131842   1.949   4.630   6.465 -0.6293 -2.2260  0.5492
 9650SOL    HW231843   2.081   4.574   6.513  0.3219 -1.3764 -0.9910
 9651SOL     OW31844   1.855   7.887   1.034 -0.1441 -0.5693 -0.0982
 9651SOL    HW131845   1.912   7.941   0.978 -0.2697  1.2268  1.3919
 9651SOL    HW231846   1.879   7.913   1.123 -1.6332 -1.5719  0.6233
 9652SOL     OW31847   6.945   5.291   1.894  0.0036 -0.4857 -0.4321
 9652SOL    HW131848   6.946   5.347   1.972  0.2596  1.1631 -1.5649
 9652SOL    HW231849   6.874   5.326   1.840  0.6983 -0.7383 -1.5340
 9653SOL     OW31850   3.444   4.144   6.030 -0.0020 -0.3820 -0.1300
 9653SOL    HW131851   3.445   4.210   6.099 -0.8238 -0.3763 -0.1112
 9653SOL    HW231852   3.470   4.063   6.074  0.6232 -0.1573 -0.0717
 9654SOL     OW31853   8.575   4.405   7.871 -0.4333 -0.3963 -0.2897
 9654SOL    HW131854   8.515   4.477   7.853  1.8316  1.3015 -1.5216
 9654SOL    HW231855   8.663   4.442   7.859  0.9288 -2.7189  1.4846
 9655SOL     OW31856   3.895   5.176   4.095 -0.0280  0.4494 -0.2569
 9655SOL    HW131857   3.952   5.099   4.101 -0.9496 -0.3515 -1.2700
 9655SOL    HW231858   3.809   5.144   4.122 -0.4006  1.1486 -0.5881
 9656SOL     OW31859   6.472   0.784   3.126 -0.2410 -0.7398  0.2821
 9656SOL    HW131860   6.407   0.730   3.081 -0.7504  1.9708 -2.6042
 9656SOL    HW231861   6.423   0.862   3.152  0.9934 -0.5050  2.0282
 9657SOL     OW31862   3.696   1.631   2.855  0.6461 -0.3926  0.1012
 9657SOL    HW131863   3.623   1.672   2.809  0.5493 -1.7293 -1.0286
 9657SOL    HW231864   3.656   1.557   2.901  1.3673 -1.6263 -1.1829
 9658SOL     OW31865   6.927   3.539   4.563 -0.0777 -0.7027 -0.1318
 9658SOL    HW131866   6.879   3.616   4.530 -2.2568 -2.0022 -0.1921
 9658SOL    HW231867   7.019   3.567   4.563 -0.8017  2.0408  0.2608
 9659SOL     OW31868   2.311   0.229   0.048  0.0351 -0.2892  0.5124
 9659SOL    HW131869   2.394   0.234   0.001 -0.6960  1.0571 -0.7177
 9659SOL    HW231870   2.297   0.317   0.083 -2.1352  0.3461 -1.6515
 9660SOL     OW31871   7.015   0.660   7.101 -0.5474  0.1028  1.3618
 9660SOL    HW131872   6.955   0.732   7.082 -0.8135  0.0222  1.8855
 9660SOL    HW231873   6.973   0.612   7.173 -0.7194 -0.9856  0.5554
 9661SOL     OW31874   2.934   2.417   4.482  0.2187  0.3242  0.1129
 9661SOL    HW131875   2.926   2.444   4.390 -0.4695  0.2557  0.1488
 9661SOL    HW231876   2.865   2.466   4.527  0.3395  0.1020  0.5400
 9662SOL     OW31877   8.044   6.523   6.672 -0.2571  0.1896  0.5886
 9662SOL    HW131878   8.022   6.453   6.734 -0.1389 -0.2874  0.1027
 9662SOL    HW231879   8.131   6.552   6.700  0.5630 -1.2073 -0.3663
 9663SOL     OW31880   7.146   5.165   5.546  0.3013  0.4334 -0.7501
 9663SOL    HW131881   7.216   5.124   5.495  1.7366  1.4724  0.2896
 9663SOL    HW231882   7.145   5.256   5.516  1.9604  1.3861  1.6973
 9664SOL     OW31883   1.571   0.178   0.404  0.5666 -0.0672  0.0439
 9664SOL    HW131884   1.477   0.172   0.388  0.0727  0.2275  2.3848
 9664SOL    HW231885   1.587   0.115   0.475  1.4459  2.1844  2.0086
 9665SOL     OW31886   7.884   1.949   4.273  0.2256 -0.0949  0.5621
 9665SOL    HW131887   7.886   1.884   4.204 -0.0235  0.7536 -0.2654
 9665SOL    HW231888   7.863   1.900   4.352 -1.6183 -0.8083 -0.3119
 9666SOL     OW31889   1.393   7.073   0.368 -0.0795 -0.6152 -0.0231
 9666SOL    HW131890   1.344   7.019   0.429 -1.5755  1.5902  0.8676
 9666SOL    HW231891   1.456   7.121   0.422 -0.9509  0.8398 -0.2196
 9667SOL     OW31892   4.312   0.251   8.845  0.0994  0.4028  0.3085
 9667SOL    HW131893   4.395   0.291   8.868  1.4712 -2.6261  1.0988
 9667SOL    HW231894   4.261   0.252   8.927  1.5414 -2.4597  1.3728
 9668SOL     OW31895   7.136   6.553   5.353  0.4973 -0.1824 -0.4328
 9668SOL    HW131896   7.054   6.521   5.391  0.4827  1.8819  1.4706
 9668SOL    HW231897   7.110   6.597   5.272 -0.0421 -0.8577 -0.6370
 9669SOL     OW31898   6.524   4.520   8.837  0.0201 -0.1353  0.5491
 9669SOL    HW131899   6.586   4.462   8.880 -1.2142 -1.9524  0.0148
 9669SOL    HW231900   6.577   4.581   8.788  1.5290  1.9227  4.3368
 9670SOL     OW31901   7.758   2.531   0.917  0.1327  0.0971  0.2757
 9670SOL    HW131902   7.821   2.501   0.983  0.8374 -0.6641 -0.6987
 9670SOL    HW231903   7.715   2.451   0.887  0.4964  0.2972 -0.8319
 9671SOL     OW31904   5.498   0.115   7.092 -0.3977 -0.4899 -0.5272
 9671SOL    HW131905   5.412   0.126   7.051 -0.1461 -2.1454 -1.6313
 9671SOL    HW231906   5.560   0.147   7.026 -0.0939 -0.9572 -0.4762
 9672SOL     OW31907   2.493   0.172   5.337 -0.3097  0.0807  0.3128
 9672SOL    HW131908   2.534   0.140   5.256  1.3000 -0.9197  1.4592
 9672SOL    HW231909   2.547   0.135   5.407 -2.7961 -0.7503  1.9288
 9673SOL     OW31910   5.290   2.551   1.181 -0.2056  0.2226  0.4446
 9673SOL    HW131911   5.238   2.624   1.215 -0.7005  0.3120 -0.4527
 9673SOL    HW231912   5.284   2.483   1.248 -0.2048  0.8024  1.0362
 9674SOL     OW31913   9.179   7.562   2.169 -0.5613  0.5286  0.7612
 9674SOL    HW131914   9.126   7.636   2.198 -0.6680 -0.7010  4.1958
 9674SOL    HW231915   9.117   7.490   2.159  0.1451 -0.5930  3.5865
 9675SOL     OW31916   2.062   9.127   1.160  0.2136 -0.2892  0.1020
 9675SOL    HW131917   2.016   9.140   1.243  0.0257 -0.5887  0.0473
 9675SOL    HW231918   2.153   9.110   1.185  0.3423  0.4841  0.2040
 9676SOL     OW31919   1.509   5.145   1.376 -0.0903  0.8031 -0.1846
 9676SOL    HW131920   1.533   5.183   1.460 -0.6088  0.5893  0.0653
 9676SOL    HW231921   1.413   5.148   1.375 -0.2532 -1.7970  0.4647
 9677SOL     OW31922   4.534   1.801   7.810  0.5835 -0.0160  0.2511
 9677SOL    HW131923   4.566   1.863   7.744 -1.6426  0.4410 -0.4767
 9677SOL    HW231924   4.588   1.818   7.887  1.3256  1.4520 -0.5524
 9678SOL     OW31925   2.453   2.301   2.313 -0.3468  0.0713 -0.3269
 9678SOL    HW131926   2.545   2.295   2.284  0.8379  2.4734  2.4153
 9678SOL    HW231927   2.435   2.216   2.351  0.1272 -0.9954 -2.3341
 9679SOL     OW31928   2.115   2.068   0.358  0.1292 -0.3859  0.0556
 9679SOL    HW131929   2.189   2.057   0.298 -0.6268  1.0520 -1.2094
 9679SOL    HW231930   2.135   2.148   0.406 -2.0559  2.0127 -2.6887
 9680SOL     OW31931   8.850   7.440   0.886 -0.1372 -0.1075  0.7305
 9680SOL    HW131932   8.813   7.358   0.852 -0.3015  0.0663  0.4850
 9680SOL    HW231933   8.945   7.428   0.877 -0.1937  0.2536 -0.5880
 9681SOL     OW31934   2.641   6.124   0.744 -0.1671  0.0201 -0.2741
 9681SOL    HW131935   2.672   6.188   0.681 -0.2371 -1.2948 -1.7160
 9681SOL    HW231936   2.687   6.145   0.826  1.6923  0.3706 -1.3607
 9682SOL     OW31937   0.063   8.474   3.661  0.0846 -0.0994  0.6115
 9682SOL    HW131938   0.150   8.494   3.696  0.1598  0.1913  0.2640
 9682SOL    HW231939   0.051   8.381   3.678  0.5675 -0.1965  0.4324
 9683SOL     OW31940   3.684   3.054   3.301 -0.2979  0.4469 -0.2813
 9683SOL    HW131941   3.595   3.042   3.334 -0.3850 -0.5082 -0.8191
 9683SOL    HW231942   3.677   3.127   3.239 -1.2775 -1.1901 -2.2340
 9684SOL     OW31943   9.255   3.622   7.761 -0.2923 -0.0003  0.5283
 9684SOL    HW131944   9.276   3.529   7.754 -0.3686  0.0771 -0.9952
 9684SOL    HW231945   9.190   3.637   7.692  1.0886  1.5633 -0.4991
 9685SOL     OW31946   2.958   2.291   6.903 -0.2329 -0.3172 -0.3888
 9685SOL    HW131947   2.996   2.336   6.978 -0.3117 -0.7292 -0.1053
 9685SOL    HW231948   2.981   2.347   6.828  1.8920 -1.0918 -0.3956
 9686SOL     OW31949   4.272   7.219   7.988 -0.4696  0.0552  0.0951
 9686SOL    HW131950   4.255   7.186   7.900  1.8156 -1.0158 -0.0346
 9686SOL    HW231951   4.349   7.275   7.977 -1.0374  1.0786  1.2059
 9687SOL     OW31952   6.689   5.838   7.937  0.2731  0.6063  0.3108
 9687SOL    HW131953   6.661   5.913   7.989 -0.2933  0.4408  0.2464
 9687SOL    HW231954   6.612   5.782   7.932  0.6737  0.0473  0.3048
 9688SOL     OW31955   6.120   6.809   5.562 -0.2071 -0.0584  0.2485
 9688SOL    HW131956   6.216   6.807   5.566 -0.1643  0.4250 -0.3424
 9688SOL    HW231957   6.099   6.751   5.489 -0.3481  0.0308  0.2188
 9689SOL     OW31958   6.036   4.032   8.731  0.7502 -0.1463 -0.1055
 9689SOL    HW131959   5.947   4.027   8.767  0.4719 -0.2955 -0.8061
 9689SOL    HW231960   6.092   4.008   8.805  0.2632  0.7279  0.5660
 9690SOL     OW31961   5.172   0.727   0.371 -0.1558  0.0769 -0.4237
 9690SOL    HW131962   5.111   0.773   0.314 -0.9790  0.8816  1.0542
 9690SOL    HW231963   5.129   0.644   0.390 -0.6938  0.5451  0.4281
 9691SOL     OW31964   8.986   3.265   7.535  0.0645 -0.4697  0.4537
 9691SOL    HW131965   8.907   3.264   7.480 -0.1536  3.7821  0.4079
 9691SOL    HW231966   8.953   3.272   7.624  0.4837 -2.0843  0.7816
 9692SOL     OW31967   4.789   0.439   3.104 -0.3298 -0.0662 -0.3321
 9692SOL    HW131968   4.836   0.459   3.184 -2.2252  0.0224  0.8281
 9692SOL    HW231969   4.808   0.346   3.086  2.1618  0.5528 -1.3006
 9693SOL     OW31970   0.396   7.028   4.989 -0.0453  0.6395  0.6844
 9693SOL    HW131971   0.478   7.038   5.036  0.0584  0.3495  0.5665
 9693SOL    HW231972   0.328   7.045   5.055 -0.0564 -3.6676  2.0824
 9694SOL     OW31973   8.633   0.233   4.644  0.1850  0.2747  0.2729
 9694SOL    HW131974   8.590   0.227   4.729  0.9566  0.4588  0.6916
 9694SOL    HW231975   8.677   0.319   4.646 -0.7728  0.8112 -0.7911
 9695SOL     OW31976   1.464   8.717   5.027 -0.4377 -0.4104  0.4108
 9695SOL    HW131977   1.483   8.709   4.934 -0.3032 -1.0214  0.4916
 9695SOL    HW231978   1.409   8.642   5.048 -2.6098  1.0549  0.2915
 9696SOL     OW31979   2.796   8.468   2.932  0.2800 -0.1287 -0.1441
 9696SOL    HW131980   2.730   8.403   2.954  0.3627  0.0362  0.6123
 9696SOL    HW231981   2.867   8.453   2.994  0.4205  0.4949 -0.1425
 9697SOL     OW31982   5.448   8.132   5.339 -0.3676  0.8685 -0.1308
 9697SOL    HW131983   5.446   8.216   5.385  1.4985  0.6152  0.4629
 9697SOL    HW231984   5.356   8.107   5.333 -0.7348  0.6454  3.9670
 9698SOL     OW31985   6.258   1.704   2.284  0.4564  0.0930  0.0088
 9698SOL    HW131986   6.179   1.740   2.326  0.1301 -0.7274  0.1181
 9698SOL    HW231987   6.226   1.667   2.202  0.9201  0.7203 -0.4654
 9699SOL     OW31988   0.937   7.098   3.575 -0.7575  0.3395 -0.1020
 9699SOL    HW131989   0.967   7.048   3.651 -0.6832  0.4373 -0.0670
 9699SOL    HW231990   1.016   7.109   3.521 -0.0710  2.9342  1.2714
 9700SOL     OW31991   0.848   0.441   0.208  0.1332 -0.2076 -0.3589
 9700SOL    HW131992   0.913   0.490   0.157 -0.1622 -0.4095 -0.9392
 9700SOL    HW231993   0.765   0.459   0.164  0.1994 -2.3997 -1.4828
 9701SOL     OW31994   9.026   4.025   3.201 -0.0590  0.4362 -0.2556
 9701SOL    HW131995   8.992   4.099   3.252 -0.8436  0.1694 -0.3922
 9701SOL    HW231996   9.010   3.949   3.257  1.2238  0.4075  0.1190
 9702SOL     OW31997   7.025   3.878   4.303  0.0468  0.2611 -0.2774
 9702SOL    HW131998   7.095   3.827   4.261 -0.2856 -0.5567  0.1371
 9702SOL    HW231999   6.995   3.938   4.236  0.7779  0.2352 -0.6327
 9703SOL     OW32000   4.934   5.162   0.128  0.3558 -0.0263  0.0986
 9703SOL    HW132001   4.929   5.122   0.041  1.0961 -1.0809  0.5173
 9703SOL    HW232002   4.843   5.171   0.155  0.1389 -0.4238 -0.4641
 9704SOL     OW32003   3.920   8.560   2.572 -0.4664 -0.6264 -0.1122
 9704SOL    HW132004   3.975   8.499   2.621 -2.1646 -0.0141  2.7591
 9704SOL    HW232005   3.950   8.646   2.600 -1.9974 -0.2714  0.4911
 9705SOL     OW32006   3.465   7.285   0.947  0.2468 -0.3496 -0.0590
 9705SOL    HW132007   3.388   7.328   0.984 -0.3343 -0.0436 -1.5447
 9705SOL    HW232008   3.535   7.303   1.009  0.0265  2.7263 -0.5510
 9706SOL     OW32009   7.398   8.088   2.142 -0.2420  0.3222  0.1782
 9706SOL    HW132010   7.419   8.177   2.170 -0.7796 -0.3497  3.0642
 9706SOL    HW232011   7.304   8.089   2.125  0.0351  0.6590 -1.4914
 9707SOL     OW32012   6.102   4.302   4.180 -0.6184 -0.3206 -0.0402
 9707SOL    HW132013   6.012   4.314   4.211 -0.7076  0.1323 -0.4680
 9707SOL    HW232014   6.098   4.225   4.123 -0.5268 -0.9319  0.7673
 9708SOL     OW32015   8.474   1.150   5.731  0.4070  0.4801  0.0302
 9708SOL    HW132016   8.456   1.109   5.815  2.5340 -0.1604  0.2124
 9708SOL    HW232017   8.562   1.121   5.708  0.3148  1.5660 -1.8736
 9709SOL     OW32018   4.031   3.429   9.149 -0.1898 -0.1558 -0.1193
 9709SOL    HW132019   3.974   3.480   9.206 -0.9597 -0.8371 -0.2644
 9709SOL    HW232020   3.971   3.380   9.092  0.5555  0.1470 -1.1968
 9710SOL     OW32021   8.900   0.540   9.252  0.5329 -0.5553  0.4327
 9710SOL    HW132022   8.873   0.499   9.170  0.1165  1.8354 -0.7412
 9710SOL    HW232023   8.991   0.566   9.236  1.1530 -1.9506  1.5595
 9711SOL     OW32024   1.581   1.505   5.666  0.0200 -0.0743  0.3079
 9711SOL    HW132025   1.610   1.508   5.575 -1.1386 -0.7663 -0.1178
 9711SOL    HW232026   1.630   1.432   5.704  2.7911  2.0928  1.1441
 9712SOL     OW32027   2.955   1.907   6.658 -0.2554  0.2098 -0.3493
 9712SOL    HW132028   2.937   1.960   6.580 -2.4274 -1.0039 -0.7495
 9712SOL    HW232029   2.964   1.818   6.625  0.9129 -0.0455  0.5886
 9713SOL     OW32030   8.304   4.514   1.516  0.6973 -0.1003  0.1930
 9713SOL    HW132031   8.230   4.573   1.533 -0.6254 -1.0689 -1.9322
 9713SOL    HW232032   8.380   4.562   1.550 -0.4431  2.4506 -0.6078
 9714SOL     OW32033   4.483   0.112   5.702 -0.3082 -0.1028 -0.5008
 9714SOL    HW132034   4.406   0.166   5.685 -0.8828 -1.4112 -2.4661
 9714SOL    HW232035   4.555   0.174   5.710 -1.4837  1.1305  0.9876
 9715SOL     OW32036   1.629   1.375   5.974  0.3531  0.2639 -0.2553
 9715SOL    HW132037   1.712   1.378   5.927  1.1347  2.0635  1.0861
 9715SOL    HW232038   1.652   1.346   6.062 -0.9088 -1.9669 -0.5942
 9716SOL     OW32039   5.498   3.846   9.206 -0.1539 -0.3089  0.0240
 9716SOL    HW132040   5.433   3.906   9.242 -1.5178 -0.8354 -1.4314
 9716SOL    HW232041   5.522   3.884   9.122 -0.7092 -1.5383 -0.7144
 9717SOL     OW32042   6.218   2.341   0.854  0.0436 -0.2893 -0.2885
 9717SOL    HW132043   6.261   2.255   0.851 -1.3924 -1.0325 -1.3000
 9717SOL    HW232044   6.280   2.400   0.812  0.6657 -1.0419 -0.4588
 9718SOL     OW32045   6.855   1.182   6.078  0.3176 -0.2715  0.0198
 9718SOL    HW132046   6.787   1.163   6.143 -1.1760  0.5938 -1.2229
 9718SOL    HW232047   6.854   1.107   6.018  0.3766 -0.2016 -0.0701
 9719SOL     OW32048   5.323   0.338   3.808  0.2795  0.3871  0.1334
 9719SOL    HW132049   5.310   0.411   3.747 -1.1411 -0.6767 -0.8982
 9719SOL    HW232050   5.236   0.321   3.843  0.7588 -0.2554  1.0449
 9720SOL     OW32051   8.407   0.072   5.717  0.0490 -0.2536 -0.3251
 9720SOL    HW132052   8.433   0.117   5.636 -0.4492 -0.8864 -0.8457
 9720SOL    HW232053   8.449  -0.013   5.712 -1.7929 -1.1865 -1.0454
 9721SOL     OW32054   0.983   2.377   3.525 -0.3442  0.5691  0.4642
 9721SOL    HW132055   0.932   2.315   3.473  1.3205 -0.6628  0.2092
 9721SOL    HW232056   1.023   2.436   3.461 -0.3763  0.6808  0.5476
 9722SOL     OW32057   7.386   1.095   2.347 -0.1657 -0.1895  0.6248
 9722SOL    HW132058   7.319   1.114   2.412 -0.8533  1.7908 -0.5571
 9722SOL    HW232059   7.468   1.088   2.397 -0.8426  0.1180  1.8074
 9723SOL     OW32060   6.309   3.284   5.481 -0.6522  0.1334 -0.5227
 9723SOL    HW132061   6.340   3.304   5.569  2.2523  2.0022 -1.8286
 9723SOL    HW232062   6.217   3.261   5.493 -0.0629 -1.0518  3.1235
 9724SOL     OW32063   3.634   4.021   0.748 -0.3692 -0.2149  0.1613
 9724SOL    HW132064   3.702   4.020   0.815  0.3622 -2.0527 -0.5341
 9724SOL    HW232065   3.605   4.112   0.744  1.1553  0.3663  1.3736
 9725SOL     OW32066   3.977   9.114   6.501  0.5631  0.0848 -0.4956
 9725SOL    HW132067   3.978   9.031   6.547  0.4892  1.2356  1.6961
 9725SOL    HW232068   3.894   9.155   6.526  0.0987  0.4104 -2.3865
 9726SOL     OW32069   5.835   1.880   5.355  0.0821 -0.5818 -0.2441
 9726SOL    HW132070   5.886   1.874   5.436 -0.6830 -1.0173  0.2224
 9726SOL    HW232071   5.779   1.957   5.368  1.8167  0.9835 -1.4845
 9727SOL     OW32072   0.513   6.744   1.706  0.3297  0.5483  0.3262
 9727SOL    HW132073   0.418   6.728   1.701  0.5678 -1.1370  0.4177
 9727SOL    HW232074   0.547   6.706   1.625  1.0004  0.4360  0.6581
 9728SOL     OW32075   2.839   3.589   9.032 -0.0462 -0.0409  0.1674
 9728SOL    HW132076   2.902   3.585   8.960  0.2773 -0.6005  0.4724
 9728SOL    HW232077   2.868   3.662   9.086  1.6519 -1.6053  1.4867
 9729SOL     OW32078   9.213   4.329   4.232 -0.3554 -0.4394 -0.1147
 9729SOL    HW132079   9.249   4.270   4.298  0.5617 -2.1753 -2.0373
 9729SOL    HW232080   9.120   4.306   4.227 -1.0773  1.5470  2.3248
 9730SOL     OW32081   6.044   8.307   2.136  0.2899 -0.5615 -0.0537
 9730SOL    HW132082   6.129   8.315   2.180 -0.9572 -0.5698  2.5685
 9730SOL    HW232083   6.004   8.394   2.144 -0.9478 -1.1934  1.1052
 9731SOL     OW32084   5.116   3.554   4.899  0.2606  0.0546  0.0786
 9731SOL    HW132085   5.126   3.648   4.907  2.2339 -0.0728 -0.1997
 9731SOL    HW232086   5.060   3.541   4.822  0.6357  0.9983 -0.3648
 9732SOL     OW32087   3.346   5.812   4.670  0.1700 -0.0982  0.1415
 9732SOL    HW132088   3.439   5.814   4.648  0.5839 -1.1515  1.6312
 9732SOL    HW232089   3.336   5.733   4.724 -1.4728  0.3231  0.5022
 9733SOL     OW32090   1.945   2.887   0.467 -0.2988 -0.1053  0.2033
 9733SOL    HW132091   1.932   2.816   0.405  2.8051 -1.9268  1.4312
 9733SOL    HW232092   1.888   2.864   0.541 -2.7817  1.2438 -1.1367
 9734SOL     OW32093   7.441   0.212   3.828 -0.2725  0.1050  0.1162
 9734SOL    HW132094   7.417   0.150   3.759 -0.3971 -0.1511  0.3875
 9734SOL    HW232095   7.404   0.174   3.908 -0.5040  0.6168  0.2552
 9735SOL     OW32096   4.337   7.077   2.349 -0.4296  0.3943 -0.1088
 9735SOL    HW132097   4.379   7.030   2.421 -0.9536 -0.1307 -0.1434
 9735SOL    HW232098   4.270   7.131   2.391 -0.9605 -0.1634 -0.2298
 9736SOL     OW32099   2.258   8.755   3.852  0.3531 -0.5859 -0.3783
 9736SOL    HW132100   2.210   8.783   3.930  0.6860 -1.1924  0.0520
 9736SOL    HW232101   2.198   8.773   3.779 -0.0620 -0.2572  0.0417
 9737SOL     OW32102   0.366   2.726   2.932  0.5458  0.0924  0.1452
 9737SOL    HW132103   0.406   2.642   2.956  0.3574 -0.3496 -1.0246
 9737SOL    HW232104   0.431   2.792   2.957  1.1447 -0.4837  0.1281
 9738SOL     OW32105   1.866   2.665   5.520  0.3418 -0.3398 -0.1050
 9738SOL    HW132106   1.961   2.668   5.513  0.3647  0.6540  0.5827
 9738SOL    HW232107   1.848   2.585   5.569  0.8826  0.0960  0.8122
 9739SOL     OW32108   1.408   9.004   3.650  0.3951  0.0461  0.4204
 9739SOL    HW132109   1.400   8.929   3.709 -0.7504 -0.6024 -0.5234
 9739SOL    HW232110   1.356   9.073   3.691 -0.0743 -0.2777  0.3752
 9740SOL     OW32111   2.157   0.355   8.024 -0.3667  0.2078  0.4003
 9740SOL    HW132112   2.223   0.420   8.000  0.9141 -0.9379  0.7033
 9740SOL    HW232113   2.199   0.271   8.008 -1.8748 -0.5676  0.3112
 9741SOL     OW32114   0.477   1.934   6.359 -0.2445  0.5297 -0.1528
 9741SOL    HW132115   0.501   2.013   6.408  1.7240  0.6425 -1.1994
 9741SOL    HW232116   0.393   1.907   6.396  0.9658  0.7781  3.0813
 9742SOL     OW32117   3.763   7.079   7.407 -0.3683  0.2531  0.2702
 9742SOL    HW132118   3.835   7.021   7.384 -0.9052 -0.4752  0.3828
 9742SOL    HW232119   3.690   7.049   7.353 -0.6941  0.7323  0.4393
 9743SOL     OW32120   2.531   0.347   1.425 -0.7311  0.1300  0.0493
 9743SOL    HW132121   2.543   0.434   1.462 -1.7624 -0.3875  1.7075
 9743SOL    HW232122   2.565   0.288   1.492 -0.6531 -0.7733 -0.7734
 9744SOL     OW32123   6.818   3.397   1.995 -0.6215  0.1989 -0.4943
 9744SOL    HW132124   6.789   3.379   1.906 -0.6498  1.8217 -0.8318
 9744SOL    HW232125   6.851   3.486   1.993  2.0496 -0.6495  0.4642
 9745SOL     OW32126   9.042   0.457   8.158 -0.1391  0.2727  0.1682
 9745SOL    HW132127   9.103   0.484   8.089 -0.2693 -1.8452 -0.8729
 9745SOL    HW232128   9.076   0.497   8.237  0.3629  2.3081 -1.0034
 9746SOL     OW32129   1.894   8.939   2.206 -0.4706  0.1314  0.4952
 9746SOL    HW132130   1.896   9.033   2.225 -0.7990  0.2134  0.1212
 9746SOL    HW232131   1.814   8.907   2.249  0.1924 -0.1790  1.5375
 9747SOL     OW32132   4.722   6.821   8.586  0.2441 -0.2553 -0.6019
 9747SOL    HW132133   4.707   6.886   8.654  0.6707  0.9382 -1.6010
 9747SOL    HW232134   4.687   6.739   8.622  0.3661  0.3597  0.9826
 9748SOL     OW32135   8.813   5.005   3.978 -0.2617  0.4538 -0.1279
 9748SOL    HW132136   8.855   5.076   3.929  0.8360  0.9217  1.4007
 9748SOL    HW232137   8.784   5.047   4.060  0.0502 -0.7690  0.6337
 9749SOL     OW32138   2.181   6.967   6.370 -0.3773 -0.3938  0.1172
 9749SOL    HW132139   2.227   7.047   6.343 -0.8337 -0.5094 -1.0701
 9749SOL    HW232140   2.092   6.980   6.338 -0.4629 -1.3630 -0.0554
 9750SOL     OW32141   0.795   2.046   4.747  1.1117 -0.4339  0.4852
 9750SOL    HW132142   0.885   2.057   4.716 -0.3451  2.5850 -3.4503
 9750SOL    HW232143   0.757   1.981   4.688  0.0598  0.2440  0.3880
 9751SOL     OW32144   3.895   6.603   2.060  0.5075 -0.4971 -0.1166
 9751SOL    HW132145   3.887   6.511   2.037  0.5435 -0.9504  1.5897
 9751SOL    HW232146   3.980   6.629   2.027 -0.1406 -0.6234 -2.0012
 9752SOL     OW32147   6.616   0.680   7.153 -0.1510 -0.3030  0.3825
 9752SOL    HW132148   6.661   0.603   7.119  2.2174  1.1512  0.0136
 9752SOL    HW232149   6.534   0.684   7.103  0.3698 -1.7140 -0.6505
 9753SOL     OW32150   3.005   3.139   4.556  0.1959  0.2866  0.2441
 9753SOL    HW132151   2.992   3.183   4.471 -1.0060  0.9155  0.7147
 9753SOL    HW232152   2.930   3.080   4.563 -0.8317  1.6659  1.6895
 9754SOL     OW32153   0.674   0.072   4.584  0.1141  0.2453 -0.4112
 9754SOL    HW132154   0.608   0.132   4.618  0.4939 -0.0927  0.9801
 9754SOL    HW232155   0.637  -0.015   4.600 -0.1510  0.0780 -1.8305
 9755SOL     OW32156   1.129   7.092   3.379  0.3326 -0.8832 -0.4142
 9755SOL    HW132157   1.113   7.157   3.310 -1.6505 -2.6046 -1.7035
 9755SOL    HW232158   1.224   7.083   3.381  0.5463  0.5753 -1.6061
 9756SOL     OW32159   4.571   8.248   4.882  0.4234  0.2786 -0.2401
 9756SOL    HW132160   4.526   8.168   4.907 -0.1868  0.9945  1.0772
 9756SOL    HW232161   4.663   8.222   4.872  0.8657 -0.0455  3.3638
 9757SOL     OW32162   8.834   6.406   3.767  0.4074  0.5990 -0.0889
 9757SOL    HW132163   8.755   6.454   3.789  0.0815 -0.2219  0.5717
 9757SOL    HW232164   8.905   6.470   3.776 -0.1711  1.3708 -0.8028
 9758SOL     OW32165   2.529   9.046   7.909  0.3962 -0.2696  0.3327
 9758SOL    HW132166   2.570   8.972   7.865 -0.5262 -0.1274 -0.7924
 9758SOL    HW232167   2.528   9.116   7.844 -1.5009 -0.2298  0.3500
 9759SOL     OW32168   1.303   0.851   0.816 -0.8701  0.3559 -0.2692
 9759SOL    HW132169   1.234   0.815   0.871 -1.8114 -1.5601 -2.5245
 9759SOL    HW232170   1.350   0.774   0.784  1.5433  1.5487  0.1626
 9760SOL     OW32171   8.307   8.032   5.253 -0.2190 -1.0005 -0.1423
 9760SOL    HW132172   8.238   8.089   5.219  0.3105 -1.2253 -1.6697
 9760SOL    HW232173   8.268   7.990   5.330 -2.5017 -2.5037 -1.9819
 9761SOL     OW32174   2.687   2.476   0.222  0.1797 -0.3095 -0.2550
 9761SOL    HW132175   2.736   2.543   0.269 -0.1225 -0.4040  0.1934
 9761SOL    HW232176   2.754   2.431   0.169  0.3832  0.3214 -0.5401
 9762SOL     OW32177   8.025   8.960   2.704  0.4296 -0.4293 -0.3385
 9762SOL    HW132178   8.069   9.020   2.645  2.0240  0.8328  1.9731
 9762SOL    HW232179   8.075   8.879   2.698  0.2593 -0.4829 -1.0753
 9763SOL     OW32180   8.098   2.628   4.599 -0.5757 -0.2359 -0.3629
 9763SOL    HW132181   8.116   2.685   4.673  0.6089  0.5076 -1.1918
 9763SOL    HW232182   8.002   2.623   4.596 -0.6742  0.6992  0.4745
 9764SOL     OW32183   7.442   1.619   3.840  0.1606  0.1599  0.1362
 9764SOL    HW132184   7.401   1.699   3.808 -1.2797 -1.0158 -1.1277
 9764SOL    HW232185   7.536   1.635   3.835 -0.0986  1.3670 -1.1613
 9765SOL     OW32186   2.884   4.632   3.475  0.3047 -0.2535 -0.0467
 9765SOL    HW132187   2.840   4.674   3.549  0.6920  0.7399 -0.3661
 9765SOL    HW232188   2.860   4.540   3.483  1.3675 -0.4307  2.0903
 9766SOL     OW32189   7.958   7.400   5.148 -0.0107 -0.5696 -0.3039
 9766SOL    HW132190   8.041   7.439   5.176 -0.1314  0.8046 -1.7300
 9766SOL    HW232191   7.971   7.383   5.054 -0.9262 -1.4762 -0.2787
 9767SOL     OW32192   4.575   5.907   8.542  0.3129  0.4697  0.4215
 9767SOL    HW132193   4.536   5.995   8.539 -0.1813  0.3974  2.8683
 9767SOL    HW232194   4.649   5.916   8.603  2.0013 -0.2395 -1.4080
 9768SOL     OW32195   9.164   1.853   4.218 -0.4350 -0.1218  0.3776
 9768SOL    HW132196   9.237   1.812   4.172  0.8646  1.1051  1.2541
 9768SOL    HW232197   9.139   1.927   4.162 -0.5654 -0.1517  0.3959
 9769SOL     OW32198   6.634   7.687   7.983  0.0091 -0.4010 -0.5176
 9769SOL    HW132199   6.699   7.754   8.008  0.7990 -1.3114 -0.0609
 9769SOL    HW232200   6.551   7.722   8.014  0.6969 -0.6254  1.8004
 9770SOL     OW32201   6.014   7.960   0.271  0.0736  0.3169 -0.2711
 9770SOL    HW132202   5.978   7.902   0.339  0.8491  0.3088  0.1378
 9770SOL    HW232203   5.982   7.923   0.189  1.5517 -1.4427 -0.1214
 9771SOL     OW32204   6.854   6.887   6.224  0.3479  0.0222  0.2975
 9771SOL    HW132205   6.862   6.874   6.130 -1.1654  2.2528 -0.2124
 9771SOL    HW232206   6.827   6.801   6.258 -0.3634 -0.5035 -1.4918
 9772SOL     OW32207   0.742   7.135   2.976 -0.5698 -0.3006  0.2984
 9772SOL    HW132208   0.669   7.108   3.032 -1.7019  1.4692 -0.2192
 9772SOL    HW232209   0.701   7.157   2.892  0.3878  1.6741  0.2949
 9773SOL     OW32210   0.839   8.227   3.216  0.3044 -0.4066 -0.0954
 9773SOL    HW132211   0.821   8.271   3.133  1.2704  0.5931  0.2053
 9773SOL    HW232212   0.757   8.182   3.238 -0.9657  1.7711 -0.1057
 9774SOL     OW32213   0.491   6.029   0.706  0.1414 -0.2280 -0.5548
 9774SOL    HW132214   0.567   6.051   0.760 -1.1731  0.8869  0.9194
 9774SOL    HW232215   0.470   5.939   0.729 -0.4995  0.2829  0.9715
 9775SOL     OW32216   5.820   7.017   7.690 -0.1050  0.4872  0.5456
 9775SOL    HW132217   5.854   7.095   7.735  2.2266  0.5732 -1.1381
 9775SOL    HW232218   5.827   7.039   7.597  0.5730 -1.7055  0.0281
 9776SOL     OW32219   1.290   3.834   5.609  0.8071  0.1762  0.0104
 9776SOL    HW132220   1.223   3.786   5.658 -0.3587  1.1489 -0.5905
 9776SOL    HW232221   1.370   3.822   5.660 -0.0217 -0.2145  1.2614
 9777SOL     OW32222   7.262   8.840   7.797 -0.6871 -0.2754  0.3762
 9777SOL    HW132223   7.263   8.825   7.891  0.2364  0.9567  0.5846
 9777SOL    HW232224   7.216   8.923   7.786 -0.4926 -0.2415 -0.2334
 9778SOL     OW32225   8.188   7.472   3.711  0.0741  0.0009  0.2937
 9778SOL    HW132226   8.128   7.517   3.651  1.3983 -1.2983 -2.1620
 9778SOL    HW232227   8.131   7.420   3.767 -1.3381  2.6683  1.5525
 9779SOL     OW32228   7.123   3.670   3.304 -0.1342  0.0189 -0.0312
 9779SOL    HW132229   7.161   3.612   3.371 -1.2275 -0.6652  0.0195
 9779SOL    HW232230   7.139   3.624   3.221 -1.2072 -0.4850  0.0304
 9780SOL     OW32231   8.982   4.589   4.067  0.7778  0.0883  0.0498
 9780SOL    HW132232   8.924   4.643   4.012  0.5976  0.7115  0.8306
 9780SOL    HW232233   9.033   4.537   4.004 -0.8100 -0.6881 -0.6468
 9781SOL     OW32234   6.905   1.032   5.835 -0.0087  0.6180 -0.1564
 9781SOL    HW132235   6.999   1.034   5.820  0.1185  0.3889  0.5880
 9781SOL    HW232236   6.867   1.057   5.751  0.7313  1.7221 -0.1917
 9782SOL     OW32237   3.050   4.688   2.152  0.0160  1.1429  0.2829
 9782SOL    HW132238   3.011   4.746   2.218 -2.1838  0.7265 -0.5564
 9782SOL    HW232239   2.978   4.631   2.125  1.2046  0.3941 -1.4841
 9783SOL     OW32240   0.820   6.750   4.383  0.2471 -0.2410 -0.5343
 9783SOL    HW132241   0.797   6.670   4.431 -0.0782 -0.7662 -1.5425
 9783SOL    HW232242   0.903   6.730   4.341  1.4467  0.8382  1.1917
 9784SOL     OW32243   1.695   5.202   3.013  0.2460  0.2039  0.2790
 9784SOL    HW132244   1.759   5.137   2.984 -0.4215 -0.2101 -0.3041
 9784SOL    HW232245   1.689   5.188   3.108 -0.1546 -0.8593  0.1171
 9785SOL     OW32246   2.718   7.362   1.666 -0.0334 -0.1952  0.2678
 9785SOL    HW132247   2.672   7.279   1.677  1.9535 -1.8783 -2.7847
 9785SOL    HW232248   2.661   7.414   1.609 -0.1476 -0.4789  0.1239
 9786SOL     OW32249   4.813   1.844   7.191  0.2069  0.1877 -0.3287
 9786SOL    HW132250   4.860   1.834   7.109 -0.6216  1.3771 -0.9725
 9786SOL    HW232251   4.795   1.754   7.220  0.4495 -0.2413 -1.4782
 9787SOL     OW32252   9.121   2.124   6.839 -0.1890 -0.2395  0.9692
 9787SOL    HW132253   9.077   2.152   6.919  0.4387 -0.3245  1.3483
 9787SOL    HW232254   9.066   2.158   6.768 -0.7765 -0.2103  1.4344
 9788SOL     OW32255   1.841   5.184   5.143 -0.3025 -0.1320  0.2878
 9788SOL    HW132256   1.869   5.217   5.057  0.8313 -1.5048  0.0835
 9788SOL    HW232257   1.775   5.247   5.173  2.8366  3.3265  0.7310
 9789SOL     OW32258   2.993   6.628   3.678  0.3075  0.2704  0.5336
 9789SOL    HW132259   3.055   6.570   3.722  1.9269  1.8905  0.5257
 9789SOL    HW232260   3.029   6.716   3.691 -2.6535  1.4656  1.6002
 9790SOL     OW32261   2.462   2.073   8.894 -0.1980 -0.0034  0.3554
 9790SOL    HW132262   2.464   1.979   8.875  2.6689 -0.1640  0.9940
 9790SOL    HW232263   2.459   2.115   8.809  0.1713 -0.6731  0.0028
 9791SOL     OW32264   8.753   7.929   2.233  0.1546  0.6584  0.0501
 9791SOL    HW132265   8.736   7.838   2.206  0.6106  1.2311 -2.3882
 9791SOL    HW232266   8.679   7.952   2.289  0.1053 -1.2272  0.8521
 9792SOL     OW32267   8.680   2.329   8.115 -0.0151  0.6173 -0.0812
 9792SOL    HW132268   8.660   2.235   8.108  0.6154  0.4575  0.1646
 9792SOL    HW232269   8.710   2.341   8.205  0.2355  0.9847 -0.2086
 9793SOL     OW32270   8.513   9.243   3.184  0.0115  0.4429  0.3783
 9793SOL    HW132271   8.508   9.161   3.233 -0.6579 -0.6265 -1.3895
 9793SOL    HW232272   8.543   9.218   3.097 -0.2386  2.0679 -0.2183
 9794SOL     OW32273   5.610   5.976   7.175 -0.7196  0.3909 -0.0701
 9794SOL    HW132274   5.587   5.883   7.178 -0.4789  0.3242 -0.2735
 9794SOL    HW232275   5.586   6.009   7.262  0.4101 -0.1500  0.4592
 9795SOL     OW32276   8.627   7.115   2.432  0.1116 -0.2621 -0.7837
 9795SOL    HW132277   8.543   7.109   2.387 -0.1054  0.0236 -0.4266
 9795SOL    HW232278   8.684   7.164   2.372 -0.8249  2.1158  0.1497
 9796SOL     OW32279   7.326   4.065   0.772  0.2114 -0.3058  0.1552
 9796SOL    HW132280   7.415   4.031   0.780  0.1785 -0.3292  0.4442
 9796SOL    HW232281   7.289   4.019   0.697  0.0354 -1.1991  0.7745
 9797SOL     OW32282   8.369   0.666   0.101  0.0306  0.2694 -0.5159
 9797SOL    HW132283   8.279   0.687   0.126  0.5301  0.1980  1.5278
 9797SOL    HW232284   8.413   0.647   0.183  1.2216 -2.5606 -1.6670
 9798SOL     OW32285   2.750   1.804   1.262  0.3166 -0.7588 -0.5099
 9798SOL    HW132286   2.740   1.730   1.203 -3.8310 -0.0326 -1.0404
 9798SOL    HW232287   2.677   1.796   1.324  0.8845  1.7759  0.6381
 9799SOL     OW32288   1.573   8.644   9.196  0.0158  0.3110 -0.1386
 9799SOL    HW132289   1.607   8.587   9.265 -0.7483  0.3385  0.2680
 9799SOL    HW232290   1.626   8.622   9.119  1.1748  0.6013  0.5554
 9800SOL     OW32291   8.515   5.703   5.837 -0.3775  0.3824  0.2026
 9800SOL    HW132292   8.493   5.641   5.906  0.6400  0.6265  0.7712
 9800SOL    HW232293   8.485   5.662   5.757  1.1657 -1.3147  0.4434
 9801SOL     OW32294   9.158   0.219   6.862  0.2045 -0.3507  0.3632
 9801SOL    HW132295   9.177   0.263   6.779 -1.7609  1.1747  0.6501
 9801SOL    HW232296   9.202   0.273   6.927 -1.8483  1.0399  0.6742
 9802SOL     OW32297   4.734   3.293   4.048 -0.1310 -0.1268  0.4594
 9802SOL    HW132298   4.815   3.267   4.092 -0.1029  0.4859  0.7867
 9802SOL    HW232299   4.725   3.386   4.069 -0.2205  0.1301 -0.6663
 9803SOL     OW32300   3.356   6.506   1.672  0.4514  0.0110  0.5447
 9803SOL    HW132301   3.435   6.558   1.659  0.6055 -0.7713 -2.1765
 9803SOL    HW232302   3.388   6.424   1.710  0.3766  1.2014  3.4100
 9804SOL     OW32303   5.260   5.261   4.321 -0.3600 -0.4090 -0.3503
 9804SOL    HW132304   5.297   5.350   4.317 -1.5119  0.2075  1.4330
 9804SOL    HW232305   5.166   5.274   4.310 -0.4394 -1.5664 -1.2043
 9805SOL     OW32306   2.303   0.565   1.235  0.0162  0.4990  0.2340
 9805SOL    HW132307   2.262   0.558   1.149  0.3335  1.1111  0.0308
 9805SOL    HW232308   2.292   0.477   1.274 -1.0416  0.5093 -0.0037
 9806SOL     OW32309   2.315   7.736   3.322 -0.2745 -0.0516  0.6856
 9806SOL    HW132310   2.354   7.807   3.372 -0.6700  0.5909  0.0902
 9806SOL    HW232311   2.356   7.657   3.357  0.3267  0.4815  1.2019
 9807SOL     OW32312   1.732   6.908   2.025  0.1034 -0.0697  0.1904
 9807SOL    HW132313   1.762   6.999   2.027  1.8609 -0.5796 -1.1234
 9807SOL    HW232314   1.799   6.860   2.072 -1.2727 -0.6334  1.6892
 9808SOL     OW32315   1.846   3.980   1.043  0.4255  0.2322  0.1269
 9808SOL    HW132316   1.867   4.034   0.967 -2.4217  0.1050 -0.8779
 9808SOL    HW232317   1.799   3.905   1.008 -1.0741  0.2146  1.9691
 9809SOL     OW32318   4.393   6.906   8.336 -0.2699  0.6739  0.3647
 9809SOL    HW132319   4.419   6.841   8.271 -1.1877 -0.1935  0.8437
 9809SOL    HW232320   4.374   6.855   8.415 -0.8103  1.5424  0.8128
 9810SOL     OW32321   1.161   8.806   0.686  0.2449  0.2069 -0.1577
 9810SOL    HW132322   1.253   8.779   0.685  0.0876 -0.4464  0.8357
 9810SOL    HW232323   1.112   8.724   0.683 -0.3125  0.5581 -0.8471
 9811SOL     OW32324   5.877   4.475   8.937  0.3932 -0.1821 -0.0228
 9811SOL    HW132325   5.942   4.413   8.901 -1.0773 -0.9142 -1.5855
 9811SOL    HW232326   5.796   4.425   8.940 -1.3425  2.0449 -3.1414
 9812SOL     OW32327   8.954   5.061   1.724  0.0703 -0.0237  0.2117
 9812SOL    HW132328   8.967   5.031   1.634 -2.0271  2.6836 -1.1121
 9812SOL    HW232329   9.042   5.085   1.754  0.6849  0.0011 -1.5021
 9813SOL     OW32330   1.251   3.709   5.281 -0.4510  0.1341 -0.4545
 9813SOL    HW132331   1.344   3.688   5.294 -0.0265  1.6682 -0.8643
 9813SOL    HW232332   1.236   3.787   5.333 -1.6213 -0.2804 -0.1295
 9814SOL     OW32333   8.437   0.948   7.307  0.2307 -0.2043 -0.4670
 9814SOL    HW132334   8.360   1.003   7.318  0.0322 -0.3450 -1.1118
 9814SOL    HW232335   8.471   0.972   7.221  0.6758 -0.4336 -0.3566
 9815SOL     OW32336   4.934   7.316   8.962  0.7731  0.2160  0.3779
 9815SOL    HW132337   4.898   7.233   8.991  0.4046  0.0982 -0.3820
 9815SOL    HW232338   4.867   7.381   8.982  1.2880  0.4312  1.4809
 9816SOL     OW32339   1.503   3.707   5.454  0.3598  0.2368  0.4047
 9816SOL    HW132340   1.545   3.621   5.460 -1.2272 -0.5048  1.5229
 9816SOL    HW232341   1.493   3.735   5.545 -1.1443  0.5712  0.1618
 9817SOL     OW32342   6.157   4.074   5.499 -0.3701 -0.4937  0.2833
 9817SOL    HW132343   6.171   4.104   5.409 -1.4223  2.0891  0.9122
 9817SOL    HW232344   6.126   4.151   5.546  0.4293 -1.6872  2.9662
 9818SOL     OW32345   2.625   3.352   0.800  0.6228 -0.4960  0.2272
 9818SOL    HW132346   2.666   3.292   0.862  0.6613 -0.4196  0.2750
 9818SOL    HW232347   2.694   3.371   0.736  0.1816 -1.6901 -0.6465
 9819SOL     OW32348   0.514   3.422   3.246  0.1255  0.4990  0.2602
 9819SOL    HW132349   0.549   3.485   3.309 -2.2363  2.0693  0.1497
 9819SOL    HW232350   0.419   3.426   3.259 -0.2867 -0.8188 -1.8600
 9820SOL     OW32351   7.109   3.728   5.719 -0.9677  0.5255 -0.1466
 9820SOL    HW132352   7.162   3.803   5.693 -3.1129  2.2043  0.0603
 9820SOL    HW232353   7.061   3.704   5.639  0.6622 -1.5666 -0.5852
 9821SOL     OW32354   9.244   6.749   6.465 -0.3773 -0.3850 -0.1607
 9821SOL    HW132355   9.150   6.754   6.444 -0.4285 -0.3727  0.0756
 9821SOL    HW232356   9.247   6.730   6.558 -0.1381  0.5931  0.0419
 9822SOL     OW32357   2.899   7.706   0.638  0.0634 -0.7700 -0.9450
 9822SOL    HW132358   2.813   7.674   0.610 -1.2570  1.9837 -0.3510
 9822SOL    HW232359   2.890   7.721   0.732  1.1302 -0.1927 -0.9204
 9823SOL     OW32360   3.604   8.129   2.506 -0.4722 -0.0483 -0.0882
 9823SOL    HW132361   3.585   8.196   2.439  2.0684  1.0229  0.1726
 9823SOL    HW232362   3.626   8.179   2.584  2.9199 -1.0270 -0.2696
 9824SOL     OW32363   5.336   3.410   4.868  0.2752 -0.0904  0.2336
 9824SOL    HW132364   5.266   3.472   4.885 -0.0300 -1.0859  3.1590
 9824SOL    HW232365   5.292   3.334   4.829  0.1634  0.2753 -0.3680
 9825SOL     OW32366   9.024   1.115   0.222 -0.3939 -0.1390 -0.0660
 9825SOL    HW132367   9.083   1.129   0.296 -1.0843  1.3864  0.2224
 9825SOL    HW232368   8.938   1.143   0.254 -0.8067  0.0064 -1.2618
 9826SOL     OW32369   0.667   6.163   8.388 -0.0188  0.9263  0.0663
 9826SOL    HW132370   0.705   6.166   8.476  1.0347  0.7555 -0.3622
 9826SOL    HW232371   0.637   6.252   8.371 -0.8919  0.8015  0.8661
 9827SOL     OW32372   8.379   3.724   2.516  0.1170  0.5398  0.3380
 9827SOL    HW132373   8.325   3.765   2.585 -1.3760  0.1346 -0.5396
 9827SOL    HW232374   8.467   3.760   2.530 -0.4954  1.7028  1.4652
 9828SOL     OW32375   7.363   1.874   8.796  0.5272  0.0599  0.0121
 9828SOL    HW132376   7.379   1.916   8.881 -2.2018 -2.0963  1.7596
 9828SOL    HW232377   7.344   1.947   8.737  1.0169  1.5423  1.5963
 9829SOL     OW32378   6.624   9.191   5.402 -0.0790 -0.2727  0.5156
 9829SOL    HW132379   6.700   9.245   5.424 -1.8294  1.3781  3.0645
 9829SOL    HW232380   6.579   9.239   5.333  0.9104 -1.0341 -0.6899
 9830SOL     OW32381   8.752   7.921   3.901 -0.1934  0.4090 -0.3072
 9830SOL    HW132382   8.710   7.855   3.847 -0.2705  0.3783 -0.2114
 9830SOL    HW232383   8.833   7.942   3.856 -0.4493  0.6799 -0.6480
 9831SOL     OW32384   0.148   1.475   5.940 -0.2355 -0.4680 -0.2114
 9831SOL    HW132385   0.146   1.381   5.923 -0.4773 -0.4815 -0.1135
 9831SOL    HW232386   0.220   1.508   5.886  1.4849 -1.0680  1.5585
 9832SOL     OW32387   4.315   7.869   8.657 -0.3904  0.1832 -0.4293
 9832SOL    HW132388   4.283   7.895   8.571 -1.4383 -0.1974 -0.1594
 9832SOL    HW232389   4.236   7.856   8.710  0.1385 -1.9636 -0.0934
 9833SOL     OW32390   7.510   1.082   3.997  0.5340 -0.4845  0.1360
 9833SOL    HW132391   7.480   1.164   3.958  0.3536  0.0651  1.3869
 9833SOL    HW232392   7.492   1.016   3.930 -0.0422  0.3795 -0.5827
 9834SOL     OW32393   6.761   8.933   5.523  0.1484 -0.3330 -0.2431
 9834SOL    HW132394   6.788   8.880   5.448  2.8615  1.3975 -0.6104
 9834SOL    HW232395   6.728   9.015   5.484  0.9859  0.3284  0.4140
 9835SOL     OW32396   4.074   8.733   1.769  0.3069 -0.1759 -1.0791
 9835SOL    HW132397   4.005   8.781   1.722  1.0020  2.0400  0.0333
 9835SOL    HW232398   4.151   8.742   1.713  0.4962  0.2300 -0.7589
 9836SOL     OW32399   0.240   0.539   3.383  0.2213 -0.0929 -0.4759
 9836SOL    HW132400   0.330   0.519   3.357  0.2036 -1.3910  0.3945
 9836SOL    HW232401   0.188   0.465   3.350 -0.1824 -0.4497  0.9056
 9837SOL     OW32402   7.450   1.961   5.597  0.5357  0.3611 -0.1345
 9837SOL    HW132403   7.510   1.966   5.671  1.9513 -1.0122 -1.1028
 9837SOL    HW232404   7.396   2.040   5.603  1.5574  0.9792  1.5252
 9838SOL     OW32405   5.524   1.408   5.678 -0.0592  0.4416 -0.1386
 9838SOL    HW132406   5.557   1.463   5.749 -0.6637  0.3227  0.2401
 9838SOL    HW232407   5.432   1.434   5.668  0.2987  1.3073 -1.6781
 9839SOL     OW32408   1.738   4.655   0.582 -0.2491 -0.0655 -0.2259
 9839SOL    HW132409   1.739   4.675   0.488  2.1342  3.2904  0.3179
 9839SOL    HW232410   1.824   4.617   0.600 -0.0745  0.7830  0.8320
 9840SOL     OW32411   6.069   6.015   4.361 -0.1523  0.1680  0.2241
 9840SOL    HW132412   6.068   5.966   4.444 -0.1820 -0.4254 -0.1263
 9840SOL    HW232413   6.102   5.953   4.296 -0.0748  0.6498 -0.2061
 9841SOL     OW32414   1.597   1.668   0.073 -0.5781  0.3092 -0.0764
 9841SOL    HW132415   1.518   1.689   0.023  0.0185  1.4881 -0.5719
 9841SOL    HW232416   1.643   1.752   0.081  0.3563 -0.2562  0.6715
 9842SOL     OW32417   3.436   4.801   6.998 -0.2004 -0.1306  0.6132
 9842SOL    HW132418   3.488   4.800   6.918  0.2145  1.4151  0.8239
 9842SOL    HW232419   3.361   4.857   6.978 -0.4211 -0.2422  1.1088
 9843SOL     OW32420   5.537   3.375   0.380 -0.4298 -0.3679  0.5266
 9843SOL    HW132421   5.513   3.401   0.468 -2.1459  0.8344 -0.2458
 9843SOL    HW232422   5.479   3.302   0.359 -0.9151  0.1706 -0.0479
 9844SOL     OW32423   0.721   6.373   6.123 -0.6291 -0.2051 -0.2078
 9844SOL    HW132424   0.632   6.339   6.127 -0.5716 -0.6537 -1.9898
 9844SOL    HW232425   0.717   6.442   6.057 -0.0450  1.1199  1.0766
 9845SOL     OW32426   8.387   5.943   3.010  0.1068  0.4301 -0.7113
 9845SOL    HW132427   8.307   5.893   2.995  1.1378 -1.1934 -1.0013
 9845SOL    HW232428   8.453   5.878   3.034  1.7111  1.5304 -1.8991
 9846SOL     OW32429   1.343   1.053   3.683 -0.2326 -0.5232  0.1298
 9846SOL    HW132430   1.286   1.065   3.606 -0.2163 -1.2060  0.0024
 9846SOL    HW232431   1.432   1.064   3.648 -0.2400 -0.4637  0.1284
 9847SOL     OW32432   2.589   4.595   2.274 -0.2163 -0.4152 -0.5644
 9847SOL    HW132433   2.619   4.541   2.347  0.9189 -0.5237 -1.0910
 9847SOL    HW232434   2.663   4.597   2.213 -0.2671  1.6027 -0.6357
 9848SOL     OW32435   6.235   2.280   1.512  0.2621  0.3470 -0.0206
 9848SOL    HW132436   6.142   2.304   1.511  0.3284  0.7121  1.5139
 9848SOL    HW232437   6.235   2.186   1.492 -0.2448  0.7760 -2.3600
 9849SOL     OW32438   6.068   2.600   3.675 -0.0530 -0.7829  0.1516
 9849SOL    HW132439   6.127   2.529   3.651  0.4223 -0.2716 -0.2013
 9849SOL    HW232440   6.013   2.613   3.598  0.0290 -0.5962  0.1248
 9850SOL     OW32441   1.836   6.482   4.559  0.1770  0.2263 -0.0588
 9850SOL    HW132442   1.796   6.567   4.538 -2.5333 -1.2346 -1.2999
 9850SOL    HW232443   1.877   6.496   4.645 -1.6417  2.3347  0.5707
 9851SOL     OW32444   2.310   3.421   8.226  0.4664 -0.1664  0.5666
 9851SOL    HW132445   2.264   3.377   8.298 -0.1101 -0.5913 -0.0463
 9851SOL    HW232446   2.264   3.504   8.215 -0.0547 -0.5152  0.0693
 9852SOL     OW32447   2.238   3.860   6.111  0.5703  0.1882 -1.2376
 9852SOL    HW132448   2.279   3.843   6.196  2.8025  1.4242 -1.9854
 9852SOL    HW232449   2.145   3.872   6.131  0.7664 -1.1331  0.7832
 9853SOL     OW32450   6.884   5.623   6.608 -0.7359 -0.4461  0.6730
 9853SOL    HW132451   6.884   5.667   6.523  0.5585 -1.5164  0.1032
 9853SOL    HW232452   6.837   5.684   6.665 -2.8692 -0.3020 -1.0780
 9854SOL     OW32453   5.498   9.144   2.279  0.3789 -0.0750  0.0682
 9854SOL    HW132454   5.589   9.161   2.253  0.0030 -1.1492 -2.3033
 9854SOL    HW232455   5.499   9.054   2.311  0.0990 -0.2609 -0.4267
 9855SOL     OW32456   8.704   2.908   7.323 -0.2481 -0.5867  0.3639
 9855SOL    HW132457   8.781   2.889   7.377  0.2577  0.4681  0.0362
 9855SOL    HW232458   8.666   2.822   7.304  1.2272 -1.1738 -0.0197
 9856SOL     OW32459   4.279   5.821   6.463 -0.9860  0.0136  0.0357
 9856SOL    HW132460   4.221   5.767   6.516 -0.9795 -0.5963 -0.5610
 9856SOL    HW232461   4.355   5.766   6.446 -0.5588  0.5458  0.1898
 9857SOL     OW32462   9.022   7.841   9.180 -0.4361 -0.1384  0.0724
 9857SOL    HW132463   9.081   7.765   9.183 -0.0060  0.1837 -0.1498
 9857SOL    HW232464   8.944   7.808   9.135 -0.6413 -0.7074  0.8239
 9858SOL     OW32465   5.303   2.928   9.072  0.1483 -0.0768  0.4702
 9858SOL    HW132466   5.239   2.885   9.128 -0.7071  0.6818  0.1088
 9858SOL    HW232467   5.255   3.000   9.032  0.5638 -0.9408 -1.7117
 9859SOL     OW32468   5.376   6.122   8.863  0.8889  0.0304 -0.3332
 9859SOL    HW132469   5.282   6.103   8.862  0.3490  2.2851 -1.9929
 9859SOL    HW232470   5.405   6.097   8.950 -1.5594  0.6478  0.7360
 9860SOL     OW32471   7.877   5.330   1.070  0.2988 -0.5096  0.5902
 9860SOL    HW132472   7.831   5.258   1.026 -0.9345 -0.6403  1.9705
 9860SOL    HW232473   7.807   5.392   1.091  0.8557 -0.3637  2.1079
 9861SOL     OW32474   6.836   8.325   6.092  0.0851 -0.2165 -0.4451
 9861SOL    HW132475   6.839   8.421   6.096  0.9555 -0.2657  0.6509
 9861SOL    HW232476   6.810   8.299   6.180 -1.3496 -0.9763 -1.0603
 9862SOL     OW32477   5.233   6.406   0.651  0.5351 -0.0500 -0.4763
 9862SOL    HW132478   5.155   6.461   0.647  1.7174  1.8386  0.7745
 9862SOL    HW232479   5.294   6.447   0.589  1.1354 -0.4955 -0.1837
 9863SOL     OW32480   2.537   8.995   2.748  0.0901 -0.4148 -0.1493
 9863SOL    HW132481   2.596   8.965   2.679 -0.5356  0.1363 -0.9384
 9863SOL    HW232482   2.574   9.079   2.776  0.4651 -0.7390  0.3507
 9864SOL     OW32483   6.139   5.575   4.135  0.1894  0.0955  0.2005
 9864SOL    HW132484   6.125   5.490   4.178  0.0330  0.1553  0.2663
 9864SOL    HW232485   6.130   5.556   4.042  1.4695 -0.2291  0.1237
 9865SOL     OW32486   1.755   4.702   3.820  0.3810 -0.2144  0.2748
 9865SOL    HW132487   1.679   4.693   3.878  2.5219 -0.9626  3.2096
 9865SOL    HW232488   1.737   4.782   3.771 -1.5761  0.5581  2.0452
 9866SOL     OW32489   0.203   5.821   0.925 -0.0241  0.4644  0.1460
 9866SOL    HW132490   0.193   5.734   0.964 -1.7867  1.3978  1.9395
 9866SOL    HW232491   0.165   5.881   0.989  0.2033  2.4819 -1.4945
 9867SOL     OW32492   7.719   6.187   7.588  0.0183  0.2129 -0.4186
 9867SOL    HW132493   7.813   6.188   7.605 -0.1812  0.5684  0.7862
 9867SOL    HW232494   7.706   6.111   7.532  1.0509  0.2889 -0.7829
 9868SOL     OW32495   4.596   5.708   3.036  0.0168  0.3010 -0.1487
 9868SOL    HW132496   4.684   5.676   3.017  0.5259  1.7369 -0.3977
 9868SOL    HW232497   4.541   5.630   3.038  1.4109 -0.7023  0.7216
 9869SOL     OW32498   3.971   2.757   6.971 -0.0939 -0.3717 -0.1135
 9869SOL    HW132499   3.907   2.819   7.007  0.2629  0.2397 -0.5086
 9869SOL    HW232500   4.050   2.770   7.023 -0.6040 -1.9399  1.1318
 9870SOL     OW32501   8.826   2.677   2.223 -0.4089 -0.0605 -0.0665
 9870SOL    HW132502   8.847   2.614   2.154 -1.9838  1.0131 -1.6130
 9870SOL    HW232503   8.740   2.712   2.199 -0.2349  1.6379  1.5114
 9871SOL     OW32504   3.226   2.829   9.062 -0.4092  0.1942  0.0671
 9871SOL    HW132505   3.254   2.880   8.985  1.0301  2.3812  1.9106
 9871SOL    HW232506   3.171   2.890   9.111  2.0517  0.4514  2.7753
 9872SOL     OW32507   3.644   3.451   0.604  1.2141 -0.0121  0.4211
 9872SOL    HW132508   3.706   3.521   0.585 -0.4099  1.7716  1.3040
 9872SOL    HW232509   3.624   3.461   0.697  0.7080 -1.4638  0.4918
 9873SOL     OW32510   5.025   7.770   3.917 -0.4959  0.2425 -0.0838
 9873SOL    HW132511   5.107   7.730   3.947 -1.5409 -1.5867  0.4443
 9873SOL    HW232512   4.979   7.699   3.872 -0.1235  2.1670 -4.0037
 9874SOL     OW32513   2.926   4.077   0.236  0.2364 -0.1109  0.4432
 9874SOL    HW132514   2.995   4.081   0.302  0.3165 -0.4350  0.3844
 9874SOL    HW232515   2.914   4.167   0.207  1.8693 -0.2558 -0.8109
 9875SOL     OW32516   0.230   7.033   5.551 -0.6421  0.2056  0.0728
 9875SOL    HW132517   0.219   7.128   5.559 -1.0602  0.1096  0.6595
 9875SOL    HW232518   0.315   7.023   5.508  0.0776  0.8280  1.2973
 9876SOL     OW32519   3.139   6.855   3.616  0.6659  0.1868 -0.3201
 9876SOL    HW132520   3.226   6.829   3.646  0.0142 -0.3797  1.1750
 9876SOL    HW232521   3.127   6.943   3.650  0.2431 -0.1493  0.4278
 9877SOL     OW32522   0.025   1.907   8.783 -0.1639  0.0305  0.4145
 9877SOL    HW132523   0.093   1.843   8.807 -1.0253 -2.0420 -2.0945
 9877SOL    HW232524  -0.042   1.854   8.739 -1.8264  2.4650 -0.1594
 9878SOL     OW32525   3.523   3.582   1.556  0.0593 -0.0687 -0.2752
 9878SOL    HW132526   3.612   3.583   1.590 -0.3884  0.3620  0.9389
 9878SOL    HW232527   3.502   3.675   1.541 -0.4322 -0.1090  0.1347
 9879SOL     OW32528   5.640   6.402   7.389  0.6090  0.3584  0.4462
 9879SOL    HW132529   5.615   6.489   7.421  3.6537  1.9419 -1.0607
 9879SOL    HW232530   5.681   6.359   7.464 -1.0624  0.0964  1.2469
 9880SOL     OW32531   1.146   8.136   6.551 -0.0058 -0.3466  0.2583
 9880SOL    HW132532   1.113   8.116   6.463 -0.5313 -0.9167  0.5772
 9880SOL    HW232533   1.189   8.221   6.541  0.8799 -0.8921 -0.7836
 9881SOL     OW32534   7.233   4.535   8.416  0.6866  0.1266  0.4806
 9881SOL    HW132535   7.146   4.557   8.450  0.7520  0.5164  0.4026
 9881SOL    HW232536   7.262   4.461   8.469  0.3754  0.0985  0.6143
 9882SOL     OW32537   7.890   1.154   0.089 -0.4027  0.4595 -0.3842
 9882SOL    HW132538   7.879   1.238   0.044 -0.5438  1.4402  1.4161
 9882SOL    HW232539   7.941   1.175   0.167  2.3668 -1.6887 -1.4662
 9883SOL     OW32540   6.975   0.471   8.234 -0.4004  0.4464 -0.3270
 9883SOL    HW132541   7.069   0.488   8.226  0.0149 -1.8098 -0.9518
 9883SOL    HW232542   6.965   0.435   8.323 -1.0840  2.6768  0.5745
 9884SOL     OW32543   1.141   3.191   8.484  0.0177 -0.0371  0.0344
 9884SOL    HW132544   1.202   3.265   8.481 -1.6614  1.4660  1.1518
 9884SOL    HW232545   1.186   3.126   8.537  1.3016  0.3960 -0.4773
 9885SOL     OW32546   5.114   6.400   5.703  0.5166  0.4294 -0.3295
 9885SOL    HW132547   5.020   6.419   5.710  0.2547  0.3506 -2.8343
 9885SOL    HW232548   5.156   6.471   5.752 -0.8338  0.6458  0.5629
 9886SOL     OW32549   4.164   8.213   4.430  0.0047 -0.1091  0.2248
 9886SOL    HW132550   4.124   8.149   4.371 -0.9108  0.0747  0.6134
 9886SOL    HW232551   4.209   8.274   4.373 -1.0364  0.1775 -0.3053
 9887SOL     OW32552   8.399   1.535   0.186 -0.0433 -0.4276  1.0058
 9887SOL    HW132553   8.409   1.473   0.113  1.1649  1.3695 -0.4544
 9887SOL    HW232554   8.453   1.498   0.256  1.4177 -0.6254 -0.1547
 9888SOL     OW32555   3.696   2.916   0.258  0.4676 -0.5090  0.5855
 9888SOL    HW132556   3.786   2.946   0.250 -0.1679  1.8169  1.3091
 9888SOL    HW232557   3.701   2.837   0.312  2.0406 -0.3125  0.7657
 9889SOL     OW32558   1.683   1.109   3.313  0.8350 -0.5094 -0.2257
 9889SOL    HW132559   1.709   1.199   3.291  1.4661 -0.1908  1.6551
 9889SOL    HW232560   1.699   1.060   3.233 -2.5646  1.5535 -2.4535
 9890SOL     OW32561   3.647   1.782   5.505 -1.0890  0.0079  0.5326
 9890SOL    HW132562   3.646   1.704   5.450 -3.3927 -0.2064  0.7710
 9890SOL    HW232563   3.720   1.769   5.565 -1.2373 -1.8452  0.3627
 9891SOL     OW32564   1.693   5.994   6.646 -0.5756 -0.3490  0.0044
 9891SOL    HW132565   1.613   5.943   6.649 -1.0686 -0.2892 -4.5859
 9891SOL    HW232566   1.666   6.083   6.670 -1.7275 -0.5288 -0.5491
 9892SOL     OW32567   1.929   4.098   1.309  0.1516 -0.3951 -0.2944
 9892SOL    HW132568   1.907   4.067   1.221  0.7307  0.6060 -0.8067
 9892SOL    HW232569   1.943   4.192   1.299 -1.6620  0.1093  1.2283
 9893SOL     OW32570   4.101   0.162   1.609  0.0898  0.7666  0.1894
 9893SOL    HW132571   4.175   0.126   1.658  0.4739 -0.1817 -1.0347
 9893SOL    HW232572   4.041   0.194   1.676  0.4156 -0.8523  1.3110
 9894SOL     OW32573   5.156   7.429   8.319  0.2011 -0.1197  0.2852
 9894SOL    HW132574   5.187   7.376   8.246  0.7910 -2.0282  1.8373
 9894SOL    HW232575   5.226   7.493   8.333  0.2314  0.0592 -0.5836
 9895SOL     OW32576   9.137   5.055   0.607 -0.1688  0.1720  0.0002
 9895SOL    HW132577   9.068   5.003   0.646  0.0905  0.2717  0.5989
 9895SOL    HW232578   9.198   5.073   0.679  0.5008  0.0501 -0.5269
 9896SOL     OW32579   1.605   2.352   0.947 -0.5227  0.2451  0.1580
 9896SOL    HW132580   1.674   2.295   0.981 -0.2096  1.0142  0.8436
 9896SOL    HW232581   1.558   2.382   1.025  1.8054  4.1071  0.3247
 9897SOL     OW32582   0.809   3.436   6.436 -0.0769 -0.3273 -0.3026
 9897SOL    HW132583   0.811   3.437   6.532 -1.9868  0.0154 -0.2332
 9897SOL    HW232584   0.822   3.527   6.411  1.7556 -0.5890 -0.4629
 9898SOL     OW32585   3.054   6.409   3.110 -0.2134  0.3002 -0.1980
 9898SOL    HW132586   3.056   6.349   3.035 -0.7467  0.3762 -0.2760
 9898SOL    HW232587   3.102   6.363   3.178  0.2575  0.2197 -0.5809
 9899SOL     OW32588   8.050   0.153   2.497  0.6516  0.4804 -0.2874
 9899SOL    HW132589   8.012   0.148   2.585 -1.0214  0.1558 -0.9881
 9899SOL    HW232590   8.091   0.068   2.483 -1.0785 -0.3402 -0.6499
 9900SOL     OW32591   8.990   8.136   1.005 -0.1916  0.0552 -0.0073
 9900SOL    HW132592   9.013   8.158   1.095  0.9546 -0.8600 -0.0518
 9900SOL    HW232593   8.912   8.189   0.986  0.7286  1.7848  0.8343
 9901SOL     OW32594   5.250   4.785   0.509  0.2673  0.2248  0.6539
 9901SOL    HW132595   5.235   4.816   0.420  0.8974  1.4086  0.9384
 9901SOL    HW232596   5.286   4.696   0.498 -1.7539 -0.5519 -0.1724
 9902SOL     OW32597   2.552   2.804   5.315 -0.3390  0.4516  0.6544
 9902SOL    HW132598   2.516   2.858   5.385 -0.0652 -0.5674  1.6122
 9902SOL    HW232599   2.507   2.719   5.324  1.2851 -0.4131  1.0404
 9903SOL     OW32600   1.054   5.260   0.867  0.1262  0.5184 -0.5556
 9903SOL    HW132601   0.979   5.318   0.883 -0.6820 -0.6685  0.1317
 9903SOL    HW232602   1.071   5.219   0.951  1.1802  0.3087 -0.8579
 9904SOL     OW32603   5.729   4.202   1.685 -0.7600 -0.1043 -0.3268
 9904SOL    HW132604   5.776   4.127   1.721 -1.2894  0.8038  2.4693
 9904SOL    HW232605   5.796   4.269   1.673 -0.6872 -0.1959 -0.4373
 9905SOL     OW32606   5.783   8.220   4.420 -0.0533  0.2783  0.1533
 9905SOL    HW132607   5.749   8.223   4.509 -0.9226  0.4597 -0.1631
 9905SOL    HW232608   5.794   8.127   4.401 -0.4732  0.2060  0.2426
 9906SOL     OW32609   1.338   7.612   2.830  0.2644  0.2172 -0.4415
 9906SOL    HW132610   1.266   7.672   2.811 -0.1104 -0.1820 -0.2855
 9906SOL    HW232611   1.332   7.596   2.924  0.9402  0.6675 -0.3105
 9907SOL     OW32612   6.077   5.467   2.740 -0.2373  0.3904  0.1016
 9907SOL    HW132613   5.991   5.432   2.717 -0.4057 -3.4203  4.8811
 9907SOL    HW232614   6.132   5.390   2.752  2.4606  2.3777  1.7863
 9908SOL     OW32615   0.806   1.636   2.830 -0.6492 -0.1235  0.4503
 9908SOL    HW132616   0.790   1.708   2.891  0.2255  0.5414 -0.0799
 9908SOL    HW232617   0.810   1.558   2.885 -0.7469  0.3512  1.1395
 9909SOL     OW32618   3.925   2.453   8.046 -0.1684 -0.6480  0.1917
 9909SOL    HW132619   3.984   2.410   7.984 -0.1426  0.7881 -0.8203
 9909SOL    HW232620   3.979   2.467   8.124  0.5535 -0.2479 -0.3641
 9910SOL     OW32621   8.684   2.050   8.090 -0.2531 -0.5967 -0.3987
 9910SOL    HW132622   8.757   2.076   8.035  0.5544 -0.1648  0.8352
 9910SOL    HW232623   8.671   1.957   8.070  1.2770 -0.9338  0.0590
 9911SOL     OW32624   8.815   2.004   2.260 -0.4199 -0.5861  0.8997
 9911SOL    HW132625   8.858   1.982   2.178  0.4316 -2.4151  1.7624
 9911SOL    HW232626   8.743   2.062   2.236  0.2455 -0.5208 -1.0298
 9912SOL     OW32627   6.893   2.788   8.364  0.2336 -0.4723 -0.6293
 9912SOL    HW132628   6.854   2.729   8.428  2.8550 -2.1045 -0.3788
 9912SOL    HW232629   6.917   2.730   8.291  1.8426  0.4509 -0.8762
 9913SOL     OW32630   3.340   9.004   0.575  0.0842  0.0640  0.0357
 9913SOL    HW132631   3.399   8.928   0.578 -0.9955 -0.8985 -1.2647
 9913SOL    HW232632   3.387   9.068   0.522  0.6599 -0.0248  0.4285
 9914SOL     OW32633   7.975   7.058   5.685 -0.1785  0.6973 -0.0811
 9914SOL    HW132634   8.017   7.137   5.651 -0.5650  0.8693 -0.1694
 9914SOL    HW232635   7.956   7.006   5.607  1.1346 -0.0210  0.0696
 9915SOL     OW32636   5.821   2.436   4.421 -0.1750 -0.6203  0.1496
 9915SOL    HW132637   5.813   2.350   4.379  0.1467 -1.1418  1.1239
 9915SOL    HW232638   5.915   2.449   4.430 -0.2176 -0.0680 -0.1722
 9916SOL     OW32639   5.445   4.635   0.896  0.0970 -0.1260 -0.6989
 9916SOL    HW132640   5.454   4.549   0.855 -0.3710 -0.2730 -0.5022
 9916SOL    HW232641   5.526   4.648   0.944  0.1422 -0.4821 -0.6818
 9917SOL     OW32642   6.594   6.796   7.288  0.8257  0.0773  0.0412
 9917SOL    HW132643   6.532   6.808   7.360 -0.5754 -0.6631 -0.9816
 9917SOL    HW232644   6.627   6.706   7.299  0.9181  0.1064 -0.0001
 9918SOL     OW32645   0.886   1.604   6.352  0.4881 -0.2342  0.0284
 9918SOL    HW132646   0.834   1.552   6.291  0.9265 -1.2815  0.5113
 9918SOL    HW232647   0.903   1.686   6.306  1.0757 -1.1083 -1.3987
 9919SOL     OW32648   7.511   1.910   7.382  0.5010 -0.5985  0.2612
 9919SOL    HW132649   7.565   1.928   7.305  1.8832 -2.0860  0.8146
 9919SOL    HW232650   7.499   1.995   7.424  1.1928 -0.0302 -0.6605
 9920SOL     OW32651   2.655   4.070   5.894  0.3890 -0.1887  0.0652
 9920SOL    HW132652   2.708   4.044   5.818  1.0522  1.8516 -0.2389
 9920SOL    HW232653   2.657   3.994   5.952  2.1874 -0.8201 -0.7420
 9921SOL     OW32654   4.949   3.863   5.160 -0.0337  0.9072 -0.5088
 9921SOL    HW132655   4.872   3.807   5.153  0.7949 -0.1915 -1.2701
 9921SOL    HW232656   4.964   3.873   5.254 -0.8643  0.8024 -0.3622
 9922SOL     OW32657   8.202   5.972   7.588  0.7737 -0.0317 -0.3387
 9922SOL    HW132658   8.204   5.984   7.683  0.8697 -1.2398 -0.1692
 9922SOL    HW232659   8.216   6.060   7.553  0.4004  0.4930  0.7577
 9923SOL     OW32660   6.623   8.953   2.477  0.0577  0.0313  0.0613
 9923SOL    HW132661   6.642   8.870   2.432  0.3273  0.0781  0.0900
 9923SOL    HW232662   6.554   8.930   2.540  0.3541 -0.2408  0.2908
 9924SOL     OW32663   7.490   8.629   5.939 -0.4851 -0.5353 -1.1741
 9924SOL    HW132664   7.554   8.630   6.011 -0.4991 -2.1985 -1.0943
 9924SOL    HW232665   7.544   8.626   5.860 -0.4744  0.6617 -1.2279
 9925SOL     OW32666   7.791   8.084   2.198  0.8176 -0.5475 -0.2122
 9925SOL    HW132667   7.742   8.009   2.163 -0.8387  0.1336  0.5573
 9925SOL    HW232668   7.846   8.112   2.125 -0.0335 -1.2714 -1.1701
 9926SOL     OW32669   3.282   3.232   1.107  0.1220  0.5264 -0.1749
 9926SOL    HW132670   3.361   3.216   1.055  0.0501  0.2048 -0.1927
 9926SOL    HW232671   3.311   3.286   1.180  0.4589  0.0063  0.0810
 9927SOL     OW32672   2.383   1.355   0.354 -0.0607 -0.2178  0.7980
 9927SOL    HW132673   2.321   1.310   0.410 -0.6485 -0.0694  0.2732
 9927SOL    HW232674   2.336   1.432   0.321  0.6482  0.3178  1.0035
 9928SOL     OW32675   0.799   7.971   2.707 -0.0444  0.2690 -0.1453
 9928SOL    HW132676   0.777   7.895   2.653 -0.0020 -0.4148  0.7770
 9928SOL    HW232677   0.719   7.990   2.756 -0.2145  1.1535 -0.7628
 9929SOL     OW32678   1.601   8.328   8.670 -0.2105  0.5881 -0.4468
 9929SOL    HW132679   1.569   8.281   8.747  1.0418 -0.0573 -0.2822
 9929SOL    HW232680   1.665   8.268   8.631  2.4095  2.5805  0.4542
 9930SOL     OW32681   0.610   2.597   5.267  1.0021 -0.2120  0.7312
 9930SOL    HW132682   0.668   2.535   5.310 -1.3495 -1.6233  2.0614
 9930SOL    HW232683   0.524   2.580   5.305 -0.1540  2.4128 -0.4452
 9931SOL     OW32684   6.796   1.012   5.585 -0.2040  0.4105 -0.0347
 9931SOL    HW132685   6.813   1.023   5.491 -1.9312 -0.0293 -0.4481
 9931SOL    HW232686   6.732   0.941   5.589  0.4190 -0.1036  1.5548
 9932SOL     OW32687   4.353   5.627   4.655 -0.0527 -0.0466  0.0383
 9932SOL    HW132688   4.267   5.667   4.642 -0.0748  0.5164  1.6309
 9932SOL    HW232689   4.381   5.658   4.741  1.7683 -0.2058 -0.4526
 9933SOL     OW32690   7.445   8.258   1.824 -0.0919  0.4051 -0.2614
 9933SOL    HW132691   7.430   8.350   1.843 -0.9065  0.2002  0.1313
 9933SOL    HW232692   7.413   8.246   1.735 -3.6853 -0.2899  0.9690
 9934SOL     OW32693   2.944   8.625   6.978 -0.0196  0.1404 -0.2947
 9934SOL    HW132694   2.960   8.718   6.991  1.3363 -0.2648  1.3607
 9934SOL    HW232695   2.922   8.617   6.886 -2.0017  2.3077 -0.0999
 9935SOL     OW32696   2.420   7.492   3.871  0.2423 -0.2058  0.7641
 9935SOL    HW132697   2.485   7.425   3.850  0.4208  0.3406 -0.5329
 9935SOL    HW232698   2.470   7.572   3.881 -0.1273  0.0417  0.6765
 9936SOL     OW32699   4.022   2.197   5.796 -0.0365  0.0346  0.0942
 9936SOL    HW132700   4.062   2.166   5.715 -1.3865 -0.1116 -0.5493
 9936SOL    HW232701   4.075   2.158   5.865  0.7227 -0.4068 -0.7088
 9937SOL     OW32702   6.622   3.380   2.466 -0.1719 -0.0749 -0.1034
 9937SOL    HW132703   6.677   3.314   2.509 -0.3357 -0.7163 -0.8438
 9937SOL    HW232704   6.627   3.357   2.373 -2.3959 -0.7072 -0.1191
 9938SOL     OW32705   0.940   2.205   2.689 -0.1942  0.0936 -0.5233
 9938SOL    HW132706   0.962   2.269   2.622  0.5495 -0.8464 -1.2118
 9938SOL    HW232707   0.853   2.172   2.664 -0.2231  0.2502 -0.6293
 9939SOL     OW32708   7.207   5.233   2.510 -0.3365 -0.6530  0.7971
 9939SOL    HW132709   7.274   5.301   2.498 -0.3271 -0.3676  2.2443
 9939SOL    HW232710   7.231   5.165   2.447  0.1915  0.2738 -0.0484
 9940SOL     OW32711   8.447   6.881   7.716  0.4544 -0.2272 -0.0069
 9940SOL    HW132712   8.432   6.973   7.739 -0.8696 -0.8753  1.9645
 9940SOL    HW232713   8.542   6.870   7.724  0.7705  1.2036 -1.3724
 9941SOL     OW32714   1.161   3.440   5.372  0.0414 -0.2574  0.0763
 9941SOL    HW132715   1.196   3.437   5.461 -0.5620 -0.6207  0.3126
 9941SOL    HW232716   1.206   3.513   5.331  0.6778 -0.3831  0.5302
 9942SOL     OW32717   6.619   3.838   0.461  0.1602 -0.2731 -0.6902
 9942SOL    HW132718   6.664   3.880   0.535  0.0331 -2.4042  0.6675
 9942SOL    HW232719   6.529   3.826   0.491 -0.1283 -0.3490 -1.5588
 9943SOL     OW32720   6.045   7.475   2.139  0.7022 -0.4213 -0.2816
 9943SOL    HW132721   6.079   7.452   2.053 -1.7201 -0.1197 -1.4183
 9943SOL    HW232722   6.121   7.474   2.197  2.8736  1.8485 -2.8602
 9944SOL     OW32723   2.645   1.675   7.874  0.0123  0.6398 -0.3721
 9944SOL    HW132724   2.645   1.665   7.969 -0.3109 -2.1709 -0.6016
 9944SOL    HW232725   2.738   1.677   7.850  0.1468 -1.0662 -0.1370
 9945SOL     OW32726   8.687   7.538   3.263  0.1783 -0.3047  0.2480
 9945SOL    HW132727   8.636   7.485   3.201 -0.1823  0.6535 -0.2986
 9945SOL    HW232728   8.743   7.592   3.207  1.9749 -1.4713  0.8405
 9946SOL     OW32729   2.761   2.357   1.891  0.1005  0.2741 -0.2544
 9946SOL    HW132730   2.703   2.308   1.832 -0.7551  1.4887 -0.4617
 9946SOL    HW232731   2.783   2.294   1.960 -0.7371 -0.4893 -0.6598
 9947SOL     OW32732   4.692   2.016   4.595  0.0749 -0.0015 -0.1186
 9947SOL    HW132733   4.606   1.973   4.596 -0.2459  0.5153  2.6309
 9947SOL    HW232734   4.746   1.962   4.539 -1.7979 -0.8725 -1.1639
 9948SOL     OW32735   6.566   7.299   5.737  0.1428 -0.0606 -0.1211
 9948SOL    HW132736   6.628   7.300   5.664  0.9728 -0.4532  0.5621
 9948SOL    HW232737   6.594   7.370   5.794  0.2391 -0.5065  0.3995
 9949SOL     OW32738   5.418   1.951   7.735  0.5654 -0.3905 -0.3917
 9949SOL    HW132739   5.491   1.896   7.764  0.4730 -0.5032 -0.3668
 9949SOL    HW232740   5.347   1.928   7.795  1.1782  1.4403  1.1348
 9950SOL     OW32741   2.193   5.473   8.168  0.0717  0.4941 -0.1648
 9950SOL    HW132742   2.216   5.424   8.089  1.2659  0.9029 -0.0827
 9950SOL    HW232743   2.123   5.532   8.139 -0.9433 -0.7625 -0.4141
 9951SOL     OW32744   7.884   7.536   7.337  0.8254 -0.7127  0.3881
 9951SOL    HW132745   7.794   7.560   7.360  1.0790  0.9897 -0.2169
 9951SOL    HW232746   7.889   7.442   7.354 -1.7029 -1.3056 -1.4983
 9952SOL     OW32747   4.219   7.422   2.243 -0.7839 -0.2522 -0.3327
 9952SOL    HW132748   4.303   7.465   2.228 -1.5622  1.0396 -1.2390
 9952SOL    HW232749   4.154   7.491   2.230 -1.9372 -0.7152  2.3635
 9953SOL     OW32750   8.789   6.503   2.654 -0.2657  0.4013 -0.5530
 9953SOL    HW132751   8.695   6.519   2.653 -0.2151  1.1845  1.9481
 9953SOL    HW232752   8.828   6.587   2.677  1.1078  0.1618 -1.8414
 9954SOL     OW32753   5.233   4.584   3.459  0.2954 -0.1127 -0.0045
 9954SOL    HW132754   5.145   4.547   3.461  0.6733 -1.0707 -0.1886
 9954SOL    HW232755   5.271   4.558   3.543  0.1940  0.8565  0.3540
 9955SOL     OW32756   8.420   0.149   9.226  0.4512  0.4791 -0.3741
 9955SOL    HW132757   8.460   0.107   9.302  1.6505 -1.2455 -1.8576
 9955SOL    HW232758   8.483   0.216   9.199  0.8484 -0.0813 -0.8491
 9956SOL     OW32759   8.940   2.549   5.049 -0.3296  0.3347  0.4085
 9956SOL    HW132760   8.923   2.588   5.135 -0.2908 -1.3180  1.1966
 9956SOL    HW232761   9.031   2.521   5.054 -0.2148  0.5640 -0.3303
 9957SOL     OW32762   5.175   6.273   3.767  0.1634  0.7349  0.2954
 9957SOL    HW132763   5.199   6.364   3.747 -0.0960  1.0512  1.3781
 9957SOL    HW232764   5.249   6.239   3.816  1.7659 -0.7121 -2.8256
 9958SOL     OW32765   1.627   4.092   8.648 -0.0822 -0.6059  0.3134
 9958SOL    HW132766   1.566   4.160   8.619  0.8066  0.5961  1.1157
 9958SOL    HW232767   1.713   4.132   8.638  0.5297 -1.9342  0.0464
 9959SOL     OW32768   2.780   9.150   5.972 -0.4517 -0.2537 -0.1469
 9959SOL    HW132769   2.790   9.236   5.932 -2.2186  0.4479  0.8308
 9959SOL    HW232770   2.794   9.088   5.900  0.0385  0.8440 -1.0315
 9960SOL     OW32771   8.490   4.173   1.363 -0.0901 -0.2296  0.0348
 9960SOL    HW132772   8.537   4.198   1.283  2.3707  1.2863  1.8255
 9960SOL    HW232773   8.537   4.097   1.397  0.0679  0.2806  0.9991
 9961SOL     OW32774   0.730   2.418   5.988  0.1771 -0.0847  0.4830
 9961SOL    HW132775   0.807   2.404   5.933 -0.9756 -0.6026 -1.0593
 9961SOL    HW232776   0.729   2.513   6.005  0.4776  0.1098 -0.5245
 9962SOL     OW32777   2.551   4.749   6.854  0.2774 -0.3342  0.4028
 9962SOL    HW132778   2.636   4.792   6.868 -0.1340  0.3633  0.7751
 9962SOL    HW232779   2.549   4.679   6.920  1.8111 -2.2843 -1.4869
 9963SOL     OW32780   7.196   0.795   0.238 -0.1734  0.2181  0.6078
 9963SOL    HW132781   7.247   0.839   0.171 -2.8621  1.7235 -0.5956
 9963SOL    HW232782   7.205   0.850   0.316  1.2805 -0.4244  0.9315
 9964SOL     OW32783   2.258   2.015   5.586  0.2415  0.1551  0.1198
 9964SOL    HW132784   2.339   1.967   5.600 -0.1230 -0.5230 -0.0609
 9964SOL    HW232785   2.273   2.066   5.507  0.2530 -0.4874 -0.2932
 9965SOL     OW32786   1.937   1.111   7.995 -0.0800 -0.2557  0.0433
 9965SOL    HW132787   1.965   1.172   8.063 -0.2854  1.0313 -1.0041
 9965SOL    HW232788   1.842   1.107   8.004  0.0456 -1.7010  1.1405
 9966SOL     OW32789   1.045   1.058   5.168  0.0604 -0.3315 -0.4434
 9966SOL    HW132790   1.053   1.153   5.165  1.0024 -0.1870  2.6770
 9966SOL    HW232791   1.006   1.034   5.084 -3.1108  3.0864 -0.2083
 9967SOL     OW32792   0.186   1.086   8.007  0.3388 -0.1525  0.0071
 9967SOL    HW132793   0.221   1.156   7.952  2.4493 -0.1828  1.1748
 9967SOL    HW232794   0.263   1.052   8.053 -0.4697 -3.5760 -0.8387
 9968SOL     OW32795   6.093   2.148   3.194  0.6078  0.0823  0.6191
 9968SOL    HW132796   6.146   2.170   3.117  0.1100  0.9039  0.4952
 9968SOL    HW232797   6.003   2.144   3.160  0.6601 -2.3804  0.5960
 9969SOL     OW32798   7.665   4.848   4.764  0.2413  0.3822  0.2102
 9969SOL    HW132799   7.658   4.760   4.729 -0.9851  0.3753  0.4248
 9969SOL    HW232800   7.721   4.839   4.841 -0.3194 -0.3149  0.5496
 9970SOL     OW32801   1.483   3.373   8.771 -0.4071 -0.1697  0.5475
 9970SOL    HW132802   1.498   3.468   8.773 -0.3930 -0.1771  1.1267
 9970SOL    HW232803   1.548   3.339   8.711  0.1234  0.0994  0.9642
 9971SOL     OW32804   7.833   4.193   6.164 -0.2796  0.1065  0.8643
 9971SOL    HW132805   7.741   4.189   6.138 -0.1555  0.5690  0.3344
 9971SOL    HW232806   7.878   4.232   6.089  0.2129  0.7358  1.4696
 9972SOL     OW32807   1.424   6.827   9.126  0.1054 -0.7085 -0.1164
 9972SOL    HW132808   1.408   6.835   9.220  0.1784 -0.4972 -0.1222
 9972SOL    HW232809   1.505   6.876   9.111  0.0819 -0.7231 -0.2924
 9973SOL     OW32810   4.144   6.741   5.549  0.1873 -0.3239  0.0017
 9973SOL    HW132811   4.175   6.801   5.616  2.2254 -0.3264 -0.8735
 9973SOL    HW232812   4.075   6.790   5.503 -1.4506 -0.4268  2.1897
 9974SOL     OW32813   8.932   8.256   6.077 -0.0575 -0.1001  0.2106
 9974SOL    HW132814   8.977   8.334   6.043 -1.0472 -0.3786 -1.8331
 9974SOL    HW232815   8.860   8.292   6.129 -0.1982  0.3378 -0.2813
 9975SOL     OW32816   4.536   3.224   5.538 -0.1135 -0.3800 -0.0795
 9975SOL    HW132817   4.473   3.190   5.475 -0.3134 -3.3479  1.5451
 9975SOL    HW232818   4.489   3.225   5.621  1.1116  0.2634  0.6498
 9976SOL     OW32819   4.144   4.017   8.125  0.1309 -0.0715  0.1857
 9976SOL    HW132820   4.171   4.100   8.086  1.6754 -1.6386 -2.4373
 9976SOL    HW232821   4.048   4.016   8.115  0.1472  1.1151 -0.2803
 9977SOL     OW32822   2.777   0.499   5.441 -0.0336  0.0653  0.4949
 9977SOL    HW132823   2.708   0.561   5.467  1.0804  1.6449 -0.1454
 9977SOL    HW232824   2.787   0.513   5.347 -0.1538 -1.5578  0.2101
 9978SOL     OW32825   3.301   1.918   3.428  0.2303  0.2169 -0.7258
 9978SOL    HW132826   3.257   1.837   3.402  0.6827 -0.0948 -0.5302
 9978SOL    HW232827   3.313   1.910   3.523 -1.8942  1.5831 -0.2852
 9979SOL     OW32828   3.857   4.642   6.782 -0.2715  0.4167  0.5982
 9979SOL    HW132829   3.882   4.660   6.873  2.2484 -0.2182  0.1092
 9979SOL    HW232830   3.850   4.547   6.777 -0.2844  0.4418  0.1164
 9980SOL     OW32831   6.031   6.777   4.358 -0.0258  0.2912  0.1562
 9980SOL    HW132832   5.950   6.828   4.361  0.8834  1.8004  2.1523
 9980SOL    HW232833   6.090   6.829   4.304  0.7628  1.2336  1.8333
 9981SOL     OW32834   6.177   7.499   1.253  0.3132  0.5202 -0.1849
 9981SOL    HW132835   6.243   7.471   1.316 -0.8153  1.8623  1.6698
 9981SOL    HW232836   6.160   7.420   1.201  1.0051 -0.7713  1.4356
 9982SOL     OW32837   7.457   7.106   4.105 -0.1637  0.1411  0.0405
 9982SOL    HW132838   7.455   7.189   4.152 -1.4786  0.3422 -0.3325
 9982SOL    HW232839   7.440   7.040   4.173 -0.0529  0.2586  0.1822
 9983SOL     OW32840   3.222   7.153   0.559  0.0382 -0.5883  0.3979
 9983SOL    HW132841   3.168   7.201   0.497 -0.1661 -1.6972 -0.3128
 9983SOL    HW232842   3.178   7.163   0.643 -0.7321 -0.6638  0.0072
 9984SOL     OW32843   1.683   2.966   4.609  0.0687  0.2492 -0.2823
 9984SOL    HW132844   1.753   3.004   4.556 -0.8752  0.0252 -1.7494
 9984SOL    HW232845   1.691   2.871   4.597 -0.5071  0.2221 -0.5191
 9985SOL     OW32846   3.318   7.439   5.960 -0.7185 -0.5331 -0.5441
 9985SOL    HW132847   3.348   7.369   6.019 -0.7643 -0.8065 -0.8406
 9985SOL    HW232848   3.398   7.488   5.940 -0.8194 -0.0083  0.3014
 9986SOL     OW32849   7.172   7.487   8.029 -0.2626  0.6788 -0.1557
 9986SOL    HW132850   7.191   7.534   7.947  0.2032 -2.7597 -2.1939
 9986SOL    HW232851   7.256   7.482   8.074  0.3448 -0.6058 -1.3526
 9987SOL     OW32852   4.305   1.835   7.090 -0.4783  0.2500 -0.0274
 9987SOL    HW132853   4.264   1.784   7.161 -0.7583 -1.4336 -1.3242
 9987SOL    HW232854   4.399   1.823   7.103 -0.5007  0.6725  0.5513
 9988SOL     OW32855   4.996   5.562   5.783 -0.2713 -0.5743  0.7155
 9988SOL    HW132856   4.930   5.550   5.851 -0.3789  0.6500  0.8455
 9988SOL    HW232857   4.946   5.584   5.704 -0.2081 -2.7917 -0.0120
 9989SOL     OW32858   0.184   2.342   2.097  0.2324  0.2443 -0.5311
 9989SOL    HW132859   0.130   2.361   2.021  1.6014 -0.4701 -1.7356
 9989SOL    HW232860   0.136   2.274   2.144 -1.0553  1.3239 -0.2366
 9990SOL     OW32861   2.426   5.027   3.703 -0.7023  0.2670 -0.2133
 9990SOL    HW132862   2.366   5.098   3.681  0.2683  0.6749 -1.6442
 9990SOL    HW232863   2.513   5.067   3.698 -0.2039 -0.7645  0.0154
 9991SOL     OW32864   6.336   8.942   6.554 -0.3640  0.8533  0.1278
 9991SOL    HW132865   6.423   8.982   6.549 -0.6686  1.5549  0.3189
 9991SOL    HW232866   6.322   8.925   6.647  0.4757 -1.3516 -0.0857
 9992SOL     OW32867   8.292   2.402   5.596 -0.4519 -0.2502  0.1958
 9992SOL    HW132868   8.280   2.310   5.623 -2.3245  0.3074  1.4724
 9992SOL    HW232869   8.286   2.399   5.500  0.2455 -1.5300  0.1583
 9993SOL     OW32870   5.662   6.047   3.972 -0.1338 -0.0388  0.8931
 9993SOL    HW132871   5.632   6.002   3.892 -2.1614  0.2345  1.4399
 9993SOL    HW232872   5.757   6.054   3.961 -0.5732  3.0982 -3.1519
 9994SOL     OW32873   0.922   4.076   4.468 -0.0557 -0.0754 -0.0195
 9994SOL    HW132874   0.949   4.034   4.550  0.1956 -0.1226 -0.1255
 9994SOL    HW232875   0.876   4.008   4.420 -0.4546  0.0324  0.2034
 9995SOL     OW32876   2.966   7.492   4.728 -0.2166  0.0108  0.3846
 9995SOL    HW132877   2.907   7.540   4.669  0.3132  1.0679  0.6962
 9995SOL    HW232878   3.003   7.559   4.785 -0.8629 -1.0095  2.0700
 9996SOL     OW32879   6.861   4.846   3.324 -0.0261  0.3095  0.0694
 9996SOL    HW132880   6.832   4.775   3.268 -0.8923  0.0763  0.7964
 9996SOL    HW232881   6.955   4.854   3.305 -0.2882  0.2380 -1.3847
 9997SOL     OW32882   1.505   0.193   3.235  0.0793 -0.3015  0.4991
 9997SOL    HW132883   1.426   0.191   3.289 -0.0046 -1.1462  0.3684
 9997SOL    HW232884   1.498   0.114   3.181  0.9580 -0.3193  0.4026
 9998SOL     OW32885   2.636   8.614   7.907  0.4207  0.1491 -0.2540
 9998SOL    HW132886   2.588   8.640   7.986 -0.2075  0.6506 -0.7877
 9998SOL    HW232887   2.569   8.578   7.850  0.6003  1.2215 -1.1705
 9999SOL     OW32888   9.163   3.240   8.228  0.2233  0.2466  0.3603
 9999SOL    HW132889   9.142   3.318   8.177 -0.4007 -0.9858 -1.3528
 9999SOL    HW232890   9.095   3.236   8.295  0.0953  1.0075  0.2825
10000SOL     OW32891   3.135   9.137   1.183 -0.2585  0.9260  0.2721
10000SOL    HW132892   3.081   9.157   1.259 -1.2528 -0.1832 -0.1007
10000SOL    HW232893   3.203   9.079   1.216 -0.9039  0.1511  0.2618
10001SOL     OW32894   2.697   5.902   4.163 -0.0543  0.4200 -0.1531
10001SOL    HW132895   2.606   5.899   4.193 -0.5295  2.4831 -1.1885
10001SOL    HW232896   2.714   5.995   4.149  0.6555 -0.1722 -4.4534
10002SOL     OW32897   4.524   6.078   5.741  0.4673  0.1781  0.2240
10002SOL    HW132898   4.450   6.104   5.796  0.9345 -1.4173  1.6879
10002SOL    HW232899   4.485   6.027   5.670 -0.1583  2.4027 -1.1382
10003SOL     OW32900   7.970   8.761   5.780  0.3280 -0.0801  0.0514
10003SOL    HW132901   7.956   8.695   5.713 -1.4790 -0.5380  0.8114
10003SOL    HW232902   7.909   8.738   5.850 -0.7402  2.6308  0.1560
10004SOL     OW32903   1.188   4.721   5.606 -0.2539  0.2579  0.0242
10004SOL    HW132904   1.200   4.669   5.527 -0.1079  0.5089 -0.1192
10004SOL    HW232905   1.189   4.656   5.677 -1.7067 -0.1241 -0.2659
10005SOL     OW32906   4.748   6.334   0.548 -0.5137  0.7315  0.3979
10005SOL    HW132907   4.703   6.252   0.527  0.0621  0.2759  0.8686
10005SOL    HW232908   4.835   6.306   0.579 -0.2255  1.5335  0.3427
10006SOL     OW32909   4.053   0.915   3.842 -0.0239 -0.5001 -0.1062
10006SOL    HW132910   4.073   0.930   3.935  2.0114 -0.5887 -0.4795
10006SOL    HW232911   4.027   1.001   3.809 -1.7568 -0.6597  0.7267
10007SOL     OW32912   7.640   2.198   7.675  0.2597  0.0084 -0.2317
10007SOL    HW132913   7.715   2.185   7.617  1.4294 -0.0371  1.2399
10007SOL    HW232914   7.672   2.255   7.744 -0.4581 -1.5626  1.4967
10008SOL     OW32915   4.752   6.720   7.191  0.5160 -0.6164  0.5076
10008SOL    HW132916   4.739   6.720   7.096 -1.8513  1.5803  0.7183
10008SOL    HW232917   4.825   6.780   7.206 -0.5403  0.8199  0.1267
10009SOL     OW32918   8.894   1.082   7.786 -0.1080 -0.1001  0.1071
10009SOL    HW132919   8.888   1.152   7.722  1.0758  0.0488  0.1488
10009SOL    HW232920   8.825   1.102   7.850  0.6936  1.4507  0.5287
10010SOL     OW32921   1.675   1.795   6.892  0.2792 -0.4188  0.0617
10010SOL    HW132922   1.708   1.745   6.818  0.9570 -1.4464  1.0190
10010SOL    HW232923   1.754   1.823   6.939 -0.1516 -1.2151  1.2976
10011SOL     OW32924   7.865   5.317   3.861 -0.1240  0.3070 -0.5533
10011SOL    HW132925   7.784   5.267   3.852 -0.4950  0.0733  2.8988
10011SOL    HW232926   7.923   5.281   3.794 -2.1816 -0.8969 -1.7816
10012SOL     OW32927   1.906   0.607   5.952  0.2524 -0.0785  0.6089
10012SOL    HW132928   1.878   0.522   5.985 -0.2428 -0.1390  0.0467
10012SOL    HW232929   1.977   0.587   5.891  1.1285  0.0290  1.5752
10013SOL     OW32930   8.448   2.478   4.267 -0.1366 -0.3059  0.2298
10013SOL    HW132931   8.502   2.403   4.241 -1.6740 -0.7868 -1.8164
10013SOL    HW232932   8.446   2.534   4.189 -3.0824 -0.6404 -0.0220
10014SOL     OW32933   9.263   9.035   8.584  0.1646  0.1172  0.1780
10014SOL    HW132934   9.308   8.962   8.626 -1.2813 -0.3355  1.0145
10014SOL    HW232935   9.232   9.090   8.656 -1.0624  0.1271 -0.3327
10015SOL     OW32936   1.983   5.318   8.814 -0.3436 -0.2112  0.0457
10015SOL    HW132937   2.018   5.306   8.902  0.2203  1.2403  0.0421
10015SOL    HW232938   2.048   5.279   8.757  1.0386  1.9395  0.0777
10016SOL     OW32939   3.789   3.100   1.066  0.8989  0.2342 -0.0211
10016SOL    HW132940   3.697   3.122   1.077  0.5934 -0.7896 -0.4395
10016SOL    HW232941   3.836   3.181   1.085 -0.0962  0.8158 -0.0195
10017SOL     OW32942   4.210   6.474   3.331 -0.0002  0.0889  0.0136
10017SOL    HW132943   4.140   6.472   3.396  1.0453  2.4803  1.3827
10017SOL    HW232944   4.287   6.504   3.380  0.8429  2.0168 -2.2613
10018SOL     OW32945   2.652   7.356   3.511 -0.5888  0.4346 -0.0787
10018SOL    HW132946   2.725   7.418   3.505 -0.2105 -0.1087 -4.9401
10018SOL    HW232947   2.689   7.278   3.552  0.3594  1.5669  1.2872
10019SOL     OW32948   5.971   4.787   4.557  0.2357 -0.3543  0.0219
10019SOL    HW132949   5.913   4.719   4.592 -1.1292  0.9585  0.4096
10019SOL    HW232950   5.973   4.770   4.462 -1.0139 -0.2673 -0.0338
10020SOL     OW32951   7.996   8.716   3.676  0.4990 -0.8881 -0.1101
10020SOL    HW132952   7.978   8.740   3.585  0.0558 -1.5571 -0.2026
10020SOL    HW232953   7.920   8.665   3.704 -0.4149  1.1683  1.3605
10021SOL     OW32954   0.538   9.245   7.858  0.4143 -0.2343 -0.2437
10021SOL    HW132955   0.520   9.259   7.951  3.1586 -0.6265  0.4208
10021SOL    HW232956   0.481   9.308   7.813  0.9942  1.9134  1.8297
10022SOL     OW32957   7.020   2.338   7.135 -0.4517  0.5389 -0.5601
10022SOL    HW132958   7.051   2.427   7.146  3.1159 -0.2970 -2.3262
10022SOL    HW232959   7.030   2.298   7.222 -1.3067  1.5983  0.0477
10023SOL     OW32960   3.509   6.330   8.244  0.3012  0.2704  0.1550
10023SOL    HW132961   3.418   6.359   8.254  0.3907  0.5662  0.1250
10023SOL    HW232962   3.546   6.390   8.180  1.0556  1.3801  1.5626
10024SOL     OW32963   7.570   7.418   3.702  0.0416  0.2971 -0.6947
10024SOL    HW132964   7.661   7.448   3.703 -0.3502  1.5622  0.6727
10024SOL    HW232965   7.537   7.444   3.616  1.3920 -1.6664 -1.8856
10025SOL     OW32966   5.732   7.749   2.054 -0.0685  0.3305  0.1436
10025SOL    HW132967   5.742   7.658   2.083  0.1906  0.5491  0.7632
10025SOL    HW232968   5.733   7.800   2.135 -1.5964  0.7788 -0.0881
10026SOL     OW32969   7.416   6.747   4.511 -0.0342 -0.2640  0.1798
10026SOL    HW132970   7.442   6.813   4.575  1.7030 -1.3191  0.6379
10026SOL    HW232971   7.415   6.794   4.428  0.1699  0.5664  0.6335
10027SOL     OW32972   5.187   0.078   8.683 -0.3652  0.4677  0.2641
10027SOL    HW132973   5.205   0.172   8.684  0.3062  0.3800 -1.0540
10027SOL    HW232974   5.222   0.048   8.599  0.4479 -1.1554  1.1289
10028SOL     OW32975   5.923   4.381   4.920 -0.0741  0.5372 -0.2753
10028SOL    HW132976   5.852   4.401   4.981  0.1193  0.4954 -0.0376
10028SOL    HW232977   5.901   4.295   4.884  0.3412  0.1044  0.4975
10029SOL     OW32978   4.226   2.133   8.740 -0.0173  0.2977  0.0002
10029SOL    HW132979   4.292   2.185   8.694  0.4151  0.6259  0.9811
10029SOL    HW232980   4.189   2.076   8.672  0.2619  1.1188 -0.8615
10030SOL     OW32981   8.654   3.358   0.028 -0.5399 -0.2636  0.6599
10030SOL    HW132982   8.728   3.376  -0.031  0.5017 -3.0228  0.9796
10030SOL    HW232983   8.581   3.338  -0.030  0.7522 -4.0720  0.0422
10031SOL     OW32984   4.890   0.347   0.672 -0.0251 -0.3997 -0.6392
10031SOL    HW132985   4.885   0.443   0.673  0.9243 -0.3366  0.2649
10031SOL    HW232986   4.838   0.320   0.748 -0.4281 -0.6270 -0.9874
10032SOL     OW32987   9.050   4.047   0.205 -0.1928  0.1638  0.9457
10032SOL    HW132988   9.053   3.985   0.278  1.1946 -1.5775 -0.5251
10032SOL    HW232989   9.087   4.000   0.131 -1.2200  2.0041 -0.8342
10033SOL     OW32990   3.736   1.995   1.183  0.0604  0.3259  0.3618
10033SOL    HW132991   3.828   2.014   1.196  0.2069 -0.3845  0.3947
10033SOL    HW232992   3.717   2.026   1.094  0.0620  1.4341  0.7336
10034SOL     OW32993   2.860   0.770   8.897 -0.4441  0.0909  0.3605
10034SOL    HW132994   2.873   0.733   8.984  0.0086  0.9191  0.6540
10034SOL    HW232995   2.774   0.813   8.902 -0.2088  0.5508  0.5579
10035SOL     OW32996   5.691   2.801   1.010 -0.1069 -0.1808 -0.3743
10035SOL    HW132997   5.731   2.726   1.055  0.6473 -0.3970 -1.3681
10035SOL    HW232998   5.710   2.876   1.067  0.2799 -0.5452 -0.0163
10036SOL     OW32999   2.317   7.243   2.188 -0.1081  0.0055 -0.1834
10036SOL    HW133000   2.272   7.183   2.128 -1.4314  0.9444 -0.1578
10036SOL    HW233001   2.408   7.214   2.186 -0.6339 -1.7421 -0.4859
10037SOL     OW33002   7.369   2.116   8.958 -0.7971 -0.5741 -0.1677
10037SOL    HW133003   7.445   2.161   8.921 -0.1613 -2.1644 -0.9173
10037SOL    HW233004   7.359   2.153   9.045  0.0533  0.5711 -0.5381
10038SOL     OW33005   1.328   3.868   4.339 -0.0973  0.2090 -0.2964
10038SOL    HW133006   1.255   3.840   4.284 -0.2181  0.3435 -0.2064
10038SOL    HW233007   1.406   3.853   4.286 -0.2807  1.2741 -0.8948
10039SOL     OW33008   4.123   5.187   3.946  0.2052 -0.5943  0.5800
10039SOL    HW133009   4.077   5.121   3.894  0.3018  1.4067 -2.3037
10039SOL    HW233010   4.066   5.203   4.021 -0.7363 -2.5330  0.3293
10040SOL     OW33011   7.313   2.877   0.056  0.0183 -0.1325  0.2332
10040SOL    HW133012   7.323   2.848  -0.034 -0.2398  0.6446 -0.0593
10040SOL    HW233013   7.305   2.797   0.107 -0.1397 -0.5711 -0.4720
10041SOL     OW33014   5.589   9.050   5.162 -0.1383 -0.1147  0.2748
10041SOL    HW133015   5.602   8.959   5.135 -1.5853 -0.0321 -0.8074
10041SOL    HW233016   5.517   9.047   5.225 -0.7717  0.3701 -0.4174
10042SOL     OW33017   3.246   2.553   4.264 -0.0671 -0.4430 -0.0263
10042SOL    HW133018   3.282   2.533   4.350  0.9378 -2.4619 -0.8573
10042SOL    HW233019   3.170   2.495   4.254 -0.1838 -0.2217 -0.5154
10043SOL     OW33020   6.429   1.000   6.460 -0.2769  0.9685  0.3230
10043SOL    HW133021   6.440   1.094   6.478  0.3366  0.6998  1.4510
10043SOL    HW233022   6.466   0.957   6.537  0.5410 -0.2269 -0.7063
10044SOL     OW33023   8.745   9.019   6.589  0.4440 -0.1911  0.1605
10044SOL    HW133024   8.663   8.981   6.620  0.5706 -1.3449 -0.8618
10044SOL    HW233025   8.795   8.945   6.556  1.6994  0.5688  0.3071
10045SOL     OW33026   6.696   1.755   0.131 -0.0110 -1.4994 -0.8592
10045SOL    HW133027   6.604   1.744   0.109 -1.0075  0.6652  1.6148
10045SOL    HW233028   6.724   1.831   0.080  0.3012 -1.8804 -1.2669
10046SOL     OW33029   6.060   1.080   6.791 -0.5326 -0.3829  0.0086
10046SOL    HW133030   6.083   1.042   6.706 -0.9416 -2.2739  0.6868
10046SOL    HW233031   6.049   1.173   6.774  1.4407 -0.3833 -1.5831
10047SOL     OW33032   6.813   7.637   2.145 -0.4884 -0.9419 -0.2364
10047SOL    HW133033   6.894   7.601   2.108  0.1829 -0.4490  0.7178
10047SOL    HW233034   6.767   7.560   2.180  0.4961 -1.0223  0.9496
10048SOL     OW33035   2.204   1.983   3.972 -0.3159  0.1911  0.7132
10048SOL    HW133036   2.143   2.052   3.997  0.9059  0.5126  3.0757
10048SOL    HW233037   2.153   1.902   3.982 -0.3895  0.4427  2.7844
10049SOL     OW33038   7.055   5.876   5.072 -0.2326 -0.6545 -0.3377
10049SOL    HW133039   7.107   5.810   5.118 -0.6005 -1.3084 -0.8272
10049SOL    HW233040   7.073   5.859   4.979  0.8951  0.9570 -0.4560
10050SOL     OW33041   2.181   7.711   7.640  0.0214  0.3102  0.8859
10050SOL    HW133042   2.139   7.677   7.561 -0.2661  1.1685  0.6561
10050SOL    HW233043   2.256   7.760   7.608  1.9703 -2.1561  1.3439
10051SOL     OW33044   0.138   5.481   5.592 -0.0072 -0.0644 -0.4941
10051SOL    HW133045   0.108   5.461   5.681  1.7737 -2.9090 -0.4113
10051SOL    HW233046   0.065   5.456   5.536 -0.1834 -0.7739  0.0397
10052SOL     OW33047   6.149   4.668   8.016 -0.0631  0.4159  0.2571
10052SOL    HW133048   6.110   4.662   8.103  0.4715 -1.7375  0.3980
10052SOL    HW233049   6.091   4.617   7.960 -0.9440  2.5869 -0.9137
10053SOL     OW33050   8.399   1.802   2.961  0.6052  0.0770  0.2525
10053SOL    HW133051   8.380   1.844   2.878  2.2421  0.6861  0.1432
10053SOL    HW233052   8.317   1.758   2.986  0.2268 -0.5209 -1.8838
10054SOL     OW33053   2.362   6.440   8.710  0.1966  0.5020  0.2244
10054SOL    HW133054   2.418   6.497   8.657 -1.3411  1.5277 -0.3817
10054SOL    HW233055   2.278   6.438   8.664 -0.5698 -0.2464  1.5538
10055SOL     OW33056   0.030   4.222   6.163 -0.2081  0.4790  0.4343
10055SOL    HW133057  -0.058   4.190   6.183 -0.2740  0.3297 -0.0813
10055SOL    HW233058   0.066   4.158   6.101  1.3980 -1.1364  2.8219
10056SOL     OW33059   1.390   4.176   3.205  0.1074 -0.1026  0.5668
10056SOL    HW133060   1.318   4.215   3.254 -0.9414 -1.7692  0.4285
10056SOL    HW233061   1.405   4.236   3.132 -1.0524  0.3350  0.6737
10057SOL     OW33062   5.983   5.015   5.796 -0.1789  0.2198  0.1277
10057SOL    HW133063   6.025   5.102   5.794 -0.6070  0.4264 -0.1756
10057SOL    HW233064   6.023   4.968   5.723 -1.5312  0.9378 -1.1364
10058SOL     OW33065   7.423   2.830   5.278 -0.0215 -0.4582  0.7692
10058SOL    HW133066   7.463   2.852   5.194 -1.8834 -0.4003 -0.1429
10058SOL    HW233067   7.377   2.909   5.305 -1.8454 -1.3177  0.3703
10059SOL     OW33068   2.478   1.141   1.800  0.0115 -0.3627 -0.4613
10059SOL    HW133069   2.489   1.199   1.724 -2.4241  1.1717  0.2706
10059SOL    HW233070   2.404   1.086   1.778 -0.5534 -0.0845  0.6812
10060SOL     OW33071   5.714   2.664   4.095 -0.7629  0.3987 -0.3972
10060SOL    HW133072   5.742   2.617   4.017  0.6792 -1.0063  0.8995
10060SOL    HW233073   5.725   2.757   4.071  0.6123 -0.0114 -1.5379
10061SOL     OW33074   2.342   3.371   6.811  0.3682  0.1571  0.0116
10061SOL    HW133075   2.267   3.401   6.862  0.8135  0.3868  0.5411
10061SOL    HW233076   2.308   3.301   6.756 -0.0813 -0.1923  0.7307
10062SOL     OW33077   5.483   5.586   1.798  0.5136  0.0812  0.0541
10062SOL    HW133078   5.475   5.671   1.840  0.6829  0.3795 -0.5114
10062SOL    HW233079   5.563   5.591   1.746 -0.4237  0.2178 -1.4193
10063SOL     OW33080   2.525   2.826   8.214  0.0766  0.0005  0.3033
10063SOL    HW133081   2.547   2.784   8.131  1.6441  2.1631 -0.4852
10063SOL    HW233082   2.509   2.754   8.274 -0.3048 -1.6440 -1.6454
10064SOL     OW33083   6.725   1.989   3.879  0.0172 -0.3191  0.0697
10064SOL    HW133084   6.708   1.918   3.940  1.7503 -0.6069  0.2897
10064SOL    HW233085   6.784   2.048   3.927  0.6151 -0.0401 -0.9619
10065SOL     OW33086   8.425   6.377   5.188 -0.3825  0.1083 -1.0610
10065SOL    HW133087   8.386   6.310   5.244  2.0700  1.0182  1.9839
10065SOL    HW233088   8.383   6.458   5.214 -0.5092  0.3154 -1.8827
10066SOL     OW33089   5.101   2.182   0.036 -0.5835 -0.1431  0.0176
10066SOL    HW133090   5.130   2.160  -0.053  1.0882 -0.1573  0.5487
10066SOL    HW233091   5.017   2.135   0.045 -0.7071 -0.2647 -1.4836
10067SOL     OW33092   2.459   3.600   5.116  0.3390  0.0228  0.3754
10067SOL    HW133093   2.549   3.633   5.110  0.7775 -0.1833  3.9702
10067SOL    HW233094   2.469   3.505   5.113  0.0084  0.0024 -0.7919
10068SOL     OW33095   5.569   2.202   5.924 -0.6669  0.1471  0.2220
10068SOL    HW133096   5.606   2.179   5.839  1.2843  1.5947  0.6022
10068SOL    HW233097   5.507   2.273   5.906  1.5547  2.1955  0.1720
10069SOL     OW33098   1.783   3.373   0.334  0.7560  0.3733  0.2275
10069SOL    HW133099   1.692   3.351   0.311  0.6029  0.3595  0.8249
10069SOL    HW233100   1.808   3.307   0.399  1.3001  0.1943 -0.1573
10070SOL     OW33101   3.691   7.723   6.669 -0.1340 -0.1385  0.1307
10070SOL    HW133102   3.723   7.662   6.604  1.4632 -1.7234  2.2546
10070SOL    HW233103   3.598   7.702   6.679 -0.0170 -0.9766 -0.4743
10071SOL     OW33104   8.534   8.757   6.262 -0.7124 -0.2140  0.2242
10071SOL    HW133105   8.467   8.816   6.229  0.1444 -0.3719 -1.9617
10071SOL    HW233106   8.510   8.742   6.354 -2.4341  1.3850  0.0887
10072SOL     OW33107   4.091   7.250   5.872 -0.2805 -0.4774  0.3800
10072SOL    HW133108   4.028   7.256   5.800 -0.6770  3.5731  0.8674
10072SOL    HW233109   4.170   7.292   5.838  1.2437 -2.7754  0.8283
10073SOL     OW33110   3.126   1.595   0.377  0.2175 -0.4247  0.1094
10073SOL    HW133111   3.142   1.546   0.296  0.3078  0.3793 -0.3665
10073SOL    HW233112   3.202   1.574   0.432  1.3615  0.8484 -0.9182
10074SOL     OW33113   7.385   2.001   6.171 -0.1978 -1.0310 -0.8206
10074SOL    HW133114   7.301   1.969   6.138 -0.4573 -1.6206  0.3669
10074SOL    HW233115   7.365   2.042   6.255  0.5854 -0.4292 -0.9110
10075SOL     OW33116   4.538   5.433   7.708  0.0129  0.5924  0.2255
10075SOL    HW133117   4.470   5.489   7.671 -0.3783 -0.8187 -1.3538
10075SOL    HW233118   4.619   5.466   7.671 -0.1492  0.5205 -0.2025
10076SOL     OW33119   2.831   2.301   6.576 -0.3374  0.6741 -0.0210
10076SOL    HW133120   2.910   2.353   6.558  0.5342 -0.3905  0.6170
10076SOL    HW233121   2.843   2.220   6.526 -1.7304  1.0742 -1.0798
10077SOL     OW33122   2.525   2.223   8.663  0.2826  0.5529 -0.0076
10077SOL    HW133123   2.545   2.149   8.605 -0.7296  0.5587 -0.3679
10077SOL    HW233124   2.557   2.300   8.616 -0.4786  0.5505 -0.5454
10078SOL     OW33125   7.501   2.833   0.670  0.0859 -0.0940  0.4662
10078SOL    HW133126   7.560   2.864   0.738  0.4401 -0.0323  0.1333
10078SOL    HW233127   7.443   2.770   0.715  0.3506 -0.0956  0.8069
10079SOL     OW33128   3.971   2.129   6.794  0.5378  0.3118 -0.0815
10079SOL    HW133129   3.988   2.215   6.832  1.4441 -0.4026  1.2417
10079SOL    HW233130   4.056   2.102   6.758 -0.2073  0.7985 -2.3792
10080SOL     OW33131   3.559   0.812   7.687 -0.2230  0.7568 -0.2735
10080SOL    HW133132   3.641   0.852   7.660 -0.5203 -0.1203 -2.6662
10080SOL    HW233133   3.584   0.726   7.721  0.0099  1.2749  0.9063
10081SOL     OW33134   4.183   2.411   2.442  0.1995  0.1569  0.6488
10081SOL    HW133135   4.273   2.426   2.472  0.4391 -2.1211  1.2732
10081SOL    HW233136   4.129   2.464   2.501  1.0406  0.4269  1.1897
10082SOL     OW33137   9.254   5.249   7.512  0.2928  0.2569 -0.3695
10082SOL    HW133138   9.198   5.265   7.588  0.6081 -0.7580  0.1024
10082SOL    HW233139   9.215   5.172   7.470  0.5827  0.3335 -0.7778
10083SOL     OW33140   8.579   4.742   6.453 -0.2083 -0.0762 -0.2255
10083SOL    HW133141   8.556   4.696   6.533 -2.0635  1.1328  0.0036
10083SOL    HW233142   8.515   4.712   6.388 -1.7190  2.3117  0.0292
10084SOL     OW33143   4.344   5.230   6.463  0.0452 -0.0792  0.0295
10084SOL    HW133144   4.436   5.252   6.470  0.0065 -0.3074  1.5046
10084SOL    HW233145   4.333   5.152   6.518 -1.1016  0.1806  0.2034
10085SOL     OW33146   6.038   4.760   8.873 -0.1879 -0.5213 -0.1559
10085SOL    HW133147   6.029   4.668   8.896  0.0018 -0.1814  1.3935
10085SOL    HW233148   6.130   4.770   8.847 -0.5512 -1.0329 -1.7578
10086SOL     OW33149   3.189   3.329   5.699  0.0853  0.0641 -0.1307
10086SOL    HW133150   3.216   3.402   5.755  0.0253  0.9551 -1.2227
10086SOL    HW233151   3.128   3.368   5.636 -1.0945 -1.2327  0.1618
10087SOL     OW33152   3.374   4.633   9.076 -0.0518  0.4530  0.4818
10087SOL    HW133153   3.346   4.622   8.985 -2.3800 -1.7788  1.3644
10087SOL    HW233154   3.465   4.604   9.077  0.5357  1.9957 -1.3540
10088SOL     OW33155   9.242   2.132   9.229  0.1921  0.2608  0.0358
10088SOL    HW133156   9.311   2.066   9.240 -0.8484 -0.8525  0.1596
10088SOL    HW233157   9.242   2.152   9.135  3.1196  3.0939  0.4527
10089SOL     OW33158   8.733   0.403   6.232  0.2166  0.0372  0.2079
10089SOL    HW133159   8.747   0.321   6.184 -0.0430 -0.6846  1.3170
10089SOL    HW233160   8.681   0.377   6.308  0.5378  1.1531  0.8286
10090SOL     OW33161   5.185   3.055   4.281 -0.2564  0.2993 -0.2239
10090SOL    HW133162   5.250   3.124   4.268  0.4482 -0.4773 -1.0294
10090SOL    HW233163   5.215   3.008   4.359 -0.8843  1.0368  0.4851
10091SOL     OW33164   0.164   7.790   8.169  0.1402  0.2076 -0.1867
10091SOL    HW133165   0.248   7.749   8.148 -0.1480 -1.4543  1.5971
10091SOL    HW233166   0.184   7.856   8.234  0.2006  0.7002 -0.6967
10092SOL     OW33167   7.801   2.074   1.721  0.0115 -0.4129 -0.0262
10092SOL    HW133168   7.760   2.160   1.714  1.9957  0.5099 -1.6191
10092SOL    HW233169   7.846   2.076   1.805  1.1337  0.6955 -0.6074
10093SOL     OW33170   1.381   0.897   4.388  0.0939 -0.1717 -0.1201
10093SOL    HW133171   1.403   0.985   4.418  0.7566  0.5816 -2.5921
10093SOL    HW233172   1.428   0.839   4.448  1.6733  1.2225  0.0752
10094SOL     OW33173   3.047   1.317   5.887 -0.0168  0.1630 -0.5561
10094SOL    HW133174   3.077   1.384   5.826 -0.7666  1.6019  0.6022
10094SOL    HW233175   2.954   1.308   5.869 -0.5048  1.4237  1.0503
10095SOL     OW33176   8.596   6.180   2.025  0.0893  0.0447 -0.0693
10095SOL    HW133177   8.650   6.129   1.965 -0.0017  0.4574 -0.5015
10095SOL    HW233178   8.599   6.131   2.107 -0.6973 -1.1403 -0.7170
10096SOL     OW33179   3.326   7.227   1.583 -0.0506 -0.0504 -0.4616
10096SOL    HW133180   3.255   7.212   1.644  0.3926  0.0428  0.0797
10096SOL    HW233181   3.295   7.188   1.501 -1.6984  1.9904 -0.8976
10097SOL     OW33182   0.083   2.841   5.120  0.0206  0.9824 -0.5795
10097SOL    HW133183   0.037   2.921   5.096  0.1100  1.1203 -0.2870
10097SOL    HW233184   0.075   2.785   5.043 -1.7121  0.5242 -0.1370
10098SOL     OW33185   1.818   1.271   2.585 -0.2139 -0.0104  0.3058
10098SOL    HW133186   1.752   1.202   2.587  1.5087 -1.7782 -0.1756
10098SOL    HW233187   1.866   1.260   2.668  0.6313  0.0291 -0.1697
10099SOL     OW33188   5.697   3.872   3.015 -0.9149  0.7162  0.3985
10099SOL    HW133189   5.768   3.856   2.954 -2.6188 -2.5739 -0.9698
10099SOL    HW233190   5.662   3.957   2.988  0.4423  0.8685 -1.0469
10100SOL     OW33191   7.746   8.661   1.331  0.5472  0.2326  0.2451
10100SOL    HW133192   7.788   8.655   1.417  0.7938  0.9705  0.1845
10100SOL    HW233193   7.719   8.571   1.311 -1.4623  0.3490  2.0434
10101SOL     OW33194   1.921   3.795   0.653  0.0442  0.0349 -0.6713
10101SOL    HW133195   1.923   3.728   0.585  0.0144 -0.7029  0.0428
10101SOL    HW233196   2.009   3.831   0.654 -0.4059  1.3128 -2.3129
10102SOL     OW33197   3.368   8.313   5.372  0.4503  0.1518  0.0930
10102SOL    HW133198   3.358   8.255   5.297  0.0238  0.5709 -0.1836
10102SOL    HW233199   3.422   8.385   5.340  3.4933 -1.4421  1.2156
10103SOL     OW33200   4.733   5.014   8.714  0.6322 -0.0739  0.3675
10103SOL    HW133201   4.815   4.993   8.668 -0.8857 -0.6422 -2.2822
10103SOL    HW233202   4.725   4.945   8.781  0.5935 -2.2666 -1.7516
10104SOL     OW33203   8.828   1.002   8.558  0.2652 -0.3909 -0.0719
10104SOL    HW133204   8.839   1.089   8.518  2.5848 -0.7824 -0.4501
10104SOL    HW233205   8.854   0.941   8.490 -0.4095 -1.3304  0.5020
10105SOL     OW33206   7.682   6.883   3.272 -0.1782  0.1800 -0.7367
10105SOL    HW133207   7.652   6.974   3.267 -1.2836 -0.0892  0.5109
10105SOL    HW233208   7.768   6.888   3.312 -0.9037  0.5866  0.8271
10106SOL     OW33209   9.260   5.269   2.851  0.1460  0.5844 -0.0988
10106SOL    HW133210   9.332   5.304   2.903 -0.2632  0.8084  0.3277
10106SOL    HW233211   9.290   5.277   2.760  0.6832  0.6068  0.0771
10107SOL     OW33212   7.492   7.837   1.262  0.4686 -0.1883  0.1129
10107SOL    HW133213   7.492   7.788   1.344 -2.0839 -0.1949  0.2055
10107SOL    HW233214   7.479   7.770   1.195  0.9126 -0.0194 -0.1406
10108SOL     OW33215   6.978   1.933   4.237 -0.9166  0.0666  0.4361
10108SOL    HW133216   6.907   1.983   4.198 -0.6720 -0.7958 -1.1778
10108SOL    HW233217   6.934   1.869   4.294 -1.3602  0.3428  0.4046
10109SOL     OW33218   6.929   2.153   7.685  0.1182 -0.1637  0.4988
10109SOL    HW133219   6.948   2.060   7.676 -2.0372 -0.6972  1.0050
10109SOL    HW233220   6.927   2.186   7.595  0.2668 -0.7374  0.2809
10110SOL     OW33221   4.141   6.405   3.082 -0.0961  0.7160  0.3068
10110SOL    HW133222   4.167   6.445   3.165 -0.0127  1.3031 -0.0027
10110SOL    HW233223   4.196   6.446   3.016  0.0693  0.0118 -0.0039
10111SOL     OW33224   6.038   0.905   6.244  0.2874 -0.2820  0.1212
10111SOL    HW133225   5.983   0.980   6.223  0.2629 -0.3824 -0.1913
10111SOL    HW233226   6.127   0.937   6.235  0.2778 -0.2362  0.1893
10112SOL     OW33227   2.995   9.199   7.169 -0.1225  0.2452 -0.1090
10112SOL    HW133228   2.949   9.192   7.253  1.0933  1.6160  0.7079
10112SOL    HW233229   3.035   9.286   7.171  3.9703 -1.4116  0.0515
10113SOL     OW33230   1.663   4.435   4.225 -0.1533 -0.3420 -0.9320
10113SOL    HW133231   1.752   4.401   4.227 -0.0136 -0.1306 -2.2416
10113SOL    HW233232   1.636   4.426   4.133 -0.5033  2.0233 -1.1392
10114SOL     OW33233   6.231   4.663   4.630 -0.1708 -0.4520  0.3389
10114SOL    HW133234   6.160   4.715   4.593  0.7775  0.9177  0.3627
10114SOL    HW233235   6.238   4.692   4.721  1.0423  0.1703  0.0719
10115SOL     OW33236   6.463   7.752   6.131  0.4986 -0.0101  0.4855
10115SOL    HW133237   6.465   7.707   6.215 -0.3470 -0.4609  0.2776
10115SOL    HW233238   6.435   7.841   6.152 -0.6094 -0.3739  0.5864
10116SOL     OW33239   6.259   6.305   2.061 -0.5635  0.2270 -0.1667
10116SOL    HW133240   6.212   6.297   1.978 -0.2574  0.9397 -0.4156
10116SOL    HW233241   6.289   6.215   2.080 -0.7075  0.0416 -0.7814
10117SOL     OW33242   7.949   7.540   3.054 -0.0765  0.5989 -0.7786
10117SOL    HW133243   7.986   7.477   3.116 -0.4802  0.7815 -0.3454
10117SOL    HW233244   8.013   7.611   3.051 -1.9169  2.6787  2.7544
10118SOL     OW33245   3.505   3.507   0.193 -0.0442 -0.1923 -0.1124
10118SOL    HW133246   3.440   3.576   0.205  1.2849  0.8164  1.9682
10118SOL    HW233247   3.473   3.435   0.248 -0.9335 -0.9146 -1.5239
10119SOL     OW33248   1.904   1.056   8.447  0.0528  0.2880 -0.0797
10119SOL    HW133249   1.853   0.989   8.401 -1.6109  0.1765  1.8003
10119SOL    HW233250   1.854   1.136   8.436 -0.4339  0.2444  1.5344
10120SOL     OW33251   3.912   8.228   7.897  0.0538  0.5977  0.1367
10120SOL    HW133252   3.978   8.279   7.851  0.6635 -1.1781 -1.0985
10120SOL    HW233253   3.902   8.149   7.843 -1.2475 -0.3126  1.6317
10121SOL     OW33254   0.993   3.038   2.333  0.1115 -0.2458  0.2440
10121SOL    HW133255   0.944   3.091   2.271 -1.2194 -0.2629  1.2541
10121SOL    HW233256   1.008   3.096   2.408 -1.7971 -1.3680  1.5795
10122SOL     OW33257   1.027   7.402   2.140 -0.2569  0.8027 -0.7102
10122SOL    HW133258   0.944   7.355   2.137  0.1029 -0.0473  1.2419
10122SOL    HW233259   1.050   7.405   2.233  2.7083 -0.5208 -1.2703
10123SOL     OW33260   2.599   6.551   6.796  0.3517  0.5931  0.1569
10123SOL    HW133261   2.575   6.639   6.769  1.9431  0.5444 -1.7061
10123SOL    HW233262   2.569   6.495   6.724  0.3612 -0.2424  0.7879
10124SOL     OW33263   4.617   8.945   4.656  0.2524  0.2631  0.1911
10124SOL    HW133264   4.630   8.868   4.712  0.9847  0.1994 -0.0454
10124SOL    HW233265   4.594   9.016   4.717 -1.2754 -0.3188  0.3228
10125SOL     OW33266   2.809   0.216   1.992 -0.4319  0.7842  0.7316
10125SOL    HW133267   2.879   0.252   2.047  0.1384 -1.9768  2.0145
10125SOL    HW233268   2.741   0.282   1.993  0.3641  1.6949  3.2293
10126SOL     OW33269   8.434   8.599   2.872 -0.7809  0.2019  0.2809
10126SOL    HW133270   8.498   8.623   2.938 -1.6424  0.7674  0.9467
10126SOL    HW233271   8.479   8.611   2.789  0.1689 -0.0516  0.7506
10127SOL     OW33272   2.686   0.375   3.893 -0.0863  0.3296 -0.1956
10127SOL    HW133273   2.709   0.332   3.810  1.8505  2.5661 -0.9261
10127SOL    HW233274   2.623   0.443   3.868  1.2775  1.6897 -0.0562
10128SOL     OW33275   2.004   3.377   1.730  0.4464 -0.3397 -0.1710
10128SOL    HW133276   1.987   3.444   1.795  1.6697 -0.8523  0.7123
10128SOL    HW233277   2.059   3.420   1.664  0.0621 -0.0993 -0.3343
10129SOL     OW33278   5.380   6.776   0.515 -0.0818 -0.1733  0.1415
10129SOL    HW133279   5.323   6.701   0.500  0.1815 -0.2293 -0.6297
10129SOL    HW233280   5.324   6.842   0.556 -0.4887 -0.5344  0.1620
10130SOL     OW33281   2.432   4.329   8.644 -0.0498 -0.2450  0.1089
10130SOL    HW133282   2.359   4.342   8.583 -1.1523  0.2149  1.4779
10130SOL    HW233283   2.406   4.254   8.696 -0.2782  0.8281  1.6088
10131SOL     OW33284   5.520   4.159   5.708 -0.3403  0.0923  0.0641
10131SOL    HW133285   5.473   4.143   5.790 -0.7659 -0.7956 -0.3450
10131SOL    HW233286   5.568   4.079   5.691  0.2217  0.4894 -0.2578
10132SOL     OW33287   7.371   5.649   1.991  0.4637  0.1711  0.1600
10132SOL    HW133288   7.372   5.733   2.036 -1.0493  0.1145  0.3464
10132SOL    HW233289   7.291   5.650   1.938  1.8650 -0.0004 -2.1272
10133SOL     OW33290   5.366   1.499   1.492 -0.3925  0.2170 -0.0072
10133SOL    HW133291   5.408   1.579   1.525 -0.6916  0.2945  0.1857
10133SOL    HW233292   5.272   1.514   1.505 -0.3937 -0.6280  1.0835
10134SOL     OW33293   0.604   1.689   8.429  0.0223  0.1715  0.2498
10134SOL    HW133294   0.542   1.759   8.448  0.4482  1.3100 -2.2191
10134SOL    HW233295   0.671   1.729   8.374  1.4257 -1.7032  0.4605
10135SOL     OW33296   7.237   7.937   4.861 -0.1039  0.4035 -0.0106
10135SOL    HW133297   7.230   7.851   4.904 -1.0447  0.4371 -0.0861
10135SOL    HW233298   7.323   7.970   4.889  0.6427 -0.9091 -0.6448
10136SOL     OW33299   7.611   5.318   4.996 -0.0527 -0.0430 -0.0351
10136SOL    HW133300   7.666   5.240   4.993  0.5889  0.4163 -0.4525
10136SOL    HW233301   7.535   5.297   4.941  0.7781  0.1241 -1.2617
10137SOL     OW33302   9.131   6.811   6.894  0.1962  0.1300  0.1824
10137SOL    HW133303   9.169   6.760   6.822 -0.6666  4.1140 -3.5465
10137SOL    HW233304   9.050   6.764   6.915  0.8327 -1.5717 -0.9268
10138SOL     OW33305   2.331   6.556   4.014 -0.1361  0.4523 -0.1744
10138SOL    HW133306   2.312   6.497   4.087 -0.4068 -0.0481 -0.6436
10138SOL    HW233307   2.359   6.499   3.943  0.0920  0.9337 -0.4827
10139SOL     OW33308   2.664   5.761   5.760  0.0502 -0.5944  0.2124
10139SOL    HW133309   2.591   5.703   5.782 -0.4548 -0.3183 -0.6657
10139SOL    HW233310   2.622   5.841   5.728  0.7439  0.0850  0.9659
10140SOL     OW33311   4.140   8.453   6.217 -0.1139  0.0351  0.0865
10140SOL    HW133312   4.138   8.400   6.137 -0.5669  0.1508  0.0196
10140SOL    HW233313   4.219   8.506   6.208  0.7615 -1.1543  0.4986
10141SOL     OW33314   1.985   8.478   6.345 -0.2889 -0.0529 -0.0945
10141SOL    HW133315   2.035   8.397   6.351  2.0292  1.3362  1.2006
10141SOL    HW233316   2.050   8.544   6.318 -2.2282  1.2767 -1.7708
10142SOL     OW33317   9.151   0.275   0.704 -0.2063  0.4140 -0.1085
10142SOL    HW133318   9.093   0.252   0.777  0.4661 -1.1711 -0.0372
10142SOL    HW233319   9.092   0.298   0.633 -0.9104 -0.1844  0.2700
10143SOL     OW33320   6.750   2.771   5.321 -0.2406  0.1935  0.0964
10143SOL    HW133321   6.732   2.690   5.367 -1.0773 -0.0073 -0.5633
10143SOL    HW233322   6.706   2.839   5.372  0.5937  0.2750  0.7370
10144SOL     OW33323   0.237   0.999   3.032  0.1264 -0.1510  0.2699
10144SOL    HW133324   0.263   1.001   2.939 -1.4817  3.2982 -0.2505
10144SOL    HW233325   0.315   1.030   3.078  0.2077  0.3435 -0.1842
10145SOL     OW33326   3.837   2.796   7.966  0.4686 -0.3624  0.8142
10145SOL    HW133327   3.790   2.784   8.049 -1.0563 -0.4422 -0.0275
10145SOL    HW233328   3.844   2.707   7.930 -1.3349 -0.0445 -0.4113
10146SOL     OW33329   0.624   6.200   4.132  0.1027  0.4782  0.3682
10146SOL    HW133330   0.703   6.249   4.155  0.4947 -0.4022  0.9564
10146SOL    HW233331   0.652   6.140   4.064 -0.5638  1.5909 -0.9327
10147SOL     OW33332   6.016   6.836   4.916 -0.4392 -0.0365 -0.5462
10147SOL    HW133333   5.967   6.816   4.836 -0.4204 -0.8780 -0.3530
10147SOL    HW233334   6.001   6.761   4.973  0.0365  0.2840  0.0113
10148SOL     OW33335   7.509   4.985   1.039 -0.2835 -0.1222  0.0339
10148SOL    HW133336   7.554   4.904   1.058 -1.0041 -0.3779  0.6980
10148SOL    HW233337   7.420   4.958   1.015  0.0219  0.3239 -1.7710
10149SOL     OW33338   6.014   1.837   2.332 -0.5308  0.0404  0.1156
10149SOL    HW133339   5.962   1.893   2.390  0.8735  0.0097  1.4636
10149SOL    HW233340   6.024   1.889   2.252 -0.8512  0.9221  0.6368
10150SOL     OW33341   1.416   2.784   7.737  0.1078 -0.1760 -0.0440
10150SOL    HW133342   1.365   2.863   7.755 -0.8216 -0.1954 -2.2762
10150SOL    HW233343   1.505   2.816   7.720 -0.2536  0.4013 -0.8949
10151SOL     OW33344   0.140   3.401   2.230 -0.4809  0.4834 -0.6906
10151SOL    HW133345   0.201   3.474   2.232  0.8405 -0.6080  1.0096
10151SOL    HW233346   0.108   3.393   2.320 -2.1433  0.1865 -1.2605
10152SOL     OW33347   3.327   6.092   0.826  0.5531  0.6238 -0.4490
10152SOL    HW133348   3.273   6.114   0.901 -0.5239 -0.7192 -0.7948
10152SOL    HW233349   3.346   6.176   0.784 -0.5111  1.1935  0.1895
10153SOL     OW33350   0.990   8.549   8.641 -0.2080 -0.0737  0.2910
10153SOL    HW133351   0.978   8.471   8.586  1.3892 -0.2626  0.1692
10153SOL    HW233352   1.081   8.574   8.628 -0.3742  1.1223  1.2529
10154SOL     OW33353   8.864   9.197   9.027 -0.0913 -0.8964  0.2870
10154SOL    HW133354   8.795   9.162   9.084  0.3611 -0.5523  1.0639
10154SOL    HW233355   8.820   9.213   8.943 -0.9403 -0.7506  0.7462
10155SOL     OW33356   9.002   7.559   1.373 -0.0103  0.4809  0.1140
10155SOL    HW133357   8.914   7.581   1.340 -0.4679 -1.1294  0.1842
10155SOL    HW233358   8.995   7.570   1.468 -0.7792 -1.6006  0.3423
10156SOL     OW33359   1.429   4.860   1.684 -0.3453  1.0932 -0.1740
10156SOL    HW133360   1.476   4.943   1.691 -0.9078  1.3869  0.0769
10156SOL    HW233361   1.417   4.848   1.589  1.1413  0.5007 -0.3207
10157SOL     OW33362   4.940   2.374   5.833  0.1701 -0.0702 -0.1327
10157SOL    HW133363   5.028   2.388   5.799  0.3803 -0.7306  0.1124
10157SOL    HW233364   4.883   2.423   5.774  0.9159  2.7408  1.3266
10158SOL     OW33365   2.948   3.118   6.091  0.1872  0.6921  0.2233
10158SOL    HW133366   2.937   3.035   6.136 -0.8765  0.8424  0.2653
10158SOL    HW233367   2.879   3.174   6.127 -0.4455  0.9306 -1.3041
10159SOL     OW33368   2.815   1.144   0.462  0.1798  0.9813  0.3366
10159SOL    HW133369   2.798   1.238   0.467  1.2898  1.2116  0.1820
10159SOL    HW233370   2.863   1.124   0.543  2.5792  1.1784 -0.9492
10160SOL     OW33371   2.064   3.939   2.942 -0.6483  0.2572  0.2351
10160SOL    HW133372   2.145   3.939   2.993 -1.6086 -0.9810  1.8464
10160SOL    HW233373   2.001   3.984   2.998 -1.4190  0.0130 -0.4227
10161SOL     OW33374   9.115   4.643   3.333 -0.0520 -0.1960  0.4795
10161SOL    HW133375   9.022   4.655   3.351 -0.2771 -1.3194  0.1194
10161SOL    HW233376   9.141   4.723   3.287 -0.6755  0.4004  1.1312
10162SOL     OW33377   5.996   0.719   0.415 -0.2825  1.0056  0.5134
10162SOL    HW133378   5.919   0.672   0.382 -0.3900  1.7100 -0.2697
10162SOL    HW233379   6.054   0.725   0.339  2.1210 -2.4931  1.7935
10163SOL     OW33380   0.879   6.571   2.427  0.3807  0.3263 -0.5343
10163SOL    HW133381   0.864   6.617   2.509  0.5472  1.2193 -0.9874
10163SOL    HW233382   0.875   6.478   2.450  2.6278  0.5201  0.9200
10164SOL     OW33383   7.680   8.230   3.819 -0.6357  0.6057 -0.3148
10164SOL    HW133384   7.695   8.262   3.908  1.3395 -1.4151  0.1784
10164SOL    HW233385   7.685   8.135   3.826  0.7236  0.4032 -2.7175
10165SOL     OW33386   1.790   8.851   7.780 -0.3243 -0.0683  0.1043
10165SOL    HW133387   1.739   8.800   7.716  0.7998 -0.9270 -0.1455
10165SOL    HW233388   1.729   8.868   7.851 -0.7451 -1.8548  0.2259
10166SOL     OW33389   0.771   8.286   2.557 -0.6019  0.6734  0.1021
10166SOL    HW133390   0.693   8.305   2.609 -0.7243 -0.9701  0.5642
10166SOL    HW233391   0.841   8.334   2.601 -1.1710  1.3852  0.2478
10167SOL     OW33392   2.253   6.346   2.718 -0.3051 -0.2240  0.6268
10167SOL    HW133393   2.314   6.276   2.695 -0.5216 -0.3411  0.4135
10167SOL    HW233394   2.182   6.338   2.655  0.3513  1.0906 -0.3350
10168SOL     OW33395   2.682   5.846   4.483  0.0129 -0.3792  0.8811
10168SOL    HW133396   2.744   5.773   4.482  0.3654 -0.0768  0.1460
10168SOL    HW233397   2.734   5.920   4.514  0.2108  0.0311 -0.3837
10169SOL     OW33398   4.933   1.723   6.970 -0.2643  0.1976 -0.2062
10169SOL    HW133399   4.972   1.763   6.892  0.6981  0.3298  0.3276
10169SOL    HW233400   4.901   1.638   6.940 -1.5624  0.9816 -1.1604
10170SOL     OW33401   2.717   2.479   7.699  0.0704  0.4537  0.1041
10170SOL    HW133402   2.663   2.490   7.778 -1.6508 -0.6711 -0.8253
10170SOL    HW233403   2.663   2.424   7.642  2.1286 -0.4985 -1.0308
10171SOL     OW33404   1.029   1.911   5.957 -0.1606  0.9743  0.0979
10171SOL    HW133405   1.005   1.903   5.865  0.8039  2.7617 -0.3434
10171SOL    HW233406   1.124   1.896   5.959 -0.4711 -1.4639  1.1884
10172SOL     OW33407   6.039   4.943   0.874  0.1068  0.3397  0.0804
10172SOL    HW133408   6.064   4.987   0.792  0.2928 -0.9482 -0.5705
10172SOL    HW233409   6.038   4.850   0.852 -3.2907  0.1139  0.5886
10173SOL     OW33410   3.375   3.070   0.195 -0.4163  0.3396  0.0502
10173SOL    HW133411   3.389   3.162   0.217  2.8540  0.0712 -0.4432
10173SOL    HW233412   3.349   3.029   0.278  0.9026  1.2288  0.9255
10174SOL     OW33413   4.818   5.682   7.130  0.4679 -0.2363 -0.2658
10174SOL    HW133414   4.727   5.657   7.145  0.6488 -0.6949  0.1168
10174SOL    HW233415   4.866   5.638   7.200  0.9021  0.5398 -0.0730
10175SOL     OW33416   6.036   6.833   3.197  0.9407 -0.5467  0.5371
10175SOL    HW133417   6.034   6.764   3.131 -1.9600  0.0671 -0.1854
10175SOL    HW233418   6.120   6.877   3.184  0.7314 -0.8265 -2.4031
10176SOL     OW33419   5.155   0.306   4.020 -0.0436  0.1237  0.1932
10176SOL    HW133420   5.196   0.252   4.087  0.2173  0.7553  0.5408
10176SOL    HW233421   5.176   0.396   4.044 -0.5223  0.3904 -0.3542
10177SOL     OW33422   2.877   6.070   4.572  0.0846 -0.0386  0.0073
10177SOL    HW133423   2.840   6.125   4.641 -1.3068  1.2262 -1.6442
10177SOL    HW233424   2.970   6.093   4.571 -0.0421  0.5817  0.8650
10178SOL     OW33425   0.217   0.722   2.816  0.1023 -0.0167  0.2895
10178SOL    HW133426   0.164   0.649   2.784  1.0257 -1.3066  1.5869
10178SOL    HW233427   0.293   0.724   2.757  0.6010 -0.8140  0.8877
10179SOL     OW33428   2.369   0.015   2.770  0.2283 -0.0086 -0.0368
10179SOL    HW133429   2.363   0.110   2.774 -0.0389 -0.0313  0.0864
10179SOL    HW233430   2.393  -0.003   2.679 -1.1484  0.1055 -0.4479
10180SOL     OW33431   7.571   3.814   4.822  0.0659  0.4486 -0.1860
10180SOL    HW133432   7.513   3.739   4.805 -1.0447  1.2552 -0.0764
10180SOL    HW233433   7.650   3.794   4.771 -0.0672 -0.9433  0.0993
10181SOL     OW33434   3.395   7.754   6.150  0.0954  0.3467  0.5075
10181SOL    HW133435   3.329   7.811   6.110 -0.0109 -0.3481 -0.3471
10181SOL    HW233436   3.436   7.709   6.076 -0.6943 -1.6347  1.2052
10182SOL     OW33437   2.797   4.135   4.860  0.0922  0.4831 -0.1329
10182SOL    HW133438   2.717   4.173   4.825 -0.6233  0.2709  1.2084
10182SOL    HW233439   2.795   4.156   4.953  0.7441 -0.9908  0.2439
10183SOL     OW33440   1.928   1.270   4.413 -0.3381 -0.2855 -0.0997
10183SOL    HW133441   1.938   1.363   4.397 -0.3673 -0.1832  0.4754
10183SOL    HW233442   1.987   1.251   4.486 -0.2357 -0.7418 -0.2942
10184SOL     OW33443   2.538   4.126   5.174  0.0739  0.0128  0.4987
10184SOL    HW133444   2.558   4.035   5.194 -0.3500 -0.9318 -2.7916
10184SOL    HW233445   2.464   4.148   5.230 -1.4653 -2.5717 -0.3655
10185SOL     OW33446   2.874   5.435   0.565 -0.3001  0.0657 -0.5207
10185SOL    HW133447   2.897   5.412   0.655 -0.6086  1.6431 -0.0181
10185SOL    HW233448   2.936   5.385   0.512 -0.5787 -1.4565  0.5035
10186SOL     OW33449   0.293   1.431   7.594  0.3680 -0.1312  0.6911
10186SOL    HW133450   0.266   1.340   7.591  1.1931 -0.3660 -0.1134
10186SOL    HW233451   0.344   1.439   7.675  0.5337 -0.4595  0.6196
10187SOL     OW33452   5.865   2.574   3.865  0.5541  0.1006  0.0611
10187SOL    HW133453   5.879   2.479   3.870  1.4860  0.2857  2.1847
10187SOL    HW233454   5.943   2.608   3.821  1.0940  0.0151  0.9240
10188SOL     OW33455   0.184   1.066   0.832  0.1953 -0.3607  0.6254
10188SOL    HW133456   0.092   1.042   0.821  0.3434 -0.4547 -0.6026
10188SOL    HW233457   0.185   1.162   0.829  0.1684 -0.3688  0.3836
10189SOL     OW33458   3.702   3.783   2.244  0.4130 -0.7148  0.0283
10189SOL    HW133459   3.752   3.727   2.304  1.6108 -0.2717 -0.5274
10189SOL    HW233460   3.672   3.855   2.299  1.0091 -0.6116  0.2334
10190SOL     OW33461   2.217   3.159   4.898  0.3925  0.1336 -0.2761
10190SOL    HW133462   2.221   3.133   4.990 -0.7109 -0.6473 -0.4242
10190SOL    HW233463   2.184   3.249   4.900  1.3771  0.4961  0.1250
10191SOL     OW33464   5.176   1.970   4.788  0.0997 -0.2133  0.4828
10191SOL    HW133465   5.213   2.034   4.849  1.6373 -0.9134  0.3141
10191SOL    HW233466   5.176   1.888   4.836  2.5542 -1.0621 -0.8238
10192SOL     OW33467   0.977   3.954   0.185  0.2231 -0.5446 -0.1560
10192SOL    HW133468   1.054   3.931   0.135 -0.5688 -1.0628 -1.1674
10192SOL    HW233469   0.927   3.873   0.191 -0.0224 -0.3315  0.9013
10193SOL     OW33470   2.449   6.783   3.385 -0.8083 -0.2636 -0.6338
10193SOL    HW133471   2.414   6.700   3.352 -2.2584  0.7043 -1.6673
10193SOL    HW233472   2.539   6.786   3.351 -0.1616 -2.0690  0.7124
10194SOL     OW33473   7.412   6.511   5.311  0.4096  0.3714  0.4439
10194SOL    HW133474   7.406   6.416   5.321 -0.4612  0.3163 -0.4433
10194SOL    HW233475   7.322   6.539   5.294  0.7745  1.2620 -0.1005
10195SOL     OW33476   0.417   2.206   1.419 -0.3908 -0.4062 -0.5266
10195SOL    HW133477   0.454   2.243   1.499  1.7865 -1.7598 -0.8211
10195SOL    HW233478   0.339   2.158   1.448 -0.5884  0.5039  0.5045
10196SOL     OW33479   5.029   4.750   6.092  0.3025 -0.0763 -0.1616
10196SOL    HW133480   4.950   4.798   6.116  1.5423  0.8082  2.5337
10196SOL    HW233481   5.097   4.786   6.149  2.5849 -1.0945 -2.0751
10197SOL     OW33482   1.783   1.288   7.303  0.9971  0.6158 -0.3332
10197SOL    HW133483   1.732   1.230   7.245 -2.4471  2.0374  1.0029
10197SOL    HW233484   1.821   1.229   7.368 -0.9786 -0.4116 -0.0105
10198SOL     OW33485   8.475   4.150   5.478  0.9420  0.4410 -0.8253
10198SOL    HW133486   8.436   4.092   5.413 -1.3021  0.2950  0.5447
10198SOL    HW233487   8.516   4.091   5.541 -1.0695  0.2319  0.3981
10199SOL     OW33488   5.819   3.188   1.532 -0.0741 -0.5085  0.0136
10199SOL    HW133489   5.818   3.099   1.566 -0.4286 -0.8150 -0.7790
10199SOL    HW233490   5.911   3.206   1.513 -0.0304 -0.7851 -0.0366
10200SOL     OW33491   7.443   3.777   7.557  0.3741 -0.3954  0.2885
10200SOL    HW133492   7.459   3.757   7.649 -0.5381 -2.3040  0.0653
10200SOL    HW233493   7.493   3.712   7.509 -2.2649 -1.9929 -0.4894
10201SOL     OW33494   6.781   6.632   6.289 -0.7411  0.1492 -0.0318
10201SOL    HW133495   6.716   6.634   6.219 -1.3943 -0.1342  0.5613
10201SOL    HW233496   6.731   6.647   6.369  0.0401  0.7929  0.3520
10202SOL     OW33497   8.000   5.384   0.021  0.8523 -0.1930  0.4595
10202SOL    HW133498   7.937   5.373  -0.050  1.0166 -0.8895  0.4091
10202SOL    HW233499   8.082   5.407  -0.023  0.8881 -0.3518  0.4414
10203SOL     OW33500   2.819   5.602   3.376 -0.3288  0.4746  0.0559
10203SOL    HW133501   2.887   5.625   3.439 -0.1370  1.2212 -0.4228
10203SOL    HW233502   2.843   5.514   3.346 -0.0430  0.3947  0.5091
10204SOL     OW33503   4.752   0.678   2.969 -0.0519  0.1490  0.3482
10204SOL    HW133504   4.754   0.604   3.030  0.6640 -0.9843 -0.9913
10204SOL    HW233505   4.844   0.696   2.951  0.0023  3.3598  2.8649
10205SOL     OW33506   8.121   0.156   7.232 -0.6316 -0.7905  0.4281
10205SOL    HW133507   8.176   0.179   7.157 -0.7030 -1.8977  0.0138
10205SOL    HW233508   8.101   0.063   7.219 -0.1169 -1.1768  2.1517
10206SOL     OW33509   0.522   1.479   7.742  0.1748 -0.6207  0.7010
10206SOL    HW133510   0.549   1.546   7.679  1.6382 -3.1149 -1.5244
10206SOL    HW233511   0.579   1.493   7.817 -0.0799  1.0509  0.6345
10207SOL     OW33512   0.736   4.462   4.089  0.3598  0.0368 -0.0297
10207SOL    HW133513   0.641   4.463   4.095  0.1827 -2.7663 -1.1402
10207SOL    HW233514   0.756   4.528   4.022 -0.9449 -0.4615 -0.9474
10208SOL     OW33515   8.953   3.150   3.164 -0.4715 -0.8872 -0.0393
10208SOL    HW133516   8.871   3.185   3.198 -0.2648 -0.9033  0.4829
10208SOL    HW233517   8.992   3.103   3.238 -0.0244 -0.9367 -0.3026
10209SOL     OW33518   6.255   1.053   0.416 -0.2643  0.1300 -0.0109
10209SOL    HW133519   6.273   1.056   0.322  0.2273  1.4150  0.1047
10209SOL    HW233520   6.325   0.999   0.453 -1.4757 -1.9363 -0.5657
10210SOL     OW33521   7.508   8.611   5.078 -0.1536 -0.1142 -0.1114
10210SOL    HW133522   7.482   8.537   5.024  0.9495 -0.4014 -0.2769
10210SOL    HW233523   7.432   8.669   5.079 -0.6284 -0.7141 -0.9099
10211SOL     OW33524   1.817   4.770   4.335 -0.0004  0.5624  0.2937
10211SOL    HW133525   1.829   4.715   4.413 -1.7534  0.5835  0.6302
10211SOL    HW233526   1.834   4.859   4.365 -0.2997  0.5287  0.5741
10212SOL     OW33527   5.372   4.221   2.658 -0.0304 -0.0263  0.3803
10212SOL    HW133528   5.323   4.270   2.723  1.9682 -1.7254  3.3826
10212SOL    HW233529   5.312   4.152   2.629 -1.2491  1.2947 -0.3967
10213SOL     OW33530   2.124   8.828   8.968  0.1895 -0.2900 -0.4197
10213SOL    HW133531   2.120   8.910   8.919  0.1427  0.6060  1.0442
10213SOL    HW233532   2.082   8.764   8.910  0.0986  0.7346 -1.5264
10214SOL     OW33533   6.989   0.015   3.421 -0.3911  0.3134 -0.5095
10214SOL    HW133534   6.930   0.056   3.484  0.6571 -1.5427  1.8509
10214SOL    HW233535   6.969  -0.079   3.427  1.7756 -0.2256 -0.6402
10215SOL     OW33536   7.126   4.643   7.650  0.0622  0.0390 -0.4896
10215SOL    HW133537   7.120   4.615   7.741  0.9608  2.6457  0.4636
10215SOL    HW233538   7.036   4.666   7.625 -0.0611  0.1174  0.0255
10216SOL     OW33539   8.414   8.035   8.784 -0.4839  0.1084  0.5729
10216SOL    HW133540   8.377   7.949   8.766  1.6562 -0.7380 -0.0934
10216SOL    HW233541   8.455   8.061   8.701 -0.3981  1.4132  1.0037
10217SOL     OW33542   1.818   6.926   0.775 -0.2320 -0.1324 -0.0770
10217SOL    HW133543   1.906   6.908   0.807 -0.3940  1.1908  1.2149
10217SOL    HW233544   1.830   6.997   0.712 -0.3506 -0.0676 -0.0277
10218SOL     OW33545   2.376   5.517   0.808  0.2869  0.1660 -0.4205
10218SOL    HW133546   2.379   5.585   0.875  1.3943 -0.0041 -0.2760
10218SOL    HW233547   2.430   5.447   0.842  2.1499  0.6783 -2.1023
10219SOL     OW33548   7.750   8.360   8.266  0.1386  0.0642  0.0423
10219SOL    HW133549   7.688   8.286   8.263  1.0716 -0.7182 -0.3694
10219SOL    HW233550   7.791   8.353   8.352  0.3248  0.0163 -0.0495
10220SOL     OW33551   3.541   8.283   5.585 -0.8875 -0.2035  0.1415
10220SOL    HW133552   3.620   8.319   5.544 -0.4950 -0.1531  0.9304
10220SOL    HW233553   3.473   8.293   5.518 -0.0354 -1.0897 -0.8964
10221SOL     OW33554   7.926   8.057   6.182  0.8895  0.2730  0.2341
10221SOL    HW133555   7.904   8.084   6.093  0.5300 -0.0278  0.2307
10221SOL    HW233556   7.951   8.138   6.226  1.5057  0.3563 -0.2652
10222SOL     OW33557   1.243   7.393   8.711  0.5354 -0.3283  0.0920
10222SOL    HW133558   1.326   7.348   8.697  0.1494 -2.0094  2.6112
10222SOL    HW233559   1.205   7.401   8.623  1.6220 -3.0741 -0.7294
10223SOL     OW33560   3.610   8.419   8.646 -0.6587  0.0077  0.0151
10223SOL    HW133561   3.540   8.478   8.616 -1.1403  0.7183  2.3214
10223SOL    HW233562   3.657   8.470   8.712 -0.7580 -1.9817  1.7064
10224SOL     OW33563   1.579   6.018   3.214 -0.4601 -0.2370 -0.2348
10224SOL    HW133564   1.668   6.052   3.200 -0.0591 -0.7547  0.9328
10224SOL    HW233565   1.555   5.979   3.130  0.5431 -0.3483 -0.4895
10225SOL     OW33566   2.465   6.950   2.908 -0.2644  0.4399  0.0409
10225SOL    HW133567   2.464   7.037   2.869 -1.3315 -0.1350 -1.2791
10225SOL    HW233568   2.490   6.965   3.000  1.0200  1.9650 -0.5023
10226SOL     OW33569   8.785   7.011   4.492  0.1021 -0.0733  0.6000
10226SOL    HW133570   8.806   7.104   4.496  1.5524 -0.3937  0.8325
10226SOL    HW233571   8.853   6.973   4.436 -0.7518 -0.9279  0.1137
10227SOL     OW33572   3.673   3.815   0.019 -0.0377 -0.0709 -0.2004
10227SOL    HW133573   3.702   3.858   0.100  0.4754 -2.0007  0.6998
10227SOL    HW233574   3.685   3.882  -0.049  0.3996  1.3021  1.1680
10228SOL     OW33575   4.585   2.060   3.733 -0.0430  0.1992 -0.2181
10228SOL    HW133576   4.518   2.040   3.798 -0.2742 -0.5002 -0.6557
10228SOL    HW233577   4.664   2.077   3.783 -0.7956  2.2499  0.3957
10229SOL     OW33578   0.326   3.017   6.708  0.2694 -0.0647  0.3515
10229SOL    HW133579   0.409   2.972   6.722 -1.0101 -2.3813  0.9023
10229SOL    HW233580   0.281   3.012   6.793 -0.4248  1.2512  0.0986
10230SOL     OW33581   7.870   9.133   1.429  0.0561 -0.1382 -0.8786
10230SOL    HW133582   7.938   9.141   1.497  1.3326 -2.0988 -1.8548
10230SOL    HW233583   7.788   9.145   1.477  0.9751  0.0733  0.7422
10231SOL     OW33584   7.676   0.000   7.054 -0.0647 -0.4833  0.5463
10231SOL    HW133585   7.730  -0.031   6.981  1.2036  2.3266  0.1239
10231SOL    HW233586   7.588   0.010   7.016  0.7052  1.5565 -0.9346
10232SOL     OW33587   2.155   1.797   6.065 -0.2207 -0.1762  0.3134
10232SOL    HW133588   2.186   1.879   6.104  0.3569 -0.2958  0.1130
10232SOL    HW233589   2.064   1.815   6.042 -0.5565 -0.0635  1.6013
10233SOL     OW33590   7.542   0.378   6.549  0.1608  0.2574 -0.1914
10233SOL    HW133591   7.496   0.395   6.631 -0.4251  0.7579 -0.6131
10233SOL    HW233592   7.477   0.395   6.481  1.7243  3.9887 -0.9882
10234SOL     OW33593   7.795   8.555   3.756 -0.0256 -0.3252 -0.5376
10234SOL    HW133594   7.773   8.492   3.824  0.0691 -1.0775 -1.1958
10234SOL    HW233595   7.729   8.624   3.765 -0.0611 -0.4572  0.2550
10235SOL     OW33596   0.694   7.489   5.183  0.3289  0.4519  0.4541
10235SOL    HW133597   0.670   7.489   5.276  0.2138  1.4300  0.4385
10235SOL    HW233598   0.641   7.419   5.145  0.6198 -0.1828  1.1747
10236SOL     OW33599   1.185   5.697   0.475  0.1728 -0.7923  0.9200
10236SOL    HW133600   1.245   5.637   0.432  2.2412  1.1379  0.9359
10236SOL    HW233601   1.228   5.782   0.471 -0.9096  0.0627  4.1095
10237SOL     OW33602   2.133   4.286   3.966  0.3802  0.4941 -0.2881
10237SOL    HW133603   2.204   4.349   3.950 -0.3766  0.7874 -2.9865
10237SOL    HW233604   2.157   4.209   3.915  0.1348 -0.5704  1.1302
10238SOL     OW33605   6.081   4.089   6.102 -0.1085  0.0951  0.5682
10238SOL    HW133606   6.125   4.174   6.105 -0.7876  0.5149 -0.8531
10238SOL    HW233607   6.010   4.100   6.040 -0.0359 -1.5959  0.1240
10239SOL     OW33608   6.278   6.032   4.880  0.3156 -0.0313 -0.0724
10239SOL    HW133609   6.193   6.073   4.866  0.3862  0.0865 -0.1579
10239SOL    HW233610   6.262   5.967   4.948 -0.1917 -1.0863 -1.1522
10240SOL     OW33611   4.513   8.498   2.724  0.2783  0.2555  0.1603
10240SOL    HW133612   4.504   8.403   2.714  2.3426  0.1895 -2.0756
10240SOL    HW233613   4.604   8.510   2.752 -0.0084  1.5724  0.5551
10241SOL     OW33614   2.111   4.689   6.767 -0.1869  0.4730 -0.2910
10241SOL    HW133615   2.199   4.710   6.736  0.3725 -0.6534  0.4812
10241SOL    HW233616   2.121   4.607   6.816 -1.7675 -0.0206 -0.7184
10242SOL     OW33617   0.767   7.197   6.189 -0.1646 -0.3450 -0.0998
10242SOL    HW133618   0.828   7.204   6.116  0.7028 -0.5414  0.5984
10242SOL    HW233619   0.821   7.207   6.268 -0.6865 -2.5094  0.5941
10243SOL     OW33620   7.030   7.017   2.710  0.4372 -1.0406 -0.7501
10243SOL    HW133621   7.061   6.926   2.703  0.6147 -1.1655  1.2352
10243SOL    HW233622   7.063   7.047   2.794 -0.4882  0.5597 -0.9246
10244SOL     OW33623   9.126   4.181   7.707  0.2047  0.4246 -0.4684
10244SOL    HW133624   9.204   4.141   7.669  0.1677  1.2525 -1.4482
10244SOL    HW233625   9.053   4.133   7.668  0.1921  0.4888 -0.5225
10245SOL     OW33626   6.499   0.703   0.078  0.0523 -0.1653 -0.3091
10245SOL    HW133627   6.426   0.738   0.027 -1.2986  0.1341  1.7153
10245SOL    HW233628   6.470   0.616   0.105 -1.3915  1.3271  3.7186
10246SOL     OW33629   9.112   9.086   1.412 -0.0749  0.2018  0.4413
10246SOL    HW133630   9.204   9.067   1.391 -0.1662 -0.2724  0.4633
10246SOL    HW233631   9.098   9.043   1.496 -0.3758  0.1096  0.3428
10247SOL     OW33632   4.433   4.679   0.062 -0.0618  0.2466 -0.1643
10247SOL    HW133633   4.400   4.589   0.067  0.0343  0.0801 -1.9424
10247SOL    HW233634   4.510   4.679   0.119  0.1903 -0.9323 -0.4683
10248SOL     OW33635   5.975   5.271   8.480 -0.4230  0.6067 -0.4841
10248SOL    HW133636   6.037   5.225   8.423  0.9675 -0.7704  1.9812
10248SOL    HW233637   5.946   5.346   8.428  0.7039 -0.5678 -2.9816
10249SOL     OW33638   5.417   7.846   5.739  0.0046  0.3149 -0.1651
10249SOL    HW133639   5.342   7.890   5.779 -1.3810 -0.8998 -1.3101
10249SOL    HW233640   5.385   7.820   5.652  2.0355  0.4843 -1.0124
10250SOL     OW33641   5.712   4.087   0.563 -0.0634 -0.4099 -0.0848
10250SOL    HW133642   5.649   4.063   0.495 -1.3094  2.5289 -0.0939
10250SOL    HW233643   5.797   4.074   0.522 -0.7677  0.4589 -1.9318
10251SOL     OW33644   3.157   1.813   7.117  0.9608 -0.3638  0.4935
10251SOL    HW133645   3.175   1.814   7.211  0.8081  1.8068  0.5360
10251SOL    HW233646   3.134   1.903   7.095 -0.7114 -1.1533 -1.3187
10252SOL     OW33647   4.774   1.882   0.645 -0.3744 -0.6150 -0.3881
10252SOL    HW133648   4.727   1.877   0.729 -0.8756 -1.4318 -0.7045
10252SOL    HW233649   4.866   1.895   0.670 -0.7258  0.8354  0.2470
10253SOL     OW33650   6.853   1.285   0.050 -0.1817  0.1854  0.4742
10253SOL    HW133651   6.941   1.324   0.048 -0.5202  0.9827  0.7515
10253SOL    HW233652   6.856   1.217  -0.017  0.2231  1.1558 -0.5306
10254SOL     OW33653   0.401   4.202   7.840  0.1538 -0.7042  0.6503
10254SOL    HW133654   0.459   4.135   7.877 -0.9613 -1.6892  0.6954
10254SOL    HW233655   0.313   4.166   7.853 -0.4848  0.8647  0.8265
10255SOL     OW33656   0.873   1.429   4.678  0.6192  0.1613 -0.0568
10255SOL    HW133657   0.859   1.419   4.584  3.3371 -2.0595 -0.3783
10255SOL    HW233658   0.821   1.358   4.718 -0.1802  0.8250  0.1061
10256SOL     OW33659   3.366   1.523   1.667  0.0993  0.2409 -0.0027
10256SOL    HW133660   3.399   1.549   1.581 -0.1255 -1.8241 -0.7622
10256SOL    HW233661   3.401   1.589   1.727  1.5664  0.8438 -1.4447
10257SOL     OW33662   7.458   8.327   5.922  0.6089  0.1293 -0.7763
10257SOL    HW133663   7.526   8.338   5.988 -0.3670 -1.5294  0.5674
10257SOL    HW233664   7.423   8.415   5.908 -0.1265  0.3796  2.0122
10258SOL     OW33665   7.991   4.253   0.572 -0.6288 -0.1780 -0.4588
10258SOL    HW133666   8.030   4.340   0.579 -1.6860  0.1885  1.8792
10258SOL    HW233667   7.924   4.252   0.640 -1.1099 -2.6031 -0.8972
10259SOL     OW33668   4.311   0.306   4.879  0.2594  0.1661  0.1326
10259SOL    HW133669   4.313   0.219   4.840 -0.6794  0.2538 -0.1433
10259SOL    HW233670   4.402   0.336   4.876  0.2149  0.3192 -2.3661
10260SOL     OW33671   7.423   9.064   6.533 -0.3670  0.3224 -0.1985
10260SOL    HW133672   7.485   9.134   6.548  0.1540 -0.2921  0.6171
10260SOL    HW233673   7.339   9.100   6.560  0.3379 -0.3282  3.3537
10261SOL     OW33674   2.475   3.411   9.254  0.7793  0.7888 -0.7653
10261SOL    HW133675   2.481   3.489   9.199  0.6194 -0.1124 -2.0958
10261SOL    HW233676   2.550   3.357   9.228  0.6003  0.2670 -0.2328
10262SOL     OW33677   5.565   2.951   9.229 -0.2914  0.1739  0.0842
10262SOL    HW133678   5.490   2.945   9.169 -0.4451 -1.5389  0.3899
10262SOL    HW233679   5.590   2.860   9.244 -0.8357  0.4559  3.3421
10263SOL     OW33680   8.980   3.217   8.667  0.1083  0.7039 -0.0784
10263SOL    HW133681   9.030   3.295   8.690  0.0766  0.1829  1.8848
10263SOL    HW233682   9.037   3.170   8.605  1.0014  1.2924  0.2804
10264SOL     OW33683   6.893   3.304   0.819 -0.3990 -0.3628  0.3494
10264SOL    HW133684   6.843   3.231   0.783  0.7352 -0.5378 -0.9311
10264SOL    HW233685   6.956   3.327   0.750 -1.3409  2.4465  0.2951
10265SOL     OW33686   6.076   2.416   6.294  0.0148 -0.2141 -0.3031
10265SOL    HW133687   6.122   2.468   6.228  0.2968 -0.0490  0.0221
10265SOL    HW233688   6.086   2.325   6.265  1.0624 -0.2273  0.0836
10266SOL     OW33689   0.913   6.399   3.678 -0.2575 -0.1968  0.2108
10266SOL    HW133690   0.848   6.379   3.745 -0.9046  1.7767  0.2411
10266SOL    HW233691   0.892   6.339   3.606 -0.6124 -1.1772  1.0962
10267SOL     OW33692   1.546   2.900   5.350 -0.2981  0.5557  0.2703
10267SOL    HW133693   1.465   2.922   5.396 -1.4361  0.5039 -1.6139
10267SOL    HW233694   1.590   2.984   5.338 -0.5396  0.7115  0.4775
10268SOL     OW33695   6.004   7.057   1.510  0.0609 -0.8091 -0.3582
10268SOL    HW133696   6.060   7.134   1.517 -0.9040 -0.1374  0.1312
10268SOL    HW233697   5.966   7.063   1.422  1.3803 -1.7265 -1.0266
10269SOL     OW33698   4.807   7.506   1.597 -0.0971  0.4936  0.4211
10269SOL    HW133699   4.719   7.516   1.632 -0.3997 -0.9735  0.1569
10269SOL    HW233700   4.840   7.426   1.638  0.2518 -0.2081 -1.1639
10270SOL     OW33701   1.569   1.917   4.617 -0.5062  0.1376 -0.0568
10270SOL    HW133702   1.591   1.824   4.619 -0.3058  0.1874  0.0767
10270SOL    HW233703   1.475   1.920   4.632 -0.2897  0.0414  1.4009
10271SOL     OW33704   3.099   4.682   4.157  0.6908  0.2850  0.0804
10271SOL    HW133705   3.014   4.655   4.192 -1.4051  3.2348 -2.2202
10271SOL    HW233706   3.132   4.744   4.221  0.1752  0.5332  0.1156
10272SOL     OW33707   0.262   6.840   3.800  0.5779 -0.1450  0.7973
10272SOL    HW133708   0.301   6.756   3.776  0.1711 -0.1394  0.1060
10272SOL    HW233709   0.259   6.890   3.719 -1.4595 -0.3903  0.6515
10273SOL     OW33710   6.999   8.534   3.328 -0.0115  0.0807 -0.3652
10273SOL    HW133711   6.908   8.564   3.329 -0.1585 -0.1809  2.4642
10273SOL    HW233712   7.051   8.614   3.338 -0.1046  0.0168  0.7974
10274SOL     OW33713   1.518   9.203   7.040 -0.0669  0.9835 -0.2043
10274SOL    HW133714   1.472   9.122   7.062  1.1261  0.3203 -0.0468
10274SOL    HW233715   1.488   9.226   6.952 -0.3705  0.3405 -0.2687
10275SOL     OW33716   4.613   7.570   6.801  0.0920 -0.1606 -0.4664
10275SOL    HW133717   4.675   7.610   6.740 -0.2912  1.0130 -0.0987
10275SOL    HW233718   4.615   7.625   6.879 -0.4491 -0.8528  0.0554
10276SOL     OW33719   1.633   0.171   4.837  0.0614 -0.3251 -0.4485
10276SOL    HW133720   1.627   0.078   4.857  0.7171 -0.2438  0.1826
10276SOL    HW233721   1.724   0.194   4.854 -0.2052  0.5443 -0.1030
10277SOL     OW33722   3.277   8.416   2.472 -0.1318  0.8907 -0.1847
10277SOL    HW133723   3.226   8.398   2.393  0.4079  0.7670 -0.5129
10277SOL    HW233724   3.218   8.395   2.544 -0.0281 -0.8661 -0.5501
10278SOL     OW33725   6.010   7.128   6.786 -0.0795  0.3216 -0.3562
10278SOL    HW133726   6.084   7.158   6.839 -0.0104 -1.4993  0.6587
10278SOL    HW233727   5.937   7.119   6.848 -0.5328 -0.0286 -0.9236
10279SOL     OW33728   2.610   1.260   0.228  0.2158  0.0818  0.3418
10279SOL    HW133729   2.527   1.283   0.270  0.1913 -0.4087  0.5664
10279SOL    HW233730   2.659   1.212   0.295  0.5057 -0.0104  0.0683
10280SOL     OW33731   2.622   1.631   6.120 -0.0547  0.0179 -0.0733
10280SOL    HW133732   2.542   1.596   6.161  0.5335 -3.2070 -1.3987
10280SOL    HW233733   2.651   1.699   6.180 -2.7507 -0.0194  1.4434
10281SOL     OW33734   0.334   9.166   7.305  0.4222 -0.5446  0.4373
10281SOL    HW133735   0.284   9.112   7.365  0.4139 -1.2279 -0.1794
10281SOL    HW233736   0.389   9.220   7.362 -0.6938 -0.0844  1.1000
10282SOL     OW33737   4.918   2.366   0.547  0.0318 -0.4023  0.1181
10282SOL    HW133738   4.828   2.390   0.568  0.0134 -0.6329  0.3023
10282SOL    HW233739   4.913   2.328   0.459  0.0096 -0.0571 -0.0329
10283SOL     OW33740   6.917   3.231   0.237 -0.3850  0.2790 -0.6313
10283SOL    HW133741   6.959   3.145   0.242  1.7327  1.2182 -1.0499
10283SOL    HW233742   6.923   3.255   0.144 -0.2608  1.1751 -0.4043
10284SOL     OW33743   3.319   1.348   2.136 -0.2241 -0.2074 -0.4183
10284SOL    HW133744   3.350   1.284   2.201 -0.2949 -0.7634 -0.9224
10284SOL    HW233745   3.235   1.378   2.170 -0.1203 -0.2748 -0.1006
10285SOL     OW33746   5.095   0.796   6.990  0.7307  1.0294 -0.7707
10285SOL    HW133747   5.016   0.792   6.936 -0.3029  0.0148  0.7048
10285SOL    HW233748   5.064   0.827   7.075  1.4852 -1.3346  0.4656
10286SOL     OW33749   8.019   3.534   2.031  0.3457 -0.0861 -1.1127
10286SOL    HW133750   8.050   3.489   2.109 -0.8172 -0.3662 -0.7880
10286SOL    HW233751   8.099   3.560   1.984  1.0395 -1.0431 -0.4883
10287SOL     OW33752   4.929   6.348   7.802  0.3392 -0.0886  0.1522
10287SOL    HW133753   4.900   6.262   7.771 -2.2082  1.0919 -0.9659
10287SOL    HW233754   5.012   6.330   7.846 -0.5507 -3.2699  0.7906
10288SOL     OW33755   1.614   3.701   9.102  0.8333  0.2600 -0.2399
10288SOL    HW133756   1.576   3.751   9.175  0.1011 -0.9224  0.2262
10288SOL    HW233757   1.546   3.702   9.035  1.4312  1.1768 -0.8610
10289SOL     OW33758   4.951   6.887   7.339  0.3416 -0.0967 -0.2343
10289SOL    HW133759   4.988   6.841   7.414  0.7086  1.2605  0.4507
10289SOL    HW233760   5.022   6.889   7.275  0.8626  0.8486  0.3457
10290SOL     OW33761   2.123   0.173   5.031 -0.0326 -0.4113  0.2264
10290SOL    HW133762   2.132   0.183   4.936 -0.6185  0.3833  0.2436
10290SOL    HW233763   2.155   0.085   5.049  3.2905  0.5199 -0.2940
10291SOL     OW33764   0.547   0.502   8.419  0.1315 -0.5059 -0.2754
10291SOL    HW133765   0.457   0.530   8.403 -0.4564 -0.7842  2.1839
10291SOL    HW233766   0.599   0.582   8.411 -0.7521  0.2337  1.0680
10292SOL     OW33767   2.406   0.668   6.744  0.5202 -0.4244  0.1382
10292SOL    HW133768   2.436   0.654   6.654 -0.6862 -0.5223 -0.2599
10292SOL    HW233769   2.374   0.582   6.772 -2.4412  0.3281 -0.6262
10293SOL     OW33770   0.076   8.086   7.330  0.1088  0.4279  0.0479
10293SOL    HW133771   0.006   8.041   7.377 -1.1319  1.8949 -0.3143
10293SOL    HW233772   0.037   8.108   7.245  2.4171 -2.5777 -2.0030
10294SOL     OW33773   6.806   7.130   8.077 -0.4227 -0.1114 -0.4847
10294SOL    HW133774   6.770   7.167   8.157 -0.5857 -0.0145 -0.6028
10294SOL    HW233775   6.884   7.181   8.059 -1.0559  0.6846 -1.0615
10295SOL     OW33776   2.523   2.853   6.555 -0.1416 -0.0982 -0.0775
10295SOL    HW133777   2.560   2.793   6.489  1.4510 -1.6109  2.0622
10295SOL    HW233778   2.534   2.807   6.638 -0.7022  2.3738  1.4570
10296SOL     OW33779   3.120   7.080   5.444  0.4185  0.3060  0.2937
10296SOL    HW133780   3.192   7.052   5.388  2.0572  1.2816  1.7781
10296SOL    HW233781   3.112   7.010   5.509 -0.6286 -0.2349 -0.3956
10297SOL     OW33782   9.120   6.305   1.969 -0.2456 -0.0509 -0.3087
10297SOL    HW133783   9.024   6.305   1.965 -0.2639 -2.5297 -1.9058
10297SOL    HW233784   9.142   6.222   2.011  1.2168  0.4063 -0.1247
10298SOL     OW33785   2.809   1.031   3.361 -0.4548 -0.2225  0.4660
10298SOL    HW133786   2.787   1.005   3.451 -1.0217  1.1624  0.7591
10298SOL    HW233787   2.882   1.092   3.371 -0.5689 -0.0047 -0.0107
10299SOL     OW33788   4.830   7.325   7.738  0.0518  0.2069 -0.5205
10299SOL    HW133789   4.807   7.365   7.822  0.8778 -1.0698  0.3418
10299SOL    HW233790   4.767   7.254   7.728  0.7069 -0.3997 -0.3886
10300SOL     OW33791   7.038   3.472   2.793  0.2697  0.0749 -0.0349
10300SOL    HW133792   6.975   3.509   2.731  1.0220 -0.2534 -1.0036
10300SOL    HW233793   7.123   3.481   2.750  0.7870 -0.2990  0.8842
10301SOL     OW33794   3.877   8.873   7.042 -0.3358 -0.0914 -0.1214
10301SOL    HW133795   3.948   8.909   6.988 -0.1189  0.9779  0.8212
10301SOL    HW233796   3.805   8.936   7.031 -0.1144  0.4233  1.1897
10302SOL     OW33797   6.583   0.286   4.136 -0.1094 -0.1351 -0.3634
10302SOL    HW133798   6.574   0.238   4.054  0.9393 -0.2302 -0.4360
10302SOL    HW233799   6.677   0.285   4.154 -0.3339 -0.1503  0.8665
10303SOL     OW33800   8.433   4.753   3.853  0.2180 -0.4069  0.5058
10303SOL    HW133801   8.376   4.774   3.779 -1.8795 -0.5093  1.9909
10303SOL    HW233802   8.478   4.835   3.873  0.0119 -0.1102 -0.2336
10304SOL     OW33803   7.243   0.960   3.071  0.1526 -0.1450 -0.0550
10304SOL    HW133804   7.197   0.983   2.990 -0.4103 -0.0137  0.3056
10304SOL    HW233805   7.265   1.044   3.111 -0.4044 -0.2121  0.4024
10305SOL     OW33806   0.023   7.926   1.602  0.2465 -0.4826 -0.7627
10305SOL    HW133807  -0.068   7.952   1.584  0.5744  0.9475 -0.5347
10305SOL    HW233808   0.055   7.893   1.518 -0.0664  0.3722 -1.2411
10306SOL     OW33809   7.432   1.633   6.538  0.1279 -0.6794 -0.5136
10306SOL    HW133810   7.495   1.692   6.581  0.0207  0.1691 -1.4825
10306SOL    HW233811   7.450   1.547   6.576  1.0423 -0.2237  0.1234
10307SOL     OW33812   8.462   2.605   8.454 -0.4793 -0.0787 -0.0362
10307SOL    HW133813   8.382   2.642   8.491  0.1868 -0.4912  1.9212
10307SOL    HW233814   8.432   2.554   8.379 -2.4250 -2.1717  2.0111
10308SOL     OW33815   2.188   1.168   7.623  0.2668 -0.4051  0.4036
10308SOL    HW133816   2.155   1.117   7.697 -1.4477  1.2650  0.8828
10308SOL    HW233817   2.271   1.204   7.654  1.3568 -2.5208  0.1663
10309SOL     OW33818   5.730   7.008   4.461 -0.7187 -0.2992  0.4709
10309SOL    HW133819   5.700   6.979   4.375  1.1939 -1.4587  0.1411
10309SOL    HW233820   5.664   6.975   4.522 -0.4090 -2.4021 -0.2630
10310SOL     OW33821   3.545   1.912   7.025 -0.3055  0.0645  0.0117
10310SOL    HW133822   3.579   1.938   7.110  3.2412  1.6362 -1.6694
10310SOL    HW233823   3.603   1.841   6.997  0.5554  1.5253 -2.2140
10311SOL     OW33824   4.299   7.542   9.168  0.5581  0.2946  0.6773
10311SOL    HW133825   4.328   7.569   9.081  0.1636 -0.5913  0.2615
10311SOL    HW233826   4.326   7.451   9.175  1.1921  0.5480  1.7602
10312SOL     OW33827   4.427   6.785   7.912  0.2252  0.1266 -0.0827
10312SOL    HW133828   4.332   6.791   7.902  0.3036  0.5206 -0.6684
10312SOL    HW233829   4.442   6.698   7.947 -0.4434  0.5409  1.3145
10313SOL     OW33830   6.026   4.086   7.476 -0.3034  0.2962 -0.1100
10313SOL    HW133831   6.026   4.030   7.398  0.0010 -0.1900  0.2405
10313SOL    HW233832   6.028   4.175   7.440 -2.1092  0.1478 -0.7003
10314SOL     OW33833   7.135   0.538   8.612  0.1227  0.6226  0.4958
10314SOL    HW133834   7.077   0.511   8.541  0.7165  1.5905 -0.3966
10314SOL    HW233835   7.077   0.573   8.679 -0.4764 -0.7015  0.6935
10315SOL     OW33836   4.536   8.638   4.005  0.4554 -0.1194 -0.3422
10315SOL    HW133837   4.532   8.709   3.940 -0.9730 -1.1090 -1.3708
10315SOL    HW233838   4.615   8.590   3.982  0.3091 -0.0810 -0.9447
10316SOL     OW33839   7.463   9.185   5.256  0.6210 -0.2288 -0.6812
10316SOL    HW133840   7.540   9.144   5.217 -0.3251 -0.8362 -1.9591
10316SOL    HW233841   7.394   9.119   5.250 -0.4134  0.8386 -0.9590
10317SOL     OW33842   8.451   4.994   7.397 -0.0404  0.0516 -0.6918
10317SOL    HW133843   8.391   4.995   7.472 -0.5146  1.1015 -1.0689
10317SOL    HW233844   8.457   5.085   7.370  2.3040  0.1177 -0.2141
10318SOL     OW33845   1.840   2.729   2.738 -0.2550 -0.4187  0.1328
10318SOL    HW133846   1.788   2.810   2.738  1.9108  1.1047 -1.5910
10318SOL    HW233847   1.911   2.747   2.677  0.9504 -3.2728  0.5581
10319SOL     OW33848   6.097   8.070   8.018 -0.2814  0.4212 -0.0605
10319SOL    HW133849   6.161   8.138   8.041  0.5719 -0.8563  1.5846
10319SOL    HW233850   6.016   8.099   8.061 -0.1398  0.7879 -0.0286
10320SOL     OW33851   5.672   3.720   4.113 -0.1883  0.5198 -0.4319
10320SOL    HW133852   5.643   3.671   4.036 -1.6382  0.8497 -0.1181
10320SOL    HW233853   5.634   3.674   4.188  0.1939  0.9103  0.0159
10321SOL     OW33854   2.406   4.732   3.604  0.4534 -0.1556 -0.7490
10321SOL    HW133855   2.344   4.667   3.637  2.2269 -1.7981 -0.5012
10321SOL    HW233856   2.367   4.816   3.628 -1.4211 -1.1255 -0.1802
10322SOL     OW33857   8.436   6.211   2.467  0.1928 -0.1365 -0.0730
10322SOL    HW133858   8.504   6.144   2.475 -0.7996 -1.1321  0.4784
10322SOL    HW233859   8.430   6.229   2.373  0.2515 -1.0874 -0.2698
10323SOL     OW33860   9.243   7.116   6.059 -0.3643  0.5262  0.1619
10323SOL    HW133861   9.182   7.102   6.131 -1.5278 -0.3197 -0.9293
10323SOL    HW233862   9.240   7.034   6.009  2.3288  0.1315  0.5147
10324SOL     OW33863   4.737   4.071   7.812 -0.0691 -0.0669  0.0160
10324SOL    HW133864   4.681   4.132   7.763 -0.0998 -0.2436 -0.1701
10324SOL    HW233865   4.779   4.018   7.744 -0.3092 -0.4886  0.1978
10325SOL     OW33866   7.812   4.729   9.166  0.0340  0.7491 -0.5957
10325SOL    HW133867   7.807   4.638   9.136  0.4700  0.6538 -0.3790
10325SOL    HW233868   7.897   4.736   9.209 -0.0338  1.2383 -0.5350
10326SOL     OW33869   4.441   7.345   2.809 -0.2021  0.3068  0.3760
10326SOL    HW133870   4.459   7.436   2.832 -2.0087  0.5096  1.1864
10326SOL    HW233871   4.427   7.347   2.714  0.6719  0.6817  0.2383
10327SOL     OW33872   3.698   7.315   7.033  0.2356  0.0972 -0.1018
10327SOL    HW133873   3.720   7.310   6.940 -0.1864  1.8172 -0.3196
10327SOL    HW233874   3.625   7.253   7.044 -0.3823  0.6224 -1.1388
10328SOL     OW33875   6.699   2.848   7.267 -0.0698 -0.2726  0.0655
10328SOL    HW133876   6.693   2.765   7.315 -0.1709 -0.9730 -1.1131
10328SOL    HW233877   6.693   2.915   7.334  1.5730 -1.2297  1.2349
10329SOL     OW33878   2.638   5.685   0.868  0.0772 -0.0068  0.0573
10329SOL    HW133879   2.732   5.702   0.868  0.0843 -0.0013  0.7957
10329SOL    HW233880   2.622   5.640   0.951 -0.8296  1.5084  0.7530
10330SOL     OW33881   8.808   8.774   2.889  0.2299 -0.1706  0.3583
10330SOL    HW133882   8.789   8.682   2.906  1.1042 -0.3782  0.2351
10330SOL    HW233883   8.860   8.803   2.963  0.2768  0.1270  0.2131
10331SOL     OW33884   8.005   7.284   7.443 -0.0237  0.1532 -0.6913
10331SOL    HW133885   8.087   7.245   7.474 -0.1295  1.3773  1.3026
10331SOL    HW233886   7.940   7.260   7.509 -0.8543  0.7498 -1.2651
10332SOL     OW33887   7.538   3.162   2.465 -0.2829 -0.3733  0.3763
10332SOL    HW133888   7.476   3.221   2.422 -1.1186  0.7520  2.9044
10332SOL    HW233889   7.546   3.197   2.554  2.1380 -1.9272  0.8552
10333SOL     OW33890   0.823   1.439   5.068  0.2366 -0.1729  0.0145
10333SOL    HW133891   0.820   1.392   4.985 -0.3256 -0.4795  0.2005
10333SOL    HW233892   0.880   1.386   5.124 -0.1425 -0.4695  0.1228
10334SOL     OW33893   0.743   8.084   4.144 -0.3935  0.4045  0.0664
10334SOL    HW133894   0.648   8.092   4.153 -0.5247  0.0982 -0.9267
10334SOL    HW233895   0.764   7.998   4.182 -0.7094 -0.1284 -0.9134
10335SOL     OW33896   8.138   5.183   2.898 -0.0375 -0.0120 -0.4240
10335SOL    HW133897   8.217   5.136   2.873  0.2023  0.0360  0.2477
10335SOL    HW233898   8.153   5.210   2.989 -0.9587 -0.2884 -0.1834
10336SOL     OW33899   6.774   4.110   6.710  0.7510 -0.4789 -0.1803
10336SOL    HW133900   6.800   4.024   6.743 -0.1697 -0.2219  1.2999
10336SOL    HW233901   6.691   4.093   6.664  1.5481 -0.6744 -1.6066
10337SOL     OW33902   0.305   0.866   5.440 -0.7262 -0.2398 -0.5425
10337SOL    HW133903   0.302   0.923   5.363 -1.2328  0.4770 -0.0095
10337SOL    HW233904   0.390   0.882   5.479 -0.1675 -1.1562 -1.3491
10338SOL     OW33905   5.185   8.076   5.304  0.0104 -0.0099 -0.7893
10338SOL    HW133906   5.189   7.991   5.262 -0.4250 -0.6547  0.4344
10338SOL    HW233907   5.104   8.116   5.271  0.1883 -0.0819 -1.3195
10339SOL     OW33908   7.514   7.527   3.087  0.0521 -0.0717 -0.1406
10339SOL    HW133909   7.525   7.455   3.025  0.2173 -1.4918  1.4813
10339SOL    HW233910   7.551   7.603   3.042 -0.1522 -0.9782 -1.9040
10340SOL     OW33911   6.827   4.404   8.093  0.4307  0.2979 -0.3323
10340SOL    HW133912   6.913   4.396   8.133 -0.5338 -0.5158  1.7001
10340SOL    HW233913   6.771   4.344   8.142 -1.3663  0.9869 -1.4125
10341SOL     OW33914   8.602   2.739   8.048 -0.0774  0.0385 -0.0621
10341SOL    HW133915   8.562   2.656   8.076  0.8843  0.1729  1.8790
10341SOL    HW233916   8.695   2.727   8.063  0.6485  0.0532 -3.7086
10342SOL     OW33917   4.461   3.654   2.877 -0.0917  0.3014  0.0836
10342SOL    HW133918   4.374   3.667   2.914 -0.7002 -0.1260 -1.1324
10342SOL    HW233919   4.446   3.647   2.783  1.1463 -0.7747 -0.0589
10343SOL     OW33920   5.033   8.546   4.216  0.1543  0.1616  0.1943
10343SOL    HW133921   5.066   8.631   4.245 -0.0275  0.2373  0.1854
10343SOL    HW233922   5.111   8.493   4.202  0.4269  1.0029 -1.9781
10344SOL     OW33923   0.107   7.439   1.096  0.2445 -0.4216  0.5831
10344SOL    HW133924   0.141   7.520   1.057 -0.0367 -0.5209  0.1075
10344SOL    HW233925   0.135   7.370   1.036 -2.4714 -0.2988 -1.0042
10345SOL     OW33926   3.311   0.587   0.949 -0.0586  0.2989  0.9102
10345SOL    HW133927   3.216   0.582   0.944  0.0269 -1.7263  0.4748
10345SOL    HW233928   3.342   0.510   0.901  1.6890 -0.9976  3.8436
10346SOL     OW33929   2.626   5.759   3.032 -0.5913 -0.5219 -0.0099
10346SOL    HW133930   2.687   5.686   3.044 -1.3327 -1.1195  0.1423
10346SOL    HW233931   2.582   5.768   3.116 -0.8556 -0.2120 -0.1804
10347SOL     OW33932   4.039   0.407   0.307 -0.0006  0.2481 -0.1308
10347SOL    HW133933   4.013   0.333   0.253 -1.0166 -0.3321  1.0972
10347SOL    HW233934   4.123   0.381   0.344 -0.7196 -0.6931  0.9289
10348SOL     OW33935   8.581   3.872   2.535 -0.1058  0.5358 -0.4639
10348SOL    HW133936   8.598   3.966   2.535 -0.2239  0.5676  0.5501
10348SOL    HW233937   8.659   3.833   2.497 -0.7044  1.1365 -2.4277
10349SOL     OW33938   5.680   2.482   0.787  0.5395 -0.2300 -0.0587
10349SOL    HW133939   5.772   2.466   0.804  0.4169  0.0284  0.8949
10349SOL    HW233940   5.649   2.403   0.742  1.2988 -0.1677 -0.7039
10350SOL     OW33941   8.874   1.844   3.374 -0.4463  0.3746 -0.5678
10350SOL    HW133942   8.929   1.892   3.312  0.0998 -0.4022 -0.6919
10350SOL    HW233943   8.849   1.764   3.328 -1.7709  0.7440 -0.5468
10351SOL     OW33944   8.399   3.554   4.325 -0.2334 -0.0642  0.7985
10351SOL    HW133945   8.425   3.631   4.375  2.3392  0.0811 -0.6087
10351SOL    HW233946   8.309   3.573   4.297 -0.3678  1.4998  2.1403
10352SOL     OW33947   3.837   7.836   5.335 -0.5268 -0.1642  0.2004
10352SOL    HW133948   3.774   7.890   5.383  1.4698  1.2555  1.3625
10352SOL    HW233949   3.889   7.899   5.284 -1.0470 -1.4428 -2.0352
10353SOL     OW33950   1.617   1.857   1.337  0.1602  0.0516  0.5149
10353SOL    HW133951   1.531   1.881   1.302  0.2862 -1.8047 -1.2802
10353SOL    HW233952   1.660   1.811   1.265  1.4406 -1.8441  2.3739
10354SOL     OW33953   5.342   0.593   7.107 -0.0128  0.1766  0.2651
10354SOL    HW133954   5.314   0.681   7.081  0.0800  0.1073 -0.0627
10354SOL    HW233955   5.433   0.604   7.134  1.1243 -0.3997 -2.9327
10355SOL     OW33956   6.202   1.782   6.198 -0.1896  0.4393 -0.1738
10355SOL    HW133957   6.248   1.818   6.274 -1.7825  2.5678 -0.1391
10355SOL    HW233958   6.112   1.767   6.229 -0.4835 -0.0918 -1.2278
10356SOL     OW33959   6.487   1.111   0.882  0.3249 -0.7519 -0.5367
10356SOL    HW133960   6.524   1.151   0.804  1.2422  0.4028  0.4592
10356SOL    HW233961   6.560   1.065   0.924  0.3631  0.3740  0.7093
10357SOL     OW33962   4.161   7.650   5.327  0.4370  0.0344 -0.0958
10357SOL    HW133963   4.146   7.714   5.396 -2.1664 -0.8424  0.2702
10357SOL    HW233964   4.127   7.692   5.248 -3.1364 -1.3878  0.4646
10358SOL     OW33965   8.204   2.888   7.625 -0.5930 -0.0363  0.0509
10358SOL    HW133966   8.219   2.888   7.531  3.8117 -0.9812  0.5610
10358SOL    HW233967   8.137   2.821   7.639 -2.9614  1.6080 -2.4322
10359SOL     OW33968   5.624   1.642   8.522  0.1848 -0.1881 -0.5802
10359SOL    HW133969   5.574   1.712   8.565  1.1203  0.8408 -1.1150
10359SOL    HW233970   5.592   1.561   8.563 -1.0525  0.5272 -0.0720
10360SOL     OW33971   3.243   8.644   1.486 -0.0321  0.1319  0.0615
10360SOL    HW133972   3.326   8.638   1.440 -0.3832  0.3174 -0.6250
10360SOL    HW233973   3.258   8.708   1.555  0.2390  0.6050 -0.4255
10361SOL     OW33974   0.936   5.006   4.017  0.0476 -0.3090 -0.0952
10361SOL    HW133975   0.953   4.967   3.931 -1.1802 -0.2328 -0.4001
10361SOL    HW233976   0.896   4.936   4.068  0.0192 -0.1275  0.1364
10362SOL     OW33977   3.434   8.844   4.268  0.7557  0.1395  0.4248
10362SOL    HW133978   3.485   8.832   4.188  0.2396 -0.4311  0.1792
10362SOL    HW233979   3.367   8.776   4.265  0.1283  0.7200  0.8682
10363SOL     OW33980   5.229   6.492   4.434 -0.1305 -0.0635 -0.6165
10363SOL    HW133981   5.306   6.503   4.490  2.7838 -0.8368 -4.1705
10363SOL    HW233982   5.223   6.398   4.418 -2.9550 -0.2534  0.8320
10364SOL     OW33983   3.469   5.997   6.756  0.2854 -0.0262 -0.0066
10364SOL    HW133984   3.414   6.074   6.740  0.0341 -0.0125  0.8530
10364SOL    HW233985   3.542   6.007   6.695  0.4962  1.1483  0.3947
10365SOL     OW33986   7.053   7.535   1.994  0.4717  0.1576  0.1370
10365SOL    HW133987   7.068   7.454   2.044 -0.8115  1.0133  2.0003
10365SOL    HW233988   7.140   7.559   1.961  1.4064 -0.4264  2.0246
10366SOL     OW33989   6.591   4.184   3.395 -0.2507 -0.0316 -0.5181
10366SOL    HW133990   6.528   4.255   3.407  0.5202  0.5968 -0.1224
10366SOL    HW233991   6.588   4.166   3.301  0.4940  1.4547 -0.8746
10367SOL     OW33992   6.679   3.580   8.747  0.1696 -0.1571  0.3790
10367SOL    HW133993   6.762   3.613   8.781 -0.5831  0.3499  1.8623
10367SOL    HW233994   6.686   3.485   8.754  0.6909 -0.1250  0.3152
10368SOL     OW33995   6.365   2.995   4.651 -0.3358  0.0374 -0.0900
10368SOL    HW133996   6.404   2.915   4.614 -1.9464 -0.4023 -0.9061
10368SOL    HW233997   6.279   3.001   4.610 -0.0883  2.4606 -0.4002
10369SOL     OW33998   1.499   2.816   6.355  0.3599  0.2022 -0.2549
10369SOL    HW133999   1.581   2.862   6.372  0.9017 -0.1698 -1.6966
10369SOL    HW234000   1.484   2.828   6.261 -0.8946 -0.2999 -0.1357
10370SOL     OW34001   2.875   1.783   7.761 -0.0546  0.0999 -0.5470
10370SOL    HW134002   2.804   1.816   7.706  0.6407  1.7227 -0.5258
10370SOL    HW234003   2.952   1.784   7.705  0.3977  0.4911  0.0666
10371SOL     OW34004   5.841   8.388   1.078 -0.2891 -0.3737  0.3264
10371SOL    HW134005   5.830   8.460   1.017  0.9123 -0.2239  0.2628
10371SOL    HW234006   5.912   8.335   1.040  0.2447 -0.4575  1.4078
10372SOL     OW34007   7.022   0.998   2.814  0.2839 -0.2207 -0.7868
10372SOL    HW134008   6.928   0.980   2.810 -0.1490  1.4834  0.3240
10372SOL    HW234009   7.028   1.093   2.804  1.5903  0.1135  2.1604
10373SOL     OW34010   1.753   3.681   5.995  0.5379 -0.2759  0.3335
10373SOL    HW134011   1.783   3.739   5.925  0.9473  0.1483  0.8545
10373SOL    HW234012   1.693   3.734   6.047  0.5441 -0.4656  0.5361
10374SOL     OW34013   8.278   6.073   6.772  0.1448 -0.5114 -0.2972
10374SOL    HW134014   8.225   5.996   6.751 -1.3601  0.0860  1.0505
10374SOL    HW234015   8.301   6.111   6.688  1.4124 -2.7044 -1.0305
10375SOL     OW34016   6.513   5.261   1.642  0.5422  0.5404  0.1405
10375SOL    HW134017   6.469   5.176   1.646 -0.6044  1.1422  1.2089
10375SOL    HW234018   6.606   5.239   1.639  0.2806 -0.7656  0.5756
10376SOL     OW34019   0.305   8.171   6.013 -0.2144 -0.1657  0.0237
10376SOL    HW134020   0.374   8.224   6.052 -0.6070 -0.2553  0.8694
10376SOL    HW234021   0.291   8.209   5.927 -1.1738  1.7724  0.9734
10377SOL     OW34022   1.566   3.393   6.455 -0.0056 -0.7293  0.0640
10377SOL    HW134023   1.500   3.331   6.425  0.6676 -1.2532 -0.3554
10377SOL    HW234024   1.579   3.372   6.548  0.1264 -1.1376 -0.0451
10378SOL     OW34025   8.638   3.598   4.028 -0.3689  0.0063 -0.0805
10378SOL    HW134026   8.631   3.629   4.118  1.9544 -0.1103  0.1997
10378SOL    HW234027   8.732   3.598   4.010 -0.6008 -2.1199 -1.7371
10379SOL     OW34028   3.454   7.037   0.454 -0.3846 -0.3520  0.0443
10379SOL    HW134029   3.366   7.075   0.447  0.0375  0.4975 -0.9144
10379SOL    HW234030   3.499   7.092   0.518  0.0164  0.3745 -0.8445
10380SOL     OW34031   4.747   7.280   2.119  0.2972  0.1035 -0.3227
10380SOL    HW134032   4.715   7.202   2.164 -1.2870  0.8059 -0.1750
10380SOL    HW234033   4.840   7.285   2.144  0.2609 -1.3353  0.2081
10381SOL     OW34034   1.512   4.027   0.788  0.7777 -0.7103 -0.0398
10381SOL    HW134035   1.491   3.941   0.753  0.8786 -0.4742 -0.7060
10381SOL    HW234036   1.427   4.068   0.804  0.7225 -1.1623  0.8909
10382SOL     OW34037   6.821   6.693   3.113 -0.0061 -1.0161  0.7211
10382SOL    HW134038   6.901   6.694   3.165 -0.0188 -0.4713  0.7413
10382SOL    HW234039   6.766   6.625   3.152  1.1482 -2.6615 -0.3789
10383SOL     OW34040   3.689   3.198   1.778  0.4406  0.5999  0.2290
10383SOL    HW134041   3.742   3.270   1.744 -0.7837  1.0907 -0.7239
10383SOL    HW234042   3.737   3.166   1.855  0.8189  2.6737  0.9002
10384SOL     OW34043   5.066   2.536   6.409  0.0435 -0.1777  0.7033
10384SOL    HW134044   4.998   2.517   6.473 -1.1118 -0.1537 -0.4673
10384SOL    HW234045   5.144   2.492   6.443  0.0029  1.3750  3.0705
10385SOL     OW34046   0.526   1.719   0.279 -0.2786 -0.2288  0.1272
10385SOL    HW134047   0.433   1.696   0.270  0.1003 -1.6143 -0.7192
10385SOL    HW234048   0.560   1.656   0.342 -0.3098  1.6167  2.0781
10386SOL     OW34049   5.442   2.018   1.064 -0.2392 -0.8247 -0.5081
10386SOL    HW134050   5.513   2.013   0.999  0.5091  0.6697  0.1457
10386SOL    HW234051   5.400   2.102   1.047  0.4465 -0.0516  1.3709
10387SOL     OW34052   4.373   3.383   6.701  0.6420 -0.0738 -0.3331
10387SOL    HW134053   4.375   3.301   6.751 -0.5982 -0.4901 -0.9203
10387SOL    HW234054   4.464   3.409   6.694  1.0635 -1.3949 -0.0882
10388SOL     OW34055   4.960   3.459   3.863 -0.4496  0.0879 -0.4905
10388SOL    HW134056   4.991   3.377   3.903  0.8814  0.0860 -1.4636
10388SOL    HW234057   4.898   3.431   3.796  0.4409 -0.1674 -1.2129
10389SOL     OW34058   5.511   2.211   3.862  0.2980 -0.3184  0.4812
10389SOL    HW134059   5.558   2.234   3.943  0.5353  0.2940  0.1790
10389SOL    HW234060   5.452   2.140   3.888 -1.0087  1.1318  1.6324
10390SOL     OW34061   0.932   4.221   3.910 -0.2537 -0.0497  0.0456
10390SOL    HW134062   0.905   4.136   3.875  1.3559 -0.6851  0.2469
10390SOL    HW234063   0.899   4.221   4.000 -1.7547  0.2947 -0.4818
10391SOL     OW34064   2.636   3.418   3.648 -0.0765  0.1918  0.4768
10391SOL    HW134065   2.676   3.442   3.565 -1.6962 -0.3841 -0.5175
10391SOL    HW234066   2.608   3.327   3.636  0.0525 -0.0449  1.8108
10392SOL     OW34067   5.287   2.702   1.621 -0.2668  0.0500  1.2450
10392SOL    HW134068   5.319   2.673   1.706 -0.5894  0.2846  1.4473
10392SOL    HW234069   5.365   2.705   1.566  0.0055  0.2875  1.6387
10393SOL     OW34070   9.114   7.868   2.803  0.1100 -0.0802 -0.2282
10393SOL    HW134071   9.071   7.953   2.798  0.6871  0.1821 -0.8441
10393SOL    HW234072   9.103   7.841   2.895 -0.6712  0.3327 -0.1969
10394SOL     OW34073   2.741   3.991   6.835 -0.3819  0.5963 -0.0574
10394SOL    HW134074   2.797   4.064   6.862  1.3306 -0.6221 -0.1128
10394SOL    HW234075   2.676   3.983   6.904  0.3501  1.2129  0.7253
10395SOL     OW34076   6.231   0.258   3.861 -0.1902 -0.0066 -0.3283
10395SOL    HW134077   6.168   0.190   3.836  0.7715 -1.6760  1.5958
10395SOL    HW234078   6.244   0.309   3.781 -1.3086 -1.7814 -1.7012
10396SOL     OW34079   8.990   1.958   8.450  0.6959 -0.3613 -0.0792
10396SOL    HW134080   9.051   1.912   8.507  0.3374  1.1512  1.5898
10396SOL    HW234081   9.045   2.020   8.401  0.9822 -1.5572 -1.3415
10397SOL     OW34082   7.789   3.417   4.857 -0.3879 -0.5757  0.0386
10397SOL    HW134083   7.798   3.334   4.811 -0.3433 -0.5352 -0.0266
10397SOL    HW234084   7.819   3.483   4.794  2.8216 -0.7683  1.1796
10398SOL     OW34085   1.720   6.091   4.688 -0.6435  0.0210  0.1709
10398SOL    HW134086   1.714   6.042   4.606  0.5398 -0.0210  0.0860
10398SOL    HW234087   1.811   6.120   4.691 -0.5663 -0.2986  1.6513
10399SOL     OW34088   2.234   4.129   2.065 -0.0634 -0.4662  0.8340
10399SOL    HW134089   2.252   4.074   1.989  0.6975  1.2535 -0.2849
10399SOL    HW234090   2.289   4.093   2.135  1.1723 -0.5374 -0.1471
10400SOL     OW34091   1.682   1.474   1.103  0.2843 -0.1143  0.0588
10400SOL    HW134092   1.613   1.421   1.143  0.6026 -0.9972 -0.5120
10400SOL    HW234093   1.712   1.531   1.173 -0.8000  0.0532  0.4003
10401SOL     OW34094   7.956   2.534   5.242 -0.4996 -0.2161  0.3011
10401SOL    HW134095   7.944   2.622   5.279 -3.0067 -0.3002 -0.1351
10401SOL    HW234096   8.021   2.493   5.299 -1.1680  1.0592  2.0803
10402SOL     OW34097   5.198   5.160   0.859  0.6026 -0.1630  0.0806
10402SOL    HW134098   5.245   5.241   0.839  1.0228 -0.4649 -0.1892
10402SOL    HW234099   5.109   5.188   0.881  1.1011  0.5032  1.3916
10403SOL     OW34100   7.112   7.236   2.045  0.6476 -0.0377 -0.0113
10403SOL    HW134101   7.136   7.158   1.995  0.7437 -1.0867  1.5781
10403SOL    HW234102   7.019   7.248   2.028  0.6339 -0.5098 -0.2924
10404SOL     OW34103   0.286   3.806   3.409 -0.2758  0.3220  0.0972
10404SOL    HW134104   0.315   3.833   3.496 -0.5555 -1.1746  0.6872
10404SOL    HW234105   0.200   3.846   3.398  0.0455  1.0627  0.2185
10405SOL     OW34106   6.280   3.593   2.837  0.1877  0.1917  0.4624
10405SOL    HW134107   6.197   3.575   2.793 -0.1351  1.9975  0.2588
10405SOL    HW234108   6.343   3.536   2.793 -0.3987  0.8935 -1.3963
10406SOL     OW34109   1.542   7.920   6.696 -0.4593  0.2780  0.1105
10406SOL    HW134110   1.637   7.920   6.686 -0.4024 -3.3654 -0.6476
10406SOL    HW234111   1.528   7.909   6.790 -0.1620  0.6261  0.2011
10407SOL     OW34112   7.038   3.454   2.482 -0.0683 -0.7949  0.0946
10407SOL    HW134113   7.104   3.449   2.413  0.7341 -2.0607  0.9113
10407SOL    HW234114   6.971   3.391   2.455 -0.4239 -0.3059 -0.1856
10408SOL     OW34115   5.819   4.595   1.415  0.4340  0.5830 -0.1425
10408SOL    HW134116   5.727   4.593   1.443  0.6652  0.6848  0.6467
10408SOL    HW234117   5.853   4.509   1.440  0.6988  0.7492  0.0683
10409SOL     OW34118   4.132   7.212   2.398  0.1602  0.1240 -1.1685
10409SOL    HW134119   4.053   7.203   2.451 -0.4835 -1.3775 -2.2942
10409SOL    HW234120   4.119   7.294   2.349  0.1698  0.8318 -0.0322
10410SOL     OW34121   1.093   3.595   7.436 -0.1521  0.1515  0.7632
10410SOL    HW134122   1.008   3.586   7.393 -0.1217  0.4028  0.6488
10410SOL    HW234123   1.143   3.519   7.407 -0.5405 -0.3165  1.3052
10411SOL     OW34124   6.401   6.998   4.017 -0.4000  0.4572 -0.4463
10411SOL    HW134125   6.400   7.088   3.986  0.1059  0.2335 -1.1281
10411SOL    HW234126   6.460   6.952   3.957  0.4249 -0.0296  0.6991
10412SOL     OW34127   2.563   0.670   7.133 -0.0401  0.4528  0.3906
10412SOL    HW134128   2.549   0.585   7.093 -2.0841  1.2711 -0.7881
10412SOL    HW234129   2.572   0.652   7.226  0.1010 -1.0806  0.1044
10413SOL     OW34130   2.649   8.690   4.243  0.1477 -0.4396 -0.2876
10413SOL    HW134131   2.599   8.740   4.179  0.4521  0.2542  0.0062
10413SOL    HW234132   2.695   8.756   4.295 -0.0196 -0.9938  0.5930
10414SOL     OW34133   0.675   8.621   8.186 -0.2835 -0.4628  0.1140
10414SOL    HW134134   0.607   8.609   8.252  0.1944  1.2485  0.9677
10414SOL    HW234135   0.642   8.691   8.130  1.2781  1.3315  1.3280
10415SOL     OW34136   4.548   0.696   4.276 -0.1856 -0.0908 -0.4164
10415SOL    HW134137   4.616   0.679   4.341  0.1089 -2.2391 -1.2302
10415SOL    HW234138   4.467   0.668   4.318  0.0568 -1.8804 -1.0611
10416SOL     OW34139   1.255   1.330   2.370  0.4918  0.1195 -0.2221
10416SOL    HW134140   1.171   1.375   2.367  0.1905 -0.1496  2.0500
10416SOL    HW234141   1.302   1.371   2.443  1.7301 -0.6869 -0.5362
10417SOL     OW34142   7.897   0.729   3.386 -0.6548 -0.2611  0.0386
10417SOL    HW134143   7.937   0.646   3.411  1.6625  0.3473 -1.3396
10417SOL    HW234144   7.840   0.751   3.459 -0.0969 -2.2672  1.1573
10418SOL     OW34145   5.357   0.817   6.926 -0.4177  0.3446  0.0837
10418SOL    HW134146   5.261   0.815   6.928 -0.4002 -1.0244  0.8999
10418SOL    HW234147   5.381   0.753   6.859 -0.0817 -1.2330  1.6406
10419SOL     OW34148   3.615   6.973   7.178 -0.2821  0.2929  0.3337
10419SOL    HW134149   3.653   6.939   7.097  1.5754  0.0509  1.2525
10419SOL    HW234150   3.554   7.041   7.150  0.2451  0.1338 -1.2665
10420SOL     OW34151   8.928   7.809   5.437 -0.3309  0.0599 -0.1413
10420SOL    HW134152   8.863   7.739   5.432  0.4823 -1.1547  3.4229
10420SOL    HW234153   9.001   7.778   5.383  0.3653 -2.3774  2.0175
10421SOL     OW34154   2.028   3.871   1.789 -0.0744  0.2294 -0.1107
10421SOL    HW134155   2.072   3.787   1.806 -0.7944 -0.1539 -0.1013
10421SOL    HW234156   2.007   3.868   1.696 -1.2752 -0.1884  0.1514
10422SOL     OW34157   7.681   5.206   2.106 -0.2331  0.1493  0.4273
10422SOL    HW134158   7.723   5.185   2.022 -0.2052  0.1916  0.4302
10422SOL    HW234159   7.629   5.284   2.088  0.1022  0.4026  0.5495
10423SOL     OW34160   2.726   4.981   5.251 -0.1574 -0.1299  0.6218
10423SOL    HW134161   2.787   4.939   5.191 -1.6636 -0.1176 -0.9678
10423SOL    HW234162   2.646   4.929   5.244 -1.6298  2.1444 -0.3791
10424SOL     OW34163   1.510   6.456   1.185 -0.8623  0.0350 -0.0496
10424SOL    HW134164   1.525   6.496   1.100 -1.0470  1.0063  0.3586
10424SOL    HW234165   1.432   6.500   1.219 -0.5520 -0.0454  0.7909
10425SOL     OW34166   0.207   8.033   8.302  0.1880 -0.1457 -0.1601
10425SOL    HW134167   0.117   8.066   8.301  0.4394  0.5572 -0.9832
10425SOL    HW234168   0.227   8.020   8.394 -0.7639 -0.3236  0.0302
10426SOL     OW34169   6.792   2.884   3.085 -0.0081  0.1747  0.0505
10426SOL    HW134170   6.878   2.842   3.077 -0.9712 -2.3733  1.7289
10426SOL    HW234171   6.732   2.822   3.044 -1.3328  0.6353  1.2209
10427SOL     OW34172   9.109   2.797   7.506 -0.1802 -0.4331 -0.2466
10427SOL    HW134173   9.131   2.840   7.588  1.1208 -2.6758  0.6576
10427SOL    HW234174   9.193   2.779   7.464 -0.7902 -0.0040 -1.7394
10428SOL     OW34175   3.127   3.942   6.082 -0.2939 -0.3744  0.3345
10428SOL    HW134176   3.109   3.962   6.174  1.7585 -1.1755  0.9761
10428SOL    HW234177   3.206   3.992   6.061 -0.5059 -0.5153 -0.8743
10429SOL     OW34178   1.053   1.122   2.144  0.2446 -0.0584 -0.5388
10429SOL    HW134179   1.034   1.049   2.086 -2.6665 -0.6176  0.9098
10429SOL    HW234180   1.025   1.200   2.096  1.3383 -0.0796 -1.2471
10430SOL     OW34181   2.586   8.015   8.412 -0.0111  0.5463 -0.3157
10430SOL    HW134182   2.671   8.038   8.450 -0.3650  1.1153  0.1601
10430SOL    HW234183   2.602   8.010   8.318  0.4537  1.1077 -0.2726
10431SOL     OW34184   3.960   2.702   1.697  0.4027  0.0915 -0.2574
10431SOL    HW134185   3.892   2.642   1.731  1.4162 -1.0572 -0.2007
10431SOL    HW234186   3.913   2.784   1.682 -0.6438 -0.1158  1.4920
10432SOL     OW34187   7.072   9.038   4.960 -0.1637  0.0392  0.5002
10432SOL    HW134188   7.167   9.048   4.953 -0.0180 -0.3837  1.5917
10432SOL    HW234189   7.041   9.034   4.870  0.7329  1.1972  0.1133
10433SOL     OW34190   0.191   8.035   0.451  0.1039  0.7067 -0.3279
10433SOL    HW134191   0.206   8.007   0.361 -1.3038  0.1675 -0.4099
10433SOL    HW234192   0.183   7.954   0.501 -0.5615  0.9827  0.0295
10434SOL     OW34193   6.490   7.214   2.291 -0.7713 -0.2519 -0.2996
10434SOL    HW134194   6.435   7.282   2.252  1.1038  1.2496 -0.4893
10434SOL    HW234195   6.428   7.151   2.326 -2.5835  0.1765 -2.4643
10435SOL     OW34196   7.469   2.112   4.808 -0.0541  0.4591 -0.3910
10435SOL    HW134197   7.438   2.075   4.891  0.2006  0.4261 -0.3101
10435SOL    HW234198   7.413   2.072   4.742 -0.5491  0.8159 -0.1973
10436SOL     OW34199   2.289   8.208   3.628  0.4088 -0.2221  0.4227
10436SOL    HW134200   2.321   8.153   3.699 -0.1953 -3.6174 -1.7049
10436SOL    HW234201   2.367   8.228   3.576  0.5907  0.7462  1.0562
10437SOL     OW34202   1.159   4.228   3.623  0.1440 -0.2547  0.2699
10437SOL    HW134203   1.160   4.132   3.630  0.6980 -0.1458  2.6164
10437SOL    HW234204   1.085   4.247   3.566 -1.5790 -2.0454  1.7302
10438SOL     OW34205   0.424   2.564   6.996 -0.0813 -0.2294 -0.1318
10438SOL    HW134206   0.345   2.510   6.996  0.2977 -0.8136  0.6799
10438SOL    HW234207   0.430   2.597   7.086  0.8463 -0.5660 -0.0657
10439SOL     OW34208   4.809   6.150   5.460  0.0630 -0.1317  0.0957
10439SOL    HW134209   4.864   6.073   5.477 -1.2547 -1.2452 -0.4744
10439SOL    HW234210   4.869   6.214   5.422  1.0642 -1.1152 -0.0396
10440SOL     OW34211   3.952   4.560   5.220  0.4343  0.0268 -0.2534
10440SOL    HW134212   3.873   4.611   5.204  0.6785  0.9878  1.3606
10440SOL    HW234213   3.923   4.469   5.215 -0.0784  0.2645 -2.8359
10441SOL     OW34214   4.621   7.446   7.474 -0.3188 -0.3251 -0.8034
10441SOL    HW134215   4.633   7.508   7.546 -0.6514 -0.3515 -0.7237
10441SOL    HW234216   4.671   7.484   7.402 -1.4787  0.6775 -1.1243
10442SOL     OW34217   2.852   2.619   1.517 -0.4151  0.2902  0.3586
10442SOL    HW134218   2.774   2.654   1.559 -0.7053 -2.3199  2.2433
10442SOL    HW234219   2.839   2.525   1.516  1.2806 -0.0374 -2.3615
10443SOL     OW34220   4.112   1.474   4.002  0.6119  0.1674 -0.0191
10443SOL    HW134221   4.052   1.474   4.076 -0.2052  1.2956 -0.6472
10443SOL    HW234222   4.071   1.532   3.938  4.0031  3.9495  0.8429
10444SOL     OW34223   0.776   3.492   3.874 -0.3627  0.0897  0.2848
10444SOL    HW134224   0.683   3.492   3.896 -0.4486 -1.4928  0.0757
10444SOL    HW234225   0.817   3.439   3.942 -0.2690 -2.6992 -1.7193
10445SOL     OW34226   4.175   7.062   6.821  0.0631 -0.0199 -0.3095
10445SOL    HW134227   4.213   6.975   6.807 -0.3992 -0.3368  0.3553
10445SOL    HW234228   4.143   7.089   6.735 -1.9526 -1.5375 -0.1028
10446SOL     OW34229   6.739   1.143   6.867 -0.0089  0.2011 -0.3355
10446SOL    HW134230   6.699   1.056   6.862  1.7348 -0.6638 -0.0884
10446SOL    HW234231   6.669   1.199   6.900 -0.8739 -1.3235  0.5604
10447SOL     OW34232   8.225   7.074   2.139  0.2966  0.4207 -0.1133
10447SOL    HW134233   8.154   7.138   2.149  0.5123  0.5670  0.5388
10447SOL    HW234234   8.186   6.990   2.163 -0.0338  0.2681 -1.1319
10448SOL     OW34235   7.562   9.117   4.206  0.1151  0.3117  0.2661
10448SOL    HW134236   7.560   9.205   4.167  0.0313  1.0802  1.9312
10448SOL    HW234237   7.477   9.108   4.248 -0.0493 -0.7731 -0.2732
10449SOL     OW34238   6.796   5.017   1.667  0.3365  0.1200  0.0843
10449SOL    HW134239   6.771   4.970   1.588  0.7397  0.9019 -0.5178
10449SOL    HW234240   6.868   4.965   1.704 -0.0053 -0.3716  0.0795
10450SOL     OW34241   1.929   1.868   4.816 -0.2886 -0.3181  0.3086
10450SOL    HW134242   1.897   1.831   4.898 -0.3727  1.1331  0.9732
10450SOL    HW234243   2.023   1.852   4.817 -0.3505 -0.6698  0.4958
10451SOL     OW34244   6.130   5.114   2.433 -0.4536  0.2640  0.3667
10451SOL    HW134245   6.057   5.131   2.374 -0.5075 -0.8258  0.0985
10451SOL    HW234246   6.089   5.086   2.515 -0.3713  1.5103  0.8505
10452SOL     OW34247   4.100   2.303   5.424  0.3268 -0.0392  0.2008
10452SOL    HW134248   4.138   2.359   5.490 -0.0614 -0.8639  1.1485
10452SOL    HW234249   4.078   2.362   5.352 -0.8512  1.1589  1.4950
10453SOL     OW34250   5.456   9.162   2.856 -0.0665 -0.4844  0.3430
10453SOL    HW134251   5.470   9.102   2.782  0.2321 -0.7633  0.6221
10453SOL    HW234252   5.539   9.207   2.866 -0.3377  0.0896  0.0399
10454SOL     OW34253   1.394   2.362   9.094  0.1949  0.8132 -0.0733
10454SOL    HW134254   1.313   2.412   9.083  0.1640  0.4739 -1.5020
10454SOL    HW234255   1.413   2.326   9.008  0.4871 -1.2527  0.7749
10455SOL     OW34256   6.131   9.200   4.401 -0.1304  0.1507  0.2014
10455SOL    HW134257   6.177   9.199   4.485 -1.0415  1.4314  0.7554
10455SOL    HW234258   6.084   9.116   4.398 -0.0697  0.0798  0.9737
10456SOL     OW34259   4.045   6.470   5.255  0.2210 -0.2411  0.5185
10456SOL    HW134260   3.967   6.426   5.290 -0.7326  0.4295 -0.7036
10456SOL    HW234261   4.103   6.479   5.331 -1.2999  0.1440  1.6800
10457SOL     OW34262   4.016   3.251   4.656 -0.2355  0.8255 -0.2385
10457SOL    HW134263   3.931   3.207   4.647  0.1691 -0.3739  1.2968
10457SOL    HW234264   3.997   3.327   4.711 -0.1433 -0.1707  1.2398
10458SOL     OW34265   6.495   1.980   7.836 -0.3508  0.4189 -0.2927
10458SOL    HW134266   6.418   1.960   7.889  1.2853 -0.9369  1.7176
10458SOL    HW234267   6.526   1.895   7.805 -0.7910  1.1224 -2.8354
10459SOL     OW34268   6.739   7.789   0.795 -0.1493 -0.6519 -0.4749
10459SOL    HW134269   6.728   7.763   0.887 -2.4691  2.6246  0.3309
10459SOL    HW234270   6.828   7.760   0.773  0.5727 -1.3862  2.8327
10460SOL     OW34271   3.328   1.480   2.819 -0.6967 -0.2247  0.3203
10460SOL    HW134272   3.291   1.444   2.738  0.5698  1.2665 -0.9853
10460SOL    HW234273   3.362   1.403   2.865  1.5587 -0.8900 -2.1823
10461SOL     OW34274   9.254   7.251   2.220 -0.3728 -0.1373 -0.1348
10461SOL    HW134275   9.208   7.336   2.217  0.3622  0.3309  0.9915
10461SOL    HW234276   9.188   7.190   2.252 -0.4966  0.3521  0.5967
10462SOL     OW34277   6.454   4.060   4.524 -0.0979  0.4270 -0.0457
10462SOL    HW134278   6.402   4.013   4.459 -0.8839 -2.0932  2.2199
10462SOL    HW234279   6.545   4.047   4.495 -0.4657  0.5077 -1.3074
10463SOL     OW34280   8.278   2.396   8.023 -0.7602  0.0683  0.4453
10463SOL    HW134281   8.252   2.398   8.115 -1.9158  3.0314  0.1603
10463SOL    HW234282   8.233   2.470   7.984  2.1112  0.7817 -1.8578
10464SOL     OW34283   4.131   4.945   5.871 -0.6388 -0.1176 -0.5806
10464SOL    HW134284   4.215   4.967   5.912  0.9007 -1.2084 -2.9312
10464SOL    HW234285   4.070   4.937   5.944  1.4685 -0.0046  1.2853
10465SOL     OW34286   2.024   9.191   0.369 -0.3142  0.4386  0.0806
10465SOL    HW134287   1.954   9.243   0.329 -1.2635 -0.6011  0.3393
10465SOL    HW234288   1.980   9.113   0.402  1.0583 -0.4610 -0.1438
10466SOL     OW34289   4.317   8.093   1.942  0.3012  0.8707 -0.2895
10466SOL    HW134290   4.295   8.167   1.999 -0.5928  0.6684 -0.3465
10466SOL    HW234291   4.399   8.059   1.977 -0.4193  0.5214  1.1442
10467SOL     OW34292   6.920   2.118   7.967  0.0755 -0.2446 -0.1589
10467SOL    HW134293   6.905   2.213   7.965 -0.9720 -0.4093 -1.5310
10467SOL    HW234294   6.919   2.092   7.875  1.9283 -1.3749  0.0906
10468SOL     OW34295   1.012   1.555   5.377  0.3380 -0.2476  0.0684
10468SOL    HW134296   1.024   1.614   5.302  3.3845 -1.7668 -0.8344
10468SOL    HW234297   0.921   1.567   5.404 -0.2729  1.8859 -2.5586
10469SOL     OW34298   5.348   0.324   7.782  0.6730  0.3787  0.5134
10469SOL    HW134299   5.273   0.322   7.842  0.0280  1.0549 -0.2358
10469SOL    HW234300   5.420   0.284   7.831 -0.1072 -0.0367  1.3501
10470SOL     OW34301   2.153   8.134   4.936  0.2713  0.1421  0.2073
10470SOL    HW134302   2.157   8.155   4.843 -1.3773 -1.0486 -0.1810
10470SOL    HW234303   2.212   8.060   4.947  3.1603  2.3290  0.8624
10471SOL     OW34304   0.552   8.174   6.704 -0.3859 -0.1011 -0.1517
10471SOL    HW134305   0.489   8.174   6.776 -0.0831  1.0522  0.1239
10471SOL    HW234306   0.550   8.084   6.670 -0.6059 -0.6249  1.2160
10472SOL     OW34307   0.283   4.609   2.165  0.0486  0.1391  0.3823
10472SOL    HW134308   0.228   4.661   2.106 -1.5351  0.2319  1.8427
10472SOL    HW234309   0.276   4.520   2.132 -0.5736  0.2348  0.2443
10473SOL     OW34310   2.203   5.952   1.067  0.3687 -0.0118 -0.4074
10473SOL    HW134311   2.242   5.974   1.152  0.7369  1.4922 -0.9326
10473SOL    HW234312   2.273   5.907   1.020 -0.1643 -1.8114  0.4231
10474SOL     OW34313   4.870   7.472   0.896 -0.5038  0.3088 -0.2040
10474SOL    HW134314   4.809   7.529   0.944  0.8414  1.0853  0.6606
10474SOL    HW234315   4.924   7.433   0.965  0.2393 -0.0412 -0.9827
10475SOL     OW34316   4.603   6.790   3.677 -0.0319 -0.5984  0.0766
10475SOL    HW134317   4.699   6.791   3.679 -0.0238 -0.9610 -0.0277
10475SOL    HW234318   4.578   6.881   3.665  0.3051 -0.5177 -0.0171
10476SOL     OW34319   4.080   8.839   7.833  0.5570 -0.8549 -0.5189
10476SOL    HW134320   4.097   8.892   7.911 -2.4604 -0.0262 -0.3240
10476SOL    HW234321   4.144   8.871   7.769  0.2621  1.5574  0.2698
10477SOL     OW34322   3.562   9.209   4.453 -0.4099 -0.4155  0.0845
10477SOL    HW134323   3.592   9.149   4.522  0.4982  0.1217  0.1846
10477SOL    HW234324   3.554   9.154   4.375  0.4879 -0.6732  0.1552
10478SOL     OW34325   8.749   1.827   6.559  0.8890  0.0410  0.5626
10478SOL    HW134326   8.760   1.785   6.474  0.5762  0.2257  0.4266
10478SOL    HW234327   8.784   1.915   6.547 -2.2965  1.3145 -0.4541
10479SOL     OW34328   8.673   8.015   7.750 -0.5174 -0.3348  0.4772
10479SOL    HW134329   8.755   7.976   7.720  0.2389  0.5322  1.3533
10479SOL    HW234330   8.687   8.033   7.843 -0.8678  1.8797  0.1601
10480SOL     OW34331   8.587   5.980   1.577 -0.7183  0.1533  0.2853
10480SOL    HW134332   8.623   6.069   1.569 -1.1109  0.2452 -0.5471
10480SOL    HW234333   8.498   5.987   1.541 -0.3632 -0.8143 -0.8291
10481SOL     OW34334   2.561   8.317   7.684  0.1782  0.3645  0.3134
10481SOL    HW134335   2.499   8.383   7.714  0.2112  0.0433  1.1214
10481SOL    HW234336   2.517   8.274   7.611 -0.4505  0.3098  0.7148
10482SOL     OW34337   3.927   5.730   8.424  0.3513 -0.7243 -0.3613
10482SOL    HW134338   3.963   5.749   8.337  1.6229 -1.2980  0.0128
10482SOL    HW234339   3.926   5.635   8.430  0.2898 -0.6915  0.2528
10483SOL     OW34340   3.164   0.295   5.206 -0.5382 -0.0903  0.1072
10483SOL    HW134341   3.172   0.208   5.166 -0.2573  0.9106 -2.1510
10483SOL    HW234342   3.103   0.342   5.149 -0.5478  1.2782  1.1903
10484SOL     OW34343   2.108   0.348   3.654  0.8341 -0.5567 -0.6620
10484SOL    HW134344   2.058   0.310   3.582 -1.5275 -0.1602  0.6846
10484SOL    HW234345   2.064   0.429   3.675  3.7376  1.3137 -1.1649
10485SOL     OW34346   3.720   2.276   8.425 -0.2770  0.1830 -0.2314
10485SOL    HW134347   3.807   2.239   8.443 -0.1655 -0.4986 -1.9990
10485SOL    HW234348   3.672   2.205   8.384 -1.5230  0.7207  0.2594
10486SOL     OW34349   1.685   4.166   5.687 -0.7937  0.3492  0.2479
10486SOL    HW134350   1.606   4.181   5.738  0.2337  0.2544  1.9670
10486SOL    HW234351   1.663   4.094   5.628 -1.7434 -0.2257  1.2710
10487SOL     OW34352   0.114   0.384   3.994 -0.0471  0.1016  0.4196
10487SOL    HW134353   0.074   0.361   4.078 -2.3412 -3.2895 -1.3820
10487SOL    HW234354   0.172   0.310   3.974 -0.7205  0.0714 -1.6424
10488SOL     OW34355   3.110   0.588   2.198  0.1238 -0.1667  0.3431
10488SOL    HW134356   3.203   0.567   2.213 -0.0494  0.1619  2.1745
10488SOL    HW234357   3.065   0.504   2.203  0.0788 -0.0804  1.9248
10489SOL     OW34358   6.267   3.551   7.351  0.0011  0.0477  0.3071
10489SOL    HW134359   6.353   3.512   7.333 -1.0334 -3.8536  2.6558
10489SOL    HW234360   6.259   3.550   7.446 -1.5422  3.1759  0.3200
10490SOL     OW34361   8.467   4.572   8.814 -0.2655 -0.1312 -0.4367
10490SOL    HW134362   8.428   4.659   8.820  1.4518  0.6767 -0.4026
10490SOL    HW234363   8.448   4.544   8.724 -2.3532 -0.5216  0.0721
10491SOL     OW34364   6.744   0.703   3.048  0.1030 -0.1700 -0.2259
10491SOL    HW134365   6.772   0.786   3.009  0.5625  0.1448  0.7353
10491SOL    HW234366   6.667   0.726   3.099  0.7001 -0.1628  0.6952
10492SOL     OW34367   6.503   2.985   6.615 -0.1348 -0.0022  0.2461
10492SOL    HW134368   6.524   3.013   6.704 -0.0323 -0.8402  0.4910
10492SOL    HW234369   6.409   2.970   6.616 -0.4326  1.6517 -0.2669
10493SOL     OW34370   1.329   6.821   3.849 -0.3011  0.1895  0.0738
10493SOL    HW134371   1.296   6.797   3.763 -0.6828  0.6569  0.0869
10493SOL    HW234372   1.340   6.737   3.894  1.7050 -0.2081 -1.0521
10494SOL     OW34373   6.543   7.505   9.251  0.4044 -0.6011 -0.1010
10494SOL    HW134374   6.563   7.545   9.167 -0.4472 -2.5912 -1.3236
10494SOL    HW234375   6.456   7.468   9.240  0.0993 -0.5635  1.8174
10495SOL     OW34376   2.808   1.443   8.772  0.2812 -0.0548 -0.0408
10495SOL    HW134377   2.713   1.433   8.765  0.1839  0.7232  0.0890
10495SOL    HW234378   2.821   1.505   8.843  0.9831 -1.7938  1.4319
10496SOL     OW34379   9.057   8.159   5.121  0.1806 -0.1508  0.0334
10496SOL    HW134380   9.051   8.182   5.028 -0.9753  1.4507  0.4447
10496SOL    HW234381   9.072   8.065   5.122 -1.0713 -0.4284 -1.7830
10497SOL     OW34382   2.380   4.262   5.631 -0.7539  0.0957 -0.6629
10497SOL    HW134383   2.330   4.329   5.678  0.0566 -0.1394  0.5959
10497SOL    HW234384   2.469   4.297   5.628 -0.3047 -0.9130  0.0603
10498SOL     OW34385   9.176   8.284   2.369 -0.2053  0.7636 -0.1596
10498SOL    HW134386   9.146   8.367   2.407  1.1775 -0.0073  2.9428
10498SOL    HW234387   9.096   8.236   2.349 -1.0614  1.4952  1.3405
10499SOL     OW34388   4.522   6.156   6.823  0.4873 -0.5050 -0.6242
10499SOL    HW134389   4.482   6.242   6.810  1.2142  0.0387  0.6449
10499SOL    HW234390   4.455   6.106   6.869  0.7022 -0.0615  0.1825
10500SOL     OW34391   0.602   6.657   1.459  0.5122  0.1526 -0.0074
10500SOL    HW134392   0.532   6.643   1.395 -0.1720  0.3214  0.6895
10500SOL    HW234393   0.639   6.570   1.474 -0.2669 -0.1188  0.4141
10501SOL     OW34394   8.960   8.787   4.266  0.3372 -0.1142 -0.0479
10501SOL    HW134395   8.961   8.692   4.254  0.6331 -0.0994 -0.1434
10501SOL    HW234396   9.040   8.806   4.314  0.6463  0.1726 -0.6679
10502SOL     OW34397   6.755   0.910   2.854  0.4684 -0.5482 -0.3011
10502SOL    HW134398   6.795   0.847   2.794  0.5984 -0.3046 -0.4743
10502SOL    HW234399   6.666   0.922   2.820  0.3397 -0.8762 -0.0821
10503SOL     OW34400   7.236   3.979   5.617 -0.7753  0.4961 -0.2017
10503SOL    HW134401   7.190   3.985   5.533 -0.3440 -1.2221 -0.6083
10503SOL    HW234402   7.326   4.005   5.596 -0.6718  0.0831 -0.2932
10504SOL     OW34403   6.275   8.603   4.661 -0.0201 -0.1982 -0.6570
10504SOL    HW134404   6.203   8.598   4.597  1.4706  0.7879 -2.5355
10504SOL    HW234405   6.343   8.545   4.625  0.3058 -0.7935  0.8573
10505SOL     OW34406   8.022   7.294   5.512 -0.2108 -0.8648 -0.0892
10505SOL    HW134407   7.934   7.317   5.484  0.5653  0.4893 -1.5979
10505SOL    HW234408   8.030   7.331   5.600 -0.7142  0.1694 -0.4671
10506SOL     OW34409   4.189   8.224   8.484 -0.4872 -0.3456 -0.2126
10506SOL    HW134410   4.277   8.257   8.468 -1.4222  1.7070 -1.6603
10506SOL    HW234411   4.177   8.154   8.420 -0.1823 -0.0452 -0.6066
10507SOL     OW34412   0.704   3.776   5.339  0.0859  0.1351 -0.5069
10507SOL    HW134413   0.711   3.825   5.257 -0.6314 -2.9206 -2.5661
10507SOL    HW234414   0.757   3.698   5.324 -0.2934 -0.6387  1.8912
10508SOL     OW34415   4.802   1.657   2.880 -0.0251 -0.4543  0.2406
10508SOL    HW134416   4.725   1.622   2.926 -0.1574 -0.2685  0.1615
10508SOL    HW234417   4.826   1.735   2.929 -0.8848  0.4152 -0.6787
10509SOL     OW34418   3.062   9.228   8.983 -0.3130  0.3155 -0.3983
10509SOL    HW134419   3.028   9.317   8.971 -0.1816  0.2816 -1.0119
10509SOL    HW234420   2.993   9.183   9.033 -0.7717  0.5050 -0.8547
10510SOL     OW34421   0.968   7.613   3.340 -0.1486 -1.4661 -0.0750
10510SOL    HW134422   1.006   7.693   3.302 -0.1179 -1.6086 -0.3453
10510SOL    HW234423   0.942   7.561   3.264 -2.0242 -0.8417  0.1027
10511SOL     OW34424   4.245   6.315   6.911 -0.4338 -0.4702  0.7694
10511SOL    HW134425   4.308   6.361   6.855  0.6548 -0.4271  1.9839
10511SOL    HW234426   4.167   6.370   6.909 -0.1562 -0.0886 -0.1038
10512SOL     OW34427   0.994   4.111   4.793  0.1758 -0.0768 -0.5402
10512SOL    HW134428   0.999   4.206   4.787 -0.6088  0.1618  1.8139
10512SOL    HW234429   1.062   4.087   4.856 -0.0373 -1.0313 -0.6569
10513SOL     OW34430   3.547   0.375   4.579 -0.3086 -0.2112  0.1108
10513SOL    HW134431   3.455   0.348   4.571 -1.1237  2.0197  0.9190
10513SOL    HW234432   3.549   0.429   4.658  2.3162 -2.3072  1.6432
10514SOL     OW34433   6.302   2.877   7.159  0.1855  0.7656 -0.0357
10514SOL    HW134434   6.383   2.869   7.109  0.5189 -0.0314  0.6160
10514SOL    HW234435   6.315   2.820   7.235 -0.3971  1.7833  0.8505
10515SOL     OW34436   5.117   0.475   1.825 -0.4378  0.3502 -0.0943
10515SOL    HW134437   5.113   0.441   1.736 -0.4637  0.5525 -0.1694
10515SOL    HW234438   5.058   0.418   1.875  0.2237 -0.3030 -0.0322
10516SOL     OW34439   0.184   0.793   1.779  0.3202  0.2649  0.1029
10516SOL    HW134440   0.175   0.885   1.806  1.7266  0.7428 -0.9370
10516SOL    HW234441   0.204   0.797   1.686  0.9526 -1.0710  0.1551
10517SOL     OW34442   6.707   1.038   7.553 -0.3670  0.4338 -0.0060
10517SOL    HW134443   6.691   1.010   7.463 -0.9180 -1.4078  0.6211
10517SOL    HW234444   6.795   1.076   7.551 -0.6352  1.0851 -1.4314
10518SOL     OW34445   7.069   3.300   1.806  0.3040  0.1325 -0.2160
10518SOL    HW134446   7.125   3.333   1.735 -0.0136  0.7118 -0.2059
10518SOL    HW234447   7.080   3.363   1.877  1.8884 -1.3044  0.8991
10519SOL     OW34448   3.954   5.863   5.134 -0.4721 -0.1283  0.4258
10519SOL    HW134449   3.917   5.776   5.151 -1.6710  0.2338 -0.2375
10519SOL    HW234450   4.040   5.861   5.176 -1.0918 -1.1225  1.6954
10520SOL     OW34451   5.120   4.617   2.905  0.1191  0.0229 -0.1339
10520SOL    HW134452   5.058   4.679   2.866 -2.1838 -0.7176  2.1310
10520SOL    HW234453   5.112   4.629   2.999  2.7357 -0.8400  0.2955
10521SOL     OW34454   7.384   5.201   0.816 -0.5924  0.1355 -0.1208
10521SOL    HW134455   7.324   5.170   0.884 -0.6661  1.3341  0.3740
10521SOL    HW234456   7.455   5.243   0.864  0.1164 -0.3179 -0.7462
10522SOL     OW34457   8.610   6.031   4.859 -0.2283  0.0128  0.6086
10522SOL    HW134458   8.622   5.954   4.913  1.5841  0.3069  0.6585
10522SOL    HW234459   8.639   6.104   4.914  0.5034  0.4416 -0.3271
10523SOL     OW34460   8.108   2.298   5.316 -0.2697 -0.2764 -0.1551
10523SOL    HW134461   8.105   2.269   5.225 -0.0864 -1.0991  0.0925
10523SOL    HW234462   8.190   2.346   5.323  0.8530 -2.1168  0.1024
10524SOL     OW34463   1.530   5.518   6.995 -0.1886 -0.0919  0.0051
10524SOL    HW134464   1.599   5.494   6.934 -1.2006 -0.0669 -1.2154
10524SOL    HW234465   1.463   5.559   6.939 -0.9165  0.4430  1.2258
10525SOL     OW34466   4.389   0.789   8.227  0.0071  0.8180  0.1168
10525SOL    HW134467   4.477   0.826   8.217 -0.8219  3.4930  1.6181
10525SOL    HW234468   4.388   0.754   8.316  0.4360 -2.1776 -0.9335
10526SOL     OW34469   0.866   2.123   6.586  0.1834  0.1609 -0.3200
10526SOL    HW134470   0.896   2.141   6.675  0.0553 -1.1650  0.0135
10526SOL    HW234471   0.773   2.105   6.596  0.1666  0.0226 -0.7237
10527SOL     OW34472   2.593   6.172   4.547 -0.6559 -0.3356 -0.2243
10527SOL    HW134473   2.607   6.260   4.582 -2.5783  0.1331 -0.5446
10527SOL    HW234474   2.612   6.114   4.620  2.5289  0.1379 -0.5035
10528SOL     OW34475   6.891   5.374   6.004 -0.1144  0.1861  0.2318
10528SOL    HW134476   6.962   5.380   5.939 -0.1897  0.3142  0.1615
10528SOL    HW234477   6.893   5.458   6.049  1.1548 -0.5595  1.6775
10529SOL     OW34478   6.207   9.074   8.957  0.1600  0.2110  0.1711
10529SOL    HW134479   6.160   9.128   9.020  0.9192  0.9793  0.1029
10529SOL    HW234480   6.207   8.986   8.996  0.7766  0.7038  1.3458
10530SOL     OW34481   5.265   7.643   4.976 -0.3606  0.2063  0.1368
10530SOL    HW134482   5.307   7.571   5.022 -1.2065 -0.9411 -0.8039
10530SOL    HW234483   5.191   7.602   4.931 -0.6452  1.5995 -0.7203
10531SOL     OW34484   0.474   6.264   3.088 -0.2250 -0.1601 -0.5262
10531SOL    HW134485   0.396   6.269   3.033  0.4310 -1.1651 -1.5924
10531SOL    HW234486   0.539   6.318   3.043  0.2424 -0.7887 -0.6178
10532SOL     OW34487   7.680   5.213   6.068  0.5914 -0.1952 -0.0088
10532SOL    HW134488   7.653   5.252   5.985  0.7553  0.3671  0.1928
10532SOL    HW234489   7.614   5.244   6.131  0.7340 -0.2302  0.1579
10533SOL     OW34490   1.249   0.528   5.259  0.2383 -0.4041  0.0866
10533SOL    HW134491   1.338   0.517   5.225  0.3090 -1.8254  0.6568
10533SOL    HW234492   1.256   0.503   5.352 -0.5961  0.2605  0.3383
10534SOL     OW34493   3.885   0.660   0.970  0.7789 -1.5033  0.2700
10534SOL    HW134494   3.829   0.584   0.987  0.2398 -0.9260  1.1264
10534SOL    HW234495   3.872   0.717   1.046 -0.2201  0.2891 -1.1728
10535SOL     OW34496   4.498   0.713   3.726  0.4748  0.2233  0.0276
10535SOL    HW134497   4.512   0.682   3.816 -0.4928 -1.3240 -0.3185
10535SOL    HW234498   4.526   0.640   3.671 -2.3862 -0.3738 -0.7993
10536SOL     OW34499   5.931   8.688   6.113  0.8712 -0.5074 -0.3315
10536SOL    HW134500   5.883   8.705   6.031  2.7007  0.7948 -1.1937
10536SOL    HW234501   6.021   8.713   6.094  1.6235 -1.4660  1.7019
10537SOL     OW34502   5.513   8.466   8.780  0.3311 -0.8149 -0.6691
10537SOL    HW134503   5.493   8.557   8.802 -0.2443 -0.5451 -2.1975
10537SOL    HW234504   5.604   8.454   8.808  0.0765 -0.1102  0.5328
10538SOL     OW34505   1.447   5.037   5.295 -0.6566  0.3730 -0.1751
10538SOL    HW134506   1.364   5.084   5.305 -2.1253 -1.0926 -3.5585
10538SOL    HW234507   1.422   4.957   5.248  2.7030 -0.1268 -1.3348
10539SOL     OW34508   9.115   9.167   3.473 -0.0099 -0.1538 -0.5395
10539SOL    HW134509   9.136   9.241   3.416  1.4621  0.6372  0.9058
10539SOL    HW234510   9.194   9.157   3.527 -1.8919  0.2954  2.5289
10540SOL     OW34511   7.915   0.652   8.528 -0.1536  0.1192 -0.2114
10540SOL    HW134512   7.888   0.742   8.545 -1.4029 -0.2445 -0.1900
10540SOL    HW234513   7.992   0.660   8.471 -0.3289  1.1951 -0.3024
10541SOL     OW34514   8.562   3.717   5.009  0.4132  0.1165  0.4266
10541SOL    HW134515   8.566   3.810   5.028 -2.2661  0.7905 -1.6707
10541SOL    HW234516   8.532   3.677   5.091  0.2267  1.3069  0.9578
10542SOL     OW34517   7.446   5.690   2.724 -0.5642  0.8192  0.8879
10542SOL    HW134518   7.406   5.748   2.659 -2.1380 -1.2306 -0.1100
10542SOL    HW234519   7.534   5.675   2.691 -1.0470  0.5148 -0.3193
10543SOL     OW34520   6.365   4.945   3.558 -0.2558 -0.5703  0.5714
10543SOL    HW134521   6.343   5.002   3.633 -1.7004  0.1962 -0.3805
10543SOL    HW234522   6.422   4.999   3.503 -0.1978 -0.6845  0.5200
10544SOL     OW34523   8.373   8.583   0.225  0.2567 -0.1345  0.1255
10544SOL    HW134524   8.414   8.552   0.144  0.5389  0.2998  0.0982
10544SOL    HW234525   8.306   8.518   0.245  1.1347 -1.0036  0.3060
10545SOL     OW34526   2.147   4.380   2.120 -0.0267  0.9061 -0.1964
10545SOL    HW134527   2.219   4.437   2.148 -0.2713  1.6078 -0.9572
10545SOL    HW234528   2.190   4.297   2.098  0.3070  0.7149  1.1105
10546SOL     OW34529   2.073   7.907   4.496  0.0809 -0.6493  0.5963
10546SOL    HW134530   2.161   7.873   4.479  0.8399  1.5669 -0.3049
10546SOL    HW234531   2.088   7.986   4.548 -1.2740  0.4178 -0.5748
10547SOL     OW34532   8.494   7.609   5.657  0.6136 -0.0740  0.4746
10547SOL    HW134533   8.442   7.609   5.577  1.1089  0.6443  0.1453
10547SOL    HW234534   8.533   7.696   5.661 -0.8791  0.5711  2.4949
10548SOL     OW34535   5.557   5.541   0.424 -0.4130  0.1110 -0.0101
10548SOL    HW134536   5.547   5.456   0.467  0.0740 -1.3074 -2.5343
10548SOL    HW234537   5.490   5.541   0.356  1.6656  0.2862 -2.1652
10549SOL     OW34538   8.398   0.204   0.803 -0.8893  0.2925  0.0217
10549SOL    HW134539   8.443   0.141   0.747 -1.5427 -0.4003  0.2518
10549SOL    HW234540   8.425   0.180   0.892 -0.4399  0.9074  0.0512
10550SOL     OW34541   6.713   6.170   1.759  0.0830  0.2619 -0.0690
10550SOL    HW134542   6.704   6.226   1.837  0.9022 -1.5576  1.4038
10550SOL    HW234543   6.646   6.103   1.769 -0.4463  0.5584 -1.4631
10551SOL     OW34544   7.540   7.849   3.594 -0.0549 -0.2858  0.2569
10551SOL    HW134545   7.480   7.823   3.525  2.0622  0.8804 -2.1979
10551SOL    HW234546   7.513   7.798   3.670 -2.9123 -1.1564 -1.2184
10552SOL     OW34547   8.278   8.366   5.130  0.2257  0.1549 -0.0034
10552SOL    HW134548   8.349   8.358   5.194  1.0280  1.4294 -0.6896
10552SOL    HW234549   8.199   8.354   5.181  0.8815  0.1952  1.0588
10553SOL     OW34550   8.518   8.380   0.819 -0.9327  0.1215 -0.5045
10553SOL    HW134551   8.546   8.344   0.735  0.3448  1.2506 -0.6120
10553SOL    HW234552   8.525   8.475   0.807  1.0375  0.2864  1.4155
10554SOL     OW34553   6.597   2.251   1.687 -0.4406 -0.1330 -0.3764
10554SOL    HW134554   6.585   2.337   1.647 -0.0739  0.6403  1.1366
10554SOL    HW234555   6.543   2.253   1.766  2.0114 -0.0556  1.4343
10555SOL     OW34556   3.753   4.042   0.205 -0.1392  0.1485  0.3907
10555SOL    HW134557   3.807   4.115   0.174  0.7076 -0.3119  0.7390
10555SOL    HW234558   3.686   4.083   0.260 -1.0725  0.8849 -1.1949
10556SOL     OW34559   5.945   0.722   8.580  0.1257 -0.5633 -0.0654
10556SOL    HW134560   5.969   0.809   8.548  1.4990 -1.3757 -1.3568
10556SOL    HW234561   6.028   0.676   8.590 -0.6152 -2.0123 -0.2536
10557SOL     OW34562   0.042   8.004   1.245  0.0220  0.3360 -0.1977
10557SOL    HW134563   0.035   7.913   1.219  1.5949  0.4025 -0.9616
10557SOL    HW234564   0.024   8.054   1.165  3.3217  0.5648 -0.9591
10558SOL     OW34565   1.743   8.515   8.985 -0.2669  0.1579  0.6490
10558SOL    HW134566   1.791   8.435   8.960 -0.2900  0.4924 -0.5558
10558SOL    HW234567   1.658   8.484   9.016  0.2114 -0.3583  1.4759
10559SOL     OW34568   3.334   3.114   6.066 -0.1027  0.2450 -0.0265
10559SOL    HW134569   3.297   3.194   6.104  1.4397  0.8882  0.1976
10559SOL    HW234570   3.263   3.077   6.014 -0.3884  2.6207 -1.4583
10560SOL     OW34571   8.386   8.215   0.148  0.1672  0.2606  0.2439
10560SOL    HW134572   8.457   8.243   0.205  1.7465 -2.7470  0.0042
10560SOL    HW234573   8.425   8.145   0.095 -2.9433 -1.5155  0.0556
10561SOL     OW34574   6.361   0.530   1.970  0.1967  0.1011  0.9037
10561SOL    HW134575   6.430   0.594   1.985 -0.7020  1.1751  0.5763
10561SOL    HW234576   6.294   0.551   2.035  0.0161 -0.7003  0.9857
10562SOL     OW34577   3.988   4.008   9.106  0.2260 -0.3559  0.4648
10562SOL    HW134578   3.973   3.991   9.199 -0.9378 -0.0438  0.3455
10562SOL    HW234579   3.911   3.973   9.062  0.6678 -0.3037 -0.3670
10563SOL     OW34580   6.918   0.690   5.092  0.1247 -0.2914  0.3621
10563SOL    HW134581   6.893   0.626   5.160  0.0004  0.7601  1.3297
10563SOL    HW234582   7.005   0.662   5.064  0.8574  0.1215  2.0763
10564SOL     OW34583   9.031   7.598   2.965  0.0296  0.3185  0.0912
10564SOL    HW134584   8.956   7.558   2.921 -0.1391  0.8100 -0.0705
10564SOL    HW234585   9.096   7.609   2.896  0.0087  0.4896  0.0990
10565SOL     OW34586   8.149   1.330   6.217  0.3341 -0.0288  0.0829
10565SOL    HW134587   8.193   1.363   6.295  1.1268  1.1661 -0.8396
10565SOL    HW234588   8.202   1.361   6.144 -1.7953  1.1438 -1.0745
10566SOL     OW34589   2.007   5.905   1.906  0.5261  0.0995  0.1450
10566SOL    HW134590   2.021   5.817   1.873 -0.8816 -0.2008  0.2853
10566SOL    HW234591   1.912   5.911   1.920  0.5862  1.6459  0.0949
10567SOL     OW34592   7.907   2.720   1.426 -0.0647  0.4115 -0.3236
10567SOL    HW134593   7.883   2.753   1.339 -0.7325 -2.9612 -1.5691
10567SOL    HW234594   7.829   2.674   1.457  1.3078 -1.6115  0.3540
10568SOL     OW34595   7.957   2.124   2.465  0.0755  0.1335 -0.7377
10568SOL    HW134596   7.917   2.161   2.387  1.3730 -0.2510 -1.6317
10568SOL    HW234597   8.024   2.187   2.490 -0.7234  0.5410  0.4418
10569SOL     OW34598   2.037   6.295   3.298 -0.6060 -0.2032 -0.3020
10569SOL    HW134599   2.032   6.250   3.382 -0.9426 -0.5722 -0.5169
10569SOL    HW234600   2.002   6.383   3.316 -0.7423 -0.3029 -0.0717
10570SOL     OW34601   1.040   5.671   1.595  0.3555 -0.3553  0.7948
10570SOL    HW134602   1.044   5.766   1.582 -0.8142 -0.3095  0.6056
10570SOL    HW234603   0.991   5.661   1.677 -2.3226 -0.8002 -0.7293
10571SOL     OW34604   4.931   3.595   9.019 -0.0977 -0.0773 -0.6696
10571SOL    HW134605   5.000   3.660   9.027  0.2892 -0.5266 -0.2611
10571SOL    HW234606   4.850   3.646   9.019  0.2049  0.4101 -0.4732
10572SOL     OW34607   0.600   8.594   2.923  0.1994  0.1064  0.1332
10572SOL    HW134608   0.575   8.639   2.842  0.5897  0.8035  0.3956
10572SOL    HW234609   0.542   8.518   2.926 -1.9792  1.6929  0.7533
10573SOL     OW34610   6.650   1.190   7.928  0.1586  0.1068 -0.4288
10573SOL    HW134611   6.671   1.184   8.022 -1.6915  0.3490  0.0467
10573SOL    HW234612   6.676   1.105   7.893  0.0501 -0.3273  0.4974
10574SOL     OW34613   0.697   2.039   3.339 -0.0224  0.0379  0.5867
10574SOL    HW134614   0.666   2.102   3.274 -1.9925 -1.1671  0.2577
10574SOL    HW234615   0.670   2.077   3.423  1.2234  0.8919  0.6279
10575SOL     OW34616   7.252   1.072   3.402  0.3910 -0.7526  0.3938
10575SOL    HW134617   7.231   1.124   3.324  1.2542 -0.9822  0.0020
10575SOL    HW234618   7.177   1.014   3.413  0.0175 -0.3392  0.0557
10576SOL     OW34619   0.933   3.018   3.870  0.0826  0.1855  0.1360
10576SOL    HW134620   0.873   3.076   3.823  0.8912  1.1939  0.3255
10576SOL    HW234621   0.992   3.077   3.917  0.3314 -0.7971  1.0965
10577SOL     OW34622   7.478   2.615   6.535 -0.1802  0.2699  0.4339
10577SOL    HW134623   7.531   2.695   6.539 -0.2369  0.4009 -0.8200
10577SOL    HW234624   7.541   2.544   6.535  0.0290  0.4203 -0.8824
10578SOL     OW34625   5.546   6.268   2.333 -0.0288  0.4456  0.4877
10578SOL    HW134626   5.508   6.356   2.332  0.1622  0.5297 -0.4025
10578SOL    HW234627   5.638   6.281   2.313  0.0090  0.0457  0.3971
10579SOL     OW34628   5.090   5.079   7.676  0.8029 -1.2498  0.6015
10579SOL    HW134629   5.030   5.144   7.712  1.3287 -0.8748  0.8271
10579SOL    HW234630   5.173   5.126   7.668  0.9539 -1.6273 -0.1279
10580SOL     OW34631   0.635   0.255   6.668  0.1118  0.0250 -0.6201
10580SOL    HW134632   0.553   0.204   6.665  0.1967 -0.3233  1.7087
10580SOL    HW234633   0.693   0.209   6.608 -0.8274 -0.7731 -0.9497
10581SOL     OW34634   3.401   0.948   1.958  0.4422  0.2859  0.5252
10581SOL    HW134635   3.466   0.880   1.969  1.8415  1.4178 -0.3177
10581SOL    HW234636   3.446   1.029   1.984 -0.7064  1.0710  0.1654
10582SOL     OW34637   5.663   5.911   9.220 -0.4831  0.1064  0.0166
10582SOL    HW134638   5.609   5.836   9.245 -1.1940  0.9763  1.1869
10582SOL    HW234639   5.672   5.903   9.125  1.8942 -3.0488  0.3169
10583SOL     OW34640   2.473   0.719   7.463  0.1055  0.2674  0.5873
10583SOL    HW134641   2.419   0.670   7.526 -1.9873 -0.5569 -1.7071
10583SOL    HW234642   2.530   0.653   7.424  0.3763  0.5151  0.5571
10584SOL     OW34643   4.517   6.338   3.930 -0.0518  0.3000 -0.3786
10584SOL    HW134644   4.542   6.323   4.021  0.6555  0.1128 -0.6021
10584SOL    HW234645   4.524   6.433   3.919  2.4006  0.1136 -0.9430
10585SOL     OW34646   3.067   0.252   8.140 -0.6847  0.7070  0.2387
10585SOL    HW134647   3.091   0.211   8.223 -1.7664  0.9754  0.7042
10585SOL    HW234648   3.135   0.224   8.079 -0.5243 -0.4893  0.9226
10586SOL     OW34649   7.195   8.669   3.716  0.3154 -0.1991 -0.3156
10586SOL    HW134650   7.144   8.739   3.675  0.0628  0.3196  0.8381
10586SOL    HW234651   7.174   8.676   3.810  1.0786 -1.1667 -0.0573
10587SOL     OW34652   7.305   9.173   2.695  0.1411 -0.1731 -0.6207
10587SOL    HW134653   7.214   9.145   2.708  0.0563  0.9201  1.6635
10587SOL    HW234654   7.356   9.107   2.741  0.1185  1.6620  2.2813
10588SOL     OW34655   5.057   8.910   2.614  0.3110 -0.0461  0.0784
10588SOL    HW134656   5.070   8.935   2.523  0.1409 -1.4343 -0.3369
10588SOL    HW234657   5.053   8.994   2.661 -0.8039  0.7339 -1.3313
10589SOL     OW34658   9.076   0.014   2.842  0.0397  0.7680  0.3068
10589SOL    HW134659   9.048   0.061   2.920  1.7788  2.5298 -0.0608
10589SOL    HW234660   9.166   0.041   2.828  0.1657 -0.4243 -1.6565
10590SOL     OW34661   7.861   6.132   8.754  0.4090  0.0982 -0.0284
10590SOL    HW134662   7.766   6.134   8.743  0.3047  1.2220  0.8999
10590SOL    HW234663   7.893   6.205   8.699  0.8892 -1.1290 -1.4508
10591SOL     OW34664   5.506   6.778   5.950  0.1629 -0.5851 -0.1834
10591SOL    HW134665   5.445   6.707   5.931 -0.1382 -0.8000  1.4343
10591SOL    HW234666   5.563   6.743   6.019 -1.5201  1.4516  2.4546
10592SOL     OW34667   5.388   3.370   0.651  0.0808  0.2346  0.0233
10592SOL    HW134668   5.310   3.397   0.602 -0.5695 -2.7870 -0.8022
10592SOL    HW234669   5.405   3.442   0.712 -1.4306  2.3775 -1.9498
10593SOL     OW34670   8.634   4.795   5.530  0.5769 -0.1704 -0.3356
10593SOL    HW134671   8.659   4.707   5.505 -0.9663 -0.7604  0.0790
10593SOL    HW234672   8.557   4.783   5.585  2.8884  1.0808  3.6014
10594SOL     OW34673   5.990   0.430   5.222  0.2447 -0.3006 -0.0278
10594SOL    HW134674   6.070   0.406   5.177  0.0391 -2.6085  0.7258
10594SOL    HW234675   6.019   0.476   5.301  0.7814 -0.2167 -0.2735
10595SOL     OW34676   6.364   8.989   7.580 -0.2048 -0.0379  0.2393
10595SOL    HW134677   6.291   9.002   7.518  1.1604 -1.2625 -1.7482
10595SOL    HW234678   6.373   9.074   7.624 -1.0786  1.0131 -1.4748
10596SOL     OW34679   5.897   5.768   1.321 -0.0466 -0.5603 -0.2520
10596SOL    HW134680   5.849   5.686   1.314 -0.0798 -0.7354  1.4553
10596SOL    HW234681   5.980   5.752   1.278  0.2269 -1.7380  0.6733
10597SOL     OW34682   3.138   0.053   3.914  0.1502  0.4960  0.0367
10597SOL    HW134683   3.228   0.048   3.947 -0.0647 -0.8225  0.4547
10597SOL    HW234684   3.114   0.145   3.926  0.8459  0.5133  1.5276
10598SOL     OW34685   0.761   1.564   9.186  0.3790 -0.6163  0.2010
10598SOL    HW134686   0.824   1.514   9.238  1.8677  2.2943  1.4077
10598SOL    HW234687   0.721   1.625   9.248  0.4808  1.3551 -1.5545
10599SOL     OW34688   5.307   4.049   7.188  0.5356  0.0498  0.2048
10599SOL    HW134689   5.390   4.033   7.143  1.0299  1.8641  0.3837
10599SOL    HW234690   5.326   4.030   7.280  0.1272 -1.5760 -0.0178
10600SOL     OW34691   7.212   8.235   3.820  0.1970 -0.1836  0.2827
10600SOL    HW134692   7.234   8.143   3.835 -0.6989 -0.2942  1.0244
10600SOL    HW234693   7.293   8.274   3.787  0.1869 -1.5408 -1.4778
10601SOL     OW34694   5.272   7.176   5.017 -0.3464 -0.6739  0.5532
10601SOL    HW134695   5.303   7.248   4.960  0.1123 -0.0631  1.5483
10601SOL    HW234696   5.243   7.108   4.956 -1.8980  0.7993 -0.4520
10602SOL     OW34697   3.008   4.670   8.037  0.1579  0.0007  0.7555
10602SOL    HW134698   3.040   4.670   7.946 -1.2583  1.0270  0.2231
10602SOL    HW234699   2.942   4.601   8.040  0.3373 -0.1608  1.0703
10603SOL     OW34700   6.992   8.475   7.184 -0.0319  0.3375 -0.2201
10603SOL    HW134701   7.024   8.559   7.216  0.7464  0.3314 -0.9670
10603SOL    HW234702   6.947   8.437   7.260  1.0011  0.7153  0.6106
10604SOL     OW34703   0.685   4.016   8.707 -0.3516 -0.3139 -0.3956
10604SOL    HW134704   0.647   4.016   8.795 -1.5031 -0.5542 -0.8727
10604SOL    HW234705   0.779   4.009   8.721 -0.3464  1.5597  0.8819
10605SOL     OW34706   6.389   5.743   8.259  0.3609  0.1400  0.1629
10605SOL    HW134707   6.445   5.814   8.227 -0.7410  0.0390 -2.2105
10605SOL    HW234708   6.430   5.714   8.340  2.2924  1.7482 -0.1774
10606SOL     OW34709   8.042   2.693   3.216  0.0671 -0.5307 -0.3763
10606SOL    HW134710   8.003   2.753   3.280  1.3434  0.3655 -0.4229
10606SOL    HW234711   8.115   2.652   3.262  0.3091 -0.7110 -0.9103
10607SOL     OW34712   6.479   1.817   3.607  0.1992  0.0553  0.5002
10607SOL    HW134713   6.386   1.802   3.590 -0.6292  2.0846  2.7220
10607SOL    HW234714   6.512   1.732   3.637 -0.7172 -0.8751 -0.9940
10608SOL     OW34715   5.797   6.443   2.277 -0.1467 -0.7990 -0.2709
10608SOL    HW134716   5.838   6.377   2.221 -0.9313  0.1350 -2.0154
10608SOL    HW234717   5.836   6.428   2.364  2.8628 -0.7794 -1.5098
10609SOL     OW34718   7.687   4.061   6.900  0.4371 -0.2926 -0.2264
10609SOL    HW134719   7.647   3.974   6.891 -0.4518  0.0879 -0.1232
10609SOL    HW234720   7.722   4.061   6.989  1.6119 -0.9997 -0.6644
10610SOL     OW34721   4.349   6.434   2.056 -0.9370 -0.2146  0.6729
10610SOL    HW134722   4.308   6.348   2.056 -1.1069 -0.1720 -1.3505
10610SOL    HW234723   4.276   6.496   2.059 -0.8534 -0.1199  0.8649
10611SOL     OW34724   1.324   6.609   0.109  0.2757 -0.2329  0.2454
10611SOL    HW134725   1.379   6.531   0.113  0.9462  0.0742 -1.6612
10611SOL    HW234726   1.385   6.682   0.121 -0.1903  0.0350  1.0217
10612SOL     OW34727   8.304   4.358   6.261 -0.1401 -0.3474 -0.2199
10612SOL    HW134728   8.213   4.362   6.290  0.5070 -0.3169  1.9752
10612SOL    HW234729   8.310   4.276   6.211 -1.1975 -0.7437  0.2753
10613SOL     OW34730   4.237   3.100   4.689  0.2356  0.3159 -0.3872
10613SOL    HW134731   4.207   3.014   4.717  1.6885 -0.0804  0.0312
10613SOL    HW234732   4.158   3.153   4.686 -0.4787 -0.6318  0.8072
10614SOL     OW34733   7.316   3.819   2.175 -0.0913 -0.0736 -0.0918
10614SOL    HW134734   7.376   3.793   2.105  1.3748  2.0099  0.2981
10614SOL    HW234735   7.240   3.855   2.128 -1.5737 -3.4976 -0.6027
10615SOL     OW34736   2.799   0.470   6.402  0.7429  0.3003  0.2062
10615SOL    HW134737   2.794   0.416   6.481  0.7540  0.3340  0.2298
10615SOL    HW234738   2.715   0.454   6.358  0.5896  0.5523  0.4011
10616SOL     OW34739   2.151   7.804   8.182  0.2892 -0.2162 -0.4185
10616SOL    HW134740   2.199   7.867   8.236  0.0526  0.2202 -0.7090
10616SOL    HW234741   2.180   7.822   8.092  0.6263 -0.8877 -0.4468
10617SOL     OW34742   0.023   6.737   4.256  0.1154  0.2810  0.5745
10617SOL    HW134743  -0.049   6.675   4.252 -0.0701  0.5512 -1.5066
10617SOL    HW234744  -0.018   6.820   4.279 -0.4097  0.5790 -1.2677
10618SOL     OW34745   7.441   8.009   9.112 -0.1380  0.2032 -0.5366
10618SOL    HW134746   7.479   8.097   9.106 -2.5121  1.3946  0.6468
10618SOL    HW234747   7.448   7.986   9.204  0.4383 -0.8669 -0.8330
10619SOL     OW34748   7.985   2.668   0.002  0.1443 -0.4081 -0.1281
10619SOL    HW134749   7.990   2.761  -0.021 -0.0434 -0.2628  0.3996
10619SOL    HW234750   7.960   2.625  -0.079 -2.4146  0.3186  0.1612
10620SOL     OW34751   7.213   7.156   7.829  0.0769  0.2837  0.1344
10620SOL    HW134752   7.119   7.161   7.847  0.0091 -1.2991  0.3264
10620SOL    HW234753   7.233   7.238   7.784 -1.6648  0.0774 -1.1110
10621SOL     OW34754   2.427   6.585   6.452 -0.0734 -0.5708  0.5887
10621SOL    HW134755   2.339   6.598   6.417  0.1390  2.6192  0.9547
10621SOL    HW234756   2.482   6.570   6.375 -0.6172 -0.5544  0.1939
10622SOL     OW34757   2.938   8.080   5.689  0.0912 -0.1521  0.0350
10622SOL    HW134758   2.876   8.103   5.620 -0.4871 -0.6748  0.3604
10622SOL    HW234759   3.008   8.034   5.645  1.6018  2.6783 -0.7304
10623SOL     OW34760   5.339   9.136   8.155  0.4229  0.0249 -0.2432
10623SOL    HW134761   5.334   9.047   8.119 -0.1887 -0.6847  1.4588
10623SOL    HW234762   5.404   9.130   8.225 -0.5928  0.5341  0.7928
10624SOL     OW34763   7.780   3.390   3.363 -0.2169 -0.8579 -0.2070
10624SOL    HW134764   7.849   3.454   3.381 -1.2326  0.6601 -1.4231
10624SOL    HW234765   7.706   3.419   3.416 -0.2950 -1.8125  0.2255
10625SOL     OW34766   7.900   3.210   6.081 -0.6488 -0.1597 -0.1402
10625SOL    HW134767   7.862   3.126   6.109 -1.2114  0.1761  0.1255
10625SOL    HW234768   7.943   3.244   6.160  0.5627 -0.7155 -0.5360
10626SOL     OW34769   1.899   2.589   4.438  0.1901 -0.0843 -0.0385
10626SOL    HW134770   1.884   2.501   4.402 -0.4721  0.0926 -0.2241
10626SOL    HW234771   1.856   2.647   4.375  0.1419  0.3290  0.3734
10627SOL     OW34772   0.247   3.829   6.118 -0.3987 -0.5198  0.7789
10627SOL    HW134773   0.279   3.914   6.147  1.3325 -0.4666 -1.0947
10627SOL    HW234774   0.288   3.767   6.179 -1.6823 -0.0804  2.1638
10628SOL     OW34775   6.688   7.886   8.252  0.4340  0.3196 -0.1746
10628SOL    HW134776   6.735   7.888   8.169  0.3568 -0.0551 -0.2321
10628SOL    HW234777   6.724   7.959   8.303 -1.0017  1.8967 -1.3209
10629SOL     OW34778   4.231   1.491   2.306 -0.0506  0.3540 -0.5683
10629SOL    HW134779   4.308   1.547   2.314 -0.7876  1.0649  2.4269
10629SOL    HW234780   4.265   1.402   2.316  0.3150  0.7224  1.9025
10630SOL     OW34781   7.786   9.136   2.212 -0.3814 -0.7184  0.1913
10630SOL    HW134782   7.859   9.080   2.185  0.0412  0.4418 -1.1604
10630SOL    HW234783   7.827   9.216   2.245 -1.0168 -0.1330 -0.3981
10631SOL     OW34784   2.029   5.452   4.997  0.2660  0.1290 -0.4170
10631SOL    HW134785   2.035   5.439   5.092 -0.7131 -0.1863 -0.3792
10631SOL    HW234786   1.974   5.530   4.987  0.2233  0.0621 -0.7215
10632SOL     OW34787   5.233   7.996   3.082 -0.3833  0.1626 -0.1836
10632SOL    HW134788   5.140   8.017   3.094 -1.3295 -3.0728 -0.5636
10632SOL    HW234789   5.258   7.949   3.162  0.9228  0.9071 -0.1305
10633SOL     OW34790   3.365   2.239   5.608  0.0385 -0.2721  0.0091
10633SOL    HW134791   3.366   2.207   5.698 -0.6278 -1.7385 -0.4615
10633SOL    HW234792   3.452   2.275   5.594  0.3479 -0.5797  1.0503
10634SOL     OW34793   0.805   8.014   5.263  0.0410 -0.0584  0.7656
10634SOL    HW134794   0.791   8.102   5.300 -2.5452 -0.1515  0.2065
10634SOL    HW234795   0.718   7.975   5.262  0.0775 -0.6249 -3.9665
10635SOL     OW34796   0.920   4.971   0.409 -0.1775 -0.3915  0.5099
10635SOL    HW134797   0.853   5.025   0.366 -0.0056 -0.9330 -0.4744
10635SOL    HW234798   0.924   4.891   0.356 -0.3441 -1.3403  1.8673
10636SOL     OW34799   4.496   5.685   3.831  0.0212  0.0374 -0.3986
10636SOL    HW134800   4.523   5.650   3.746  0.4582 -0.0020 -0.2464
10636SOL    HW234801   4.571   5.671   3.888 -0.5411 -0.6277  0.2011
10637SOL     OW34802   0.322   4.707   6.305  0.0355  0.0588 -0.1761
10637SOL    HW134803   0.266   4.632   6.284 -0.9326  0.3307  1.2542
10637SOL    HW234804   0.409   4.680   6.278 -0.6985 -0.5276 -2.1354
10638SOL     OW34805   4.306   3.970   5.585  0.2248  0.1221  0.5986
10638SOL    HW134806   4.360   3.919   5.645  0.9332  1.1839  0.8957
10638SOL    HW234807   4.250   3.905   5.542  0.6491 -0.8160  1.4158
10639SOL     OW34808   0.774   5.450   3.260  0.0282 -0.7035 -0.0977
10639SOL    HW134809   0.774   5.534   3.305 -0.6041 -1.1088  0.6768
10639SOL    HW234810   0.733   5.389   3.321 -1.0486 -1.2248 -1.2884
10640SOL     OW34811   1.461   6.699   8.519  0.4353 -0.0012  0.2276
10640SOL    HW134812   1.423   6.635   8.460 -0.0329  0.4807  0.0019
10640SOL    HW234813   1.433   6.671   8.606 -2.4209  1.5981 -0.0636
10641SOL     OW34814   4.109   7.514   0.397 -0.1765 -0.1534 -0.0726
10641SOL    HW134815   4.098   7.429   0.441  0.9080 -0.2427  0.0694
10641SOL    HW234816   4.128   7.491   0.306  0.8835 -0.1209  0.1196
10642SOL     OW34817   2.297   2.359   7.407  0.2627 -0.7059  0.2306
10642SOL    HW134818   2.295   2.264   7.396  0.4702 -0.5144 -1.9004
10642SOL    HW234819   2.220   2.380   7.459 -1.1298 -1.8475 -1.2960
10643SOL     OW34820   9.079   2.205   4.207  0.1721 -1.2637  0.3169
10643SOL    HW134821   9.030   2.283   4.184 -0.8375 -2.2534 -1.0351
10643SOL    HW234822   9.165   2.217   4.167 -0.3951 -1.3802 -0.9638
10644SOL     OW34823   1.491   3.961   0.057 -0.2491 -0.3349  0.0726
10644SOL    HW134824   1.574   3.976   0.102 -1.0328  0.8389  1.2122
10644SOL    HW234825   1.442   3.904   0.116 -0.7636  0.0975  0.0695
10645SOL     OW34826   2.294   4.899   5.481 -0.0395 -0.0518  0.0013
10645SOL    HW134827   2.383   4.935   5.474  0.2420 -0.4533  1.2846
10645SOL    HW234828   2.265   4.923   5.569 -1.0040 -0.3961 -0.2125
10646SOL     OW34829   4.154   8.555   5.786 -0.2154  0.2387  0.0836
10646SOL    HW134830   4.121   8.563   5.697 -0.1691 -0.4709 -0.0077
10646SOL    HW234831   4.137   8.640   5.827  0.2653  0.7562 -0.7678
10647SOL     OW34832   3.109   3.397   6.516  0.2911 -0.5580  0.1834
10647SOL    HW134833   3.060   3.401   6.434  0.7252  3.2463 -0.0638
10647SOL    HW234834   3.044   3.371   6.582 -0.6718 -1.0718 -0.9351
10648SOL     OW34835   5.199   0.783   3.175  0.1922 -0.7123  0.0662
10648SOL    HW134836   5.258   0.845   3.218  1.2866 -0.8385 -1.1925
10648SOL    HW234837   5.257   0.719   3.135 -0.8858 -1.9116  0.3623
10649SOL     OW34838   2.690   8.280   1.056  0.5280 -0.7835 -0.7359
10649SOL    HW134839   2.641   8.331   0.992  1.4415 -0.5929 -1.3132
10649SOL    HW234840   2.782   8.290   1.029  0.9142 -0.8774  0.4831
10650SOL     OW34841   4.569   4.049   1.735 -0.0544 -0.3855  0.2175
10650SOL    HW134842   4.531   4.116   1.678  0.8262 -0.9698 -1.1159
10650SOL    HW234843   4.655   4.085   1.760  0.5550 -1.1099 -0.7545
10651SOL     OW34844   5.870   2.287   2.221 -0.1650  0.0831 -0.6153
10651SOL    HW134845   5.819   2.346   2.277 -0.2090 -0.9109  0.4357
10651SOL    HW234846   5.956   2.283   2.263  0.1732  0.2285 -1.2805
10652SOL     OW34847   3.066   4.447   3.326 -0.2722  0.3021  0.1732
10652SOL    HW134848   3.026   4.397   3.255 -0.2156 -0.3286  0.5766
10652SOL    HW234849   3.021   4.532   3.324 -1.0796 -0.1203  0.1126
10653SOL     OW34850   5.022   3.270   7.439 -0.6235  0.1439 -0.2960
10653SOL    HW134851   5.064   3.184   7.431  1.3227  0.9504  0.5422
10653SOL    HW234852   5.049   3.302   7.525 -2.3001  1.1208 -0.0819
10654SOL     OW34853   3.627   6.903   1.468 -0.0194  0.0651  0.0742
10654SOL    HW134854   3.615   6.941   1.555 -0.6133 -0.8889  0.4233
10654SOL    HW234855   3.568   6.952   1.411  0.6602  0.9591  0.1105
10655SOL     OW34856   5.997   9.252   1.999 -0.0575  0.3545 -0.4518
10655SOL    HW134857   6.028   9.306   2.071 -1.1929 -0.8166  0.9717
10655SOL    HW234858   6.006   9.162   2.031  1.0814 -0.3211 -2.4686
10656SOL     OW34859   8.636   1.925   4.752  0.3065 -0.5775  0.2954
10656SOL    HW134860   8.687   1.856   4.794  1.5880 -0.9462 -1.7294
10656SOL    HW234861   8.642   1.906   4.658  0.7448  2.2902 -0.3643
10657SOL     OW34862   1.453   8.621   3.115 -0.3360 -0.7452 -0.1952
10657SOL    HW134863   1.403   8.607   3.035  0.5625 -0.8354 -0.7572
10657SOL    HW234864   1.530   8.565   3.105  0.5222  0.3645  0.0530
10658SOL     OW34865   9.259   2.880   4.666  0.0283 -0.3009 -1.2490
10658SOL    HW134866   9.271   2.975   4.673 -2.9194  0.0689  1.9912
10658SOL    HW234867   9.337   2.843   4.706 -0.5061  1.0467  1.3080
10659SOL     OW34868   5.741   9.170   4.717  0.1655  0.2415  0.4264
10659SOL    HW134869   5.734   9.221   4.637 -0.3229 -1.0899 -0.4102
10659SOL    HW234870   5.794   9.224   4.775 -0.9250  2.0109 -0.1435
10660SOL     OW34871   4.522   3.169   8.963  0.2486 -0.0726 -0.4796
10660SOL    HW134872   4.433   3.136   8.975  0.9239 -1.9421 -0.2775
10660SOL    HW234873   4.522   3.254   9.007 -1.9896  1.0028 -2.3153
10661SOL     OW34874   3.682   5.743   6.150  0.2420  0.2737  0.3766
10661SOL    HW134875   3.750   5.789   6.101 -0.1795 -2.0541 -2.7115
10661SOL    HW234876   3.627   5.812   6.187  2.1789  2.1743 -0.1279
10662SOL     OW34877   2.552   1.055   0.495 -0.2009  0.0020  0.1957
10662SOL    HW134878   2.547   0.982   0.557  1.1187  0.9013  1.4163
10662SOL    HW234879   2.646   1.067   0.480 -0.4577  0.4511 -1.2239
10663SOL     OW34880   8.218   4.085   1.793  0.3205 -0.6323 -0.3898
10663SOL    HW134881   8.207   3.991   1.803 -0.3470 -0.8012 -2.3095
10663SOL    HW234882   8.210   4.101   1.699 -0.4285  1.4445 -0.0353
10664SOL     OW34883   8.993   1.505   9.001 -0.3661 -0.4773  0.2943
10664SOL    HW134884   8.972   1.432   9.058 -0.3031 -0.2301  0.6380
10664SOL    HW234885   8.972   1.474   8.913 -0.5466 -0.8296  0.4606
10665SOL     OW34886   1.237   9.201   3.042  0.3004  1.1779  0.5113
10665SOL    HW134887   1.201   9.114   3.024  2.3651  0.2767  0.4114
10665SOL    HW234888   1.194   9.259   2.979 -1.6686  0.3991  1.0897
10666SOL     OW34889   6.457   8.782   0.971  0.0028  0.2717  0.2881
10666SOL    HW134890   6.407   8.820   1.043  0.1323  0.7172  0.1461
10666SOL    HW234891   6.451   8.688   0.985  1.3874  0.3682  1.8344
10667SOL     OW34892   2.825   7.608   8.487  0.0877 -0.0625 -0.0044
10667SOL    HW134893   2.764   7.550   8.533 -0.2786  0.6638  0.4494
10667SOL    HW234894   2.787   7.618   8.400  1.0213 -1.8121 -0.6608
10668SOL     OW34895   9.258   6.668   2.696 -0.1605  0.5816 -0.6748
10668SOL    HW134896   9.169   6.655   2.728 -0.2431 -1.9065 -1.6568
10668SOL    HW234897   9.254   6.639   2.604  2.0892 -2.0198 -0.0929
10669SOL     OW34898   3.204   4.014   1.238  0.2362 -0.0788  0.0088
10669SOL    HW134899   3.149   3.943   1.205 -1.6431  1.7378 -1.0455
10669SOL    HW234900   3.276   4.020   1.175  1.0805 -1.7551  0.7641
10670SOL     OW34901   5.890   0.366   2.347 -0.2578  0.2135 -0.4329
10670SOL    HW134902   5.916   0.434   2.285 -3.0178  1.3327 -0.5137
10670SOL    HW234903   5.897   0.409   2.433 -1.8006  0.5728 -0.4663
10671SOL     OW34904   6.968   1.837   6.840  0.6578  0.1928  0.3554
10671SOL    HW134905   7.035   1.905   6.831  1.0505 -0.2179  0.0974
10671SOL    HW234906   6.903   1.875   6.898 -0.5577  1.8995 -1.9374
10672SOL     OW34907   7.661   9.186   6.168  0.6791  0.3005 -0.1222
10672SOL    HW134908   7.632   9.111   6.220  1.8897 -1.3607 -1.7092
10672SOL    HW234909   7.750   9.203   6.199  0.7882  0.4138 -0.4960
10673SOL     OW34910   4.993   8.571   8.751 -0.0706  0.0367  0.2452
10673SOL    HW134911   4.934   8.502   8.781  0.4692  0.2111  1.8330
10673SOL    HW234912   5.072   8.560   8.805  0.1928  1.6121  0.2342
10674SOL     OW34913   5.941   2.420   0.767 -0.0495 -0.1733  0.6191
10674SOL    HW134914   6.029   2.384   0.778  0.2119 -0.1517 -1.0901
10674SOL    HW234915   5.954   2.510   0.739 -0.6778  0.5367  2.4686
10675SOL     OW34916   4.355   2.372   3.077 -0.2943 -0.5551  0.3726
10675SOL    HW134917   4.396   2.435   3.137 -1.6743  0.5796  0.1917
10675SOL    HW234918   4.407   2.293   3.086  2.0221  0.8444  0.0098
10676SOL     OW34919   6.998   6.850   1.259  0.1793  0.2402  0.1999
10676SOL    HW134920   7.055   6.774   1.265 -0.8474 -0.5153  0.7382
10676SOL    HW234921   7.048   6.922   1.297  1.2471 -0.0979 -0.5110
10677SOL     OW34922   7.913   3.351   1.835  0.1217  0.3962 -0.3478
10677SOL    HW134923   7.930   3.399   1.916 -0.5815  3.9112 -2.0796
10677SOL    HW234924   7.992   3.365   1.782  0.4781 -1.6562 -0.4402
10678SOL     OW34925   7.037   2.757   3.024  0.2351  0.5946  0.9130
10678SOL    HW134926   6.989   2.679   3.053 -0.0730  0.8720  1.1530
10678SOL    HW234927   7.129   2.736   3.042  0.1453  0.3254  1.0732
10679SOL     OW34928   7.086   3.258   5.055  0.8305 -0.4820  0.3702
10679SOL    HW134929   7.008   3.299   5.019 -1.2166 -0.0048  4.7168
10679SOL    HW234930   7.063   3.165   5.063  1.6425 -0.7626 -0.3963
10680SOL     OW34931   3.296   9.099   4.674 -0.2666  0.1410 -0.7641
10680SOL    HW134932   3.276   9.168   4.611  0.3496  1.0868  0.0434
10680SOL    HW234933   3.307   9.146   4.757 -1.5492 -1.1179  0.1656
10681SOL     OW34934   3.503   8.530   1.570 -0.0517  0.5428 -0.4496
10681SOL    HW134935   3.506   8.611   1.519 -0.8155  0.1444 -1.1522
10681SOL    HW234936   3.489   8.461   1.505  0.6712 -0.1707  0.1310
10682SOL     OW34937   1.793   5.809   0.234 -0.0196  0.1786  0.6605
10682SOL    HW134938   1.842   5.829   0.155  4.8574 -1.8523  2.7437
10682SOL    HW234939   1.814   5.881   0.294 -0.4949 -0.1853  1.2793
10683SOL     OW34940   0.656   9.066   2.875  0.5839 -0.3173 -0.9649
10683SOL    HW134941   0.599   9.055   2.798 -1.0788  0.1836  0.1493
10683SOL    HW234942   0.724   9.125   2.845  0.6699 -1.0785 -2.4010
10684SOL     OW34943   4.442   3.016   1.655 -0.5587  0.7999 -0.0020
10684SOL    HW134944   4.452   2.968   1.572 -3.1798  0.5001 -0.2372
10684SOL    HW234945   4.434   2.947   1.721 -0.3705  1.0098  0.2406
10685SOL     OW34946   2.701   6.414   7.455 -0.5076 -0.0079 -0.5906
10685SOL    HW134947   2.764   6.474   7.416 -0.8028  0.7624  0.0848
10685SOL    HW234948   2.629   6.410   7.392 -0.7899  0.8911 -0.3387
10686SOL     OW34949   2.270   7.191   4.462  0.8593  0.6732  0.1308
10686SOL    HW134950   2.341   7.181   4.526  1.3947  1.2494 -0.3612
10686SOL    HW234951   2.231   7.103   4.456  0.8739  0.5861  1.1555
10687SOL     OW34952   8.814   7.704   3.073  0.3178 -0.4112 -0.2591
10687SOL    HW134953   8.906   7.677   3.074  0.0786 -1.2847 -0.1557
10687SOL    HW234954   8.814   7.792   3.036  1.1996 -0.3811 -0.2016
10688SOL     OW34955   5.843   3.296   3.582  0.3433  0.2634  0.0089
10688SOL    HW134956   5.935   3.301   3.556  0.7279 -1.4615  0.8849
10688SOL    HW234957   5.808   3.383   3.562  2.4494  1.3644  0.7691
10689SOL     OW34958   5.757   2.296   6.266  0.2907 -0.4613 -0.4854
10689SOL    HW134959   5.733   2.204   6.264  0.2590 -0.4434 -1.1886
10689SOL    HW234960   5.824   2.302   6.334  0.9969 -1.1791 -1.1019
10690SOL     OW34961   1.175   7.591   7.018 -0.3457  0.4249  0.2312
10690SOL    HW134962   1.142   7.632   6.938 -1.2498  1.8530  1.2867
10690SOL    HW234963   1.264   7.623   7.028 -0.5635  1.0154  0.2984
10691SOL     OW34964   0.100   4.401   5.492 -0.1896  0.6264 -0.1211
10691SOL    HW134965   0.060   4.331   5.441  2.5886  0.1178 -1.8394
10691SOL    HW234966   0.060   4.482   5.458 -1.0091  0.0735 -0.4993
10692SOL     OW34967   8.258   1.283   5.651 -0.8815 -0.2134  0.0993
10692SOL    HW134968   8.338   1.233   5.668 -0.8220  0.0031  0.4509
10692SOL    HW234969   8.279   1.372   5.678 -0.8181  0.1258 -0.9955
10693SOL     OW34970   3.913   4.975   0.986 -0.0150  0.0108 -0.4093
10693SOL    HW134971   3.833   5.024   0.968 -0.5407 -0.4830  0.5237
10693SOL    HW234972   3.925   4.921   0.908  0.2545  1.1828 -1.1992
10694SOL     OW34973   4.354   1.458   1.434 -0.6179 -0.1997  0.0177
10694SOL    HW134974   4.404   1.454   1.515 -0.0883 -1.7007 -0.3462
10694SOL    HW234975   4.323   1.368   1.420 -1.9460  0.3358 -0.6815
10695SOL     OW34976   1.050   2.085   4.624  0.1706 -0.3314 -0.0901
10695SOL    HW134977   1.016   2.024   4.559  2.3748 -1.7566  0.0150
10695SOL    HW234978   1.142   2.062   4.634  0.9669  2.6129  0.4386
10696SOL     OW34979   8.407   0.213   4.214 -0.1504  0.0480  0.3431
10696SOL    HW134980   8.430   0.134   4.263  0.9624  1.5769  2.4572
10696SOL    HW234981   8.313   0.225   4.230 -0.1383 -0.3771  0.7501
10697SOL     OW34982   1.691   5.798   1.561  0.4912 -0.5105 -0.2455
10697SOL    HW134983   1.664   5.723   1.615  0.3016  0.6867  1.4253
10697SOL    HW234984   1.786   5.790   1.554  0.5014 -0.7877  0.1555
10698SOL     OW34985   2.282   2.762   2.563 -0.3869 -0.5291 -0.2275
10698SOL    HW134986   2.275   2.684   2.508  0.8524 -0.5950 -0.3186
10698SOL    HW234987   2.376   2.772   2.579 -0.6608 -0.0430  1.2249
10699SOL     OW34988   4.812   5.341   6.552 -0.2516 -0.5269  0.3974
10699SOL    HW134989   4.873   5.311   6.484  0.7471  1.5238  0.3218
10699SOL    HW234990   4.846   5.303   6.633  0.0477 -0.8961  0.1059
10700SOL     OW34991   5.742   3.360   5.791  0.4299 -0.0840  0.0666
10700SOL    HW134992   5.798   3.425   5.832  1.7437 -0.0350 -1.6651
10700SOL    HW234993   5.671   3.411   5.752  0.2882  0.0819  0.5432
10701SOL     OW34994   7.098   3.427   8.756  0.1007 -0.0994  0.0457
10701SOL    HW134995   7.092   3.463   8.844  1.0531  1.0152 -0.3145
10701SOL    HW234996   7.022   3.369   8.748 -0.3052  0.2166  1.3885
10702SOL     OW34997   8.968   3.590   7.360 -0.3556  0.1315 -0.4482
10702SOL    HW134998   9.055   3.564   7.329  0.1925  0.7799  0.4684
10702SOL    HW234999   8.986   3.640   7.440 -1.3664  2.5611 -1.6440
10703SOL     OW35000   1.368   8.124   5.835  0.0705 -0.1278 -0.2772
10703SOL    HW135001   1.285   8.095   5.797  0.2246 -0.4651 -0.3598
10703SOL    HW235002   1.388   8.206   5.789  0.1193 -0.3917 -0.7302
10704SOL     OW35003   5.237   7.640   4.053 -0.2712  0.0760 -0.1946
10704SOL    HW135004   5.266   7.548   4.057 -1.7725 -0.3993  0.9613
10704SOL    HW235005   5.276   7.680   4.131  0.3918  0.4371 -0.7045
10705SOL     OW35006   7.446   8.943   1.787  0.2653  0.3658 -0.0708
10705SOL    HW135007   7.374   8.910   1.840 -0.1120 -0.6469 -1.1719
10705SOL    HW235008   7.437   9.038   1.793 -0.9923  0.2657  0.0521
10706SOL     OW35009   1.235   3.924   3.254  0.6487  0.3071 -0.1513
10706SOL    HW135010   1.164   3.978   3.220  1.0742 -0.0708 -1.7185
10706SOL    HW235011   1.312   3.981   3.250  0.6517  0.3690  0.5526
10707SOL     OW35012   3.150   4.064   6.746  0.5180  0.1040  0.0426
10707SOL    HW135013   3.207   4.001   6.702 -0.4560  0.0589 -1.2243
10707SOL    HW235014   3.200   4.145   6.748  2.3687 -0.9487  2.9499
10708SOL     OW35015   5.862   5.485   4.227  0.2415 -0.5903  0.6020
10708SOL    HW135016   5.828   5.531   4.150 -1.0429 -1.2709  0.7496
10708SOL    HW235017   5.899   5.554   4.282  0.4956 -0.0131 -0.2733
10709SOL     OW35018   8.030   3.986   3.332  0.2178  0.1945  0.2952
10709SOL    HW135019   8.111   4.019   3.293  0.0742 -0.1682 -0.3329
10709SOL    HW235020   8.038   3.891   3.327 -0.0195  0.1468  0.7178
10710SOL     OW35021   7.911   6.489   2.263 -0.4830  0.8460 -0.2124
10710SOL    HW135022   7.934   6.582   2.270  2.8535  0.0953  0.4948
10710SOL    HW235023   7.939   6.451   2.346 -1.9864 -0.8042 -0.4004
10711SOL     OW35024   6.696   1.095   6.298 -0.3899  0.0168  0.3610
10711SOL    HW135025   6.680   1.002   6.283  0.8195 -0.0741 -0.5112
10711SOL    HW235026   6.681   1.107   6.392  2.2973 -1.7157  1.1373
10712SOL     OW35027   1.994   0.614   3.103  0.8595 -0.0226 -0.2978
10712SOL    HW135028   2.035   0.638   3.186 -0.0992 -0.7066  0.3996
10712SOL    HW235029   2.014   0.687   3.044 -0.5871  1.7553  1.2643
10713SOL     OW35030   2.318   8.646   4.201  0.0013 -0.0398  0.3907
10713SOL    HW135031   2.404   8.686   4.215  0.3190 -0.8521  0.8304
10713SOL    HW235032   2.261   8.719   4.176  0.8200  0.5015  0.0827
10714SOL     OW35033   2.340   5.026   5.091  0.4174  0.3404  0.1042
10714SOL    HW135034   2.388   5.020   5.009  0.5055 -0.7476  0.2295
10714SOL    HW235035   2.353   5.117   5.119  3.1401 -0.1150  0.5642
10715SOL     OW35036   1.517   4.300   2.162 -0.0256  0.1991 -0.4221
10715SOL    HW135037   1.519   4.205   2.149 -1.5321  0.0470  0.2107
10715SOL    HW235038   1.573   4.335   2.093 -0.2515 -1.1016 -1.3053
10716SOL     OW35039   7.681   0.589   0.906 -0.1299  0.1613 -0.0354
10716SOL    HW135040   7.741   0.623   0.972  1.4481 -2.0188 -0.2251
10716SOL    HW235041   7.691   0.494   0.912 -2.5558 -0.2255 -1.0609
10717SOL     OW35042   2.644   1.469   0.433  0.0750  0.0850  0.1511
10717SOL    HW135043   2.579   1.461   0.363  1.8154  1.6011 -1.7422
10717SOL    HW235044   2.619   1.547   0.481  0.1705  0.3776 -0.2637
10718SOL     OW35045   7.116   4.411   8.180 -0.0092  0.4475 -0.2564
10718SOL    HW135046   7.144   4.475   8.245  0.1029 -1.8863  2.1862
10718SOL    HW235047   7.130   4.454   8.096  0.4348  3.4138  1.1949
10719SOL     OW35048   7.906   9.239   0.533 -0.1707  0.6787  0.3935
10719SOL    HW135049   7.871   9.276   0.614  2.8751  1.5437  1.4505
10719SOL    HW235050   7.981   9.294   0.511  0.0730 -0.4979 -2.1594
10720SOL     OW35051   6.896   2.536   3.171 -0.2434 -0.3345  0.3313
10720SOL    HW135052   6.887   2.464   3.108 -1.8629  1.1891 -1.3038
10720SOL    HW235053   6.806   2.561   3.191  0.2189  2.6481 -0.8788
10721SOL     OW35054   3.062   1.116   6.069  0.0564  0.5617 -0.0876
10721SOL    HW135055   2.997   1.063   6.023 -0.6297  0.8525  0.5197
10721SOL    HW235056   3.069   1.196   6.018  1.8770 -0.4928 -1.6023
10722SOL     OW35057   2.745   4.308   6.345 -0.3846 -0.2021  0.2517
10722SOL    HW135058   2.704   4.384   6.305  0.1467  0.0116  0.1007
10722SOL    HW235059   2.703   4.300   6.431  0.0181  0.6726  0.5449
10723SOL     OW35060   8.672   3.985   5.587  0.5533 -0.2182 -0.5474
10723SOL    HW135061   8.645   3.913   5.644 -1.2872 -0.6788 -1.9142
10723SOL    HW235062   8.722   3.942   5.517  1.2709  0.1186 -0.2483
10724SOL     OW35063   1.545   3.876   2.226 -0.2120  0.1957  0.0330
10724SOL    HW135064   1.484   3.901   2.295 -1.0232  1.2769 -1.0240
10724SOL    HW235065   1.525   3.936   2.153  1.4200 -0.0997 -0.7120
10725SOL     OW35066   8.142   0.973   3.194  0.1200 -0.0698  0.5238
10725SOL    HW135067   8.183   1.023   3.124 -0.3244 -0.4644 -0.0324
10725SOL    HW235068   8.104   1.039   3.252  2.4161  0.3639  1.6453
10726SOL     OW35069   3.184   5.302   1.148  0.1231  0.8263  0.0991
10726SOL    HW135070   3.208   5.393   1.128  1.8646  0.5086  0.5417
10726SOL    HW235071   3.204   5.254   1.068  1.2397  0.5294  0.5285
10727SOL     OW35072   4.344   4.485   3.807  0.4681  0.0941 -0.5773
10727SOL    HW135073   4.359   4.396   3.841  1.5538 -0.4608 -2.3973
10727SOL    HW235074   4.431   4.522   3.797 -0.0049  1.8900  1.3306
10728SOL     OW35075   8.146   8.475   5.685 -0.1536 -0.2686 -0.1670
10728SOL    HW135076   8.080   8.446   5.748  1.0111 -0.3137  1.0736
10728SOL    HW235077   8.172   8.395   5.639  0.7233 -0.6967  1.0105
10729SOL     OW35078   5.012   5.042   4.295 -0.4594  0.1014  0.9688
10729SOL    HW135079   5.049   5.115   4.245  0.5348 -0.3276  1.0574
10729SOL    HW235080   4.938   5.011   4.242  2.2700 -2.2427 -1.7995
10730SOL     OW35081   2.163   1.929   9.242  0.1804  0.1178  0.0095
10730SOL    HW135082   2.239   1.967   9.287  1.2301 -2.7190  0.8718
10730SOL    HW235083   2.088   1.963   9.290  0.9431  1.9917 -0.0414
10731SOL     OW35084   5.976   8.680   3.513  0.2400  0.3565  0.1946
10731SOL    HW135085   6.014   8.594   3.493  0.9876  0.8307 -0.5323
10731SOL    HW235086   6.051   8.739   3.513 -0.4388  1.2556 -0.8433
10732SOL     OW35087   3.336   8.150   1.815 -0.5110 -0.1041 -0.2399
10732SOL    HW135088   3.403   8.082   1.803  1.0513  1.0150  1.5826
10732SOL    HW235089   3.253   8.102   1.814  0.2871 -1.5830 -2.2273
10733SOL     OW35090   1.779   2.960   7.374  0.6551  0.2622  0.1326
10733SOL    HW135091   1.848   2.893   7.367  1.5971  1.2285 -0.1203
10733SOL    HW235092   1.736   2.959   7.289  0.4172 -0.2726  0.2548
10734SOL     OW35093   6.295   1.561   0.799 -0.6023 -0.1438 -0.6074
10734SOL    HW135094   6.204   1.589   0.791 -1.1405 -1.8765 -0.8796
10734SOL    HW235095   6.307   1.543   0.892 -0.9852 -1.2655 -0.7589
10735SOL     OW35096   8.528   6.968   4.547 -0.7229 -0.0185 -0.1337
10735SOL    HW135097   8.510   6.991   4.638  0.2907 -1.2478  0.3942
10735SOL    HW235098   8.607   7.017   4.525 -0.2311 -0.7248  0.0596
10736SOL     OW35099   2.850   7.311   9.012 -0.8063  0.3610  0.0662
10736SOL    HW135100   2.780   7.372   9.036 -1.1192 -0.1290  0.4167
10736SOL    HW235101   2.868   7.263   9.093 -2.5482 -2.0145 -0.8088
10737SOL     OW35102   4.861   8.599   8.034  0.6222 -0.3863 -0.0666
10737SOL    HW135103   4.894   8.635   8.116  0.3965  0.3657 -0.2974
10737SOL    HW235104   4.787   8.655   8.011 -0.3960 -1.6320  0.0883
10738SOL     OW35105   8.189   0.689   8.734 -0.1699 -0.1168  0.4594
10738SOL    HW135106   8.164   0.642   8.655  1.4549  0.0338 -0.1828
10738SOL    HW235107   8.269   0.646   8.765 -0.1852  0.4893  1.4161
10739SOL     OW35108   5.236   2.309   4.153 -0.0197 -0.0932 -0.2656
10739SOL    HW135109   5.324   2.346   4.154 -0.2138  0.3964 -0.7872
10739SOL    HW235110   5.216   2.289   4.245  0.3012  0.5903 -0.0437
10740SOL     OW35111   1.528   7.902   2.834 -0.3740  0.2500 -0.1902
10740SOL    HW135112   1.448   7.930   2.879  0.9775  1.5044  1.5542
10740SOL    HW235113   1.565   7.835   2.891  0.4831  0.6091 -0.3145
10741SOL     OW35114   8.148   1.324   5.171 -0.1735  0.1552 -0.0371
10741SOL    HW135115   8.117   1.390   5.110 -1.3864 -0.3304  0.0332
10741SOL    HW235116   8.072   1.303   5.225  0.8915  0.6787  1.7639
10742SOL     OW35117   6.986   8.899   1.831  0.1484 -0.0052 -0.1968
10742SOL    HW135118   6.984   8.991   1.806  1.2216 -0.3117 -1.5122
10742SOL    HW235119   7.067   8.889   1.881  1.1686 -0.6467 -1.9067
10743SOL     OW35120   7.005   1.437   1.095 -0.2374 -0.1480  0.4116
10743SOL    HW135121   7.074   1.399   1.042  0.1434  0.7099  0.2772
10743SOL    HW235122   6.996   1.527   1.063 -1.2440 -0.1720  0.5912
10744SOL     OW35123   2.135   0.039   2.586  0.1162 -0.5049 -0.1237
10744SOL    HW135124   2.112  -0.054   2.583  1.3011 -0.8195  0.0116
10744SOL    HW235125   2.230   0.039   2.601  0.5703  0.7058 -2.6620
10745SOL     OW35126   1.825   9.062   1.924 -0.2514  0.1500 -0.0102
10745SOL    HW135127   1.816   9.144   1.973  0.7862  0.6564 -0.6334
10745SOL    HW235128   1.900   9.018   1.964 -0.5506 -0.3026  0.0558
10746SOL     OW35129   3.783   4.214   4.655 -0.7874 -0.4496 -0.1093
10746SOL    HW135130   3.801   4.204   4.749 -1.0050  0.8652  0.0883
10746SOL    HW235131   3.756   4.305   4.645  0.0429 -0.3353 -1.5871
10747SOL     OW35132   6.679   8.038   1.492  0.2563  0.1127  0.0956
10747SOL    HW135133   6.701   8.050   1.584 -1.9483 -0.7702  0.7721
10747SOL    HW235134   6.713   8.117   1.450  0.0409  1.2210  1.8913
10748SOL     OW35135   1.420   0.684   8.056 -0.1846 -0.6876 -0.3028
10748SOL    HW135136   1.459   0.748   8.116  0.8032 -0.4155 -1.2031
10748SOL    HW235137   1.395   0.736   7.980 -3.0329 -0.7261  0.5073
10749SOL     OW35138   0.954   2.924   8.219  0.0204  0.2997 -0.2047
10749SOL    HW135139   0.934   2.901   8.310  0.8605  0.6211  0.0764
10749SOL    HW235140   0.875   2.969   8.187  0.2203  1.4317  0.8185
10750SOL     OW35141   3.080   3.724   4.383  0.4005  0.7013 -0.4360
10750SOL    HW135142   3.133   3.681   4.316  1.1407  0.5841  0.2043
10750SOL    HW235143   3.131   3.802   4.407  0.5333  0.3191  0.5531
10751SOL     OW35144   7.538   1.313   4.242 -0.0705 -0.2715  0.3399
10751SOL    HW135145   7.587   1.395   4.234 -1.4156  0.4173 -1.2132
10751SOL    HW235146   7.547   1.270   4.157 -1.6282 -0.4130  0.2158
10752SOL     OW35147   7.680   4.770   0.611 -0.0465 -0.9670 -0.1358
10752SOL    HW135148   7.589   4.757   0.637  0.0469 -0.5728  0.3975
10752SOL    HW235149   7.676   4.788   0.517 -0.9126  2.7057  0.4550
10753SOL     OW35150   3.582   6.648   1.488 -0.5429 -0.0729  0.4414
10753SOL    HW135151   3.670   6.619   1.511 -0.7031 -0.4027  0.6454
10753SOL    HW235152   3.592   6.740   1.464  0.1483 -0.5354 -1.1891
10754SOL     OW35153   0.166   3.550   5.444 -0.6489 -0.2850  0.4661
10754SOL    HW135154   0.198   3.639   5.432  0.2241 -0.7053 -0.4493
10754SOL    HW235155   0.245   3.497   5.458 -1.2490 -0.6484  3.0493
10755SOL     OW35156   2.302   2.511   1.711 -0.2046  0.0439 -0.1289
10755SOL    HW135157   2.300   2.574   1.784 -1.0674  0.2531 -0.3143
10755SOL    HW235158   2.221   2.529   1.662 -0.0724 -0.6865 -0.6326
10756SOL     OW35159   3.714   6.337   2.827 -0.6038  0.5516  0.3203
10756SOL    HW135160   3.669   6.407   2.875 -1.6214  0.6191 -0.7026
10756SOL    HW235161   3.763   6.383   2.759 -1.1655  0.2929 -0.2681
10757SOL     OW35162   0.495   7.676   6.515 -0.2084 -0.3137  0.3585
10757SOL    HW135163   0.408   7.715   6.520  0.0368  0.4369 -0.8637
10757SOL    HW235164   0.548   7.740   6.468  0.9401 -0.8925  0.8133
10758SOL     OW35165   7.011   7.369   0.289 -0.1978 -0.3747  0.0469
10758SOL    HW135166   7.060   7.401   0.213  0.9951 -0.5258  0.7165
10758SOL    HW235167   7.029   7.434   0.357 -1.2764 -0.2271  0.2027
10759SOL     OW35168   8.960   3.423   3.062 -1.1728  0.0559  0.1378
10759SOL    HW135169   8.962   3.472   2.980  1.4145  1.8000  1.1106
10759SOL    HW235170   9.049   3.389   3.072 -2.0295 -2.0519  1.1664
10760SOL     OW35171   7.373   7.772   2.907 -0.3211  0.1775 -0.1535
10760SOL    HW135172   7.464   7.766   2.936 -0.0377  0.1926 -1.0288
10760SOL    HW235173   7.332   7.832   2.969  0.6384  1.3647 -0.6429
10761SOL     OW35174   8.201   7.951   7.924  0.7730  0.0671  0.2036
10761SOL    HW135175   8.120   7.998   7.905  0.0739 -0.9387  0.6167
10761SOL    HW235176   8.269   8.019   7.921  0.0044  0.8304 -0.6972
10762SOL     OW35177   6.113   6.677   0.277 -0.4318 -0.4199  0.2814
10762SOL    HW135178   6.066   6.684   0.194  1.4712  1.7969 -0.7200
10762SOL    HW235179   6.061   6.730   0.338 -0.0953  0.7036 -0.3921
10763SOL     OW35180   8.017   0.164   1.741 -0.3862  0.1704  0.0992
10763SOL    HW135181   8.095   0.121   1.775  0.2268  0.1687 -1.2554
10763SOL    HW235182   8.046   0.252   1.716 -0.8687  0.2514 -0.1971
10764SOL     OW35183   5.915   0.779   1.027  0.1363  0.5490  0.2717
10764SOL    HW135184   5.866   0.835   1.087 -0.4483 -1.1530  1.4617
10764SOL    HW235185   5.980   0.838   0.987 -0.0780  1.9475  1.8573
10765SOL     OW35186   7.168   0.040   1.705 -0.4636 -0.4722 -0.1675
10765SOL    HW135187   7.175   0.019   1.612  0.1372  1.0611 -0.4975
10765SOL    HW235188   7.241  -0.007   1.745 -1.4722 -2.1829 -0.2332
10766SOL     OW35189   2.082   8.617   5.803 -0.4578  0.1560 -0.3590
10766SOL    HW135190   2.033   8.618   5.885 -1.1324  2.9104 -0.7069
10766SOL    HW235191   2.022   8.653   5.738  0.7648  0.0174 -1.6256
10767SOL     OW35192   1.479   3.063   3.006  0.3816 -0.1347  0.4443
10767SOL    HW135193   1.416   3.023   3.065 -0.1964  1.4032  0.9103
10767SOL    HW235194   1.426   3.114   2.945  1.1494  1.5063  1.0889
10768SOL     OW35195   1.941   0.647   8.277  0.6998  0.1751  0.0826
10768SOL    HW135196   1.942   0.672   8.369  1.7543  0.5653 -0.0241
10768SOL    HW235197   1.913   0.727   8.231 -0.2843 -0.1486  0.0815
10769SOL     OW35198   7.582   0.785   6.868 -0.4146 -0.0450  0.2955
10769SOL    HW135199   7.570   0.861   6.925  1.6386  0.1998  0.4959
10769SOL    HW235200   7.676   0.785   6.850 -0.4307 -2.3451  0.0189
10770SOL     OW35201   5.008   3.319   8.958  0.0031 -0.7742 -0.2431
10770SOL    HW135202   4.969   3.323   8.871  0.9303  0.7244 -0.6256
10770SOL    HW235203   5.008   3.410   8.988  0.9862 -1.0817  0.7457
10771SOL     OW35204   7.864   1.760   9.160  0.2186 -0.1500 -0.2358
10771SOL    HW135205   7.804   1.741   9.232  0.5899 -0.0389  0.1060
10771SOL    HW235206   7.831   1.842   9.122  0.1268 -0.1133 -0.0783
10772SOL     OW35207   3.168   4.290   7.994 -0.2029  0.0428  0.1589
10772SOL    HW135208   3.088   4.339   8.014 -0.3632  1.2319 -2.8919
10772SOL    HW235209   3.141   4.199   7.992 -0.9639  0.2250  1.3230
10773SOL     OW35210   0.774   0.452   7.137  0.0384 -0.6102 -0.3535
10773SOL    HW135211   0.802   0.543   7.129  1.0557 -0.8833 -0.0512
10773SOL    HW235212   0.737   0.430   7.052  0.6646 -0.1957 -0.7395
10774SOL     OW35213   6.004   6.468   5.709 -0.1024 -0.4713  0.3331
10774SOL    HW135214   5.996   6.563   5.716  0.4471 -0.4223  0.4089
10774SOL    HW235215   5.927   6.434   5.753 -1.0245 -0.0523 -0.9140
10775SOL     OW35216   6.573   4.711   0.846 -0.0867 -0.5942 -0.5087
10775SOL    HW135217   6.633   4.671   0.783 -0.7030 -0.2749 -1.3311
10775SOL    HW235218   6.613   4.796   0.865  2.2088 -2.1942  2.6804
10776SOL     OW35219   2.920   1.250   2.157  0.0235 -0.4583  0.7384
10776SOL    HW135220   2.991   1.285   2.211 -0.2840  1.1013  0.1840
10776SOL    HW235221   2.847   1.310   2.171  0.2211  0.6058 -2.0538
10777SOL     OW35222   0.173   1.197   4.428  0.4304  0.3777  0.2552
10777SOL    HW135223   0.198   1.147   4.506 -1.5484  0.4650  1.0004
10777SOL    HW235224   0.238   1.266   4.422  1.9198 -0.9357  0.5108
10778SOL     OW35225   7.960   0.672   5.491 -0.0045  0.3690  0.3862
10778SOL    HW135226   8.009   0.749   5.519  0.2285 -0.0233  1.0709
10778SOL    HW235227   7.936   0.628   5.572 -1.0267  0.2647  0.0404
10779SOL     OW35228   5.872   8.456   6.925 -0.3697 -0.7799  0.1557
10779SOL    HW135229   5.885   8.532   6.982  0.4910  0.7621 -1.9978
10779SOL    HW235230   5.786   8.421   6.952 -0.7039  0.8302  1.3188
10780SOL     OW35231   9.101   2.973   2.027  0.4352  0.7584 -0.2124
10780SOL    HW135232   9.010   2.946   2.034  0.5756 -0.1066 -1.4354
10780SOL    HW235233   9.142   2.940   2.107  0.7033 -3.2553 -1.7626
10781SOL     OW35234   3.404   2.154   3.811 -0.3950  0.1254  0.5087
10781SOL    HW135235   3.490   2.156   3.853  1.2615  2.0975 -2.5814
10781SOL    HW235236   3.369   2.242   3.824 -1.3483 -0.2338  0.5012
10782SOL     OW35237   1.895   3.959   6.779  0.0587  0.0673  0.5132
10782SOL    HW135238   1.814   3.987   6.736  0.8068 -0.7094 -1.5252
10782SOL    HW235239   1.965   3.988   6.720  1.1603 -0.8687  1.3176
10783SOL     OW35240   3.673   7.111   3.385  0.3501  0.2315 -0.1728
10783SOL    HW135241   3.658   7.020   3.359  3.0705 -0.5106  0.5971
10783SOL    HW235242   3.603   7.129   3.449 -0.1538 -1.3399 -0.2365
10784SOL     OW35243   5.807   9.263   7.230  0.5345 -0.1779 -0.1922
10784SOL    HW135244   5.755   9.188   7.201  1.9208 -1.5397  0.6891
10784SOL    HW235245   5.790   9.331   7.164 -0.9551 -1.1570 -0.8753
10785SOL     OW35246   5.057   1.589   0.146  0.5110  0.4213  0.0202
10785SOL    HW135247   5.056   1.592   0.050  0.6367 -0.0894  0.0003
10785SOL    HW235248   5.098   1.505   0.167  1.1060  0.8334  0.5278
10786SOL     OW35249   5.641   9.033   6.403 -1.0092  0.3602 -0.1879
10786SOL    HW135250   5.665   9.125   6.394  0.0593  0.1283  0.1129
10786SOL    HW235251   5.654   8.996   6.316 -2.1649  0.6379 -0.4959
10787SOL     OW35252   7.688   0.711   8.115  0.1458 -0.2316  0.0302
10787SOL    HW135253   7.658   0.673   8.197 -0.0549 -0.1456 -0.0034
10787SOL    HW235254   7.770   0.756   8.138 -0.9305  1.5119  0.6118
10788SOL     OW35255   0.400   7.541   0.039  0.1230  0.2022 -0.1235
10788SOL    HW135256   0.414   7.477   0.109  0.0347  0.3817  0.0582
10788SOL    HW235257   0.475   7.600   0.046 -0.8763  1.3846  1.0843
10789SOL     OW35258   4.075   6.426   0.097  0.0978  0.2271 -0.6396
10789SOL    HW135259   4.121   6.354   0.055  0.0502  0.2312 -0.6991
10789SOL    HW235260   4.001   6.385   0.142  1.1326 -0.0137  0.9293
10790SOL     OW35261   9.197   8.835   3.294  0.0810  0.3202 -0.3324
10790SOL    HW135262   9.182   8.741   3.303 -1.6722  0.5211 -0.8140
10790SOL    HW235263   9.115   8.875   3.322  0.5016  1.6607 -0.9611
10791SOL     OW35264   6.641   0.952   4.533 -0.2353  0.4669 -0.2379
10791SOL    HW135265   6.629   0.862   4.504 -1.1650  0.6836 -0.5539
10791SOL    HW235266   6.570   0.968   4.595  0.0797  0.8989  0.0205
10792SOL     OW35267   5.716   2.948   2.262  0.3859  0.3409 -0.7515
10792SOL    HW135268   5.651   2.985   2.202 -0.0170  0.3223 -0.3375
10792SOL    HW235269   5.774   3.021   2.283  0.5737  0.3280 -1.2214
10793SOL     OW35270   3.906   3.400   2.504 -0.5930  0.0557 -0.2409
10793SOL    HW135271   3.824   3.351   2.495 -0.9821  0.5291  0.6379
10793SOL    HW235272   3.961   3.346   2.561 -0.2603 -0.2848 -0.8678
10794SOL     OW35273   0.647   3.294   6.301 -0.1276  0.6482  0.4954
10794SOL    HW135274   0.680   3.205   6.316  0.8613  0.6986 -1.1925
10794SOL    HW235275   0.710   3.351   6.346  0.6486  0.5968 -0.4838
10795SOL     OW35276   3.143   8.236   4.686 -0.0649  0.2818  0.5655
10795SOL    HW135277   3.233   8.256   4.660 -0.1896  0.9013  0.6026
10795SOL    HW235278   3.110   8.180   4.616 -0.2783  1.6127 -0.4312
10796SOL     OW35279   7.348   3.461   5.577  0.3376 -0.5242  0.0496
10796SOL    HW135280   7.360   3.549   5.612 -1.1740 -0.2044 -0.1531
10796SOL    HW235281   7.393   3.404   5.639  1.8382  0.4121 -0.1248
10797SOL     OW35282   8.498   4.128   8.136 -0.2888  0.6078  0.0419
10797SOL    HW135283   8.572   4.148   8.078 -2.4007  0.1127 -3.0800
10797SOL    HW235284   8.519   4.043   8.174  0.2358 -0.0987 -1.7503
10798SOL     OW35285   2.280   8.986   9.187  0.2571  0.0761  0.3143
10798SOL    HW135286   2.243   8.946   9.109 -0.3954 -1.0154  1.1524
10798SOL    HW235287   2.229   8.949   9.260  1.9966 -0.3209  1.3978
10799SOL     OW35288   1.029   6.826   7.330  0.2023 -0.2361 -1.0283
10799SOL    HW135289   0.991   6.904   7.289  1.6361  0.3858 -1.2302
10799SOL    HW235290   0.999   6.830   7.421 -2.3251 -1.1834 -1.7242
10800SOL     OW35291   4.448   1.393   1.692 -0.3122  0.2820  0.3950
10800SOL    HW135292   4.525   1.338   1.705 -0.3145 -0.2786 -1.6176
10800SOL    HW235293   4.378   1.346   1.737 -0.4342 -1.7941 -1.7114
10801SOL     OW35294   7.079   0.007   4.234 -0.0449 -0.0896 -0.9059
10801SOL    HW135295   7.096   0.079   4.295 -0.7585  0.0032 -0.8175
10801SOL    HW235296   7.085   0.048   4.147 -1.2783  0.2669 -0.8387
10802SOL     OW35297   1.603   6.254   2.355 -0.4173 -0.0554 -0.0110
10802SOL    HW135298   1.595   6.161   2.335  0.1852  0.1045 -1.0145
10802SOL    HW235299   1.603   6.258   2.451  1.0724 -1.2439  0.0765
10803SOL     OW35300   0.991   7.686   4.396 -0.7285  0.7961  0.2175
10803SOL    HW135301   1.033   7.601   4.382 -1.7821  0.4101 -0.7843
10803SOL    HW235302   0.904   7.665   4.430 -0.2764  1.5730  1.9361
10804SOL     OW35303   1.741   2.779   5.896  0.0051  0.1944 -0.4081
10804SOL    HW135304   1.682   2.727   5.841 -0.8288  0.0167  0.6151
10804SOL    HW235305   1.765   2.854   5.841 -2.5172  1.1528 -0.3537
10805SOL     OW35306   5.179   1.790   3.459  0.6690  0.3500 -0.1062
10805SOL    HW135307   5.199   1.756   3.372 -1.3079  2.0293 -1.2995
10805SOL    HW235308   5.125   1.723   3.499 -0.4192  0.5661 -1.1447
10806SOL     OW35309   2.143   6.603   1.070 -0.3280  0.0656 -0.1023
10806SOL    HW135310   2.163   6.537   1.136  0.2863  1.1346  0.8195
10806SOL    HW235311   2.076   6.658   1.111  0.5769  1.1675 -0.0628
10807SOL     OW35312   5.934   6.607   5.384  0.0145 -0.2190 -0.1486
10807SOL    HW135313   5.995   6.600   5.310 -1.5597  1.4594 -1.6804
10807SOL    HW235314   5.932   6.518   5.420  0.9574 -1.0683 -2.0056
10808SOL     OW35315   5.443   3.805   1.304 -0.0564 -0.5206 -0.2830
10808SOL    HW135316   5.372   3.814   1.241 -0.1537 -1.7104 -0.3697
10808SOL    HW235317   5.406   3.754   1.375  0.0881  0.7129  0.7075
10809SOL     OW35318   1.645   0.630   1.892 -0.3673 -0.1632  0.8749
10809SOL    HW135319   1.642   0.535   1.898  0.0895 -0.2325  0.1590
10809SOL    HW235320   1.691   0.648   1.810 -1.1729  0.6718  0.5796
10810SOL     OW35321   2.256   4.966   6.456  0.3980 -0.3037  0.1803
10810SOL    HW135322   2.296   4.896   6.508  0.9274 -2.3803 -2.7524
10810SOL    HW235323   2.330   5.005   6.409 -0.4162 -1.2379 -1.9983
10811SOL     OW35324   2.177   7.551   1.222 -0.2165  0.0167 -0.3711
10811SOL    HW135325   2.210   7.469   1.185 -0.1314  0.2295 -0.7674
10811SOL    HW235326   2.129   7.524   1.300  0.2514 -0.3659 -0.2094
10812SOL     OW35327   2.726   0.533   2.268  0.1123 -0.5859 -0.5543
10812SOL    HW135328   2.632   0.516   2.267 -0.1062  0.5703 -1.2025
10812SOL    HW235329   2.745   0.556   2.359 -0.9930  2.8664 -1.0343
10813SOL     OW35330   7.022   7.810   8.599  0.0564  0.1968  0.0522
10813SOL    HW135331   7.112   7.795   8.572  0.0601  0.4408 -0.0714
10813SOL    HW235332   6.972   7.742   8.553 -0.1214  1.4297 -1.6538
10814SOL     OW35333   5.267   2.182   1.783  0.9333 -0.2566  0.1121
10814SOL    HW135334   5.223   2.195   1.699  0.1268  0.3959  0.6228
10814SOL    HW235335   5.347   2.235   1.778  0.9176 -0.2692 -0.2581
10815SOL     OW35336   5.799   1.261   4.025  0.3615 -0.1758  0.0545
10815SOL    HW135337   5.718   1.255   4.075  0.6951  1.3310  0.8674
10815SOL    HW235338   5.811   1.174   3.987 -1.0660 -0.7302  0.7883
10816SOL     OW35339   5.544   3.627   8.582  0.0257 -0.1273  0.2096
10816SOL    HW135340   5.453   3.657   8.580  0.2585  0.6276  0.4848
10816SOL    HW235341   5.537   3.532   8.585 -0.7851 -0.0641  1.0891
10817SOL     OW35342   2.424   7.341   5.905 -0.3208  0.6268 -0.0176
10817SOL    HW135343   2.452   7.428   5.932 -1.4808  0.2096  2.8380
10817SOL    HW235344   2.500   7.285   5.920  0.2138  0.9868 -1.2384
10818SOL     OW35345   4.446   2.589   6.929  0.4424 -1.4186 -0.3110
10818SOL    HW135346   4.355   2.572   6.955 -0.5685 -1.4883 -3.4779
10818SOL    HW235347   4.486   2.630   7.006 -2.6261 -0.2073  0.7822
10819SOL     OW35348   3.990   6.969   4.577  0.4628  0.2430 -0.9347
10819SOL    HW135349   3.943   6.999   4.499 -0.7734 -0.1946 -0.3799
10819SOL    HW235350   3.992   7.044   4.636 -1.1558 -0.2363 -0.2290
10820SOL     OW35351   1.729   0.882   9.143  0.4315  0.4180 -0.0512
10820SOL    HW135352   1.684   0.845   9.067  2.0170 -0.1626 -0.7407
10820SOL    HW235353   1.687   0.967   9.157 -1.9962 -0.7590  0.3776
10821SOL     OW35354   0.274   2.604   4.522 -0.1304 -0.1115 -0.7828
10821SOL    HW135355   0.221   2.639   4.450 -1.2946  0.2591  0.2276
10821SOL    HW235356   0.310   2.681   4.565 -2.8413  0.0058  1.5561
10822SOL     OW35357   3.050   0.092   0.386 -0.2146 -0.4777 -0.0343
10822SOL    HW135358   3.074   0.031   0.456  0.3728 -1.2502 -0.8722
10822SOL    HW235359   3.093   0.174   0.408  0.3031 -0.8355  0.2971
10823SOL     OW35360   8.049   7.747   1.526 -0.4661 -0.3799  0.1304
10823SOL    HW135361   8.134   7.711   1.503  0.4710  1.7625  0.0567
10823SOL    HW235362   8.067   7.837   1.553 -2.6354 -0.0597  0.6963
10824SOL     OW35363   3.791   6.356   5.331  0.4028  0.3200  0.3993
10824SOL    HW135364   3.726   6.408   5.379 -0.5014 -0.4323  0.0102
10824SOL    HW235365   3.822   6.292   5.395  2.8157  2.3374  1.4336
10825SOL     OW35366   8.321   5.058   1.115 -0.4058  0.2404 -0.8985
10825SOL    HW135367   8.318   5.038   1.208  0.4421  0.4670 -0.8192
10825SOL    HW235368   8.239   5.021   1.080 -0.6983  0.1051 -0.0849
10826SOL     OW35369   3.765   4.085   5.272  0.0277 -0.5236  0.1513
10826SOL    HW135370   3.755   4.105   5.365  1.2941  0.3970  0.1237
10826SOL    HW235371   3.693   4.026   5.252 -0.4589 -0.4774  1.6396
10827SOL     OW35372   5.582   5.653   7.179 -0.2536  0.1216  0.1484
10827SOL    HW135373   5.566   5.577   7.122 -2.0927  0.6299 -0.0754
10827SOL    HW235374   5.635   5.619   7.250 -0.3996 -1.2114 -0.3501
10828SOL     OW35375   3.241   3.597   6.127 -0.1740 -0.0482  0.2993
10828SOL    HW135376   3.149   3.615   6.147  0.3151  2.7366  0.3747
10828SOL    HW235377   3.248   3.614   6.033  0.3985  0.5241  0.4388
10829SOL     OW35378   4.622   0.514   3.607  0.1853  0.1177 -0.1777
10829SOL    HW135379   4.671   0.434   3.622  0.0249 -0.0266 -0.4239
10829SOL    HW235380   4.550   0.488   3.549  0.5782  0.5904 -0.8960
10830SOL     OW35381   4.617   4.049   5.794  0.1168  0.0666  0.3558
10830SOL    HW135382   4.685   4.117   5.797  0.2439 -0.0439  3.4086
10830SOL    HW235383   4.536   4.096   5.813 -0.0679 -0.3408  0.5810
10831SOL     OW35384   1.402   5.491   0.923  0.3829 -0.1255 -0.0715
10831SOL    HW135385   1.312   5.460   0.926 -0.2102  1.5089  0.2872
10831SOL    HW235386   1.422   5.515   1.013  0.4968  1.2679 -0.4424
10832SOL     OW35387   4.529   5.692   4.876 -1.0795  0.1100 -0.6099
10832SOL    HW135388   4.560   5.604   4.852  0.9310  0.5659  0.1320
10832SOL    HW235389   4.549   5.746   4.799  0.6929  0.5385  0.1067
10833SOL     OW35390   2.358   2.108   5.836  0.0925 -0.1406  0.7077
10833SOL    HW135391   2.331   2.103   5.744 -2.8093  0.9932  1.3706
10833SOL    HW235392   2.436   2.163   5.835  0.7458 -0.9926 -1.1385
10834SOL     OW35393   3.132   2.179   1.866 -0.2945  0.4125  0.8130
10834SOL    HW135394   3.038   2.188   1.851 -0.6695 -1.8514  1.4903
10834SOL    HW235395   3.172   2.205   1.784 -1.4968  1.3362  0.4836
10835SOL     OW35396   0.822   2.772   2.685 -0.2279  0.1023 -0.9556
10835SOL    HW135397   0.736   2.773   2.644 -1.2273 -2.1220  0.8973
10835SOL    HW235398   0.876   2.719   2.626  0.4975  2.8393 -2.9948
10836SOL     OW35399   3.320   7.565   2.951  0.1911 -0.0124  0.3718
10836SOL    HW135400   3.404   7.521   2.956  0.1411  0.0269  2.3317
10836SOL    HW235401   3.337   7.646   2.903  1.0988 -0.3492  0.1214
10837SOL     OW35402   4.080   4.503   3.922 -0.0464 -0.4929  0.4143
10837SOL    HW135403   4.159   4.548   3.950  0.7205  0.4522 -2.7888
10837SOL    HW235404   4.111   4.426   3.875 -1.1970 -1.6791  1.4942
10838SOL     OW35405   6.177   4.512   0.508 -0.5155 -0.2936 -0.0460
10838SOL    HW135406   6.228   4.436   0.536 -2.2386 -0.8331  1.9116
10838SOL    HW235407   6.227   4.587   0.539  0.7247 -0.6288 -1.1507
10839SOL     OW35408   2.769   8.738   6.394  0.0305 -0.4894 -0.2568
10839SOL    HW135409   2.760   8.659   6.448 -0.6635 -0.4050 -0.2356
10839SOL    HW235410   2.844   8.720   6.337  1.5063 -0.1437  1.4709
10840SOL     OW35411   3.965   6.063   7.820  0.7063 -0.0407 -0.6195
10840SOL    HW135412   4.017   6.099   7.748  1.4082 -0.2108 -0.2100
10840SOL    HW235413   3.884   6.113   7.818 -0.0421 -1.2134 -2.6282
10841SOL     OW35414   8.230   3.168   7.491 -0.4420 -0.4441  0.6057
10841SOL    HW135415   8.267   3.253   7.514 -0.2475 -0.7707  1.5434
10841SOL    HW235416   8.204   3.129   7.575  1.1173 -2.0738  0.4103
10842SOL     OW35417   2.453   1.951   2.430 -0.1466 -0.4559  0.1547
10842SOL    HW135418   2.485   2.004   2.504  2.0216  0.3088 -1.2168
10842SOL    HW235419   2.451   1.861   2.464  2.3173 -0.3564  0.8055
10843SOL     OW35420   0.955   1.060   1.880 -0.0298  0.0945  0.5777
10843SOL    HW135421   1.050   1.053   1.870 -0.3177 -0.5835 -2.8842
10843SOL    HW235422   0.940   1.153   1.895  1.1315  0.3812  0.1079
10844SOL     OW35423   8.638   4.584   3.965 -0.1371 -0.6019  0.2899
10844SOL    HW135424   8.720   4.624   3.935 -0.1647 -2.2480 -2.3690
10844SOL    HW235425   8.570   4.644   3.936 -0.0647 -1.4442 -1.7828
10845SOL     OW35426   7.293   5.043   3.174  0.0761 -0.7945 -0.2737
10845SOL    HW135427   7.362   4.995   3.128 -0.1134 -0.1611 -1.2481
10845SOL    HW235428   7.338   5.087   3.246  0.3982 -1.7107  0.0978
10846SOL     OW35429   1.586   7.127   8.447  0.9430 -0.0326 -0.2767
10846SOL    HW135430   1.662   7.108   8.502  0.1913  0.0267  0.8099
10846SOL    HW235431   1.519   7.156   8.508 -0.1606 -0.6860 -1.1440
10847SOL     OW35432   6.409   0.059   2.972  0.2229 -0.1251  0.1299
10847SOL    HW135433   6.390   0.153   2.973  0.0090 -0.1591  1.4227
10847SOL    HW235434   6.455   0.043   3.055  1.0796 -1.0062 -0.5044
10848SOL     OW35435   4.514   0.485   2.303  0.4755  0.0900  0.2895
10848SOL    HW135436   4.580   0.459   2.240  1.5978  0.4905  1.2620
10848SOL    HW235437   4.561   0.491   2.386 -0.5827  1.2988  0.8342
10849SOL     OW35438   0.597   8.275   6.045 -0.1153 -0.2345 -0.7239
10849SOL    HW135439   0.586   8.262   6.139  0.6580  0.9472 -0.4412
10849SOL    HW235440   0.647   8.199   6.016 -3.5090 -2.6034 -0.9622
10850SOL     OW35441   4.726   0.774   0.836  0.1236 -0.0686 -0.2036
10850SOL    HW135442   4.698   0.809   0.920 -0.9419 -1.0313 -0.1228
10850SOL    HW235443   4.657   0.800   0.775 -1.0997 -2.4985 -0.0041
10851SOL     OW35444   5.134   1.332   5.230  0.3596  0.1941  0.0450
10851SOL    HW135445   5.218   1.372   5.253 -0.2469  1.3110  0.3781
10851SOL    HW235446   5.072   1.404   5.233 -0.5376 -0.5360 -0.6601
10852SOL     OW35447   2.065   5.860   7.873  0.4072 -0.0591 -0.2794
10852SOL    HW135448   2.017   5.899   7.800  1.3724  0.6365 -0.5677
10852SOL    HW235449   2.076   5.931   7.936  1.1432 -0.1686 -0.2724
10853SOL     OW35450   5.519   7.823   3.913 -0.2357  0.1693  0.0226
10853SOL    HW135451   5.476   7.824   3.999  0.1079 -2.0021  0.2727
10853SOL    HW235452   5.590   7.888   3.922 -2.3543  2.6223  0.1180
10854SOL     OW35453   1.715   4.925   3.674 -0.2912  0.0890  0.2977
10854SOL    HW135454   1.798   4.923   3.626 -0.2127 -2.2041  0.4122
10854SOL    HW235455   1.712   5.012   3.714  1.1656  0.8794 -1.2053
10855SOL     OW35456   6.293   4.786   1.958 -0.0586 -0.5545  0.1970
10855SOL    HW135457   6.367   4.728   1.941  0.6048  0.2442  0.2392
10855SOL    HW235458   6.332   4.861   2.004 -0.8017  0.1373 -0.2685
10856SOL     OW35459   7.816   7.076   5.034  0.3120  0.1451  0.5556
10856SOL    HW135460   7.822   7.112   5.123 -0.5766  0.8878  0.3290
10856SOL    HW235461   7.796   6.983   5.047  0.9503  0.0771  1.1291
10857SOL     OW35462   0.306   0.505   1.746 -0.3711  0.1854  0.1107
10857SOL    HW135463   0.357   0.574   1.705 -1.2765  0.7439 -0.1122
10857SOL    HW235464   0.225   0.549   1.775 -0.3248 -0.4602  1.3081
10858SOL     OW35465   1.815   6.374   6.354  0.2703 -0.1636 -0.4055
10858SOL    HW135466   1.735   6.387   6.405  0.1036  0.0615 -0.7209
10858SOL    HW235467   1.859   6.300   6.396 -0.2178 -0.4389 -0.3700
10859SOL     OW35468   4.886   1.294   5.451  0.4983  0.5721 -0.0129
10859SOL    HW135469   4.898   1.388   5.439 -1.8669  0.9914  0.4285
10859SOL    HW235470   4.834   1.266   5.376  1.3197 -0.4420 -0.2295
10860SOL     OW35471   4.809   0.166   1.713 -0.0226  0.4314  0.0136
10860SOL    HW135472   4.779   0.075   1.710  0.9116  0.0519  1.1080
10860SOL    HW235473   4.855   0.179   1.631 -1.4744  0.4095 -0.8248
10861SOL     OW35474   5.136   8.847   8.135 -0.1301  0.4417  0.3303
10861SOL    HW135475   5.187   8.767   8.147  0.1346  0.7982  1.7044
10861SOL    HW235476   5.173   8.887   8.056 -1.1153 -1.3932 -1.1385
10862SOL     OW35477   4.922   7.623   5.910 -0.1443 -0.1564 -0.7032
10862SOL    HW135478   4.874   7.704   5.896  0.3737  0.8666  2.6361
10862SOL    HW235479   5.007   7.638   5.870 -0.2296  0.7682 -0.5520
10863SOL     OW35480   8.478   2.811   8.875 -0.0136  0.0594  0.2229
10863SOL    HW135481   8.500   2.722   8.903 -0.2566  0.0445  0.3714
10863SOL    HW235482   8.544   2.832   8.809 -1.1126 -0.9752 -1.2725
10864SOL     OW35483   7.883   0.801   6.769 -0.1328  0.0217  0.2602
10864SOL    HW135484   7.975   0.800   6.744 -0.0470  0.3908  0.5669
10864SOL    HW235485   7.883   0.799   6.865 -0.3769  2.4310  0.3748
10865SOL     OW35486   1.304   1.729   2.365 -0.1272 -0.2925 -0.6550
10865SOL    HW135487   1.262   1.777   2.293 -2.6223 -0.8783  0.3175
10865SOL    HW235488   1.373   1.678   2.322 -1.0539 -0.0636 -2.5304
10866SOL     OW35489   6.389   5.502   3.771 -0.3931 -0.3919  0.2647
10866SOL    HW135490   6.310   5.556   3.776  0.3945  0.7283  1.4330
10866SOL    HW235491   6.394   5.458   3.856  0.3241 -0.2873  0.2893
10867SOL     OW35492   1.780   4.409   3.632 -0.0402 -0.0882  0.4704
10867SOL    HW135493   1.828   4.416   3.714  0.1740  1.3740  0.2342
10867SOL    HW235494   1.691   4.437   3.653  0.0833  0.5601  0.1458
10868SOL     OW35495   0.625   5.786   0.976  0.2004  0.2375 -0.2744
10868SOL    HW135496   0.659   5.831   0.898  1.4370  0.2323  0.2420
10868SOL    HW235497   0.627   5.852   1.044 -1.0697  0.2949 -0.2801
10869SOL     OW35498   2.594   4.473   3.019  0.0956 -0.1752 -0.3119
10869SOL    HW135499   2.536   4.398   3.009  0.3112 -0.2256 -1.2920
10869SOL    HW235500   2.623   4.470   3.110 -2.1706  0.4039  0.4828
10870SOL     OW35501   4.432   6.439   2.538  0.3940 -0.2432  0.4215
10870SOL    HW135502   4.455   6.507   2.475  0.4723  0.6929  1.4371
10870SOL    HW235503   4.516   6.410   2.574  0.3870 -1.1132 -0.2119
10871SOL     OW35504   0.557   9.009   6.414  0.2227  0.5220  0.0467
10871SOL    HW135505   0.560   8.983   6.322 -0.2654  1.1244 -0.1443
10871SOL    HW235506   0.627   9.073   6.425 -0.4330  1.2989 -0.1860
10872SOL     OW35507   8.174   2.772   4.852 -0.6852 -0.0638  0.3163
10872SOL    HW135508   8.268   2.760   4.868  0.0124  2.0326 -1.6855
10872SOL    HW235509   8.132   2.737   4.930  1.7466 -1.0194  1.3041
10873SOL     OW35510   5.772   0.219   0.537 -0.4240 -0.0903 -0.1347
10873SOL    HW135511   5.709   0.247   0.471 -1.1423  0.0384  0.5910
10873SOL    HW235512   5.759   0.125   0.545 -0.2225 -0.1317 -0.2949
10874SOL     OW35513   0.244   7.667   3.605  0.2628 -0.1547 -0.2400
10874SOL    HW135514   0.215   7.630   3.522 -0.3983  0.4815 -0.2993
10874SOL    HW235515   0.166   7.667   3.660  0.7666 -0.8814  0.5098
10875SOL     OW35516   1.307   7.779   6.589  0.6351 -0.6577  0.4326
10875SOL    HW135517   1.389   7.828   6.587 -0.9158  2.1511 -0.9425
10875SOL    HW235518   1.302   7.738   6.503 -0.5401  1.4852 -0.6231
10876SOL     OW35519   6.221   6.513   4.785  0.3489 -0.4377  0.3761
10876SOL    HW135520   6.208   6.567   4.863 -0.0994 -2.0829  1.5140
10876SOL    HW235521   6.133   6.502   4.749  0.3044 -1.0903  0.6616
10877SOL     OW35522   7.733   4.160   1.292  0.3322  0.3197  0.0909
10877SOL    HW135523   7.785   4.124   1.220  1.1509  2.4973 -0.4913
10877SOL    HW235524   7.786   4.144   1.370 -0.0917 -1.1397  0.1148
10878SOL     OW35525   0.553   2.043   0.702  0.7115 -0.0298 -0.2786
10878SOL    HW135526   0.507   2.050   0.618 -0.4043 -1.3557  0.1929
10878SOL    HW235527   0.486   2.061   0.768  0.6597 -2.5870  0.4516
10879SOL     OW35528   5.320   4.105   8.184  0.3795  0.1376 -0.1673
10879SOL    HW135529   5.299   4.077   8.095 -0.5507 -0.1811  0.1365
10879SOL    HW235530   5.388   4.044   8.212 -1.5779 -1.9078  0.4641
10880SOL     OW35531   8.268   6.742   1.631  0.7508  0.1965  0.1412
10880SOL    HW135532   8.267   6.671   1.694  2.0097 -0.2424 -0.3078
10880SOL    HW235533   8.241   6.819   1.681  1.0622 -0.2690  1.0458
10881SOL     OW35534   5.477   2.714   4.637  0.0780  0.0201 -0.0828
10881SOL    HW135535   5.528   2.722   4.556  0.5080 -0.2896  0.1557
10881SOL    HW235536   5.461   2.620   4.646  1.2307 -0.0899  0.9260
10882SOL     OW35537   0.166   9.174   0.736 -0.2651 -0.3630 -0.1256
10882SOL    HW135538   0.260   9.157   0.733  0.2229  1.7464  1.0343
10882SOL    HW235539   0.149   9.197   0.827 -1.6679  0.4159 -0.5578
10883SOL     OW35540   4.028   6.413   1.854 -0.1495  0.0333 -0.2010
10883SOL    HW135541   4.045   6.375   1.941  0.4047 -0.6228 -0.5797
10883SOL    HW235542   4.060   6.346   1.793 -0.1338  0.6728 -0.9028
10884SOL     OW35543   7.054   7.170   3.668 -0.1137 -0.2152 -0.1921
10884SOL    HW135544   7.095   7.255   3.686 -0.9754  0.1018  0.3757
10884SOL    HW235545   7.086   7.146   3.581 -0.8908  1.3521 -0.9622
10885SOL     OW35546   4.905   6.448   5.936  0.0718  0.4225  0.0892
10885SOL    HW135547   4.936   6.525   5.888 -1.2084  0.4099 -0.8297
10885SOL    HW235548   4.850   6.401   5.872  1.9955 -2.0761  0.1089
10886SOL     OW35549   1.620   7.929   8.411  0.0024 -0.4125  0.2340
10886SOL    HW135550   1.577   7.998   8.361  1.8884  1.3060  0.8581
10886SOL    HW235551   1.708   7.963   8.429  0.5315 -2.3923  1.7819
10887SOL     OW35552   5.398   0.296   2.635 -0.0216 -0.2476 -0.2018
10887SOL    HW135553   5.481   0.324   2.597  0.0008 -0.1595 -0.0905
10887SOL    HW235554   5.395   0.202   2.622 -0.0266 -0.2128 -0.4479
10888SOL     OW35555   0.268   9.201   4.296 -0.0655  0.4904  0.1526
10888SOL    HW135556   0.259   9.182   4.203 -0.1144  0.3756  0.1799
10888SOL    HW235557   0.354   9.167   4.320 -0.4680 -0.4263  0.3726
10889SOL     OW35558   0.818   8.159   5.933  0.1295  0.1714  0.1787
10889SOL    HW135559   0.819   8.075   5.888 -1.1844  0.5221 -0.5914
10889SOL    HW235560   0.815   8.224   5.862 -0.8371  0.7789  0.7498
10890SOL     OW35561   1.599   3.344   2.723  0.6606 -0.3603  0.3169
10890SOL    HW135562   1.562   3.367   2.638  1.2933  1.5617  0.5093
10890SOL    HW235563   1.537   3.378   2.787  1.3777  0.4034  0.6230
10891SOL     OW35564   6.727   0.287   7.601  0.0831 -0.3416  0.5025
10891SOL    HW135565   6.642   0.287   7.646  0.3100 -2.6954  1.0846
10891SOL    HW235566   6.769   0.368   7.630 -1.4154  0.2103  1.2800
10892SOL     OW35567   5.533   7.369   4.572 -0.3122  0.3327 -0.2102
10892SOL    HW135568   5.619   7.407   4.584 -0.3934  1.1552 -1.8755
10892SOL    HW235569   5.539   7.323   4.488 -1.4019  0.1716 -0.2133
10893SOL     OW35570   3.764   4.566   2.007  0.0941  0.1909 -0.1284
10893SOL    HW135571   3.783   4.580   2.100  0.8975 -1.1353 -0.0778
10893SOL    HW235572   3.733   4.476   2.002 -2.4791  1.0093 -0.8053
10894SOL     OW35573   7.920   5.408   6.115  0.5720 -0.2021  0.0470
10894SOL    HW135574   7.954   5.419   6.026 -0.5665 -2.6029 -0.7755
10894SOL    HW235575   7.834   5.451   6.113  0.5416 -0.2652 -0.0434
10895SOL     OW35576   6.109   7.899   4.493 -0.6304  0.6623 -0.2613
10895SOL    HW135577   6.203   7.912   4.496 -0.3860 -0.9613 -0.3229
10895SOL    HW235578   6.082   7.895   4.585 -0.6229  1.0079 -0.2441
10896SOL     OW35579   7.362   8.134   6.141  0.0114  0.9096  0.5769
10896SOL    HW135580   7.297   8.077   6.183  1.8287 -1.1581  0.7265
10896SOL    HW235581   7.324   8.153   6.055 -0.0336 -1.8689 -0.1124
10897SOL     OW35582   1.460   4.961   2.534 -0.5753 -0.0156 -0.2904
10897SOL    HW135583   1.475   4.990   2.444 -2.9460 -0.9969 -1.0736
10897SOL    HW235584   1.474   4.866   2.531  1.1738  0.1558  0.8631
10898SOL     OW35585   0.605   2.262   7.516 -0.5607  0.7372  0.1425
10898SOL    HW135586   0.623   2.272   7.422 -1.6250 -2.1960 -0.4943
10898SOL    HW235587   0.564   2.176   7.523 -0.0343  0.6298  3.4006
10899SOL     OW35588   5.019   1.877   0.878  0.1706 -0.3152  0.0009
10899SOL    HW135589   5.063   1.898   0.961  0.4641 -0.5091 -0.1061
10899SOL    HW235590   4.995   1.962   0.842 -0.4766 -0.2452  0.5624
10900SOL     OW35591   2.909   1.656   8.909 -0.0498  0.3939  0.6222
10900SOL    HW135592   2.980   1.684   8.967  0.2508  1.4454 -0.2253
10900SOL    HW235593   2.833   1.706   8.938  0.1920  1.2028 -0.1190
10901SOL     OW35594   8.878   4.231   3.281 -0.4306  0.0054 -0.2639
10901SOL    HW135595   8.865   4.239   3.187  2.5735  0.0741 -0.7638
10901SOL    HW235596   8.802   4.276   3.320 -1.2845  0.7420 -2.6196
10902SOL     OW35597   0.320   2.415   4.347 -0.5543  0.0246 -0.3657
10902SOL    HW135598   0.293   2.473   4.418  4.8782  1.0021  1.4074
10902SOL    HW235599   0.313   2.327   4.383 -1.0140  0.2558  0.1182
10903SOL     OW35600   8.143   1.822   8.032 -0.0803  0.3776  0.6714
10903SOL    HW135601   8.109   1.861   7.952  2.2015 -1.3682 -1.2672
10903SOL    HW235602   8.132   1.727   8.020  2.4317 -0.0659  1.3325
10904SOL     OW35603   1.913   8.001   0.747  0.1476 -0.0046  0.5583
10904SOL    HW135604   1.827   7.971   0.717 -0.5698 -0.5001  2.9636
10904SOL    HW235605   1.949   8.048   0.671 -1.2024 -1.8079 -1.3128
10905SOL     OW35606   7.505   2.264   8.309  0.4076  0.0735  0.4704
10905SOL    HW135607   7.437   2.303   8.365 -0.6772  2.1786 -2.1013
10905SOL    HW235608   7.457   2.199   8.257  1.1596 -0.9729  1.0418
10906SOL     OW35609   2.757   8.505   6.531  0.1683  0.1159  0.4369
10906SOL    HW135610   2.828   8.504   6.596 -0.0403 -0.8032  0.6618
10906SOL    HW235611   2.762   8.420   6.488 -3.4170 -1.8805  3.3587
10907SOL     OW35612   2.930   4.149   7.890  0.3686  0.7368 -0.0656
10907SOL    HW135613   2.891   4.068   7.856  1.4494 -0.7156  1.9263
10907SOL    HW235614   2.878   4.170   7.967  0.5865  1.4945 -0.1218
10908SOL     OW35615   0.816   5.572   3.843 -0.0765  0.5881  0.1198
10908SOL    HW135616   0.865   5.648   3.813  1.8363 -0.7150 -0.2143
10908SOL    HW235617   0.836   5.566   3.936 -0.1716  0.4351  0.1307
10909SOL     OW35618   1.278   5.366   6.122  0.8883 -0.0794 -0.3885
10909SOL    HW135619   1.273   5.312   6.201  1.0362  0.7028  0.1648
10909SOL    HW235620   1.238   5.312   6.053  1.1981 -0.9632  0.1099
10910SOL     OW35621   7.619   2.316   0.816  1.0336  0.1700  0.1025
10910SOL    HW135622   7.703   2.272   0.798  0.3140 -0.8031 -1.0720
10910SOL    HW235623   7.554   2.247   0.807  0.1077  0.8623  1.2579
10911SOL     OW35624   2.947   3.665   3.176 -0.5429  0.6547  0.4042
10911SOL    HW135625   2.923   3.586   3.129  0.2544 -0.7795  2.2778
10911SOL    HW235626   2.974   3.635   3.262  1.1390  2.8391  0.7413
10912SOL     OW35627   8.174   6.392   6.991 -0.5834  0.1409 -0.1467
10912SOL    HW135628   8.207   6.478   6.964  0.7456 -0.3338 -0.0863
10912SOL    HW235629   8.125   6.360   6.915 -1.0213  0.9082 -0.1942
10913SOL     OW35630   5.659   1.887   1.460 -0.2490 -0.1148  0.0489
10913SOL    HW135631   5.741   1.936   1.458  0.1803 -0.7533  1.1601
10913SOL    HW235632   5.601   1.935   1.401  0.9438  0.3016 -0.8255
10914SOL     OW35633   1.637   3.402   1.906  0.6105  0.0612  0.0113
10914SOL    HW135634   1.606   3.332   1.848 -0.8399 -0.8642  1.8315
10914SOL    HW235635   1.655   3.475   1.847  2.5300 -1.9009 -2.0140
10915SOL     OW35636   7.638   0.676   5.810  0.2171 -0.5878  0.1438
10915SOL    HW135637   7.634   0.714   5.722 -2.6344 -0.6848  0.1489
10915SOL    HW235638   7.632   0.581   5.795 -0.1800 -0.6081  0.4227
10916SOL     OW35639   3.906   3.432   0.395 -0.0788 -0.1122  0.0636
10916SOL    HW135640   3.881   3.507   0.341 -2.3271 -0.7299  0.1714
10916SOL    HW235641   3.894   3.356   0.337 -1.1404 -0.6589  0.9666
10917SOL     OW35642   3.860   5.090   2.278  0.3343  0.1530 -0.2049
10917SOL    HW135643   3.940   5.111   2.325  0.3661  0.4808 -0.4037
10917SOL    HW235644   3.793   5.146   2.317 -0.6889 -2.6789  2.5708
10918SOL     OW35645   1.708   5.447   2.894  0.1212  0.0813 -0.0642
10918SOL    HW135646   1.735   5.424   2.805  0.6490  1.5720 -0.3186
10918SOL    HW235647   1.695   5.363   2.938  0.9286 -0.6782 -1.2242
10919SOL     OW35648   4.183   7.128   3.476 -0.1880 -0.0362  0.0265
10919SOL    HW135649   4.136   7.204   3.511 -0.8398 -0.2190 -0.4346
10919SOL    HW235650   4.196   7.149   3.383  2.6682  1.0382  0.5666
10920SOL     OW35651   7.424   7.081   3.621  0.1544  0.4150  0.1335
10920SOL    HW135652   7.407   7.091   3.714 -0.5773  1.1304 -0.0667
10920SOL    HW235653   7.495   7.143   3.603 -0.0962  0.7024  0.1146
10921SOL     OW35654   0.557   8.618   6.528 -0.2941 -0.0107  0.1760
10921SOL    HW135655   0.560   8.534   6.482 -1.4970  0.4805 -0.8693
10921SOL    HW235656   0.646   8.652   6.522 -0.0331 -0.7559 -0.2711
10922SOL     OW35657   6.447   2.526   7.930 -0.1827 -0.0092 -0.2903
10922SOL    HW135658   6.361   2.500   7.897 -0.6523  0.0878  0.8224
10922SOL    HW235659   6.508   2.499   7.861 -1.0224 -0.7703 -0.7579
10923SOL     OW35660   5.692   2.744   2.625  0.1320 -0.3592  0.2652
10923SOL    HW135661   5.724   2.660   2.658  1.4803 -0.3152 -0.8353
10923SOL    HW235662   5.748   2.763   2.550 -1.4777  0.5434 -0.7717
10924SOL     OW35663   1.304   7.908   5.433 -0.4083  0.0345 -0.4880
10924SOL    HW135664   1.224   7.948   5.400  0.4656  1.3167 -1.1758
10924SOL    HW235665   1.351   7.980   5.475 -0.0129 -0.8860  0.7053
10925SOL     OW35666   8.768   2.874   0.081  0.1606  0.0781  0.5116
10925SOL    HW135667   8.686   2.890   0.035  0.7058  0.5948 -0.3034
10925SOL    HW235668   8.780   2.779   0.076 -1.1547 -0.2235  2.0205
10926SOL     OW35669   2.329   0.864   7.995  0.2504  0.0376 -0.5647
10926SOL    HW135670   2.252   0.893   7.946 -1.3967 -1.6971  0.8346
10926SOL    HW235671   2.313   0.892   8.085  1.2627 -0.3471 -0.2438
10927SOL     OW35672   6.028   0.083   3.763 -0.3208 -0.4354  0.3611
10927SOL    HW135673   5.948   0.135   3.769  0.1782  0.6688 -1.6573
10927SOL    HW235674   6.019   0.035   3.681  1.1691 -0.1505  0.0093
10928SOL     OW35675   2.644   3.408   5.574 -0.0753 -0.1640 -0.2862
10928SOL    HW135676   2.599   3.429   5.656 -0.0112  0.5290 -0.4242
10928SOL    HW235677   2.736   3.427   5.591 -0.0890  0.1767 -0.5802
10929SOL     OW35678   1.723   0.694   7.924 -0.1483 -0.1189  0.1114
10929SOL    HW135679   1.678   0.768   7.883 -1.1107 -1.0139 -0.4968
10929SOL    HW235680   1.769   0.651   7.851 -2.8899 -2.4629 -0.3971
10930SOL     OW35681   3.573   7.342   4.995  0.2562  0.5058  0.0032
10930SOL    HW135682   3.619   7.259   4.980 -0.6608  0.4086 -3.0154
10930SOL    HW235683   3.494   7.317   5.042 -0.0439 -0.3795 -0.9415
10931SOL     OW35684   5.618   3.998   5.363  0.0142 -0.0412 -0.0517
10931SOL    HW135685   5.626   4.035   5.451  2.5127  1.1138 -0.6774
10931SOL    HW235686   5.672   3.920   5.365  1.1499  0.6892 -0.8625
10932SOL     OW35687   6.479   4.882   9.195  0.2835 -0.7219 -0.2369
10932SOL    HW135688   6.553   4.831   9.226  0.5093 -0.6429 -0.6435
10932SOL    HW235689   6.499   4.900   9.104  0.4254  0.4884  0.0208
10933SOL     OW35690   8.233   6.569   6.433 -0.2093 -0.0975 -0.2084
10933SOL    HW135691   8.201   6.627   6.363 -1.8567 -0.4631  0.2157
10933SOL    HW235692   8.155   6.527   6.468  0.9550 -3.1229 -0.9238
10934SOL     OW35693   2.476   7.833   9.174 -0.4667  0.2092  0.3163
10934SOL    HW135694   2.562   7.835   9.216 -0.1492  0.4815 -0.3401
10934SOL    HW235695   2.421   7.890   9.229 -0.4548 -0.5864  1.1930
10935SOL     OW35696   8.847   0.212   5.593  0.0192 -0.2119 -0.4263
10935SOL    HW135697   8.758   0.246   5.589 -0.2563 -0.9985 -1.1231
10935SOL    HW235698   8.856   0.177   5.681 -0.3435 -0.0956 -0.3423
10936SOL     OW35699   1.617   5.010   8.214  0.2917  0.1230 -0.1932
10936SOL    HW135700   1.685   5.067   8.180 -0.2950  0.1069 -1.4299
10936SOL    HW235701   1.537   5.038   8.171  0.2710 -2.8164 -2.3913
10937SOL     OW35702   5.087   1.964   3.747  0.0408  0.8174 -0.2797
10937SOL    HW135703   5.005   1.998   3.782 -0.2419 -1.7797  1.9202
10937SOL    HW235704   5.065   1.877   3.714  1.6944  0.5622 -0.8119
10938SOL     OW35705   1.442   2.640   1.973  0.2565 -0.3430  0.4995
10938SOL    HW135706   1.505   2.700   2.012  0.3483  0.5171 -0.8996
10938SOL    HW235707   1.472   2.553   2.000  2.2038  0.0254 -0.3101
10939SOL     OW35708   2.693   5.056   8.347 -0.0461  0.1705  0.3224
10939SOL    HW135709   2.624   4.993   8.365  0.0211 -0.1247 -0.4490
10939SOL    HW235710   2.753   5.047   8.421  0.3126 -1.1489 -0.1165
10940SOL     OW35711   1.679   8.372   1.702  0.6125 -0.2661 -0.1419
10940SOL    HW135712   1.760   8.420   1.715  0.9942 -0.9578  0.0974
10940SOL    HW235713   1.610   8.434   1.724  1.1285 -0.1955  1.4029
10941SOL     OW35714   6.120   3.761   5.364 -0.4512 -0.0838 -0.0627
10941SOL    HW135715   6.159   3.799   5.444 -0.0884 -0.3347 -0.1157
10941SOL    HW235716   6.193   3.716   5.322 -0.3328  1.1284 -1.2059
10942SOL     OW35717   0.499   5.516   4.884 -0.4116 -0.0667 -0.0635
10942SOL    HW135718   0.527   5.534   4.974  0.2453  0.9725 -0.4637
10942SOL    HW235719   0.527   5.426   4.868 -0.3694 -0.1969  0.7024
10943SOL     OW35720   5.377   4.842   3.675 -0.3763 -0.0242  0.2631
10943SOL    HW135721   5.431   4.860   3.598 -0.2354 -0.6376  0.2102
10943SOL    HW235722   5.391   4.749   3.692 -0.6703  0.0335  0.8292
10944SOL     OW35723   6.162   6.605   7.040 -0.0079 -0.0600 -1.0193
10944SOL    HW135724   6.160   6.691   7.000 -1.8857 -0.1359 -1.2218
10944SOL    HW235725   6.189   6.621   7.130 -0.6394  0.8050 -0.9682
10945SOL     OW35726   5.042   4.188   6.174 -0.0131 -0.0816 -0.2694
10945SOL    HW135727   5.128   4.202   6.133 -0.4253 -0.7064 -1.3806
10945SOL    HW235728   5.059   4.197   6.268  1.5259 -1.4089 -0.3763
10946SOL     OW35729   9.194   5.892   5.121 -0.0301 -0.5368 -0.2019
10946SOL    HW135730   9.224   5.802   5.134 -1.9044 -1.1425  0.2024
10946SOL    HW235731   9.195   5.930   5.209  1.8375  0.2441 -0.5129
10947SOL     OW35732   5.852   1.388   2.869 -0.4565  0.0381 -0.3164
10947SOL    HW135733   5.760   1.385   2.843 -0.4796  1.3985 -0.4207
10947SOL    HW235734   5.882   1.475   2.843  0.8839 -0.4130 -0.3398
10948SOL     OW35735   0.980   7.314   1.056 -0.0695 -0.2433 -0.0807
10948SOL    HW135736   1.028   7.259   0.993 -2.3686 -1.2123 -1.1032
10948SOL    HW235737   1.001   7.404   1.031  0.7358 -0.6291 -0.8535
10949SOL     OW35738   1.679   4.734   0.893 -0.5296  0.6321  0.5070
10949SOL    HW135739   1.695   4.825   0.867  0.5731  0.7266  1.4276
10949SOL    HW235740   1.700   4.682   0.815 -1.8634  1.1854 -0.2595
10950SOL     OW35741   7.425   6.159   7.294 -0.5591 -0.3293  0.3727
10950SOL    HW135742   7.341   6.122   7.265 -0.0489 -1.6520  0.5315
10950SOL    HW235743   7.421   6.250   7.265 -2.7824  0.1631  1.8997
10951SOL     OW35744   3.334   9.182   8.366  0.8068 -0.0673  0.2285
10951SOL    HW135745   3.320   9.149   8.278  0.7681  0.1544  0.1520
10951SOL    HW235746   3.288   9.120   8.423  1.0579 -0.3602  0.1139
10952SOL     OW35747   8.662   7.733   4.348 -0.0070  0.5604 -0.2541
10952SOL    HW135748   8.648   7.639   4.339 -0.4765  0.2817  2.3946
10952SOL    HW235749   8.735   7.753   4.289  0.4315 -1.5706 -0.5056
10953SOL     OW35750   1.618   3.362   3.124  0.0615  0.0171  0.3885
10953SOL    HW135751   1.546   3.345   3.184 -0.1228  0.5571  0.3198
10953SOL    HW235752   1.591   3.438   3.074 -0.5191 -1.3780 -1.5552
10954SOL     OW35753   1.102   3.008   1.197 -0.1132 -0.0308  0.0643
10954SOL    HW135754   1.099   2.980   1.289 -1.3148 -1.5973 -0.3995
10954SOL    HW235755   1.010   3.016   1.172  0.0342 -3.0192 -1.9254
10955SOL     OW35756   1.676   7.079   6.123  0.2920  0.0849 -0.4608
10955SOL    HW135757   1.646   7.128   6.046  1.0358  2.3444  0.5701
10955SOL    HW235758   1.600   7.031   6.153 -0.1056 -0.5658 -2.3707
10956SOL     OW35759   8.126   4.385   1.031 -0.3530 -0.2747 -0.5610
10956SOL    HW135760   8.158   4.400   0.942  0.7908 -0.1122 -0.1381
10956SOL    HW235761   8.077   4.303   1.025 -1.4812  0.4517 -1.6236
10957SOL     OW35762   7.582   9.026   3.940 -0.0868 -0.0664  0.0151
10957SOL    HW135763   7.613   9.098   3.886 -1.8955  1.4174  0.8792
10957SOL    HW235764   7.591   9.058   4.030 -3.1014  0.1194  0.3587
10958SOL     OW35765   4.807   3.259   1.365 -0.1922 -0.9387  0.4656
10958SOL    HW135766   4.865   3.277   1.291 -0.6767  0.2307  0.3527
10958SOL    HW235767   4.740   3.200   1.329 -2.3809  2.1991 -1.0377
10959SOL     OW35768   3.065   1.450   0.688 -0.2864  0.0145  0.0223
10959SOL    HW135769   2.998   1.498   0.737 -1.3162 -1.3518 -0.0077
10959SOL    HW235770   3.036   1.454   0.597 -0.2814 -0.5098 -0.0040
10960SOL     OW35771   7.878   3.668   6.786  0.2529 -0.1288  0.0408
10960SOL    HW135772   7.915   3.593   6.831  0.9621 -0.6260 -1.3013
10960SOL    HW235773   7.942   3.690   6.718  0.0735  1.7090  0.4055
10961SOL     OW35774   7.954   9.034   4.283 -0.0892 -0.2305  0.7482
10961SOL    HW135775   7.874   9.075   4.315 -1.3295 -2.0518  0.2045
10961SOL    HW235776   7.966   9.070   4.195 -0.9235 -0.6860  0.4320
10962SOL     OW35777   1.039   5.249   2.681 -0.4920 -0.1734 -0.2027
10962SOL    HW135778   1.121   5.199   2.689 -1.2172 -1.3962 -0.1784
10962SOL    HW235779   1.051   5.325   2.738  0.6072 -0.3537 -0.1737
10963SOL     OW35780   1.946   1.768   3.193  0.4830 -0.0151  0.1974
10963SOL    HW135781   1.905   1.838   3.245  0.5727  0.5636 -0.4929
10963SOL    HW235782   1.909   1.779   3.105  1.0345 -0.3935 -0.0839
10964SOL     OW35783   3.814   7.231   7.682  0.0431 -0.3688  0.1861
10964SOL    HW135784   3.774   7.158   7.730 -0.9210 -0.2686 -0.4443
10964SOL    HW235785   3.876   7.269   7.743  0.3431 -1.5333  0.6368
10965SOL     OW35786   9.203   3.379   9.078 -0.3380 -0.0739  0.2694
10965SOL    HW135787   9.127   3.437   9.073 -0.5039 -0.3556 -0.7630
10965SOL    HW235788   9.166   3.291   9.080 -0.1402 -0.1922  3.0420
10966SOL     OW35789   7.906   5.307   2.264  0.4579 -0.3181 -0.0648
10966SOL    HW135790   7.874   5.263   2.185 -0.4119 -0.4382  0.3414
10966SOL    HW235791   7.993   5.339   2.240 -0.6604  1.6519 -1.8458
10967SOL     OW35792   8.902   3.324   4.437  0.2697 -0.4826  0.0084
10967SOL    HW135793   8.827   3.379   4.415  0.7608 -0.2217 -1.0579
10967SOL    HW235794   8.864   3.236   4.445 -0.2840 -0.2247  0.3362
10968SOL     OW35795   4.398   6.985   5.215 -0.5178  0.7470 -0.4773
10968SOL    HW135796   4.489   6.980   5.244 -0.4551  1.7812 -0.4507
10968SOL    HW235797   4.357   7.047   5.276 -2.1331 -2.1933  1.6901
10969SOL     OW35798   3.278   5.550   3.322  0.2211  0.5732 -0.5426
10969SOL    HW135799   3.252   5.493   3.394 -1.2181 -0.4297 -1.7972
10969SOL    HW235800   3.293   5.635   3.363  0.7609 -0.2877  1.1151
10970SOL     OW35801   0.084   1.531   2.675 -0.1468 -0.2403 -0.7025
10970SOL    HW135802   0.086   1.625   2.657 -0.5223 -0.0750  0.0824
10970SOL    HW235803   0.154   1.517   2.738 -1.6884 -0.0295  1.1579
10971SOL     OW35804   1.630   8.307   3.639 -0.0063  0.0153  0.0992
10971SOL    HW135805   1.631   8.297   3.734  0.3179 -0.6650  0.0290
10971SOL    HW235806   1.710   8.357   3.619  0.5402 -0.8470  0.0858
10972SOL     OW35807   7.788   1.814   1.128  0.0467 -0.3051  0.3063
10972SOL    HW135808   7.826   1.782   1.210  1.0323 -0.5589 -0.2300
10972SOL    HW235809   7.711   1.864   1.155  1.1934  0.8860  1.5009
10973SOL     OW35810   0.865   2.314   1.619  0.1761  0.0607  0.3765
10973SOL    HW135811   0.780   2.357   1.611  0.8123  1.4877  0.9068
10973SOL    HW235812   0.858   2.236   1.564 -0.6317  1.4795 -1.6278
10974SOL     OW35813   7.875   0.121   5.510 -0.2173  0.0587 -0.2371
10974SOL    HW135814   7.872   0.205   5.466 -3.5713  0.7789  1.0773
10974SOL    HW235815   7.931   0.067   5.454  1.7054  2.9463 -1.3478
10975SOL     OW35816   5.953   3.003   8.294 -0.4790  0.2674 -0.1855
10975SOL    HW135817   5.904   2.979   8.372 -0.7871  1.1969 -0.0787
10975SOL    HW235818   5.896   2.976   8.221  0.1702 -1.3568 -0.1269
10976SOL     OW35819   4.514   2.733   0.221 -0.7808  0.5993  0.5683
10976SOL    HW135820   4.496   2.819   0.183  1.4288 -0.2848 -2.9845
10976SOL    HW235821   4.607   2.735   0.243 -0.3487 -1.2169 -0.8512
10977SOL     OW35822   9.224   2.053   5.152 -0.2172 -0.1922  0.4388
10977SOL    HW135823   9.302   2.108   5.156 -0.7224  0.5600  0.3672
10977SOL    HW235824   9.157   2.110   5.113 -0.6350 -1.0209 -0.0992
10978SOL     OW35825   6.943   5.896   1.298 -0.9641  0.2163 -0.1247
10978SOL    HW135826   6.952   5.803   1.279 -0.7773  0.1024  0.4900
10978SOL    HW235827   6.852   5.916   1.276 -1.1233 -0.2089  0.1277
10979SOL     OW35828   5.439   6.691   4.875 -0.4931 -0.1462 -0.7031
10979SOL    HW135829   5.469   6.781   4.890 -1.1771 -0.1302  0.7910
10979SOL    HW235830   5.344   6.699   4.863 -0.1337 -0.1740 -5.4583
10980SOL     OW35831   6.430   6.628   2.654  0.1797  0.2095  0.2913
10980SOL    HW135832   6.510   6.680   2.661 -0.0014  0.6140 -0.5323
10980SOL    HW235833   6.360   6.694   2.650 -0.0816 -0.1088 -0.4017
10981SOL     OW35834   3.907   2.561   2.403  0.2494  0.4478  0.2104
10981SOL    HW135835   3.916   2.523   2.315  1.6864  0.9530  0.1197
10981SOL    HW235836   3.921   2.488   2.463  0.3586  0.3188  0.0270
10982SOL     OW35837   8.976   6.585   5.038 -0.1444 -0.1965  0.5581
10982SOL    HW135838   8.979   6.541   5.123 -0.5586  0.9184  1.1647
10982SOL    HW235839   9.067   6.593   5.012 -0.0765 -2.8764 -0.3805
10983SOL     OW35840   7.929   2.224   6.135  0.1770 -0.8467 -0.1760
10983SOL    HW135841   7.857   2.161   6.133 -0.5338 -0.1085  0.9237
10983SOL    HW235842   7.892   2.304   6.096  0.3588 -0.4325  0.4893
10984SOL     OW35843   6.286   3.607   1.260  0.3086  0.1603  0.1995
10984SOL    HW135844   6.252   3.521   1.235 -0.1503  0.2161  0.6208
10984SOL    HW235845   6.300   3.601   1.355  0.4503  0.4879  0.2010
10985SOL     OW35846   1.954   0.128   5.618 -0.0759 -0.6059 -0.6238
10985SOL    HW135847   2.031   0.181   5.636 -0.7204 -0.3367  1.7471
10985SOL    HW235848   1.916   0.166   5.538  0.5473  1.2590 -0.0819
10986SOL     OW35849   4.852   0.556   1.021  0.3017  0.0317  0.0779
10986SOL    HW135850   4.825   0.616   0.951  1.1642  0.2555 -0.0725
10986SOL    HW235851   4.772   0.539   1.070 -0.4210 -0.4927 -1.2303
10987SOL     OW35852   1.748   8.944   8.170 -0.0357 -0.5221 -0.0442
10987SOL    HW135853   1.808   8.972   8.239  1.1692 -0.8939 -0.9074
10987SOL    HW235854   1.746   9.017   8.109  1.8714 -1.6022 -1.4971
10988SOL     OW35855   3.983   1.423   8.405 -0.1172  0.7486  0.1929
10988SOL    HW135856   4.051   1.422   8.472 -0.2814  0.9166  0.3638
10988SOL    HW235857   3.903   1.446   8.453 -0.5056 -0.5328  0.1945
10989SOL     OW35858   7.764   6.783   2.519 -0.1799  0.3768  0.3031
10989SOL    HW135859   7.672   6.762   2.507 -0.2797  1.3544 -0.7685
10989SOL    HW235860   7.786   6.747   2.606 -2.0761  1.8510  1.4673
10990SOL     OW35861   1.040   6.650   3.655  0.1969  0.0608 -0.1564
10990SOL    HW135862   0.982   6.575   3.666 -1.1898  1.2423  1.0659
10990SOL    HW235863   1.062   6.651   3.562 -1.4781 -0.6250 -0.5836
10991SOL     OW35864   8.419   2.687   1.369 -0.0997  0.1430  0.3874
10991SOL    HW135865   8.492   2.625   1.371 -1.2508 -1.4775 -2.2548
10991SOL    HW235866   8.436   2.740   1.291 -0.6739  1.1816  0.9515
10992SOL     OW35867   4.367   4.630   7.174 -0.2573  0.2652 -0.1054
10992SOL    HW135868   4.417   4.627   7.092 -2.4989  0.4765 -1.5616
10992SOL    HW235869   4.433   4.644   7.242  1.7433 -0.4792 -1.7921
10993SOL     OW35870   6.554   8.002   3.904 -0.4836 -0.0075  0.0700
10993SOL    HW135871   6.563   8.075   3.842 -0.7358 -0.5170 -0.5750
10993SOL    HW235872   6.467   8.015   3.943 -0.9685 -0.5217 -0.7965
10994SOL     OW35873   4.403   7.643   0.690 -0.0134  0.0291  0.3339
10994SOL    HW135874   4.420   7.689   0.608 -0.4410  3.7878  2.1585
10994SOL    HW235875   4.398   7.550   0.665 -2.5677  1.1293 -4.2485
10995SOL     OW35876   1.813   6.144   5.269 -0.5092  0.4897 -0.3155
10995SOL    HW135877   1.756   6.182   5.203  0.1931 -1.4060 -2.1296
10995SOL    HW235878   1.780   6.055   5.281  0.9409 -0.0430 -0.0446
10996SOL     OW35879   5.645   6.344   1.941 -0.2738 -0.1588 -0.4095
10996SOL    HW135880   5.632   6.427   1.894 -1.3670  0.9631  1.6905
10996SOL    HW235881   5.567   6.292   1.921 -0.7936  0.3638  0.1940
10997SOL     OW35882   3.968   5.246   3.220  0.0930 -0.2918  0.3217
10997SOL    HW135883   3.890   5.231   3.273 -0.1605  0.9265  0.3199
10997SOL    HW235884   3.970   5.341   3.206  2.2919 -0.0872  1.4742
10998SOL     OW35885   2.622   1.918   4.815  0.3786  0.6429  0.3725
10998SOL    HW135886   2.593   1.835   4.777 -0.7654  1.4473 -0.5933
10998SOL    HW235887   2.552   1.942   4.875  1.3418  0.2706  1.6735
10999SOL     OW35888   6.496   2.755   1.361 -0.1325 -0.3174 -0.1487
10999SOL    HW135889   6.455   2.734   1.445 -1.6459  2.6762 -0.0329
10999SOL    HW235890   6.453   2.696   1.299 -1.7642  0.0168  0.6103
11000SOL     OW35891   7.232   2.632   5.136 -0.1958 -0.1059 -0.2316
11000SOL    HW135892   7.179   2.682   5.198 -1.1359 -0.8851 -0.3821
11000SOL    HW235893   7.322   2.660   5.153 -0.4310 -0.2789  1.4628
11001SOL     OW35894   6.479   0.178   1.441  0.9119 -0.1301  0.6691
11001SOL    HW135895   6.490   0.092   1.402 -2.1684 -1.0663  1.5261
11001SOL    HW235896   6.565   0.220   1.434  2.3272 -2.9731 -0.3963
11002SOL     OW35897   1.742   7.391   4.042 -0.3289 -0.2262  0.2325
11002SOL    HW135898   1.833   7.369   4.022 -1.0161 -1.7606 -1.4428
11002SOL    HW235899   1.725   7.350   4.127  0.3909 -0.3831  0.3018
11003SOL     OW35900   5.302   5.949   1.886 -0.6805  0.1420 -0.2590
11003SOL    HW135901   5.216   5.923   1.918 -0.2087 -5.4338 -2.3428
11003SOL    HW235902   5.363   5.898   1.939  0.7551 -1.0676 -2.8720
11004SOL     OW35903   4.716   9.189   1.585  0.1871  0.0298 -0.2537
11004SOL    HW135904   4.634   9.237   1.595  0.2119 -0.1162  0.7796
11004SOL    HW235905   4.737   9.196   1.492 -1.3883 -0.5621 -0.6953
11005SOL     OW35906   2.465   5.655   1.533 -0.3248 -0.2847  0.1652
11005SOL    HW135907   2.484   5.735   1.583 -0.2049 -0.4141  0.3288
11005SOL    HW235908   2.376   5.632   1.559 -0.1740 -0.4902  0.5123
11006SOL     OW35909   2.007   8.436   8.677 -0.9729  0.1530 -0.2322
11006SOL    HW135910   2.032   8.434   8.584  0.2510 -0.2406  0.0835
11006SOL    HW235911   1.983   8.346   8.698  0.4493 -0.1369  0.2497
11007SOL     OW35912   7.160   5.183   7.301  0.3379 -0.2681 -0.1414
11007SOL    HW135913   7.085   5.183   7.241  0.1121  0.0943  0.1341
11007SOL    HW235914   7.194   5.094   7.296  1.6202  0.2716 -2.3912
11008SOL     OW35915   6.112   1.526   4.600  0.0556  0.8803  0.2391
11008SOL    HW135916   6.017   1.520   4.606  0.0437  1.1388  0.3444
11008SOL    HW235917   6.134   1.606   4.647  0.6719 -0.9950  3.3964
11009SOL     OW35918   8.942   1.911   2.009  0.8110  0.1656  0.5195
11009SOL    HW135919   8.953   1.825   2.051  0.9417 -1.0598 -1.8520
11009SOL    HW235920   9.029   1.949   2.010  1.0196 -0.3029  0.4251
11010SOL     OW35921   8.915   2.596   7.387 -0.4433  0.1774 -0.0177
11010SOL    HW135922   9.003   2.634   7.390 -0.3896 -0.0023  1.3819
11010SOL    HW235923   8.871   2.632   7.464 -1.5743  0.1915 -0.6450
11011SOL     OW35924   8.754   3.403   6.078  0.4200  0.0606  0.6365
11011SOL    HW135925   8.695   3.328   6.079  1.4396 -0.7528  1.7944
11011SOL    HW235926   8.794   3.405   6.165  0.7577  1.6826  0.4923
11012SOL     OW35927   2.248   5.736   8.573 -0.7943  0.3788 -0.0616
11012SOL    HW135928   2.339   5.760   8.554 -0.4514  0.5621  1.6095
11012SOL    HW235929   2.240   5.646   8.540 -0.0349  0.4113 -0.3587
11013SOL     OW35930   3.238   4.944   5.077  0.1796  0.3417  0.0606
11013SOL    HW135931   3.307   5.009   5.066 -0.2130  0.7743  0.1477
11013SOL    HW235932   3.238   4.895   4.994  0.9512 -0.0212  0.2620
11014SOL     OW35933   2.859   7.249   4.954  0.7922  0.2772  0.2828
11014SOL    HW135934   2.915   7.278   4.882  0.2141  1.3669  0.2511
11014SOL    HW235935   2.796   7.320   4.966 -2.0587 -1.7737 -1.1955
11015SOL     OW35936   0.714   0.830   7.662  0.0426  0.4377  0.2071
11015SOL    HW135937   0.630   0.876   7.652 -0.2589 -0.3921 -1.4659
11015SOL    HW235938   0.691   0.747   7.703  0.0742  0.3271  0.0038
11016SOL     OW35939   5.248   6.287   0.100  0.1287 -0.0667 -0.3699
11016SOL    HW135940   5.251   6.344   0.023  2.4865 -0.2888 -0.5112
11016SOL    HW235941   5.338   6.256   0.110 -0.2565 -0.5541  2.1192
11017SOL     OW35942   5.138   1.439   8.093  0.9990 -1.1378 -0.4257
11017SOL    HW135943   5.057   1.487   8.077  1.5206 -0.1611 -0.2418
11017SOL    HW235944   5.131   1.410   8.184  0.7233 -1.3262 -0.5059
11018SOL     OW35945   4.458   0.358   6.746 -0.3313  0.7858 -0.4235
11018SOL    HW135946   4.496   0.422   6.686  1.6997  1.0445  1.0263
11018SOL    HW235947   4.525   0.290   6.754 -0.4528  0.8590  1.6550
11019SOL     OW35948   3.429   1.821   5.660  0.6389  0.2429  0.0486
11019SOL    HW135949   3.476   1.852   5.582 -1.7136  0.1872 -1.5115
11019SOL    HW235950   3.400   1.733   5.636 -1.6646  0.9088  0.2364
11020SOL     OW35951   2.039   4.091   6.391  0.0541 -0.6519 -0.3668
11020SOL    HW135952   1.998   4.167   6.432 -0.5727 -1.2189  0.0696
11020SOL    HW235953   2.125   4.085   6.434 -0.1099 -0.5199 -0.0201
11021SOL     OW35954   6.186   2.693   3.393 -0.5894 -0.0519 -0.1103
11021SOL    HW135955   6.207   2.783   3.420 -0.0180 -0.2988  0.2868
11021SOL    HW235956   6.091   2.691   3.386 -0.6013  0.5994 -0.1681
11022SOL     OW35957   5.408   7.782   0.526 -0.0841  0.1969 -0.0084
11022SOL    HW135958   5.345   7.854   0.520  0.9324  1.2764  1.4558
11022SOL    HW235959   5.427   7.775   0.620 -0.7636 -2.5736 -0.0068
11023SOL     OW35960   0.390   4.601   0.585 -0.6665  0.7392 -0.5146
11023SOL    HW135961   0.395   4.549   0.665  2.9126 -0.2734 -1.2087
11023SOL    HW235962   0.348   4.543   0.521  1.3995 -0.6531 -0.7193
11024SOL     OW35963   0.221   4.544   1.405 -0.3810  0.4841 -0.2751
11024SOL    HW135964   0.167   4.501   1.338  1.3760 -1.1466 -0.7527
11024SOL    HW235965   0.195   4.636   1.402 -4.1768 -0.4192  0.6416
11025SOL     OW35966   4.588   6.221   1.003  0.4329  0.2725  0.3069
11025SOL    HW135967   4.562   6.280   0.932  1.0983  0.5221  0.2644
11025SOL    HW235968   4.510   6.213   1.057  0.0765  0.5041 -0.1630
11026SOL     OW35969   6.449   0.470   7.277  0.2245  0.3841 -0.0711
11026SOL    HW135970   6.427   0.518   7.358 -1.6923 -1.2539  0.4501
11026SOL    HW235971   6.428   0.531   7.207  0.1739  1.1917  0.6267
11027SOL     OW35972   8.780   4.154   5.760 -0.2020 -0.2979 -0.1514
11027SOL    HW135973   8.865   4.184   5.729 -1.0654  1.9053 -0.5452
11027SOL    HW235974   8.754   4.085   5.698 -0.1197  1.2744 -2.0175
11028SOL     OW35975   0.427   1.760   7.744  0.7062  0.3360  0.1472
11028SOL    HW135976   0.427   1.833   7.805  0.8987  0.4683 -0.0107
11028SOL    HW235977   0.349   1.709   7.767 -0.2406  1.3626 -0.6848
11029SOL     OW35978   2.743   8.122   0.095  0.3516  0.0612  0.1386
11029SOL    HW135979   2.812   8.183   0.122 -0.8740  2.1606 -1.2713
11029SOL    HW235980   2.750   8.119  -0.000 -0.7206 -0.6923  0.0702
11030SOL     OW35981   1.333   8.961   6.197 -0.2819  0.3500  0.0817
11030SOL    HW135982   1.354   9.048   6.161 -0.2867  1.5616  2.7723
11030SOL    HW235983   1.385   8.900   6.145 -0.0131  1.9736 -1.6653
11031SOL     OW35984   2.327   7.991   0.096 -0.2991 -0.0420  0.1846
11031SOL    HW135985   2.279   7.949   0.168 -1.7050 -0.3412 -0.8883
11031SOL    HW235986   2.399   8.037   0.139 -0.3333 -1.2935  1.6554
11032SOL     OW35987   7.836   7.415   3.638  0.1846 -0.4293  0.3899
11032SOL    HW135988   7.887   7.471   3.579  1.6046 -3.4397 -1.4550
11032SOL    HW235989   7.894   7.399   3.712 -0.1331  0.3023  0.8057
11033SOL     OW35990   8.157   4.683   3.181  0.2533  0.4109  0.0017
11033SOL    HW135991   8.175   4.725   3.096  3.3700 -0.1683  0.2509
11033SOL    HW235992   8.242   4.682   3.225 -0.8340 -1.3049  2.2433
11034SOL     OW35993   7.733   0.498   0.305 -0.0604 -0.0289 -0.1274
11034SOL    HW135994   7.692   0.566   0.251  1.3886  0.6064 -0.4809
11034SOL    HW235995   7.820   0.487   0.267 -0.3383 -2.2975 -0.2407
11035SOL     OW35996   0.363   2.924   7.231  0.4420  0.3175 -0.3217
11035SOL    HW135997   0.298   2.947   7.297  0.4495 -1.2532  0.2662
11035SOL    HW235998   0.446   2.920   7.278  0.8645  1.4970 -0.9124
11036SOL     OW35999   4.292   0.589   6.877  0.2726  0.1015 -0.2702
11036SOL    HW136000   4.205   0.593   6.837 -0.1222 -0.9988  0.4173
11036SOL    HW236001   4.305   0.676   6.916 -1.2306 -0.2211  1.0285
11037SOL     OW36002   6.385   0.495   4.872  0.5965 -0.0110  0.3512
11037SOL    HW136003   6.444   0.546   4.817 -0.5999  0.2415 -0.7522
11037SOL    HW236004   6.442   0.430   4.914  1.5844 -0.1048 -1.0527
11038SOL     OW36005   1.945   2.285   1.454  0.0953 -0.2784 -0.0040
11038SOL    HW136006   1.866   2.318   1.410 -0.3587 -1.3325 -0.0110
11038SOL    HW236007   1.926   2.296   1.548  0.2439  0.1150 -0.0146
11039SOL     OW36008   0.777   0.594   2.366 -0.2882 -0.6993  0.4497
11039SOL    HW136009   0.791   0.512   2.414  0.9191 -0.9380 -0.2648
11039SOL    HW236010   0.682   0.606   2.366 -0.4567 -1.9267  0.8576
11040SOL     OW36011   8.016   8.798   8.145  0.1556 -0.1643  0.4924
11040SOL    HW136012   8.105   8.762   8.140  0.1851 -0.0748  0.3760
11040SOL    HW236013   7.977   8.754   8.221  0.3113 -0.1775  0.5655
11041SOL     OW36014   0.636   3.499   0.620 -0.2088  1.0510  0.5399
11041SOL    HW136015   0.639   3.584   0.664  0.0224  1.3909 -0.1110
11041SOL    HW236016   0.546   3.491   0.589 -0.1751  1.1687  0.4070
11042SOL     OW36017   5.790   6.307   6.102 -0.1401  0.7907  0.5162
11042SOL    HW136018   5.727   6.360   6.052 -0.6315  0.7003  1.0231
11042SOL    HW236019   5.750   6.298   6.188 -0.1553 -0.5598  0.3908
11043SOL     OW36020   7.682   4.296   4.280  0.1852 -0.4537 -0.4258
11043SOL    HW136021   7.622   4.358   4.239  1.5443  0.6879 -0.8001
11043SOL    HW236022   7.653   4.291   4.371  0.1952  0.9800 -0.3197
11044SOL     OW36023   4.787   4.802   2.399 -0.1441  0.2647 -0.4793
11044SOL    HW136024   4.862   4.844   2.442  0.3058  0.9586 -1.8950
11044SOL    HW236025   4.806   4.708   2.404 -0.6682  0.2223  1.8226
11045SOL     OW36026   9.042   5.292   2.184 -0.3048 -0.1130 -0.0913
11045SOL    HW136027   9.129   5.330   2.174 -0.3730 -0.3663 -1.9640
11045SOL    HW236028   9.011   5.278   2.094 -1.9469 -0.7803  0.5373
11046SOL     OW36029   4.030   1.994   5.128  0.1152  0.1760  0.0630
11046SOL    HW136030   4.085   1.999   5.049  1.7431  0.8512  1.1742
11046SOL    HW236031   4.087   2.026   5.198  0.0698 -3.7359  2.1947
11047SOL     OW36032   6.523   9.248   8.501  0.1378  0.0813  0.8186
11047SOL    HW136033   6.588   9.212   8.442  0.3383 -0.1029  1.1465
11047SOL    HW236034   6.475   9.172   8.533 -2.3211  0.3913 -1.7594
11048SOL     OW36035   2.144   0.182   7.287 -0.2411 -0.0763 -0.2525
11048SOL    HW136036   2.069   0.124   7.298 -0.2061 -0.1056 -0.1644
11048SOL    HW236037   2.216   0.124   7.264  0.6195 -0.5468  3.1099
11049SOL     OW36038   2.621   2.274   6.314  0.5999  0.1993  0.7862
11049SOL    HW136039   2.603   2.239   6.227  3.0891 -0.4651  0.4527
11049SOL    HW236040   2.591   2.205   6.374  1.2609 -0.5084  0.3233
11050SOL     OW36041   3.489   5.604   0.930  0.4531 -0.2228 -0.1001
11050SOL    HW136042   3.489   5.610   0.834  2.3056  0.0050 -0.1237
11050SOL    HW236043   3.552   5.534   0.949  1.1645  0.6849  0.9809
11051SOL     OW36044   5.537   0.415   0.139  0.4259  0.3493 -0.1807
11051SOL    HW136045   5.557   0.416   0.233 -1.6596  0.2747  0.3177
11051SOL    HW236046   5.536   0.322   0.117  0.5364  0.3511 -0.1958
11052SOL     OW36047   7.006   3.336   3.614  0.1221 -0.0105 -0.5144
11052SOL    HW136048   6.983   3.260   3.561  0.9237  0.1599 -1.1194
11052SOL    HW236049   6.925   3.357   3.662  0.0558 -1.6013  0.1367
11053SOL     OW36050   7.017   1.762   1.797  0.0304  0.3770  0.0740
11053SOL    HW136051   7.024   1.673   1.832 -1.6897  0.4665  0.7254
11053SOL    HW236052   6.926   1.787   1.813  0.3648  2.0909 -0.5185
11054SOL     OW36053   4.329   0.012   4.777  0.4749 -0.0971  0.2174
11054SOL    HW136054   4.396  -0.018   4.715  1.1516  0.6839  0.5528
11054SOL    HW236055   4.246  -0.013   4.737  0.9012  0.4306 -1.0203
11055SOL     OW36056   6.894   6.468   3.928 -0.4642  0.0033  0.1293
11055SOL    HW136057   6.812   6.504   3.961  0.0499  0.5827  0.8313
11055SOL    HW236058   6.904   6.384   3.973  0.0889  0.6556  1.2740
11056SOL     OW36059   0.309   5.245   3.018 -0.6425 -0.5491  0.7627
11056SOL    HW136060   0.346   5.227   3.104  0.1341 -0.4714  0.4497
11056SOL    HW236061   0.315   5.341   3.010  0.5920 -0.6688  0.0560
11057SOL     OW36062   6.856   9.007   8.527 -0.2631 -0.2494  0.7629
11057SOL    HW136063   6.917   9.053   8.468  0.9585 -1.7926  0.7469
11057SOL    HW236064   6.778   8.992   8.473  0.6344 -1.1689 -0.3352
11058SOL     OW36065   2.590   5.036   9.081 -1.1499  0.1282 -0.3239
11058SOL    HW136066   2.543   5.003   9.158  0.9225 -1.5342  0.3433
11058SOL    HW236067   2.650   5.103   9.117 -0.2953 -0.5322 -0.4855
11059SOL     OW36068   8.870   2.998   5.906  0.0600  0.5587  0.2126
11059SOL    HW136069   8.861   2.992   5.811 -0.2460 -2.9000  0.3332
11059SOL    HW236070   8.957   3.037   5.919  0.1134  1.0812 -1.4746
11060SOL     OW36071   2.122   6.611   2.174  0.0271 -0.2089  0.5353
11060SOL    HW136072   2.165   6.525   2.172 -0.6697 -0.5728  0.8720
11060SOL    HW236073   2.187   6.669   2.215  0.5211 -0.5587  0.2627
11061SOL     OW36074   3.740   7.427   4.599 -0.2524 -0.2520 -0.2806
11061SOL    HW136075   3.647   7.405   4.610  0.0144 -1.5575 -0.4589
11061SOL    HW236076   3.764   7.472   4.680 -0.7688 -0.9099  0.2464
11062SOL     OW36077   6.176   0.727   2.439 -0.5081 -0.1438  0.1928
11062SOL    HW136078   6.227   0.673   2.378  0.6793  0.1998  0.8505
11062SOL    HW236079   6.167   0.811   2.395  0.0349 -0.0102  0.3299
11063SOL     OW36080   5.041   1.055   8.362 -0.1664 -0.0866 -0.0668
11063SOL    HW136081   5.032   0.960   8.374  2.6547 -0.3259  1.2104
11063SOL    HW236082   5.128   1.066   8.323 -0.8079  1.9480 -1.0529
11064SOL     OW36083   6.237   2.028   6.649 -0.7923 -0.8701  0.3210
11064SOL    HW136084   6.315   1.976   6.669  0.6088  0.0364 -2.2536
11064SOL    HW236085   6.261   2.117   6.673 -0.7337 -0.4862 -1.0599
11065SOL     OW36086   0.017   2.490   7.227  0.7687  0.2735 -0.1429
11065SOL    HW136087   0.085   2.423   7.234  0.2335 -0.4238 -1.3799
11065SOL    HW236088  -0.059   2.451   7.269  1.2591  1.3317  1.9043
11066SOL     OW36089   8.463   6.834   2.519 -0.3974 -0.0013  0.3161
11066SOL    HW136090   8.372   6.852   2.542 -0.3106  1.5487 -0.4173
11066SOL    HW236091   8.473   6.870   2.431  0.1932 -2.6269 -0.8101
11067SOL     OW36092   7.378   1.108   8.144 -0.3143  0.3354 -0.3995
11067SOL    HW136093   7.326   1.103   8.224 -0.3273  0.6892 -0.3859
11067SOL    HW236094   7.398   1.017   8.122 -2.1249  0.0899 -1.1877
11068SOL     OW36095   6.329   7.262   6.515 -0.5462 -0.2707  0.3103
11068SOL    HW136096   6.299   7.173   6.533  0.9513 -0.9477 -0.3335
11068SOL    HW236097   6.288   7.285   6.431  1.1249 -1.4291 -0.8810
11069SOL     OW36098   6.976   2.571   0.168  0.4222  0.5152 -0.1097
11069SOL    HW136099   6.940   2.654   0.138  0.0967  0.8964  1.2952
11069SOL    HW236100   7.053   2.594   0.219  0.4949 -0.0651  0.0562
11070SOL     OW36101   8.572   1.422   7.009  0.5944 -0.3064  0.4030
11070SOL    HW136102   8.508   1.363   7.050  0.0237  0.2741  0.3617
11070SOL    HW236103   8.522   1.471   6.945  0.4593  1.9950  2.1259
11071SOL     OW36104   4.408   4.585   6.343 -0.8669 -0.4008  0.1727
11071SOL    HW136105   4.358   4.657   6.305 -0.0536 -0.8791 -1.9296
11071SOL    HW236106   4.373   4.577   6.432 -0.8264  2.7210  0.6062
11072SOL     OW36107   3.710   5.829   4.291 -0.1273 -0.0163 -0.2020
11072SOL    HW136108   3.647   5.852   4.222  1.2100  1.2676 -1.0531
11072SOL    HW236109   3.756   5.753   4.257 -0.5873 -0.4014  0.0233
11073SOL     OW36110   8.158   4.136   7.048 -0.0067  0.4829 -0.2693
11073SOL    HW136111   8.192   4.067   7.104 -0.2104  0.2034 -0.4861
11073SOL    HW236112   8.235   4.181   7.015  0.1902 -0.4160 -1.0994
11074SOL     OW36113   5.096   4.080   5.068  0.1390 -0.6985 -0.5784
11074SOL    HW136114   5.055   3.994   5.061  1.2296 -1.2278 -0.6481
11074SOL    HW236115   5.111   4.092   5.162 -0.9847 -0.1022 -0.4602
11075SOL     OW36116   1.244   2.885   2.322 -0.2726 -0.3024  0.2471
11075SOL    HW136117   1.167   2.942   2.318 -0.2729 -0.2301  0.9860
11075SOL    HW236118   1.266   2.883   2.415 -1.2655 -2.8317  0.5132
11076SOL     OW36119   5.274   8.917   1.642 -0.2307 -0.3653  0.1697
11076SOL    HW136120   5.321   8.873   1.713  1.5000  2.2524  0.7971
11076SOL    HW236121   5.326   8.898   1.564  2.0878  2.4661  0.8494
11077SOL     OW36122   3.604   9.185   7.531 -0.2707 -0.0626 -0.0364
11077SOL    HW136123   3.535   9.184   7.597 -0.0499 -2.0849  0.2149
11077SOL    HW236124   3.629   9.094   7.521  1.3346  0.4654 -1.2260
11078SOL     OW36125   5.308   2.209   6.655 -0.0304 -0.6357 -0.0763
11078SOL    HW136126   5.237   2.178   6.710 -0.8126 -0.0965 -0.7598
11078SOL    HW236127   5.343   2.130   6.614 -1.2575 -0.7659 -0.9259
11079SOL     OW36128   5.475   7.505   6.385  0.1892  0.0012 -0.3991
11079SOL    HW136129   5.460   7.469   6.297 -0.5744 -0.1618 -0.2149
11079SOL    HW236130   5.476   7.428   6.442  0.2857  0.1387 -0.2157
11080SOL     OW36131   7.515   5.193   3.640 -0.0590 -0.5073 -0.1659
11080SOL    HW136132   7.560   5.257   3.695  0.3698 -0.3867 -0.6468
11080SOL    HW236133   7.556   5.109   3.663 -1.9206 -0.9657  1.8731
11081SOL     OW36134   1.822   3.779   4.579 -0.0791 -0.2436 -0.0434
11081SOL    HW136135   1.779   3.746   4.658 -1.0922  0.9225 -0.0887
11081SOL    HW236136   1.868   3.858   4.607  1.4511 -1.0540 -0.1624
11082SOL     OW36137   3.915   5.280   8.911  0.6419  0.2680 -0.2209
11082SOL    HW136138   3.850   5.218   8.877  0.1030  0.9608 -0.4819
11082SOL    HW236139   3.950   5.237   8.989  0.0774 -0.2479 -0.2388
11083SOL     OW36140   2.012   3.154   8.613  0.4648 -0.3646  0.4876
11083SOL    HW136141   2.089   3.202   8.583  0.9890 -1.6591 -0.3073
11083SOL    HW236142   1.978   3.111   8.535 -1.8598  1.1920  0.5316
11084SOL     OW36143   5.809   6.737   3.822 -0.6567 -0.1697  0.3084
11084SOL    HW136144   5.778   6.650   3.795 -0.3149 -0.7284  1.6612
11084SOL    HW236145   5.862   6.721   3.900  0.4913  1.1246 -0.1682
11085SOL     OW36146   5.351   8.785   5.841 -0.2978 -0.1415  0.5706
11085SOL    HW136147   5.331   8.860   5.898  2.8697  0.0867  1.5957
11085SOL    HW236148   5.341   8.709   5.898 -0.6016 -0.2423  0.3848
11086SOL     OW36149   8.223   4.671   2.749  0.1411  0.4368  0.2286
11086SOL    HW136150   8.174   4.753   2.753  2.1454  1.7719 -1.2066
11086SOL    HW236151   8.289   4.679   2.818  0.1139 -0.1609  0.3336
11087SOL     OW36152   6.457   8.294   3.128  0.6303  0.2587  0.2279
11087SOL    HW136153   6.446   8.279   3.035  0.1198  1.0877  0.1473
11087SOL    HW236154   6.546   8.327   3.137  1.7333 -2.4671  0.3891
11088SOL     OW36155   7.121   3.179   8.148  0.0980  0.1968  0.0836
11088SOL    HW136156   7.109   3.261   8.101 -0.4562 -0.0641 -0.2452
11088SOL    HW236157   7.178   3.127   8.091  0.1120  0.1970  0.0978
11089SOL     OW36158   2.514   7.639   5.463  0.5678 -0.0264 -0.6997
11089SOL    HW136159   2.491   7.715   5.516 -1.3434 -1.2249  0.2890
11089SOL    HW236160   2.435   7.619   5.413  0.5195 -2.2333  0.1830
11090SOL     OW36161   7.090   7.255   6.636  0.1826  0.2429  0.0746
11090SOL    HW136162   7.106   7.161   6.648 -0.6311 -0.0570 -1.0464
11090SOL    HW236163   7.003   7.269   6.672  0.0755  0.4474 -0.2580
11091SOL     OW36164   1.691   2.708   3.771 -0.0180 -0.4246 -0.0781
11091SOL    HW136165   1.656   2.796   3.763  1.2622  0.1717  0.5921
11091SOL    HW236166   1.715   2.683   3.681  1.0367  0.5295 -0.0764
11092SOL     OW36167   1.917   3.284   7.139  0.2205 -0.7400 -0.6057
11092SOL    HW136168   2.003   3.325   7.134 -0.4019  0.7000  0.0412
11092SOL    HW236169   1.866   3.326   7.071 -1.6261  2.6864  2.5255
11093SOL     OW36170   7.106   0.698   0.934  0.0864  0.3835 -0.4796
11093SOL    HW136171   7.087   0.661   0.847 -0.4458  1.0151 -0.6416
11093SOL    HW236172   7.061   0.782   0.934 -0.9010 -0.1160  0.8288
11094SOL     OW36173   1.356   6.295   7.169  0.0651  0.4762 -0.7183
11094SOL    HW136174   1.270   6.323   7.200  0.6427  0.7750  0.7141
11094SOL    HW236175   1.356   6.200   7.182  0.4851  0.6542  0.7756
11095SOL     OW36176   8.825   8.737   4.864  0.2261  0.1256  0.3345
11095SOL    HW136177   8.737   8.701   4.873 -0.4113  1.7372  0.6824
11095SOL    HW236178   8.820   8.825   4.900  1.5072  0.9585 -1.3703
11096SOL     OW36179   0.176   2.370   7.004 -0.6020 -0.4809  0.3741
11096SOL    HW136180   0.180   2.349   7.097  0.3062  0.8605  0.6665
11096SOL    HW236181   0.124   2.300   6.965 -0.6574 -1.2665  1.8265
11097SOL     OW36182   2.417   5.153   7.674  1.4073 -0.2850 -0.1553
11097SOL    HW136183   2.428   5.228   7.615  0.1978 -1.1725 -1.5756
11097SOL    HW236184   2.367   5.188   7.747  0.9693  0.3317 -0.7361
11098SOL     OW36185   4.868   5.112   7.407 -0.2212 -0.1321 -0.2278
11098SOL    HW136186   4.928   5.186   7.417  1.0832 -1.1795  0.0332
11098SOL    HW236187   4.901   5.066   7.329 -0.3919 -0.9782  0.1893
11099SOL     OW36188   5.163   3.116   2.958  0.5101 -0.1493 -0.6591
11099SOL    HW136189   5.220   3.046   2.930 -0.3340 -0.6509 -1.1623
11099SOL    HW236190   5.089   3.114   2.897 -1.0573 -0.8482  1.1496
11100SOL     OW36191   5.534   2.490   3.894  0.6179 -0.2130 -0.0522
11100SOL    HW136192   5.522   2.399   3.867 -0.0538  0.2332 -1.3626
11100SOL    HW236193   5.535   2.487   3.989  0.5281 -1.5774 -0.0717
11101SOL     OW36194   5.685   7.606   5.076 -0.2720 -0.2327  0.1758
11101SOL    HW136195   5.665   7.523   5.120 -1.4563  0.3421  0.7862
11101SOL    HW236196   5.599   7.647   5.063  0.2460  0.6246 -0.6727
11102SOL     OW36197   7.861   0.505   4.559 -0.7021  0.7958 -0.6762
11102SOL    HW136198   7.927   0.560   4.602  1.5107  0.9490 -3.9543
11102SOL    HW236199   7.880   0.416   4.589  0.5378  0.9452 -0.9643
11103SOL     OW36200   2.321   6.895   0.846  0.0388 -0.9571 -0.2468
11103SOL    HW136201   2.279   6.981   0.843  2.0539  0.0689 -0.6648
11103SOL    HW236202   2.301   6.857   0.760  2.0502  0.6299 -1.5236
11104SOL     OW36203   7.998   6.964   8.269  0.2291 -0.2651 -0.4583
11104SOL    HW136204   7.919   7.013   8.246  1.0564  1.7039  0.6519
11104SOL    HW236205   8.052   6.967   8.189  0.1031  0.2924 -0.5240
11105SOL     OW36206   1.099   6.807   7.086  0.1953 -0.0899  0.0281
11105SOL    HW136207   1.095   6.810   7.181  2.9357 -1.0775  0.2626
11105SOL    HW236208   1.138   6.890   7.060 -0.8502  0.3180 -0.3032
11106SOL     OW36209   0.482   1.646   1.918 -0.1040  0.2805 -0.1717
11106SOL    HW136210   0.515   1.589   1.986  1.9885  0.2875 -1.1065
11106SOL    HW236211   0.451   1.587   1.849 -0.1263  0.2691 -0.1518
11107SOL     OW36212   2.305   1.753   1.499 -0.4483  0.5230  0.0630
11107SOL    HW136213   2.233   1.758   1.561 -1.5956 -0.2542 -1.1609
11107SOL    HW236214   2.265   1.722   1.417  1.2758 -0.0174 -0.6234
11108SOL     OW36215   2.719   3.700   5.027 -0.0242 -0.1860  0.2054
11108SOL    HW136216   2.724   3.743   4.942  0.5900  1.0481  0.8304
11108SOL    HW236217   2.795   3.642   5.030 -0.2201 -0.4625 -0.2048
11109SOL     OW36218   7.243   1.578   7.740 -0.1886  0.2469  0.2640
11109SOL    HW136219   7.266   1.485   7.733  0.6931  0.4756 -0.0257
11109SOL    HW236220   7.200   1.598   7.657 -0.2040  0.1439  0.2468
11110SOL     OW36221   0.737   1.014   3.750 -0.6698  0.1066  0.4731
11110SOL    HW136222   0.691   0.989   3.670  0.9067  1.2644 -0.8583
11110SOL    HW236223   0.794   0.939   3.769 -0.1515  0.3173 -0.2138
11111SOL     OW36224   7.396   5.243   4.831  0.1880  0.4232  0.0625
11111SOL    HW136225   7.417   5.157   4.793  2.5502  0.2885  1.4994
11111SOL    HW236226   7.320   5.226   4.888 -0.7504 -0.2056 -1.3029
11112SOL     OW36227   3.260   8.984   8.183  0.3581 -0.6496  0.7722
11112SOL    HW136228   3.166   8.989   8.201  0.0362  0.7730 -0.9762
11112SOL    HW236229   3.267   8.922   8.111  0.2581  1.6871 -1.4249
11113SOL     OW36230   6.752   8.777   1.779 -0.0986  0.0956 -0.3047
11113SOL    HW136231   6.740   8.810   1.690 -0.7766  0.2123 -0.1755
11113SOL    HW236232   6.836   8.813   1.807  0.3088 -0.2688 -1.0391
11114SOL     OW36233   2.765   1.184   7.838  0.5333  0.0286 -0.1968
11114SOL    HW136234   2.714   1.254   7.798 -0.2178 -0.7162 -0.5805
11114SOL    HW236235   2.701   1.117   7.860  1.0717 -0.0328  1.3138
11115SOL     OW36236   1.373   2.095   7.659  0.3493  0.4133  0.0525
11115SOL    HW136237   1.278   2.102   7.668  0.4548  1.5336  0.4469
11115SOL    HW236238   1.399   2.172   7.609  1.2071  0.9220  1.2347
11116SOL     OW36239   4.075   6.908   0.705 -0.3955 -0.2408  0.0297
11116SOL    HW136240   4.005   6.960   0.665 -0.9029 -0.6238  0.3929
11116SOL    HW236241   4.149   6.917   0.646 -0.8671 -0.1157 -0.5535
11117SOL     OW36242   9.040   8.461   2.745 -0.1290 -0.0818  0.9615
11117SOL    HW136243   9.095   8.416   2.681 -0.1326  1.7857 -0.4490
11117SOL    HW236244   9.100   8.520   2.790 -1.0118  2.9600 -1.5111
11118SOL     OW36245   6.517   6.819   7.857 -0.2893  0.3531 -0.3962
11118SOL    HW136246   6.605   6.788   7.877  0.0173  1.4507  0.0233
11118SOL    HW236247   6.525   6.857   7.769 -0.4301  0.1499 -0.4979
11119SOL     OW36248   3.956   1.019   6.344 -0.0509  0.0078 -0.1736
11119SOL    HW136249   4.001   1.098   6.315  0.4728 -0.4531 -0.6454
11119SOL    HW236250   3.909   1.046   6.423  0.6846  0.6184  0.0740
11120SOL     OW36251   6.775   1.595   3.913 -0.0188  0.2260 -0.1182
11120SOL    HW136252   6.857   1.640   3.930  0.3869 -0.9368  1.1551
11120SOL    HW236253   6.801   1.507   3.885 -0.8150  0.3484 -1.3637
11121SOL     OW36254   4.699   4.954   2.710 -0.3546 -0.0886 -0.3411
11121SOL    HW136255   4.661   4.995   2.788 -1.1152 -1.7913  0.2355
11121SOL    HW236256   4.719   5.027   2.652 -1.5064  1.0977  0.6839
11122SOL     OW36257   0.658   9.048   3.863  0.0346 -0.0763 -0.1873
11122SOL    HW136258   0.719   9.036   3.936  0.2880 -0.5715 -0.4777
11122SOL    HW236259   0.597   8.975   3.870 -0.0695 -0.0073 -0.3493
11123SOL     OW36260   7.705   6.036   1.618  0.1429  0.8069 -0.2327
11123SOL    HW136261   7.727   6.126   1.643  1.3294  0.2798  0.7160
11123SOL    HW236262   7.661   6.000   1.695  1.4060 -0.0087  0.1316
11124SOL     OW36263   0.217   5.641   5.091  0.5803 -0.5571 -0.5928
11124SOL    HW136264   0.245   5.709   5.152 -2.0313 -0.5743  0.7836
11124SOL    HW236265   0.203   5.688   5.008  0.9340  0.1401 -0.2706
11125SOL     OW36266   8.907   2.944   2.741  0.1738  0.4040  0.3381
11125SOL    HW136267   8.893   3.035   2.770  0.2804  0.4159  0.3547
11125SOL    HW236268   8.843   2.893   2.791 -1.0188  0.6684 -0.8749
11126SOL     OW36269   2.883   1.548   5.308  0.4952  0.1207  0.4901
11126SOL    HW136270   2.853   1.604   5.379 -1.7542 -0.3348 -0.0290
11126SOL    HW236271   2.840   1.582   5.230  0.5996 -1.1472 -0.1590
11127SOL     OW36272   2.546   3.449   1.273 -0.4011  0.0343 -0.4374
11127SOL    HW136273   2.496   3.476   1.196 -1.7261 -0.6082  0.1561
11127SOL    HW236274   2.554   3.354   1.266  0.9825  0.1442 -0.6376
11128SOL     OW36275   1.423   3.052   4.675  0.0216  0.5982 -0.0271
11128SOL    HW136276   1.516   3.028   4.668 -0.0332 -0.2638  1.7636
11128SOL    HW236277   1.389   3.041   4.586  1.3660 -0.2003 -0.4764
11129SOL     OW36278   7.337   3.020   4.954 -0.3804  0.1712 -0.0548
11129SOL    HW136279   7.345   2.963   4.877 -1.0609 -2.1505  1.4761
11129SOL    HW236280   7.395   3.094   4.936  0.7946 -1.1447 -2.0426
11130SOL     OW36281   9.106   7.770   5.680 -0.4299 -0.2444 -0.5150
11130SOL    HW136282   9.084   7.678   5.667  1.7550 -1.1067  1.1876
11130SOL    HW236283   9.084   7.812   5.598 -2.6111 -2.0355 -0.9397
11131SOL     OW36284   5.308   6.880   1.023 -0.6592  0.0827  0.0224
11131SOL    HW136285   5.348   6.807   0.975 -0.3573  0.6425 -0.5919
11131SOL    HW236286   5.247   6.838   1.084  1.7311 -0.9040  1.8983
11132SOL     OW36287   0.460   4.453   4.138 -0.1014 -0.3323  0.1296
11132SOL    HW136288   0.400   4.526   4.152  0.3103 -0.2599  1.6314
11132SOL    HW236289   0.424   4.408   4.061  0.1978  1.9778 -1.4728
11133SOL     OW36290   3.882   8.849   1.207  0.7039 -0.0610 -0.3099
11133SOL    HW136291   3.886   8.936   1.248 -0.2346  1.7643 -3.7209
11133SOL    HW236292   3.875   8.789   1.281 -0.4312  2.8621  2.2121
11134SOL     OW36293   6.288   3.582   3.761  0.5906  0.1246  0.2152
11134SOL    HW136294   6.332   3.659   3.727  0.8711  0.8123  2.0274
11134SOL    HW236295   6.356   3.515   3.765  0.2957 -0.3246 -1.5684
11135SOL     OW36296   1.376   0.251   7.453 -0.3123  0.2126 -0.3433
11135SOL    HW136297   1.372   0.156   7.444  0.2334  0.1559 -0.0337
11135SOL    HW236298   1.288   0.277   7.481 -0.9269 -0.0272 -1.9574
11136SOL     OW36299   6.944   5.302   4.319  0.0282  0.5572 -0.2312
11136SOL    HW136300   6.912   5.340   4.237  0.2615  1.3231  0.0223
11136SOL    HW236301   6.879   5.236   4.342 -1.0101  1.5916 -0.0959
11137SOL     OW36302   8.773   8.046   6.338  0.4243  0.3455 -0.2869
11137SOL    HW136303   8.868   8.054   6.328  0.5299  1.0440  1.0847
11137SOL    HW236304   8.761   7.981   6.407 -0.1196 -0.1668 -0.8502
11138SOL     OW36305   1.524   3.321   6.894  0.1653 -0.6082 -0.0598
11138SOL    HW136306   1.482   3.387   6.840  1.9490 -0.6683 -1.6414
11138SOL    HW236307   1.465   3.308   6.968 -1.2531  1.1592 -0.8267
11139SOL     OW36308   0.496   5.894   8.737  0.5143  0.1958 -0.1965
11139SOL    HW136309   0.571   5.842   8.767  0.8892  0.5657 -0.4658
11139SOL    HW236310   0.420   5.839   8.752  0.7974 -0.0188  0.4924
11140SOL     OW36311   4.407   4.474   7.532 -0.0298 -0.2612 -0.0681
11140SOL    HW136312   4.372   4.498   7.618  1.7516  0.0480  0.6198
11140SOL    HW236313   4.478   4.537   7.517  0.6420 -1.2313 -1.0836
11141SOL     OW36314   6.439   4.966   5.007  0.7803  0.9614 -0.1902
11141SOL    HW136315   6.402   4.992   5.091  1.3591  0.1505  0.3263
11141SOL    HW236316   6.523   5.010   5.002  1.8447 -0.8509  0.7675
11142SOL     OW36317   4.651   6.735   5.682  0.1693 -0.2943 -1.1547
11142SOL    HW136318   4.595   6.719   5.758  0.6020  0.7348 -0.5981
11142SOL    HW236319   4.624   6.670   5.618 -0.4751 -0.9249 -0.2612
11143SOL     OW36320   7.164   7.676   1.663  0.6708 -0.3843 -0.3890
11143SOL    HW136321   7.155   7.602   1.603  0.2716 -0.6426 -0.0158
11143SOL    HW236322   7.252   7.666   1.700  0.2574 -1.2619  0.4152
11144SOL     OW36323   4.300   6.979   5.713 -0.2866 -0.5003  0.2961
11144SOL    HW136324   4.395   6.975   5.723 -0.0874 -1.1938 -1.4629
11144SOL    HW236325   4.267   6.980   5.802  1.3450 -0.9528  0.9560
11145SOL     OW36326   7.674   8.597   5.702 -0.1105 -0.3916 -0.7215
11145SOL    HW136327   7.752   8.621   5.653  0.9566 -0.2080  0.9964
11145SOL    HW236328   7.677   8.501   5.708  0.9463 -0.3085  0.7613
11146SOL     OW36329   0.556   5.558   5.155 -0.1518 -0.4194 -0.6531
11146SOL    HW136330   0.575   5.472   5.195  0.7516 -0.4246 -1.0738
11146SOL    HW236331   0.491   5.597   5.214  1.4228 -0.2620  1.0941
11147SOL     OW36332   2.093   0.348   0.422 -0.1391 -0.6303  0.3637
11147SOL    HW136333   2.037   0.341   0.345  0.7937  1.4023 -0.6041
11147SOL    HW236334   2.181   0.362   0.386  0.3986 -0.1485  1.7841
11148SOL     OW36335   7.294   1.250   1.550  0.2554  0.3849 -0.8214
11148SOL    HW136336   7.381   1.210   1.549  0.3761  0.6337 -1.5901
11148SOL    HW236337   7.304   1.329   1.496 -0.2038  0.9548 -0.0810
11149SOL     OW36338   1.841   0.512   7.706 -0.2044  0.0321 -0.4256
11149SOL    HW136339   1.850   0.548   7.618  0.5890 -0.4972 -0.5652
11149SOL    HW236340   1.826   0.418   7.693 -0.9642  0.0833 -0.0174
11150SOL     OW36341   3.427   2.835   3.396 -0.5398  0.2490 -0.5891
11150SOL    HW136342   3.414   2.842   3.301 -2.3504 -1.2828 -0.5129
11150SOL    HW236343   3.375   2.759   3.421  2.1453 -1.1223  1.2351
11151SOL     OW36344   4.995   4.381   0.867 -0.1407 -0.1481  0.7602
11151SOL    HW136345   4.905   4.351   0.878 -0.7679  1.7042  0.9337
11151SOL    HW236346   5.047   4.317   0.916 -1.4622 -0.6173  1.6104
11152SOL     OW36347   4.433   8.369   8.498 -0.5167 -0.4247 -0.2638
11152SOL    HW136348   4.386   8.438   8.452 -1.4820 -0.1986  1.0121
11152SOL    HW236349   4.459   8.409   8.582 -0.1819 -1.2900  0.0565
11153SOL     OW36350   1.166   7.287   0.385  0.5708  0.2315 -0.0978
11153SOL    HW136351   1.242   7.317   0.435  0.7480 -1.0770  0.4481
11153SOL    HW236352   1.158   7.350   0.313  0.1275  2.3611  1.6914
11154SOL     OW36353   7.621   9.010   0.561 -0.7044  0.3710  0.6049
11154SOL    HW136354   7.654   9.073   0.498  0.4003 -0.7034  0.0729
11154SOL    HW236355   7.525   9.016   0.553 -0.5960  1.3313 -0.0601
11155SOL     OW36356   5.396   6.946   0.002 -0.3683 -0.4011 -0.4195
11155SOL    HW136357   5.436   6.919  -0.081  2.0605  0.6829  0.3163
11155SOL    HW236358   5.465   6.933   0.067 -1.4723  0.8569  1.0728
11156SOL     OW36359   8.733   2.799   2.913 -0.2326  0.4984 -0.0291
11156SOL    HW136360   8.682   2.764   2.841  0.3584 -0.2473 -0.1060
11156SOL    HW236361   8.684   2.776   2.992  0.5991 -1.3944 -0.0125
11157SOL     OW36362   9.072   2.098   1.236  0.3005 -0.5399 -0.3162
11157SOL    HW136363   9.096   2.008   1.255 -0.6221 -0.4906  1.2369
11157SOL    HW236364   8.976   2.097   1.234  0.2825  0.3914 -0.4139
11158SOL     OW36365   9.085   3.679   0.868  0.3525 -0.2794  0.6688
11158SOL    HW136366   9.135   3.716   0.941 -1.6120  0.6242  1.6393
11158SOL    HW236367   9.014   3.742   0.853 -0.4153 -1.4192 -0.7268
11159SOL     OW36368   3.514   2.627   4.787  0.0054 -0.2366  0.8097
11159SOL    HW136369   3.488   2.547   4.831 -1.2516  0.6474  1.7437
11159SOL    HW236370   3.600   2.607   4.750 -0.1786 -1.9214  1.2106
11160SOL     OW36371   7.874   3.715   2.798  0.5212  0.6386 -0.1115
11160SOL    HW136372   7.940   3.648   2.813 -2.5457 -2.2067  2.1738
11160SOL    HW236373   7.910   3.795   2.836  2.8812 -0.5807  0.3421
11161SOL     OW36374   4.310   3.991   1.358  0.3377 -0.2235 -0.1741
11161SOL    HW136375   4.230   3.964   1.314  0.4307  0.5448 -0.8582
11161SOL    HW236376   4.381   3.952   1.306  0.4576  0.9218 -0.9346
11162SOL     OW36377   6.364   7.279   4.064  0.0440 -0.5643  0.5370
11162SOL    HW136378   6.308   7.350   4.032 -2.4377 -2.3042  0.7531
11162SOL    HW236379   6.316   7.243   4.139  1.6157 -1.9712  0.9179
11163SOL     OW36380   5.207   4.010   4.342  0.1760 -0.4343  0.4693
11163SOL    HW136381   5.199   3.984   4.250 -0.3240 -0.0658  0.4008
11163SOL    HW236382   5.270   3.948   4.380 -0.0307 -0.9266  0.0125
11164SOL     OW36383   0.856   6.375   1.914  0.1929 -0.2857 -0.2070
11164SOL    HW136384   0.796   6.342   1.980  0.0237  1.3207  0.4923
11164SOL    HW236385   0.890   6.456   1.951 -0.5344  1.1233 -2.3956
11165SOL     OW36386   0.507   7.778   0.200  0.1586  0.6999  0.3549
11165SOL    HW136387   0.506   7.702   0.259 -0.1869  0.4845  0.0757
11165SOL    HW236388   0.591   7.820   0.218  0.1386  0.5329  0.8678
11166SOL     OW36389   5.923   7.696   3.146 -0.6025 -0.0042  0.0724
11166SOL    HW136390   6.014   7.716   3.170 -1.0432  1.4051  0.6923
11166SOL    HW236391   5.912   7.604   3.168  1.2281 -0.7514 -1.8458
11167SOL     OW36392   6.384   3.433   2.109 -0.4620 -0.4755 -0.8495
11167SOL    HW136393   6.460   3.385   2.141  0.0537  0.1420 -1.1223
11167SOL    HW236394   6.366   3.498   2.176  0.2193  0.3945 -1.4929
11168SOL     OW36395   0.992   6.198   1.736  0.0153  0.1435 -0.1874
11168SOL    HW136396   1.069   6.254   1.727  0.3462 -0.3186 -0.2693
11168SOL    HW236397   0.918   6.259   1.736  0.4214  0.6626  0.7509
11169SOL     OW36398   2.246   0.789   0.684 -0.2031 -0.0740  0.2643
11169SOL    HW136399   2.241   0.848   0.608 -0.6630 -1.3531 -0.7307
11169SOL    HW236400   2.190   0.830   0.750 -0.1258  0.8562 -0.2295
11170SOL     OW36401   8.473   3.562   1.287  0.5452  0.1488  0.7735
11170SOL    HW136402   8.550   3.515   1.320  1.2732  0.7667  0.0057
11170SOL    HW236403   8.487   3.568   1.193 -0.1641  0.7827  0.6981
11171SOL     OW36404   2.693   1.160   6.219 -0.2270  0.1416  0.2943
11171SOL    HW136405   2.717   1.246   6.183 -0.9015  1.2217  2.2501
11171SOL    HW236406   2.598   1.157   6.211 -0.2044 -0.4340  0.2363
11172SOL     OW36407   7.383   5.177   6.326 -0.2244  0.2689 -0.2029
11172SOL    HW136408   7.356   5.118   6.256  2.6666 -0.5741 -0.7594
11172SOL    HW236409   7.456   5.132   6.369 -0.2633  1.8846  1.7250
11173SOL     OW36410   8.730   5.315   1.594 -0.1195  0.6408 -0.2418
11173SOL    HW136411   8.811   5.365   1.600 -1.1424  2.4182 -0.5470
11173SOL    HW236412   8.662   5.375   1.626 -1.4791 -0.3677 -1.1016
11174SOL     OW36413   8.480   1.018   5.979  0.3468  0.1147  0.2495
11174SOL    HW136414   8.445   1.045   6.064 -2.2342 -1.5370 -0.1870
11174SOL    HW236415   8.572   0.997   5.997  0.0839  0.5558  2.4477
11175SOL     OW36416   3.475   4.275   8.912  0.6940 -0.7424 -0.3133
11175SOL    HW136417   3.410   4.261   8.844 -0.5199  0.9997  0.4201
11175SOL    HW236418   3.496   4.368   8.905  1.6195 -0.8544  0.7723
11176SOL     OW36419   7.747   4.831   8.768 -0.0387 -0.2453  0.7229
11176SOL    HW136420   7.705   4.903   8.814  1.2676  1.0764 -0.0628
11176SOL    HW236421   7.685   4.758   8.776 -1.2866  0.8688  1.7484
11177SOL     OW36422   0.452   8.379   2.998  0.1570 -0.1080  0.3172
11177SOL    HW136423   0.360   8.404   2.996 -0.1614 -1.2529 -0.1086
11177SOL    HW236424   0.451   8.285   3.012  1.2593 -0.1729  0.0504
11178SOL     OW36425   4.495   1.942   7.562  0.1399  0.0167  0.4770
11178SOL    HW136426   4.509   1.847   7.556 -0.7590 -0.0882 -0.2380
11178SOL    HW236427   4.555   1.980   7.498 -0.4292 -0.1742 -0.1779
11179SOL     OW36428   4.690   1.440   5.699 -0.1562 -0.5333  0.0059
11179SOL    HW136429   4.707   1.346   5.701  0.5241 -0.4004  1.7239
11179SOL    HW236430   4.662   1.457   5.609 -0.8881 -2.4668 -0.1733
11180SOL     OW36431   2.704   3.305   2.323 -0.1725  0.1628 -0.6266
11180SOL    HW136432   2.620   3.296   2.278  0.6916  0.3090 -2.3776
11180SOL    HW236433   2.700   3.390   2.366 -2.1849 -1.2408  2.2694
11181SOL     OW36434   2.614   2.783   3.958  0.4910  0.2322  0.4863
11181SOL    HW136435   2.521   2.794   3.938  1.1210 -0.1754 -3.5035
11181SOL    HW236436   2.619   2.699   4.003 -1.0090 -0.1046  0.0808
11182SOL     OW36437   2.836   0.587   2.505  0.3305  0.4114  0.0754
11182SOL    HW136438   2.824   0.643   2.582 -0.4339  0.0138  0.2540
11182SOL    HW236439   2.893   0.516   2.535 -0.4160 -0.0459  0.4411
11183SOL     OW36440   5.769   8.430   7.596 -0.1834  0.0567 -0.2400
11183SOL    HW136441   5.713   8.470   7.662 -0.6211 -1.4172  0.3268
11183SOL    HW236442   5.796   8.503   7.539 -0.7771  1.1526  0.8426
11184SOL     OW36443   6.334   3.712   8.963 -0.2066  0.5963  0.4667
11184SOL    HW136444   6.256   3.658   8.951 -0.2967  0.6866  0.6469
11184SOL    HW236445   6.361   3.735   8.873  0.0580 -0.0610  0.3729
11185SOL     OW36446   4.601   8.183   2.218 -0.4663  0.4800 -0.3315
11185SOL    HW136447   4.554   8.222   2.291  1.0490  0.2807  0.7819
11185SOL    HW236448   4.561   8.222   2.140 -2.8720 -0.1464  0.5180
11186SOL     OW36449   6.243   5.384   8.256 -0.0075 -0.7810  0.3900
11186SOL    HW136450   6.336   5.361   8.255 -0.4443 -2.7653 -0.4018
11186SOL    HW236451   6.197   5.299   8.251 -1.8654  0.1290  0.9124
11187SOL     OW36452   7.022   0.154   3.162  0.2243  0.1731  0.2628
11187SOL    HW136453   7.020   0.109   3.246 -3.5614 -0.1127  0.1562
11187SOL    HW236454   7.014   0.246   3.184 -2.7606 -0.0191  0.2742
11188SOL     OW36455   3.452   6.851   7.740 -0.0695  0.1483 -0.2837
11188SOL    HW136456   3.393   6.781   7.768  1.6034 -1.3026 -0.2289
11188SOL    HW236457   3.451   6.914   7.812 -2.6967  0.9934 -0.9302
11189SOL     OW36458   8.199   1.172   2.671  0.0084 -0.1299 -0.2967
11189SOL    HW136459   8.116   1.126   2.661 -0.1018 -0.5268  1.8909
11189SOL    HW236460   8.187   1.254   2.623 -0.7697 -1.1680 -1.9728
11190SOL     OW36461   4.093   8.818   3.816  0.4402 -0.7343 -0.0310
11190SOL    HW136462   4.004   8.855   3.816  1.2815  1.4691  0.6632
11190SOL    HW236463   4.093   8.756   3.889  0.5700  2.4207  2.9092
11191SOL     OW36464   0.356   1.794   4.618 -0.1080  0.6946 -0.7272
11191SOL    HW136465   0.343   1.709   4.660 -2.0781  1.2954  0.0177
11191SOL    HW236466   0.361   1.856   4.691  0.8626  1.2767 -1.2729
11192SOL     OW36467   5.008   4.167   0.163  0.1128 -0.4231  1.0050
11192SOL    HW136468   5.087   4.125   0.129 -0.7241  0.2414 -2.0964
11192SOL    HW236469   5.034   4.258   0.178  0.4580 -0.6926  2.0923
11193SOL     OW36470   0.557   3.307   7.787 -0.1803 -0.2256 -0.0965
11193SOL    HW136471   0.470   3.280   7.756  0.3560 -2.3915  0.1232
11193SOL    HW236472   0.567   3.397   7.755 -1.3269 -0.9042 -2.6372
11194SOL     OW36473   3.050   0.973   1.017  0.5943  0.2240  0.4447
11194SOL    HW136474   3.128   0.918   1.014  0.0939 -0.4960  0.1989
11194SOL    HW236475   2.995   0.933   1.084  1.0853  1.6483  1.7640
11195SOL     OW36476   1.529   5.123   1.692  0.5273 -0.2956  0.2509
11195SOL    HW136477   1.460   5.187   1.673 -0.8480 -1.7088  0.2532
11195SOL    HW236478   1.607   5.176   1.705 -0.9482  1.5620  2.3022
11196SOL     OW36479   3.398   4.467   3.777 -0.0462 -0.1303 -0.2803
11196SOL    HW136480   3.444   4.524   3.716  0.5640 -0.4302 -0.1076
11196SOL    HW236481   3.340   4.526   3.826  1.7805  0.6624  1.0605
11197SOL     OW36482   8.394   8.420   5.825  0.9032  0.2088  0.0408
11197SOL    HW136483   8.308   8.440   5.787  1.6417 -2.3411 -3.5116
11197SOL    HW236484   8.443   8.501   5.818 -0.6281  1.2148  0.4652
11198SOL     OW36485   3.625   8.712   6.649 -0.6836  0.0578  0.3068
11198SOL    HW136486   3.698   8.688   6.706  0.6010 -0.0429 -1.3356
11198SOL    HW236487   3.591   8.629   6.616 -0.9280  0.1550  0.3053
11199SOL     OW36488   2.772   2.919   5.101 -0.3512  0.3527 -0.6658
11199SOL    HW136489   2.742   2.922   5.192 -1.0698  0.8304 -0.9051
11199SOL    HW236490   2.744   2.833   5.070 -2.8355  1.2941 -1.2988
11200SOL     OW36491   3.500   0.172   8.725 -0.4078  0.1350  0.2606
11200SOL    HW136492   3.453   0.132   8.799  0.4846  0.1526  0.8455
11200SOL    HW236493   3.466   0.125   8.648  0.6045 -1.8058  0.9241
11201SOL     OW36494   0.765   2.577   1.906  0.0488 -0.5582  0.4925
11201SOL    HW136495   0.731   2.551   1.821  1.4261 -0.3305 -0.1533
11201SOL    HW236496   0.737   2.507   1.965  1.9391 -2.5505 -0.8167
11202SOL     OW36497   2.353   4.990   1.109  0.6546  0.0545  0.3588
11202SOL    HW136498   2.263   4.965   1.126  0.5450  0.4126  0.3167
11202SOL    HW236499   2.402   4.908   1.110  0.1733 -0.2541 -0.6177
11203SOL     OW36500   4.371   3.594   3.699 -0.1487 -0.2233 -0.3578
11203SOL    HW136501   4.304   3.527   3.713  0.8587 -1.2779 -0.3543
11203SOL    HW236502   4.328   3.660   3.645 -2.4085  1.1138  2.7794
11204SOL     OW36503   5.009   0.602   7.362  0.2664 -0.1486 -0.3584
11204SOL    HW136504   5.019   0.685   7.409  1.7464  0.5466 -1.7962
11204SOL    HW236505   4.960   0.546   7.422 -1.7016  2.0757  0.2574
11205SOL     OW36506   6.254   5.582   8.087  0.1451 -0.1946 -0.1499
11205SOL    HW136507   6.243   5.510   8.149 -0.5377  0.1790  0.1710
11205SOL    HW236508   6.276   5.658   8.141 -1.9433  0.4879 -0.1691
11206SOL     OW36509   7.212   7.714   2.201 -0.2548  0.8762  0.2057
11206SOL    HW136510   7.150   7.641   2.206  2.1598 -1.2780  0.8119
11206SOL    HW236511   7.239   7.717   2.109  1.9777 -1.2586  0.6608
11207SOL     OW36512   4.230   8.093   0.926 -0.2020 -0.1830 -0.5442
11207SOL    HW136513   4.143   8.110   0.961 -0.3577  1.0950 -1.4626
11207SOL    HW236514   4.274   8.178   0.930  0.6277 -0.5768 -1.0874
11208SOL     OW36515   7.549   8.664   1.754 -0.5220 -0.4172  0.2156
11208SOL    HW136516   7.612   8.643   1.686 -0.1306 -0.9975  0.7462
11208SOL    HW236517   7.536   8.758   1.747 -0.9593 -0.5584 -1.0628
11209SOL     OW36518   6.834   4.958   9.226 -0.2506 -0.4588  0.4999
11209SOL    HW136519   6.784   4.895   9.173  2.1333 -0.9165 -1.4164
11209SOL    HW236520   6.776   5.033   9.235 -2.0429 -1.7336  0.2341
11210SOL     OW36521   4.237   1.197   3.923  0.3807  0.0213 -0.3610
11210SOL    HW136522   4.276   1.268   3.872  0.0658 -0.4824 -1.3335
11210SOL    HW236523   4.142   1.206   3.908  0.3043 -0.2806 -0.0622
11211SOL     OW36524   1.481   7.551   8.065 -0.1148  0.3607  0.0917
11211SOL    HW136525   1.483   7.521   8.157 -0.0634  1.6244  0.5163
11211SOL    HW236526   1.438   7.636   8.069 -1.0835 -0.0388 -1.2156
11212SOL     OW36527   1.112   8.782   5.596  0.4488 -0.3571  0.3711
11212SOL    HW136528   1.088   8.874   5.593 -0.2488 -0.5256  0.6193
11212SOL    HW236529   1.105   8.752   5.506  0.3430 -0.2515  0.3442
11213SOL     OW36530   7.369   4.228   7.549  0.1243 -0.2192  0.3845
11213SOL    HW136531   7.420   4.254   7.626 -0.8762 -0.6791  1.2342
11213SOL    HW236532   7.312   4.303   7.532 -1.0214 -0.8346  1.3193
11214SOL     OW36533   4.427   8.920   2.060  0.0988  0.5152  0.0988
11214SOL    HW136534   4.374   8.995   2.033 -1.1967  0.1217  1.4282
11214SOL    HW236535   4.365   8.848   2.068  0.8648 -0.0461  1.4147
11215SOL     OW36536   7.405   4.894   6.165 -0.0668  0.1613 -0.5321
11215SOL    HW136537   7.473   4.940   6.214  0.7424 -0.3172 -1.1895
11215SOL    HW236538   7.366   4.961   6.110  0.1371  0.3595 -0.4375
11216SOL     OW36539   9.244   3.957   0.904  0.4844 -0.3086 -0.1590
11216SOL    HW136540   9.303   3.997   0.968  0.3545  1.1324 -0.8999
11216SOL    HW236541   9.157   3.987   0.930  0.5224  1.1460 -1.5735
11217SOL     OW36542   3.660   5.572   3.441 -0.1684 -1.2752 -0.0884
11217SOL    HW136543   3.628   5.495   3.394 -1.0310 -0.3683 -1.0407
11217SOL    HW236544   3.706   5.624   3.375 -0.0115 -0.7371  0.4258
11218SOL     OW36545   5.720   1.093   2.950 -0.1136 -0.3294  0.0389
11218SOL    HW136546   5.768   1.162   2.997 -0.1120 -0.6778  0.5665
11218SOL    HW236547   5.629   1.106   2.975 -0.5253  1.1186 -1.9549
11219SOL     OW36548   1.461   6.285   8.884  0.2985  0.3773 -0.1653
11219SOL    HW136549   1.426   6.254   8.967  2.5178 -1.7000  0.0959
11219SOL    HW236550   1.547   6.245   8.877  0.1286  0.2746 -3.5801
11220SOL     OW36551   4.880   3.929   8.279 -0.1178  0.1323 -0.2291
11220SOL    HW136552   4.900   3.936   8.186 -1.9157  1.5683 -0.5609
11220SOL    HW236553   4.790   3.897   8.283 -0.4791  1.1958  0.9533
11221SOL     OW36554   0.232   4.742   4.810  0.0126  0.3785  0.9761
11221SOL    HW136555   0.217   4.814   4.749  0.3278 -0.0912  0.3299
11221SOL    HW236556   0.323   4.752   4.838  0.9383 -1.2438 -1.1590
11222SOL     OW36557   3.866   3.667   2.452  0.3227 -0.1245  0.2262
11222SOL    HW136558   3.889   3.717   2.530 -0.8393  0.8164 -0.0111
11222SOL    HW236559   3.879   3.575   2.477  2.4508  0.2522  0.6859
11223SOL     OW36560   3.554   8.101   5.768 -0.0564 -0.0225  0.0254
11223SOL    HW136561   3.561   8.168   5.700  0.2119 -0.4717 -0.3945
11223SOL    HW236562   3.561   8.149   5.850 -1.0125  0.6128 -0.2415
11224SOL     OW36563   3.854   5.754   6.574 -0.2054  0.2173  0.0178
11224SOL    HW136564   3.906   5.673   6.569 -1.0998 -0.4596  1.1312
11224SOL    HW236565   3.855   5.777   6.667 -1.6181  0.3577  0.0174
11225SOL     OW36566   2.442   0.481   0.071  0.2073 -0.2727  0.1875
11225SOL    HW136567   2.522   0.479   0.123 -0.9767 -0.1614  2.0939
11225SOL    HW236568   2.463   0.538  -0.003  1.5885  0.5180  1.1510
11226SOL     OW36569   0.263   0.607   4.055  0.5901 -0.0756 -0.1407
11226SOL    HW136570   0.324   0.546   4.096  0.4692 -0.4547 -0.5140
11226SOL    HW236571   0.184   0.555   4.039  0.1356  0.4304  0.4155
11227SOL     OW36572   0.301   0.055   2.952  0.3219  0.2626  0.0086
11227SOL    HW136573   0.385   0.014   2.975 -0.6142 -0.8619  1.6611
11227SOL    HW236574   0.264   0.081   3.037 -0.6016  1.5715 -0.7763
11228SOL     OW36575   3.388   5.234   6.905 -0.0492  0.3763 -0.0973
11228SOL    HW136576   3.381   5.275   6.992 -0.1435 -2.0258  1.1219
11228SOL    HW236577   3.299   5.237   6.870 -0.0455  1.2139 -0.0639
11229SOL     OW36578   3.043   4.489   6.630  0.2688  0.4700 -0.1861
11229SOL    HW136579   3.108   4.440   6.681 -1.1377 -0.5050  0.7343
11229SOL    HW236580   3.005   4.551   6.693 -0.5957  0.1381 -0.3705
11230SOL     OW36581   7.292   7.075   6.291 -0.7149 -0.1937 -0.0102
11230SOL    HW136582   7.291   7.159   6.337  0.7647 -0.9765  1.5599
11230SOL    HW236583   7.203   7.041   6.302 -0.7166  0.1731  1.2773
11231SOL     OW36584   2.586   3.341   7.391 -0.3868  0.5286 -0.1587
11231SOL    HW136585   2.545   3.385   7.466 -1.3652 -1.2748  0.4318
11231SOL    HW236586   2.645   3.407   7.354 -1.6678  2.2645  0.7320
11232SOL     OW36587   7.583   7.947   6.108  0.6375 -0.5692  0.2337
11232SOL    HW136588   7.635   7.994   6.172  1.2989  0.5431 -1.0741
11232SOL    HW236589   7.510   8.006   6.087  0.5094 -0.8529 -0.1483
11233SOL     OW36590   6.929   0.123   7.708 -0.3343  0.1847  0.0212
11233SOL    HW136591   6.927   0.176   7.788  2.3660  1.0139 -0.3638
11233SOL    HW236592   6.893   0.180   7.641 -1.1394  0.0617  0.3432
11234SOL     OW36593   8.035   9.147   5.328 -0.3197 -0.0073  0.5646
11234SOL    HW136594   8.082   9.229   5.315 -0.1483  0.1060  1.8203
11234SOL    HW236595   8.077   9.107   5.404 -2.2576  0.1183  1.7678
11235SOL     OW36596   0.960   4.300   3.455 -0.4644  0.0913  0.6864
11235SOL    HW136597   0.966   4.389   3.422  0.2190 -0.2852 -0.2585
11235SOL    HW236598   0.870   4.292   3.487  0.0055  1.7277  2.6527
11236SOL     OW36599   7.113   4.424   7.853 -0.7701 -0.9290  0.6586
11236SOL    HW136600   7.086   4.332   7.844 -1.0195 -0.7274 -1.0334
11236SOL    HW236601   7.031   4.472   7.868 -0.5903 -1.0049  2.0292
11237SOL     OW36602   5.566   6.292   3.678  0.7335 -0.4002 -0.1672
11237SOL    HW136603   5.492   6.282   3.737  1.1017  0.0537  0.3817
11237SOL    HW236604   5.527   6.303   3.591  0.0925  1.4176  0.3118
11238SOL     OW36605   4.622   1.805   4.249  0.1811 -0.0819 -0.5582
11238SOL    HW136606   4.696   1.800   4.310 -0.0285 -1.4680 -0.3784
11238SOL    HW236607   4.551   1.841   4.301  0.6591  1.0751 -0.6778
11239SOL     OW36608   3.721   4.461   0.817 -0.0755  0.0885  0.1936
11239SOL    HW136609   3.702   4.531   0.879 -0.1473  0.2617 -0.0238
11239SOL    HW236610   3.759   4.505   0.742 -0.8914 -0.0088 -0.2915
11240SOL     OW36611   6.393   6.004   8.600 -0.4216  0.0750 -0.8263
11240SOL    HW136612   6.335   5.984   8.527 -0.4929  1.6594 -1.2386
11240SOL    HW236613   6.477   6.025   8.559  0.3186 -1.5922 -0.2683
11241SOL     OW36614   5.553   3.557   7.480  0.0527 -0.2878 -0.1556
11241SOL    HW136615   5.591   3.469   7.486  0.7066 -0.1460 -1.7365
11241SOL    HW236616   5.600   3.608   7.546  1.5409 -0.5116 -1.0072
11242SOL     OW36617   0.701   0.641   3.415 -0.2272  0.3406  0.7483
11242SOL    HW136618   0.771   0.597   3.367 -1.6923 -1.4741  0.1129
11242SOL    HW236619   0.733   0.647   3.505  0.5822 -0.8264  0.5633
11243SOL     OW36620   7.379   5.639   5.965 -0.5888  0.4580  0.1847
11243SOL    HW136621   7.400   5.650   6.058 -0.2895  0.8738  0.0705
11243SOL    HW236622   7.327   5.716   5.943 -0.2306  0.6169 -0.1156
11244SOL     OW36623   6.406   0.372   8.740 -0.6134  0.5015  0.1585
11244SOL    HW136624   6.406   0.299   8.803 -1.0514  1.1015  0.8688
11244SOL    HW236625   6.370   0.335   8.660  0.9223 -0.5607 -0.0954
11245SOL     OW36626   0.656   6.544   3.132  0.5084 -0.4438 -0.2386
11245SOL    HW136627   0.677   6.548   3.039  1.2461  0.6923 -0.0453
11245SOL    HW236628   0.709   6.472   3.165 -0.1585 -1.2031 -0.7781
11246SOL     OW36629   4.332   9.008   3.274 -0.3120 -0.2636 -0.1280
11246SOL    HW136630   4.371   9.030   3.359  0.4094 -3.9065  0.6723
11246SOL    HW236631   4.249   8.966   3.296 -1.3793  1.0719 -1.4406
11247SOL     OW36632   6.790   3.609   2.885 -0.1342 -0.0557 -0.2285
11247SOL    HW136633   6.864   3.668   2.869 -0.4530  0.5534  0.4560
11247SOL    HW236634   6.765   3.627   2.975 -0.4723 -0.9949 -0.1290
11248SOL     OW36635   3.688   2.182   6.398 -0.2404  0.0854 -0.3727
11248SOL    HW136636   3.641   2.100   6.413  0.7821 -0.5276 -0.4436
11248SOL    HW236637   3.700   2.219   6.485 -0.4821  0.0291 -0.3158
11249SOL     OW36638   4.000   6.931   7.337 -0.0970  0.2654 -0.3308
11249SOL    HW136639   4.019   6.839   7.322 -1.5102  0.0522 -0.9559
11249SOL    HW236640   3.981   6.966   7.249  1.9255  1.5452 -0.3420
11250SOL     OW36641   3.198   4.074   8.566  0.2578  0.1371  0.1509
11250SOL    HW136642   3.221   4.113   8.482  0.5623 -0.1208  0.1153
11250SOL    HW236643   3.119   4.022   8.547  1.7570 -2.0162 -0.5634
11251SOL     OW36644   0.532   7.043   3.133 -0.1411 -0.2965 -0.3634
11251SOL    HW136645   0.574   6.973   3.183 -0.2618  1.3852  2.2942
11251SOL    HW236646   0.446   7.008   3.111  0.8299 -2.0182 -1.7249
11252SOL     OW36647   2.252   1.758   3.133 -0.3342  0.8057 -0.3957
11252SOL    HW136648   2.161   1.735   3.150 -0.5784  1.9720 -0.0286
11252SOL    HW236649   2.275   1.709   3.055 -0.7934 -0.7028  0.3821
11253SOL     OW36650   5.707   8.925   6.161  0.4664  0.0346  0.3109
11253SOL    HW136651   5.667   8.862   6.102  0.9583 -1.0890  1.1408
11253SOL    HW236652   5.794   8.940   6.125  0.5758 -0.2520  0.4486
11254SOL     OW36653   5.520   0.566   2.427 -0.5790  0.1112 -0.0628
11254SOL    HW136654   5.516   0.632   2.358  0.2363 -0.2729 -0.4965
11254SOL    HW236655   5.493   0.484   2.385 -5.2570  0.6528  1.2897
11255SOL     OW36656   0.103   5.714   1.494  0.3106 -0.2014  0.2044
11255SOL    HW136657   0.184   5.760   1.514 -0.5654  0.7599  1.7016
11255SOL    HW236658   0.034   5.770   1.528 -1.0664 -0.6699 -1.6195
11256SOL     OW36659   5.263   5.007   8.589 -0.2791  0.2566 -0.1301
11256SOL    HW136660   5.278   4.924   8.544 -2.8604  0.2724 -1.1975
11256SOL    HW236661   5.348   5.050   8.588  1.0991 -2.2486  0.2942
11257SOL     OW36662   2.635   4.792   7.439 -0.0547  0.0401 -0.0728
11257SOL    HW136663   2.561   4.819   7.494  0.4770  3.1874 -0.6643
11257SOL    HW236664   2.614   4.703   7.411 -1.9305 -0.4220  2.4957
11258SOL     OW36665   8.518   2.370   5.145  0.7581  0.5353 -0.1825
11258SOL    HW136666   8.484   2.319   5.072  0.3138 -0.6293  0.7947
11258SOL    HW236667   8.514   2.461   5.116  0.5865  0.0990 -1.5847
11259SOL     OW36668   7.499   1.789   6.912  0.1946 -0.2571 -0.0467
11259SOL    HW136669   7.527   1.778   6.821 -1.9413 -1.0585 -0.6584
11259SOL    HW236670   7.507   1.702   6.951  0.5330 -0.0421  0.3748
11260SOL     OW36671   5.064   5.906   4.031  0.5993  0.0938  0.0219
11260SOL    HW136672   5.136   5.906   3.968  0.7104 -1.1567  0.1135
11260SOL    HW236673   5.043   5.998   4.044  0.6892  0.3988 -1.7192
11261SOL     OW36674   1.596   6.231   6.769  0.7276  0.0780  0.3455
11261SOL    HW136675   1.592   6.324   6.792  0.7763  0.3316 -0.6095
11261SOL    HW236676   1.530   6.189   6.823 -0.4979  0.9424 -0.4415
11262SOL     OW36677   7.174   4.666   0.112 -0.3515  0.1532 -0.0545
11262SOL    HW136678   7.220   4.583   0.105 -0.9127 -0.3049  1.2589
11262SOL    HW236679   7.243   4.732   0.116  0.1021 -0.2666 -0.8991
11263SOL     OW36680   5.651   5.011   2.995 -0.5457  0.1967  0.5592
11263SOL    HW136681   5.679   4.964   2.916 -1.9382  1.8859 -1.0153
11263SOL    HW236682   5.698   4.967   3.066  0.5655 -1.5627 -1.1488
11264SOL     OW36683   0.965   6.095   4.019 -0.3479  0.4037  0.0403
11264SOL    HW136684   1.022   6.061   4.088 -1.3712 -0.6438  0.4125
11264SOL    HW236685   0.981   6.189   4.019  1.1236  0.1815  0.3456
11265SOL     OW36686   4.504   1.634   8.497 -0.2004  0.2448 -0.1225
11265SOL    HW136687   4.544   1.604   8.415 -0.7913 -0.1067 -0.2896
11265SOL    HW236688   4.516   1.561   8.558 -0.4036  0.2179 -0.1135
11266SOL     OW36689   2.957   1.029   0.213  0.0082  0.6655 -0.5681
11266SOL    HW136690   2.868   1.026   0.248  0.3935  0.3910  0.4015
11266SOL    HW236691   2.971   0.941   0.177 -0.0153  0.6283 -0.4859
11267SOL     OW36692   0.561   1.460   5.088  0.0701  0.2444  0.4175
11267SOL    HW136693   0.556   1.411   5.171  0.0296  0.7428  0.7135
11267SOL    HW236694   0.653   1.484   5.081 -0.2157  1.6040  1.1441
11268SOL     OW36695   5.817   4.356   3.628  0.2506  0.1019 -0.2324
11268SOL    HW136696   5.826   4.332   3.536  1.6097  0.1281 -0.1295
11268SOL    HW236697   5.902   4.393   3.652 -0.0777  0.0982  1.0331
11269SOL     OW36698   2.455   8.292   2.532 -0.5075  0.0541  0.0295
11269SOL    HW136699   2.380   8.250   2.491 -0.2393  0.0147 -0.4242
11269SOL    HW236700   2.531   8.242   2.501 -0.2260  0.5854 -0.1539
11270SOL     OW36701   9.132   3.835   5.736 -0.4497 -0.3368 -0.3905
11270SOL    HW136702   9.082   3.797   5.664  0.6837  0.3673 -1.5912
11270SOL    HW236703   9.217   3.792   5.732 -0.4144 -0.3878  0.6258
11271SOL     OW36704   3.982   7.628   6.550 -0.2429 -0.1577  0.2644
11271SOL    HW136705   3.897   7.588   6.533  1.2451 -3.2137 -0.7327
11271SOL    HW236706   4.019   7.644   6.463  0.6514  0.0487  0.6737
11272SOL     OW36707   7.432   2.109   4.275 -0.2866  0.1817  0.2385
11272SOL    HW136708   7.390   2.164   4.342  0.7179 -0.2068  1.2197
11272SOL    HW236709   7.523   2.138   4.275  0.4027 -1.8439  1.1755
11273SOL     OW36710   6.448   8.443   6.876 -0.3571  0.3820  0.9557
11273SOL    HW136711   6.517   8.510   6.879  0.5092 -0.4985  0.9302
11273SOL    HW236712   6.477   8.375   6.936 -0.2463 -0.9063 -0.5066
11274SOL     OW36713   0.687   8.189   0.749 -0.5275 -0.8019  0.1970
11274SOL    HW136714   0.617   8.214   0.688  0.3080 -0.4098 -0.6363
11274SOL    HW236715   0.758   8.251   0.730 -0.2093 -0.7406  1.5087
11275SOL     OW36716   0.933   8.524   6.300  0.0096 -0.8362 -0.0402
11275SOL    HW136717   0.958   8.461   6.233 -2.1463 -0.8215 -0.9462
11275SOL    HW236718   0.864   8.480   6.351 -0.6530  0.3085  0.1026
11276SOL     OW36719   3.664   6.473   8.063  0.1043  0.7681 -0.0456
11276SOL    HW136720   3.737   6.412   8.052 -0.7605 -0.2975  0.0007
11276SOL    HW236721   3.656   6.517   7.978  1.2017  1.3690  0.1474
11277SOL     OW36722   9.243   1.764   6.540 -0.1756  0.1797 -0.0724
11277SOL    HW136723   9.182   1.697   6.510  0.0353  0.3874 -1.0096
11277SOL    HW236724   9.197   1.809   6.611 -0.7736 -0.2034 -0.2108
11278SOL     OW36725   6.077   1.207   7.467 -0.1871  0.0157 -0.4053
11278SOL    HW136726   6.002   1.258   7.434  0.0561 -0.0990 -1.1448
11278SOL    HW236727   6.039   1.122   7.491 -0.2312 -0.1959 -1.1909
11279SOL     OW36728   8.361   8.394   7.793 -0.2335 -0.1468  0.0755
11279SOL    HW136729   8.283   8.345   7.768 -0.0156 -0.1800 -0.5548
11279SOL    HW236730   8.404   8.415   7.710 -0.9379  2.1509  0.2167
11280SOL     OW36731   3.445   1.976   8.662 -0.8038  0.7286  0.1541
11280SOL    HW136732   3.360   1.985   8.706 -1.2421 -0.9743 -0.2835
11280SOL    HW236733   3.423   1.946   8.574  0.2167  1.3956 -0.3504
11281SOL     OW36734   4.841   6.775   1.349 -0.0817 -0.0748 -0.1328
11281SOL    HW136735   4.798   6.731   1.422 -0.4923  0.6706  0.0773
11281SOL    HW236736   4.769   6.807   1.294  0.1972 -1.8868 -1.6615
11282SOL     OW36737   7.415   2.375   7.906  0.1734 -0.2619 -0.3606
11282SOL    HW136738   7.437   2.293   7.862 -0.0168 -0.1827 -0.6082
11282SOL    HW236739   7.347   2.351   7.968 -1.1112 -0.0067 -1.6158
11283SOL     OW36740   5.033   6.507   8.354 -0.0395 -0.7149 -0.1080
11283SOL    HW136741   5.080   6.543   8.279  0.4853 -0.9367  0.1055
11283SOL    HW236742   4.942   6.502   8.326  0.0180 -0.0382 -0.4444
11284SOL     OW36743   9.081   5.514   4.886  0.2131 -0.1944 -0.9165
11284SOL    HW136744   9.090   5.606   4.911  1.3163 -0.4722 -0.1891
11284SOL    HW236745   9.048   5.471   4.965  0.8259 -0.6007 -0.8736
11285SOL     OW36746   2.866   0.454   8.112  0.4041 -0.1161 -0.0734
11285SOL    HW136747   2.939   0.392   8.109 -0.6058 -1.2894 -2.1263
11285SOL    HW236748   2.793   0.403   8.147  0.7569  1.3950  3.2591
11286SOL     OW36749   4.779   4.334   1.409  0.5051  0.1792  0.3290
11286SOL    HW136750   4.720   4.260   1.397 -0.2262  0.4247  2.1401
11286SOL    HW236751   4.866   4.297   1.397  0.0976 -0.6954 -0.0385
11287SOL     OW36752   0.560   4.004   7.903 -0.0757  0.1634 -0.7408
11287SOL    HW136753   0.596   3.964   7.982  1.4573 -1.1535 -2.0179
11287SOL    HW236754   0.629   3.992   7.837 -0.7681  2.3577 -1.9567
11288SOL     OW36755   3.098   9.108   0.555 -0.3780 -0.1283  0.0531
11288SOL    HW136756   3.187   9.101   0.588 -0.1325 -0.5615 -0.6897
11288SOL    HW236757   3.090   9.038   0.491 -0.5920  1.1258 -1.3564
11289SOL     OW36758   0.482   2.790   1.156  0.4471 -0.0055 -0.1257
11289SOL    HW136759   0.435   2.859   1.202 -0.1624 -0.0379 -0.6982
11289SOL    HW236760   0.469   2.712   1.209  0.3732  0.1171  0.0358
11290SOL     OW36761   3.410   1.753   2.785 -0.5956 -0.0977  0.7172
11290SOL    HW136762   3.387   1.669   2.824 -0.9428 -0.5533 -0.4178
11290SOL    HW236763   3.326   1.799   2.777 -0.6490 -0.3251 -0.1699
11291SOL     OW36764   0.905   4.724   5.163 -0.2688 -0.0331  0.0432
11291SOL    HW136765   0.911   4.740   5.068 -1.3741  0.8287  0.1061
11291SOL    HW236766   0.828   4.668   5.173 -1.2031  1.3017  0.5719
11292SOL     OW36767   3.524   2.470   6.938  0.1423  0.0646 -0.3625
11292SOL    HW136768   3.535   2.562   6.912  1.2868 -0.2465 -1.0173
11292SOL    HW236769   3.613   2.437   6.949 -0.2510 -1.0745 -0.5090
11293SOL     OW36770   7.049   1.234   6.824 -0.1462 -0.1158 -0.4029
11293SOL    HW136771   7.078   1.252   6.914  0.3192 -1.3093 -0.3057
11293SOL    HW236772   6.954   1.226   6.831 -0.1044 -0.2893  0.0044
11294SOL     OW36773   3.269   0.124   3.674 -0.0556 -0.2165 -0.3345
11294SOL    HW136774   3.204   0.185   3.641 -1.0311 -1.5516 -0.9454
11294SOL    HW236775   3.220   0.062   3.728  0.4814 -1.8700 -1.6318
11295SOL     OW36776   6.729   6.281   0.431 -0.1925 -0.2011 -0.6014
11295SOL    HW136777   6.709   6.286   0.524 -1.6006 -2.9530 -0.6750
11295SOL    HW236778   6.776   6.363   0.413 -0.5298  0.7656  2.3186
11296SOL     OW36779   1.265   4.958   5.780  0.3495 -0.1509  0.6907
11296SOL    HW136780   1.307   4.880   5.744  1.0359  0.5586 -0.0972
11296SOL    HW236781   1.268   5.022   5.708 -0.1291  0.6233  1.3422
11297SOL     OW36782   3.772   3.546   2.852  0.1305  0.0916  0.7440
11297SOL    HW136783   3.813   3.592   2.779  2.0310 -0.6867  1.2581
11297SOL    HW236784   3.807   3.589   2.930 -0.0998 -0.5631  1.2171
11298SOL     OW36785   7.312   8.427   5.587 -0.1695  0.2224 -0.1988
11298SOL    HW136786   7.312   8.332   5.574 -0.0723  0.2819 -0.6455
11298SOL    HW236787   7.399   8.455   5.559 -0.4628  0.5410 -0.8208
11299SOL     OW36788   3.811   5.420   7.887  0.0692 -0.0288  0.1054
11299SOL    HW136789   3.764   5.343   7.855  0.9604  0.0934 -1.6140
11299SOL    HW236790   3.891   5.384   7.926  1.7647  0.0368 -2.9817
11300SOL     OW36791   5.529   6.567   9.040  0.2889 -0.5113  0.4511
11300SOL    HW136792   5.464   6.504   9.073  1.1805 -1.3903  0.5934
11300SOL    HW236793   5.483   6.613   8.970  0.1426 -2.6528 -0.9813
11301SOL     OW36794   0.214   2.917   2.371  0.5295 -0.0444 -0.1866
11301SOL    HW136795   0.182   2.945   2.285  1.8280  0.9291 -0.3764
11301SOL    HW236796   0.227   2.823   2.363  1.8072  0.2139 -1.4634
11302SOL     OW36797   0.468   4.028   6.122  0.2457 -0.6337  0.3861
11302SOL    HW136798   0.450   4.121   6.136  0.5458 -0.6207  0.7077
11302SOL    HW236799   0.513   4.024   6.037 -0.5230 -0.5799 -0.0310
11303SOL     OW36800   2.686   5.376   2.373  0.3214  0.2674  0.2941
11303SOL    HW136801   2.746   5.402   2.443  0.3494  1.1355 -0.0401
11303SOL    HW236802   2.742   5.335   2.307  0.4323  0.3495  0.3373
11304SOL     OW36803   6.155   6.958   4.170  0.2507  0.7650  0.0432
11304SOL    HW136804   6.179   7.032   4.225  1.4805  0.4456 -0.0408
11304SOL    HW236805   6.231   6.944   4.114 -0.5997  0.4670 -1.0813
11305SOL     OW36806   3.661   1.419   7.157 -0.0756  0.6431  0.3508
11305SOL    HW136807   3.727   1.443   7.092 -0.5299  1.3113  0.1201
11305SOL    HW236808   3.644   1.326   7.142 -1.1889  1.0841 -1.4525
11306SOL     OW36809   5.926   4.502   1.950  0.4426  0.0098  0.5434
11306SOL    HW136810   5.846   4.450   1.949  0.9018 -0.7255  1.1005
11306SOL    HW236811   5.945   4.516   2.043  0.2801  1.2573  0.4042
11307SOL     OW36812   0.675   6.902   2.176  0.1548 -0.1125 -0.0572
11307SOL    HW136813   0.681   6.807   2.171  1.0087 -0.0740 -0.0317
11307SOL    HW236814   0.625   6.927   2.099  1.0218 -0.5113 -0.7727
11308SOL     OW36815   8.213   5.456   0.255  0.3048 -0.1882 -0.1025
11308SOL    HW136816   8.187   5.538   0.211 -0.1218  0.2891  1.0141
11308SOL    HW236817   8.199   5.389   0.189 -1.2999  0.3875 -0.3965
11309SOL     OW36818   7.364   2.834   5.861 -0.4547 -0.0729  0.1586
11309SOL    HW136819   7.300   2.881   5.915 -1.1771 -0.9360  0.0757
11309SOL    HW236820   7.317   2.814   5.780  0.2311  0.1192 -0.2932
11310SOL     OW36821   4.241   6.189   2.036  0.2185  0.0083 -0.3697
11310SOL    HW136822   4.304   6.163   1.969 -0.2166  2.2257 -1.7372
11310SOL    HW236823   4.220   6.107   2.082 -0.0242 -1.7941 -3.4030
11311SOL     OW36824   2.752   5.110   7.813 -0.0462 -0.0508 -0.0997
11311SOL    HW136825   2.744   5.199   7.848 -0.3486  0.6677 -1.8869
11311SOL    HW236826   2.665   5.071   7.829  0.1435 -0.1153  0.8508
11312SOL     OW36827   5.787   0.055   8.413 -0.8946 -0.3893 -0.1316
11312SOL    HW136828   5.718   0.046   8.347 -1.0218 -3.7754  0.2858
11312SOL    HW236829   5.831  -0.030   8.414  0.7206  0.3482  2.4145
11313SOL     OW36830   8.778   5.877   2.687  0.1457 -0.1068  0.0815
11313SOL    HW136831   8.730   5.959   2.695  0.5170  0.5065 -3.0378
11313SOL    HW236832   8.771   5.837   2.774  0.6754  3.5806  2.0040
11314SOL     OW36833   3.164   1.322   7.346 -0.0368 -0.0653  0.2480
11314SOL    HW136834   3.080   1.316   7.300 -0.1101  1.1884  0.1915
11314SOL    HW236835   3.156   1.261   7.419 -1.3576  0.6977  0.7763
11315SOL     OW36836   3.543   6.378   9.145  0.2235  0.1806 -0.5165
11315SOL    HW136837   3.525   6.430   9.066  1.3517  0.4405 -0.6249
11315SOL    HW236838   3.492   6.298   9.133  0.4259  0.1916 -1.5462
11316SOL     OW36839   2.201   5.278   2.272 -0.0521 -0.0020  0.2796
11316SOL    HW136840   2.206   5.281   2.176 -0.4336 -1.3399  0.2073
11316SOL    HW236841   2.293   5.272   2.299  0.0216 -0.3412 -0.0321
11317SOL     OW36842   2.687   7.784   3.738 -0.2595  0.5972 -0.5773
11317SOL    HW136843   2.644   7.745   3.814 -1.2551 -0.5577 -1.6944
11317SOL    HW236844   2.734   7.860   3.773  2.2117 -1.8043  1.7969
11318SOL     OW36845   5.878   6.819   2.521  0.5542 -0.6440  0.0306
11318SOL    HW136846   5.903   6.728   2.534 -0.8514 -0.9540  0.8839
11318SOL    HW236847   5.935   6.869   2.580  0.3812 -1.1235  0.6074
11319SOL     OW36848   5.340   3.967   0.443  0.4772 -0.0493  0.1649
11319SOL    HW136849   5.344   3.907   0.518 -0.4310 -0.0239  0.2458
11319SOL    HW236850   5.267   4.025   0.463  1.1569  0.9028 -0.0578
11320SOL     OW36851   3.065   1.530   5.732 -0.0311 -0.1551 -0.0297
11320SOL    HW136852   3.073   1.511   5.638  1.3976 -1.0465  0.2454
11320SOL    HW236853   3.089   1.622   5.740  2.4518 -0.7185 -0.2655
11321SOL     OW36854   5.571   5.310   3.457  0.4549  1.0252  0.2271
11321SOL    HW136855   5.576   5.217   3.479  3.1030  0.5285 -1.9935
11321SOL    HW236856   5.545   5.352   3.539 -2.9152 -1.7540  0.8402
11322SOL     OW36857   0.121   5.861   6.394  0.4453 -0.2789 -0.0070
11322SOL    HW136858   0.077   5.946   6.390 -1.3603 -1.2227 -2.0193
11322SOL    HW236859   0.214   5.882   6.392  0.0904  1.6787  1.2688
11323SOL     OW36860   2.038   3.009   7.110 -0.1818 -0.2279  0.2670
11323SOL    HW136861   2.107   2.966   7.061 -0.2612  0.2792 -0.2963
11323SOL    HW236862   1.985   2.937   7.145  1.2362 -0.6676  1.6352
11324SOL     OW36863   6.805   6.240   7.634 -0.0537  0.0634  0.3059
11324SOL    HW136864   6.765   6.317   7.594 -0.1405 -0.5183 -0.7658
11324SOL    HW236865   6.731   6.183   7.655  0.1325 -1.0897 -1.8363
11325SOL     OW36866   6.210   3.316   2.409 -0.5101  0.1253  0.0695
11325SOL    HW136867   6.272   3.254   2.446 -2.0557 -0.6141  1.5600
11325SOL    HW236868   6.189   3.281   2.322  1.7597  0.8706 -0.8393
11326SOL     OW36869   5.311   3.610   4.293 -0.0082 -0.7785  0.0700
11326SOL    HW136870   5.344   3.694   4.327  1.3917 -1.5685  0.7598
11326SOL    HW236871   5.303   3.624   4.199  1.6932 -0.3078 -0.0500
11327SOL     OW36872   8.473   2.047   6.579 -0.1518  0.2327 -0.4929
11327SOL    HW136873   8.377   2.043   6.582 -0.1417  0.5344  0.5621
11327SOL    HW236874   8.501   1.956   6.584 -0.3527  0.2336  2.0915
11328SOL     OW36875   9.155   3.849   7.294 -0.3678  0.4014  0.7494
11328SOL    HW136876   9.141   3.754   7.289 -2.4032  0.5639  2.1316
11328SOL    HW236877   9.225   3.859   7.359  0.8516 -0.1597 -0.4218
11329SOL     OW36878   4.570   6.120   5.347 -0.0050  0.0211  0.4170
11329SOL    HW136879   4.497   6.177   5.367  1.2877  1.7152  0.4851
11329SOL    HW236880   4.643   6.155   5.398  0.9910 -1.3141 -0.0265
11330SOL     OW36881   4.188   6.982   8.123 -0.0288  0.2292  0.2626
11330SOL    HW136882   4.273   6.985   8.168 -0.6875  0.6206  1.5161
11330SOL    HW236883   4.195   7.049   8.055  0.0928  1.4714  1.4503
11331SOL     OW36884   7.043   8.127   4.166  0.3257 -0.3844  0.1987
11331SOL    HW136885   7.124   8.078   4.180  0.1270 -0.7188  0.1817
11331SOL    HW236886   7.052   8.204   4.223  0.0691 -1.1102  1.2653
11332SOL     OW36887   8.845   7.607   6.490 -0.2139  0.1408  0.0198
11332SOL    HW136888   8.812   7.622   6.579 -1.8725 -0.7999 -0.3957
11332SOL    HW236889   8.907   7.678   6.475  1.0490 -0.3688  2.3649
11333SOL     OW36890   3.222   7.838   9.093  0.3379  0.3997 -0.3736
11333SOL    HW136891   3.291   7.788   9.137 -0.0437  1.7216  1.8685
11333SOL    HW236892   3.243   7.831   9.000  1.9962 -1.3760  0.0799
11334SOL     OW36893   2.980   9.110   4.074 -0.0288 -0.5924 -0.2610
11334SOL    HW136894   3.032   9.159   4.010 -1.3779  0.8751 -0.2895
11334SOL    HW236895   3.043   9.083   4.141  0.7263  1.5295 -0.0479
11335SOL     OW36896   7.509   1.737   4.497 -0.2453  0.3597  0.7061
11335SOL    HW136897   7.525   1.823   4.459  0.4161 -0.4303 -0.9349
11335SOL    HW236898   7.581   1.683   4.464 -1.7393 -1.3130 -0.0216
11336SOL     OW36899   5.949   6.185   6.891  0.0568  0.0640 -0.5142
11336SOL    HW136900   6.044   6.185   6.891  0.0782 -0.2319 -1.7590
11336SOL    HW236901   5.924   6.159   6.980  1.1172  1.1742  0.1216
11337SOL     OW36902   5.930   1.541   9.228  0.0597 -0.5833  0.3276
11337SOL    HW136903   5.835   1.539   9.235  0.0950 -0.8265  0.7716
11337SOL    HW236904   5.947   1.560   9.136 -0.4209 -1.4118  0.0576
11338SOL     OW36905   5.670   5.268   2.162 -0.3777 -0.5450  0.3021
11338SOL    HW136906   5.629   5.351   2.187 -0.5908  0.1380 -2.0337
11338SOL    HW236907   5.759   5.274   2.195 -0.0124  1.1927 -0.8644
11339SOL     OW36908   0.451   1.863   8.802 -0.1470 -0.0747  0.5605
11339SOL    HW136909   0.501   1.783   8.789 -0.6840 -0.2688 -0.3448
11339SOL    HW236910   0.369   1.834   8.843  0.3574  0.2198  1.8461
11340SOL     OW36911   5.783   4.365   7.207  0.4723 -0.3110 -0.3526
11340SOL    HW136912   5.702   4.361   7.257  0.5305 -0.4428 -0.2699
11340SOL    HW236913   5.798   4.275   7.177  1.2633 -0.5477  0.6979
11341SOL     OW36914   6.517   5.854   0.925 -0.3447 -0.0533  0.0941
11341SOL    HW136915   6.490   5.943   0.901 -1.1007 -0.2446  0.2230
11341SOL    HW236916   6.612   5.854   0.913 -0.5960 -0.0197 -2.5683
11342SOL     OW36917   4.561   1.237   4.430  0.5529 -0.2272  0.4887
11342SOL    HW136918   4.553   1.225   4.336 -1.1849 -1.1605  0.7135
11342SOL    HW236919   4.584   1.151   4.464 -2.1660 -0.7875  1.1807
11343SOL     OW36920   8.830   7.285   4.588  0.5194  0.0677  0.4182
11343SOL    HW136921   8.896   7.250   4.648  1.9526 -0.1435 -1.1959
11343SOL    HW236922   8.747   7.272   4.633  1.4466 -0.9883  1.9117
11344SOL     OW36923   0.916   7.638   7.706 -0.0629  0.3647 -0.1040
11344SOL    HW136924   0.835   7.614   7.661 -1.3029  0.6865  1.8323
11344SOL    HW236925   0.895   7.720   7.749  1.7142  1.0761 -0.5136
11345SOL     OW36926   0.932   5.660   1.845  0.3454  0.2868 -0.4383
11345SOL    HW136927   0.838   5.648   1.829 -0.0538  2.1106  0.2591
11345SOL    HW236928   0.936   5.730   1.910  2.1765 -0.6082  0.4767
11346SOL     OW36929   5.384   3.786   2.135 -0.0822  0.1290 -0.1368
11346SOL    HW136930   5.358   3.795   2.043 -0.1976  2.3767  0.0528
11346SOL    HW236931   5.428   3.869   2.155  0.2708 -0.4729  1.7375
11347SOL     OW36932   1.899   1.817   8.138 -0.0310  0.4669 -0.0649
11347SOL    HW136933   1.970   1.848   8.193 -1.2296 -0.4230  2.0839
11347SOL    HW236934   1.828   1.880   8.152 -1.4989 -1.5447  2.1237
11348SOL     OW36935   3.091   7.415   8.197 -0.1701  0.1109  0.3357
11348SOL    HW136936   3.140   7.338   8.228  1.5500  1.4339  1.0595
11348SOL    HW236937   3.121   7.426   8.107 -1.6076 -0.9413 -0.3123
11349SOL     OW36938   0.608   4.977   2.083 -0.5177  0.2491  0.1280
11349SOL    HW136939   0.598   5.010   2.172 -0.9085 -3.3178  1.5475
11349SOL    HW236940   0.519   4.958   2.054 -0.3526  0.9147 -0.8960
11350SOL     OW36941   0.834   0.709   7.151  0.1830 -0.6487 -0.1046
11350SOL    HW136942   0.840   0.765   7.228  1.9251 -0.3346 -0.4328
11350SOL    HW236943   0.873   0.760   7.080 -1.4534 -0.9022 -1.2506
11351SOL     OW36944   3.188   0.348   5.971  0.2770  0.3790  0.3259
11351SOL    HW136945   3.173   0.414   5.903  2.2345  0.4061 -0.1541
11351SOL    HW236946   3.214   0.399   6.048 -0.1622  0.2577  0.5563
11352SOL     OW36947   7.279   0.007   0.067  0.1482  0.1437 -0.0973
11352SOL    HW136948   7.299   0.028   0.158  0.1868  0.3444 -0.1528
11352SOL    HW236949   7.187  -0.020   0.069 -0.0211  0.7162 -0.0953
11353SOL     OW36950   1.860   5.807   8.237  0.0038 -0.3596  0.7961
11353SOL    HW136951   1.905   5.802   8.322 -0.7254 -3.4397  1.1210
11353SOL    HW236952   1.769   5.824   8.260 -0.0568 -0.3870  0.5695
11354SOL     OW36953   6.271   4.119   2.886 -0.0057 -0.4058  0.4439
11354SOL    HW136954   6.247   4.027   2.878  0.0775 -0.2335 -2.9225
11354SOL    HW236955   6.367   4.120   2.877 -0.0528  0.0568 -0.0434
11355SOL     OW36956   5.500   6.634   0.020 -0.4837 -0.0181 -0.2044
11355SOL    HW136957   5.517   6.719   0.059 -0.6214  0.9493 -2.1365
11355SOL    HW236958   5.553   6.633  -0.060 -0.4678 -1.7696 -0.2228
11356SOL     OW36959   8.333   4.112   2.529  0.0211  0.4099  0.0934
11356SOL    HW136960   8.417   4.107   2.484 -0.5380  1.2148 -1.0804
11356SOL    HW236961   8.268   4.109   2.459 -0.9419 -0.3218  0.9878
11357SOL     OW36962   1.756   6.787   3.472 -0.1374 -0.2320  0.0980
11357SOL    HW136963   1.793   6.798   3.559 -1.9948 -1.1987  1.0666
11357SOL    HW236964   1.685   6.851   3.467 -0.2198 -0.3647 -0.6151
11358SOL     OW36965   2.915   9.213   1.353 -0.2389  0.4419  0.7819
11358SOL    HW136966   2.918   9.240   1.445  3.3596  0.5141  0.7879
11358SOL    HW236967   2.934   9.293   1.303 -0.8486  0.1409  0.0413
11359SOL     OW36968   0.488   0.010   8.132  0.6698 -0.5050  0.3351
11359SOL    HW136969   0.411   0.064   8.115  0.4315 -0.6270  0.9975
11359SOL    HW236970   0.459  -0.054   8.198  1.4916 -0.1722  1.0427
11360SOL     OW36971   8.552   7.812   1.741 -0.4113  0.1275 -0.6902
11360SOL    HW136972   8.601   7.895   1.737  2.5308 -1.5124 -1.4503
11360SOL    HW236973   8.555   7.779   1.652  0.6045 -1.9098  0.0463
11361SOL     OW36974   7.158   7.058   0.534  0.0771  0.2688 -0.5234
11361SOL    HW136975   7.236   7.039   0.482  0.3706 -0.3583  0.1231
11361SOL    HW236976   7.171   7.148   0.564  0.7916  0.0120 -0.0327
11362SOL     OW36977   7.209   0.088   6.687  0.2692  0.1410  0.1337
11362SOL    HW136978   7.179  -0.003   6.697 -1.9597  0.8003 -0.1291
11362SOL    HW236979   7.298   0.080   6.652 -0.7884 -1.9598 -2.4043
11363SOL     OW36980   4.863   4.777   7.350  0.1594 -0.4204 -0.2572
11363SOL    HW136981   4.901   4.825   7.424  0.4767 -2.0089  0.6450
11363SOL    HW236982   4.933   4.720   7.320  0.0730  0.2732 -1.9032
11364SOL     OW36983   1.186   2.366   6.735 -0.1339 -0.5928  0.0705
11364SOL    HW136984   1.099   2.407   6.740  0.6030  1.1744 -0.9569
11364SOL    HW236985   1.247   2.439   6.724  1.5406 -1.7796  1.0664
11365SOL     OW36986   6.025   0.158   2.830  0.4589  0.0474  0.1450
11365SOL    HW136987   6.079   0.089   2.792 -1.3689 -0.2688 -2.0745
11365SOL    HW236988   6.061   0.239   2.794 -1.6912 -0.2859 -3.1532
11366SOL     OW36989   0.453   1.686   0.553 -0.4647 -0.3986 -0.0227
11366SOL    HW136990   0.391   1.753   0.583  2.1952  1.6983  1.2473
11366SOL    HW236991   0.463   1.627   0.628 -1.1234 -0.9294 -0.3431
11367SOL     OW36992   6.012   1.707   1.968  0.3699  0.0979 -0.0633
11367SOL    HW136993   6.103   1.690   1.945  0.3899 -0.2456  0.2575
11367SOL    HW236994   5.990   1.788   1.923  0.9705  0.4245  0.2209
11368SOL     OW36995   7.404   6.452   2.649  0.4992 -0.1736 -0.3587
11368SOL    HW136996   7.320   6.407   2.654  0.1294  0.4630 -0.7907
11368SOL    HW236997   7.389   6.537   2.691  0.2895  0.8517 -2.3783
11369SOL     OW36998   3.165   8.793   6.389  0.1406 -0.0235  0.3106
11369SOL    HW136999   3.255   8.799   6.355  0.2325  2.6271  0.8342
11369SOL    HW237000   3.176   8.762   6.479  0.6874  1.4024  0.7684
11370SOL     OW37001   0.785   7.465   5.763 -0.0347  0.3197 -0.5076
11370SOL    HW137002   0.850   7.428   5.823 -0.8680  1.0341  0.8864
11370SOL    HW237003   0.791   7.560   5.778 -0.3664  0.4991 -1.4645
11371SOL     OW37004   7.551   5.559   5.104  0.5033  0.6356 -0.4805
11371SOL    HW137005   7.474   5.594   5.060 -1.6419 -2.9419  0.0440
11371SOL    HW237006   7.582   5.489   5.046  0.3470 -1.1638  1.5033
11372SOL     OW37007   0.933   5.053   2.503  0.3820 -0.2837  0.0444
11372SOL    HW137008   0.995   4.985   2.477 -0.3645 -1.1576  0.4737
11372SOL    HW237009   0.988   5.126   2.532  1.2071 -0.2197 -1.5591
11373SOL     OW37010   6.932   8.790   0.595 -0.2220  0.1225 -0.4546
11373SOL    HW137011   6.867   8.854   0.622  0.1982  0.7825 -0.9896
11373SOL    HW237012   6.904   8.708   0.638  0.1933  1.0116  1.6441
11374SOL     OW37013   0.470   4.293   3.883  0.3580  0.1629 -0.4485
11374SOL    HW137014   0.459   4.388   3.879 -1.4400  0.1632  1.9409
11374SOL    HW237015   0.445   4.262   3.796 -0.2938  1.7894 -0.8804
11375SOL     OW37016   4.442   1.490   5.200 -0.4753  0.2458  0.0276
11375SOL    HW137017   4.517   1.441   5.167  0.9523  1.5235  1.2223
11375SOL    HW237018   4.395   1.427   5.255 -0.2255 -0.5320 -0.6319
11376SOL     OW37019   6.479   4.240   7.332 -0.3912 -0.2352  0.3642
11376SOL    HW137020   6.455   4.152   7.361 -1.1143  0.2932  1.4455
11376SOL    HW237021   6.427   4.256   7.253  0.6726 -1.2292 -0.5720
11377SOL     OW37022   5.343   0.243   1.698 -0.0798  0.3379 -0.9630
11377SOL    HW137023   5.255   0.255   1.663 -1.1342 -1.3764  0.8934
11377SOL    HW237024   5.374   0.332   1.716 -2.3658  0.9558  0.4361
11378SOL     OW37025   7.265   2.543   6.831  0.2107 -0.3265 -0.2585
11378SOL    HW137026   7.262   2.453   6.864 -0.8815  0.2695  1.3943
11378SOL    HW237027   7.358   2.567   6.836  0.8843 -2.0041 -2.7586
11379SOL     OW37028   5.301   5.461   4.910  0.3696  0.2608  0.4160
11379SOL    HW137029   5.335   5.419   4.831  0.9491  1.0923  0.2038
11379SOL    HW237030   5.372   5.453   4.975  0.0009 -0.1826  0.7666
11380SOL     OW37031   5.990   6.123   5.807  0.4056  0.0302  0.1271
11380SOL    HW137032   5.992   6.040   5.759 -1.1016 -0.0576  0.1835
11380SOL    HW237033   6.080   6.154   5.804  0.9095 -1.3778 -0.3011
11381SOL     OW37034   8.430   3.127   2.012  0.2356 -0.4116 -0.4669
11381SOL    HW137035   8.341   3.159   2.026  0.2661  0.0396 -1.2311
11381SOL    HW237036   8.476   3.201   1.973  1.0986 -0.4709  0.4039
11382SOL     OW37037   1.140   0.747   2.775  0.5380 -0.1179  0.0564
11382SOL    HW137038   1.088   0.813   2.822 -0.7280 -1.1142  0.0967
11382SOL    HW237039   1.102   0.746   2.687 -0.9206 -2.2851  0.6421
11383SOL     OW37040   2.226   4.931   1.450 -0.0518  0.2038  0.2385
11383SOL    HW137041   2.192   4.914   1.538  0.5068 -0.0093  0.4201
11383SOL    HW237042   2.318   4.905   1.455 -0.0964 -0.1142 -0.5019
11384SOL     OW37043   4.634   3.238   8.418  0.8288 -0.2703  0.2682
11384SOL    HW137044   4.614   3.271   8.505  1.7392 -0.4015  0.5454
11384SOL    HW237045   4.681   3.309   8.375  3.7910 -1.4740  1.2533
11385SOL     OW37046   4.654   6.953   8.095  0.1454  0.2048  0.0354
11385SOL    HW137047   4.688   6.869   8.125  0.1919  0.3359  0.3532
11385SOL    HW237048   4.727   6.993   8.048 -0.2719 -0.4812 -1.2385
11386SOL     OW37049   6.346   1.654   3.211 -0.8793  0.1361  0.2570
11386SOL    HW137050   6.422   1.704   3.240  0.0328 -0.4023 -1.1386
11386SOL    HW237051   6.288   1.653   3.288  0.8711 -0.1444  1.6332
11387SOL     OW37052   6.578   3.171   6.395 -0.2468 -0.0951 -0.0821
11387SOL    HW137053   6.582   3.130   6.481 -1.9924 -3.0737 -1.2435
11387SOL    HW237054   6.633   3.116   6.340  1.6339  2.3203 -0.7819
11388SOL     OW37055   2.962   8.965   4.924  0.0108  0.4925 -0.1692
11388SOL    HW137056   2.991   8.899   4.861 -2.5579  0.9791 -1.9938
11388SOL    HW237057   2.942   9.042   4.871 -2.1832  0.9484  1.1968
11389SOL     OW37058   4.412   4.360   9.209 -0.0310  1.0480  0.1177
11389SOL    HW137059   4.504   4.375   9.188  0.0244 -0.2854 -0.7196
11389SOL    HW237060   4.385   4.290   9.149 -0.2483 -2.0350  3.4721
11390SOL     OW37061   6.627   0.974   1.991  0.3970 -0.2107  0.6898
11390SOL    HW137062   6.567   1.023   2.048  0.7354  2.7333 -1.2827
11390SOL    HW237063   6.666   1.040   1.935  1.7993 -2.6715 -1.4483
11391SOL     OW37064   3.836   8.342   5.992 -0.0125  0.4753  0.0471
11391SOL    HW137065   3.790   8.379   5.916  1.1780  2.2885  0.1320
11391SOL    HW237066   3.766   8.307   6.047 -1.2175  2.0589 -0.3778
11392SOL     OW37067   7.768   0.655   8.945 -0.2611 -0.0193 -0.1735
11392SOL    HW137068   7.703   0.692   9.004  0.2148 -0.7795  0.8566
11392SOL    HW237069   7.766   0.712   8.868 -0.3482  1.4672  0.8864
11393SOL     OW37070   5.433   9.168   9.227 -0.2299  0.0854  0.0006
11393SOL    HW137071   5.479   9.084   9.226  1.6350  1.0653 -0.7779
11393SOL    HW237072   5.348   9.149   9.188  0.6537 -1.1873 -1.4329
11394SOL     OW37073   7.731   7.884   5.239  0.1502 -0.0773 -0.3928
11394SOL    HW137074   7.678   7.831   5.299 -0.9529  0.4564 -0.8818
11394SOL    HW237075   7.709   7.851   5.152  1.4882 -0.6103 -0.5611
11395SOL     OW37076   0.988   6.365   3.996 -0.1259  0.1223  0.4365
11395SOL    HW137077   0.916   6.410   3.951  0.6808  0.6334 -0.3879
11395SOL    HW237078   1.020   6.430   4.058  0.8237  0.6033 -0.5203
11396SOL     OW37079   6.155   2.665   2.797 -0.0138 -0.3968 -0.0042
11396SOL    HW137080   6.159   2.677   2.892  0.4611 -1.2317  0.0917
11396SOL    HW237081   6.189   2.746   2.760  0.8559 -0.4908  0.5624
11397SOL     OW37082   4.189   2.885   7.073  0.1920 -0.0547 -0.4313
11397SOL    HW137083   4.188   2.895   7.168 -0.7182 -0.9851 -0.3361
11397SOL    HW237084   4.148   2.965   7.040 -1.5488 -0.6978  0.0704
11398SOL     OW37085   3.327   0.691   9.248  0.1767  0.3448 -0.3854
11398SOL    HW137086   3.322   0.663   9.157  2.4513 -1.1013 -0.1586
11398SOL    HW237087   3.414   0.729   9.257  0.2641 -0.1420  1.2997
11399SOL     OW37088   4.114   4.985   2.713  0.2365  0.2297  0.4857
11399SOL    HW137089   4.144   4.956   2.626 -0.4906 -0.4893  0.4622
11399SOL    HW237090   4.035   5.035   2.696  0.7625  1.1409  0.6460
11400SOL     OW37091   8.966   1.299   6.151  0.6144 -0.0348  0.3721
11400SOL    HW137092   8.904   1.298   6.223 -0.2487 -0.9639 -0.3418
11400SOL    HW237093   8.913   1.279   6.074  1.0006  3.4617 -0.9753
11401SOL     OW37094   6.959   9.020   3.710 -0.0273  0.2043 -0.8244
11401SOL    HW137095   7.022   9.011   3.782 -0.3704  0.4546 -0.4841
11401SOL    HW237096   6.908   8.940   3.712  0.6402 -0.2603 -1.4707
11402SOL     OW37097   8.320   7.029   5.547 -0.4818  0.2709  0.0497
11402SOL    HW137098   8.293   7.119   5.528  0.2026  0.0772 -2.1430
11402SOL    HW237099   8.244   6.976   5.522 -0.3606  0.1499 -0.0617
11403SOL     OW37100   1.090   6.814   5.401 -0.1349 -0.0831  0.4392
11403SOL    HW137101   1.144   6.796   5.324  0.2096 -0.3651  0.7453
11403SOL    HW237102   1.002   6.787   5.375  0.3136 -2.0720  0.8099
11404SOL     OW37103   3.509   2.219   7.901 -0.7025  0.1078  0.3089
11404SOL    HW137104   3.551   2.208   7.816 -0.6623  1.8310  0.0672
11404SOL    HW237105   3.575   2.262   7.955 -1.5385  1.2391  0.4589
11405SOL     OW37106   9.147   0.984   5.182  0.2308  0.9112  0.0676
11405SOL    HW137107   9.190   0.920   5.238 -0.1726  0.5952  0.0267
11405SOL    HW237108   9.180   0.965   5.094  0.3458  0.9625  0.0996
11406SOL     OW37109   2.107   2.020   2.524  0.6139  0.2194 -0.2178
11406SOL    HW137110   2.167   1.978   2.585 -0.2854 -2.4190 -1.0301
11406SOL    HW237111   2.062   2.087   2.577  0.1010 -1.7278  1.9903
11407SOL     OW37112   9.064   4.941   8.455 -0.2660 -0.4979  0.2217
11407SOL    HW137113   9.034   5.013   8.399 -0.8034 -0.1525  0.9321
11407SOL    HW237114   9.001   4.871   8.440 -0.2129 -0.5262  0.1357
11408SOL     OW37115   1.396   4.701   8.857 -0.2967 -0.0573 -0.0963
11408SOL    HW137116   1.317   4.733   8.900 -0.0366  0.2743  0.1341
11408SOL    HW237117   1.383   4.606   8.850 -0.1408 -0.1874  1.1356
11409SOL     OW37118   4.660   1.222   6.472 -0.2729  0.2342 -0.6228
11409SOL    HW137119   4.608   1.301   6.490  1.9501  1.4398  0.9437
11409SOL    HW237120   4.595   1.153   6.460 -2.2635  1.6451  1.2528
11410SOL     OW37121   7.798   6.544   1.718 -0.2031 -0.1610  0.3702
11410SOL    HW137122   7.845   6.567   1.637 -0.7602 -0.6419 -0.0999
11410SOL    HW237123   7.733   6.614   1.728 -0.5260 -0.4073  0.0655
11411SOL     OW37124   1.416   6.895   0.126 -0.2956 -0.4022  0.5775
11411SOL    HW137125   1.322   6.906   0.115 -0.1748 -0.4448 -0.6343
11411SOL    HW237126   1.440   6.957   0.195 -0.8740  1.2516 -0.6513
11412SOL     OW37127   1.809   1.238   6.907 -0.1072  0.0467  0.4491
11412SOL    HW137128   1.747   1.191   6.964 -1.4501 -0.9010 -1.6948
11412SOL    HW237129   1.757   1.264   6.831  1.8903  0.1530 -0.9557
11413SOL     OW37130   6.927   0.743   8.222 -0.1117  0.2245  0.0701
11413SOL    HW137131   6.964   0.655   8.217  1.1263  0.7873 -1.4677
11413SOL    HW237132   6.910   0.767   8.131  0.6683  2.0109  0.3618
11414SOL     OW37133   5.048   5.261   1.882  0.0340  0.4587  0.1454
11414SOL    HW137134   5.078   5.171   1.886  0.7035  0.7071  0.9828
11414SOL    HW237135   5.087   5.303   1.959 -1.8241  0.9965  0.8445
11415SOL     OW37136   2.010   6.830   1.752 -0.3423 -0.2461 -0.2525
11415SOL    HW137137   1.916   6.820   1.769 -0.5654 -1.1745 -1.7998
11415SOL    HW237138   2.050   6.751   1.789  0.0570  0.8433  1.7293
11416SOL     OW37139   0.322   7.367   0.296  0.2933  0.0637 -0.4966
11416SOL    HW137140   0.293   7.288   0.341 -0.7020  0.8546  0.3176
11416SOL    HW237141   0.308   7.437   0.360  2.8492  0.7038 -0.5304
11417SOL     OW37142   2.080   0.781   3.907 -0.1688 -0.0002  0.0280
11417SOL    HW137143   2.092   0.780   4.002  1.4615 -1.6085 -0.1364
11417SOL    HW237144   2.005   0.724   3.891  0.2857 -0.6872  0.2979
11418SOL     OW37145   5.145   8.195   1.305  0.0771 -0.3426  0.4178
11418SOL    HW137146   5.058   8.216   1.337  0.2044 -0.7730  1.0541
11418SOL    HW237147   5.158   8.103   1.327  0.1969 -0.6355 -0.8178
11419SOL     OW37148   5.482   2.154   4.327 -0.2314 -0.0280  0.2549
11419SOL    HW137149   5.407   2.145   4.386 -0.3724  0.2666  0.1225
11419SOL    HW237150   5.468   2.085   4.261 -0.4128  0.0583  0.2015
11420SOL     OW37151   0.353   4.833   2.785  0.3397  0.2089  0.1516
11420SOL    HW137152   0.298   4.899   2.827 -0.4330 -0.1211 -0.3335
11420SOL    HW237153   0.319   4.826   2.696  1.9409  0.8893 -0.5698
11421SOL     OW37154   0.376   7.949   3.028 -0.1079  0.0432 -0.0234
11421SOL    HW137155   0.302   8.007   3.043 -0.1971  0.1689 -0.8812
11421SOL    HW237156   0.385   7.899   3.109 -2.4799 -1.4725 -0.6113
11422SOL     OW37157   8.821   2.667   2.500  0.4246  0.1257  0.0113
11422SOL    HW137158   8.861   2.747   2.533  2.5119  0.3492 -2.7686
11422SOL    HW237159   8.792   2.689   2.412 -2.4510 -1.1819  0.5037
11423SOL     OW37160   1.273   3.173   0.319 -0.1978  0.4083  0.4230
11423SOL    HW137161   1.223   3.178   0.238  0.3948 -1.6705 -0.1436
11423SOL    HW237162   1.290   3.264   0.343 -0.7383  1.0758 -1.5564
11424SOL     OW37163   2.688   9.051   1.412 -0.2103  0.6989  0.3258
11424SOL    HW137164   2.649   9.085   1.332 -1.5523 -2.9001 -0.7507
11424SOL    HW237165   2.782   9.066   1.401 -0.1223 -1.2330 -2.9068
11425SOL     OW37166   5.970   3.837   2.300  0.2612  0.5080  0.0640
11425SOL    HW137167   5.924   3.766   2.255  1.2586  0.2222 -0.5324
11425SOL    HW237168   6.050   3.851   2.248  1.4825  0.1265  1.7694
11426SOL     OW37169   8.367   0.082   2.738  0.2395 -0.1161 -0.2450
11426SOL    HW137170   8.386   0.026   2.662  0.1977  0.6520 -0.8327
11426SOL    HW237171   8.350   0.168   2.701 -0.0188  0.2215  0.6269
11427SOL     OW37172   7.408   4.364   5.765  0.6683 -0.2908  0.4713
11427SOL    HW137173   7.334   4.336   5.711 -0.3414 -0.2981  1.7742
11427SOL    HW237174   7.483   4.316   5.731  0.1792  0.0662 -1.1906
11428SOL     OW37175   1.397   1.998   1.224 -0.1763 -0.8753  0.1549
11428SOL    HW137176   1.343   1.926   1.193 -2.3341  1.3910 -1.8209
11428SOL    HW237177   1.337   2.073   1.227  2.8054  1.8652 -2.2154
11429SOL     OW37178   4.285   8.217   2.917  0.0648 -0.9188 -0.4925
11429SOL    HW137179   4.249   8.194   3.003  2.0786 -0.5195  0.5176
11429SOL    HW237180   4.369   8.258   2.937  1.2115 -2.0195 -2.7236
11430SOL     OW37181   6.976   4.665   6.616  0.3373  0.0250  0.1599
11430SOL    HW137182   6.932   4.749   6.625 -2.7160 -1.5354  1.0370
11430SOL    HW237183   7.064   4.680   6.649 -1.1983  2.0443  3.8643
11431SOL     OW37184   6.497   5.894   5.503  0.3113 -0.0465  0.3201
11431SOL    HW137185   6.474   5.909   5.595 -0.6173 -2.2626  0.5107
11431SOL    HW237186   6.424   5.931   5.454  0.3086  0.2079  0.5114
11432SOL     OW37187   3.464   4.616   1.900  0.0399 -0.6419 -0.4510
11432SOL    HW137188   3.545   4.643   1.943 -0.6666  0.5423  0.1673
11432SOL    HW237189   3.403   4.597   1.971 -0.2504 -1.5266 -0.9096
11433SOL     OW37190   8.392   5.165   4.163 -0.3478  0.4063 -0.3170
11433SOL    HW137191   8.332   5.091   4.176 -1.1340  1.1322  0.3013
11433SOL    HW237192   8.449   5.165   4.240 -1.3000  1.2971  0.4145
11434SOL     OW37193   1.482   5.102   0.883  0.1107  0.1242 -0.5365
11434SOL    HW137194   1.521   5.188   0.868  0.7655 -0.2961 -1.3172
11434SOL    HW237195   1.427   5.114   0.960  1.5750  0.8111  0.4527
11435SOL     OW37196   2.344   0.298   2.797  0.1078 -0.6868  0.1673
11435SOL    HW137197   2.300   0.310   2.881  0.9185  0.3772  0.4704
11435SOL    HW237198   2.297   0.357   2.738  0.7389  0.0299  0.3589
11436SOL     OW37199   1.842   2.319   4.610 -0.7804 -0.4836 -0.4089
11436SOL    HW137200   1.823   2.228   4.631  0.4141 -0.4041  1.3126
11436SOL    HW237201   1.895   2.315   4.530 -0.4541 -1.3379 -0.1598
11437SOL     OW37202   0.833   8.662   6.689 -0.1858  0.5075 -0.0564
11437SOL    HW137203   0.928   8.673   6.695  0.0514 -1.0390 -0.7050
11437SOL    HW237204   0.819   8.568   6.700 -1.6604  0.7311  0.1126
11438SOL     OW37205   9.193   8.620   2.918  0.3589 -0.3502 -0.2614
11438SOL    HW137206   9.144   8.603   2.998 -0.7889  0.4658 -0.7763
11438SOL    HW237207   9.285   8.621   2.946  0.0111 -0.6312  0.9328
11439SOL     OW37208   0.014   1.174   3.917  0.0585 -0.1624  0.2445
11439SOL    HW137209  -0.020   1.088   3.891 -0.1533  0.1369 -0.5021
11439SOL    HW237210  -0.064   1.228   3.932  0.1064  0.8484 -2.5598
11440SOL     OW37211   7.295   0.995   0.825  0.4463  0.3366 -0.2578
11440SOL    HW137212   7.256   0.994   0.913  0.9008 -0.5926 -0.0572
11440SOL    HW237213   7.234   0.945   0.771  1.6658 -1.7661  0.2159
11441SOL     OW37214   3.602   3.181   8.005  0.2019  0.7444 -0.5754
11441SOL    HW137215   3.584   3.257   7.949 -0.3297  0.5514 -0.6714
11441SOL    HW237216   3.697   3.173   8.005  0.1981  0.6413 -1.5835
11442SOL     OW37217   2.375   2.069   1.158 -0.1136 -0.4277  0.5964
11442SOL    HW137218   2.332   2.153   1.177  0.6435  0.2069 -0.3810
11442SOL    HW237219   2.346   2.047   1.069  0.7540 -0.5088  0.3258
11443SOL     OW37220   5.385   6.183   3.921 -0.1295 -0.2889 -0.6083
11443SOL    HW137221   5.379   6.164   4.015 -1.1536 -0.3112 -0.6768
11443SOL    HW237222   5.451   6.122   3.888 -1.1424 -1.6166 -0.2556
11444SOL     OW37223   6.168   1.855   3.040 -0.1121 -0.6083  0.5964
11444SOL    HW137224   6.129   1.920   2.981 -0.7466 -1.6289 -0.1286
11444SOL    HW237225   6.167   1.773   2.991  5.4479 -0.3125 -0.6278
11445SOL     OW37226   8.388   4.337   2.131 -0.0739  0.0017  0.7766
11445SOL    HW137227   8.465   4.359   2.183 -1.1299 -0.3812  2.6058
11445SOL    HW237228   8.391   4.397   2.056  1.7942  0.2070  0.9727
11446SOL     OW37229   9.020   1.132   8.962  0.1074  0.1573  0.2574
11446SOL    HW137230   8.978   1.120   9.047  1.5460 -2.1035  0.7397
11446SOL    HW237231   9.113   1.118   8.979  0.5397  0.5440 -1.5512
11447SOL     OW37232   1.770   7.203   1.743 -0.4514  0.5842  0.3428
11447SOL    HW137233   1.735   7.118   1.717  0.7497  0.3832 -0.7050
11447SOL    HW237234   1.824   7.185   1.820  1.1048  0.0872 -0.8167
11448SOL     OW37235   0.615   7.500   1.572  0.1457 -0.3546 -0.2232
11448SOL    HW137236   0.652   7.571   1.624  1.2678 -1.2162  0.1897
11448SOL    HW237237   0.573   7.544   1.498 -2.2294  0.9813  1.7345
11449SOL     OW37238   7.843   3.762   3.160  0.3140  0.2670 -0.4025
11449SOL    HW137239   7.813   3.769   3.251  0.3153  1.1045 -0.4545
11449SOL    HW237240   7.831   3.850   3.124  0.4126 -0.0298 -1.1872
11450SOL     OW37241   2.604   4.967   0.870 -0.0733  0.1117  0.6671
11450SOL    HW137242   2.628   4.899   0.933  2.7769 -1.6950 -2.0586
11450SOL    HW237243   2.673   5.033   0.878  1.5378 -1.1168 -1.6977
11451SOL     OW37244   0.950   2.908   0.324  0.0146  0.0304  0.0173
11451SOL    HW137245   1.041   2.914   0.353  0.5386 -2.0977 -0.9940
11451SOL    HW237246   0.918   2.998   0.329  1.7109  0.6147  1.7808
11452SOL     OW37247   9.146   5.941   1.908 -0.6012 -0.4961 -0.2260
11452SOL    HW137248   9.126   5.998   1.982  0.4913  0.3359 -0.5495
11452SOL    HW237249   9.082   5.871   1.914 -1.5303  0.3942  0.5923
11453SOL     OW37250   2.375   3.043   8.376 -0.4757 -0.5511  0.6429
11453SOL    HW137251   2.453   3.021   8.427 -0.5032 -1.4072  0.3452
11453SOL    HW237252   2.387   2.996   8.293 -0.8918  0.0290  0.2453
11454SOL     OW37253   6.867   4.741   1.935  0.1204  0.3620  0.4860
11454SOL    HW137254   6.781   4.706   1.910  0.2282  1.2283 -1.2613
11454SOL    HW237255   6.889   4.696   2.016 -1.1435 -1.2618 -0.0255
11455SOL     OW37256   3.511   0.427   4.312 -0.0842 -0.0209 -0.5685
11455SOL    HW137257   3.544   0.433   4.401 -1.0358 -0.4659 -0.1796
11455SOL    HW237258   3.586   0.396   4.261 -0.2324 -2.4422  0.5491
11456SOL     OW37259   2.768   0.578   5.150  0.1154  0.0611 -0.2515
11456SOL    HW137260   2.782   0.671   5.130  2.4887  0.0443  1.0500
11456SOL    HW237261   2.816   0.531   5.083  0.6003 -0.1816  0.2623
11457SOL     OW37262   3.664   7.998   9.137  0.5650  0.1977  0.3785
11457SOL    HW137263   3.612   8.078   9.140 -0.3092 -0.3511  0.4877
11457SOL    HW237264   3.755   8.027   9.143  0.2313  1.1221  1.2462
11458SOL     OW37265   3.657   2.142   0.190  0.2378  0.7221 -0.1574
11458SOL    HW137266   3.596   2.084   0.236 -2.1187  3.0595 -0.0652
11458SOL    HW237267   3.729   2.085   0.163 -1.5975 -2.0918  0.4153
11459SOL     OW37268   4.497   2.636   8.811  0.4805 -0.1344  0.3191
11459SOL    HW137269   4.537   2.603   8.892  1.0689  0.6690  0.3686
11459SOL    HW237270   4.427   2.694   8.841  3.2399  3.4992  0.4702
11460SOL     OW37271   3.235   6.727   0.936 -0.4213  0.0243  0.2190
11460SOL    HW137272   3.283   6.796   0.889  1.7180 -0.7212  1.2222
11460SOL    HW237273   3.271   6.645   0.902 -2.0990 -0.6271 -0.0919
11461SOL     OW37274   3.634   1.120   7.235  0.4173  0.0042  0.4060
11461SOL    HW137275   3.637   1.025   7.236 -0.0279 -0.0370 -0.6063
11461SOL    HW237276   3.692   1.147   7.306 -2.4622 -1.0390  3.4100
11462SOL     OW37277   6.055   0.311   1.967  0.4829 -0.6984  0.2785
11462SOL    HW137278   6.118   0.251   2.008 -1.5430 -2.5954  0.7984
11462SOL    HW237279   6.031   0.371   2.037  1.2852 -0.3059  0.2271
11463SOL     OW37280   3.820   5.290   1.043 -0.6395  0.1410  0.8189
11463SOL    HW137281   3.809   5.226   0.973 -0.6040  0.6163  0.3711
11463SOL    HW237282   3.748   5.272   1.104 -0.4175 -0.5528  0.8828
11464SOL     OW37283   3.179   4.358   0.362  0.5260 -0.0348  0.1071
11464SOL    HW137284   3.209   4.314   0.283  0.3491 -0.9724  0.5424
11464SOL    HW237285   3.163   4.448   0.335  2.6220  0.2440 -0.4040
11465SOL     OW37286   7.567   7.028   7.728 -0.4459  0.1814 -0.5091
11465SOL    HW137287   7.593   6.935   7.733  2.2762  0.8426 -0.5662
11465SOL    HW237288   7.577   7.060   7.818 -0.0629  0.7096 -0.7342
11466SOL     OW37289   5.980   6.658   3.386  0.0732 -0.1394  0.0087
11466SOL    HW137290   6.069   6.623   3.384 -0.1393 -0.7183 -2.0768
11466SOL    HW237291   5.983   6.734   3.329 -0.5480  0.4578  0.7548
11467SOL     OW37292   7.877   0.219   3.898  0.2762  0.5711 -0.1578
11467SOL    HW137293   7.960   0.174   3.886  1.5216  2.8827 -0.6326
11467SOL    HW237294   7.843   0.230   3.809 -0.5458 -0.3296  0.0296
11468SOL     OW37295   5.408   3.838   7.722  0.0536 -1.0742 -0.4907
11468SOL    HW137296   5.326   3.829   7.674  0.8032  0.5576 -2.2542
11468SOL    HW237297   5.387   3.897   7.795 -0.5498 -1.4866 -0.3246
11469SOL     OW37298   1.173   4.561   5.314  0.0246  0.7028  0.4036
11469SOL    HW137299   1.081   4.537   5.310  0.3060 -0.3592  0.1036
11469SOL    HW237300   1.198   4.579   5.223  0.4714 -0.4338  0.2910
11470SOL     OW37301   2.370   6.816   4.093 -0.0503 -0.2280 -0.3472
11470SOL    HW137302   2.465   6.818   4.082 -0.0607  2.3657 -0.7029
11470SOL    HW237303   2.344   6.729   4.064  2.2478 -1.1896  0.2608
11471SOL     OW37304   6.351   6.643   9.041  0.9244  0.1544  0.3424
11471SOL    HW137305   6.373   6.708   8.974  1.5915  0.0739  0.4832
11471SOL    HW237306   6.324   6.566   8.991 -0.5708  0.7545  0.1698
11472SOL     OW37307   4.812   3.704   3.634 -0.0846  0.1734 -0.4065
11472SOL    HW137308   4.896   3.749   3.642  1.2656 -2.0208 -1.2059
11472SOL    HW237309   4.825   3.640   3.564 -1.7309 -1.6829  0.8462
11473SOL     OW37310   4.440   5.850   0.304  0.6523 -0.2696  0.1805
11473SOL    HW137311   4.455   5.922   0.244 -1.2449 -0.3970 -0.5140
11473SOL    HW237312   4.366   5.878   0.358  0.9359 -1.0468  1.0085
11474SOL     OW37313   3.559   8.601   3.672  0.2807 -0.0099 -0.3119
11474SOL    HW137314   3.579   8.508   3.677 -0.4321 -0.2388 -1.3190
11474SOL    HW237315   3.600   8.631   3.592  2.0943  1.0014  0.9186
11475SOL     OW37316   1.990   8.349   4.465  0.1888 -0.1251  0.1716
11475SOL    HW137317   2.066   8.406   4.461  0.0410  0.0833  0.3063
11475SOL    HW237318   1.921   8.404   4.503 -0.9424  0.7441 -2.8374
11476SOL     OW37319   2.104   5.779   4.230 -0.5175  0.3809 -0.1139
11476SOL    HW137320   2.136   5.710   4.172 -0.2266  0.7497 -0.3921
11476SOL    HW237321   2.011   5.759   4.242 -0.7031  0.6020 -1.1311
11477SOL     OW37322   5.345   7.448   4.369  0.3422 -0.3997  0.4839
11477SOL    HW137323   5.340   7.358   4.338  0.5247 -1.1509  2.4857
11477SOL    HW237324   5.352   7.440   4.464 -0.3235  1.7564  0.7642
11478SOL     OW37325   6.619   4.326   5.672  0.4478 -0.0139 -0.3695
11478SOL    HW137326   6.691   4.389   5.680  0.6271 -0.3292  0.5306
11478SOL    HW237327   6.555   4.371   5.617  0.8432  0.7110 -0.2525
11479SOL     OW37328   6.404   7.954   8.364 -0.3376 -0.2295 -0.0226
11479SOL    HW137329   6.349   7.879   8.342 -1.3032  0.4751 -0.1020
11479SOL    HW237330   6.342   8.026   8.376  0.6795  1.2243 -2.6844
11480SOL     OW37331   1.506   1.790   7.482  0.2690  0.6971  0.1628
11480SOL    HW137332   1.567   1.730   7.439  0.0254  1.2942 -1.0523
11480SOL    HW237333   1.502   1.866   7.424 -2.8035  0.0614 -0.6030
11481SOL     OW37334   7.259   0.857   2.718 -0.6509 -0.1859  0.5600
11481SOL    HW137335   7.224   0.797   2.651 -0.2823 -0.1511  0.3354
11481SOL    HW237336   7.181   0.894   2.759 -0.8845 -1.0373  0.8968
11482SOL     OW37337   2.014   0.737   9.161  0.2632  1.0258  0.1958
11482SOL    HW137338   1.925   0.720   9.130  0.3376  0.1819  0.4176
11482SOL    HW237339   2.049   0.801   9.099  0.5047 -0.8065 -1.7012
11483SOL     OW37340   6.909   3.585   0.865  0.1898  0.5010 -0.4533
11483SOL    HW137341   6.967   3.636   0.809  1.6521 -0.3689  0.2028
11483SOL    HW237342   6.918   3.495   0.833 -2.3432  0.5626 -1.5953
11484SOL     OW37343   1.669   4.555   2.896  0.2753  0.0230 -0.0640
11484SOL    HW137344   1.762   4.576   2.903 -0.3703  3.3734  0.3137
11484SOL    HW237345   1.646   4.520   2.982  0.8688  0.8169  0.4351
11485SOL     OW37346   5.968   6.198   8.584 -0.0126 -0.1001 -0.2283
11485SOL    HW137347   5.903   6.169   8.648  0.5153 -0.6425  0.0731
11485SOL    HW237348   5.945   6.289   8.565 -1.2542 -0.4887 -0.6373
11486SOL     OW37349   7.751   1.548   4.961 -0.0452  0.7058  0.6359
11486SOL    HW137350   7.703   1.600   4.896  2.3445 -0.2446 -2.0765
11486SOL    HW237351   7.709   1.571   5.044 -2.4946  2.9348 -1.0200
11487SOL     OW37352   2.374   0.855   2.562  0.3261  0.1144  0.0098
11487SOL    HW137353   2.288   0.823   2.536  0.2003 -0.3275  0.9539
11487SOL    HW237354   2.413   0.887   2.480  0.0424 -1.4809 -0.7959
11488SOL     OW37355   3.454   2.159   0.471  0.4751 -0.2894 -0.0166
11488SOL    HW137356   3.491   2.071   0.457 -0.1280 -0.3843 -1.1601
11488SOL    HW237357   3.359   2.144   0.477  0.4095  0.2359  0.2562
11489SOL     OW37358   2.020   5.034   5.529 -0.1057  0.2713  0.3283
11489SOL    HW137359   1.959   5.040   5.603 -1.1457  0.6210 -0.5399
11489SOL    HW237360   2.044   5.124   5.510 -1.1006  0.3237 -0.7702
11490SOL     OW37361   2.631   4.570   4.135  0.0992  0.7159  0.3531
11490SOL    HW137362   2.573   4.567   4.058 -0.9732 -0.9501  1.1664
11490SOL    HW237363   2.646   4.663   4.150  0.6150  1.0929 -2.0665
11491SOL     OW37364   6.225   1.335   8.514 -0.2659  0.5042  0.1088
11491SOL    HW137365   6.236   1.427   8.537  0.1369  0.4978 -0.0571
11491SOL    HW237366   6.259   1.287   8.589  1.0626  0.4830 -0.4771
11492SOL     OW37367   5.197   2.443   7.837 -0.0179  0.1989 -0.3027
11492SOL    HW137368   5.225   2.453   7.746  0.9215  1.6488  0.1106
11492SOL    HW237369   5.222   2.526   7.879  0.6877 -0.9078  1.5709
11493SOL     OW37370   6.385   2.532   6.294  0.1056  0.0248 -0.3434
11493SOL    HW137371   6.368   2.514   6.201  1.7213 -1.6474 -0.3514
11493SOL    HW237372   6.329   2.471   6.341  0.9773 -0.7133 -0.2603
11494SOL     OW37373   1.973   2.996   8.287  0.3802  0.2995 -0.4155
11494SOL    HW137374   1.972   2.901   8.272 -1.6232  0.4384 -1.5443
11494SOL    HW237375   1.905   3.010   8.353  0.9733  0.9131  0.0674
11495SOL     OW37376   3.560   4.205   1.234  0.2894  0.1506  0.0552
11495SOL    HW137377   3.553   4.298   1.258 -0.4146  0.2056 -0.3137
11495SOL    HW237378   3.561   4.159   1.317  1.9596  0.5442  0.2906
11496SOL     OW37379   2.090   1.253   8.454 -0.1298 -0.2996 -0.1968
11496SOL    HW137380   2.169   1.214   8.492 -1.0821 -0.6870  1.5032
11496SOL    HW237381   2.029   1.180   8.444  0.2955 -0.3387 -3.2483
11497SOL     OW37382   7.983   6.214   7.577  0.1318  0.3872  0.0332
11497SOL    HW137383   8.013   6.303   7.561 -1.7899  0.6820 -2.5864
11497SOL    HW237384   8.041   6.159   7.525 -0.9618  0.5094 -1.3476
11498SOL     OW37385   0.465   5.385   6.845  0.3441  0.0209 -0.3071
11498SOL    HW137386   0.534   5.440   6.807 -0.0652  0.3343 -0.5966
11498SOL    HW237387   0.394   5.445   6.866  0.3594 -0.2246  0.4834
11499SOL     OW37388   7.068   0.571   0.309 -0.0606  0.3990 -0.3799
11499SOL    HW137389   7.006   0.627   0.355  1.9511  0.7085  2.1512
11499SOL    HW237390   7.132   0.632   0.271  0.8413 -0.0452  0.3848
11500SOL     OW37391   1.279   2.846   5.449  0.3793 -0.0806 -0.1810
11500SOL    HW137392   1.248   2.886   5.368  2.0205  0.5499 -0.5507
11500SOL    HW237393   1.200   2.823   5.497 -0.6330 -0.7747 -2.0926
11501SOL     OW37394   7.724   4.494   6.970 -0.3190  0.3721 -0.3356
11501SOL    HW137395   7.651   4.469   6.913 -0.6950 -1.5637  0.8823
11501SOL    HW237396   7.802   4.460   6.925 -0.6483 -1.4917  0.3885
11502SOL     OW37397   5.671   6.062   0.399  0.1189  0.2117 -0.1610
11502SOL    HW137398   5.600   6.123   0.419 -0.1023 -0.7121  2.1877
11502SOL    HW237399   5.630   5.994   0.345 -0.5419  0.2198  0.3167
11503SOL     OW37400   7.261   0.780   4.507  0.0652 -0.0342  0.0606
11503SOL    HW137401   7.265   0.868   4.470  0.9260  0.0052  0.2288
11503SOL    HW237402   7.349   0.745   4.496 -0.2037 -0.7892  0.2156
11504SOL     OW37403   0.926   8.329   0.918  0.1316  0.2008 -0.2518
11504SOL    HW137404   0.879   8.335   0.835 -1.3853 -0.9797  0.4617
11504SOL    HW237405   0.885   8.395   0.974 -2.1220 -2.0067  0.9563
11505SOL     OW37406   0.121   2.778   1.487 -0.3616 -0.0575 -0.4407
11505SOL    HW137407   0.052   2.790   1.422 -0.4355  0.6165 -0.2415
11505SOL    HW237408   0.077   2.784   1.572 -0.0378  0.5850 -0.3092
11506SOL     OW37409   2.051   7.282   3.992  0.2355 -0.2268 -0.2706
11506SOL    HW137410   2.116   7.304   4.060  0.7920 -2.7655  0.1103
11506SOL    HW237411   2.098   7.296   3.909  0.2610  0.8062 -0.0969
11507SOL     OW37412   8.548   3.751   2.099 -0.0701  0.3432  0.1098
11507SOL    HW137413   8.572   3.709   2.182  0.3820  0.0197 -0.1811
11507SOL    HW237414   8.598   3.832   2.097  0.8455 -0.2267 -0.3969
11508SOL     OW37415   6.694   3.332   7.642 -0.0157  0.1125 -0.0684
11508SOL    HW137416   6.753   3.309   7.713  0.8890  0.5394 -0.6696
11508SOL    HW237417   6.620   3.272   7.653  1.9321 -2.7045 -1.1828
11509SOL     OW37418   8.807   7.765   4.111  0.1741 -0.4520  0.3083
11509SOL    HW137419   8.809   7.674   4.081 -0.2650 -0.5751  0.6618
11509SOL    HW237420   8.801   7.816   4.030  1.8570 -0.6604 -0.0036
11510SOL     OW37421   4.765   7.830   0.381  0.8676 -0.1868 -0.5596
11510SOL    HW137422   4.797   7.919   0.368  0.3286  0.2973  1.1814
11510SOL    HW237423   4.770   7.816   0.476 -0.0687 -1.6067 -0.6885
11511SOL     OW37424   4.994   6.203   1.921  0.3000 -0.6767  0.1495
11511SOL    HW137425   5.048   6.231   1.847 -0.5969 -1.4645 -0.8344
11511SOL    HW237426   5.049   6.218   1.998  0.8606  1.1814 -0.5634
11512SOL     OW37427   3.635   5.346   0.384 -0.0061  0.1919 -0.5198
11512SOL    HW137428   3.618   5.412   0.317 -0.6918  1.0899  0.5070
11512SOL    HW237429   3.716   5.374   0.427 -0.3056  0.3899 -0.0718
11513SOL     OW37430   3.194   3.169   3.581  0.1135 -0.2590  0.1215
11513SOL    HW137431   3.207   3.177   3.676  0.2412 -1.1851  0.1914
11513SOL    HW237432   3.112   3.216   3.564 -0.1495 -0.4743  0.7531
11514SOL     OW37433   1.465   0.378   7.890 -0.2327  0.7952  0.0087
11514SOL    HW137434   1.507   0.420   7.965 -0.7648  0.0130  0.7724
11514SOL    HW237435   1.537   0.352   7.833  0.4717 -1.3389  1.7110
11515SOL     OW37436   0.784   4.717   2.828 -0.0672  0.8715 -0.1736
11515SOL    HW137437   0.724   4.791   2.837 -0.3514  0.4657  1.7979
11515SOL    HW237438   0.727   4.640   2.823  0.2095  0.4647  1.8824
11516SOL     OW37439   5.683   6.543   8.570 -0.1356  0.8945  0.0874
11516SOL    HW137440   5.662   6.522   8.662 -0.4511  1.0406  0.0488
11516SOL    HW237441   5.708   6.635   8.572 -2.5170  1.6012 -0.3448
11517SOL     OW37442   8.432   5.532   8.597  0.2651  0.4443 -0.1485
11517SOL    HW137443   8.345   5.572   8.608  0.2974  0.5076 -0.1191
11517SOL    HW237444   8.466   5.526   8.686  0.5504  1.0010 -0.2154
11518SOL     OW37445   8.833   2.942   2.027  0.3195 -0.4215  0.3654
11518SOL    HW137446   8.804   2.930   2.118  0.9195  0.1868  0.6491
11518SOL    HW237447   8.754   2.928   1.975 -0.4679  0.9470  1.1055
11519SOL     OW37448   9.015   8.737   2.155  0.3876  0.1159  0.5247
11519SOL    HW137449   9.054   8.815   2.193 -0.3260  0.8688 -0.2181
11519SOL    HW237450   8.970   8.769   2.077  0.0433 -1.0382  0.2262
11520SOL     OW37451   5.800   7.437   3.220  0.4192 -0.2489 -0.3226
11520SOL    HW137452   5.823   7.362   3.275  1.4139 -0.2993 -0.7840
11520SOL    HW237453   5.808   7.404   3.130  0.7749  0.3849 -0.5265
11521SOL     OW37454   4.385   3.052   5.099  0.3843 -0.1028 -0.1448
11521SOL    HW137455   4.329   2.981   5.070 -0.5910  0.0786  1.2049
11521SOL    HW237456   4.382   3.048   5.194 -1.6410  3.1583  0.0779
11522SOL     OW37457   1.254   4.129   4.943 -0.1832 -0.1985 -0.0099
11522SOL    HW137458   1.298   4.194   4.888 -0.6922  0.4108  0.2919
11522SOL    HW237459   1.250   4.051   4.889  3.3258 -1.0518  0.6946
11523SOL     OW37460   1.236   8.828   2.309 -0.5715 -0.3742  0.3179
11523SOL    HW137461   1.240   8.732   2.313  0.3063 -0.4198 -1.0510
11523SOL    HW237462   1.186   8.847   2.230  0.3460  0.2802 -0.1278
11524SOL     OW37463   0.196   3.783   8.925  0.2302  0.3514  0.0880
11524SOL    HW137464   0.167   3.703   8.882 -0.9702  0.6465  0.3009
11524SOL    HW237465   0.179   3.768   9.018  1.1715  0.3834  0.2693
11525SOL     OW37466   5.687   1.128   5.298  0.1670 -0.1417  0.6272
11525SOL    HW137467   5.630   1.081   5.236 -0.6214 -0.0996  1.3051
11525SOL    HW237468   5.626   1.169   5.359  0.7328  3.0123 -0.7515
11526SOL     OW37469   4.342   3.531   8.350  0.4994  0.2643 -0.5321
11526SOL    HW137470   4.368   3.580   8.428 -0.3133 -0.5169  0.2551
11526SOL    HW237471   4.246   3.538   8.349  0.3205 -1.5744 -0.1773
11527SOL     OW37472   6.716   6.329   7.297 -0.2618  0.2297  0.5452
11527SOL    HW137473   6.800   6.294   7.267  1.6545  1.7220  3.6842
11527SOL    HW237474   6.652   6.265   7.266  2.2990 -2.4190  0.2018
11528SOL     OW37475   0.284   4.422   1.045  0.2511 -0.3434 -0.1223
11528SOL    HW137476   0.200   4.405   1.088 -2.4279  2.7626 -3.5047
11528SOL    HW237477   0.329   4.484   1.102 -1.7247  1.1813 -0.1276
11529SOL     OW37478   5.300   4.542   7.932 -0.5196 -0.5130 -0.1665
11529SOL    HW137479   5.242   4.484   7.883 -1.0652  0.3875 -0.6193
11529SOL    HW237480   5.281   4.525   8.024 -0.6624 -1.0549 -0.2959
11530SOL     OW37481   4.797   3.463   1.535 -0.4950 -0.0932  0.1473
11530SOL    HW137482   4.813   3.381   1.488 -0.9128 -0.0910 -0.0057
11530SOL    HW237483   4.774   3.526   1.467  1.5178  0.6184  0.0718
11531SOL     OW37484   1.789   5.653   4.504 -0.5863 -0.1368  0.3717
11531SOL    HW137485   1.765   5.731   4.455  0.2736 -0.2377 -0.2347
11531SOL    HW237486   1.844   5.685   4.575 -0.5692 -0.1480  0.3633
11532SOL     OW37487   7.367   8.399   3.289 -0.5287  0.1890 -0.2298
11532SOL    HW137488   7.394   8.487   3.262 -0.9961  0.5274  0.3470
11532SOL    HW237489   7.343   8.409   3.382  0.6421 -0.8323  0.2039
11533SOL     OW37490   5.768   8.301   6.521 -1.3953  0.3772 -0.2786
11533SOL    HW137491   5.676   8.276   6.526 -1.2589 -0.2858 -0.9703
11533SOL    HW237492   5.816   8.228   6.558 -1.1404  0.7407  0.1232
11534SOL     OW37493   8.636   0.379   3.717  0.3917  0.2654 -0.0795
11534SOL    HW137494   8.697   0.328   3.770 -1.2380  0.4665  2.1491
11534SOL    HW237495   8.567   0.317   3.693  0.0301  0.6679 -0.0975
11535SOL     OW37496   6.031   6.431   4.051 -0.2461 -0.1976 -0.2508
11535SOL    HW137497   6.095   6.367   4.082 -0.1649 -0.8358 -1.6591
11535SOL    HW237498   6.014   6.406   3.960 -1.0287  1.1417 -0.5010
11536SOL     OW37499   2.050   3.784   7.920  0.5308  0.2071 -0.6484
11536SOL    HW137500   2.013   3.871   7.937 -3.1919 -1.2648 -0.3135
11536SOL    HW237501   2.007   3.755   7.839  1.6942 -1.3547 -0.7540
11537SOL     OW37502   2.466   2.077   3.560  0.2058  0.0627 -0.6806
11537SOL    HW137503   2.460   2.031   3.643  0.5700  2.1351  0.5748
11537SOL    HW237504   2.541   2.135   3.570 -0.5919  1.3902 -1.9129
11538SOL     OW37505   4.519   5.634   6.599  0.0782 -0.4030  0.2906
11538SOL    HW137506   4.594   5.622   6.656 -0.2710  0.2546  0.9045
11538SOL    HW237507   4.443   5.633   6.658 -0.1941  1.7320  0.0558
11539SOL     OW37508   0.393   8.854   2.927 -0.0861 -0.2719 -0.3994
11539SOL    HW137509   0.439   8.910   2.865  2.3790 -2.2013 -0.4843
11539SOL    HW237510   0.423   8.883   3.013  0.0240 -0.4987 -0.3613
11540SOL     OW37511   1.888   7.624   7.344  0.5150  0.0285 -0.1420
11540SOL    HW137512   1.875   7.532   7.367  0.7441 -0.5192 -2.0307
11540SOL    HW237513   1.857   7.631   7.253  1.3601  1.5988 -0.3486
11541SOL     OW37514   3.133   0.198   0.944  0.3907  0.4978 -0.0992
11541SOL    HW137515   3.193   0.139   0.988 -0.5843 -0.5613 -0.1309
11541SOL    HW237516   3.184   0.277   0.927  0.8512  0.9351  2.8084
11542SOL     OW37517   3.340   5.529   3.060  0.7263 -0.3564  0.1993
11542SOL    HW137518   3.319   5.448   3.014 -2.5366 -0.5139  1.6922
11542SOL    HW237519   3.296   5.521   3.144 -0.0145  3.0728  0.2908
11543SOL     OW37520   1.501   5.144   6.521 -0.1474  0.1203 -0.0863
11543SOL    HW137521   1.440   5.217   6.536  0.6719  0.3996  2.3871
11543SOL    HW237522   1.460   5.070   6.566 -0.1059 -0.4924 -1.0457
11544SOL     OW37523   0.901   2.850   7.547 -0.3384 -0.0617  0.2045
11544SOL    HW137524   0.901   2.854   7.452 -1.7296  0.1709  0.1991
11544SOL    HW237525   0.984   2.891   7.573 -1.5385  3.3674 -0.7960
11545SOL     OW37526   0.985   2.817   7.299 -0.8443  0.0677  0.6835
11545SOL    HW137527   1.057   2.868   7.261 -0.7599  0.5190  1.4285
11545SOL    HW237528   0.935   2.786   7.223 -1.2061  1.7015  0.2156
11546SOL     OW37529   4.666   2.738   1.295  0.3494 -0.5831 -0.8477
11546SOL    HW137530   4.732   2.803   1.318  1.4611 -1.5350 -1.2883
11546SOL    HW237531   4.618   2.724   1.377  2.6549 -2.0917  0.3593
11547SOL     OW37532   4.412   7.636   8.082  0.1159  0.0759 -0.1073
11547SOL    HW137533   4.339   7.626   8.020  0.7427  0.2263 -0.8875
11547SOL    HW237534   4.428   7.548   8.114  1.0815 -0.3724 -1.6964
11548SOL     OW37535   2.883   0.182   8.394  0.4394 -0.3173 -0.2648
11548SOL    HW137536   2.972   0.204   8.422  1.1270 -0.7746 -1.9588
11548SOL    HW237537   2.872   0.090   8.418  0.3446 -0.2100  0.1117
11549SOL     OW37538   7.694   2.330   1.599 -0.7536  0.0879 -0.1721
11549SOL    HW137539   7.635   2.281   1.541 -1.8691  0.9755  0.1684
11549SOL    HW237540   7.678   2.422   1.578  0.1116  0.3700  0.3279
11550SOL     OW37541   6.598   1.386   0.006 -0.3048  0.2390 -0.0817
11550SOL    HW137542   6.686   1.352   0.021 -1.2065 -3.2734 -1.6729
11550SOL    HW237543   6.589   1.388  -0.089 -2.2417 -0.5193  0.0392
11551SOL     OW37544   6.283   7.770   7.596 -0.5472  0.5425 -0.3827
11551SOL    HW137545   6.339   7.825   7.541 -1.2559  0.0721 -1.6083
11551SOL    HW237546   6.239   7.832   7.655  1.3596  0.8976  0.7428
11552SOL     OW37547   7.181   3.060   4.603  0.0440  0.6029 -0.6230
11552SOL    HW137548   7.138   2.978   4.580 -0.1403  0.4780  0.1189
11552SOL    HW237549   7.110   3.115   4.638 -0.0381  1.4856 -2.1070
11553SOL     OW37550   6.126   7.466   4.172  0.5309 -0.3230  0.3145
11553SOL    HW137551   6.131   7.385   4.223 -0.2999 -0.3101  0.4414
11553SOL    HW237552   6.136   7.536   4.236 -0.8105 -0.3012  0.5287
11554SOL     OW37553   8.380   2.424   2.832  0.0966 -0.5536  0.1403
11554SOL    HW137554   8.343   2.336   2.829 -1.0490 -0.1919  1.7880
11554SOL    HW237555   8.361   2.454   2.921  0.7451  1.2415 -0.2870
11555SOL     OW37556   7.977   4.424   1.616 -0.4002 -0.5053  0.0041
11555SOL    HW137557   8.051   4.481   1.596 -1.0205 -0.1869 -1.5352
11555SOL    HW237558   7.903   4.483   1.627 -0.5777 -0.8683  0.8071
11556SOL     OW37559   2.787   0.140   2.579 -0.2454 -0.3797 -0.0422
11556SOL    HW137560   2.730   0.123   2.504 -0.3200 -1.1134  0.1713
11556SOL    HW237561   2.727   0.158   2.651 -0.2048 -0.6567  0.0648
11557SOL     OW37562   8.448   9.010   3.294 -0.7028 -0.2983 -0.3321
11557SOL    HW137563   8.455   8.955   3.216 -0.7211 -2.3647  1.0343
11557SOL    HW237564   8.362   8.989   3.331  0.1738 -1.0984  1.3953
11558SOL     OW37565   2.236   6.866   1.321  0.2434  0.5373 -0.5013
11558SOL    HW137566   2.319   6.887   1.279  0.1231  0.4294 -0.7970
11558SOL    HW237567   2.259   6.805   1.391  0.3320 -0.0268 -1.0160
11559SOL     OW37568   9.119   3.148   2.941  0.2610  0.0018  0.0931
11559SOL    HW137569   9.061   3.153   3.017  0.6599 -1.9448  0.5616
11559SOL    HW237570   9.189   3.088   2.968  2.2557  1.8421 -0.6309
11560SOL     OW37571   0.527   8.618   2.093 -0.0534 -0.0352 -1.0180
11560SOL    HW137572   0.544   8.711   2.111  0.8846 -0.2940 -0.5465
11560SOL    HW237573   0.493   8.584   2.176 -0.7418 -0.0475 -1.2937
11561SOL     OW37574   7.835   1.485   0.255 -0.3612  0.0656  0.1510
11561SOL    HW137575   7.870   1.567   0.287  0.5744 -0.9030  1.7353
11561SOL    HW237576   7.886   1.466   0.176 -0.5543  0.9633 -0.1975
11562SOL     OW37577   0.799   3.119   7.233 -0.0309 -0.3802 -0.3153
11562SOL    HW137578   0.750   3.201   7.235 -0.3265 -0.4785  2.9229
11562SOL    HW237579   0.889   3.145   7.217  0.3696  1.0808  3.2858
11563SOL     OW37580   0.637   1.217   1.339 -0.2432 -0.6329 -0.3172
11563SOL    HW137581   0.695   1.159   1.389  0.6101  0.4496 -0.0119
11563SOL    HW237582   0.549   1.196   1.372  0.4084  1.3839  3.1924
11564SOL     OW37583   8.814   4.916   4.985  0.2072  0.0412 -0.3130
11564SOL    HW137584   8.896   4.957   5.012  0.1640  1.3205 -1.9413
11564SOL    HW237585   8.792   4.960   4.902 -2.4936  0.2647  0.4299
11565SOL     OW37586   5.680   4.680   1.044 -0.6082  0.2536  0.6981
11565SOL    HW137587   5.695   4.758   0.990  0.1370  0.4393  1.1565
11565SOL    HW237588   5.615   4.708   1.108 -3.2422 -0.6027 -1.4062
11566SOL     OW37589   8.075   2.298   0.161 -0.0015 -0.1511 -0.5575
11566SOL    HW137590   8.040   2.386   0.179  0.8160 -0.3099  2.2314
11566SOL    HW237591   8.168   2.313   0.143  0.4243 -0.5228  1.2221
11567SOL     OW37592   3.485   6.490   5.078  0.4306  0.0813 -0.0959
11567SOL    HW137593   3.551   6.420   5.077 -0.0195 -0.4634  2.2811
11567SOL    HW237594   3.415   6.458   5.021  0.8908 -0.7122 -0.2283
11568SOL     OW37595   4.567   0.419   1.083 -0.2543 -0.3908 -0.4620
11568SOL    HW137596   4.554   0.366   1.161 -0.0589 -1.0097 -0.8360
11568SOL    HW237597   4.479   0.446   1.058 -0.2289  0.6428  0.5260
11569SOL     OW37598   1.041   2.746   3.069 -0.1983  0.7254 -0.0641
11569SOL    HW137599   0.952   2.758   3.036  0.6335  2.5550 -1.8609
11569SOL    HW237600   1.079   2.679   3.012 -0.1628  0.5735  0.1374
11570SOL     OW37601   6.292   0.079   0.700  0.1009 -0.5395  0.2281
11570SOL    HW137602   6.204   0.058   0.731 -0.4552  0.4499 -0.6087
11570SOL    HW237603   6.335  -0.006   0.689 -2.0275 -1.3779 -3.0719
11571SOL     OW37604   2.845   5.635   2.782 -0.3135  0.4225 -0.0432
11571SOL    HW137605   2.887   5.610   2.864 -0.1449  0.4866 -0.1102
11571SOL    HW237606   2.759   5.594   2.786 -1.1795  2.2219  1.1476
11572SOL     OW37607   4.667   5.529   0.141 -0.8092 -0.3491 -0.7211
11572SOL    HW137608   4.639   5.551   0.230  1.5693 -2.5669  0.7365
11572SOL    HW237609   4.617   5.451   0.119 -0.2340 -0.7568 -0.6145
11573SOL     OW37610   8.109   8.589   4.416  0.3615 -0.1886  0.1277
11573SOL    HW137611   8.025   8.545   4.431  0.9814 -0.8109  2.1806
11573SOL    HW237612   8.173   8.532   4.459  1.8484  0.2841 -1.3797
11574SOL     OW37613   2.887   6.500   7.202  0.1722  0.1732 -0.1300
11574SOL    HW137614   2.843   6.415   7.200 -1.4302  0.9660  0.0006
11574SOL    HW237615   2.849   6.548   7.127 -0.8347  1.6423  1.2503
11575SOL     OW37616   1.190   4.522   5.019  0.0191  0.2612 -0.3329
11575SOL    HW137617   1.113   4.464   5.016 -0.7260  1.1843  0.5069
11575SOL    HW237618   1.160   4.604   4.979  0.7280  0.4684 -0.4565
11576SOL     OW37619   5.938   9.205   5.365 -0.1590  0.1592  0.0257
11576SOL    HW137620   6.013   9.151   5.392  0.2095  0.2569 -0.7816
11576SOL    HW237621   5.908   9.165   5.284 -1.2650 -0.1369  0.5619
11577SOL     OW37622   6.921   0.866   4.023  0.3745 -0.5957  0.1752
11577SOL    HW137623   6.992   0.807   4.049  1.5170  1.7254  2.6829
11577SOL    HW237624   6.869   0.878   4.103  1.3292  3.2487  0.3706
11578SOL     OW37625   7.185   4.868   4.171 -0.0064  0.2265  0.3830
11578SOL    HW137626   7.231   4.882   4.254 -0.0547  0.7831  0.3186
11578SOL    HW237627   7.097   4.839   4.197  0.9984 -3.1710  0.5134
11579SOL     OW37628   2.166   3.655   6.533  0.2899  0.2828 -0.2472
11579SOL    HW137629   2.138   3.572   6.569  1.7096 -0.6311 -1.1324
11579SOL    HW237630   2.150   3.719   6.602 -0.2679 -0.8242  0.6632
11580SOL     OW37631   6.380   3.778   6.895  0.0357 -0.0560 -0.3552
11580SOL    HW137632   6.436   3.756   6.969 -2.3732 -1.1504  1.2526
11580SOL    HW237633   6.338   3.860   6.920  0.8031  0.7197 -1.5149
11581SOL     OW37634   4.549   6.642   4.938 -0.1243 -0.1202  0.1986
11581SOL    HW137635   4.556   6.550   4.964 -1.4113  0.6981  4.0617
11581SOL    HW237636   4.638   6.675   4.944  0.0128 -0.6173  1.1520
11582SOL     OW37637   8.978   6.487   2.443 -0.2192  0.6413 -0.6029
11582SOL    HW137638   8.904   6.474   2.502  0.2094  0.5428 -0.0776
11582SOL    HW237639   8.951   6.558   2.385 -0.4893  1.0214 -0.0231
11583SOL     OW37640   4.625   0.862   2.241 -0.4117 -0.2341  0.0525
11583SOL    HW137641   4.691   0.830   2.180  0.9278  3.3608 -0.6365
11583SOL    HW237642   4.560   0.906   2.186 -1.7839 -1.0299  0.9577
11584SOL     OW37643   9.031   0.667   0.412  0.4637  0.2599 -0.4850
11584SOL    HW137644   9.107   0.611   0.430 -0.6179 -1.7480 -1.7970
11584SOL    HW237645   8.956   0.608   0.417 -0.8467  1.7941 -1.0637
11585SOL     OW37646   0.619   0.988   6.425 -0.0653 -0.6010  0.1018
11585SOL    HW137647   0.707   0.956   6.407  0.0422 -0.4489  0.3701
11585SOL    HW237648   0.619   1.079   6.396 -0.4073 -0.8641 -0.7742
11586SOL     OW37649   5.660   6.995   4.157 -0.0003 -0.2147 -0.7276
11586SOL    HW137650   5.687   6.905   4.175  0.3454 -0.2554 -1.4025
11586SOL    HW237651   5.701   7.016   4.073  0.8175  0.9475 -0.0733
11587SOL     OW37652   1.247   0.207   5.458 -0.9801  0.1748  0.3583
11587SOL    HW137653   1.229   0.158   5.538  0.4625  0.1033  0.6528
11587SOL    HW237654   1.231   0.143   5.388  0.3159 -0.5716  0.7120
11588SOL     OW37655   4.134   5.376   9.110 -0.2798 -0.1746 -0.1933
11588SOL    HW137656   4.139   5.417   9.024  1.4909 -0.3741 -0.2316
11588SOL    HW237657   4.198   5.305   9.106  1.5989  1.2605  1.9978
11589SOL     OW37658   7.902   0.617   5.225  0.0420 -0.1120  0.2643
11589SOL    HW137659   7.994   0.601   5.243 -0.4042 -1.7829  1.2907
11589SOL    HW237660   7.867   0.652   5.307 -0.5943 -1.2743  0.5139
11590SOL     OW37661   2.101   4.903   1.203  0.1622  0.0604  0.2828
11590SOL    HW137662   2.053   4.985   1.196 -0.4803 -0.3127  0.2648
11590SOL    HW237663   2.128   4.898   1.294 -1.0588 -0.3959  0.6384
11591SOL     OW37664   2.495   9.063   0.978 -0.0781 -0.0961  0.0893
11591SOL    HW137665   2.549   9.033   0.905 -0.3232 -2.4941  0.8305
11591SOL    HW237666   2.410   9.080   0.939 -0.0782 -0.9123 -0.2841
11592SOL     OW37667   3.660   6.039   1.993 -0.2180 -0.3923  0.4802
11592SOL    HW137668   3.714   6.117   2.002  0.2787 -0.6188 -0.4093
11592SOL    HW237669   3.632   6.040   1.901 -0.1056 -1.3134  0.4277
11593SOL     OW37670   7.837   8.975   6.517  0.1734  0.1488  0.3467
11593SOL    HW137671   7.907   9.030   6.551  0.2447  0.1414  0.2145
11593SOL    HW237672   7.796   8.936   6.594  1.5774 -1.4225  0.3456
11594SOL     OW37673   3.692   5.307   2.416  0.1338  0.5767 -0.5625
11594SOL    HW137674   3.757   5.290   2.485 -0.6552  1.0347  0.3316
11594SOL    HW237675   3.680   5.402   2.418 -0.2145  0.5457 -1.0432
11595SOL     OW37676   3.703   3.801   8.126  0.1683  0.0123 -0.7231
11595SOL    HW137677   3.641   3.741   8.084 -1.7498  0.7888  0.8711
11595SOL    HW237678   3.756   3.745   8.183 -0.7212 -0.3695 -0.2505
11596SOL     OW37679   0.285   2.233   8.975  0.8743  0.1090 -0.0094
11596SOL    HW137680   0.205   2.213   8.925  1.2630 -0.7458 -0.3077
11596SOL    HW237681   0.255   2.289   9.046 -0.2743 -1.3671  0.7395
11597SOL     OW37682   3.020   4.218   2.163 -0.3809  0.0303  0.3129
11597SOL    HW137683   3.045   4.134   2.201 -0.4069 -0.1263 -0.0128
11597SOL    HW237684   3.070   4.223   2.081  0.8698  1.0423  1.0844
11598SOL     OW37685   1.909   0.102   3.075  0.5035  0.1865 -0.0652
11598SOL    HW137686   1.934   0.061   2.992  1.3279 -1.8494  1.1359
11598SOL    HW237687   1.834   0.157   3.052  1.2289  0.3708 -2.3036
11599SOL     OW37688   7.076   1.067   4.191  0.0354  0.1815 -0.6050
11599SOL    HW137689   6.996   1.105   4.226  2.1434  2.3392  2.3550
11599SOL    HW237690   7.116   1.022   4.266  1.1156 -1.7881 -2.2599
11600SOL     OW37691   8.715   3.658   2.322  0.1270 -0.7940  0.0906
11600SOL    HW137692   8.757   3.641   2.406  1.5615  1.3186 -0.1123
11600SOL    HW237693   8.751   3.592   2.263  1.2905 -0.5540  0.5080
11601SOL     OW37694   8.043   1.717   5.879 -0.0737 -0.3568  0.3851
11601SOL    HW137695   8.077   1.793   5.831 -0.2408 -0.6852 -0.2719
11601SOL    HW237696   7.963   1.749   5.922  0.9049  0.3603  1.7541
11602SOL     OW37697   2.324   2.229   9.073 -0.1724 -0.3375  0.4070
11602SOL    HW137698   2.273   2.166   9.123 -0.6682 -0.3596 -0.1142
11602SOL    HW237699   2.359   2.179   8.999 -1.5933  0.2478 -0.7019
11603SOL     OW37700   8.280   5.435   3.827  0.3922  0.1166 -0.0976
11603SOL    HW137701   8.314   5.347   3.844 -0.6276 -0.3018 -0.1346
11603SOL    HW237702   8.216   5.423   3.756 -0.1088  0.8010  0.2228
11604SOL     OW37703   5.685   4.988   2.138  0.0634 -0.2535 -0.1986
11604SOL    HW137704   5.649   5.077   2.135  0.2370 -0.1919 -0.5739
11604SOL    HW237705   5.651   4.951   2.219  0.2048  0.2457  0.0922
11605SOL     OW37706   4.251   2.634   8.190  0.3360 -0.3282 -0.0014
11605SOL    HW137707   4.258   2.632   8.094  1.5333 -1.9384  0.0803
11605SOL    HW237708   4.321   2.576   8.220 -0.6104 -0.5781  1.8332
11606SOL     OW37709   3.048   7.032   6.226  0.0270 -0.0292  0.3613
11606SOL    HW137710   2.959   7.063   6.239 -0.1044 -0.6853  1.0847
11606SOL    HW237711   3.072   7.063   6.139 -0.5052  1.0902  0.6036
11607SOL     OW37712   2.869   7.942   5.985 -0.0130 -0.2613  0.2116
11607SOL    HW137713   2.924   7.994   5.927  0.0351 -0.0008  0.4891
11607SOL    HW237714   2.907   7.854   5.982  0.2742 -0.1364  0.2194
11608SOL     OW37715   5.729   1.557   3.804  0.6087  0.3153  0.0851
11608SOL    HW137716   5.747   1.465   3.785  0.9474  0.1118  1.2821
11608SOL    HW237717   5.713   1.559   3.898 -1.1314  1.2188 -0.1904
11609SOL     OW37718   3.367   0.075   7.346  0.8637 -0.1789 -0.3867
11609SOL    HW137719   3.417   0.127   7.409  0.3878 -1.7478  1.3734
11609SOL    HW237720   3.432   0.017   7.306  1.1886  0.9048 -1.4994
11610SOL     OW37721   5.164   5.420   2.147 -0.0090 -0.0356  0.2907
11610SOL    HW137722   5.085   5.463   2.116  1.2979  2.5700  0.2311
11610SOL    HW237723   5.143   5.392   2.236 -1.4761 -0.8949 -0.2961
11611SOL     OW37724   1.774   8.077   1.841  0.0438  0.5662 -0.6703
11611SOL    HW137725   1.721   8.151   1.813  0.6927  1.1433 -0.3985
11611SOL    HW237726   1.756   8.070   1.935 -1.0317 -0.4678 -0.9283
11612SOL     OW37727   6.313   7.965   1.045  0.3908 -0.3025  0.1710
11612SOL    HW137728   6.308   7.984   0.951 -0.9667  3.3650  0.8037
11612SOL    HW237729   6.407   7.960   1.064  0.7577  1.2432 -1.0471
11613SOL     OW37730   9.092   5.337   1.418  0.0111 -0.4171 -0.6271
11613SOL    HW137731   9.143   5.256   1.418 -2.0219 -1.7856 -1.3330
11613SOL    HW237732   9.027   5.324   1.349 -0.2138  1.9539 -0.9242
11614SOL     OW37733   0.777   8.414   5.762  0.1526  1.1943  0.3391
11614SOL    HW137734   0.691   8.374   5.747 -0.1351  2.1169 -0.6733
11614SOL    HW237735   0.760   8.481   5.829  0.3515  0.5660  1.0326
11615SOL     OW37736   0.717   2.863   8.754 -0.4986 -0.3632 -0.1596
11615SOL    HW137737   0.635   2.912   8.759 -0.3832 -0.0998 -0.8509
11615SOL    HW237738   0.721   2.815   8.838 -1.1742 -0.0992  0.0291
11616SOL     OW37739   4.311   7.886   6.145 -0.5815 -0.7856  0.0783
11616SOL    HW137740   4.249   7.870   6.074  1.4136  1.7272 -2.5001
11616SOL    HW237741   4.261   7.934   6.210 -2.3246 -2.5782  0.1333
11617SOL     OW37742   6.107   9.047   7.906 -0.1491 -0.1222 -0.1496
11617SOL    HW137743   6.194   9.009   7.922  1.1180  1.4057 -2.7149
11617SOL    HW237744   6.076   9.003   7.827 -0.5753  1.0978 -0.6760
11618SOL     OW37745   5.302   5.206   5.044  0.2432  0.3036 -0.1889
11618SOL    HW137746   5.272   5.116   5.030 -1.2442  0.8877 -0.9224
11618SOL    HW237747   5.287   5.250   4.961  0.5150  1.3540  0.3004
11619SOL     OW37748   7.225   1.174   1.833 -0.4282 -0.2563 -0.2575
11619SOL    HW137749   7.205   1.266   1.850  0.2550  0.2615 -2.0476
11619SOL    HW237750   7.283   1.175   1.757  0.3833 -2.1246  0.2657
11620SOL     OW37751   1.244   5.781   2.373 -0.2623  0.3406  0.0230
11620SOL    HW137752   1.318   5.746   2.325 -1.5877 -0.9386 -1.1753
11620SOL    HW237753   1.217   5.710   2.432  0.5447  1.4336  1.7783
11621SOL     OW37754   5.701   6.835   7.239 -0.0333  0.1069  0.0035
11621SOL    HW137755   5.621   6.880   7.267 -0.3787  0.1491 -1.0164
11621SOL    HW237756   5.749   6.900   7.188 -0.6076 -0.6660 -1.6170
11622SOL     OW37757   3.356   4.293   5.180 -0.2447 -0.5828  0.1973
11622SOL    HW137758   3.321   4.206   5.200  0.2560 -0.9795 -0.5493
11622SOL    HW237759   3.427   4.305   5.243  0.1059 -1.0061 -0.1067
11623SOL     OW37760   7.237   3.302   5.795 -0.0827 -0.0218  0.3131
11623SOL    HW137761   7.332   3.290   5.797 -0.3358 -2.4926  1.5381
11623SOL    HW237762   7.225   3.397   5.800  2.3032  0.3937 -0.4860
11624SOL     OW37763   2.242   1.068   2.281  0.9246  0.3895 -0.7377
11624SOL    HW137764   2.202   1.127   2.345 -1.1683 -0.9203 -0.7641
11624SOL    HW237765   2.215   1.103   2.196  2.0524  0.9823 -0.8729
11625SOL     OW37766   0.787   5.328   2.594 -0.4710  0.2570 -0.4773
11625SOL    HW137767   0.774   5.373   2.677 -2.3552 -1.3168  0.1424
11625SOL    HW237768   0.871   5.284   2.603 -0.1329  0.9989  0.1328
11626SOL     OW37769   6.351   1.046   8.010 -0.0800 -0.1575 -0.5296
11626SOL    HW137770   6.433   1.011   8.046 -0.1731 -0.5765 -0.7098
11626SOL    HW237771   6.287   1.033   8.079  0.0990  0.5923 -0.2134
11627SOL     OW37772   7.927   6.904   6.753  0.5812  0.3017 -0.1745
11627SOL    HW137773   7.954   6.876   6.665  3.1520 -1.2677  1.0045
11627SOL    HW237774   7.999   6.958   6.784  0.2602 -0.1159  1.3800
11628SOL     OW37775   1.423   6.961   6.147 -0.6075  0.3112  0.1311
11628SOL    HW137776   1.401   6.895   6.081 -0.1380  0.8200 -0.5494
11628SOL    HW237777   1.343   7.013   6.157 -0.6984  0.1987 -0.0072
11629SOL     OW37778   5.778   3.939   8.237  0.1613 -0.5813  0.2681
11629SOL    HW137779   5.705   3.935   8.176 -0.1182  0.9852  0.4475
11629SOL    HW237780   5.786   4.032   8.259  2.3982 -0.6516  0.0235
11630SOL     OW37781   7.969   7.755   0.382 -0.0280 -0.1163  0.4369
11630SOL    HW137782   8.024   7.680   0.403 -0.0306  0.3867  2.4511
11630SOL    HW237783   7.890   7.743   0.435  0.7709  2.2073  2.3434
11631SOL     OW37784   6.183   8.351   4.567  0.4936  0.8659 -0.0640
11631SOL    HW137785   6.139   8.333   4.650 -0.5211 -0.3813 -0.8330
11631SOL    HW237786   6.115   8.390   4.512  1.0068  1.1736 -0.4835
11632SOL     OW37787   2.440   6.334   0.789 -0.1740  0.1777  0.2671
11632SOL    HW137788   2.432   6.293   0.875 -0.0054 -0.2337  0.0896
11632SOL    HW237789   2.350   6.347   0.760 -0.2411  0.7943  0.7260
11633SOL     OW37790   7.977   2.918   4.469 -0.0660 -0.4237 -0.5161
11633SOL    HW137791   8.054   2.864   4.449 -0.3887 -0.8818 -0.5310
11633SOL    HW237792   8.007   3.008   4.455  0.6745 -0.5539  0.1480
11634SOL     OW37793   7.019   4.699   0.502 -0.0450  0.1874  0.4123
11634SOL    HW137794   7.053   4.727   0.417  2.7064 -1.9151  0.6524
11634SOL    HW237795   7.015   4.779   0.554  1.2730  1.0686 -0.7706
11635SOL     OW37796   4.509   3.751   6.330 -0.0150  0.5962  0.0219
11635SOL    HW137797   4.565   3.689   6.376 -2.3379 -1.2551  0.5829
11635SOL    HW237798   4.434   3.764   6.388 -1.1190  1.3735 -1.4961
11636SOL     OW37799   2.263   2.733   3.565  0.0731  0.1794  0.5429
11636SOL    HW137800   2.281   2.780   3.484  1.3277 -1.1753  0.0130
11636SOL    HW237801   2.226   2.649   3.537 -0.5399  0.1338  1.4266
11637SOL     OW37802   8.134   0.493   1.442 -0.1923 -0.1920  0.7809
11637SOL    HW137803   8.116   0.462   1.353 -1.0622  1.9970  0.1293
11637SOL    HW237804   8.212   0.548   1.433  1.1914 -1.8461  1.8737
11638SOL     OW37805   3.740   1.543   8.070 -0.1030  0.1928  0.3651
11638SOL    HW137806   3.778   1.473   8.123  0.9224 -1.1275 -1.9913
11638SOL    HW237807   3.676   1.499   8.014 -0.8562  1.4814  0.1494
11639SOL     OW37808   3.597   5.293   0.689 -0.2063 -0.3296 -0.4551
11639SOL    HW137809   3.594   5.238   0.611  1.3874 -0.9882 -0.0873
11639SOL    HW237810   3.664   5.359   0.670  0.2635 -0.5501  0.3902
11640SOL     OW37811   5.787   9.182   2.476 -0.3296 -0.4331  0.0684
11640SOL    HW137812   5.856   9.189   2.541  1.0603 -0.4449 -1.3257
11640SOL    HW237813   5.706   9.195   2.524  0.6071 -0.9577  1.8560
11641SOL     OW37814   5.328   0.359   4.890  0.0531 -0.4783  0.7179
11641SOL    HW137815   5.347   0.437   4.941  0.5036 -0.3798  0.4104
11641SOL    HW237816   5.294   0.296   4.953 -0.8387  0.1415  0.8800
11642SOL     OW37817   2.797   7.132   6.274 -0.0576 -0.2070  0.7334
11642SOL    HW137818   2.715   7.085   6.293 -0.8378  0.4354 -0.8126
11642SOL    HW237819   2.768   7.221   6.250  1.1291  0.1518  0.5811
11643SOL     OW37820   8.247   5.127   0.759  0.1010 -0.6639  0.1180
11643SOL    HW137821   8.237   5.032   0.757  0.7282 -0.7255 -0.3883
11643SOL    HW237822   8.310   5.146   0.689  0.6252  0.0446  0.7670
11644SOL     OW37823   1.083   6.458   1.681 -0.4222  0.0576  0.1264
11644SOL    HW137824   1.154   6.522   1.689  0.4915 -0.8727 -0.4714
11644SOL    HW237825   1.004   6.512   1.668  0.2832  1.0665 -0.0489
11645SOL     OW37826   8.233   4.199   4.598  0.1062 -0.0197  0.0011
11645SOL    HW137827   8.272   4.117   4.567  1.2033  1.1574 -1.8776
11645SOL    HW237828   8.224   4.253   4.520 -2.1000  1.1007  0.9287
11646SOL     OW37829   8.419   4.372   0.283  0.4350 -0.6047  0.4095
11646SOL    HW137830   8.408   4.279   0.263  2.0657 -1.0784  1.4858
11646SOL    HW237831   8.512   4.389   0.266 -0.0081  1.0609 -0.5753
11647SOL     OW37832   7.471   1.134   1.343 -0.2549  0.0335  0.0808
11647SOL    HW137833   7.422   1.145   1.262 -0.8982  0.4513  0.5146
11647SOL    HW237834   7.469   1.039   1.359  0.9900 -0.2030 -1.0503
11648SOL     OW37835   1.246   5.116   3.831 -0.2054 -0.0105  0.0979
11648SOL    HW137836   1.192   5.183   3.874 -0.4790  0.3063 -0.7213
11648SOL    HW237837   1.197   5.093   3.752 -0.2404 -1.3774  0.4974
11649SOL     OW37838   4.004   1.331   2.030 -0.0209 -0.7094 -0.0186
11649SOL    HW137839   4.004   1.425   2.049  0.0265 -0.0168 -2.8696
11649SOL    HW237840   3.917   1.301   2.056 -0.7522  0.6053 -0.8199
11650SOL     OW37841   3.891   2.924   7.729  0.6294  0.2605 -0.0247
11650SOL    HW137842   3.857   2.882   7.808  2.8328 -1.5050  0.0806
11650SOL    HW237843   3.984   2.940   7.748  1.4537 -1.0764 -2.5328
11651SOL     OW37844   2.642   2.127   0.720 -0.6154  0.4983 -0.1906
11651SOL    HW137845   2.588   2.206   0.720 -0.8445  0.3475  0.1052
11651SOL    HW237846   2.663   2.113   0.813 -1.0952 -0.1335 -0.1666
11652SOL     OW37847   9.037   3.516   6.736  0.4857 -0.3102  0.0782
11652SOL    HW137848   9.112   3.562   6.697  0.5317 -0.0909  0.4183
11652SOL    HW237849   9.042   3.537   6.830 -1.1336  1.3416 -0.1403
11653SOL     OW37850   6.880   1.377   1.312  0.4093  0.1478  0.8541
11653SOL    HW137851   6.836   1.462   1.306  0.7557  0.4163  1.8685
11653SOL    HW237852   6.944   1.378   1.241 -1.8939 -0.7065 -1.3933
11654SOL     OW37853   6.185   6.085   7.911 -0.4209 -0.1268 -0.2303
11654SOL    HW137854   6.129   6.044   7.846 -0.0987 -0.1279 -0.5074
11654SOL    HW237855   6.162   6.042   7.993 -0.4855 -0.4645 -0.4242
11655SOL     OW37856   8.954   5.012   2.236 -0.3374  0.1354  0.2556
11655SOL    HW137857   8.978   5.105   2.239  0.5008  0.1175 -2.5077
11655SOL    HW237858   8.858   5.012   2.239 -0.3249  0.9880  1.3045
11656SOL     OW37859   8.312   1.933   0.144 -0.4462  0.1746 -0.1251
11656SOL    HW137860   8.311   2.000   0.212  1.4915 -0.2797  0.4190
11656SOL    HW237861   8.223   1.934   0.107 -0.7800  2.2261  0.6279
11657SOL     OW37862   5.565   0.523   1.116  0.5659  0.2632 -0.1508
11657SOL    HW137863   5.522   0.503   1.200 -0.3672  1.5978 -0.2674
11657SOL    HW237864   5.655   0.495   1.128 -0.0218 -1.4666  0.5707
11658SOL     OW37865   0.386   0.704   1.366 -0.4212 -0.1077  0.2468
11658SOL    HW137866   0.337   0.622   1.365 -1.7916  0.6268  1.7272
11658SOL    HW237867   0.397   0.726   1.273 -0.8349 -1.4822 -0.1639
11659SOL     OW37868   5.180   2.208   8.676  0.5573 -0.0298  0.3055
11659SOL    HW137869   5.129   2.277   8.717 -1.5236 -0.5137 -1.3464
11659SOL    HW237870   5.234   2.252   8.611  0.7551  0.2606  0.6659
11660SOL     OW37871   4.011   1.669   8.919  0.0018 -0.4828  0.0762
11660SOL    HW137872   3.941   1.604   8.928  0.0112 -0.8766 -2.2993
11660SOL    HW237873   4.091   1.622   8.944 -0.1840 -0.9227 -0.1568
11661SOL     OW37874   1.247   9.169   0.495  0.1073  0.3187  0.1726
11661SOL    HW137875   1.186   9.192   0.564  0.2522  0.2694  0.3184
11661SOL    HW237876   1.316   9.119   0.539  0.7914  1.2547  0.2044
11662SOL     OW37877   4.953   7.855   1.055  0.4262  0.1637  0.0139
11662SOL    HW137878   4.932   7.805   0.977  0.9528 -1.4386  0.8595
11662SOL    HW237879   4.873   7.904   1.075 -0.8205 -1.8970  0.2989
11663SOL     OW37880   6.621   3.161   1.624  0.6847 -0.1858 -0.3234
11663SOL    HW137881   6.704   3.180   1.667  1.1564 -1.4135 -0.6695
11663SOL    HW237882   6.638   3.084   1.570 -0.6546 -0.4022 -0.4765
11664SOL     OW37883   2.149   4.315   7.708 -0.1504  0.2921  0.7705
11664SOL    HW137884   2.238   4.291   7.736  0.5634 -0.0148 -1.5767
11664SOL    HW237885   2.095   4.241   7.735  0.7250 -0.5732  0.2461
11665SOL     OW37886   0.799   6.407   4.222 -0.3306  0.4710  0.2177
11665SOL    HW137887   0.876   6.384   4.275 -0.3832 -0.3821 -0.0529
11665SOL    HW237888   0.835   6.452   4.146  0.0822 -1.1893 -0.6392
11666SOL     OW37889   5.992   2.633   5.063  0.3515 -0.3631 -0.6393
11666SOL    HW137890   6.060   2.571   5.038 -1.0618 -2.4635  0.4215
11666SOL    HW237891   5.996   2.636   5.159 -1.1188 -0.6814 -0.5387
11667SOL     OW37892   4.501   5.093   2.031  0.1175  0.3113  0.2065
11667SOL    HW137893   4.464   5.039   1.961 -0.9839 -0.3730  1.2869
11667SOL    HW237894   4.581   5.047   2.056  0.1418  0.1809 -0.0979
11668SOL     OW37895   5.079   2.571   4.583 -0.8063 -0.3122  0.4663
11668SOL    HW137896   5.011   2.619   4.630 -1.2097 -0.1952 -0.2116
11668SOL    HW237897   5.131   2.529   4.651 -1.2769 -0.0210  1.0139
11669SOL     OW37898   5.293   5.445   3.460 -0.1071  0.3701  0.4189
11669SOL    HW137899   5.295   5.535   3.429 -0.0632 -0.1728 -1.2033
11669SOL    HW237900   5.258   5.395   3.387 -0.2609 -0.9285  1.3439
11670SOL     OW37901   4.084   5.296   0.842 -0.5187 -0.2125  0.6866
11670SOL    HW137902   4.082   5.309   0.937  0.0580  0.2073  0.6418
11670SOL    HW237903   4.109   5.381   0.807  0.2099 -0.6165  0.2122
11671SOL     OW37904   1.907   7.854   2.353 -0.0050  0.3628 -0.0809
11671SOL    HW137905   1.926   7.946   2.333 -0.3807  0.6488  0.8277
11671SOL    HW237906   1.873   7.855   2.443  1.3600 -0.8269  0.5094
11672SOL     OW37907   1.156   7.426   8.478  0.1864 -0.7155  0.4908
11672SOL    HW137908   1.210   7.387   8.410  0.2192  1.2475 -0.6984
11672SOL    HW237909   1.066   7.403   8.454  0.0939  1.0314 -1.0220
11673SOL     OW37910   1.783   5.215   1.397  0.4291 -0.0700  0.1173
11673SOL    HW137911   1.702   5.190   1.352  1.2554 -1.6111 -0.5606
11673SOL    HW237912   1.809   5.137   1.446  1.3818  0.4827  0.5175
11674SOL     OW37913   5.695   4.619   4.316  0.2926  0.0412 -0.4174
11674SOL    HW137914   5.679   4.549   4.378  1.4807 -0.4667 -0.6568
11674SOL    HW237915   5.608   4.647   4.288 -0.2713  0.2903  1.4476
11675SOL     OW37916   2.814   0.390   8.903 -0.3872 -0.1388 -0.6349
11675SOL    HW137917   2.789   0.428   8.987 -1.9487 -0.8942 -0.7186
11675SOL    HW237918   2.896   0.344   8.921  0.3107  1.2703 -0.0062
11676SOL     OW37919   8.107   0.356   1.191  0.2780 -0.6077 -0.4727
11676SOL    HW137920   8.118   0.372   1.097  1.9902 -2.1846 -0.6120
11676SOL    HW237921   8.176   0.293   1.212 -0.3108 -0.5755  1.7818
11677SOL     OW37922   0.246   2.416   6.246 -0.0777  0.0616  0.0280
11677SOL    HW137923   0.216   2.456   6.164 -1.1481 -0.2771  0.2473
11677SOL    HW237924   0.210   2.327   6.244  1.0244 -0.4110  0.2488
11678SOL     OW37925   4.007   5.941   2.547 -0.0218 -0.3068 -0.1151
11678SOL    HW137926   4.097   5.966   2.527  0.0929 -0.3559  0.3195
11678SOL    HW237927   4.013   5.848   2.571  0.4334  0.5054  3.5168
11679SOL     OW37928   1.233   2.634   2.147  0.0383  0.5696  0.1019
11679SOL    HW137929   1.242   2.705   2.211  1.4805  3.0911 -2.6332
11679SOL    HW237930   1.318   2.630   2.104 -0.7179 -1.3626 -1.3101
11680SOL     OW37931   7.818   4.813   6.274 -0.2565 -0.1117 -0.5795
11680SOL    HW137932   7.789   4.784   6.188  2.1473 -2.0775 -0.8403
11680SOL    HW237933   7.776   4.752   6.335  0.6569 -0.8648 -0.6818
11681SOL     OW37934   3.356   5.549   5.504 -0.2575  0.3189  0.1406
11681SOL    HW137935   3.360   5.464   5.461 -1.8720  0.7883 -1.0363
11681SOL    HW237936   3.340   5.611   5.434 -1.5617  1.2894  1.2349
11682SOL     OW37937   3.576   4.342   5.299 -0.2870 -0.5779  0.2958
11682SOL    HW137938   3.603   4.418   5.351 -1.0182  0.7717 -1.2015
11682SOL    HW237939   3.606   4.266   5.349 -0.1369  0.6708  2.1885
11683SOL     OW37940   1.384   3.787   0.706  0.0911 -0.2331 -0.3688
11683SOL    HW137941   1.311   3.733   0.735 -0.3481 -0.9622 -2.6453
11683SOL    HW237942   1.452   3.725   0.681  1.6779  0.4330  1.9496
11684SOL     OW37943   9.119   2.088   1.846 -0.2638 -0.0321  0.4766
11684SOL    HW137944   9.144   2.002   1.811 -0.5670  0.3392 -0.7039
11684SOL    HW237945   9.134   2.148   1.774 -3.2395  0.4273  0.1013
11685SOL     OW37946   6.371   8.515   6.400 -0.1229 -0.0803 -0.2265
11685SOL    HW137947   6.459   8.480   6.412 -0.2895 -0.9578 -1.3776
11685SOL    HW237948   6.336   8.521   6.489  1.4161  1.1963  0.3404
11686SOL     OW37949   5.211   3.182   1.178 -0.0188 -0.4027  0.6762
11686SOL    HW137950   5.211   3.244   1.105 -2.0260  0.8485  1.6160
11686SOL    HW237951   5.147   3.116   1.152  1.2872 -1.4942  0.1647
11687SOL     OW37952   6.605   8.301   2.361 -0.1981 -0.2743  0.2019
11687SOL    HW137953   6.557   8.384   2.357  0.3183  0.0599  0.7989
11687SOL    HW237954   6.584   8.266   2.447 -0.2737 -0.6841  0.0183
11688SOL     OW37955   6.211   2.712   2.255  0.1344  0.1933 -0.3148
11688SOL    HW137956   6.271   2.669   2.316 -1.9533 -1.0618  1.0027
11688SOL    HW237957   6.191   2.796   2.297  1.6242  1.0293 -1.2170
11689SOL     OW37958   5.153   7.868   4.523  0.7568  0.5310 -0.4263
11689SOL    HW137959   5.114   7.791   4.482 -0.7649  0.9937  0.0753
11689SOL    HW237960   5.113   7.942   4.478 -1.3026  1.0724  2.0097
11690SOL     OW37961   2.965   3.947   8.620  0.8937 -0.0210 -0.1666
11690SOL    HW137962   2.957   3.938   8.715  4.2409  0.8920  0.3351
11690SOL    HW237963   2.882   3.987   8.593 -0.5256 -1.1684  2.1893
11691SOL     OW37964   8.894   6.756   2.677  0.1813 -0.1418 -0.1002
11691SOL    HW137965   8.822   6.816   2.657 -0.1159 -0.5365 -0.2186
11691SOL    HW237966   8.973   6.808   2.663 -0.0600  0.0653 -0.7443
11692SOL     OW37967   8.575   1.447   8.574  0.1464  0.0762 -0.0565
11692SOL    HW137968   8.597   1.528   8.620  1.7082 -1.7247  2.6017
11692SOL    HW237969   8.534   1.477   8.493 -0.7982  3.5062  1.4749
11693SOL     OW37970   8.614   7.166   7.147 -0.1975  0.9086  0.8683
11693SOL    HW137971   8.653   7.162   7.060  1.3579  0.5417  1.5498
11693SOL    HW237972   8.620   7.258   7.172 -1.2250  1.1300  0.3604
11694SOL     OW37973   1.066   2.927   4.774 -0.2797 -0.2276 -0.4240
11694SOL    HW137974   1.057   2.899   4.683  1.0745 -1.5478 -0.1957
11694SOL    HW237975   1.139   2.875   4.808 -1.0641 -0.1214  1.5654
11695SOL     OW37976   4.364   5.830   0.939 -0.2335  0.2655 -0.0093
11695SOL    HW137977   4.392   5.744   0.970 -0.4676  0.0402 -0.4115
11695SOL    HW237978   4.442   5.866   0.896 -0.6663 -0.5910 -1.6122
11696SOL     OW37979   2.994   8.482   4.356 -0.1495  0.4495 -0.4733
11696SOL    HW137980   3.051   8.416   4.317  0.3764  0.8482 -0.3919
11696SOL    HW237981   2.906   8.445   4.348  0.2677 -0.9734  0.9956
11697SOL     OW37982   7.430   0.027   5.954  0.3003  0.2293 -0.3192
11697SOL    HW137983   7.373  -0.039   5.993 -0.4316  1.0075 -0.0163
11697SOL    HW237984   7.382   0.109   5.967  0.1481  0.5593 -2.6061
11698SOL     OW37985   5.176   6.100   7.295  0.1774 -0.1667 -0.2034
11698SOL    HW137986   5.208   6.189   7.282 -2.5532  0.8335 -0.6606
11698SOL    HW237987   5.231   6.047   7.237  1.9220  1.1611  0.1506
11699SOL     OW37988   0.107   6.833   4.971 -0.9967  0.1590  0.4571
11699SOL    HW137989   0.183   6.788   4.936 -0.1815  0.5604  1.6474
11699SOL    HW237990   0.088   6.902   4.906 -0.1763  0.2322  0.2813
11700SOL     OW37991   2.612   8.606   6.785  0.2962  0.2986 -0.6385
11700SOL    HW137992   2.658   8.573   6.707 -1.1536 -3.8281 -0.0253
11700SOL    HW237993   2.540   8.657   6.750  0.5385 -0.2224 -1.9709
11701SOL     OW37994   7.052   3.828   0.385  0.1895 -0.2121  0.1076
11701SOL    HW137995   6.967   3.852   0.346  0.9089 -0.0565 -1.4453
11701SOL    HW237996   7.068   3.739   0.354  1.0222  0.1051 -0.3855
11702SOL     OW37997   1.936   0.441   8.712 -0.0032  0.0857  0.5647
11702SOL    HW137998   2.004   0.423   8.777 -0.7443  0.1486  1.3798
11702SOL    HW237999   1.984   0.458   8.631  0.8597 -2.3356  0.4998
11703SOL     OW38000   0.064   4.323   1.899 -0.0921 -0.5619 -0.4727
11703SOL    HW138001   0.013   4.399   1.927 -0.5129 -1.1189  0.3127
11703SOL    HW238002   0.109   4.352   1.819 -0.8345  0.2656 -0.6053
11704SOL     OW38003   8.727   1.881   0.219 -0.1634 -0.0832  0.0106
11704SOL    HW138004   8.701   1.971   0.201 -0.9021 -0.5102 -1.1208
11704SOL    HW238005   8.821   1.879   0.200 -0.0822  0.5127  0.3278
11705SOL     OW38006   3.300   4.701   5.231 -0.2012 -0.7826 -0.5940
11705SOL    HW138007   3.241   4.770   5.199  0.7301 -0.0934 -0.8610
11705SOL    HW238008   3.357   4.744   5.294 -1.3674 -1.9202  1.3584
11706SOL     OW38009   3.076   1.418   5.145  0.5339  0.1857  0.2689
11706SOL    HW138010   3.053   1.433   5.053  0.9668  0.7343  0.2417
11706SOL    HW238011   3.005   1.460   5.194  1.3449  1.7540  0.1855
11707SOL     OW38012   2.138   2.473   6.211  0.1505 -0.2419  0.0519
11707SOL    HW138013   2.227   2.474   6.177  0.6200  0.9882  1.2358
11707SOL    HW238014   2.144   2.428   6.295 -0.2456  0.3080  0.3805
11708SOL     OW38015   6.020   5.291   7.690  0.9151 -0.4859  0.4122
11708SOL    HW138016   6.079   5.330   7.754 -0.4339  0.2475  1.2640
11708SOL    HW238017   6.036   5.197   7.696  0.3725 -0.4880  2.3302
11709SOL     OW38018   8.346   2.547   3.989 -0.3446  0.8186 -0.6063
11709SOL    HW138019   8.277   2.611   3.971 -0.4672  0.4153 -1.7022
11709SOL    HW238020   8.343   2.488   3.913 -0.4072 -0.6322  0.4893
11710SOL     OW38021   0.992   0.442   8.633  0.1292 -0.1214  0.7190
11710SOL    HW138022   1.023   0.366   8.585  0.4931 -0.2924  1.2187
11710SOL    HW238023   0.973   0.508   8.565 -0.2409 -0.6671  0.2816
11711SOL     OW38024   0.924   2.250   5.559 -0.9005 -0.1890  0.4216
11711SOL    HW138025   0.905   2.173   5.613 -0.6008 -1.4161 -1.1484
11711SOL    HW238026   0.839   2.293   5.547 -1.2576 -0.8880  0.4207
11712SOL     OW38027   7.949   2.118   9.235 -0.5612 -0.2916  0.2294
11712SOL    HW138028   7.989   2.201   9.260 -0.6578 -1.0629  3.3295
11712SOL    HW238029   7.856   2.139   9.222 -0.2662  0.3823 -0.9318
11713SOL     OW38030   5.405   5.710   7.409 -0.0821  0.3213  0.3762
11713SOL    HW138031   5.442   5.695   7.322 -1.8875 -0.0762 -0.3725
11713SOL    HW238032   5.461   5.777   7.448  0.0453  1.4359 -1.5878
11714SOL     OW38033   7.139   4.930   5.078 -0.0830 -0.3455  0.5445
11714SOL    HW138034   7.092   4.989   5.137  1.6548 -1.5370  3.3735
11714SOL    HW238035   7.106   4.843   5.101 -0.6698 -0.7383 -1.6218
11715SOL     OW38036   0.365   9.243   6.837 -0.2219  0.2469 -0.1641
11715SOL    HW138037   0.341   9.277   6.751 -2.3404 -1.3689 -0.2904
11715SOL    HW238038   0.282   9.237   6.885  0.5649 -1.1270  1.1362
11716SOL     OW38039   5.102   4.994   1.866 -0.0226  0.4521 -0.3340
11716SOL    HW138040   5.071   4.923   1.810 -0.3475 -0.8340  1.4001
11716SOL    HW238041   5.185   4.963   1.900 -0.5252  0.5524  1.0328
11717SOL     OW38042   6.445   3.747   8.715 -0.1625  0.0463 -0.0661
11717SOL    HW138043   6.385   3.677   8.688  2.1631 -1.2281 -2.4659
11717SOL    HW238044   6.529   3.703   8.729  1.3400  2.2435 -1.4030
11718SOL     OW38045   0.542   0.087   0.620  0.5111 -0.2282 -0.4537
11718SOL    HW138046   0.579   0.053   0.701 -0.9041 -0.2014  0.2314
11718SOL    HW238047   0.573   0.177   0.615 -0.7201  0.3264  0.9712
11719SOL     OW38048   4.291   6.337   3.708  0.3757  0.0936 -0.1644
11719SOL    HW138049   4.255   6.426   3.714  0.3490  0.0838 -0.1835
11719SOL    HW238050   4.345   6.328   3.787 -0.6039 -0.3260  0.4679
11720SOL     OW38051   4.823   6.888   0.683 -0.6256 -0.5635 -0.2023
11720SOL    HW138052   4.874   6.959   0.722  1.3516 -2.2612  0.4554
11720SOL    HW238053   4.779   6.929   0.609  1.8146  1.0244 -0.9092
11721SOL     OW38054   7.623   1.119   1.987  0.5393 -0.6240  0.6991
11721SOL    HW138055   7.609   1.210   1.962  0.8960 -0.1794  2.0339
11721SOL    HW238056   7.684   1.085   1.921 -0.6706 -0.3338 -0.6214
11722SOL     OW38057   5.302   6.211   4.413 -0.0972  0.0022 -0.1960
11722SOL    HW138058   5.309   6.154   4.336  1.4572  0.9989 -0.8359
11722SOL    HW238059   5.275   6.152   4.484  1.5781 -1.5747 -0.7937
11723SOL     OW38060   3.080   1.652   1.378  0.3742 -0.0298 -0.2184
11723SOL    HW138061   3.053   1.563   1.403  1.3376 -0.4615 -0.6649
11723SOL    HW238062   3.048   1.662   1.288 -1.0506  0.6585  0.3290
11724SOL     OW38063   4.065   3.456   2.902 -0.2698 -0.1384 -0.3158
11724SOL    HW138064   3.993   3.514   2.928  0.0991  0.5348 -0.7592
11724SOL    HW238065   4.041   3.370   2.937 -0.1365  0.5676  1.6223
11725SOL     OW38066   0.679   2.951   4.294  0.2861  0.4769  0.2655
11725SOL    HW138067   0.650   3.034   4.258 -1.2106  0.1600  0.6606
11725SOL    HW238068   0.771   2.965   4.316  0.3585  1.6561 -0.7039
11726SOL     OW38069   4.427   3.267   6.008 -0.4092 -0.3231 -0.1609
11726SOL    HW138070   4.433   3.358   6.038  0.8557 -0.4020 -0.1201
11726SOL    HW238071   4.404   3.274   5.916 -0.2938  0.0485 -0.1642
11727SOL     OW38072   6.030   0.060   0.785 -0.5210  0.0900  0.1397
11727SOL    HW138073   6.065   0.097   0.866  0.9084  0.8426 -0.7726
11727SOL    HW238074   5.968  -0.006   0.814  0.1867  0.1133  1.8534
11728SOL     OW38075   7.939   5.299   4.569 -0.1194  0.8731  0.0819
11728SOL    HW138076   7.929   5.204   4.577 -0.7179  1.0349  1.5892
11728SOL    HW238077   7.925   5.317   4.477 -1.0693 -0.3964 -0.0458
11729SOL     OW38078   8.961   6.951   5.877 -0.2078  0.3280  0.3300
11729SOL    HW138079   9.049   6.914   5.889 -0.6566 -0.4745  1.3998
11729SOL    HW238080   8.911   6.880   5.837 -0.6160  0.4112  0.6824
11730SOL     OW38081   4.065   8.704   4.065 -0.7343  0.2604 -0.3820
11730SOL    HW138082   4.101   8.787   4.097 -2.4010  0.9632 -0.1898
11730SOL    HW238083   3.970   8.719   4.063 -1.0505 -1.5560 -0.6226
11731SOL     OW38084   8.802   3.839   0.793 -0.3104 -0.6751 -0.3649
11731SOL    HW138085   8.847   3.915   0.756 -1.3359  1.4081  2.3598
11731SOL    HW238086   8.747   3.874   0.863 -3.5643 -3.5047 -1.1853
11732SOL     OW38087   7.135   5.814   8.541  0.2945 -0.2970  0.3486
11732SOL    HW138088   7.072   5.790   8.473 -0.8800  0.0175  1.2909
11732SOL    HW238089   7.172   5.730   8.569  0.9823 -0.4080 -0.8257
11733SOL     OW38090   0.988   8.604   3.660  0.2063  0.3817 -0.4625
11733SOL    HW138091   0.897   8.608   3.688 -0.0566  0.6905 -1.3217
11733SOL    HW238092   0.986   8.556   3.577  1.0440 -1.1281  0.3369
11734SOL     OW38093   4.955   1.591   4.812 -0.2741 -0.0253  0.3448
11734SOL    HW138094   5.037   1.546   4.794  0.2268  0.9393  0.1364
11734SOL    HW238095   4.888   1.523   4.807  0.4718 -0.7580  0.1766
11735SOL     OW38096   2.176   0.706   3.306  0.2305 -0.3973  0.4436
11735SOL    HW138097   2.189   0.790   3.349 -0.3793  0.1243 -0.3585
11735SOL    HW238098   2.261   0.687   3.265 -0.1338  0.7745 -0.9618
11736SOL     OW38099   0.815   6.344   5.831  0.0071 -0.0043  0.5784
11736SOL    HW138100   0.764   6.277   5.785  0.2695  1.0198 -1.3122
11736SOL    HW238101   0.906   6.318   5.818  0.0696 -0.0062  1.0122
11737SOL     OW38102   1.041   3.248   2.935  0.4921  0.0388 -0.4539
11737SOL    HW138103   1.059   3.254   3.029 -0.6329  1.6272 -0.3019
11737SOL    HW238104   0.985   3.171   2.926  0.3856  0.0346  0.1951
11738SOL     OW38105   2.678   8.136   2.636 -0.4139  0.0265 -0.1334
11738SOL    HW138106   2.735   8.149   2.712  0.5434 -0.4797 -0.7366
11738SOL    HW238107   2.592   8.163   2.666  0.3072  1.7170  0.5254
11739SOL     OW38108   4.070   0.225   2.613 -0.1831  0.1365  0.4807
11739SOL    HW138109   4.101   0.195   2.527  0.0661 -0.1908  0.6802
11739SOL    HW238110   4.100   0.157   2.674 -0.7287  0.1478  0.7679
11740SOL     OW38111   4.446   5.393   5.181  0.8876  0.5343 -0.3430
11740SOL    HW138112   4.532   5.402   5.141  0.1273  0.0147 -2.2444
11740SOL    HW238113   4.411   5.312   5.143 -0.6054  0.9810  0.0205
11741SOL     OW38114   1.625   2.740   9.169 -0.5447  0.2241  0.3331
11741SOL    HW138115   1.631   2.835   9.179 -1.4819  0.3783 -0.4035
11741SOL    HW238116   1.633   2.725   9.075 -1.3278 -0.3435  0.3465
11742SOL     OW38117   3.912   8.199   1.567  0.2852  0.0562  0.6783
11742SOL    HW138118   3.988   8.161   1.523  0.6396  1.3764  0.0978
11742SOL    HW238119   3.844   8.132   1.561  0.6290 -0.1639 -1.0235
11743SOL     OW38120   8.518   2.392   6.643 -0.3083 -0.4097 -0.1875
11743SOL    HW138121   8.517   2.341   6.562 -1.5538 -0.7667  0.0253
11743SOL    HW238122   8.533   2.482   6.614 -2.3220 -0.2771 -1.0239
11744SOL     OW38123   8.099   4.338   2.310 -0.1268 -0.1609 -0.5972
11744SOL    HW138124   8.157   4.364   2.382  0.3584  1.2534 -1.4514
11744SOL    HW238125   8.125   4.249   2.288  1.0378  0.0962 -0.3038
11745SOL     OW38126   7.929   7.853   2.039 -0.1983  0.3342 -0.0620
11745SOL    HW138127   7.854   7.829   2.092 -0.4575  2.1906  0.4752
11745SOL    HW238128   7.933   7.786   1.971 -2.3719  0.2202 -0.1313
11746SOL     OW38129   2.807   5.352   7.113  0.0490 -0.3736 -0.2612
11746SOL    HW138130   2.763   5.318   7.035  0.0684 -0.1004 -0.3931
11746SOL    HW238131   2.822   5.445   7.094 -0.7109 -0.1058  0.4161
11747SOL     OW38132   0.975   0.625   8.376  0.4473  0.0688 -0.0697
11747SOL    HW138133   0.989   0.616   8.282 -1.3910  1.1015 -0.4959
11747SOL    HW238134   1.040   0.689   8.404 -0.7846  1.9417 -1.2392
11748SOL     OW38135   7.123   3.531   8.246 -0.2862 -0.0863 -0.4008
11748SOL    HW138136   7.191   3.595   8.225  1.0354 -1.4278 -0.3884
11748SOL    HW238137   7.110   3.540   8.341  0.3217 -0.2418 -0.2996
11749SOL     OW38138   9.080   8.041   6.333 -0.5687  0.3823 -0.4657
11749SOL    HW138139   9.099   8.033   6.240  1.0319  0.9401 -0.2149
11749SOL    HW238140   9.148   8.099   6.367 -0.2241 -0.9547  1.3171
11750SOL     OW38141   0.397   8.646   5.172 -0.3037 -0.2486  0.5063
11750SOL    HW138142   0.367   8.614   5.087 -2.0232  1.0275  0.5786
11750SOL    HW238143   0.317   8.663   5.221  0.6568 -1.7432  2.7311
11751SOL     OW38144   1.267   6.792   4.204  0.1318  0.4842 -0.1474
11751SOL    HW138145   1.258   6.850   4.128 -0.1517 -0.0909 -0.5608
11751SOL    HW238146   1.208   6.829   4.270 -1.3845 -0.2980 -1.0132
11752SOL     OW38147   0.224   5.879   4.497 -1.4849  0.3314 -0.6355
11752SOL    HW138148   0.232   5.877   4.592 -0.7441  2.2561 -0.5993
11752SOL    HW238149   0.225   5.973   4.475  0.3350 -0.0845 -2.6668
11753SOL     OW38150   5.373   1.210   0.724 -0.3100 -0.1567 -0.0747
11753SOL    HW138151   5.332   1.285   0.681  1.6695  1.7883  1.1847
11753SOL    HW238152   5.394   1.149   0.652  0.3280  1.6769 -1.5298
11754SOL     OW38153   4.709   4.583   0.631  0.4715 -0.4680  0.3090
11754SOL    HW138154   4.760   4.611   0.706 -2.1536  1.5613  1.4938
11754SOL    HW238155   4.690   4.663   0.582 -1.1209 -1.1758 -0.3405
11755SOL     OW38156   5.751   7.559   6.458 -0.3621 -0.1802  0.4401
11755SOL    HW138157   5.799   7.570   6.376 -1.2603  0.4305 -0.0242
11755SOL    HW238158   5.678   7.501   6.435 -1.2035  0.8190  0.5466
11756SOL     OW38159   5.964   7.573   7.111  0.2674 -0.0623  0.7392
11756SOL    HW138160   5.996   7.553   7.023 -1.1047 -0.0708  0.2297
11756SOL    HW238161   5.930   7.663   7.105 -0.8839 -0.4681  0.9460
11757SOL     OW38162   1.981   5.531   9.246 -0.2843 -0.4787  0.3224
11757SOL    HW138163   2.053   5.582   9.281  1.2116 -2.1134 -0.2012
11757SOL    HW238164   1.914   5.595   9.223  1.5173  1.2441 -0.3833
11758SOL     OW38165   4.104   6.417   2.366 -0.8246 -0.0120 -0.8669
11758SOL    HW138166   4.073   6.385   2.282  2.0925  3.4180 -3.5861
11758SOL    HW238167   4.055   6.498   2.381 -0.8383 -0.2331  0.4143
11759SOL     OW38168   9.012   2.941   8.046  0.2265 -0.0373  0.0885
11759SOL    HW138169   8.928   2.907   8.076  0.3905 -0.7144 -0.2089
11759SOL    HW238170   9.077   2.904   8.106  0.6044 -1.7709 -1.3151
11760SOL     OW38171   2.655   0.876   6.577  0.3347  0.1797 -0.0531
11760SOL    HW138172   2.569   0.914   6.561  0.2329 -0.8554 -2.2347
11760SOL    HW238173   2.701   0.942   6.629 -1.6382  0.8885  0.8829
11761SOL     OW38174   2.868   7.088   7.991 -0.1745 -0.2459  0.3920
11761SOL    HW138175   2.850   7.120   7.903  0.4909  0.5656  0.5373
11761SOL    HW238176   2.960   7.061   7.989 -0.1834 -0.3201  0.8105
11762SOL     OW38177   3.900   3.262   0.187 -0.3956 -0.4623 -0.1985
11762SOL    HW138178   3.865   3.289   0.102  1.0700 -0.1957 -0.7447
11762SOL    HW238179   3.902   3.166   0.182 -2.9163 -0.6468  0.6513
11763SOL     OW38180   8.921   2.045   5.668  0.8921 -0.0384  0.3080
11763SOL    HW138181   8.958   2.055   5.581  2.0418  1.7581  0.9434
11763SOL    HW238182   8.868   2.124   5.681  0.5195 -0.4086  1.1246
11764SOL     OW38183   9.010   0.096   4.630 -0.0980  0.4975 -0.5180
11764SOL    HW138184   9.104   0.094   4.608 -0.2893  1.5533 -1.5240
11764SOL    HW238185   8.969   0.141   4.557 -1.5797 -0.9341 -0.6323
11765SOL     OW38186   5.399   7.963   8.077 -0.0373  0.2072 -0.0269
11765SOL    HW138187   5.349   7.985   8.155  0.4079  0.9093  0.0696
11765SOL    HW238188   5.334   7.932   8.015 -0.4939  0.3896  0.3578
11766SOL     OW38189   0.808   8.860   1.710 -0.4169  0.0024 -0.6593
11766SOL    HW138190   0.860   8.885   1.634 -0.8625  0.3610 -0.8455
11766SOL    HW238191   0.873   8.833   1.775 -0.0370 -0.3583 -1.1810
11767SOL     OW38192   3.948   3.810   2.060  0.5885  0.2503  0.4716
11767SOL    HW138193   3.985   3.802   1.972 -0.1577  0.2677  0.1493
11767SOL    HW238194   3.876   3.872   2.050 -1.3977 -1.8960  0.4435
11768SOL     OW38195   5.893   6.145   2.939 -0.0569 -0.1127 -0.3260
11768SOL    HW138196   5.808   6.190   2.943  0.2788  0.4744  0.3792
11768SOL    HW238197   5.940   6.189   2.868  0.8133  1.6716  1.2716
11769SOL     OW38198   1.860   2.945   5.701 -0.7255 -0.3754  0.4734
11769SOL    HW138199   1.848   3.032   5.739 -0.8319  0.3989 -1.2660
11769SOL    HW238200   1.787   2.936   5.640  0.2012 -1.0210 -0.5473
11770SOL     OW38201   6.221   4.712   6.471  0.1792 -0.2754 -0.5507
11770SOL    HW138202   6.303   4.684   6.432  1.0109  2.6439 -1.0760
11770SOL    HW238203   6.174   4.756   6.400 -1.0810 -0.3817  0.1827
11771SOL     OW38204   3.227   0.010   1.452  0.0005 -0.0039 -0.3185
11771SOL    HW138205   3.262  -0.040   1.379  2.3522  0.9080  0.0790
11771SOL    HW238206   3.222   0.100   1.419  0.6503  0.3334  0.4481
11772SOL     OW38207   3.857   2.570   3.319  0.0635  0.5800 -0.3515
11772SOL    HW138208   3.795   2.635   3.285 -0.1488  0.3979 -0.3132
11772SOL    HW238209   3.818   2.540   3.401  0.5222  0.9413  0.0064
11773SOL     OW38210   8.829   8.439   1.878  0.4171  0.0355  0.6003
11773SOL    HW138211   8.832   8.488   1.960  0.7616  1.1694 -0.0652
11773SOL    HW238212   8.893   8.368   1.890  0.9988  0.6247  1.0397
11774SOL     OW38213   8.600   2.565   5.986  0.0816 -0.5112  0.1658
11774SOL    HW138214   8.553   2.562   5.903 -0.4966 -0.7732  0.4919
11774SOL    HW238215   8.639   2.652   5.989 -0.6711 -0.1598  0.0369
11775SOL     OW38216   0.786   0.865   7.359  0.3100  0.3369 -0.2967
11775SOL    HW138217   0.875   0.887   7.388 -0.1894  2.6349 -0.3411
11775SOL    HW238218   0.733   0.870   7.439  0.1478 -0.8762 -0.2983
11776SOL     OW38219   2.862   1.017   9.098  0.3865  0.5018  0.1932
11776SOL    HW138220   2.886   1.085   9.161  2.2433 -0.5517  0.6957
11776SOL    HW238221   2.913   1.038   9.020 -0.1398  0.4914 -0.1552
11777SOL     OW38222   0.162   7.826   1.815  0.5334 -0.4555 -0.0977
11777SOL    HW138223   0.094   7.869   1.763 -0.9032 -1.0475  1.2162
11777SOL    HW238224   0.123   7.743   1.843  1.3594 -0.3245  1.6115
11778SOL     OW38225   3.170   7.128   2.719 -0.4653 -0.1771  0.1515
11778SOL    HW138226   3.238   7.091   2.663 -1.1208 -1.4130  0.1224
11778SOL    HW238227   3.217   7.172   2.789  0.3972 -2.0959  0.8393
11779SOL     OW38228   9.251   4.668   8.316 -0.2073  0.5561 -0.4354
11779SOL    HW138229   9.311   4.739   8.337  0.2789 -0.5729  2.4679
11779SOL    HW238230   9.301   4.610   8.257 -0.5536  2.3828 -2.6882
11780SOL     OW38231   5.250   8.546   0.060 -0.5792  0.2569 -0.9239
11780SOL    HW138232   5.275   8.455   0.045 -0.2034  0.1842  0.0143
11780SOL    HW238233   5.320   8.597   0.018 -1.5328  0.1652 -2.7016
11781SOL     OW38234   3.887   3.351   1.118  0.2691 -0.2070 -0.0848
11781SOL    HW138235   3.935   3.431   1.098 -0.9186  1.3296  2.6002
11781SOL    HW238236   3.953   3.293   1.157  0.9113 -0.1347 -1.0229
11782SOL     OW38237   5.954   6.744   5.771  0.2169 -0.5173  0.2519
11782SOL    HW138238   5.871   6.741   5.723 -0.3440 -0.5836  1.1928
11782SOL    HW238239   6.012   6.794   5.715 -0.6668  0.1060 -0.1323
11783SOL     OW38240   7.481   4.521   0.983  0.2666  0.1350  0.0621
11783SOL    HW138241   7.391   4.540   1.011 -0.4573 -1.9815 -0.5687
11783SOL    HW238242   7.514   4.460   1.050  1.7680  1.9065  1.0199
11784SOL     OW38243   8.297   0.224   6.262 -0.4984 -0.1861 -0.5694
11784SOL    HW138244   8.244   0.161   6.212 -0.0242 -1.6197  0.6677
11784SOL    HW238245   8.234   0.286   6.298 -1.1285 -0.7585 -0.6758
11785SOL     OW38246   3.344   3.620   8.486 -0.5309 -0.3257  0.2815
11785SOL    HW138247   3.385   3.552   8.539  0.0864 -0.3632 -0.2367
11785SOL    HW238248   3.254   3.589   8.473 -0.0950 -1.3691 -0.4723
11786SOL     OW38249   8.714   7.534   0.647  0.4522  0.3616 -0.0680
11786SOL    HW138250   8.753   7.613   0.685  1.1053 -0.9533  2.1515
11786SOL    HW238251   8.726   7.466   0.714  0.8138 -1.9036 -2.2950
11787SOL     OW38252   0.133   2.978   7.402  0.2864  0.3605  0.3464
11787SOL    HW138253   0.106   2.889   7.379 -0.4969  1.0161 -1.4039
11787SOL    HW238254   0.140   2.977   7.497 -1.7457 -1.0270  0.5423
11788SOL     OW38255   4.179   0.977   2.974 -0.5477  0.1387  0.7638
11788SOL    HW138256   4.232   0.898   2.978 -1.3221 -0.5507 -1.3200
11788SOL    HW238257   4.090   0.947   2.993 -0.9544  0.3339 -0.6786
11789SOL     OW38258   5.215   8.757   4.304 -0.0866 -0.0070  0.2531
11789SOL    HW138259   5.167   8.808   4.368 -1.6569  0.2647 -1.0798
11789SOL    HW238260   5.206   8.806   4.222  0.4693 -1.1588 -0.5265
11790SOL     OW38261   1.745   6.760   4.250  0.4763  0.0275  1.2399
11790SOL    HW138262   1.741   6.767   4.155 -0.5606  3.0959  1.4030
11790SOL    HW238263   1.704   6.675   4.270  0.2739 -0.4496 -1.0110
11791SOL     OW38264   0.246   6.935   3.251  0.2271 -0.0647  0.4278
11791SOL    HW138265   0.211   6.854   3.288 -0.4579 -0.6947 -1.5026
11791SOL    HW238266   0.255   6.918   3.158  2.5723  1.2129  0.3277
11792SOL     OW38267   3.736   4.447   7.292 -0.6334 -0.2445  0.1804
11792SOL    HW138268   3.700   4.497   7.218 -0.4958 -0.4305 -0.0158
11792SOL    HW238269   3.739   4.509   7.364 -0.9604 -0.1137  0.0837
11793SOL     OW38270   3.834   4.731   6.233  0.3176  0.4245  0.5139
11793SOL    HW138271   3.817   4.707   6.324  0.8028 -0.9398  0.2710
11793SOL    HW238272   3.818   4.651   6.184 -1.5274  1.5454 -0.8376
11794SOL     OW38273   2.509   6.239   1.367 -0.4702 -0.4469  0.3183
11794SOL    HW138274   2.530   6.255   1.459 -0.7870 -0.0607  0.3262
11794SOL    HW238275   2.563   6.301   1.319 -0.0685 -0.8663  0.2232
11795SOL     OW38276   8.134   4.980   7.574 -1.1402  0.3393  0.1213
11795SOL    HW138277   8.131   4.951   7.482 -0.3482  0.6513 -0.0095
11795SOL    HW238278   8.166   5.070   7.569  0.7091 -0.2432  0.8166
11796SOL     OW38279   6.574   7.771   5.223 -0.2160  0.4618 -0.2469
11796SOL    HW138280   6.530   7.815   5.296  1.1500  0.8380  0.3851
11796SOL    HW238281   6.552   7.679   5.234  0.5050  0.4156  1.0581
11797SOL     OW38282   0.566   2.133   6.561 -0.2167 -0.0747  0.5895
11797SOL    HW138283   0.537   2.192   6.491 -0.2537 -0.6530  0.1158
11797SOL    HW238284   0.522   2.166   6.639 -1.6685 -0.5581  0.0013
11798SOL     OW38285   9.146   0.862   7.443  0.5630  0.2348  0.1086
11798SOL    HW138286   9.128   0.921   7.370  1.2409 -0.4991 -0.6762
11798SOL    HW238287   9.072   0.874   7.503 -0.1718  0.6180 -0.8562
11799SOL     OW38288   0.947   3.595   8.605  0.0309 -0.2069  0.3637
11799SOL    HW138289   0.859   3.559   8.597 -0.2494  0.3184  1.0038
11799SOL    HW238290   0.964   3.599   8.699  0.0999  1.1927  0.3124
11800SOL     OW38291   4.791   7.402   7.190  0.2067  0.3025 -0.4261
11800SOL    HW138292   4.801   7.403   7.095 -0.9939 -0.2196 -0.5788
11800SOL    HW238293   4.821   7.489   7.218  1.2833  0.1961 -1.1840
11801SOL     OW38294   0.541   2.819   6.707 -0.2349  1.1550  0.0646
11801SOL    HW138295   0.579   2.792   6.791 -1.2767  1.8070  0.7786
11801SOL    HW238296   0.615   2.830   6.648  0.3910 -1.4941  0.2296
11802SOL     OW38297   6.345   4.341   3.351 -0.5403  0.1756 -0.0533
11802SOL    HW138298   6.265   4.310   3.309 -0.8735  1.4455 -0.3979
11802SOL    HW238299   6.393   4.388   3.283  0.0092  0.3096  0.4092
11803SOL     OW38300   2.460   6.499   3.324  0.2869  0.0958  0.3243
11803SOL    HW138301   2.412   6.420   3.298  1.1247 -0.6295  0.9233
11803SOL    HW238302   2.485   6.484   3.415 -0.5666  1.5822  0.8297
11804SOL     OW38303   1.927   5.382   6.081 -0.1753 -0.4370  0.1803
11804SOL    HW138304   1.929   5.474   6.106  0.3185  0.2701 -2.2030
11804SOL    HW238305   2.012   5.347   6.109 -0.1400 -0.0195  0.5928
11805SOL     OW38306   3.838   4.902   7.889 -0.0946  0.1771 -0.1332
11805SOL    HW138307   3.921   4.911   7.936 -0.3845 -1.8587  0.8795
11805SOL    HW238308   3.859   4.845   7.814 -0.3891  0.4163 -0.4020
11806SOL     OW38309   0.655   3.500   9.120 -0.3145  0.2930 -0.4485
11806SOL    HW138310   0.700   3.583   9.106  0.9480 -0.0177  1.4485
11806SOL    HW238311   0.562   3.521   9.107  0.1677  1.3339 -2.7313
11807SOL     OW38312   0.524   1.433   0.995 -0.2137 -0.4777 -0.3499
11807SOL    HW138313   0.470   1.441   0.916  0.3672 -3.1039 -1.1260
11807SOL    HW238314   0.464   1.401   1.062 -0.3832  0.2539 -0.1465
11808SOL     OW38315   2.757   4.810   9.103 -0.1716  0.3963 -0.4863
11808SOL    HW138316   2.831   4.844   9.153 -0.5466 -1.2106  1.2678
11808SOL    HW238317   2.689   4.878   9.112 -0.4930 -0.1371  1.9083
11809SOL     OW38318   1.369   5.083   2.285  0.3365  0.1043  0.0902
11809SOL    HW138319   1.331   5.156   2.235  2.0785  1.4285  0.6022
11809SOL    HW238320   1.365   5.009   2.224 -1.0435  0.7049 -0.6234
11810SOL     OW38321   8.304   3.608   6.840 -0.5524  0.1163  0.6268
11810SOL    HW138322   8.213   3.590   6.862 -0.0337 -1.1232  1.9399
11810SOL    HW238323   8.321   3.695   6.875 -0.6623 -0.5203  2.3472
11811SOL     OW38324   6.144   7.900   1.476  0.3089 -0.0921  0.1546
11811SOL    HW138325   6.179   7.983   1.507  3.4161 -1.4802  0.7740
11811SOL    HW238326   6.160   7.900   1.382  1.9333 -0.5914  0.3897
11812SOL     OW38327   1.866   8.209   6.105 -0.2528  0.2424 -0.3661
11812SOL    HW138328   1.841   8.148   6.036  0.2513 -1.4523  0.8883
11812SOL    HW238329   1.798   8.200   6.171  0.1567  0.5718  0.1107
11813SOL     OW38330   3.519   6.447   6.776  0.0836 -0.3707 -0.4420
11813SOL    HW138331   3.590   6.416   6.721  1.5079  0.6460  0.7253
11813SOL    HW238332   3.543   6.419   6.865 -1.7296 -1.2640 -0.1810
11814SOL     OW38333   3.556   2.027   3.342 -0.6525 -0.0278  0.1822
11814SOL    HW138334   3.529   2.102   3.396 -0.1607  0.2771  0.0119
11814SOL    HW238335   3.481   1.968   3.344 -1.0819  0.5078  0.2617
11815SOL     OW38336   4.602   8.335   6.916 -0.1456 -0.2603 -0.5099
11815SOL    HW138337   4.602   8.417   6.965 -0.5249 -0.2716 -0.4881
11815SOL    HW238338   4.692   8.305   6.920 -0.1299 -0.1603  0.0129
11816SOL     OW38339   4.999   6.058   4.310 -0.0255 -0.0563 -0.0680
11816SOL    HW138340   4.916   6.046   4.264  2.3641 -1.3716 -4.6284
11816SOL    HW238341   5.008   6.153   4.319 -1.1984  0.1870 -1.2296
11817SOL     OW38342   2.848   6.117   7.853 -0.9573 -0.5965 -0.1425
11817SOL    HW138343   2.807   6.087   7.934 -1.3481 -2.2975 -0.9202
11817SOL    HW238344   2.777   6.157   7.802 -1.3958 -2.2166 -0.8669
11818SOL     OW38345   3.983   2.938   3.050  0.0803  0.3376  0.0212
11818SOL    HW138346   4.045   2.941   3.123  0.2425  0.7577 -0.1268
11818SOL    HW238347   3.941   3.024   3.051 -0.8222 -0.0956  0.3932
11819SOL     OW38348   7.651   2.115   5.134  0.0374 -0.3100 -0.2051
11819SOL    HW138349   7.584   2.181   5.154 -0.0417 -0.1223 -1.0408
11819SOL    HW238350   7.655   2.060   5.212 -0.5001  0.1800  0.1760
11820SOL     OW38351   7.183   8.898   0.763 -0.0448  0.1457  0.3323
11820SOL    HW138352   7.099   8.882   0.719 -0.2639 -1.2609  1.1907
11820SOL    HW238353   7.194   8.823   0.822  1.4589  0.6897  0.7983
11821SOL     OW38354   8.668   6.234   1.511  0.7397  0.0444  0.2101
11821SOL    HW138355   8.630   6.239   1.423  0.3151  0.6155  0.4265
11821SOL    HW238356   8.761   6.253   1.498  0.9004 -1.0146 -0.2713
11822SOL     OW38357   1.270   8.627   4.568 -0.5809  0.0617  0.3382
11822SOL    HW138358   1.257   8.653   4.477  0.7272  1.7791  0.5958
11822SOL    HW238359   1.254   8.533   4.569  0.1789 -0.1314 -1.8209
11823SOL     OW38360   2.272   2.511   0.611  0.5327 -0.4655 -0.0876
11823SOL    HW138361   2.281   2.559   0.693  0.8696  0.5007 -0.6853
11823SOL    HW238362   2.179   2.489   0.606 -0.3487  2.9391 -1.3160
11824SOL     OW38363   2.488   1.873   4.504  0.6012 -0.6135 -0.0562
11824SOL    HW138364   2.518   1.914   4.585  0.3264  1.1891 -0.8097
11824SOL    HW238365   2.469   1.782   4.528 -0.9754  0.2324  2.2660
11825SOL     OW38366   4.040   3.250   8.763 -0.0843  0.4287 -0.0479
11825SOL    HW138367   4.040   3.346   8.758  1.8044  0.3978 -2.7722
11825SOL    HW238368   3.951   3.228   8.790  0.0719  2.9360  3.2391
11826SOL     OW38369   7.196   2.677   0.265 -0.0135  0.5155 -0.6554
11826SOL    HW138370   7.292   2.675   0.263  0.0743 -1.6186  1.5354
11826SOL    HW238371   7.174   2.702   0.355 -1.5157  0.4798 -0.9823
11827SOL     OW38372   8.709   3.422   8.945 -0.3083 -0.1369  0.2483
11827SOL    HW138373   8.790   3.474   8.947  1.1834 -2.3142  0.4019
11827SOL    HW238374   8.666   3.448   8.863  1.2072  0.1636 -0.4915
11828SOL     OW38375   3.674   5.126   6.506  0.5215 -0.0481  0.0459
11828SOL    HW138376   3.734   5.058   6.475 -2.3711 -1.1232 -4.0323
11828SOL    HW238377   3.591   5.080   6.519 -1.0904  2.3408 -1.1278
11829SOL     OW38378   2.314   0.068   6.791  0.2919  0.8416  0.4593
11829SOL    HW138379   2.260   0.047   6.866 -1.0107 -0.3388 -0.7516
11829SOL    HW238380   2.403   0.069   6.825 -0.1694 -0.6195  1.8262
11830SOL     OW38381   2.706   4.771   5.740  0.2578 -0.3123  0.1534
11830SOL    HW138382   2.795   4.735   5.746  0.2804 -0.1442  0.9294
11830SOL    HW238383   2.650   4.703   5.778  0.1138 -0.2013  0.1413
11831SOL     OW38384   8.007   3.075   7.044 -0.2153  0.6218  0.2136
11831SOL    HW138385   7.935   3.067   7.107 -1.3297  1.0308 -0.9629
11831SOL    HW238386   7.967   3.053   6.960  1.1390  0.5135 -0.4217
11832SOL     OW38387   0.429   1.602   3.785  0.0361  0.6875 -0.0997
11832SOL    HW138388   0.336   1.623   3.779  0.5732  2.9978 -2.1236
11832SOL    HW238389   0.450   1.611   3.878 -1.5853  0.8253  0.2835
11833SOL     OW38390   7.922   1.775   0.334 -0.0189  0.1616  0.0060
11833SOL    HW138391   7.982   1.768   0.408  0.0132 -1.3645 -0.1418
11833SOL    HW238392   7.967   1.835   0.273  1.5960 -1.2781 -0.2957
11834SOL     OW38393   7.449   7.314   8.651  0.1161 -0.4332 -0.2881
11834SOL    HW138394   7.379   7.345   8.594  0.0748  1.5960  0.8042
11834SOL    HW238395   7.408   7.246   8.705 -0.5071 -0.5415 -0.8828
11835SOL     OW38396   5.357   8.249   7.106 -0.4124  0.3824  0.1594
11835SOL    HW138397   5.296   8.211   7.043 -0.6258 -0.7493  1.0244
11835SOL    HW238398   5.436   8.196   7.096  0.0185  1.0595 -0.0867
11836SOL     OW38399   7.564   0.207   1.761  0.0396  0.2883 -0.2903
11836SOL    HW138400   7.617   0.284   1.785  1.5159 -0.8403  0.2201
11836SOL    HW238401   7.524   0.232   1.678  1.3534  1.2326 -0.6898
11837SOL     OW38402   7.077   4.556   7.130  0.0405  0.0535  0.1146
11837SOL    HW138403   7.151   4.495   7.133  0.1384  0.0938 -1.0346
11837SOL    HW238404   7.031   4.542   7.213  0.3391 -1.2451  0.0842
11838SOL     OW38405   3.407   8.496   5.753 -0.1107  0.4311 -0.0266
11838SOL    HW138406   3.324   8.485   5.799 -0.2292 -1.0673 -0.5542
11838SOL    HW238407   3.416   8.417   5.700  1.5052  0.7164 -0.2288
11839SOL     OW38408   8.797   2.132   6.868  0.3454  0.0973 -0.0367
11839SOL    HW138409   8.710   2.168   6.880 -0.8428 -2.7644  0.7260
11839SOL    HW238410   8.801   2.108   6.776 -0.0633 -0.6533  0.1363
11840SOL     OW38411   6.281   7.086   7.727 -0.5270  0.5875  0.3052
11840SOL    HW138412   6.208   7.104   7.667 -0.6392 -2.3436 -0.5948
11840SOL    HW238413   6.246   7.021   7.788  0.4777  1.3856  1.7781
11841SOL     OW38414   6.700   6.336   3.508 -0.3697  0.0535 -0.2360
11841SOL    HW138415   6.725   6.287   3.586  0.2398  1.8152  0.7474
11841SOL    HW238416   6.630   6.285   3.468  0.0065 -1.4077  0.8981
11842SOL     OW38417   1.059   3.602   2.035  0.9452  0.0212  0.5612
11842SOL    HW138418   1.010   3.672   1.993  1.4604  0.4907  0.7294
11842SOL    HW238419   1.095   3.550   1.963  1.3995  0.5220  0.4184
11843SOL     OW38420   6.298   4.530   7.193  0.8513 -0.1089 -0.0314
11843SOL    HW138421   6.283   4.582   7.113  2.5311 -1.2861 -1.1769
11843SOL    HW238422   6.313   4.441   7.161  1.3996 -0.6467  1.6353
11844SOL     OW38423   8.656   6.940   2.659  0.0740  0.1557 -0.6206
11844SOL    HW138424   8.583   6.886   2.630 -0.9619  0.1540  1.8061
11844SOL    HW238425   8.669   7.004   2.588 -1.5970 -0.4728 -1.5343
11845SOL     OW38426   4.764   5.941   7.063 -0.8712 -0.8778  0.6096
11845SOL    HW138427   4.816   6.021   7.075 -0.8971 -0.4739 -1.5279
11845SOL    HW238428   4.829   5.874   7.042 -1.0749 -0.4685 -1.6212
11846SOL     OW38429   5.392   5.636   5.470  0.0110  0.0219 -0.5768
11846SOL    HW138430   5.327   5.675   5.529 -0.2734 -1.4767  0.1393
11846SOL    HW238431   5.350   5.639   5.384 -0.9914 -0.8353 -0.1433
11847SOL     OW38432   0.778   6.496   0.658  0.1143  0.1202  0.4188
11847SOL    HW138433   0.819   6.479   0.744  3.1147 -0.0596 -0.9061
11847SOL    HW238434   0.850   6.487   0.596 -1.6566  1.6340 -2.0173
11848SOL     OW38435   8.323   3.199   1.654  0.0673  0.1962  0.6821
11848SOL    HW138436   8.277   3.165   1.577  0.0793  1.8609 -0.1074
11848SOL    HW238437   8.289   3.148   1.727  1.5872 -2.9370 -0.5878
11849SOL     OW38438   2.348   5.107   4.768  0.2390 -0.2298 -0.4144
11849SOL    HW138439   2.433   5.063   4.766  0.2975 -0.0997 -2.0486
11849SOL    HW238440   2.365   5.193   4.730 -0.2674  0.5255  0.9905
11850SOL     OW38441   8.685   4.234   4.965 -0.0057 -0.5617  0.2191
11850SOL    HW138442   8.658   4.147   4.996  0.0755 -0.4644  0.5720
11850SOL    HW238443   8.731   4.217   4.883 -0.9806 -0.7442 -0.3014
11851SOL     OW38444   6.492   3.009   8.772  0.2540 -0.1269 -0.0076
11851SOL    HW138445   6.437   3.018   8.850  0.5771 -1.0256  0.3378
11851SOL    HW238446   6.516   2.916   8.771  1.5628  0.2000 -0.2735
11852SOL     OW38447   1.275   9.001   0.994  0.0002 -0.3504 -0.4548
11852SOL    HW138448   1.364   8.969   1.003  1.4320  2.8292 -2.0059
11852SOL    HW238449   1.252   8.987   0.902 -0.5375  0.1938 -0.4138
11853SOL     OW38450   5.299   8.528   3.453 -0.6847 -0.5006 -0.7175
11853SOL    HW138451   5.389   8.561   3.452 -0.2682 -1.5183  0.5078
11853SOL    HW238452   5.266   8.546   3.365  0.4711  0.5361 -0.9746
11854SOL     OW38453   3.816   7.056   8.361  0.0664 -0.4910  0.7349
11854SOL    HW138454   3.865   7.137   8.375 -0.7535  0.0731  0.3899
11854SOL    HW238455   3.802   7.022   8.449  1.1179 -0.7006  0.8433
11855SOL     OW38456   3.586   7.456   6.749 -0.0512 -0.2973 -0.0016
11855SOL    HW138457   3.650   7.387   6.732 -0.2309 -0.5621  0.4007
11855SOL    HW238458   3.629   7.513   6.813 -0.3756 -0.7026  0.5837
11856SOL     OW38459   7.310   6.797   6.505 -0.4846 -0.2082 -0.1854
11856SOL    HW138460   7.288   6.746   6.427 -1.1296 -0.7603  0.3485
11856SOL    HW238461   7.380   6.748   6.548 -1.6081 -1.0689  0.7218
11857SOL     OW38462   6.303   3.110   0.159  0.2128 -0.2367 -0.1828
11857SOL    HW138463   6.268   3.044   0.099 -0.4920 -0.3740  0.3598
11857SOL    HW238464   6.398   3.102   0.151  0.1319 -1.2052 -0.2477
11858SOL     OW38465   5.576   8.514   3.030 -0.0065 -0.4081  0.2722
11858SOL    HW138466   5.617   8.598   3.009 -0.0905 -0.1527  1.1040
11858SOL    HW238467   5.650   8.456   3.048  0.0511 -0.5077 -0.2757
11859SOL     OW38468   4.397   5.383   0.651  0.5597  0.6547 -0.0999
11859SOL    HW138469   4.312   5.412   0.618 -0.1256 -1.8773 -0.7949
11859SOL    HW238470   4.441   5.346   0.574  1.1399 -0.5458  0.7849
11860SOL     OW38471   7.860   3.531   0.949  0.1094 -0.0529  0.3446
11860SOL    HW138472   7.869   3.502   1.040 -0.1284 -1.4538 -0.0565
11860SOL    HW238473   7.780   3.489   0.919  0.1222  0.4965 -0.4954
11861SOL     OW38474   5.359   6.564   6.974 -0.4311 -0.2948  0.5018
11861SOL    HW138475   5.352   6.478   6.935  0.0791 -0.3550  0.5346
11861SOL    HW238476   5.445   6.564   7.018  0.6195  1.0076 -1.4118
11862SOL     OW38477   4.182   1.373   4.737  0.0363 -0.0775 -0.1712
11862SOL    HW138478   4.235   1.336   4.667 -1.6786 -1.4353 -0.8329
11862SOL    HW238479   4.245   1.410   4.799  1.7028 -1.2673 -1.0936
11863SOL     OW38480   1.726   3.541   6.694  0.2477  0.7507  0.2791
11863SOL    HW138481   1.740   3.607   6.763 -0.0179  1.1581 -0.0568
11863SOL    HW238482   1.632   3.524   6.695  0.5069 -0.8076  1.4401
11864SOL     OW38483   3.639   2.752   8.177 -0.3688 -0.4309  0.0978
11864SOL    HW138484   3.599   2.727   8.260  0.0244 -0.7179  0.2038
11864SOL    HW238485   3.579   2.817   8.140 -1.0442 -1.0103  0.1467
11865SOL     OW38486   5.390   6.447   3.055  0.1986 -0.3704  0.0962
11865SOL    HW138487   5.346   6.364   3.036 -0.2709  0.0606 -0.7336
11865SOL    HW238488   5.351   6.476   3.138 -0.1267 -0.6418  0.0420
11866SOL     OW38489   8.481   6.359   2.210 -0.4173  0.1824  0.0303
11866SOL    HW138490   8.506   6.447   2.236 -2.3514  0.5262  0.9402
11866SOL    HW238491   8.560   6.321   2.172  0.8019  1.8585  0.7826
11867SOL     OW38492   3.333   4.401   4.697 -0.1117 -0.2360  0.2395
11867SOL    HW138493   3.259   4.459   4.679 -0.9695 -1.0454  1.0554
11867SOL    HW238494   3.403   4.459   4.726  0.2618  0.7635 -2.4235
11868SOL     OW38495   7.705   3.591   6.335 -0.1579 -0.6276  0.0833
11868SOL    HW138496   7.683   3.615   6.425  0.1772  1.5642 -0.3581
11868SOL    HW238497   7.799   3.570   6.338  0.1365  0.5682  0.0963
11869SOL     OW38498   2.639   8.704   1.686 -0.2979  0.2131 -0.2404
11869SOL    HW138499   2.623   8.788   1.643  0.4642 -1.0286 -3.2553
11869SOL    HW238500   2.682   8.651   1.619 -1.1250 -2.7487  1.3704
11870SOL     OW38501   6.009   6.435   6.757 -0.5965  0.0487  0.0967
11870SOL    HW138502   5.972   6.349   6.776 -1.2616  0.3961  0.4104
11870SOL    HW238503   6.090   6.439   6.807 -1.6589  0.4450  1.8581
11871SOL     OW38504   6.578   1.304   7.518  0.4407 -0.2297 -0.1087
11871SOL    HW138505   6.651   1.242   7.525  0.8069 -0.1609 -2.4189
11871SOL    HW238506   6.504   1.249   7.491 -0.1501 -0.1515  1.2874
11872SOL     OW38507   4.866   8.093   0.368 -0.1799 -0.2197  0.1806
11872SOL    HW138508   4.944   8.110   0.420 -0.4466  0.8210  0.2767
11872SOL    HW238509   4.878   8.146   0.289 -1.3111  0.9311  0.7293
11873SOL     OW38510   5.203   2.338   2.386 -0.3244 -0.7211  0.0021
11873SOL    HW138511   5.152   2.332   2.467  0.0748  0.8969  0.4085
11873SOL    HW238512   5.142   2.312   2.318 -2.0323  1.8755  0.3810
11874SOL     OW38513   7.306   7.559   8.562  0.3876  0.3868 -0.7603
11874SOL    HW138514   7.229   7.584   8.512  0.0306 -0.3567 -0.5934
11874SOL    HW238515   7.279   7.568   8.654  1.0264  1.7113 -0.6679
11875SOL     OW38516   7.830   5.386   0.554 -0.5398 -0.1212  0.2694
11875SOL    HW138517   7.865   5.379   0.465 -1.4216  1.5427 -0.2339
11875SOL    HW238518   7.889   5.331   0.606  0.9633  0.1549 -1.0575
11876SOL     OW38519   7.421   7.570   5.231  0.4316  0.5209 -0.1546
11876SOL    HW138520   7.497   7.530   5.188  0.1446 -0.8917  0.6071
11876SOL    HW238521   7.455   7.652   5.268  1.4778  0.1297 -0.2142
11877SOL     OW38522   1.742   5.600   7.234  0.2671  0.1213  0.1489
11877SOL    HW138523   1.812   5.549   7.192 -0.8140 -0.6506 -0.7708
11877SOL    HW238524   1.737   5.681   7.183 -1.6427 -1.1873 -1.8837
11878SOL     OW38525   6.278   4.627   6.954  0.1502  0.3308  0.1704
11878SOL    HW138526   6.345   4.686   6.920 -0.6321  0.7363 -0.7327
11878SOL    HW238527   6.274   4.556   6.891 -2.1782  1.7063 -1.4004
11879SOL     OW38528   2.090   2.624   1.584 -0.0236  0.1084 -0.1975
11879SOL    HW138529   2.047   2.619   1.498 -3.5150  0.2909  1.3607
11879SOL    HW238530   2.047   2.556   1.636  0.2290  1.5911  2.0814
11880SOL     OW38531   5.484   2.472   4.201  0.2635  0.1234  0.3087
11880SOL    HW138532   5.568   2.518   4.202  0.6440 -0.3154  4.4290
11880SOL    HW238533   5.427   2.523   4.258 -1.7963 -0.5087 -1.0608
11881SOL     OW38534   1.144   2.711   1.750 -0.4409  0.0194  0.0756
11881SOL    HW138535   1.153   2.628   1.798 -0.1196 -0.8643 -1.4566
11881SOL    HW238536   1.058   2.744   1.775 -0.9095 -1.1809  0.1166
11882SOL     OW38537   9.000   3.766   8.019  0.0635  0.0963 -0.8497
11882SOL    HW138538   9.040   3.815   8.091 -1.1480  0.2621 -0.2565
11882SOL    HW238539   9.074   3.736   7.966  0.9398  0.6485  0.0246
11883SOL     OW38540   7.942   2.832   5.288 -0.2143 -0.2756 -0.2434
11883SOL    HW138541   7.859   2.822   5.336 -0.7243  4.5554  0.3462
11883SOL    HW238542   8.009   2.810   5.353 -0.9996  1.6133  1.3056
11884SOL     OW38543   1.367   8.586   7.110  0.2143 -0.0724  0.0845
11884SOL    HW138544   1.330   8.675   7.111  4.4477  1.9076  1.3913
11884SOL    HW238545   1.368   8.562   7.017  2.8951  3.2455 -0.9368
11885SOL     OW38546   4.112   9.041   1.650 -0.0496  0.2744  0.0578
11885SOL    HW138547   4.197   9.020   1.688 -0.3148 -0.2859  0.3424
11885SOL    HW238548   4.106   8.986   1.572 -0.1897  0.2546  0.0827
11886SOL     OW38549   8.873   8.649   5.271  0.1059 -0.0580  0.5139
11886SOL    HW138550   8.784   8.631   5.302 -0.2587  1.6120  0.4922
11886SOL    HW238551   8.897   8.570   5.223 -2.9585  0.9408 -3.1227
11887SOL     OW38552   7.805   6.501   6.048  0.2830  0.4108 -0.2960
11887SOL    HW138553   7.795   6.464   5.960 -1.0874  0.1566 -0.0682
11887SOL    HW238554   7.822   6.425   6.104 -0.1166  0.4043 -0.1750
11888SOL     OW38555   6.452   4.649   6.335  0.3094 -0.5039 -0.0649
11888SOL    HW138556   6.401   4.672   6.258  0.3026 -0.5282 -0.0678
11888SOL    HW238557   6.514   4.583   6.304  0.9929  0.2251 -0.2777
11889SOL     OW38558   4.100   2.695   5.530 -0.3332 -0.0173  0.5328
11889SOL    HW138559   4.132   2.671   5.443 -2.5898  1.2173 -0.7349
11889SOL    HW238560   4.176   2.735   5.573  0.9117 -0.9352 -0.7261
11890SOL     OW38561   5.236   5.646   9.149  0.1197  0.2592 -0.8416
11890SOL    HW138562   5.190   5.671   9.229 -2.0416 -1.7422 -1.3362
11890SOL    HW238563   5.186   5.686   9.078  0.3128 -0.2981 -1.3085
11891SOL     OW38564   5.988   5.690   0.129  0.4151  0.9405 -0.3738
11891SOL    HW138565   5.932   5.766   0.141  0.1971  0.9510 -1.3548
11891SOL    HW238566   5.950   5.644   0.054  1.0580  0.3410 -0.3441
11892SOL     OW38567   0.603   5.671   1.830 -1.0445  0.0191  0.3511
11892SOL    HW138568   0.636   5.761   1.826 -0.1936 -0.2268  1.2910
11892SOL    HW238569   0.610   5.638   1.740  2.5316 -0.4061  0.6128
11893SOL     OW38570   5.551   5.794   4.971  0.1024 -0.1080 -0.0299
11893SOL    HW138571   5.573   5.752   4.888 -1.3934 -1.3135  0.1586
11893SOL    HW238572   5.558   5.724   5.036  2.9917  1.1862  1.2207
11894SOL     OW38573   4.726   6.483   1.117  0.2075 -0.6603  0.0875
11894SOL    HW138574   4.704   6.461   1.208  0.4341 -0.7367  0.1258
11894SOL    HW238575   4.805   6.432   1.099  0.3859 -0.3500 -0.0260
11895SOL     OW38576   7.787   3.774   1.044  0.4066 -0.3062  0.6146
11895SOL    HW138577   7.693   3.769   1.031  0.5237 -0.0048 -0.4781
11895SOL    HW238578   7.820   3.687   1.022  0.3725 -0.4564  1.1465
11896SOL     OW38579   6.911   2.460   5.723 -0.3567  0.0171 -0.6557
11896SOL    HW138580   6.830   2.503   5.751  0.6065  1.4583  0.0014
11896SOL    HW238581   6.950   2.426   5.804 -0.1525 -0.4245 -0.9324
11897SOL     OW38582   4.542   2.770   4.003  0.0983  0.0987  0.1756
11897SOL    HW138583   4.628   2.813   4.008 -0.2658  0.8817 -0.2105
11897SOL    HW238584   4.507   2.776   4.092 -0.2614  1.2733 -0.0277
11898SOL     OW38585   2.854   0.300   7.546 -0.3836  0.2522  0.0493
11898SOL    HW138586   2.776   0.319   7.598 -0.0024 -0.6693  0.9857
11898SOL    HW238587   2.840   0.211   7.514 -1.3564  1.3202 -2.8311
11899SOL     OW38588   2.159   6.029   4.972  0.0641  0.6120  0.1458
11899SOL    HW138589   2.169   6.033   5.067  0.2130  0.6778  0.1282
11899SOL    HW238590   2.067   6.006   4.958  0.1184  0.2804  0.3136
11900SOL     OW38591   3.551   1.334   8.646  0.6087 -0.2197  0.3240
11900SOL    HW138592   3.463   1.354   8.678  1.1141  1.7974  0.6096
11900SOL    HW238593   3.600   1.309   8.724  0.8888  1.0615  0.5795
11901SOL     OW38594   0.731   8.306   4.443  0.0151  0.0057 -0.6122
11901SOL    HW138595   0.651   8.261   4.469  0.8131 -0.3272  1.4689
11901SOL    HW238596   0.717   8.329   4.351 -3.0870  1.3710  0.0857
11902SOL     OW38597   2.630   4.199   8.031  0.2777  0.1487  0.3815
11902SOL    HW138598   2.555   4.233   7.982  1.1440  0.5716 -0.7023
11902SOL    HW238599   2.640   4.109   8.001 -0.4237 -0.2466  1.3075
11903SOL     OW38600   7.645   6.638   1.072  0.3111  0.5339  0.5047
11903SOL    HW138601   7.629   6.568   1.008 -1.0317  0.4442  0.9022
11903SOL    HW238602   7.627   6.597   1.157 -0.6457  1.3787  0.7310
11904SOL     OW38603   0.348   7.219   9.051 -0.0800  0.2729 -0.9809
11904SOL    HW138604   0.262   7.257   9.070 -0.1321  0.3191 -1.2933
11904SOL    HW238605   0.405   7.252   9.120 -0.5766 -0.7187 -0.0687
11905SOL     OW38606   1.799   1.206   5.604  0.1917  0.7465 -0.6660
11905SOL    HW138607   1.834   1.288   5.641 -1.3550  1.7790 -1.3641
11905SOL    HW238608   1.708   1.227   5.581 -0.5557 -1.4733  0.0130
11906SOL     OW38609   7.866   8.865   1.091  0.0902  0.3484  0.5299
11906SOL    HW138610   7.882   8.794   1.153  1.0384  1.9455  2.2065
11906SOL    HW238611   7.780   8.846   1.055  0.0170 -1.2720  1.4552
11907SOL     OW38612   4.515   7.486   3.781 -0.1383 -0.1238 -0.0823
11907SOL    HW138613   4.560   7.408   3.748  0.8858  0.9397 -1.3716
11907SOL    HW238614   4.428   7.456   3.806  0.5028 -1.8183  0.2431
11908SOL     OW38615   2.663   7.615   4.711  0.2204 -0.3799  0.4551
11908SOL    HW138616   2.652   7.549   4.642 -0.8315 -0.0771  0.3161
11908SOL    HW238617   2.657   7.566   4.793  1.8523 -0.8015  0.3594
11909SOL     OW38618   2.981   6.244   5.531 -0.5313 -0.0112  0.1605
11909SOL    HW138619   2.980   6.149   5.539  2.3829 -0.2037 -0.5940
11909SOL    HW238620   3.047   6.273   5.593 -0.9740  1.5045 -0.0306
11910SOL     OW38621   7.724   9.242   5.688 -0.7623 -0.5381 -0.8719
11910SOL    HW138622   7.738   9.152   5.659 -0.1450 -1.5280  2.0954
11910SOL    HW238623   7.791   9.293   5.641  1.1065 -2.2198 -0.2113
11911SOL     OW38624   1.597   1.838   6.381 -1.2003 -0.1119  0.4460
11911SOL    HW138625   1.666   1.786   6.421 -0.4342 -0.1738 -0.9005
11911SOL    HW238626   1.532   1.774   6.352 -0.7652 -0.2499 -0.2505
11912SOL     OW38627   7.398   2.865   4.708 -0.7734 -0.0675  0.1789
11912SOL    HW138628   7.337   2.895   4.640 -2.4312 -0.2700  1.4938
11912SOL    HW238629   7.408   2.771   4.693 -0.8292 -0.0412 -0.0158
11913SOL     OW38630   6.641   7.785   4.032 -0.0682 -0.2172  0.1147
11913SOL    HW138631   6.616   7.875   4.013  0.8575 -0.5315 -3.1605
11913SOL    HW238632   6.678   7.788   4.120 -1.7060  2.2050  0.7924
11914SOL     OW38633   6.956   1.436   6.028 -0.0436 -0.2159  0.4978
11914SOL    HW138634   7.035   1.445   6.082  3.1285 -0.0983 -3.7004
11914SOL    HW238635   6.921   1.350   6.052  0.0267  0.5273  3.8729
11915SOL     OW38636   0.981   3.463   8.378  0.7140  0.3852  0.3120
11915SOL    HW138637   1.014   3.384   8.421 -2.1878 -0.5985  0.9978
11915SOL    HW238638   0.977   3.528   8.448  0.8074  0.3797  0.3230
11916SOL     OW38639   1.050   4.091   2.591 -0.1568  0.3841 -0.6773
11916SOL    HW138640   1.029   4.176   2.628 -2.2863 -1.1293  1.9287
11916SOL    HW238641   1.139   4.072   2.622 -0.6211  0.6282  0.8723
11917SOL     OW38642   3.259   3.483   4.358 -0.1635  0.2087 -0.3787
11917SOL    HW138643   3.314   3.444   4.425 -1.4758  1.0190  1.2415
11917SOL    HW238644   3.320   3.522   4.296  1.0890 -0.9077  0.1069
11918SOL     OW38645   0.506   3.500   0.945  0.0323  0.0357  0.3162
11918SOL    HW138646   0.514   3.412   0.909  1.3356  0.3117 -0.1149
11918SOL    HW238647   0.415   3.524   0.928  0.1962 -0.4337 -1.4633
11919SOL     OW38648   5.836   3.569   1.130 -0.5434 -0.6202 -0.4621
11919SOL    HW138649   5.825   3.653   1.087  2.0532  0.6113  1.1016
11919SOL    HW238650   5.883   3.515   1.066 -0.9247 -0.4195 -0.9179
11920SOL     OW38651   6.127   3.234   4.375 -0.0913  0.2722 -0.2398
11920SOL    HW138652   6.071   3.293   4.324  0.5432 -0.5659 -1.9971
11920SOL    HW238653   6.065   3.178   4.422 -0.7079  1.0522 -0.1070
11921SOL     OW38654   0.562   0.311   2.333  0.0638 -0.6118  0.1310
11921SOL    HW138655   0.565   0.386   2.392  1.2006 -0.5084 -0.0327
11921SOL    HW238656   0.547   0.349   2.246  1.5641 -0.4682 -0.0877
11922SOL     OW38657   8.391   1.471   1.245  0.3530  0.3074 -0.0605
11922SOL    HW138658   8.379   1.548   1.190 -1.6590  1.7369  2.1688
11922SOL    HW238659   8.338   1.403   1.204 -1.8050  1.5901  0.4793
11923SOL     OW38660   1.001   7.028   1.103 -0.1842 -0.0134 -0.0361
11923SOL    HW138661   0.998   7.004   1.010 -0.0339  0.2563 -0.1120
11923SOL    HW238662   0.968   7.118   1.105 -0.6360 -0.1788  0.2322
11924SOL     OW38663   2.855   8.445   2.680 -0.7141 -0.5734  0.0518
11924SOL    HW138664   2.769   8.425   2.643 -0.9268 -0.7326  0.6178
11924SOL    HW238665   2.844   8.432   2.774  0.1249 -1.2926  0.0611
11925SOL     OW38666   8.230   0.782   7.565 -0.1625  0.1345  0.0482
11925SOL    HW138667   8.223   0.749   7.655 -2.6027  1.3629  0.4171
11925SOL    HW238668   8.273   0.867   7.574  0.6242 -0.2454 -0.1021
11926SOL     OW38669   4.791   2.456   3.503 -0.3776  1.0432 -0.3560
11926SOL    HW138670   4.816   2.508   3.427  0.4238 -0.4773 -1.1834
11926SOL    HW238671   4.787   2.366   3.471 -0.1308  0.3689  1.3647
11927SOL     OW38672   5.790   6.955   3.253 -0.6520  0.2147 -0.1422
11927SOL    HW138673   5.765   6.926   3.341 -0.2443  1.1511  0.2931
11927SOL    HW238674   5.869   6.904   3.234 -1.2689 -0.6788 -0.3620
11928SOL     OW38675   2.380   6.037   8.548 -0.5795 -0.3336  0.1131
11928SOL    HW138676   2.416   5.953   8.575 -1.8512 -0.5665  1.1664
11928SOL    HW238677   2.384   6.091   8.626  1.4943  1.1022 -0.8780
11929SOL     OW38678   2.737   5.869   3.304 -0.3341 -0.2572 -0.0132
11929SOL    HW138679   2.751   5.775   3.318  1.4788 -0.1657 -1.0107
11929SOL    HW238680   2.720   5.903   3.392 -3.4113 -1.8090  0.1364
11930SOL     OW38681   0.687   7.056   3.740 -0.3779  0.3349  0.2858
11930SOL    HW138682   0.666   6.970   3.703 -0.8273 -0.3323  1.9758
11930SOL    HW238683   0.769   7.080   3.699 -0.2742 -0.8820 -0.2786
11931SOL     OW38684   0.338   5.970   4.010 -0.4260 -0.2137  0.0137
11931SOL    HW138685   0.256   5.921   4.013 -0.6300  0.1555  2.3528
11931SOL    HW238686   0.402   5.911   4.050  0.2834 -0.1930 -1.0719
11932SOL     OW38687   5.203   2.260   2.075  0.8884 -0.1330  0.3848
11932SOL    HW138688   5.243   2.215   2.001  0.8397  0.7277 -0.1772
11932SOL    HW238689   5.116   2.284   2.044  0.9834  0.5117  0.6038
11933SOL     OW38690   5.407   6.650   8.810  0.0884 -0.3099  0.0801
11933SOL    HW138691   5.488   6.692   8.782  0.4875 -0.2817  1.2212
11933SOL    HW238692   5.337   6.702   8.770  0.6197 -0.4631 -1.0930
11934SOL     OW38693   2.171   2.010   2.248 -0.0108 -0.1265  0.1957
11934SOL    HW138694   2.177   2.002   2.343  0.0800 -1.0227  0.1248
11934SOL    HW238695   2.244   1.957   2.215 -0.9948 -1.1639 -0.4073
11935SOL     OW38696   8.967   6.019   4.230 -0.6516 -0.0206  0.1651
11935SOL    HW138697   8.881   5.979   4.244 -0.4346 -0.5069  0.0986
11935SOL    HW238698   8.970   6.037   4.136 -0.2073 -1.0914 -0.0320
11936SOL     OW38699   7.199   8.148   5.909  0.0449  0.4791  0.0545
11936SOL    HW138700   7.240   8.095   5.841  0.5329 -0.8378  1.3175
11936SOL    HW238701   7.194   8.236   5.872 -1.3217 -0.5301 -2.3565
11937SOL     OW38702   8.324   1.580   1.967 -0.3656  0.2647 -0.2901
11937SOL    HW138703   8.243   1.630   1.954  0.0304  0.6874 -1.1476
11937SOL    HW238704   8.354   1.559   1.879  1.4659  1.7118 -0.0453
11938SOL     OW38705   7.402   0.060   8.095 -0.9347  0.4648 -0.2506
11938SOL    HW138706   7.411  -0.009   8.029  1.3083 -0.3583  0.8021
11938SOL    HW238707   7.364   0.134   8.048 -0.1335 -0.3478 -2.2718
11939SOL     OW38708   3.405   3.819   6.225  0.1440 -0.2008  0.7707
11939SOL    HW138709   3.481   3.760   6.222  0.2306 -0.0957  0.9066
11939SOL    HW238710   3.330   3.761   6.213  0.3413 -0.0828 -1.6417
11940SOL     OW38711   7.073   1.565   5.759 -0.3998  0.0668  0.2250
11940SOL    HW138712   7.023   1.516   5.824 -2.7339  0.0425 -1.4895
11940SOL    HW238713   7.117   1.633   5.809  0.7640 -2.0370  2.2926
11941SOL     OW38714   5.512   3.903   8.821 -0.1434  0.3170 -0.1421
11941SOL    HW138715   5.608   3.907   8.813  0.0596  0.9847  1.9644
11941SOL    HW238716   5.483   3.992   8.804 -0.2764  0.3477  0.2322
11942SOL     OW38717   4.320   6.092   5.928  0.1232 -0.3678 -0.0289
11942SOL    HW138718   4.299   6.061   6.016 -2.3748 -1.6260 -0.9520
11942SOL    HW238719   4.243   6.067   5.876  1.3892  0.6121 -2.4955
11943SOL     OW38720   0.197   3.511   9.010 -0.1993 -0.2913 -0.4802
11943SOL    HW138721   0.227   3.585   9.063 -0.2168 -0.5259 -0.1456
11943SOL    HW238722   0.128   3.470   9.061 -0.3649 -0.3889 -0.7805
11944SOL     OW38723   0.334   0.499   2.467  0.0005  0.1545  0.5573
11944SOL    HW138724   0.363   0.468   2.553  1.3732 -1.1388 -0.3406
11944SOL    HW238725   0.254   0.548   2.486 -0.1323 -0.7078  2.4929
11945SOL     OW38726   0.475   7.664   4.409  0.3146  0.0114 -1.0766
11945SOL    HW138727   0.429   7.611   4.344 -0.3711 -0.6125 -0.1148
11945SOL    HW238728   0.459   7.619   4.492  1.8762  0.3184 -0.5810
11946SOL     OW38729   3.616   6.450   3.130 -0.1520  0.2209  0.0781
11946SOL    HW138730   3.578   6.518   3.186  1.1008  0.7933  0.2567
11946SOL    HW238731   3.708   6.475   3.121 -0.5848  1.0653 -3.5622
11947SOL     OW38732   4.521   1.932   5.035 -0.0657  0.0832  0.1169
11947SOL    HW138733   4.456   1.885   4.983  1.8334 -1.6784 -0.8180
11947SOL    HW238734   4.504   1.905   5.125 -1.1240  0.3113 -0.0048
11948SOL     OW38735   8.998   3.939   3.778 -0.3125  0.1491  0.0565
11948SOL    HW138736   8.918   3.976   3.813 -0.5707  0.9150 -1.2590
11948SOL    HW238737   8.986   3.942   3.683  0.9780 -0.3844 -0.1488
11949SOL     OW38738   5.843   5.456   3.812 -0.1826 -0.0469  0.2472
11949SOL    HW138739   5.879   5.391   3.752 -1.3520  0.6068 -1.2017
11949SOL    HW238740   5.780   5.407   3.865 -1.1245 -0.1018 -0.8964
11950SOL     OW38741   2.821   2.249   4.063 -0.0636 -0.4602 -0.1302
11950SOL    HW138742   2.870   2.230   4.143 -1.2328  1.2512  1.0489
11950SOL    HW238743   2.730   2.252   4.091 -0.6087 -0.8762 -1.7568
11951SOL     OW38744   0.615   2.624   6.222 -0.6881 -0.4396  0.5599
11951SOL    HW138745   0.643   2.533   6.217 -0.2436 -0.2626 -3.1122
11951SOL    HW238746   0.532   2.622   6.269 -0.4654 -2.6532  0.9422
11952SOL     OW38747   8.251   7.970   3.829  0.5247  0.2488 -0.1807
11952SOL    HW138748   8.257   8.058   3.792  1.3092  0.1782 -0.2298
11952SOL    HW238749   8.296   7.976   3.913  0.1949  0.0006  0.0154
11953SOL     OW38750   2.088   7.666   2.425 -0.4629 -0.2517  0.1019
11953SOL    HW138751   2.049   7.752   2.408 -1.2894 -0.7763 -0.7369
11953SOL    HW238752   2.113   7.633   2.339  0.9087 -0.3846  0.5209
11954SOL     OW38753   8.966   0.635   3.236  0.1481  0.0789  0.2824
11954SOL    HW138754   9.061   0.625   3.235  0.2754  0.6876  2.3767
11954SOL    HW238755   8.939   0.604   3.322 -1.6670 -0.8026 -0.5368
11955SOL     OW38756   1.273   5.964   2.772  0.0921  0.5736 -0.0040
11955SOL    HW138757   1.286   6.050   2.813  3.1347  0.7604 -1.0923
11955SOL    HW238758   1.179   5.959   2.755 -0.1914  3.6949  0.1054
11956SOL     OW38759   7.339   7.708   4.571 -0.4472 -0.4179  0.0445
11956SOL    HW138760   7.422   7.718   4.618 -1.3665  0.2164  1.6305
11956SOL    HW238761   7.282   7.665   4.635 -1.0620 -1.7925 -1.3781
11957SOL     OW38762   2.001   6.620   2.993 -0.4990 -0.0781 -0.0244
11957SOL    HW138763   2.072   6.560   2.971  0.1886  1.2449 -1.6461
11957SOL    HW238764   2.001   6.622   3.089 -0.4756 -2.4954  0.0950
11958SOL     OW38765   0.912   7.898   8.533 -0.0100 -0.2978 -0.5706
11958SOL    HW138766   0.821   7.909   8.560  0.3007 -0.5086  0.6125
11958SOL    HW238767   0.919   7.948   8.452 -0.7699  1.1474  0.2142
11959SOL     OW38768   7.920   5.259   4.282  0.1409  0.6636 -0.7596
11959SOL    HW138769   7.959   5.288   4.199  1.5993 -0.2197 -0.4237
11959SOL    HW238770   7.976   5.187   4.311 -0.6693  0.5847  0.7152
11960SOL     OW38771   8.728   1.005   3.459 -0.1028 -0.4077  0.3918
11960SOL    HW138772   8.798   0.968   3.405 -1.2120 -1.4337 -0.3926
11960SOL    HW238773   8.772   1.069   3.515  1.5646 -1.4530  0.3490
11961SOL     OW38774   4.046   6.277   4.019  0.1712 -0.2614 -0.3400
11961SOL    HW138775   4.062   6.361   3.977 -2.2354  0.0953 -0.6711
11961SOL    HW238776   4.039   6.215   3.947 -2.8769  0.1673 -0.5422
11962SOL     OW38777   2.323   1.673   6.263 -0.1109  0.4666 -0.0192
11962SOL    HW138778   2.247   1.658   6.208 -0.0452 -0.1234  0.0392
11962SOL    HW238779   2.287   1.695   6.349 -0.2180  2.1534 -0.4685
11963SOL     OW38780   2.443   8.779   0.384  0.0132  0.2492 -0.3356
11963SOL    HW138781   2.420   8.716   0.316 -1.9159 -0.7516  1.1345
11963SOL    HW238782   2.531   8.755   0.411  1.0523  1.0151 -2.7860
11964SOL     OW38783   2.939   4.110   5.255 -0.5799 -0.6137 -0.2329
11964SOL    HW138784   2.896   4.179   5.306 -0.5117 -2.2333  2.1860
11964SOL    HW238785   3.023   4.148   5.230 -0.8291  0.4216  0.4351
11965SOL     OW38786   0.919   0.172   3.363  0.5222  0.6749 -0.4047
11965SOL    HW138787   0.862   0.114   3.313 -0.3953  1.8298 -0.7412
11965SOL    HW238788   0.991   0.192   3.304  0.7070  0.1081 -0.3791
11966SOL     OW38789   5.884   7.132   0.337 -0.3318  0.1179 -0.4185
11966SOL    HW138790   5.807   7.155   0.390 -0.7414 -0.2204 -0.8699
11966SOL    HW238791   5.850   7.114   0.250  0.3843  1.0388 -0.9193
11967SOL     OW38792   2.424   2.663   7.041  0.0327 -0.0223 -0.2352
11967SOL    HW138793   2.439   2.687   7.133  0.2824 -1.3393  0.0857
11967SOL    HW238794   2.494   2.706   6.993  1.0353 -0.8573  0.4429
11968SOL     OW38795   3.715   6.067   7.305 -0.2990 -0.2377  0.5596
11968SOL    HW138796   3.687   5.999   7.243 -1.5884  0.5640  0.2110
11968SOL    HW238797   3.798   6.099   7.269 -1.5574  0.9840 -1.4651
11969SOL     OW38798   8.171   2.139   0.506 -0.0320 -0.2782  0.2518
11969SOL    HW138799   8.202   2.225   0.478 -1.3063  0.1946  0.2188
11969SOL    HW238800   8.126   2.156   0.589  1.3699 -1.2391  1.2737
11970SOL     OW38801   6.757   3.961   2.974 -0.0648 -0.1634  0.0738
11970SOL    HW138802   6.749   3.955   2.879 -1.2559 -0.2864  0.1603
11970SOL    HW238803   6.670   3.935   3.007  0.7551 -1.5455  1.2537
11971SOL     OW38804   4.353   9.216   9.016  0.0366 -0.1645 -0.3773
11971SOL    HW138805   4.343   9.311   9.009 -1.1615 -0.3718 -2.5394
11971SOL    HW238806   4.299   9.192   9.092  1.9746  1.0223  1.4654
11972SOL     OW38807   5.746   0.013   2.220 -0.3993 -0.0555 -0.1347
11972SOL    HW138808   5.814   0.076   2.198 -0.5160  0.3600  0.6343
11972SOL    HW238809   5.757  -0.001   2.314  0.2884 -1.9908 -0.4592
11973SOL     OW38810   0.841   0.566   0.623 -0.0228  0.5355  0.5436
11973SOL    HW138811   0.890   0.635   0.669  0.0780  0.9227 -0.1367
11973SOL    HW238812   0.896   0.544   0.548 -1.6874  2.2806 -1.3006
11974SOL     OW38813   1.173   1.308   8.367  0.2290 -0.2303 -0.4732
11974SOL    HW138814   1.221   1.231   8.337 -0.4786 -0.9282  0.1586
11974SOL    HW238815   1.165   1.297   8.462 -0.3354  0.3528 -0.4438
11975SOL     OW38816   4.489   4.502   5.168  0.1524  0.0308  0.4181
11975SOL    HW138817   4.514   4.468   5.082 -0.8213  0.5340 -0.0763
11975SOL    HW238818   4.573   4.520   5.211  0.6592 -1.0846 -0.0610
11976SOL     OW38819   0.326   2.656   7.555 -0.3081  0.0393 -0.2369
11976SOL    HW138820   0.335   2.691   7.644 -0.7666  1.2255 -0.6474
11976SOL    HW238821   0.286   2.570   7.568 -2.3492  1.0532  0.5982
11977SOL     OW38822   4.671   5.074   6.576 -0.0969  0.3346  0.1053
11977SOL    HW138823   4.703   5.065   6.486  1.0146 -1.1434  0.5928
11977SOL    HW238824   4.725   5.143   6.615  1.2295 -0.7960  0.3482
11978SOL     OW38825   8.408   2.655   6.728  0.1513 -0.1248  0.0550
11978SOL    HW138826   8.478   2.628   6.669  0.6130  0.1178  0.4952
11978SOL    HW238827   8.450   2.669   6.812 -0.4127  0.0859  0.3089
11979SOL     OW38828   0.964   7.608   2.586  0.5066 -0.0450  0.3438
11979SOL    HW138829   0.879   7.652   2.579 -0.4287 -1.6990  0.7670
11979SOL    HW238830   0.946   7.517   2.560  2.4105 -0.1641 -0.7259
11980SOL     OW38831   7.285   6.088   7.801 -0.0191  0.1624  0.4761
11980SOL    HW138832   7.364   6.070   7.751 -0.1811  1.7601 -0.4544
11980SOL    HW238833   7.311   6.154   7.866 -0.6011  0.8981 -0.0095
11981SOL     OW38834   0.125   7.840   9.000 -0.4790  0.1298  0.4560
11981SOL    HW138835   0.089   7.856   8.913 -0.1281 -3.7617 -0.5882
11981SOL    HW238836   0.216   7.868   8.993 -1.1146  2.3768  0.5176
11982SOL     OW38837   8.817   4.007   8.613 -0.1899  0.3077 -0.0124
11982SOL    HW138838   8.843   3.994   8.704 -0.8309  0.4258  0.1879
11982SOL    HW238839   8.869   4.083   8.584 -0.5911  0.7878  0.5080
11983SOL     OW38840   7.149   4.056   3.856 -0.2193 -0.4040  0.3483
11983SOL    HW138841   7.240   4.025   3.847  0.1437  0.6462  0.3073
11983SOL    HW238842   7.143   4.131   3.797 -1.1163 -0.4429  0.3755
11984SOL     OW38843   1.192   3.732   8.551  0.5264 -0.2515  0.0457
11984SOL    HW138844   1.144   3.711   8.631  1.9148 -0.6665  0.7952
11984SOL    HW238845   1.272   3.681   8.557  0.7496 -0.1358 -1.5289
11985SOL     OW38846   5.244   7.370   7.689 -0.5651 -0.6912  0.2840
11985SOL    HW138847   5.312   7.312   7.722 -0.6367 -0.6165  0.5722
11985SOL    HW238848   5.180   7.312   7.649 -0.5249 -0.7934  0.3659
11986SOL     OW38849   6.523   6.903   6.627  0.3582 -0.0632 -0.5399
11986SOL    HW138850   6.533   6.978   6.686 -0.9545  0.7781 -1.3299
11986SOL    HW238851   6.490   6.833   6.683  1.0001  0.1205  0.0870
11987SOL     OW38852   6.104   0.853   4.525  0.6308  0.2215 -0.3994
11987SOL    HW138853   6.097   0.942   4.493  2.4618  0.1674 -1.0231
11987SOL    HW238854   6.197   0.840   4.543  0.7223 -2.1018 -2.0231
11988SOL     OW38855   2.311   1.238   6.810  0.1167 -0.1353 -0.2717
11988SOL    HW138856   2.215   1.242   6.809  0.0471 -1.4585 -0.5454
11988SOL    HW238857   2.335   1.274   6.896 -0.6677 -0.5421  0.1318
11989SOL     OW38858   6.399   7.816   8.085 -0.1638 -0.1616 -0.0066
11989SOL    HW138859   6.398   7.729   8.125  1.1963  0.0080  0.4501
11989SOL    HW238860   6.416   7.876   8.157 -1.4200  0.5355 -0.2677
11990SOL     OW38861   6.296   6.227   1.470  0.4467 -0.1398  0.0979
11990SOL    HW138862   6.247   6.204   1.391 -1.8643 -0.3303  1.4908
11990SOL    HW238863   6.293   6.323   1.472  1.8922 -0.0465 -0.8170
11991SOL     OW38864   1.658   4.637   1.274  0.4745  0.6254  0.2409
11991SOL    HW138865   1.700   4.561   1.314  1.0371  0.7020 -0.1921
11991SOL    HW238866   1.565   4.613   1.269  0.6226  0.0281  0.2445
11992SOL     OW38867   1.598   6.201   7.706  0.2165  0.6743  0.1205
11992SOL    HW138868   1.679   6.249   7.722 -0.7117  2.3101  0.1162
11992SOL    HW238869   1.548   6.257   7.647 -1.0083 -0.2024  0.2845
11993SOL     OW38870   4.741   4.511   7.118 -0.4999 -0.0233  0.4499
11993SOL    HW138871   4.664   4.534   7.066 -1.6550 -1.2582  1.5626
11993SOL    HW238872   4.811   4.564   7.080 -1.6403  0.3187 -1.3055
11994SOL     OW38873   0.144   8.377   2.851 -0.3951  0.4901 -0.0288
11994SOL    HW138874   0.065   8.348   2.896 -0.0026  0.5859  0.7390
11994SOL    HW238875   0.112   8.432   2.780 -1.0195  0.5741  0.3087
11995SOL     OW38876   6.056   3.924   7.187  0.1964  0.2366 -0.2606
11995SOL    HW138877   6.070   3.829   7.188  0.8140  0.3162 -0.5282
11995SOL    HW238878   6.128   3.957   7.133 -0.1227  0.8401 -0.3145
11996SOL     OW38879   4.008   1.052   4.771 -0.3297  0.1738 -0.2966
11996SOL    HW138880   4.048   1.138   4.790  0.1355  0.4078 -2.1021
11996SOL    HW238881   4.061   0.990   4.822  0.4485  0.7897 -0.3238
11997SOL     OW38882   4.578   7.019   8.908  0.4767 -0.5377 -0.1458
11997SOL    HW138883   4.618   7.023   8.995 -0.3998  0.8685  0.2227
11997SOL    HW238884   4.490   7.054   8.921  0.2550 -0.5156 -1.5763
11998SOL     OW38885   0.691   7.423   5.481  0.6594  1.0292 -0.1041
11998SOL    HW138886   0.604   7.438   5.517  0.5809 -0.4133  0.3593
11998SOL    HW238887   0.751   7.448   5.552  0.4990 -2.1659  1.3043
11999SOL     OW38888   3.328   4.856   2.197  0.1942 -0.1673  0.2080
11999SOL    HW138889   3.408   4.852   2.250 -0.5295  1.3292  1.4823
11999SOL    HW238890   3.257   4.848   2.260 -0.6920  1.0358 -0.5990
12000SOL     OW38891   6.238   7.291   8.961  0.3516  0.0814 -0.3014
12000SOL    HW138892   6.221   7.197   8.953 -0.4912  0.2253 -0.3227
12000SOL    HW238893   6.245   7.306   9.055  1.1109 -0.0964 -0.3198
12001SOL     OW38894   9.089   3.252   5.406 -0.5987 -0.0695  0.4161
12001SOL    HW138895   9.096   3.209   5.491  0.3073  0.7257  0.7614
12001SOL    HW238896   9.175   3.242   5.366 -0.9561 -0.2672 -0.3369
12002SOL     OW38897   6.107   3.227   3.901  0.4799 -0.1169 -0.4017
12002SOL    HW138898   6.194   3.224   3.862  1.3880  0.5252  1.4535
12002SOL    HW238899   6.119   3.194   3.990 -1.2211 -0.2328 -0.1774
12003SOL     OW38900   0.845   6.062   2.294  0.3264 -0.1402 -0.0344
12003SOL    HW138901   0.802   5.977   2.285  0.1143 -0.1600  1.0744
12003SOL    HW238902   0.931   6.049   2.253 -0.1094 -0.5610 -0.8400
12004SOL     OW38903   0.159   1.805   1.507 -0.0887 -0.1027  0.3296
12004SOL    HW138904   0.236   1.814   1.563 -0.0260 -0.5075  0.3101
12004SOL    HW238905   0.175   1.864   1.434  0.7421 -1.0329 -0.2685
12005SOL     OW38906   6.630   1.830   6.024  0.0951  0.3732 -0.7964
12005SOL    HW138907   6.690   1.762   5.994 -1.2919 -0.8596 -0.8560
12005SOL    HW238908   6.621   1.816   6.118 -1.0028 -0.2197 -0.9709
12006SOL     OW38909   7.300   0.519   3.798  0.3437  0.0277  0.5807
12006SOL    HW138910   7.296   0.430   3.761  2.0925 -0.5236  1.5950
12006SOL    HW238911   7.322   0.575   3.724 -3.3560  0.1366 -0.6747
12007SOL     OW38912   7.605   8.028   5.462 -0.0493 -0.0721  0.5907
12007SOL    HW138913   7.586   8.120   5.443 -2.8417 -0.5181  0.7848
12007SOL    HW238914   7.692   8.013   5.424 -0.3269  2.1484 -1.1370
12008SOL     OW38915   8.970   8.369   6.738 -0.1974 -0.5211  0.0117
12008SOL    HW138916   8.897   8.310   6.716  0.0982 -1.6422  1.8603
12008SOL    HW238917   8.930   8.456   6.741 -1.5459 -1.1404  1.2312
12009SOL     OW38918   7.133   1.034   6.653  0.4463  0.2808  0.1534
12009SOL    HW138919   7.073   1.080   6.711  0.3369 -0.6547  0.8181
12009SOL    HW238920   7.149   0.950   6.697  1.2028 -0.0185 -0.6543
12010SOL     OW38921   5.598   2.137   2.952 -0.1376  0.2387 -0.0787
12010SOL    HW138922   5.576   2.190   2.875 -0.2080  1.2702  0.6232
12010SOL    HW238923   5.591   2.047   2.923 -1.7669  0.5819 -0.8490
12011SOL     OW38924   6.422   3.244   6.995 -0.5784  0.2091  0.6502
12011SOL    HW138925   6.350   3.182   6.985  0.3027 -0.5155 -2.5326
12011SOL    HW238926   6.380   3.330   6.990 -1.4213 -0.1670  1.0279
12012SOL     OW38927   5.880   6.427   4.256 -0.3269  0.2740  0.3938
12012SOL    HW138928   5.789   6.411   4.231 -0.3159 -0.4580  0.8071
12012SOL    HW238929   5.928   6.429   4.173 -0.8734  1.7576  0.0899
12013SOL     OW38930   5.986   7.225   0.789 -0.0870 -0.1131  0.1498
12013SOL    HW138931   5.986   7.295   0.855  2.1684 -0.1037  0.2190
12013SOL    HW238932   6.016   7.267   0.709  0.6828 -0.8659  0.0330
12014SOL     OW38933   5.706   0.524   1.762  0.1211 -0.4095 -0.2152
12014SOL    HW138934   5.783   0.562   1.721 -1.1451  0.8246 -1.5657
12014SOL    HW238935   5.701   0.435   1.728 -0.5893  0.4113 -2.4110
12015SOL     OW38936   4.161   7.331   5.323  0.0542  0.7515 -0.5907
12015SOL    HW138937   4.136   7.371   5.406  0.8135  1.3921 -0.6596
12015SOL    HW238938   4.082   7.338   5.268 -1.2565 -1.7930  0.7996
12016SOL     OW38939   2.446   2.922   3.696  0.0187 -0.0397  0.2119
12016SOL    HW138940   2.380   2.873   3.646 -0.2468 -0.1151  0.6362
12016SOL    HW238941   2.427   2.902   3.787  0.7720 -0.2453  0.3333
12017SOL     OW38942   5.829   0.516   5.537  0.0216  0.1124 -0.2817
12017SOL    HW138943   5.812   0.431   5.499 -0.9226 -0.2059  0.7784
12017SOL    HW238944   5.742   0.554   5.552  0.4234  1.8752 -2.0060
12018SOL     OW38945   2.592   0.534   0.817 -0.7270  0.0552  0.1968
12018SOL    HW138946   2.533   0.462   0.839 -2.7627  1.3787 -0.6382
12018SOL    HW238947   2.588   0.540   0.722 -0.2775  1.0324  0.2274
12019SOL     OW38948   5.689   8.021   1.677  0.0498  0.1336  0.3403
12019SOL    HW138949   5.722   8.060   1.758  3.0494 -1.4200  0.0154
12019SOL    HW238950   5.751   7.951   1.657 -1.7436 -0.8831 -2.2430
12020SOL     OW38951   7.669   4.747   6.038 -0.0840  0.6180  0.1131
12020SOL    HW138952   7.685   4.824   5.984  0.3711  0.9285  0.6799
12020SOL    HW238953   7.600   4.699   5.992  2.5049 -0.8753 -2.5559
12021SOL     OW38954   5.694   2.186   3.338  0.3160 -0.1426 -0.2918
12021SOL    HW138955   5.604   2.218   3.330  0.7060  1.9028  2.1530
12021SOL    HW238956   5.694   2.138   3.420  1.6336  0.6674  0.2027
12022SOL     OW38957   8.177   8.741   8.456 -0.2395 -0.1326  0.3211
12022SOL    HW138958   8.101   8.773   8.503 -0.6388 -0.9739  0.2597
12022SOL    HW238959   8.220   8.680   8.517 -0.5754 -0.9747 -0.2631
12023SOL     OW38960   1.725   8.195   8.367 -0.1459  0.0033 -0.1497
12023SOL    HW138961   1.753   8.179   8.277 -1.3145 -0.1769 -0.4943
12023SOL    HW238962   1.695   8.285   8.367  0.2096  0.1233  0.1627
12024SOL     OW38963   3.345   6.136   1.162  0.1247 -0.0785 -0.1467
12024SOL    HW138964   3.303   6.064   1.210  0.3894 -2.4792 -3.1800
12024SOL    HW238965   3.276   6.170   1.105  0.2790  1.4448  0.5505
12025SOL     OW38966   5.919   0.815   7.129  0.1371  0.7425  0.2133
12025SOL    HW138967   5.993   0.819   7.190  0.1451 -0.0921  0.2645
12025SOL    HW238968   5.920   0.726   7.095 -0.6570  0.8181 -0.0344
12026SOL     OW38969   5.602   2.685   3.099 -0.3273 -0.2350  0.1002
12026SOL    HW138970   5.563   2.703   3.184 -0.2109 -0.4356  0.1957
12026SOL    HW238971   5.684   2.733   3.099  0.2806 -1.2546  0.5953
12027SOL     OW38972   9.165   1.962   7.425 -0.0034 -0.1573 -0.4091
12027SOL    HW138973   9.258   1.985   7.427  0.0067  0.1296 -2.1381
12027SOL    HW238974   9.121   2.044   7.402 -0.6810 -0.3332  0.2215
12028SOL     OW38975   3.314   4.674   6.659  0.2316 -0.4836 -0.1950
12028SOL    HW138976   3.403   4.685   6.693  0.1125 -1.3244  0.4032
12028SOL    HW238977   3.322   4.605   6.593 -0.1244 -1.1839  0.4830
12029SOL     OW38978   2.123   6.440   7.116 -0.1791 -0.0820  0.3674
12029SOL    HW138979   2.187   6.481   7.058 -0.0439  1.1337  1.3176
12029SOL    HW238980   2.133   6.347   7.101 -0.1227  0.2011 -1.5014
12030SOL     OW38981   3.920   4.487   5.671 -0.2456 -0.5397  0.7840
12030SOL    HW138982   3.982   4.465   5.601 -1.2935 -0.4775 -0.1802
12030SOL    HW238983   3.928   4.416   5.733 -0.5772 -1.5289 -0.2691
12031SOL     OW38984   7.636   5.574   6.805 -0.2992 -0.1626  0.3937
12031SOL    HW138985   7.626   5.661   6.845  0.4730 -0.1096  0.4829
12031SOL    HW238986   7.717   5.539   6.842 -0.0968 -0.5270 -0.3638
12032SOL     OW38987   0.361   8.246   9.239  0.0490  0.5246 -0.2090
12032SOL    HW138988   0.419   8.234   9.314 -0.5077  0.1313  0.1696
12032SOL    HW238989   0.274   8.253   9.277 -0.0855  1.9252 -0.7099
12033SOL     OW38990   0.321   3.631   6.315 -0.9108 -0.2881  0.3047
12033SOL    HW138991   0.353   3.549   6.353 -2.3564 -0.3315  1.5345
12033SOL    HW238992   0.339   3.697   6.382 -0.0324  0.3609 -0.5527
12034SOL     OW38993   2.908   1.815   1.918  0.5762 -0.1815 -0.3111
12034SOL    HW138994   2.882   1.850   1.833  2.0703 -0.2440 -0.8229
12034SOL    HW238995   2.969   1.744   1.898  1.9041  0.5906  0.8003
12035SOL     OW38996   0.231   1.895   6.789 -0.0451 -0.1555 -0.4812
12035SOL    HW138997   0.191   1.980   6.768 -1.6572 -0.8933 -0.5290
12035SOL    HW238998   0.301   1.917   6.851 -0.7854  1.1614 -0.0592
12036SOL     OW38999   4.769   5.018   4.163  0.0582  0.2659  0.6941
12036SOL    HW139000   4.832   5.018   4.091 -1.0146  1.0673 -0.2727
12036SOL    HW239001   4.691   5.060   4.127 -1.0325 -0.6693  1.8618
12037SOL     OW39002   4.056   4.483   4.225 -0.0596  0.5199 -0.3122
12037SOL    HW139003   4.110   4.538   4.169  1.1051  0.4503  0.6896
12037SOL    HW239004   4.096   4.396   4.218 -0.6609  0.2392 -0.3312
12038SOL     OW39005   5.100   6.929   3.010 -0.1436  0.6606 -0.6636
12038SOL    HW139006   5.144   6.919   2.925 -0.8715 -3.1228 -0.7834
12038SOL    HW239007   5.018   6.880   3.000 -0.4029  0.3651  2.1245
12039SOL     OW39008   4.467   9.042   3.031 -0.0229  0.5475 -0.2187
12039SOL    HW139009   4.431   9.007   3.112 -2.1792  0.7781 -0.9831
12039SOL    HW239010   4.414   9.121   3.015  0.9516  0.9851 -1.3903
12040SOL     OW39011   2.795   7.133   1.066  0.2607  0.1921 -0.5263
12040SOL    HW139012   2.834   7.215   1.036  1.2684  1.1903  3.0329
12040SOL    HW239013   2.709   7.158   1.099 -0.0725 -0.4821 -0.8724
12041SOL     OW39014   4.118   2.402   6.795  0.6876  0.5654 -0.1605
12041SOL    HW139015   4.074   2.427   6.876 -0.6931 -2.0679  0.0369
12041SOL    HW239016   4.053   2.416   6.727 -0.0801 -1.9305 -0.0638
12042SOL     OW39017   4.688   5.603   8.655  0.0650  0.0307  0.0904
12042SOL    HW139018   4.765   5.644   8.616  1.0687 -1.0352  0.8818
12042SOL    HW239019   4.682   5.641   8.743 -0.8809  0.7942 -0.2898
12043SOL     OW39020   7.394   3.680   0.734  0.4994  0.1211 -0.4892
12043SOL    HW139021   7.389   3.586   0.749  1.6905 -0.0429 -1.0019
12043SOL    HW239022   7.488   3.699   0.729  0.2804  1.3293 -0.4447
12044SOL     OW39023   7.894   6.788   4.414 -0.3678  0.5612  0.1539
12044SOL    HW139024   7.834   6.862   4.401  0.5796  1.2439 -0.5391
12044SOL    HW239025   7.941   6.781   4.331 -0.8803 -1.2562 -0.0151
12045SOL     OW39026   8.311   2.445   5.318 -0.6374 -0.1358  0.9676
12045SOL    HW139027   8.336   2.536   5.298 -2.0246 -0.1302 -1.0798
12045SOL    HW239028   8.374   2.393   5.268 -1.4345 -0.2200  0.0270
12046SOL     OW39029   4.013   7.336   7.829  0.1776  0.2362  0.3293
12046SOL    HW139030   4.080   7.271   7.851  1.2010  1.5247  1.1771
12046SOL    HW239031   4.062   7.414   7.805 -0.9984  1.4731  1.7451
12047SOL     OW39032   2.202   3.846   6.753 -0.3513  0.0911  0.2418
12047SOL    HW139033   2.297   3.860   6.747 -0.2509 -0.8110 -0.5480
12047SOL    HW239034   2.164   3.931   6.734  0.2767  0.0630 -1.3339
12048SOL     OW39035   7.400   5.522   3.239 -0.3632  0.2778  0.1409
12048SOL    HW139036   7.470   5.481   3.290 -0.9164 -0.0320  0.6604
12048SOL    HW239037   7.437   5.532   3.151  0.6446  0.9204  0.6166
12049SOL     OW39038   2.013   3.822   2.284 -0.1159  0.0992  0.2047
12049SOL    HW139039   1.923   3.847   2.302 -0.3617  0.0663 -0.9421
12049SOL    HW239040   2.063   3.903   2.298 -0.5387  0.5339 -0.7398
12050SOL     OW39041   9.001   8.233   1.953  0.3956 -0.2972  0.2616
12050SOL    HW139042   9.082   8.186   1.969  1.2239  1.0139  0.0375
12050SOL    HW239043   8.966   8.194   1.872  0.2653 -1.5307  0.8909
12051SOL     OW39044   0.880   4.518   2.049  0.0550 -0.3035  0.5146
12051SOL    HW139045   0.803   4.559   2.087 -0.1184  1.5234 -1.6544
12051SOL    HW239046   0.926   4.589   2.005  0.2831 -2.2173 -2.5828
12052SOL     OW39047   6.469   5.795   1.222 -0.3190 -0.1015  0.7938
12052SOL    HW139048   6.452   5.704   1.198  0.2609  0.0273 -0.1757
12052SOL    HW239049   6.501   5.835   1.141 -2.1691  1.3894  0.7226
12053SOL     OW39050   2.606   7.667   3.969 -0.3788 -0.0155  0.1015
12053SOL    HW139051   2.678   7.604   3.974  0.9299  1.5301  1.5864
12053SOL    HW239052   2.589   7.692   4.060 -1.3458  1.2573 -0.3954
12054SOL     OW39053   9.016   4.677   7.117  0.5885 -0.1549 -0.2281
12054SOL    HW139054   9.066   4.749   7.155  1.7473 -1.4091  0.7172
12054SOL    HW239055   9.079   4.605   7.110 -0.7358 -1.3402 -0.3652
12055SOL     OW39056   7.494   2.582   8.056 -0.0359  0.4382 -0.1707
12055SOL    HW139057   7.498   2.502   8.003  1.1692  0.8149 -0.6741
12055SOL    HW239058   7.446   2.644   8.002  1.5055  0.9382 -1.0244
12056SOL     OW39059   3.226   3.742   8.948 -0.3169  0.1340  0.2543
12056SOL    HW139060   3.307   3.727   8.997  1.3419 -2.2518 -2.8883
12056SOL    HW239061   3.253   3.791   8.871 -1.7765 -0.9263 -1.0044
12057SOL     OW39062   2.845   7.998   7.298 -0.7383 -0.1127  0.1662
12057SOL    HW139063   2.853   7.992   7.393 -0.7969  0.9868  0.2513
12057SOL    HW239064   2.824   7.909   7.270  0.4091 -0.6965  1.0621
12058SOL     OW39065   8.725   0.397   0.659 -0.0687  0.1441 -0.4200
12058SOL    HW139066   8.779   0.472   0.687  2.8489 -1.6483 -0.8374
12058SOL    HW239067   8.721   0.340   0.736 -0.7164 -0.1333 -0.6494
12059SOL     OW39068   9.231   8.581   7.442 -0.5089 -0.0200  0.1258
12059SOL    HW139069   9.300   8.524   7.476 -1.5383 -0.4973  1.5436
12059SOL    HW239070   9.186   8.528   7.377  0.1950  0.1512 -0.5119
12060SOL     OW39071   1.309   5.027   0.498  0.0362  0.1485  0.3426
12060SOL    HW139072   1.291   5.110   0.455 -2.3594 -0.2872  0.3862
12060SOL    HW239073   1.396   5.001   0.466  0.2781  2.0228 -0.6311
12061SOL     OW39074   2.661   9.205   2.855  0.0575  0.0744 -0.8239
12061SOL    HW139075   2.625   9.293   2.849  0.2014  0.6256  3.3795
12061SOL    HW239076   2.756   9.218   2.857  0.0520  0.1929  2.0727
12062SOL     OW39077   8.048   2.031   8.988  0.0076 -0.2319  0.5192
12062SOL    HW139078   8.122   2.093   8.980 -0.1181 -0.1723 -0.2526
12062SOL    HW239079   8.010   2.051   9.074 -1.5496  2.5104 -0.6482
12063SOL     OW39080   6.276   0.391   8.060 -0.5104  0.2886 -0.1021
12063SOL    HW139081   6.311   0.468   8.105 -0.4147  0.3129 -0.2169
12063SOL    HW239082   6.237   0.426   7.980  1.1669  0.0308 -1.0789
12064SOL     OW39083   4.002   8.521   4.756  0.0531  0.2706 -0.4488
12064SOL    HW139084   4.067   8.455   4.732  1.7868  1.7890 -0.1884
12064SOL    HW239085   4.025   8.597   4.701  0.2654  1.7655  1.5864
12065SOL     OW39086   3.339   0.819   3.611  0.0180 -0.3574  0.7373
12065SOL    HW139087   3.257   0.787   3.648  0.6011 -0.9190  1.5777
12065SOL    HW239088   3.389   0.741   3.590  1.2621 -0.0650  2.3662
12066SOL     OW39089   6.985   2.971   0.198 -0.0294 -0.2904  0.0052
12066SOL    HW139090   6.917   2.930   0.145 -0.8752  0.5881  0.3693
12066SOL    HW239091   7.008   2.905   0.263 -0.1764 -0.7772 -0.4310
12067SOL     OW39092   1.825   1.069   4.255 -0.4558 -0.3233 -0.7179
12067SOL    HW139093   1.917   1.042   4.264 -0.6615 -1.1781 -1.0704
12067SOL    HW239094   1.822   1.157   4.292  0.6138 -0.0818 -1.1691
12068SOL     OW39095   1.335   6.763   6.400  0.0265 -0.3952 -0.3603
12068SOL    HW139096   1.272   6.732   6.335 -0.8431 -0.7569  0.6279
12068SOL    HW239097   1.292   6.837   6.442 -0.9918 -2.2558  2.1742
12069SOL     OW39098   2.791   6.846   8.238  0.4156 -0.0901  0.8721
12069SOL    HW139099   2.762   6.809   8.155  1.2322 -1.5140  1.1986
12069SOL    HW239100   2.867   6.900   8.215 -1.8345  3.1015  0.1158
12070SOL     OW39101   3.369   8.773   3.766  0.1065  0.3363  0.1714
12070SOL    HW139102   3.446   8.729   3.730 -0.7862  0.1004 -1.6089
12070SOL    HW239103   3.295   8.734   3.718 -0.8424  2.7563 -0.5082
12071SOL     OW39104   1.911   6.983   5.737  0.3976 -0.2880 -0.1527
12071SOL    HW139105   1.873   6.929   5.667 -1.3997 -0.5053  0.9259
12071SOL    HW239106   1.917   6.924   5.812 -0.2887  0.6176  0.6370
12072SOL     OW39107   0.121   9.142   3.576 -0.2559  0.1020 -0.2310
12072SOL    HW139108   0.103   9.199   3.651  0.2596 -1.4258  1.1379
12072SOL    HW239109   0.080   9.058   3.600  1.3180 -0.9078 -0.8854
12073SOL     OW39110   8.439   0.607   6.480 -0.4572  0.0809  0.0523
12073SOL    HW139111   8.364   0.547   6.473 -0.1457 -0.1857 -1.3902
12073SOL    HW239112   8.433   0.663   6.403  1.3918 -0.6271 -0.6682
12074SOL     OW39113   3.603   0.217   5.202  0.4580 -0.3907 -0.2511
12074SOL    HW139114   3.663   0.172   5.261  0.1682  0.6033  0.8254
12074SOL    HW239115   3.529   0.156   5.192 -1.0076  0.6191  2.9863
12075SOL     OW39116   0.445   8.269   5.090  0.2178 -0.1995  0.1832
12075SOL    HW139117   0.472   8.201   5.028 -0.4581  0.1008 -0.4528
12075SOL    HW239118   0.378   8.318   5.044 -0.8325 -0.4105  1.4233
12076SOL     OW39119   4.247   6.807   6.821 -0.1378 -0.5740  0.1821
12076SOL    HW139120   4.301   6.806   6.742 -0.9098 -0.4961 -0.3616
12076SOL    HW239121   4.309   6.793   6.892  0.6057 -0.4318 -0.4147
12077SOL     OW39122   8.952   8.560   1.243 -0.5575 -0.2631  0.5460
12077SOL    HW139123   8.918   8.583   1.329 -1.7427  0.5572 -0.1029
12077SOL    HW239124   9.006   8.635   1.218 -2.5932  0.9234 -0.6143
12078SOL     OW39125   5.244   1.403   2.417  0.1054 -0.0661  0.1327
12078SOL    HW139126   5.154   1.415   2.387  0.1491 -1.9550 -0.8443
12078SOL    HW239127   5.251   1.462   2.492 -1.0744  2.1978 -1.3959
12079SOL     OW39128   2.545   0.094   4.861 -0.1262  0.4017 -0.4541
12079SOL    HW139129   2.595   0.014   4.839 -1.1650 -0.2780 -0.3927
12079SOL    HW239130   2.590   0.163   4.814  1.1995 -0.0989  0.0002
12080SOL     OW39131   5.002   5.369   7.390  0.3489  0.6667 -0.2719
12080SOL    HW139132   4.957   5.452   7.406 -0.2618  0.1848  0.5967
12080SOL    HW239133   5.095   5.390   7.394  0.2088  1.5136 -1.1978
12081SOL     OW39134   4.894   6.156   8.639 -0.1466  0.2632 -0.3469
12081SOL    HW139135   4.899   6.216   8.565  0.5157  2.0549  1.0773
12081SOL    HW239136   4.848   6.205   8.707  2.4150  0.1178  1.6451
12082SOL     OW39137   1.518   8.191   6.712 -0.6487 -0.1704 -0.0430
12082SOL    HW139138   1.532   8.103   6.675  4.5709  0.6346 -0.8129
12082SOL    HW239139   1.519   8.249   6.636  0.9182  0.8249  0.6834
12083SOL     OW39140   2.289   6.035   3.174  0.2698  0.0287 -0.3890
12083SOL    HW139141   2.229   6.012   3.245  0.3715  1.0838  0.0621
12083SOL    HW239142   2.292   5.957   3.119  0.5125 -0.9773  0.9908
12084SOL     OW39143   3.839   2.556   6.152 -0.2818 -0.0162 -0.3826
12084SOL    HW139144   3.920   2.590   6.190 -1.2168  3.3362 -1.0403
12084SOL    HW239145   3.823   2.612   6.076 -2.9315 -0.9407 -0.6115
12085SOL     OW39146   4.091   0.098   6.343  0.2507  0.1980 -0.1937
12085SOL    HW139147   4.026   0.034   6.373  0.8239 -0.2674  0.0805
12085SOL    HW239148   4.082   0.171   6.404 -0.0019  0.1260 -0.1426
12086SOL     OW39149   7.473   0.854   1.431 -0.1819 -0.7047  0.6359
12086SOL    HW139150   7.540   0.797   1.469  0.6222  0.5733  1.1835
12086SOL    HW239151   7.418   0.794   1.379  2.1596 -1.6403 -0.9650
12087SOL     OW39152   1.517   3.519   2.518  0.1400 -0.0396 -0.5021
12087SOL    HW139153   1.460   3.595   2.514  0.6213  0.3124 -0.8914
12087SOL    HW239154   1.594   3.544   2.467  0.8098 -0.3577  0.3232
12088SOL     OW39155   8.918   2.303   8.590 -0.1266 -0.5530  0.3263
12088SOL    HW139156   8.888   2.249   8.664  1.1624  1.6272  2.6161
12088SOL    HW239157   9.000   2.263   8.562  0.6257 -0.0825  1.7512
12089SOL     OW39158   2.038   1.381   8.708  0.8017 -0.0372  0.7020
12089SOL    HW139159   2.021   1.472   8.733  1.2187  0.1978  0.1409
12089SOL    HW239160   2.058   1.385   8.615  0.5472 -0.7418  0.6124
12090SOL     OW39161   4.992   4.746   1.741 -0.0265 -0.1227 -0.5215
12090SOL    HW139162   5.059   4.714   1.801  0.1770  0.5128 -0.4074
12090SOL    HW239163   4.950   4.666   1.708 -0.7643 -0.4842  1.1660
12091SOL     OW39164   3.791   3.798   4.363  0.5632  0.2949  0.1231
12091SOL    HW139165   3.816   3.845   4.283 -1.0883  1.6445  0.3598
12091SOL    HW239166   3.809   3.706   4.343  2.1697  0.8064 -1.0100
12092SOL     OW39167   5.089   6.125   6.053 -0.5111  0.1934 -0.1615
12092SOL    HW139168   5.103   6.059   6.121 -0.9930 -0.2635 -0.4981
12092SOL    HW239169   5.014   6.176   6.084  0.2875  1.0309  0.4294
12093SOL     OW39170   0.094   1.409   6.815  0.0712 -0.0511  0.4287
12093SOL    HW139171   0.157   1.480   6.810 -0.3902  0.3792  0.6022
12093SOL    HW239172   0.090   1.387   6.908 -0.0042 -0.1038  0.4136
12094SOL     OW39173   5.421   3.624   0.360  0.4826 -0.2125 -0.3614
12094SOL    HW139174   5.471   3.665   0.430  1.0569 -0.2739 -0.7218
12094SOL    HW239175   5.480   3.556   0.326  0.1867 -0.2255 -0.8532
12095SOL     OW39176   5.920   4.289   8.270  0.0772  0.4270 -0.1108
12095SOL    HW139177   5.998   4.337   8.296  1.0699 -1.7375  1.1559
12095SOL    HW239178   5.938   4.198   8.294 -1.5673 -0.7084 -2.6695
12096SOL     OW39179   3.907   5.353   5.615  0.3825 -0.5745  0.4041
12096SOL    HW139180   3.846   5.423   5.640 -0.9080 -1.6664  0.4369
12096SOL    HW239181   3.850   5.277   5.598  1.8318 -2.0888  1.9509
12097SOL     OW39182   9.137   3.294   3.622 -0.1012 -0.2978  0.3481
12097SOL    HW139183   9.120   3.388   3.619  1.3628 -0.0174  0.4702
12097SOL    HW239184   9.153   3.275   3.714  2.2859 -0.1440  0.0087
12098SOL     OW39185   1.010   1.332   5.235  0.9067 -0.1989 -0.1787
12098SOL    HW139186   0.992   1.414   5.280 -3.3044 -0.9107 -0.1667
12098SOL    HW239187   1.037   1.272   5.305  0.2883  0.2446  0.4533
12099SOL     OW39188   2.280   1.493   8.796 -0.4582 -0.0564 -0.3523
12099SOL    HW139189   2.269   1.505   8.890 -1.4324 -1.7095 -0.2233
12099SOL    HW239190   2.213   1.430   8.771  0.4213 -0.4159 -1.9848
12100SOL     OW39191   4.645   5.976   9.141 -0.2731 -0.4978 -0.5079
12100SOL    HW139192   4.719   5.976   9.080 -0.5666 -0.2075 -0.8661
12100SOL    HW239193   4.649   5.890   9.184  0.5282 -0.3185 -0.2129
12101SOL     OW39194   0.604   0.104   3.964 -0.3008  0.1255 -0.6959
12101SOL    HW139195   0.596   0.177   3.903  0.9688  0.2068 -0.7997
12101SOL    HW239196   0.636   0.031   3.911  0.0433 -0.0252 -0.2951
12102SOL     OW39197   4.255   6.158   7.813  0.3558 -0.1779  0.2207
12102SOL    HW139198   4.340   6.117   7.833 -0.0010 -1.0800 -0.0302
12102SOL    HW239199   4.249   6.154   7.718 -1.6604 -3.8796  0.2969
12103SOL     OW39200   5.882   6.412   8.449 -0.5419  0.2013  0.1958
12103SOL    HW139201   5.879   6.442   8.358 -0.3266  2.2693  0.8095
12103SOL    HW239202   5.799   6.443   8.487 -0.3591 -0.0889  0.8442
12104SOL     OW39203   4.334   0.044   3.971 -0.2054 -0.2461 -0.2770
12104SOL    HW139204   4.306   0.085   4.053  0.3401 -1.9478  0.7985
12104SOL    HW239205   4.426   0.023   3.985 -0.0720 -0.4390 -1.3818
12105SOL     OW39206   8.708   1.976   4.075 -0.1885  0.7132  0.2909
12105SOL    HW139207   8.759   1.931   4.142  0.5781  0.4524 -0.4523
12105SOL    HW239208   8.773   2.011   4.014 -0.8852  0.4735 -0.6191
12106SOL     OW39209   3.903   4.695   4.053 -0.2396 -0.1221  0.1234
12106SOL    HW139210   3.911   4.688   4.148 -0.1362  2.1639  0.3369
12106SOL    HW239211   3.946   4.617   4.019  1.0701 -0.2214  1.9076
12107SOL     OW39212   8.262   3.755   0.222 -0.2269 -0.5374  0.0724
12107SOL    HW139213   8.320   3.706   0.164 -0.8415 -1.0938 -0.0837
12107SOL    HW239214   8.215   3.814   0.164 -0.7252 -0.9792  0.0217
12108SOL     OW39215   8.001   8.960   2.048  0.2544  0.0950 -0.0261
12108SOL    HW139216   7.946   8.999   1.980 -0.1140 -0.0235  0.2021
12108SOL    HW239217   8.027   8.875   2.013 -2.6712 -1.4863  1.2862
12109SOL     OW39218   6.604   1.433   4.566  0.3948  0.0640  0.3257
12109SOL    HW139219   6.642   1.473   4.488 -1.6938  0.4648 -0.5435
12109SOL    HW239220   6.557   1.504   4.609  0.5718 -0.4146  1.3515
12110SOL     OW39221   2.784   1.454   3.812  0.0122  0.2314  0.6955
12110SOL    HW139222   2.839   1.434   3.736 -0.4575  0.4965  0.2771
12110SOL    HW239223   2.823   1.532   3.851 -0.6301  1.0023 -0.1757
12111SOL     OW39224   1.257   8.002   7.133  0.2678 -0.3360 -0.2627
12111SOL    HW139225   1.311   8.041   7.064  0.4758 -0.5941 -0.2425
12111SOL    HW239226   1.248   7.910   7.108  1.8210 -0.8618  0.9804
12112SOL     OW39227   2.100   2.020   1.826  0.2054  0.2035 -0.1367
12112SOL    HW139228   2.166   1.952   1.815 -1.1898 -1.1342 -0.4869
12112SOL    HW239229   2.111   2.077   1.750 -0.2969 -1.1325 -1.2459
12113SOL     OW39230   6.756   9.032   0.665  0.3646 -0.5796 -0.3164
12113SOL    HW139231   6.689   8.964   0.652  0.1455 -0.4437  0.0864
12113SOL    HW239232   6.777   9.027   0.758 -0.2495  0.4564 -0.1031
12114SOL     OW39233   1.129   8.953   3.040  0.0932 -0.3064 -0.6161
12114SOL    HW139234   1.162   8.911   3.119  0.4142 -1.4642 -1.3490
12114SOL    HW239235   1.066   8.891   3.004 -1.3660  0.9654 -0.3702
12115SOL     OW39236   8.545   0.245   7.377  0.2951  0.0303 -0.4742
12115SOL    HW139237   8.476   0.310   7.376  1.4421  1.3501 -2.8007
12115SOL    HW239238   8.610   0.277   7.314  1.9118 -2.3166 -0.1686
12116SOL     OW39239   8.795   0.011   3.278  0.1523  0.3438 -0.4891
12116SOL    HW139240   8.715   0.041   3.236 -0.3056  1.8626  1.3269
12116SOL    HW239241   8.769  -0.063   3.332 -0.0589  0.8715  0.1423
12117SOL     OW39242   3.077   8.467   8.798  0.7789 -0.3106 -0.2274
12117SOL    HW139243   3.030   8.546   8.770 -0.1277 -0.6230  0.3613
12117SOL    HW239244   3.129   8.441   8.722 -0.1510 -0.0589 -0.9628
12118SOL     OW39245   0.244   6.250   7.084  0.5382  0.4615  0.0158
12118SOL    HW139246   0.302   6.314   7.125 -0.2736  0.4344  1.2524
12118SOL    HW239247   0.270   6.166   7.122  0.1326  0.3588  0.0715
12119SOL     OW39248   8.609   3.266   7.214  0.5370 -0.1464  0.1132
12119SOL    HW139249   8.610   3.359   7.237  2.7532  0.3433 -1.5512
12119SOL    HW239250   8.629   3.220   7.295 -1.7971  0.6956  1.2234
12120SOL     OW39251   6.675   8.349   4.162 -0.1976  0.3835  0.3107
12120SOL    HW139252   6.706   8.353   4.252 -0.2156 -1.7294  0.4443
12120SOL    HW239253   6.580   8.357   4.169 -0.2103  0.0824  0.5015
12121SOL     OW39254   7.689   8.155   5.125 -0.0927 -0.1501 -0.2272
12121SOL    HW139255   7.670   8.210   5.201 -1.6574 -0.3035 -0.4914
12121SOL    HW239256   7.719   8.072   5.163 -0.2324 -0.0049  0.2097
12122SOL     OW39257   7.884   2.974   6.200  0.5775 -0.1731 -0.0866
12122SOL    HW139258   7.824   2.935   6.264  0.7144  1.1730  0.9048
12122SOL    HW239259   7.968   2.932   6.217  0.3583 -0.6366 -0.1407
12123SOL     OW39260   2.927   5.457   8.914 -0.3250 -0.3202 -0.4714
12123SOL    HW139261   2.924   5.367   8.947 -1.1306  0.1572  0.8407
12123SOL    HW239262   2.909   5.449   8.820 -0.1633 -1.5427 -0.4149
12124SOL     OW39263   3.812   0.662   4.892 -0.0605 -0.1253  0.1334
12124SOL    HW139264   3.891   0.609   4.889  0.2266  0.2875 -2.8228
12124SOL    HW239265   3.803   0.697   4.803 -2.8382  0.9330  0.7164
12125SOL     OW39266   6.436   5.760   0.518  0.4016  0.6623 -1.2589
12125SOL    HW139267   6.475   5.843   0.490 -0.3047  1.1975 -0.6906
12125SOL    HW239268   6.413   5.715   0.436  1.2710  0.7880 -1.5758
12126SOL     OW39269   1.850   7.585   1.037  0.5569 -0.3020  0.2491
12126SOL    HW139270   1.805   7.669   1.041  0.4828 -0.1547 -2.0170
12126SOL    HW239271   1.862   7.559   1.128 -3.6715 -0.1330  1.0413
12127SOL     OW39272   4.467   4.104   3.720 -0.2303  0.1111  0.5402
12127SOL    HW139273   4.458   4.077   3.629 -0.2175  2.4272 -0.2025
12127SOL    HW239274   4.561   4.116   3.733 -0.1394 -1.0306  1.1679
12128SOL     OW39275   4.154   4.969   8.925 -0.4299 -0.2399  0.2777
12128SOL    HW139276   4.234   4.944   8.879 -0.6753 -1.2968  0.3970
12128SOL    HW239277   4.092   4.989   8.856  0.0528  0.9930  0.1871
12129SOL     OW39278   3.063   4.412   3.807  0.5039 -0.4115 -0.3638
12129SOL    HW139279   2.987   4.448   3.851  2.8857  1.8659  2.3296
12129SOL    HW239280   3.028   4.363   3.733 -3.4351  1.6811 -0.1248
12130SOL     OW39281   4.527   5.896   2.708 -0.1561 -0.0644 -0.4602
12130SOL    HW139282   4.491   5.808   2.711 -0.4338  0.0441 -0.6306
12130SOL    HW239283   4.621   5.883   2.696 -0.1396 -0.3454 -0.0687
12131SOL     OW39284   7.386   4.622   5.233  0.1927  0.4320  0.0924
12131SOL    HW139285   7.326   4.576   5.174  0.7413  0.4990 -0.5347
12131SOL    HW239286   7.416   4.555   5.294  0.5461  0.0808 -0.4608
12132SOL     OW39287   2.105   8.193   6.394 -0.3429  0.4170 -0.6167
12132SOL    HW139288   2.062   8.114   6.428  0.0365  0.6297  0.3754
12132SOL    HW239289   2.111   8.178   6.299 -1.3951 -0.1938 -0.5983
12133SOL     OW39290   0.506   7.960   2.402 -0.0482  0.1451  0.2499
12133SOL    HW139291   0.512   8.052   2.378 -2.2375  0.2192 -0.2440
12133SOL    HW239292   0.509   7.914   2.318  1.8401 -0.3466  0.5363
12134SOL     OW39293   7.291   3.022   7.773  0.4681 -0.0801  0.1537
12134SOL    HW139294   7.352   3.089   7.804 -0.1103  0.5330 -0.0160
12134SOL    HW239295   7.204   3.057   7.794  0.1670 -0.8601  0.2255
12135SOL     OW39296   5.483   3.588   8.166 -0.2706  0.9515 -0.4308
12135SOL    HW139297   5.475   3.590   8.071  1.5423 -0.1467 -0.6459
12135SOL    HW239298   5.530   3.507   8.185 -2.0947  0.2486  1.5547
12136SOL     OW39299   3.758   7.019   8.627  0.5019  0.0133 -0.0668
12136SOL    HW139300   3.778   7.014   8.721  0.9103  1.7533 -0.0400
12136SOL    HW239301   3.665   6.996   8.621  0.9386 -2.1472  0.4912
12137SOL     OW39302   5.513   8.709   2.610 -0.6966  0.1946 -0.2356
12137SOL    HW139303   5.472   8.629   2.642 -0.3800  0.4982  0.9977
12137SOL    HW239304   5.588   8.679   2.559 -0.1003 -0.3028  0.8988
12138SOL     OW39305   5.237   6.914   0.734  0.2509 -0.3049  0.3152
12138SOL    HW139306   5.179   6.988   0.716 -0.1647 -0.6059  0.3907
12138SOL    HW239307   5.185   6.857   0.792  0.6288 -0.5680  0.3954
12139SOL     OW39308   7.139   1.854   3.345  0.1362  0.1649 -0.7162
12139SOL    HW139309   7.097   1.803   3.414  1.5924 -0.5873 -0.3407
12139SOL    HW239310   7.210   1.798   3.314  1.0182  1.4762 -1.1463
12140SOL     OW39311   4.894   3.140   8.312 -0.2661 -0.1344  0.2699
12140SOL    HW139312   4.912   3.121   8.220  4.1059  0.1531  0.8590
12140SOL    HW239313   4.886   3.235   8.316  1.5010  0.0384  0.3657
12141SOL     OW39314   0.931   1.179   4.433 -0.0427  0.3246 -0.0058
12141SOL    HW139315   0.904   1.128   4.357  1.1465 -0.6672  0.2095
12141SOL    HW239316   0.880   1.260   4.427 -1.6067 -0.6609 -0.6403
12142SOL     OW39317   3.814   6.201   8.418  0.0034  0.5844 -0.0747
12142SOL    HW139318   3.901   6.165   8.438  0.3186  1.6696  0.5902
12142SOL    HW239319   3.816   6.216   8.323  1.0987  1.9577  0.1331
12143SOL     OW39320   5.568   1.601   6.863 -0.0240  0.2265 -0.9711
12143SOL    HW139321   5.601   1.520   6.826 -1.4223 -0.9350  0.1822
12143SOL    HW239322   5.473   1.587   6.869 -0.0712  1.1177  1.1253
12144SOL     OW39323   4.392   7.728   2.105  0.0765  0.0250  0.4160
12144SOL    HW139324   4.442   7.797   2.147  1.0281 -0.4824  0.1478
12144SOL    HW239325   4.457   7.674   2.061 -0.5624 -1.4453  1.1957
12145SOL     OW39326   7.079   3.843   8.631 -0.0903  0.1742 -0.1094
12145SOL    HW139327   7.165   3.858   8.670 -0.5863  0.2080  0.9916
12145SOL    HW239328   7.066   3.919   8.574  0.0676  0.8376  0.7068
12146SOL     OW39329   5.390   1.287   0.988 -0.4447 -0.1790  0.1600
12146SOL    HW139330   5.464   1.338   0.955 -0.4899 -0.1131  0.1599
12146SOL    HW239331   5.370   1.226   0.917  1.2180 -1.9302  1.1105
12147SOL     OW39332   0.015   6.300   6.865  0.3042  0.3878 -0.0894
12147SOL    HW139333  -0.049   6.323   6.933 -0.0503 -1.2726  0.1975
12147SOL    HW239334   0.100   6.307   6.909  0.3768  2.5635 -0.4596
12148SOL     OW39335   1.845   6.128   8.241  0.2415 -0.2535 -0.0031
12148SOL    HW139336   1.772   6.066   8.248 -0.1026  0.3090  2.1949
12148SOL    HW239337   1.857   6.161   8.330  2.4794  0.5012 -0.5210
12149SOL     OW39338   1.581   0.259   4.589 -0.2537  0.0999 -0.4383
12149SOL    HW139339   1.607   0.227   4.676 -0.3712  1.0678 -0.0253
12149SOL    HW239340   1.557   0.181   4.540  1.4832 -0.6498 -0.1739
12150SOL     OW39341   5.120   8.644   6.615 -0.1038  0.5580  0.7019
12150SOL    HW139342   5.146   8.673   6.702  0.0476 -1.0376  1.2262
12150SOL    HW239343   5.200   8.651   6.562  0.1163  0.3733  1.0086
12151SOL     OW39344   2.548   7.049   0.545 -0.2074  0.4442 -0.6627
12151SOL    HW139345   2.579   7.116   0.605  0.5048  0.9969 -1.6221
12151SOL    HW239346   2.580   6.967   0.582 -1.8756  0.4918  1.0286
12152SOL     OW39347   4.843   0.759   7.935 -0.0266  0.0119 -0.3133
12152SOL    HW139348   4.772   0.798   7.985  0.2227 -1.2446  1.0543
12152SOL    HW239349   4.821   0.667   7.928  0.6309 -0.0869 -1.3527
12153SOL     OW39350   6.125   8.338   1.270  0.1995  0.0507  0.2867
12153SOL    HW139351   6.050   8.306   1.321  0.4472 -0.1218  0.5485
12153SOL    HW239352   6.100   8.322   1.179 -0.1893  0.2339  0.3575
12154SOL     OW39353   2.685   0.740   1.297 -0.4021  0.2338  0.1751
12154SOL    HW139354   2.650   0.669   1.350  1.9823 -1.3641 -0.2449
12154SOL    HW239355   2.619   0.755   1.230 -1.7667 -0.2762  1.3449
12155SOL     OW39356   5.164   8.283   5.541  0.5590  0.4896  0.6165
12155SOL    HW139357   5.098   8.341   5.504  0.3958  0.5019  0.9236
12155SOL    HW239358   5.189   8.226   5.468  0.7509  0.9673  0.3008
12156SOL     OW39359   6.731   5.411   1.784  0.4459  0.1677 -0.6537
12156SOL    HW139360   6.705   5.444   1.698  0.5152 -2.3499 -1.7293
12156SOL    HW239361   6.657   5.431   1.840 -0.8120 -0.5271 -1.9822
12157SOL     OW39362   2.148   1.008   9.116 -0.0551 -0.2530 -0.3158
12157SOL    HW139363   2.116   1.052   9.194 -0.1306 -2.8126  1.1937
12157SOL    HW239364   2.108   1.057   9.043 -1.8054  0.8269  1.2830
12158SOL     OW39365   0.367   6.339   0.647 -0.1526 -0.1511 -0.5146
12158SOL    HW139366   0.391   6.390   0.724  0.5785  0.3139 -1.0334
12158SOL    HW239367   0.282   6.301   0.668 -0.9921  1.7296 -0.3105
12159SOL     OW39368   6.067   5.538   8.460  0.1446 -0.5106 -0.3121
12159SOL    HW139369   6.002   5.584   8.407 -0.8813  0.1459  1.4589
12159SOL    HW239370   6.135   5.514   8.397 -0.9820  0.2806 -1.9175
12160SOL     OW39371   5.643   0.033   2.686 -0.1504  0.5863 -0.1114
12160SOL    HW139372   5.677   0.115   2.652  0.2692  0.4730  0.0346
12160SOL    HW239373   5.703   0.009   2.756 -1.0748  0.8907  0.8182
12161SOL     OW39374   4.721   3.485   5.017  0.0318  0.0974 -0.1299
12161SOL    HW139375   4.673   3.429   5.078 -0.2674  2.4389  1.9786
12161SOL    HW239376   4.812   3.477   5.045  0.4367 -1.5247 -1.7537
12162SOL     OW39377   6.627   2.184   4.360 -0.3070 -0.3106 -0.3415
12162SOL    HW139378   6.637   2.119   4.429  0.9764  0.1894 -0.0160
12162SOL    HW239379   6.619   2.268   4.406  1.3417  0.1266 -0.7517
12163SOL     OW39380   8.501   8.441   2.219 -0.1882 -0.3671 -0.5209
12163SOL    HW139381   8.466   8.505   2.157 -0.1718  0.4731  0.3079
12163SOL    HW239382   8.592   8.430   2.192  0.1535  0.8906  0.0333
12164SOL     OW39383   2.106   0.921   6.993 -0.0213  0.5163 -0.6275
12164SOL    HW139384   2.052   0.872   6.930 -0.1679 -1.2395  0.7991
12164SOL    HW239385   2.183   0.865   7.006 -0.4380  0.3723  1.4359
12165SOL     OW39386   4.389   0.797   7.073 -0.2342  0.0917  0.0394
12165SOL    HW139387   4.394   0.880   7.026  0.5882 -0.3004 -0.5866
12165SOL    HW239388   4.464   0.747   7.042  0.2074 -0.2797  1.5901
12166SOL     OW39389   9.229   2.388   5.114 -0.5285  0.2788  0.0427
12166SOL    HW139390   9.175   2.326   5.163 -0.8187 -0.3516 -1.0580
12166SOL    HW239391   9.318   2.352   5.120 -0.4418  0.5929  0.7100
12167SOL     OW39392   7.177   3.538   6.420 -0.3006 -0.2082 -0.0106
12167SOL    HW139393   7.145   3.629   6.416  1.4746  0.4991  0.9436
12167SOL    HW239394   7.161   3.504   6.331 -0.6617  1.1464 -0.4939
12168SOL     OW39395   0.053   1.476   8.107  0.2027  0.3557 -0.0185
12168SOL    HW139396  -0.019   1.461   8.045  0.0880 -0.7213  0.3470
12168SOL    HW239397   0.075   1.388   8.139 -0.0700  0.9196  1.8342
12169SOL     OW39398   4.347   8.028   4.310 -0.1385  0.5793  0.1016
12169SOL    HW139399   4.277   7.994   4.255 -1.2818 -2.4189  2.9975
12169SOL    HW239400   4.304   8.051   4.392  1.8626  1.8361  0.8750
12170SOL     OW39401   4.404   5.803   8.857  0.0781  0.3926  0.0025
12170SOL    HW139402   4.325   5.858   8.850  0.2562  0.5689 -0.7397
12170SOL    HW239403   4.446   5.811   8.771  0.0333 -1.0283 -0.1674
12171SOL     OW39404   1.380   7.158   6.675  0.0193  0.1249 -0.2653
12171SOL    HW139405   1.401   7.132   6.585  0.7826  2.2310 -0.7437
12171SOL    HW239406   1.313   7.226   6.666 -0.3013 -0.0273  0.7944
12172SOL     OW39407   7.501   0.096   0.487  0.5678 -0.1143  0.9203
12172SOL    HW139408   7.409   0.070   0.499  0.9755 -1.3966  1.4742
12172SOL    HW239409   7.501   0.147   0.406 -0.5942 -0.3678  0.7422
12173SOL     OW39410   8.415   2.734   1.752 -0.3531  0.6630  0.1661
12173SOL    HW139411   8.477   2.763   1.684 -0.6014  1.7360  0.3693
12173SOL    HW239412   8.442   2.645   1.773  0.0561  0.4984 -0.9716
12174SOL     OW39413   5.214   8.742   3.852 -0.1646 -0.4218  0.2303
12174SOL    HW139414   5.228   8.668   3.793  0.0024  0.0892 -0.3786
12174SOL    HW239415   5.120   8.758   3.849  0.0515  0.7943 -1.3819
12175SOL     OW39416   6.706   8.802   8.258  0.2460  0.4357  0.6227
12175SOL    HW139417   6.710   8.887   8.216 -0.3033  1.0300  1.7457
12175SOL    HW239418   6.789   8.759   8.233  0.2819  1.0630 -0.3851
12176SOL     OW39419   1.126   3.140   8.186  0.0317 -0.4595 -0.0033
12176SOL    HW139420   1.134   3.159   8.279  0.7222  1.0249 -0.3332
12176SOL    HW239421   1.042   3.095   8.177 -0.2039 -0.2958  1.2797
12177SOL     OW39422   7.032   2.455   3.661  0.0480 -0.1797 -0.3941
12177SOL    HW139423   7.061   2.546   3.672 -1.3061  0.3323 -0.9148
12177SOL    HW239424   7.018   2.446   3.566 -2.3871 -0.0976 -0.0864
12178SOL     OW39425   0.142   3.643   3.946  0.3179 -0.4505  0.1618
12178SOL    HW139426   0.078   3.592   3.997  1.0048  1.0960  2.7649
12178SOL    HW239427   0.100   3.729   3.935  0.9300 -0.2072 -0.2969
12179SOL     OW39428   4.429   2.657   2.845  0.2010  0.4672  0.3556
12179SOL    HW139429   4.390   2.732   2.889  0.8473  1.4302 -0.6640
12179SOL    HW239430   4.523   2.665   2.863  0.4174  0.6033 -0.7631
12180SOL     OW39431   8.123   4.718   4.099  0.0280 -0.0756  0.1535
12180SOL    HW139432   8.046   4.673   4.134  0.2101 -0.3127  0.2515
12180SOL    HW239433   8.195   4.657   4.114  0.1125 -0.1795 -0.6276
12181SOL     OW39434   3.778   1.371   5.346  0.9999 -0.3078 -0.1757
12181SOL    HW139435   3.798   1.403   5.258  2.5294 -0.7489 -0.0137
12181SOL    HW239436   3.688   1.401   5.363  0.0960 -1.4561 -2.4475
12182SOL     OW39437   5.045   4.448   7.756  0.2128  0.5488  0.5740
12182SOL    HW139438   5.082   4.429   7.670 -1.6742  0.0573 -0.1844
12182SOL    HW239439   4.993   4.527   7.742 -0.4285  0.2367  1.1395
12183SOL     OW39440   6.493   7.520   7.111  0.5079  0.8836  0.5986
12183SOL    HW139441   6.400   7.537   7.128  0.5468  1.1500  0.5377
12183SOL    HW239442   6.538   7.599   7.140  0.5121  1.7016 -1.5144
12184SOL     OW39443   0.006   6.612   3.863  0.7236  0.6920 -0.8627
12184SOL    HW139444   0.005   6.690   3.918 -0.6066  0.6662 -0.8096
12184SOL    HW239445   0.062   6.549   3.909 -0.3106  0.6954  0.4263
12185SOL     OW39446   7.807   6.663   5.438  0.7849 -0.3112 -0.1969
12185SOL    HW139447   7.843   6.752   5.445  1.7269 -0.6927 -0.0429
12185SOL    HW239448   7.712   6.676   5.437  0.9038  0.7822 -1.2338
12186SOL     OW39449   4.299   1.825   6.415  0.0241  0.1997 -0.0721
12186SOL    HW139450   4.285   1.766   6.489  0.6686 -1.0650 -0.9152
12186SOL    HW239451   4.225   1.809   6.356  0.6257 -0.4156 -0.6884
12187SOL     OW39452   0.885   2.357   4.124 -0.5533  0.7875  0.3194
12187SOL    HW139453   0.963   2.313   4.159 -0.3532 -0.4877 -1.5320
12187SOL    HW239454   0.812   2.317   4.170 -0.2048  0.7544  0.8584
12188SOL     OW39455   7.673   2.582   1.514  0.1365 -0.5130 -0.2344
12188SOL    HW139456   7.608   2.643   1.549 -0.0504  0.1368 -1.6480
12188SOL    HW239457   7.632   2.546   1.436  0.8924 -1.2497 -0.3043
12189SOL     OW39458   7.412   2.041   1.739  0.0379  0.2958  0.6349
12189SOL    HW139459   7.496   2.017   1.777  0.6971  2.0127  0.3660
12189SOL    HW239460   7.358   2.063   1.815  0.5019  1.1480  0.7309
12190SOL     OW39461   6.304   0.364   6.943 -0.4643 -0.0039 -0.3455
12190SOL    HW139462   6.364   0.323   7.005 -0.8210  1.9687  1.4087
12190SOL    HW239463   6.293   0.299   6.874  2.0056 -1.2703  0.3265
12191SOL     OW39464   1.479   6.916   3.500  0.1254 -0.0101  0.4981
12191SOL    HW139465   1.510   6.933   3.589  1.1202  0.7278  0.0357
12191SOL    HW239466   1.439   6.998   3.472  0.0770 -0.1440  0.1686
12192SOL     OW39467   3.572   3.364   7.725  0.2286 -0.0994 -0.3814
12192SOL    HW139468   3.576   3.460   7.722 -0.6392  0.0399  1.6722
12192SOL    HW239469   3.661   3.336   7.705  0.6972  1.1687 -0.1577
12193SOL     OW39470   1.238   7.477   6.475  0.0759 -0.3481  0.1591
12193SOL    HW139471   1.246   7.570   6.451  0.0159 -0.9984 -2.7585
12193SOL    HW239472   1.326   7.452   6.503  0.4802  0.2701 -0.5056
12194SOL     OW39473   4.624   7.929   7.666 -0.2344  0.0916  0.0375
12194SOL    HW139474   4.537   7.896   7.688 -0.0419 -0.2021  0.3772
12194SOL    HW239475   4.616   8.024   7.674  0.2010 -0.0296  3.0058
12195SOL     OW39476   7.408   1.676   1.285 -0.4860  0.1307  0.0758
12195SOL    HW139477   7.383   1.743   1.221 -0.4776  0.5163  0.4745
12195SOL    HW239478   7.386   1.715   1.369  0.0826 -0.1309  0.3446
12196SOL     OW39479   4.631   4.364   3.804  0.0027 -0.0855 -0.7766
12196SOL    HW139480   4.641   4.355   3.899 -0.6911  3.6783 -0.1801
12196SOL    HW239481   4.715   4.400   3.775 -0.6189  1.1471 -1.1183
12197SOL     OW39482   4.824   0.934   2.418  0.4994  0.2303  0.0533
12197SOL    HW139483   4.881   0.983   2.358  0.2349 -1.0996 -1.3369
12197SOL    HW239484   4.763   0.887   2.361  1.0053 -2.0689  1.2799
12198SOL     OW39485   4.211   4.066   6.789  0.1206 -0.1530 -0.1567
12198SOL    HW139486   4.259   4.081   6.708  1.2384 -0.3607  0.4599
12198SOL    HW239487   4.136   4.013   6.762  0.2638  0.1104 -1.1128
12199SOL     OW39488   1.569   7.589   1.426  0.4947 -0.0856 -0.1166
12199SOL    HW139489   1.519   7.548   1.355  2.3926  0.3386 -1.8070
12199SOL    HW239490   1.610   7.517   1.472 -0.5546 -0.3491  0.4443
12200SOL     OW39491   4.814   4.235   5.975 -0.5671  0.4481  0.1390
12200SOL    HW139492   4.880   4.232   6.045 -1.1562 -1.0100  0.6759
12200SOL    HW239493   4.865   4.227   5.894 -0.0278  0.1089  0.5066
12201SOL     OW39494   1.985   5.706   3.659  0.2787  0.0397 -0.0252
12201SOL    HW139495   1.975   5.647   3.734  1.5947 -0.7101 -0.4102
12201SOL    HW239496   1.953   5.654   3.584 -0.1854  0.4600 -0.1240
12202SOL     OW39497   3.441   2.740   8.851 -0.2674  0.1466 -0.2648
12202SOL    HW139498   3.371   2.703   8.797 -0.4769 -2.1780  1.4106
12202SOL    HW239499   3.506   2.670   8.856  1.2293  1.5022 -0.0939
12203SOL     OW39500   0.972   2.447   1.183  0.0093  0.6672  0.3552
12203SOL    HW139501   1.061   2.483   1.184  0.0538  0.5575  0.3074
12203SOL    HW239502   0.957   2.422   1.092 -0.1103  0.7838  0.3422
12204SOL     OW39503   6.649   3.105   3.237 -0.9570  0.1886 -0.1337
12204SOL    HW139504   6.669   3.031   3.179 -0.3937  1.2350 -1.3152
12204SOL    HW239505   6.633   3.064   3.322 -0.2142 -1.2584 -0.6428
12205SOL     OW39506   4.321   7.329   8.545  0.0781 -0.2160 -0.1767
12205SOL    HW139507   4.385   7.295   8.607 -0.5784  0.1282  0.7199
12205SOL    HW239508   4.288   7.252   8.500  1.9178 -0.3067 -1.4927
12206SOL     OW39509   3.314   3.546   2.709  0.2477  0.0242 -0.6831
12206SOL    HW139510   3.239   3.595   2.743  0.2330 -0.2965 -0.2383
12206SOL    HW239511   3.286   3.516   2.623  0.1423  0.5338 -0.8295
12207SOL     OW39512   6.274   7.766   5.928 -0.5497 -0.1487  0.0800
12207SOL    HW139513   6.338   7.756   5.998 -1.1792 -0.4392  0.6223
12207SOL    HW239514   6.243   7.856   5.937 -0.4270 -0.0980 -0.0037
12208SOL     OW39515   6.393   2.043   3.289 -0.1550  0.2658  0.0184
12208SOL    HW139516   6.298   2.044   3.277 -0.1434 -1.9465 -0.7987
12208SOL    HW239517   6.426   1.994   3.214  1.3016 -1.6932  1.8162
12209SOL     OW39518   0.305   8.213   3.247 -0.5234 -0.0783  0.0764
12209SOL    HW139519   0.293   8.282   3.312  0.4924  0.4123 -0.2452
12209SOL    HW239520   0.244   8.144   3.274 -0.3210  0.2313  1.3854
12210SOL     OW39521   6.557   0.326   3.705  0.4043  0.0570  0.5316
12210SOL    HW139522   6.578   0.254   3.765 -0.3639  0.0643  0.8264
12210SOL    HW239523   6.612   0.398   3.733  0.9291 -0.3029  0.4545
12211SOL     OW39524   5.574   5.325   0.109  0.0251 -0.1432  0.9275
12211SOL    HW139525   5.501   5.263   0.119  1.5071 -2.0843  0.2003
12211SOL    HW239526   5.549   5.400   0.164 -1.6976 -1.4935  2.0999
12212SOL     OW39527   6.339   6.297   3.107  0.0151  0.1887  0.3668
12212SOL    HW139528   6.360   6.366   3.043  0.6969  0.6397  1.0536
12212SOL    HW239529   6.251   6.318   3.137  0.5143  1.2353  1.1510
12213SOL     OW39530   6.972   1.990   1.077  0.2090  0.3005  0.5720
12213SOL    HW139531   7.042   2.034   1.029 -0.1306  0.9866  0.6950
12213SOL    HW239532   6.892   2.011   1.028  0.1966 -1.3520 -0.1825
12214SOL     OW39533   7.168   1.405   3.584  0.1629  0.1734 -0.7178
12214SOL    HW139534   7.153   1.469   3.654  2.0591 -1.5756  1.4249
12214SOL    HW239535   7.089   1.352   3.583 -0.4070  1.0088 -0.8088
12215SOL     OW39536   6.530   6.159   2.435  0.0503 -0.8928  0.0505
12215SOL    HW139537   6.547   6.135   2.526  1.1694  0.5811  0.2634
12215SOL    HW239538   6.509   6.252   2.438 -1.4258 -1.1438 -1.0511
12216SOL     OW39539   6.451   5.552   9.005 -0.6551  0.3348  0.9051
12216SOL    HW139540   6.382   5.606   8.967 -1.0101 -0.9683 -0.3728
12216SOL    HW239541   6.532   5.599   8.985 -1.0927  1.6689  2.0588
12217SOL     OW39542   8.801   7.805   2.685  0.2593 -0.2676 -0.0577
12217SOL    HW139543   8.868   7.779   2.622  0.3830 -1.0735  0.3952
12217SOL    HW239544   8.734   7.737   2.678 -0.8696  0.9006 -1.0229
12218SOL     OW39545   7.635   4.007   2.858  0.4560 -0.6533 -0.6486
12218SOL    HW139546   7.642   4.096   2.824 -1.1713  0.4893  1.7545
12218SOL    HW239547   7.593   3.957   2.787 -2.1984  1.4466 -0.7200
12219SOL     OW39548   3.096   1.379   9.015 -0.0914 -0.2021  0.2152
12219SOL    HW139549   3.086   1.397   8.921 -1.2794  0.5308  0.4607
12219SOL    HW239550   3.042   1.445   9.057 -1.3284 -1.8876  1.3595
12220SOL     OW39551   8.543   3.151   5.736 -0.1672 -0.5389  0.3543
12220SOL    HW139552   8.470   3.210   5.715  0.1164 -0.4360 -0.3489
12220SOL    HW239553   8.568   3.176   5.825  0.4683  0.9581 -0.2052
12221SOL     OW39554   1.010   4.420   2.323  0.8036 -0.1951 -0.2735
12221SOL    HW139555   0.932   4.401   2.374 -0.6730  0.1389 -2.2899
12221SOL    HW239556   1.056   4.487   2.373  0.9604 -1.8788  1.9987
12222SOL     OW39557   8.479   3.232   3.183  0.3383 -0.3965  0.2071
12222SOL    HW139558   8.394   3.273   3.196  0.5306 -0.4144  1.7975
12222SOL    HW239559   8.461   3.138   3.191  0.5257 -0.3871  0.8669
12223SOL     OW39560   8.141   6.170   7.786 -0.3593 -0.3420  0.4289
12223SOL    HW139561   8.206   6.239   7.799  0.4452 -1.1834  0.9344
12223SOL    HW239562   8.083   6.205   7.718  1.1024  0.0700 -0.6434
12224SOL     OW39563   2.719   4.919   3.428  0.1901  0.0892  0.3044
12224SOL    HW139564   2.779   4.989   3.402  0.1936  0.5802  1.5929
12224SOL    HW239565   2.633   4.960   3.426  0.1697  0.0780  0.8534
12225SOL     OW39566   2.205   8.252   0.228 -0.4346 -0.4821  0.0881
12225SOL    HW139567   2.156   8.187   0.177  0.6947 -0.9687 -0.4079
12225SOL    HW239568   2.269   8.287   0.166  0.0219 -0.0489  0.7981
12226SOL     OW39569   0.000   4.786   4.986  0.3625 -0.2917 -0.7394
12226SOL    HW139570   0.084   4.770   4.942  0.0665 -1.5220 -0.9040
12226SOL    HW239571  -0.010   4.881   4.985  1.4055 -0.1707 -1.3756
12227SOL     OW39572   0.559   0.496   2.152 -0.3176  0.6060 -0.4742
12227SOL    HW139573   0.627   0.502   2.085 -0.4854  1.7134 -0.5663
12227SOL    HW239574   0.483   0.462   2.106  0.6199 -2.4495  0.0079
12228SOL     OW39575   4.574   7.691   5.653  0.1785  0.4353 -0.2985
12228SOL    HW139576   4.623   7.759   5.607 -0.8112  0.6339 -1.0914
12228SOL    HW239577   4.572   7.618   5.591 -2.0530  1.0655 -1.0691
12229SOL     OW39578   5.040   0.498   0.378  0.5341 -0.1065  0.2104
12229SOL    HW139579   5.044   0.408   0.411 -1.3162  0.2360  1.5016
12229SOL    HW239580   4.947   0.516   0.368  0.8321  1.8942  0.5725
12230SOL     OW39581   1.702   3.520   4.522 -0.9447 -0.0157  0.2707
12230SOL    HW139582   1.775   3.582   4.526  0.2816 -1.3553 -0.1863
12230SOL    HW239583   1.730   3.446   4.576 -2.1036 -0.4425  0.3234
12231SOL     OW39584   0.746   9.137   3.599  0.5815 -0.0139  0.0658
12231SOL    HW139585   0.837   9.122   3.623  0.2989 -0.9693  0.5862
12231SOL    HW239586   0.695   9.098   3.670 -0.2390 -0.2434 -0.6246
12232SOL     OW39587   9.126   8.044   5.783 -0.3217 -0.0082 -0.5585
12232SOL    HW139588   9.057   8.041   5.716 -2.5206 -1.7463  1.6105
12232SOL    HW239589   9.200   8.001   5.742 -1.2901 -0.2408 -2.1808
12233SOL     OW39590   7.342   1.362   4.642  0.2261 -0.6601  0.4368
12233SOL    HW139591   7.300   1.434   4.596  0.6575  0.7251  2.1016
12233SOL    HW239592   7.436   1.377   4.630  0.3653 -0.0424  2.0099
12234SOL     OW39593   6.097   4.979   1.154 -0.0103  0.1772  0.3420
12234SOL    HW139594   6.092   4.979   1.058  1.0469 -0.8934  0.2619
12234SOL    HW239595   6.028   4.918   1.181 -0.3037  0.4730  0.2574
12235SOL     OW39596   4.456   4.477   0.706  0.0702  0.7640 -0.4943
12235SOL    HW139597   4.539   4.508   0.668 -0.9156  0.9670 -2.6430
12235SOL    HW239598   4.423   4.414   0.642 -0.5905 -0.7032  1.2066
12236SOL     OW39599   6.471   8.304   8.424  0.1152  0.1406  0.2857
12236SOL    HW139600   6.512   8.384   8.392 -0.5220 -0.0630 -1.1345
12236SOL    HW239601   6.544   8.247   8.447  0.5754  0.9311  0.8310
12237SOL     OW39602   3.820   7.363   8.601 -0.3047 -0.1003  0.0912
12237SOL    HW139603   3.787   7.434   8.546 -2.1132 -0.9661 -0.0353
12237SOL    HW239604   3.876   7.312   8.544 -0.5825  0.1295 -0.3924
12238SOL     OW39605   7.904   7.410   8.169  0.0362 -0.0178 -0.0155
12238SOL    HW139606   7.871   7.445   8.252 -0.9734 -0.1050 -0.3694
12238SOL    HW239607   7.830   7.362   8.132  1.2965 -2.4023  0.3598
12239SOL     OW39608   4.067   0.410   1.484  0.1529  0.1094  0.4978
12239SOL    HW139609   4.061   0.314   1.477 -0.1128  0.1452  0.2010
12239SOL    HW239610   4.125   0.435   1.412 -1.5797  0.3657 -0.9124
12240SOL     OW39611   6.186   8.411   8.186  1.0220  0.1878 -0.1356
12240SOL    HW139612   6.113   8.451   8.139  0.1378 -0.6985  0.4616
12240SOL    HW239613   6.264   8.449   8.145  0.2841 -0.4140 -2.2021
12241SOL     OW39614   7.411   1.195   7.853 -0.3621  0.2084  0.3582
12241SOL    HW139615   7.387   1.166   7.942  0.4626  1.2284  0.9390
12241SOL    HW239616   7.506   1.201   7.855 -0.4087  1.4328 -0.2074
12242SOL     OW39617   4.650   2.505   5.460 -0.1710 -0.1694  0.0789
12242SOL    HW139618   4.684   2.422   5.426  1.9072  0.0474  1.4697
12242SOL    HW239619   4.676   2.570   5.394  1.3964 -0.1477  0.6775
12243SOL     OW39620   6.318   5.648   0.289  0.0767 -0.0767 -0.6059
12243SOL    HW139621   6.341   5.591   0.215  0.0074 -0.4485 -0.3440
12243SOL    HW239622   6.236   5.612   0.323  0.5784 -0.4762  0.2225
12244SOL     OW39623   4.472   1.092   5.391  0.8217 -0.1540 -0.1025
12244SOL    HW139624   4.529   1.107   5.466 -0.2416  0.3102  0.6271
12244SOL    HW239625   4.399   1.040   5.426  1.1179 -1.3398 -1.1664
12245SOL     OW39626   1.230   3.910   1.919 -0.0837 -0.0767 -0.2934
12245SOL    HW139627   1.258   3.840   1.862 -0.3484  1.0281 -1.8343
12245SOL    HW239628   1.308   3.963   1.934 -0.0050 -0.3765  0.4412
12246SOL     OW39629   5.926   1.057   8.582 -0.5533 -0.4219  0.4356
12246SOL    HW139630   5.903   1.150   8.581 -0.8658 -0.4571  2.1974
12246SOL    HW239631   5.921   1.031   8.490  2.1232  1.8898 -0.5191
12247SOL     OW39632   7.292   6.727   6.844  0.7336  0.0511  0.1951
12247SOL    HW139633   7.316   6.730   6.937  2.1611  1.5786 -0.1760
12247SOL    HW239634   7.373   6.702   6.799 -0.0538 -1.1309 -0.6358
12248SOL     OW39635   3.084   7.288   5.127  0.3430 -0.3002 -0.4968
12248SOL    HW139636   2.994   7.267   5.153  1.1443 -1.0853  1.8924
12248SOL    HW239637   3.091   7.383   5.141  0.2506 -0.4449  0.6289
12249SOL     OW39638   6.029   0.034   8.005  0.5205 -0.0158  0.6086
12249SOL    HW139639   6.073   0.099   7.950 -3.6419  1.2166 -1.6641
12249SOL    HW239640   6.039  -0.048   7.958 -1.0805  0.6090 -0.8891
12250SOL     OW39641   5.971   5.878   4.553 -0.2062  0.5808 -0.6466
12250SOL    HW139642   5.997   5.861   4.644 -3.8690 -0.3664  0.3806
12250SOL    HW239643   5.879   5.905   4.559  0.2661  3.5451 -3.8777
12251SOL     OW39644   6.677   4.159   2.447  0.1972 -0.5792 -0.3924
12251SOL    HW139645   6.675   4.214   2.369  1.9303  0.1634  0.0483
12251SOL    HW239646   6.608   4.094   2.432 -2.3372  1.9933 -0.6598
12252SOL     OW39647   2.536   9.134   3.465 -0.4220 -0.4418  0.2418
12252SOL    HW139648   2.587   9.056   3.444  2.3573  1.3196 -0.1144
12252SOL    HW239649   2.562   9.198   3.399 -1.4678  1.2421  1.3861
12253SOL     OW39650   8.661   4.673   9.197  0.0621  0.0258 -0.7745
12253SOL    HW139651   8.663   4.669   9.292 -1.6226 -2.3894 -0.7451
12253SOL    HW239652   8.569   4.686   9.175  0.6066  2.2452 -2.1290
12254SOL     OW39653   4.176   3.547   2.052 -0.1283  0.1404  0.1118
12254SOL    HW139654   4.167   3.637   2.081 -0.9287 -0.1214  0.6954
12254SOL    HW239655   4.253   3.548   1.995 -2.1905  1.9595 -2.9187
12255SOL     OW39656   9.104   7.494   6.889 -0.3207 -0.4474  0.3794
12255SOL    HW139657   9.092   7.410   6.935 -0.3336 -0.0474  1.1293
12255SOL    HW239658   9.106   7.470   6.797 -1.8974 -1.1163  0.4740
12256SOL     OW39659   0.116   7.410   0.112 -0.2222  0.8567 -0.1150
12256SOL    HW139660   0.043   7.453   0.155  0.0344  1.1516  0.0261
12256SOL    HW239661   0.172   7.380   0.184 -1.6795 -2.0763 -0.0391
12257SOL     OW39662   6.041   4.720   1.598  0.2541 -0.3356 -0.2358
12257SOL    HW139663   6.017   4.738   1.689 -0.0747 -0.6579 -0.2595
12257SOL    HW239664   5.957   4.710   1.553  0.4112  0.1609 -0.6423
12258SOL     OW39665   0.254   7.298   5.603 -0.2460  0.4210 -0.3290
12258SOL    HW139666   0.349   7.294   5.610 -0.2446 -0.4584 -0.7667
12258SOL    HW239667   0.230   7.378   5.650  0.6566  0.3357  0.3048
12259SOL     OW39668   2.910   0.519   6.003 -0.3950 -0.6912  0.4332
12259SOL    HW139669   2.928   0.567   6.084 -0.4798  1.0673 -0.5506
12259SOL    HW239670   2.996   0.486   5.976 -0.1002  0.0399  0.4497
12260SOL     OW39671   8.599   8.208   4.587 -0.0586 -0.1784  0.0718
12260SOL    HW139672   8.658   8.183   4.658 -0.4501  0.9914  0.8484
12260SOL    HW239673   8.594   8.131   4.531  0.3961 -1.0777  1.2288
12261SOL     OW39674   5.513   2.482   1.060  0.6511 -0.2615 -0.0887
12261SOL    HW139675   5.422   2.510   1.074  0.4919  0.5387 -2.2513
12261SOL    HW239676   5.549   2.547   0.999  1.8277 -1.9997 -1.3551
12262SOL     OW39677   0.014   1.872   2.099 -0.0908 -0.0118  0.5743
12262SOL    HW139678  -0.025   1.785   2.099 -0.3396  0.0198 -1.9997
12262SOL    HW239679   0.107   1.858   2.083  0.1537  0.1524  1.7536
12263SOL     OW39680   3.734   0.959   7.958  0.3120  0.3095 -0.8186
12263SOL    HW139681   3.717   0.908   8.038  0.2268 -0.0855 -1.0848
12263SOL    HW239682   3.648   0.995   7.935  0.5167  1.2387 -0.1892
12264SOL     OW39683   4.696   3.116   0.289  0.5012 -0.4051  0.1824
12264SOL    HW139684   4.640   3.078   0.221  1.8791  0.6808 -1.6588
12264SOL    HW239685   4.771   3.058   0.292  0.6851 -0.1551  0.3875
12265SOL     OW39686   6.626   1.754   7.776 -0.2278 -0.2868  0.0048
12265SOL    HW139687   6.607   1.707   7.694  0.6994  0.5041 -0.6869
12265SOL    HW239688   6.668   1.689   7.832 -2.3428 -1.3029  0.5220
12266SOL     OW39689   3.858   3.653   3.791 -0.4413 -0.5734  0.4534
12266SOL    HW139690   3.821   3.733   3.753 -0.6105 -1.1173 -0.5771
12266SOL    HW239691   3.821   3.582   3.737  2.3714 -1.1396 -0.9047
12267SOL     OW39692   1.405   0.530   3.307 -0.1013 -0.1705 -0.2405
12267SOL    HW139693   1.344   0.518   3.235  1.1171 -1.6829 -1.0789
12267SOL    HW239694   1.487   0.555   3.266  0.6216 -1.0777  0.5797
12268SOL     OW39695   9.042   1.445   8.634 -0.0605  0.1950  0.2174
12268SOL    HW139696   9.050   1.435   8.540  0.2904 -0.8687  0.3450
12268SOL    HW239697   8.967   1.390   8.658 -0.0071  0.2752  0.5846
12269SOL     OW39698   5.168   3.507   2.917  0.3570  0.2986  0.3692
12269SOL    HW139699   5.078   3.480   2.900 -0.0189  1.5752  0.2163
12269SOL    HW239700   5.199   3.447   2.985 -0.7514  0.1157  0.7329
12270SOL     OW39701   0.681   9.136   1.508 -0.0311  0.2622  0.5286
12270SOL    HW139702   0.710   9.052   1.543 -0.1001 -0.7792 -1.7379
12270SOL    HW239703   0.586   9.134   1.516 -0.4588 -1.6839 -2.9360
12271SOL     OW39704   6.421   7.029   0.410  0.6912  0.6639 -0.5459
12271SOL    HW139705   6.372   7.082   0.347 -0.8096  0.4034  0.3515
12271SOL    HW239706   6.441   6.948   0.363 -0.1729  0.5844 -0.7913
12272SOL     OW39707   8.962   7.215   4.836 -0.0004  0.2243  0.0876
12272SOL    HW139708   8.954   7.129   4.877 -2.3215  0.0688 -0.5129
12272SOL    HW239709   8.900   7.270   4.885  0.6966  1.2753 -0.1935
12273SOL     OW39710   1.162   5.227   5.889  0.4709  0.4259 -0.0417
12273SOL    HW139711   1.212   5.204   5.810  1.1331  1.4440  0.0577
12273SOL    HW239712   1.159   5.146   5.940 -0.7944 -0.5014 -1.5343
12274SOL     OW39713   2.322   1.356   7.058  0.1912  0.1319  0.6589
12274SOL    HW139714   2.285   1.318   7.137  2.8632 -0.0435  1.9429
12274SOL    HW239715   2.369   1.434   7.088  1.2433  0.0860 -0.7516
12275SOL     OW39716   8.950   7.183   1.682  0.2227 -0.1601  0.1752
12275SOL    HW139717   8.931   7.132   1.603 -0.1353 -1.7536  1.2385
12275SOL    HW239718   9.030   7.230   1.661  1.1155 -1.9110 -0.5563
12276SOL     OW39719   4.253   5.120   0.285 -0.4840 -0.3609  0.2796
12276SOL    HW139720   4.214   5.193   0.238  0.8282  1.0597  1.3113
12276SOL    HW239721   4.257   5.049   0.221  1.8840  1.6842 -2.0737
12277SOL     OW39722   6.322   8.857   5.838 -0.1276  0.1062  0.3060
12277SOL    HW139723   6.413   8.868   5.864 -0.1545  2.0774 -0.2799
12277SOL    HW239724   6.303   8.934   5.784 -1.9782 -0.5452 -0.0378
12278SOL     OW39725   8.332   7.874   5.508 -0.0825  0.6616 -0.3617
12278SOL    HW139726   8.392   7.907   5.575  0.5537 -0.4283 -0.3725
12278SOL    HW239727   8.389   7.831   5.445 -0.9348 -1.4292  0.2320
12279SOL     OW39728   4.676   0.194   2.311  0.6235 -0.0770  0.2546
12279SOL    HW139729   4.710   0.112   2.276 -0.2469 -0.4813  0.3469
12279SOL    HW239730   4.586   0.199   2.280  0.3176  0.3016  1.1605
12280SOL     OW39731   1.091   1.644   0.116 -0.0483 -0.1467  0.1974
12280SOL    HW139732   1.074   1.612   0.205 -0.7004 -1.3214 -0.3239
12280SOL    HW239733   1.014   1.696   0.094  0.6421  1.1688  0.7312
12281SOL     OW39734   0.301   7.562   8.868 -0.1912  0.0231  0.2646
12281SOL    HW139735   0.373   7.501   8.853 -1.8126 -1.6038 -1.5127
12281SOL    HW239736   0.246   7.519   8.933 -0.1587  0.7053  0.7531
12282SOL     OW39737   6.688   7.415   0.619 -0.3542  0.5228 -0.0361
12282SOL    HW139738   6.767   7.461   0.648 -1.0879  1.9514 -0.2375
12282SOL    HW239739   6.679   7.342   0.681  1.5905 -0.2075 -0.5311
12283SOL     OW39740   1.800   7.413   2.605 -0.0722 -0.3739 -0.4182
12283SOL    HW139741   1.744   7.474   2.653  1.3989  0.2818  0.5442
12283SOL    HW239742   1.826   7.461   2.526 -0.2971 -0.4179 -0.5202
12284SOL     OW39743   5.306   6.083   4.184 -1.3622  0.1072 -0.3486
12284SOL    HW139744   5.368   6.011   4.197  0.3747  1.5073 -0.4969
12284SOL    HW239745   5.220   6.043   4.197 -0.4177 -1.7782  0.5253
12285SOL     OW39746   7.316   2.616   2.473  0.2303  0.3902  0.3173
12285SOL    HW139747   7.226   2.644   2.455  0.8393  1.0253 -2.1788
12285SOL    HW239748   7.310   2.521   2.483 -0.7974  0.5010  0.9101
12286SOL     OW39749   1.316   6.675   2.887  0.2658  0.2963 -0.0050
12286SOL    HW139750   1.374   6.645   2.816 -0.9731 -1.2099 -0.4407
12286SOL    HW239751   1.354   6.637   2.966  0.0850 -0.3988 -0.2434
12287SOL     OW39752   2.034   1.994   8.846 -0.4134  0.6430  0.2705
12287SOL    HW139753   2.092   1.932   8.890 -0.3460 -1.9835 -3.1155
12287SOL    HW239754   1.954   1.993   8.899  0.0086 -1.4971  0.9890
12288SOL     OW39755   0.051   0.736   3.612  0.6192  0.7564  0.5212
12288SOL    HW139756   0.028   0.826   3.632 -0.0880  0.7646 -0.2777
12288SOL    HW239757  -0.023   0.684   3.646  0.3998  0.5963 -0.1945
12289SOL     OW39758   1.871   2.498   0.527  0.0186  0.5948  0.4382
12289SOL    HW139759   1.842   2.500   0.436 -0.0882 -0.5149  0.4346
12289SOL    HW239760   1.848   2.585   0.561 -2.8285  0.0060  0.2777
12290SOL     OW39761   2.489   0.502   5.594 -0.3514 -0.2210  0.1153
12290SOL    HW139762   2.402   0.516   5.632 -0.2622  0.2585  0.1469
12290SOL    HW239763   2.480   0.532   5.503  0.0489  0.7808  0.3960
12291SOL     OW39764   5.060   7.976   5.546 -0.0393  0.0368 -0.0343
12291SOL    HW139765   5.031   7.929   5.467 -0.1899  0.8904 -0.4929
12291SOL    HW239766   4.999   8.049   5.555  1.1649  1.1120 -0.2720
12292SOL     OW39767   1.772   7.273   1.309  0.1032  0.2643 -0.4882
12292SOL    HW139768   1.795   7.198   1.363 -2.2787 -0.4697 -0.4165
12292SOL    HW239769   1.784   7.242   1.219 -1.9978 -0.6778 -0.5019
12293SOL     OW39770   7.257   6.342   3.911 -0.1280 -0.1775 -0.9186
12293SOL    HW139771   7.314   6.359   3.986 -0.2020 -1.0705 -0.6566
12293SOL    HW239772   7.169   6.365   3.941  0.0352  0.9584 -1.2430
12294SOL     OW39773   0.559   2.662   3.350 -0.0008 -0.0264  0.6123
12294SOL    HW139774   0.603   2.620   3.276  0.7789  2.5895 -0.5165
12294SOL    HW239775   0.621   2.654   3.423  1.0688  1.0037 -0.1648
12295SOL     OW39776   1.444   1.346   6.246  0.0669 -0.0839  0.0628
12295SOL    HW139777   1.388   1.274   6.217  0.0922 -0.1296  0.1288
12295SOL    HW239778   1.529   1.306   6.263  0.3701  0.1347 -0.8808
12296SOL     OW39779   7.032   8.572   0.189  0.2467 -0.3360  0.0018
12296SOL    HW139780   7.039   8.664   0.166 -0.9177 -0.1688  0.2826
12296SOL    HW239781   6.966   8.536   0.129 -2.4487 -0.0062  2.5365
12297SOL     OW39782   8.148   2.422   3.843 -0.4087 -0.0349  0.1366
12297SOL    HW139783   8.134   2.500   3.896  0.0327 -1.6706  2.8164
12297SOL    HW239784   8.072   2.367   3.862 -0.9524 -0.1444 -2.0810
12298SOL     OW39785   6.933   3.894   3.796 -0.0273  0.8392  0.0118
12298SOL    HW139786   6.983   3.813   3.788 -0.6814  0.3532  0.6890
12298SOL    HW239787   7.000   3.962   3.806  0.5108  0.2125  0.8267
12299SOL     OW39788   7.341   7.579   1.145 -0.5928 -0.5140 -0.0225
12299SOL    HW139789   7.279   7.584   1.217 -0.5362  1.4529 -0.0515
12299SOL    HW239790   7.410   7.521   1.176 -0.0362  1.0937  1.9653
12300SOL     OW39791   1.737   2.457   1.833 -0.4581  0.3615 -0.2658
12300SOL    HW139792   1.663   2.452   1.773 -1.8457  0.3137  1.3931
12300SOL    HW239793   1.743   2.549   1.857  1.4047  0.7729 -1.9683
12301SOL     OW39794   4.269   8.208   8.900  0.1733  0.0664 -0.0346
12301SOL    HW139795   4.176   8.230   8.895  0.2389  0.3454 -0.0565
12301SOL    HW239796   4.277   8.151   8.976  0.2655  1.5063  1.0809
12302SOL     OW39797   2.205   6.233   4.280 -0.4446 -0.1057 -0.0215
12302SOL    HW139798   2.300   6.228   4.271 -0.2666  0.5411  1.2547
12302SOL    HW239799   2.189   6.219   4.373 -1.3325  2.9726  0.4103
12303SOL     OW39800   2.296   5.085   0.752 -0.6909  0.2198  0.3748
12303SOL    HW139801   2.258   5.021   0.811 -1.3201 -0.5968 -0.8674
12303SOL    HW239802   2.373   5.118   0.798 -0.8130 -0.8391  1.3742
12304SOL     OW39803   3.479   7.362   6.167  0.3020  0.0887  0.3097
12304SOL    HW139804   3.450   7.351   6.258 -0.6099 -0.5857 -0.0462
12304SOL    HW239805   3.574   7.346   6.171  0.3967  0.7378  1.2363
12305SOL     OW39806   8.912   8.020   5.630 -0.4363 -0.1345  0.1824
12305SOL    HW139807   8.893   7.951   5.566 -2.7083  0.6584 -0.0726
12305SOL    HW239808   8.828   8.037   5.672  0.4571  1.2866  1.4662
12306SOL     OW39809   4.460   1.374   3.791  0.0264 -0.1312  0.0402
12306SOL    HW139810   4.478   1.422   3.872  1.4425 -0.4128 -0.0935
12306SOL    HW239811   4.543   1.333   3.768 -0.4522 -0.3548 -1.3697
12307SOL     OW39812   0.730   1.747   5.886 -0.3187 -0.1650 -0.3087
12307SOL    HW139813   0.764   1.778   5.970  0.2811  1.5391 -1.1428
12307SOL    HW239814   0.808   1.738   5.831 -0.6763 -1.5504 -0.6233
12308SOL     OW39815   5.177   0.215   5.037  0.3446 -0.3963  0.3687
12308SOL    HW139816   5.100   0.272   5.032 -0.0871 -1.0773 -1.4430
12308SOL    HW239817   5.142   0.127   5.048  0.8282 -0.7826 -1.0487
12309SOL     OW39818   4.521   4.230   8.051  0.1499 -0.1005 -0.4863
12309SOL    HW139819   4.429   4.257   8.055 -0.4605 -2.0671 -0.0503
12309SOL    HW239820   4.531   4.191   7.965  0.3964 -0.4815 -0.2872
12310SOL     OW39821   1.773   8.267   2.833 -0.0369 -0.0453  0.0873
12310SOL    HW139822   1.831   8.256   2.908  0.2390  0.1149 -0.1041
12310SOL    HW239823   1.809   8.342   2.784 -1.1934  0.9734  0.7240
12311SOL     OW39824   4.351   4.165   3.265 -0.1769 -0.2762  0.0129
12311SOL    HW139825   4.352   4.119   3.349  1.6320 -0.6488 -0.1702
12311SOL    HW239826   4.348   4.096   3.200  1.5555 -0.1320 -0.2516
12312SOL     OW39827   7.089   7.226   2.361  0.1113  0.2431 -0.1523
12312SOL    HW139828   7.108   7.241   2.269  0.4843 -1.2005 -0.3326
12312SOL    HW239829   7.018   7.161   2.361 -0.7213  1.1104  0.5786
12313SOL     OW39830   6.981   5.607   7.823 -0.2580  0.0955  0.2583
12313SOL    HW139831   7.024   5.563   7.750 -0.2102 -0.4224  0.5943
12313SOL    HW239832   6.891   5.619   7.794  0.0008  0.8165 -0.2857
12314SOL     OW39833   9.047   0.589   2.593  0.5254 -0.2429 -0.7418
12314SOL    HW139834   8.966   0.634   2.572  0.9593  0.6559 -0.5375
12314SOL    HW239835   9.029   0.547   2.677  0.3825  0.2613 -0.5126
12315SOL     OW39836   6.186   5.500   9.152 -0.0707  0.1247  0.1212
12315SOL    HW139837   6.120   5.439   9.120  0.9432 -1.3030  0.6626
12315SOL    HW239838   6.175   5.578   9.097 -1.6275 -0.3867 -0.3485
12316SOL     OW39839   7.303   8.722   7.251  0.3599  0.3157  0.1396
12316SOL    HW139840   7.314   8.817   7.256  0.1045  0.3221  0.5924
12316SOL    HW239841   7.255   8.699   7.331 -0.2789 -0.0948 -0.3520
12317SOL     OW39842   0.436   8.283   0.470 -0.2909  0.4797  0.7423
12317SOL    HW139843   0.470   8.242   0.390 -1.1555  0.7712  0.2029
12317SOL    HW239844   0.479   8.368   0.473 -2.0869  1.5421 -0.8404
12318SOL     OW39845   8.381   8.092   3.446  0.3875 -0.0883 -0.2758
12318SOL    HW139846   8.295   8.134   3.441  0.7870  0.6968 -0.6329
12318SOL    HW239847   8.362   8.003   3.477 -0.6459 -0.2172 -1.2177
12319SOL     OW39848   3.223   1.848   2.478  0.7923 -0.1920 -0.8770
12319SOL    HW139849   3.301   1.904   2.480 -0.4099  1.5868 -1.2241
12319SOL    HW239850   3.256   1.760   2.495  3.0603  0.2736 -2.4244
12320SOL     OW39851   8.848   1.332   4.271 -0.3130  0.2497  0.0212
12320SOL    HW139852   8.821   1.354   4.360 -1.2639 -1.3705  0.1680
12320SOL    HW239853   8.789   1.262   4.244  1.6598 -1.1866 -0.8745
12321SOL     OW39854   7.969   0.446   8.222  0.1392 -0.4641  0.2195
12321SOL    HW139855   7.960   0.388   8.146  0.8310  0.5720 -0.6926
12321SOL    HW239856   8.055   0.424   8.259  0.5273  0.1372 -0.2947
12322SOL     OW39857   6.040   6.524   4.456 -0.4706  0.1345  0.2142
12322SOL    HW139858   5.997   6.495   4.375 -0.3430 -2.4787  0.9694
12322SOL    HW239859   6.034   6.619   4.454 -4.6568  0.0271 -0.6100
12323SOL     OW39860   2.101   5.048   6.249  0.3060 -0.3572  0.1781
12323SOL    HW139861   2.054   4.976   6.207 -1.2787 -0.0418  1.3541
12323SOL    HW239862   2.152   5.006   6.318 -0.8325 -0.3473  1.0458
12324SOL     OW39863   5.117   5.150   8.784  0.6463 -0.0222  0.6077
12324SOL    HW139864   5.138   5.116   8.871  1.1477 -3.8828 -0.8350
12324SOL    HW239865   5.166   5.093   8.724 -0.8428  1.5378 -2.2748
12325SOL     OW39866   4.824   6.997   5.724  0.0011  0.3975  0.4388
12325SOL    HW139867   4.847   7.015   5.815  1.0196  0.3584  0.2014
12325SOL    HW239868   4.757   7.062   5.703 -2.0477 -1.0978  1.9132
12326SOL     OW39869   7.187   4.209   0.955 -0.9844  0.4369  0.2009
12326SOL    HW139870   7.124   4.137   0.959 -1.7821  1.0485 -0.9829
12326SOL    HW239871   7.244   4.188   0.881 -1.1442  0.9520 -0.0726
12327SOL     OW39872   7.121   5.696   1.870  0.0430 -0.2033 -0.7755
12327SOL    HW139873   7.107   5.730   1.782  0.2566  0.0735 -0.7035
12327SOL    HW239874   7.034   5.698   1.910 -0.1745 -0.9776 -1.2038
12328SOL     OW39875   6.055   1.193   5.505  0.6413  0.6165  0.1452
12328SOL    HW139876   6.020   1.142   5.578  0.8924  0.1003 -0.0894
12328SOL    HW239877   6.140   1.224   5.536  0.1193  1.6112  0.6011
12329SOL     OW39878   7.905   2.838   4.735  0.2343 -0.3312 -0.0772
12329SOL    HW139879   7.981   2.831   4.793  0.0391 -0.8557  0.1232
12329SOL    HW239880   7.941   2.855   4.649  0.7013 -2.3918 -0.3444
12330SOL     OW39881   0.614   2.270   0.114  0.1537 -0.1129  0.8230
12330SOL    HW139882   0.549   2.202   0.099 -0.9089  1.3329 -1.8044
12330SOL    HW239883   0.573   2.331   0.176 -0.0772 -0.3564  0.9070
12331SOL     OW39884   8.735   4.484   0.241 -0.2247 -0.1024  0.5998
12331SOL    HW139885   8.792   4.422   0.197  0.1249  0.5768  0.0865
12331SOL    HW239886   8.767   4.487   0.331  0.1139 -0.2369  0.4838
12332SOL     OW39887   3.745   8.562   4.358  0.2244 -0.9823  0.3629
12332SOL    HW139888   3.802   8.489   4.380  1.6086 -0.8773 -2.4687
12332SOL    HW239889   3.722   8.548   4.266 -0.8845  1.2390  0.2222
12333SOL     OW39890   1.978   2.623   9.141  0.3888 -0.1220 -0.2881
12333SOL    HW139891   1.904   2.580   9.099  1.1779 -0.4965 -1.3654
12333SOL    HW239892   2.022   2.669   9.069 -0.5712  2.7782  0.8425
12334SOL     OW39893   8.649   1.222   4.501  0.2592  0.2864 -0.5025
12334SOL    HW139894   8.665   1.129   4.484  0.2290  0.2111 -0.1230
12334SOL    HW239895   8.616   1.224   4.591  0.0944  0.6474 -0.5739
12335SOL     OW39896   6.651   0.319   0.153  0.1122  0.0138  0.3540
12335SOL    HW139897   6.732   0.357   0.118  0.0733  0.7229  0.9928
12335SOL    HW239898   6.645   0.356   0.241 -1.4034  0.7247 -0.0250
12336SOL     OW39899   8.063   3.329   9.244  0.4293 -0.1346 -0.2209
12336SOL    HW139900   8.121   3.302   9.173  1.3880  0.5903  0.2720
12336SOL    HW239901   8.119   3.333   9.321 -0.6792 -1.3301  0.7001
12337SOL     OW39902   2.692   7.685   2.971  0.2341  0.2941 -0.2328
12337SOL    HW139903   2.622   7.730   2.924  1.4199  2.0912 -0.3709
12337SOL    HW239904   2.652   7.657   3.054 -0.5061  1.8230 -0.0496
12338SOL     OW39905   8.088   4.216   2.950 -0.8116  0.4967 -0.1917
12338SOL    HW139906   8.139   4.247   2.876  4.2789 -0.7094  2.3906
12338SOL    HW239907   8.034   4.290   2.975  0.9502  2.5879 -2.1917
12339SOL     OW39908   3.733   6.793   2.144 -0.2045  0.1364 -0.2247
12339SOL    HW139909   3.809   6.844   2.172 -0.8263 -0.0322  1.9145
12339SOL    HW239910   3.770   6.715   2.104  0.7319  0.7959 -0.6819
12340SOL     OW39911   2.182   6.030   0.184  0.1357 -0.0134 -0.0424
12340SOL    HW139912   2.195   5.974   0.260  0.1394 -0.1072 -0.1122
12340SOL    HW239913   2.268   6.071   0.171 -0.3766  1.6293  1.2828
12341SOL     OW39914   0.785   5.258   4.052  0.7209 -0.6813 -0.1295
12341SOL    HW139915   0.698   5.261   4.012  2.0066  0.6020 -3.1527
12341SOL    HW239916   0.826   5.180   4.013  2.0000  0.5896 -1.4610
12342SOL     OW39917   6.580   8.037   0.526  0.0106  0.5656 -0.0050
12342SOL    HW139918   6.536   7.985   0.593  0.1238 -0.1241 -0.4556
12342SOL    HW239919   6.580   8.126   0.561 -2.9007  0.8554 -0.5193
12343SOL     OW39920   8.932   4.943   6.695  0.5416 -0.0066 -0.6041
12343SOL    HW139921   8.943   5.009   6.764  0.0311  0.1598 -0.6781
12343SOL    HW239922   8.899   4.866   6.741  0.3541  0.0531 -0.6383
12344SOL     OW39923   7.512   8.455   7.711 -0.3256  0.2041 -0.0009
12344SOL    HW139924   7.559   8.477   7.791 -0.7490 -0.0150  0.3150
12344SOL    HW239925   7.500   8.538   7.666 -1.9035  0.6521  1.1694
12345SOL     OW39926   2.630   2.643   1.657  0.5920 -0.2024 -0.0690
12345SOL    HW139927   2.556   2.589   1.686 -0.0672  0.1788 -1.0042
12345SOL    HW239928   2.681   2.658   1.737 -0.1294 -0.7845  0.5201
12346SOL     OW39929   3.502   6.431   7.641 -0.2007  0.0958 -0.3491
12346SOL    HW139930   3.410   6.406   7.627 -0.2807 -0.4219  0.9236
12346SOL    HW239931   3.551   6.350   7.626 -0.1410 -0.0734  0.6964
12347SOL     OW39932   7.163   4.163   7.231 -0.2286  0.3537  0.4447
12347SOL    HW139933   7.187   4.078   7.268  0.1653  0.7601  1.1587
12347SOL    HW239934   7.079   4.183   7.271 -0.2209  0.3920  0.4414
12348SOL     OW39935   7.297   0.952   7.099 -0.2416 -0.1555 -0.0302
12348SOL    HW139936   7.204   0.972   7.092 -0.0868  0.9535  0.7495
12348SOL    HW239937   7.333   0.974   7.013 -0.3851  1.3564  0.2610
12349SOL     OW39938   4.448   7.798   8.287  0.4858 -0.3131 -0.2133
12349SOL    HW139939   4.424   7.726   8.230 -0.4763 -2.0855  2.2304
12349SOL    HW239940   4.364   7.839   8.310  0.7070 -0.4479  0.8848
12350SOL     OW39941   1.126   1.432   3.892 -0.1825  0.6725 -0.3699
12350SOL    HW139942   1.122   1.368   3.963 -0.1366  1.2465  0.1621
12350SOL    HW239943   1.204   1.409   3.842 -1.3093 -0.9883 -1.4592
12351SOL     OW39944   2.513   5.367   1.527  0.0350  0.4248  0.5093
12351SOL    HW139945   2.496   5.461   1.523 -1.2749  0.1968  0.3660
12351SOL    HW239946   2.542   5.344   1.438 -0.4418  0.5477  0.3229
12352SOL     OW39947   4.514   3.744   4.138 -0.2809 -0.3306 -0.2298
12352SOL    HW139948   4.432   3.748   4.089 -0.0701  3.5174 -0.6032
12352SOL    HW239949   4.488   3.717   4.226 -1.7119 -0.6064 -0.7037
12353SOL     OW39950   0.463   3.080   8.196 -0.4737  0.4506 -0.1559
12353SOL    HW139951   0.539   3.066   8.253 -0.4943 -0.0354 -0.2454
12353SOL    HW239952   0.395   3.113   8.254 -0.7525 -0.8262  0.2622
12354SOL     OW39953   3.138   6.760   4.887  0.3044 -0.3194 -0.2768
12354SOL    HW139954   3.176   6.830   4.834 -1.4280  0.8137 -0.0667
12354SOL    HW239955   3.099   6.804   4.962 -0.1365 -1.5870  0.2603
12355SOL     OW39956   6.508   5.625   6.068  0.1083  0.5018  0.1366
12355SOL    HW139957   6.490   5.539   6.105  0.1616  0.2230 -0.4700
12355SOL    HW239958   6.453   5.685   6.119  0.2860  0.1544  0.7496
12356SOL     OW39959   8.201   2.093   6.823  0.0542  0.3142 -0.6193
12356SOL    HW139960   8.150   2.154   6.770 -0.0731  1.3156  0.6172
12356SOL    HW239961   8.292   2.118   6.806  0.0115  0.6768 -0.3435
12357SOL     OW39962   4.707   0.919   1.074 -0.4999 -0.1397  0.0133
12357SOL    HW139963   4.794   0.915   1.112 -0.4122  0.1242 -0.1551
12357SOL    HW239964   4.673   1.005   1.098 -0.7026 -0.2306  0.0565
12358SOL     OW39965   0.446   8.412   1.132  0.4009 -0.2390 -0.3142
12358SOL    HW139966   0.406   8.342   1.080  1.2358 -0.3236 -0.8632
12358SOL    HW239967   0.491   8.367   1.203 -0.1326 -0.1704  0.0714
12359SOL     OW39968   9.166   7.297   5.669  0.6928  0.2274  0.0567
12359SOL    HW139969   9.254   7.332   5.680  1.0426 -0.1844 -1.2304
12359SOL    HW239970   9.174   7.232   5.599 -0.4183 -0.6249  0.6732
12360SOL     OW39971   5.136   4.853   7.512 -0.1861  0.0302 -0.1684
12360SOL    HW139972   5.116   4.928   7.567  1.2517  0.1540  0.2245
12360SOL    HW239973   5.167   4.892   7.430  1.0460 -0.1013  0.2149
12361SOL     OW39974   9.096   7.684   4.505 -0.2598 -0.1295 -0.0043
12361SOL    HW139975   9.034   7.626   4.549  0.9807 -0.4677  1.3787
12361SOL    HW239976   9.179   7.636   4.506  0.5322  1.1856  0.1390
12362SOL     OW39977   3.790   9.257   2.450  0.3590  0.2935 -0.2546
12362SOL    HW139978   3.714   9.214   2.491  0.6647  0.5830  0.6400
12362SOL    HW239979   3.765   9.350   2.447  0.8588  0.4550  0.4682
12363SOL     OW39980   3.494   3.292   9.227  0.2331 -0.2012 -0.3929
12363SOL    HW139981   3.498   3.362   9.292  2.2159 -1.3856  0.8800
12363SOL    HW239982   3.408   3.252   9.240 -0.1424  0.7558  0.1894
12364SOL     OW39983   7.181   6.009   7.253 -0.1191  0.1100  0.0040
12364SOL    HW139984   7.219   5.939   7.306 -0.5981 -0.0785  0.1016
12364SOL    HW239985   7.130   5.964   7.186 -0.4116  0.3607  0.0555
12365SOL     OW39986   5.862   3.105   7.880  0.3297 -0.5722 -0.1035
12365SOL    HW139987   5.926   3.174   7.862  0.4836 -0.3761  1.1166
12365SOL    HW239988   5.777   3.146   7.861  0.4872 -0.4408 -0.5445
12366SOL     OW39989   5.533   5.529   5.064 -0.0479 -0.6062  0.0005
12366SOL    HW139990   5.614   5.499   5.022  1.5407  1.5279  1.3112
12366SOL    HW239991   5.544   5.503   5.156  0.6042  2.1876  0.8194
12367SOL     OW39992   1.735   2.972   4.093 -0.3519  0.3528  0.0233
12367SOL    HW139993   1.777   2.973   4.007 -1.7038 -0.2009 -0.6652
12367SOL    HW239994   1.642   2.981   4.074 -1.2095 -4.2372  1.0649
12368SOL     OW39995   4.623   1.647   0.591 -0.2252  0.3534 -0.5096
12368SOL    HW139996   4.618   1.602   0.506 -0.9553  1.1506 -0.8935
12368SOL    HW239997   4.696   1.708   0.581  0.3977 -0.3248 -0.1815
12369SOL     OW39998   2.613   4.618   8.750 -0.4927  1.3417 -0.1414
12369SOL    HW139999   2.694   4.606   8.700  0.3289  2.6474  0.7963
12369SOL    HW240000   2.640   4.612   8.841 -1.5166  1.4797  0.1813
12370SOL     OW40001   6.368   0.296   6.347 -0.2596  0.3249 -0.4057
12370SOL    HW140002   6.322   0.359   6.292 -0.1654  0.1069 -0.7405
12370SOL    HW240003   6.299   0.249   6.393 -0.3091  1.1597  0.4046
12371SOL     OW40004   5.799   7.334   8.628  0.1032 -0.0610  0.1321
12371SOL    HW140005   5.854   7.258   8.649  0.3467 -0.0158 -0.3160
12371SOL    HW240006   5.710   7.306   8.648  0.3995  0.3286  2.1994
12372SOL     OW40007   8.931   0.828   8.360  0.0048  0.5671 -0.4483
12372SOL    HW140008   8.932   0.773   8.283  0.8286 -0.1988  0.0883
12372SOL    HW240009   9.024   0.838   8.384 -0.2738 -0.1405  1.0727
12373SOL     OW40010   4.319   5.183   2.641 -0.3456 -0.3342 -0.4871
12373SOL    HW140011   4.367   5.110   2.600  1.5840  1.6135 -1.9151
12373SOL    HW240012   4.264   5.218   2.571 -0.7286  0.0150 -0.0145
12374SOL     OW40013   5.532   3.460   5.655  0.5813  0.2316 -0.2261
12374SOL    HW140014   5.469   3.508   5.602 -0.7846 -0.5096  0.6479
12374SOL    HW240015   5.531   3.371   5.620 -0.2098 -0.2220  0.8982
12375SOL     OW40016   8.910   4.650   8.096 -0.2899  0.2350 -0.6727
12375SOL    HW140017   8.901   4.573   8.152  0.2507 -0.5449 -1.6302
12375SOL    HW240018   8.888   4.724   8.153 -2.7867 -0.7364 -0.2249
12376SOL     OW40019   1.505   6.379   7.531  0.5987  0.1725  0.3358
12376SOL    HW140020   1.573   6.441   7.554  0.5789  0.6697 -0.8612
12376SOL    HW240021   1.499   6.383   7.435 -0.0330 -1.0034  0.2929
12377SOL     OW40022   6.232   6.258   3.446  0.4835  0.0651  0.7460
12377SOL    HW140023   6.251   6.331   3.387  0.9383 -0.4817  0.2033
12377SOL    HW240024   6.240   6.180   3.391 -1.7688 -0.3106  0.8622
12378SOL     OW40025   8.927   0.817   5.612 -0.0567 -0.3000  0.1482
12378SOL    HW140026   8.881   0.757   5.552 -0.4785 -0.3983  0.5658
12378SOL    HW240027   8.860   0.845   5.674 -0.0657  1.2267 -0.4914
12379SOL     OW40028   4.474   7.623   2.793 -0.2982 -0.0109  0.5771
12379SOL    HW140029   4.485   7.613   2.888  1.0336  0.1521  0.4545
12379SOL    HW240030   4.415   7.698   2.784  1.7781  1.8202  1.2808
12380SOL     OW40031   7.175   8.309   5.011 -0.5121  0.2045 -0.1518
12380SOL    HW140032   7.170   8.240   5.077 -0.5499 -0.7427 -1.1138
12380SOL    HW240033   7.085   8.340   5.002 -0.4025  0.7900  0.6971
12381SOL     OW40034   6.116   7.111   7.512  0.3146 -0.0165 -0.4224
12381SOL    HW140035   6.136   7.072   7.427  0.5808 -0.3441 -0.2094
12381SOL    HW240036   6.043   7.170   7.494  1.2394  0.9577 -1.1548
12382SOL     OW40037   7.791   0.822   0.520  0.0944 -0.7525 -0.5899
12382SOL    HW140038   7.846   0.747   0.499 -1.5870 -2.3126  0.2796
12382SOL    HW240039   7.788   0.825   0.615 -0.9133 -0.4061 -0.6149
12383SOL     OW40040   2.275   2.596   4.189  0.2547  0.1909  0.1962
12383SOL    HW140041   2.278   2.503   4.168 -0.5541  0.3834 -0.8843
12383SOL    HW240042   2.186   2.623   4.166  0.8962  1.5146 -0.9027
12384SOL     OW40043   6.869   1.792   5.330 -0.2079 -0.3213 -0.6890
12384SOL    HW140044   6.843   1.771   5.241 -0.1355  1.1674 -1.0777
12384SOL    HW240045   6.948   1.740   5.344 -0.4180 -0.8389 -1.3552
12385SOL     OW40046   0.955   2.893   3.605  0.0081 -0.0787  0.4959
12385SOL    HW140047   0.968   2.909   3.698  3.1232 -3.3119  0.8478
12385SOL    HW240048   0.896   2.817   3.602  2.2990 -1.9650  0.1397
12386SOL     OW40049   3.756   0.969   4.666 -0.0516 -0.3172 -0.0056
12386SOL    HW140050   3.827   0.983   4.730  1.5302 -0.9032 -1.5384
12386SOL    HW240051   3.747   0.873   4.661 -2.2506 -0.2484  1.4620
12387SOL     OW40052   6.892   6.982   8.814 -0.3376 -0.3412 -0.6536
12387SOL    HW140053   6.906   6.908   8.755  1.6087  0.1738 -0.9026
12387SOL    HW240054   6.800   7.005   8.802 -1.1698 -3.0376 -0.1526
12388SOL     OW40055   1.044   6.544   2.029 -0.5496  0.1705  0.3613
12388SOL    HW140056   1.087   6.462   2.053 -1.5020 -0.2468  0.7044
12388SOL    HW240057   1.106   6.589   1.972  0.8245  0.1382  1.7924
12389SOL     OW40058   2.258   0.256   1.758 -0.2490  0.2791  0.1536
12389SOL    HW140059   2.319   0.330   1.751  0.4282 -0.2070  0.7408
12389SOL    HW240060   2.265   0.227   1.849 -0.4706 -0.5315 -0.0772
12390SOL     OW40061   1.211   8.692   4.314 -0.4616 -0.4403 -0.3588
12390SOL    HW140062   1.204   8.766   4.254  0.2088 -0.5354 -0.5591
12390SOL    HW240063   1.176   8.618   4.265 -1.6790 -0.1579  0.0469
12391SOL     OW40064   8.626   8.823   5.988 -0.3120  0.5097 -0.3459
12391SOL    HW140065   8.692   8.889   6.009 -0.8946  0.8873  0.3419
12391SOL    HW240066   8.664   8.740   6.017  0.9769  0.3175 -2.4020
12392SOL     OW40067   3.063   2.795   5.451 -0.7180  0.0047 -0.1247
12392SOL    HW140068   3.044   2.888   5.461 -0.4979 -0.1088  1.7325
12392SOL    HW240069   3.114   2.790   5.370 -2.4717  1.1960 -1.3710
12393SOL     OW40070   1.360   4.755   4.783  0.1163 -0.3609 -0.0804
12393SOL    HW140071   1.443   4.724   4.818  0.5389 -1.2555 -1.7662
12393SOL    HW240072   1.323   4.679   4.737 -0.3090  0.7660 -1.6830
12394SOL     OW40073   7.240   3.054   0.662  0.2982 -0.4230 -0.1898
12394SOL    HW140074   7.299   2.980   0.676  1.5913  0.7150  0.5417
12394SOL    HW240075   7.257   3.080   0.571  0.7173 -0.2845 -0.0750
12395SOL     OW40076   3.809   5.089   5.181 -0.2488  0.0460  0.3537
12395SOL    HW140077   3.850   5.029   5.242  3.0559  1.1724 -0.5114
12395SOL    HW240078   3.757   5.033   5.123 -0.5074 -1.4405  1.9547
12396SOL     OW40079   3.233   4.048   5.110 -0.0583  0.4374  0.0693
12396SOL    HW140080   3.201   4.089   5.029  0.5571 -0.8303 -0.8344
12396SOL    HW240081   3.312   4.002   5.085 -0.1831 -0.4861  1.2766
12397SOL     OW40082   7.764   8.144   2.862 -0.4994  0.0597  0.2130
12397SOL    HW140083   7.748   8.175   2.773  2.6062  0.9306 -0.1684
12397SOL    HW240084   7.778   8.050   2.852  2.7161  0.5406 -0.8180
12398SOL     OW40085   3.329   5.822   0.932 -0.3283 -0.9905 -0.6199
12398SOL    HW140086   3.411   5.777   0.956 -0.1851 -0.1709  0.5140
12398SOL    HW240087   3.356   5.909   0.904 -0.8482 -0.3407  0.7640
12399SOL     OW40088   3.529   1.113   0.853 -0.4799  0.3991 -0.2009
12399SOL    HW140089   3.518   1.204   0.882 -0.7790  0.5464 -0.7783
12399SOL    HW240090   3.442   1.086   0.825 -0.7237 -0.5508  1.3247
12400SOL     OW40091   3.625   8.234   8.090 -0.1768  0.2629 -0.2779
12400SOL    HW140092   3.564   8.160   8.099 -0.5270  0.5209 -0.5077
12400SOL    HW240093   3.695   8.215   8.153 -0.5143 -0.0120  0.0182
12401SOL     OW40094   1.797   7.181   1.053  0.2140 -0.1819 -0.1022
12401SOL    HW140095   1.781   7.252   0.991  1.0824  0.1974  0.0871
12401SOL    HW240096   1.719   7.126   1.048 -0.2695  0.5331 -0.5966
12402SOL     OW40097   3.523   5.018   2.643  0.1213 -0.1248  0.1242
12402SOL    HW140098   3.528   4.957   2.716  0.5917 -0.6218 -0.3099
12402SOL    HW240099   3.615   5.035   2.619  0.0100  0.9517  0.3918
12403SOL     OW40100   1.889   0.807   2.731  0.3782 -0.3804  0.4344
12403SOL    HW140101   1.881   0.836   2.640  2.0817  0.0682  0.3848
12403SOL    HW240102   1.828   0.863   2.779 -1.0969 -1.1178 -0.4913
12404SOL     OW40103   7.012   8.728   5.059  0.0778 -0.0776  0.1566
12404SOL    HW140104   7.020   8.822   5.039 -1.1416 -0.3381 -1.6690
12404SOL    HW240105   7.045   8.684   4.981 -0.5096 -1.1713  0.5151
12405SOL     OW40106   2.488   7.989   3.074  0.9835 -0.3258  0.5749
12405SOL    HW140107   2.437   7.909   3.062  1.2118 -0.8568  2.7573
12405SOL    HW240108   2.439   8.039   3.140  0.0152  2.1347 -1.8407
12406SOL     OW40109   3.562   4.834   1.499  0.4622  0.2169  0.2778
12406SOL    HW140110   3.534   4.871   1.583 -1.2352  0.4953 -0.3536
12406SOL    HW240111   3.565   4.740   1.514  2.0758  0.3833  1.1483
12407SOL     OW40112   1.634   7.573   2.782  0.2637  0.0352  0.2967
12407SOL    HW140113   1.550   7.612   2.757  0.6917  0.0338 -1.3010
12407SOL    HW240114   1.611   7.501   2.840 -0.8833 -0.1498 -0.3574
12408SOL     OW40115   3.292   2.457   6.160 -0.5104 -0.3031  0.4627
12408SOL    HW140116   3.261   2.517   6.228  0.1258  0.3865  0.1579
12408SOL    HW240117   3.384   2.479   6.149 -0.5265 -0.6339 -0.4000
12409SOL     OW40118   4.919   5.316   7.134 -0.1677  0.1035 -0.3516
12409SOL    HW140119   4.927   5.223   7.157 -1.0497 -0.3989 -1.8940
12409SOL    HW240120   4.968   5.362   7.202  0.6551 -1.5166  0.2062
12410SOL     OW40121   2.253   6.436   8.364  0.3250  0.0654  0.7872
12410SOL    HW140122   2.183   6.380   8.331  2.1516 -2.6263  1.1368
12410SOL    HW240123   2.296   6.468   8.285 -0.8024  1.1259  0.5780
12411SOL     OW40124   7.859   3.103   1.066  0.0229 -0.3426 -0.1869
12411SOL    HW140125   7.870   3.044   0.991 -2.2408 -1.1504  0.0332
12411SOL    HW240126   7.946   3.139   1.081  1.6201 -3.8055 -0.1788
12412SOL     OW40127   4.758   4.032   2.123  0.1711  0.3749 -0.3465
12412SOL    HW140128   4.769   3.970   2.050  1.4266 -0.4966  0.5390
12412SOL    HW240129   4.670   4.017   2.155 -0.1884  0.3536 -1.3169
12413SOL     OW40130   0.378   2.969   3.173  0.0070  0.1406  0.2207
12413SOL    HW140131   0.294   3.008   3.149  0.3423  1.1696  0.6742
12413SOL    HW240132   0.355   2.901   3.237 -0.6051 -0.6144 -0.7755
12414SOL     OW40133   3.199   0.726   8.634  0.2628 -0.0195  0.2370
12414SOL    HW140134   3.284   0.684   8.623  0.0755 -0.3952  0.2093
12414SOL    HW240135   3.219   0.810   8.675  0.6171 -0.2253  0.4877
12415SOL     OW40136   4.093   4.796   1.687  0.1698 -0.0267  0.2382
12415SOL    HW140137   4.019   4.786   1.746 -0.6918  0.1159 -0.7758
12415SOL    HW240138   4.121   4.706   1.668 -0.2460 -0.1133  0.0259
12416SOL     OW40139   0.646   8.848   1.441  0.0268  0.4335  0.0224
12416SOL    HW140140   0.733   8.822   1.411  0.4335  1.0220  0.6555
12416SOL    HW240141   0.586   8.808   1.379  0.7774  0.4691 -0.7372
12417SOL     OW40142   0.177   2.511   1.436  0.3552  0.5656 -0.0735
12417SOL    HW140143   0.091   2.473   1.456  1.0853  0.0291  2.2850
12417SOL    HW240144   0.163   2.605   1.444  0.1416  0.4502  1.0839
12418SOL     OW40145   0.579   6.952   6.168  0.3370  0.0741 -0.2601
12418SOL    HW140146   0.639   7.026   6.176  0.5330 -0.1492  0.3703
12418SOL    HW240147   0.492   6.991   6.172  0.4274  0.1833  1.1288
12419SOL     OW40148   6.570   5.952   9.011  0.0257  0.2629 -0.1206
12419SOL    HW140149   6.643   6.015   9.010  0.5797 -0.3454  0.6542
12419SOL    HW240150   6.531   5.963   9.098 -0.3959  0.1180 -0.2914
12420SOL     OW40151   5.016   8.147   1.867  0.4945 -0.2515 -0.0819
12420SOL    HW140152   5.073   8.223   1.873  1.9359 -1.2816 -0.2700
12420SOL    HW240153   4.966   8.148   1.949  1.3675  0.2263  0.4599
12421SOL     OW40154   2.889   4.341   5.406  0.3616 -0.6326 -0.3352
12421SOL    HW140155   2.934   4.412   5.359  1.2550 -1.0682 -0.1513
12421SOL    HW240156   2.913   4.354   5.497 -1.4126  0.2347  0.0553
12422SOL     OW40157   1.613   3.975   0.298 -0.0531  0.4205  0.1415
12422SOL    HW140158   1.527   4.005   0.327 -0.1655  1.1185 -0.8504
12422SOL    HW240159   1.663   3.964   0.378 -0.9953  0.2392  0.7198
12423SOL     OW40160   2.785   9.218   0.960 -0.2835  0.4343 -0.1839
12423SOL    HW140161   2.708   9.249   0.913 -1.3364 -0.6081  0.7969
12423SOL    HW240162   2.841   9.180   0.892 -2.1131 -1.7501 -0.6060
12424SOL     OW40163   8.224   1.103   1.529  0.4479  0.3737  0.4420
12424SOL    HW140164   8.241   1.063   1.443 -1.3310  0.0761  0.1986
12424SOL    HW240165   8.261   1.191   1.522  1.2804 -0.0110 -0.2458
12425SOL     OW40166   6.638   5.942   4.132 -0.3370  0.0589 -0.2149
12425SOL    HW140167   6.687   6.017   4.168  0.2364 -1.0382  1.3742
12425SOL    HW240168   6.705   5.875   4.119 -1.1084 -0.7518 -0.0107
12426SOL     OW40169   5.990   8.403   3.458  0.2469  0.1725 -0.2473
12426SOL    HW140170   6.014   8.353   3.381  2.6998  0.7918  0.0171
12426SOL    HW240171   5.938   8.343   3.511 -2.4202  0.0684 -2.7515
12427SOL     OW40172   6.907   5.889   4.261  0.1281 -0.6513 -0.0231
12427SOL    HW140173   6.969   5.818   4.275 -1.1417 -1.9839 -0.8696
12427SOL    HW240174   6.861   5.897   4.344  0.6633 -0.4073  0.2550
12428SOL     OW40175   6.535   2.292   4.139  0.1918  0.4362  0.4958
12428SOL    HW140176   6.464   2.346   4.174 -0.3090 -0.3869  0.7643
12428SOL    HW240177   6.567   2.243   4.214 -0.8989 -1.3521 -0.1512
12429SOL     OW40178   6.328   0.060   8.782 -0.1999  0.2036  0.0859
12429SOL    HW140179   6.399   0.085   8.841  0.2103  0.3037 -0.4445
12429SOL    HW240180   6.354  -0.026   8.748  1.1878  1.4882 -2.4130
12430SOL     OW40181   3.054   2.439   8.502  0.1886 -0.4316  0.5096
12430SOL    HW140182   2.975   2.409   8.457 -1.2605  1.0387  1.9319
12430SOL    HW240183   3.119   2.446   8.433 -1.4785  0.1325 -1.0951
12431SOL     OW40184   6.862   3.693   2.004  0.0359 -0.0955 -0.0186
12431SOL    HW140185   6.895   3.705   2.093 -0.7222  0.7100  0.1704
12431SOL    HW240186   6.838   3.781   1.975  0.1413 -0.3649 -0.9719
12432SOL     OW40187   1.539   6.094   5.529  0.1013  0.2603 -0.0972
12432SOL    HW140188   1.627   6.087   5.566 -0.8524 -1.1327  2.0759
12432SOL    HW240189   1.533   6.021   5.467  0.2734 -0.0665  0.2657
12433SOL     OW40190   6.564   4.250   4.723 -0.6258 -0.2196 -0.5788
12433SOL    HW140191   6.629   4.180   4.733 -0.5115 -0.0968 -0.4591
12433SOL    HW240192   6.615   4.331   4.725 -1.0444  0.1340  3.2298
12434SOL     OW40193   3.896   4.884   3.165 -0.3417  0.2084  0.0529
12434SOL    HW140194   3.856   4.813   3.113  1.7900 -1.4753  0.5578
12434SOL    HW240195   3.942   4.937   3.100  1.1990 -1.1156  0.0061
12435SOL     OW40196   6.737   9.003   3.990  0.0101  0.1450 -0.3747
12435SOL    HW140197   6.786   8.938   3.939 -0.8789 -0.3813 -0.5780
12435SOL    HW240198   6.758   9.086   3.948 -0.2386 -0.2141 -1.2574
12436SOL     OW40199   7.730   8.568   8.624  0.1572 -0.0290  0.1114
12436SOL    HW140200   7.677   8.624   8.568  0.7600 -1.6957 -2.2899
12436SOL    HW240201   7.678   8.556   8.704 -0.4481  2.9630  0.2752
12437SOL     OW40202   1.842   1.229   5.152 -0.4249 -0.3676 -0.1519
12437SOL    HW140203   1.899   1.155   5.175  1.8667  1.0787 -0.8730
12437SOL    HW240204   1.835   1.224   5.056  2.2181  1.9368 -0.5730
12438SOL     OW40205   8.819   4.206   8.998 -0.9249  0.0108  0.4347
12438SOL    HW140206   8.809   4.302   8.998 -0.3000  0.1034 -0.8926
12438SOL    HW240207   8.778   4.178   9.080 -0.5712  1.4704  1.1564
12439SOL     OW40208   1.530   5.828   5.463 -0.0073  0.2727 -0.8518
12439SOL    HW140209   1.486   5.768   5.403 -2.1801  0.9074 -0.0078
12439SOL    HW240210   1.552   5.775   5.539  0.0719  0.0909 -1.0004
12440SOL     OW40211   7.612   7.586   7.993  0.2422  0.5496 -0.4014
12440SOL    HW140212   7.670   7.653   8.030  0.0607  1.0673 -1.0459
12440SOL    HW240213   7.663   7.546   7.923  0.6662 -0.5834  0.5124
12441SOL     OW40214   3.985   8.184   0.988 -0.4294 -0.1886 -0.1852
12441SOL    HW140215   3.913   8.157   0.931 -0.5741 -1.0788  0.3849
12441SOL    HW240216   3.969   8.277   1.005 -0.1670  0.1933 -1.8805
12442SOL     OW40217   2.725   6.461   0.169 -0.1399  0.1049  0.2219
12442SOL    HW140218   2.745   6.394   0.104  1.2166  0.2072  0.5034
12442SOL    HW240219   2.669   6.523   0.123 -0.0148 -0.3396 -0.5446
12443SOL     OW40220   6.275   7.660   3.128 -0.3356  0.7129 -0.0817
12443SOL    HW140221   6.232   7.577   3.149 -1.0994  0.8203 -1.1209
12443SOL    HW240222   6.297   7.699   3.213 -0.0490 -0.5007  0.4139
12444SOL     OW40223   5.072   7.258   5.800  0.6275  0.2679  0.8345
12444SOL    HW140224   5.156   7.214   5.818  1.2040  1.5853  1.5198
12444SOL    HW240225   5.090   7.314   5.724  0.2754  0.3340  0.7976
12445SOL     OW40226   3.657   1.088   1.692 -0.3715 -0.1164 -0.2416
12445SOL    HW140227   3.687   1.044   1.772  0.2187  1.2874  0.3380
12445SOL    HW240228   3.610   1.165   1.724 -1.8918 -0.5955 -1.2236
12446SOL     OW40229   1.502   6.298   6.508  0.2651 -0.1779 -0.7039
12446SOL    HW140230   1.547   6.288   6.592 -1.8693  1.0369  0.6804
12446SOL    HW240231   1.505   6.392   6.490 -1.6065 -0.0571 -0.5693
12447SOL     OW40232   8.719   1.203   7.365  0.1129 -0.0578 -0.0293
12447SOL    HW140233   8.789   1.205   7.430  0.3085 -0.7308 -0.2082
12447SOL    HW240234   8.641   1.231   7.412  0.3938  0.1690  0.3061
12448SOL     OW40235   1.124   6.921   2.561  0.0899 -0.3595  0.1093
12448SOL    HW140236   1.060   6.986   2.589 -1.6492 -2.5328  1.4473
12448SOL    HW240237   1.144   6.871   2.639  1.2034 -1.5926 -0.9180
12449SOL     OW40238   6.377   8.197   4.463  0.5721 -0.3592 -0.0820
12449SOL    HW140239   6.439   8.252   4.416 -1.0847 -0.0676 -2.0663
12449SOL    HW240240   6.302   8.254   4.482 -0.4452 -1.4391 -0.6487
12450SOL     OW40241   0.418   7.194   5.301  0.3647 -0.4985  0.0968
12450SOL    HW140242   0.472   7.262   5.260  0.0773 -0.8783 -0.9341
12450SOL    HW240243   0.452   7.188   5.390  2.2141 -0.9090 -0.5911
12451SOL     OW40244   7.030   1.731   1.222 -0.1185  0.6776 -0.1292
12451SOL    HW140245   7.013   1.822   1.196 -0.2212  0.3646 -1.1765
12451SOL    HW240246   7.070   1.690   1.145 -0.4413 -0.2746  0.1918
12452SOL     OW40247   0.714   7.164   0.017  0.9600 -0.0933  0.1590
12452SOL    HW140248   0.634   7.193   0.061  1.2740  1.0967 -0.0260
12452SOL    HW240249   0.701   7.070   0.005 -0.9243  0.2454 -0.8868
12453SOL     OW40250   1.633   0.782   0.116 -0.7230  0.1151  0.2388
12453SOL    HW140251   1.682   0.805   0.038  0.1235  1.0622  1.0138
12453SOL    HW240252   1.565   0.721   0.086 -0.4095  0.4585 -1.2044
12454SOL     OW40253   6.336   1.677   7.325  0.0856  0.1637 -0.1858
12454SOL    HW140254   6.299   1.740   7.387  1.1986 -1.8037  2.6862
12454SOL    HW240255   6.315   1.591   7.363  3.6429 -1.1024 -0.7077
12455SOL     OW40256   5.352   9.075   5.931 -0.0180  0.4172 -0.4935
12455SOL    HW140257   5.428   9.119   5.969 -0.1625 -0.6688  1.1656
12455SOL    HW240258   5.278   9.131   5.954  0.1187  0.7624 -0.8910
12456SOL     OW40259   1.471   5.880   6.254  0.0765 -0.1587 -0.5522
12456SOL    HW140260   1.499   5.823   6.182 -0.8738 -0.0776 -1.0031
12456SOL    HW240261   1.381   5.853   6.272 -0.3775  1.1618 -0.7444
12457SOL     OW40262   6.032   3.702   8.239  0.3217 -0.5307 -0.9081
12457SOL    HW140263   6.038   3.719   8.145 -0.0305  0.0711 -0.8254
12457SOL    HW240264   6.078   3.619   8.251  1.4282 -0.0083 -1.4294
12458SOL     OW40265   7.595   1.713   5.859 -0.6292 -0.2679 -0.2505
12458SOL    HW140266   7.504   1.741   5.862 -1.1379 -1.8659  1.1921
12458SOL    HW240267   7.602   1.661   5.780 -1.0880 -0.4779 -0.1550
12459SOL     OW40268   8.414   3.831   1.398  0.2960 -0.0787 -0.2885
12459SOL    HW140269   8.327   3.855   1.365  0.7242  0.2747 -1.1799
12459SOL    HW240270   8.440   3.756   1.344 -0.1990 -1.3604  1.1720
12460SOL     OW40271   7.382   3.591   3.018 -0.7425 -0.2534  0.2168
12460SOL    HW140272   7.408   3.584   2.926  0.0075  0.0439  0.3988
12460SOL    HW240273   7.295   3.551   3.021 -0.3484 -1.1958 -0.4259
12461SOL     OW40274   2.754   3.524   7.244  0.4118 -0.2164  0.4274
12461SOL    HW140275   2.712   3.485   7.168 -0.4330 -0.5609  1.0615
12461SOL    HW240276   2.827   3.466   7.264 -1.0542 -1.7375  1.5932
12462SOL     OW40277   8.553   5.464   1.994  0.0430  0.1652 -0.0913
12462SOL    HW140278   8.613   5.480   2.067  0.6154  0.2862 -0.5779
12462SOL    HW240279   8.468   5.497   2.025 -0.1402 -1.4024  1.1911
12463SOL     OW40280   4.395   6.624   4.532 -0.2207 -0.1599 -0.1178
12463SOL    HW140281   4.410   6.548   4.476 -1.5278 -0.6954  0.2086
12463SOL    HW240282   4.390   6.698   4.472 -2.0723 -0.7856 -0.7963
12464SOL     OW40283   5.876   7.975   2.434  0.4011  0.0749  0.3143
12464SOL    HW140284   5.907   7.945   2.348 -0.1963  2.1140 -0.6681
12464SOL    HW240285   5.891   8.069   2.434 -2.2572  0.5862  1.2975
12465SOL     OW40286   5.364   0.523   0.430  0.0767 -0.0913 -0.0265
12465SOL    HW140287   5.308   0.573   0.371  0.0229  0.6902  0.6631
12465SOL    HW240288   5.321   0.439   0.439 -0.5653  0.2201 -0.1415
12466SOL     OW40289   4.769   3.059   1.614  0.6443  0.8749  0.3339
12466SOL    HW140290   4.718   3.065   1.695 -1.7670  0.3696 -1.0520
12466SOL    HW240291   4.751   3.140   1.568  1.3849  0.8296 -0.0545
12467SOL     OW40292   1.123   5.694   3.125  0.6242  0.3376  0.4592
12467SOL    HW140293   1.110   5.774   3.075  1.9773  0.8967  0.9684
12467SOL    HW240294   1.201   5.710   3.178  2.1085 -1.9896 -0.8259
12468SOL     OW40295   1.822   4.533   5.357 -0.1291 -0.4783  0.6423
12468SOL    HW140296   1.869   4.472   5.413  0.6660 -0.2701  0.2150
12468SOL    HW240297   1.831   4.497   5.269  0.7440  0.4660  0.3192
12469SOL     OW40298   7.582   0.258   5.132  0.4470  0.6333  0.2369
12469SOL    HW140299   7.610   0.209   5.209  1.8458  0.6688 -0.2110
12469SOL    HW240300   7.557   0.191   5.068  1.4587  0.5093 -0.0480
12470SOL     OW40301   3.212   2.630   2.614  0.2750 -0.3273 -0.5211
12470SOL    HW140302   3.148   2.701   2.600 -0.2573  0.1574  3.2391
12470SOL    HW240303   3.283   2.671   2.662  0.2852 -2.1340  1.1493
12471SOL     OW40304   4.994   5.778   2.276  0.0232 -0.7725  0.6783
12471SOL    HW140305   4.974   5.871   2.282  0.3387 -0.7750  3.0909
12471SOL    HW240306   5.089   5.774   2.265 -0.0620 -0.8158 -0.0668
12472SOL     OW40307   4.755   1.330   2.196  0.3400 -0.6014 -0.0275
12472SOL    HW140308   4.804   1.247   2.193 -0.7439 -1.2370 -0.7507
12472SOL    HW240309   4.715   1.337   2.110 -0.6153  0.0388  0.4574
12473SOL     OW40310   3.069   6.590   5.310 -0.5444 -0.1328 -0.1897
12473SOL    HW140311   3.120   6.670   5.301  0.4755 -0.4685  1.9437
12473SOL    HW240312   3.131   6.525   5.344 -1.7781 -1.3053 -0.0587
12474SOL     OW40313   1.293   7.806   5.687 -0.4405 -0.2051  0.5215
12474SOL    HW140314   1.232   7.869   5.725 -2.5262 -1.4692 -0.5071
12474SOL    HW240315   1.326   7.848   5.608 -1.2187 -0.1025  0.2480
12475SOL     OW40316   3.668   4.442   3.874  0.1247 -0.3531 -0.6761
12475SOL    HW140317   3.700   4.450   3.964  2.1773 -1.6273 -1.2289
12475SOL    HW240318   3.576   4.416   3.884  0.1932 -0.0409  1.0422
12476SOL     OW40319   6.949   2.168   8.250 -0.3146  0.5187 -0.1816
12476SOL    HW140320   6.867   2.206   8.281 -0.5192  0.4768 -0.6640
12476SOL    HW240321   6.927   2.128   8.165 -0.1296 -0.7732  0.3554
12477SOL     OW40322   7.981   4.274   9.149  0.3236 -0.4105  0.0662
12477SOL    HW140323   7.935   4.339   9.097  0.8957 -0.3127 -0.3128
12477SOL    HW240324   7.911   4.216   9.181 -0.5532  1.7472  2.4570
12478SOL     OW40325   3.096   0.757   2.697 -0.6249  0.0141  0.3525
12478SOL    HW140326   3.007   0.721   2.700 -0.5550 -0.1077  0.9990
12478SOL    HW240327   3.120   0.752   2.604 -1.4460  0.4297  0.1019
12479SOL     OW40328   2.402   7.557   4.461  0.0280  0.2173  0.1445
12479SOL    HW140329   2.410   7.538   4.367 -0.9004  1.2275 -0.1529
12479SOL    HW240330   2.474   7.508   4.501 -1.2102 -2.5300 -0.7601
12480SOL     OW40331   3.346   8.058   8.109 -0.3320  0.9039 -0.2854
12480SOL    HW140332   3.321   7.966   8.098 -0.6636  0.8162  1.0872
12480SOL    HW240333   3.295   8.105   8.043  1.0507 -0.0526 -2.1176
12481SOL     OW40334   3.122   5.710   7.563  0.0486 -0.0976  0.2502
12481SOL    HW140335   3.159   5.625   7.536 -0.3453 -0.7894  1.8136
12481SOL    HW240336   3.102   5.700   7.656  0.1582  1.7881  0.5187
12482SOL     OW40337   0.536   0.285   8.873  0.0362 -0.2324  0.0585
12482SOL    HW140338   0.628   0.305   8.859  0.3679 -1.0129  0.9991
12482SOL    HW240339   0.491   0.324   8.798  1.1404  0.0115 -0.4981
12483SOL     OW40340   2.265   3.208   7.793 -0.3054  0.1983 -0.0678
12483SOL    HW140341   2.309   3.131   7.829 -0.9433 -0.1209  0.0387
12483SOL    HW240342   2.233   3.256   7.870 -0.5983  0.1522 -0.1580
12484SOL     OW40343   2.465   7.185   1.466  0.2699 -0.2530  0.1712
12484SOL    HW140344   2.385   7.132   1.461  0.9586 -1.2276 -1.0792
12484SOL    HW240345   2.525   7.144   1.403  1.2065  1.3881 -0.0661
12485SOL     OW40346   9.083   7.380   0.270  0.1270  0.2745 -0.3550
12485SOL    HW140347   9.014   7.316   0.253 -0.6441  1.1446 -0.5742
12485SOL    HW240348   9.134   7.341   0.342  0.4548 -1.1545 -1.3147
12486SOL     OW40349   3.819   3.634   1.623 -0.0692  0.2148 -0.0530
12486SOL    HW140350   3.893   3.658   1.568  1.0409  2.4807  2.1766
12486SOL    HW240351   3.782   3.718   1.650 -0.3391 -0.7080  2.7868
12487SOL     OW40352   6.962   4.031   2.649 -0.2748 -0.4599 -0.4666
12487SOL    HW140353   6.878   4.078   2.642  0.0161 -0.1011 -2.1005
12487SOL    HW240354   7.021   4.080   2.591  1.0570 -0.7487  0.6073
12488SOL     OW40355   4.508   2.241   9.005  0.0142 -0.4918 -0.1578
12488SOL    HW140356   4.454   2.164   9.020  0.0823 -0.9023 -1.8222
12488SOL    HW240357   4.521   2.243   8.910  0.7894  1.0452 -0.0516
12489SOL     OW40358   9.107   8.086   9.061 -0.0153 -0.0006 -0.3609
12489SOL    HW140359   9.067   8.002   9.082 -1.4146  0.7789  0.2087
12489SOL    HW240360   9.066   8.112   8.979  0.0061  0.3819 -0.2518
12490SOL     OW40361   3.155   5.395   3.536 -0.2449  0.2971  0.3174
12490SOL    HW140362   3.062   5.397   3.561  0.5820 -0.2725  3.9912
12490SOL    HW240363   3.202   5.420   3.615  2.8288 -0.3472 -1.1447
12491SOL     OW40364   5.472   2.040   7.294 -0.9337  0.4013 -0.1186
12491SOL    HW140365   5.453   1.958   7.340 -0.2492 -0.8822 -2.0265
12491SOL    HW240366   5.388   2.084   7.288 -1.2622 -0.0132  1.1890
12492SOL     OW40367   3.230   3.073   5.623 -0.0841 -0.3015 -0.2455
12492SOL    HW140368   3.236   3.169   5.621  1.6419 -0.3678 -2.2177
12492SOL    HW240369   3.172   3.051   5.550  0.4174 -0.7792 -0.5088
12493SOL     OW40370   1.343   4.023   9.073 -0.1011 -0.5460 -0.7339
12493SOL    HW140371   1.380   4.001   9.158 -2.7232 -0.5118  0.5288
12493SOL    HW240372   1.333   3.939   9.029  1.9510 -0.4961 -1.3691
12494SOL     OW40373   5.897   7.982   4.335 -0.2754  0.2899  0.7805
12494SOL    HW140374   5.965   7.935   4.383 -0.9196 -1.4740  0.0704
12494SOL    HW240375   5.821   7.923   4.338 -0.8391  0.8608 -0.9438
12495SOL     OW40376   4.390   4.405   1.246 -0.0005 -0.0372 -0.1158
12495SOL    HW140377   4.338   4.329   1.222  2.3227 -1.0212 -2.5939
12495SOL    HW240378   4.344   4.480   1.208  0.0613 -0.8294 -1.8531
12496SOL     OW40379   6.688   0.006   6.368 -0.3224  0.9531  0.0470
12496SOL    HW140380   6.772  -0.031   6.340 -2.0026 -3.2241 -0.2370
12496SOL    HW240381   6.659   0.058   6.294  1.2673  1.1842 -0.4676
12497SOL     OW40382   7.450   2.563   1.702  0.1936  0.1291 -0.5263
12497SOL    HW140383   7.382   2.496   1.693 -0.9130  0.7915  1.8959
12497SOL    HW240384   7.404   2.639   1.738  1.7210  1.6325 -1.6101
12498SOL     OW40385   8.877   6.433   5.994 -0.4136  0.3737 -0.2906
12498SOL    HW140386   8.824   6.428   5.915 -0.7145 -1.9677 -0.0035
12498SOL    HW240387   8.813   6.434   6.066 -0.1543 -2.0277  0.0390
12499SOL     OW40388   6.339   7.741   3.782  0.1874  0.1646  0.2991
12499SOL    HW140389   6.347   7.714   3.874  2.6903 -1.9822 -0.4181
12499SOL    HW240390   6.279   7.676   3.744  0.0639  0.3513  0.1754
12500SOL     OW40391   2.724   7.601   7.412 -0.0185  0.4216  0.2088
12500SOL    HW140392   2.726   7.511   7.378 -0.7712  0.2989  0.4644
12500SOL    HW240393   2.635   7.631   7.393 -1.1119 -0.2690  3.5724
12501SOL     OW40394   0.509   1.198   7.715 -0.7077  0.0142  0.3920
12501SOL    HW140395   0.533   1.205   7.807 -1.0886  0.5707  0.4565
12501SOL    HW240396   0.527   1.285   7.679  0.6157 -0.5274 -0.3559
12502SOL     OW40397   7.816   0.864   5.872  0.0384  0.1388 -0.0125
12502SOL    HW140398   7.749   0.801   5.846  1.3354 -0.2025 -2.9933
12502SOL    HW240399   7.811   0.867   5.967 -3.1007 -1.0268 -0.0372
12503SOL     OW40400   1.916   5.447   1.407  0.0444  0.6410 -0.0883
12503SOL    HW140401   1.896   5.354   1.413  2.5359  0.1411  1.7787
12503SOL    HW240402   1.860   5.479   1.335 -0.4962 -2.3603 -1.1266
12504SOL     OW40403   4.278   8.699   4.721 -0.3515 -0.4534  0.1942
12504SOL    HW140404   4.362   8.661   4.696 -0.4510 -0.6066  0.0896
12504SOL    HW240405   4.230   8.707   4.638 -0.8658 -1.4075  0.3807
12505SOL     OW40406   3.289   6.795   1.654  0.2640 -0.4724 -0.4764
12505SOL    HW140407   3.257   6.709   1.680  0.6309  0.1539  2.3767
12505SOL    HW240408   3.219   6.831   1.600 -1.2460 -1.4326  0.7405
12506SOL     OW40409   6.970   9.169   1.828 -0.6001 -0.2621 -0.2317
12506SOL    HW140410   6.975   9.199   1.919  0.2877  0.3872 -0.4831
12506SOL    HW240411   7.034   9.223   1.782 -1.7931  0.1699 -1.4468
12507SOL     OW40412   6.193   1.360   3.325  0.6200 -0.8544  0.0799
12507SOL    HW140413   6.168   1.440   3.372 -0.0695 -1.1520  0.2181
12507SOL    HW240414   6.205   1.389   3.234 -0.2199 -0.7088  0.0118
12508SOL     OW40415   7.619   5.802   4.365  0.4033 -0.0580 -0.2246
12508SOL    HW140416   7.615   5.720   4.414  0.3837  0.6122  0.9341
12508SOL    HW240417   7.659   5.864   4.425 -1.0357  1.1930 -0.4822
12509SOL     OW40418   3.427   1.957   8.356  0.0092 -0.7107  0.0534
12509SOL    HW140419   3.515   1.992   8.370 -0.5690  0.2701  1.4485
12509SOL    HW240420   3.411   1.969   8.263 -0.2992  3.2936  0.4237
12510SOL     OW40421   0.380   5.752   0.647 -0.0627 -0.4593  0.4540
12510SOL    HW140422   0.294   5.795   0.645 -0.8869 -1.9795  1.3598
12510SOL    HW240423   0.408   5.752   0.555 -2.0098 -1.7228 -0.2323
12511SOL     OW40424   0.763   6.673   0.907 -0.2287  0.5640 -0.2336
12511SOL    HW140425   0.822   6.742   0.877 -0.3965  0.6257 -0.4240
12511SOL    HW240426   0.797   6.593   0.866 -0.0579  0.5406 -0.0450
12512SOL     OW40427   3.881   8.482   0.421 -0.1039 -0.1128  0.1843
12512SOL    HW140428   3.790   8.452   0.422 -0.6289  1.3483  2.1709
12512SOL    HW240429   3.876   8.575   0.400  0.8559  0.1083  0.8315
12513SOL     OW40430   0.233   5.334   3.503 -0.3554  0.1527  0.8053
12513SOL    HW140431   0.284   5.400   3.550 -0.3817  0.8905 -0.1822
12513SOL    HW240432   0.188   5.383   3.435 -0.6815 -0.8325  0.3044
12514SOL     OW40433   3.544   5.257   3.542 -0.4500 -0.5446  0.1979
12514SOL    HW140434   3.513   5.317   3.610 -1.3323 -0.8388  0.0728
12514SOL    HW240435   3.529   5.304   3.460  1.3144  0.1217  0.2042
12515SOL     OW40436   2.801   2.591   5.280 -0.2620 -0.1585  0.0733
12515SOL    HW140437   2.857   2.590   5.202  2.4654  0.0076  1.9231
12515SOL    HW240438   2.766   2.680   5.283  1.3842  0.5006  0.2130
12516SOL     OW40439   4.902   1.280   3.575  0.1206 -0.0938 -0.4447
12516SOL    HW140440   4.853   1.346   3.525 -0.4514 -0.8655 -0.9151
12516SOL    HW240441   4.906   1.204   3.517 -0.2808 -0.8965  0.5529
12517SOL     OW40442   3.993   7.815   8.193 -0.2787 -0.5275 -0.4858
12517SOL    HW140443   4.058   7.864   8.143 -0.9316  0.7035 -0.1787
12517SOL    HW240444   4.002   7.725   8.163  2.3748 -0.6365  0.3859
12518SOL     OW40445   4.053   5.533   6.198 -0.1653  0.1351  0.4102
12518SOL    HW140446   4.083   5.450   6.159 -0.5541  1.2445 -2.5410
12518SOL    HW240447   4.133   5.580   6.219  0.1548  0.3241 -1.0825
12519SOL     OW40448   8.743   8.964   5.254 -0.1872 -0.1204 -0.0159
12519SOL    HW140449   8.724   8.969   5.160 -1.2214 -0.7904  0.1389
12519SOL    HW240450   8.796   8.885   5.264  0.3267  0.2096 -0.0876
12520SOL     OW40451   8.236   7.486   5.152 -0.0260  0.2718  0.3339
12520SOL    HW140452   8.246   7.528   5.238 -1.0474  0.6672  0.2663
12520SOL    HW240453   8.292   7.409   5.157  0.6355  0.7777  1.0339
12521SOL     OW40454   0.327   7.996   1.938 -0.2989  0.1348 -0.3893
12521SOL    HW140455   0.277   7.928   1.894 -1.4108  0.2771  0.6123
12521SOL    HW240456   0.332   8.068   1.875 -0.2052 -0.3864 -0.9777
12522SOL     OW40457   3.425   1.590   0.276 -0.1915  0.3552 -0.0086
12522SOL    HW140458   3.427   1.621   0.367 -2.4022 -0.5664  0.4267
12522SOL    HW240459   3.364   1.650   0.232  0.0595  0.1598 -0.6321
12523SOL     OW40460   5.888   5.487   6.897  0.5170 -0.0914  0.0219
12523SOL    HW140461   5.806   5.532   6.916  1.3723  1.1034  1.0178
12523SOL    HW240462   5.923   5.464   6.983  2.9183  2.5603 -0.1109
12524SOL     OW40463   5.076   6.953   1.531  0.0015 -0.2701  0.7488
12524SOL    HW140464   5.095   7.024   1.593  0.0207  1.2989 -0.9715
12524SOL    HW240465   5.006   6.988   1.476 -1.6167 -2.4926  1.2665
12525SOL     OW40466   5.485   8.159   3.019  0.2572  0.2367 -0.3460
12525SOL    HW140467   5.537   8.094   2.972 -0.1105 -0.8572  0.6970
12525SOL    HW240468   5.401   8.115   3.036  0.6111  0.2774  1.9309
12526SOL     OW40469   5.850   3.475   1.907  0.4436 -0.2398  0.7427
12526SOL    HW140470   5.921   3.518   1.861  1.6072 -0.5968  2.1220
12526SOL    HW240471   5.790   3.445   1.838  1.0891  0.9826 -0.3774
12527SOL     OW40472   4.334   0.724   3.192  0.1293 -0.3174 -0.1966
12527SOL    HW140473   4.348   0.717   3.098 -1.4191 -0.0485 -0.4747
12527SOL    HW240474   4.241   0.710   3.204 -0.1711  2.0577  1.0099
12528SOL     OW40475   0.902   6.028   7.816  0.2749 -0.7445  0.3894
12528SOL    HW140476   0.915   6.042   7.909 -1.6687  1.0557  0.4521
12528SOL    HW240477   0.907   5.933   7.805  1.6255 -0.9200  2.1071
12529SOL     OW40478   5.148   5.233   3.308 -0.1261 -0.1030  0.2330
12529SOL    HW140479   5.170   5.140   3.317 -1.4339 -0.4353  0.1825
12529SOL    HW240480   5.188   5.259   3.225  1.7462 -0.1407  1.0795
12530SOL     OW40481   5.730   4.599   7.770  0.7510 -0.1519 -0.6022
12530SOL    HW140482   5.769   4.544   7.838  0.8258 -0.2263 -0.7048
12530SOL    HW240483   5.644   4.623   7.805  0.8582 -0.0488 -0.4084
12531SOL     OW40484   3.610   6.282   1.571  0.0416  0.1731 -0.4015
12531SOL    HW140485   3.556   6.329   1.508  0.0149 -1.6565 -1.8209
12531SOL    HW240486   3.685   6.339   1.585 -0.4940  1.1188 -1.2326
12532SOL     OW40487   4.312   2.105   0.074 -0.0339  0.0310  0.2733
12532SOL    HW140488   4.397   2.062   0.064 -0.7582 -1.1211 -1.5671
12532SOL    HW240489   4.257   2.040   0.117 -0.5911 -0.1427 -0.6709
12533SOL     OW40490   3.916   3.351   3.586  0.2120 -0.6807 -0.4553
12533SOL    HW140491   3.825   3.380   3.594  0.0896 -0.7838 -1.3200
12533SOL    HW240492   3.911   3.273   3.530  0.8967 -0.2810 -1.0914
12534SOL     OW40493   6.321   0.624   8.828  0.1987  0.7500 -0.5536
12534SOL    HW140494   6.406   0.668   8.834  0.2341  0.6100  0.0519
12534SOL    HW240495   6.343   0.533   8.808  0.3146  0.2904  1.4339
12535SOL     OW40496   3.370   7.070   6.102  0.7343  0.2215 -0.1168
12535SOL    HW140497   3.312   7.137   6.064  0.7554 -0.1341 -0.7974
12535SOL    HW240498   3.457   7.094   6.070  0.7585 -0.0571 -0.2582
12536SOL     OW40499   2.876   7.965   5.367 -0.2764 -0.3871  0.0621
12536SOL    HW140500   2.862   8.057   5.390  1.9040 -0.0158  0.1043
12536SOL    HW240501   2.909   7.967   5.277 -2.0032 -1.3050 -0.6335
12537SOL     OW40502   5.173   2.675   7.106  0.0942 -0.3657 -0.0471
12537SOL    HW140503   5.268   2.666   7.093 -0.0434 -0.4930 -0.9812
12537SOL    HW240504   5.164   2.751   7.165  0.7413  0.1031 -0.5406
12538SOL     OW40505   1.333   7.363   8.294 -0.7440  0.7302  0.0302
12538SOL    HW140506   1.306   7.393   8.208  0.2086  0.1089 -0.5027
12538SOL    HW240507   1.344   7.268   8.284 -0.4129  0.6809  0.7753
12539SOL     OW40508   4.550   7.797   6.015  0.3245 -0.3024 -0.5502
12539SOL    HW140509   4.591   7.883   6.000  2.0300 -0.9224  0.3229
12539SOL    HW240510   4.473   7.817   6.068  1.9990  0.5399  1.7590
12540SOL     OW40511   6.763   7.809   7.705  0.6133 -0.3238  0.2356
12540SOL    HW140512   6.796   7.850   7.625  0.6431 -0.4325  0.1905
12540SOL    HW240513   6.806   7.723   7.706  0.6979 -0.2785  0.4265
12541SOL     OW40514   5.666   4.848   1.436  0.3701 -0.3949  0.1014
12541SOL    HW140515   5.758   4.838   1.460  0.8202 -1.9089 -1.9821
12541SOL    HW240516   5.667   4.891   1.351 -0.9931  1.3512  0.8926
12542SOL     OW40517   6.335   2.102   0.825 -0.3148 -0.3099 -0.0921
12542SOL    HW140518   6.329   2.028   0.765 -2.3181  1.2095 -1.9187
12542SOL    HW240519   6.414   2.148   0.797 -0.8851  0.0356 -1.1979
12543SOL     OW40520   7.530   3.689   4.171 -0.2485  0.7778 -0.7514
12543SOL    HW140521   7.480   3.684   4.253 -1.7873  0.9547 -1.6404
12543SOL    HW240522   7.484   3.629   4.111  1.6636 -0.4140 -1.1066
12544SOL     OW40523   3.450   0.225   2.223  0.0817  0.2284 -0.3874
12544SOL    HW140524   3.426   0.221   2.130 -0.2588  0.8801 -0.3406
12544SOL    HW240525   3.421   0.142   2.259  0.5345 -0.1742 -0.9370
12545SOL     OW40526   7.555   5.123   6.633  0.1910  0.2197  0.2064
12545SOL    HW140527   7.578   5.125   6.726 -0.2035 -0.5635  0.3302
12545SOL    HW240528   7.483   5.061   6.628  0.5667 -0.1608 -0.7026
12546SOL     OW40529   2.911   3.681   5.494 -0.1566 -0.0084 -0.6296
12546SOL    HW140530   2.862   3.733   5.431 -1.5210  0.3913  0.7003
12546SOL    HW240531   2.987   3.734   5.516  1.0423 -0.6980 -2.8311
12547SOL     OW40532   7.992   0.181   3.288 -0.0775 -0.1475 -0.2992
12547SOL    HW140533   7.905   0.221   3.292  0.0919  0.2053 -0.0688
12547SOL    HW240534   7.976   0.090   3.262 -0.4342  0.2110 -1.4210
12548SOL     OW40535   7.383   3.364   0.745  0.2242  0.1614 -0.5906
12548SOL    HW140536   7.288   3.358   0.730  0.1660 -1.1700  0.1688
12548SOL    HW240537   7.410   3.274   0.765  1.9015  0.2656 -2.1273
12549SOL     OW40538   6.946   0.275   0.332  0.1171  0.3558  1.0861
12549SOL    HW140539   7.007   0.349   0.322 -0.5981  0.7728 -0.5177
12549SOL    HW240540   6.866   0.314   0.366 -0.5255  0.4947 -0.5016
12550SOL     OW40541   7.232   4.338   0.406 -0.1320 -0.1756 -0.0192
12550SOL    HW140542   7.269   4.422   0.434 -2.4042  1.2836 -1.0883
12550SOL    HW240543   7.149   4.331   0.453 -0.4094 -1.3936 -0.6402
12551SOL     OW40544   5.472   0.870   8.353 -0.3230 -0.6604  0.2001
12551SOL    HW140545   5.461   0.779   8.380  0.5096 -0.6316  0.6726
12551SOL    HW240546   5.548   0.869   8.294 -1.3458 -0.5220 -1.1802
12552SOL     OW40547   4.421   8.585   5.765  0.1453  0.1766  0.5082
12552SOL    HW140548   4.443   8.494   5.748 -0.3693  0.0996  0.2337
12552SOL    HW240549   4.326   8.586   5.776 -0.1351  0.9559 -1.4751
12553SOL     OW40550   4.771   2.025   7.391 -0.0166 -0.7427 -0.1486
12553SOL    HW140551   4.854   2.030   7.439 -0.5607 -1.1244  0.8838
12553SOL    HW240552   4.790   1.970   7.315  1.1251  0.7081 -0.9665
12554SOL     OW40553   8.869   8.017   4.171 -0.4727  0.4345  0.2819
12554SOL    HW140554   8.850   7.932   4.131 -1.7926 -0.2168  2.1377
12554SOL    HW240555   8.953   8.005   4.215  0.2561  0.7041 -0.9809
12555SOL     OW40556   5.867   1.421   1.972  0.2976  0.5664 -0.8291
12555SOL    HW140557   5.879   1.419   1.877  3.2996  0.4654 -0.5493
12555SOL    HW240558   5.940   1.474   2.004  1.6074 -2.4290  1.6561
12556SOL     OW40559   3.776   0.956   1.911 -0.0342 -0.6504 -0.2204
12556SOL    HW140560   3.847   0.922   1.856 -0.3651 -0.9098 -0.4996
12556SOL    HW240561   3.745   0.879   1.959  0.0484 -0.4847  0.0944
12557SOL     OW40562   3.670   6.804   4.951  0.3415  0.2373  0.0709
12557SOL    HW140563   3.584   6.805   4.909  0.8800  0.3106 -1.0447
12557SOL    HW240564   3.727   6.855   4.893  0.9252  1.0441  1.2922
12558SOL     OW40565   1.698   4.985   0.735  0.3772  0.2507 -0.3965
12558SOL    HW140566   1.691   5.005   0.642 -1.3949  0.3441 -0.2773
12558SOL    HW240567   1.612   5.007   0.771  0.1337 -2.2764  0.7895
12559SOL     OW40568   1.646   5.997   2.276 -0.2792 -1.2979  0.1105
12559SOL    HW140569   1.598   5.958   2.204 -2.4845 -1.4848  1.5802
12559SOL    HW240570   1.647   5.929   2.344 -2.2814  0.3104  1.8995
12560SOL     OW40571   0.745   7.976   9.132 -0.7873 -0.3379 -0.5726
12560SOL    HW140572   0.801   7.985   9.209 -0.0728 -1.0500 -1.0032
12560SOL    HW240573   0.727   8.066   9.105 -1.6224 -0.0523  0.8301
12561SOL     OW40574   4.209   8.888   4.211 -0.0903  0.6742  0.3761
12561SOL    HW140575   4.169   8.972   4.189  1.2112  1.6753  1.6166
12561SOL    HW240576   4.298   8.894   4.176  0.0670 -0.1292  0.6165
12562SOL     OW40577   5.138   7.364   5.287 -0.4012 -0.3811  0.4326
12562SOL    HW140578   5.135   7.456   5.313  0.7157  0.4060 -1.9828
12562SOL    HW240579   5.062   7.352   5.231 -0.2798 -0.7942  0.3514
12563SOL     OW40580   1.991   3.081   2.457 -0.0605  0.0782 -0.1727
12563SOL    HW140581   1.960   3.171   2.453 -1.1431 -0.2574  0.1887
12563SOL    HW240582   2.060   3.076   2.391  1.5102  1.7158  1.2180
12564SOL     OW40583   2.454   0.337   0.961  0.1094  0.0821  0.0347
12564SOL    HW140584   2.375   0.372   1.003  0.5059  0.0981  0.7979
12564SOL    HW240585   2.422   0.268   0.903 -0.4313 -0.1848  0.6350
12565SOL     OW40586   6.859   8.942   3.175 -0.6232 -0.2071  0.2800
12565SOL    HW140587   6.839   8.850   3.194 -1.4913  0.2433  1.5971
12565SOL    HW240588   6.882   8.980   3.260 -0.8131  0.9340 -0.1642
12566SOL     OW40589   4.010   3.926   3.602 -0.1400  0.3160 -0.6807
12566SOL    HW140590   4.078   3.957   3.662  0.1182 -1.4661  0.0005
12566SOL    HW240591   3.947   3.998   3.598  0.6608  1.1180  0.4416
12567SOL     OW40592   7.290   3.533   6.164  0.1580 -0.0411 -0.4803
12567SOL    HW140593   7.301   3.554   6.071  0.9124 -0.8623 -0.5890
12567SOL    HW240594   7.335   3.605   6.209  1.2619 -0.5012 -0.8074
12568SOL     OW40595   8.020   2.965   7.973  0.0791 -0.1257  0.1086
12568SOL    HW140596   7.974   2.895   7.928 -0.6472  0.3251  0.1247
12568SOL    HW240597   7.991   2.959   8.064 -0.6127  0.6808 -0.0489
12569SOL     OW40598   4.129   6.987   3.244 -0.5521  0.0813  0.2590
12569SOL    HW140599   4.224   6.975   3.237 -0.2962  1.4268  0.9640
12569SOL    HW240600   4.108   6.957   3.332 -0.8782 -0.7198 -0.0882
12570SOL     OW40601   1.173   8.274   8.674  0.1927 -0.1282 -0.6873
12570SOL    HW140602   1.089   8.307   8.641 -1.0438 -1.8323  0.5538
12570SOL    HW240603   1.235   8.293   8.604 -1.5324 -0.1863 -2.3228
12571SOL     OW40604   8.463   1.222   7.482  0.0388  0.1435 -0.4933
12571SOL    HW140605   8.382   1.177   7.459  0.8452 -1.2751 -0.6885
12571SOL    HW240606   8.435   1.293   7.540 -1.5190  0.8863 -2.0582
12572SOL     OW40607   3.590   0.684   2.384  0.3659  0.1679  0.1613
12572SOL    HW140608   3.642   0.639   2.317 -1.1214 -0.1162 -0.8577
12572SOL    HW240609   3.502   0.651   2.371 -0.6200  2.6196  0.0295
12573SOL     OW40610   3.518   6.932   6.429  0.5758  0.0318  0.6531
12573SOL    HW140611   3.464   6.854   6.444 -0.5877  0.1259 -2.3783
12573SOL    HW240612   3.523   6.974   6.515 -0.8718 -2.0609  1.8565
12574SOL     OW40613   2.561   3.562   9.039 -0.0874 -0.3727 -0.1193
12574SOL    HW140614   2.535   3.522   8.956  0.0751  0.3965 -0.5639
12574SOL    HW240615   2.655   3.579   9.028 -0.3041  0.8618 -0.2898
12575SOL     OW40616   3.214   0.698   6.416  0.7687 -0.1789 -0.0692
12575SOL    HW140617   3.189   0.671   6.504 -0.2299  0.7075 -0.0504
12575SOL    HW240618   3.133   0.730   6.377  1.7133  2.2336 -0.2496
12576SOL     OW40619   6.591   0.626   5.165  0.4002 -0.2099  0.5055
12576SOL    HW140620   6.559   0.687   5.099 -0.7123 -0.5737  0.6966
12576SOL    HW240621   6.610   0.681   5.242 -0.6011 -0.0878  0.6807
12577SOL     OW40622   4.715   7.638   3.983 -0.5802 -0.1204  0.2400
12577SOL    HW140623   4.749   7.605   3.900 -0.0699  0.7088  0.0989
12577SOL    HW240624   4.792   7.641   4.041 -0.8688 -0.3924  0.6403
12578SOL     OW40625   3.864   4.824   2.362  0.0248 -0.4538  0.5013
12578SOL    HW140626   3.862   4.917   2.339 -0.3685 -0.2018  1.4771
12578SOL    HW240627   3.948   4.793   2.329  0.8065  0.5983  1.3932
12579SOL     OW40628   2.088   8.180   0.498 -0.6345 -0.1690 -0.2147
12579SOL    HW140629   2.002   8.215   0.474  0.0181  2.0122  0.3587
12579SOL    HW240630   2.123   8.144   0.416 -1.9373 -0.7821 -0.5247
12580SOL     OW40631   8.098   3.778   8.246  0.3451  0.0643 -0.4265
12580SOL    HW140632   8.172   3.837   8.258  1.0949 -1.1667  1.6604
12580SOL    HW240633   8.060   3.770   8.334  0.4170 -2.6380 -0.5542
12581SOL     OW40634   4.394   5.943   4.805 -0.0067  0.0959 -0.0165
12581SOL    HW140635   4.457   5.875   4.829 -0.0031 -0.1338 -0.6406
12581SOL    HW240636   4.309   5.906   4.827 -0.0513 -0.3800 -0.9278
12582SOL     OW40637   6.480   8.844   2.724 -0.6666  0.1480 -0.1187
12582SOL    HW140638   6.548   8.805   2.778  0.2480 -0.6740 -1.7723
12582SOL    HW240639   6.468   8.932   2.760  0.1491 -0.2397  1.1675
12583SOL     OW40640   7.573   4.760   2.234 -0.5635  0.0593 -0.1696
12583SOL    HW140641   7.636   4.831   2.238 -0.9273  0.3465  1.1701
12583SOL    HW240642   7.621   4.687   2.194  0.2892  0.5852 -0.1308
12584SOL     OW40643   4.136   1.298   1.586  0.3412 -0.5022 -0.3813
12584SOL    HW140644   4.147   1.248   1.667  1.8017  0.4520  0.0645
12584SOL    HW240645   4.120   1.232   1.519  1.7374 -1.5533  0.2590
12585SOL     OW40646   1.855   7.732   3.234  0.3205 -0.2915 -0.0417
12585SOL    HW140647   1.838   7.684   3.316  3.4389 -2.4548 -0.4799
12585SOL    HW240648   1.914   7.803   3.260 -0.0686  0.0863 -0.1822
12586SOL     OW40649   2.470   9.262   2.520  0.4071  0.0470 -0.1194
12586SOL    HW140650   2.464   9.167   2.523  1.4949 -0.0222  0.1387
12586SOL    HW240651   2.554   9.279   2.477  0.5186  0.8881  0.4230
12587SOL     OW40652   6.483   4.747   5.770 -0.1607 -0.2142  0.1941
12587SOL    HW140653   6.530   4.670   5.800 -0.1796  0.1213  1.1248
12587SOL    HW240654   6.529   4.821   5.809  0.1094  0.2892 -1.0168
12588SOL     OW40655   7.120   4.933   2.341  0.1936 -0.1191  0.7717
12588SOL    HW140656   7.090   4.890   2.261 -1.3778 -0.4576  1.4989
12588SOL    HW240657   7.214   4.912   2.346 -0.1206 -1.8720  0.1102
12589SOL     OW40658   3.544   5.109   5.747 -0.6277 -0.6849  0.5252
12589SOL    HW140659   3.617   5.067   5.793 -0.6691 -0.8602  0.4323
12589SOL    HW240660   3.505   5.168   5.812  1.6013  1.9443 -0.3469
12590SOL     OW40661   7.542   8.113   5.813  0.1350 -0.3940 -0.2185
12590SOL    HW140662   7.486   8.172   5.865  0.5881 -1.5610  1.7107
12590SOL    HW240663   7.594   8.171   5.758 -0.0903  0.9577  0.9402
12591SOL     OW40664   2.960   7.139   8.553  0.5950  0.8644 -0.0040
12591SOL    HW140665   3.006   7.207   8.601 -0.6870  1.0902  0.9553
12591SOL    HW240666   2.885   7.116   8.609  0.5622 -0.7731 -0.6655
12592SOL     OW40667   3.313   7.208   6.903  0.0416  0.3442 -0.0325
12592SOL    HW140668   3.228   7.168   6.888  0.3046 -0.2312  0.0019
12592SOL    HW240669   3.322   7.272   6.833 -1.0217  1.4115  0.7641
12593SOL     OW40670   4.193   7.595   2.630 -0.4703 -0.0131 -0.4372
12593SOL    HW140671   4.203   7.683   2.594 -1.0549  0.0970 -0.3253
12593SOL    HW240672   4.268   7.547   2.595  0.2331  0.7051  0.0513
12594SOL     OW40673   0.253   0.582   3.758 -0.1146 -0.1115  0.0943
12594SOL    HW140674   0.171   0.534   3.767  0.6849 -1.3651  0.8808
12594SOL    HW240675   0.289   0.587   3.847 -0.0207  1.7194  0.0071
12595SOL     OW40676   3.360   3.606   2.202  0.1861 -0.2413 -0.5246
12595SOL    HW140677   3.438   3.579   2.251 -0.4763  0.1644  0.8109
12595SOL    HW240678   3.380   3.583   2.112  1.1851 -1.6524  0.0095
12596SOL     OW40679   4.451   3.650   0.531 -0.9199  0.7643 -0.0124
12596SOL    HW140680   4.542   3.644   0.501 -0.7423 -0.5733  0.7161
12596SOL    HW240681   4.401   3.672   0.453  0.0251  1.5206 -0.4201
12597SOL     OW40682   9.045   0.781   2.168  0.0805  0.0353 -0.4032
12597SOL    HW140683   9.124   0.774   2.222  0.8443  1.5146 -1.2513
12597SOL    HW240684   9.046   0.701   2.114  1.3592  0.3163 -0.8397
12598SOL     OW40685   0.868   4.516   1.179 -0.1732  0.3695  0.2881
12598SOL    HW140686   0.836   4.606   1.170 -1.2391 -0.0921 -0.8469
12598SOL    HW240687   0.837   4.471   1.100  2.7858 -0.3081 -0.6156
12599SOL     OW40688   6.395   2.528   2.130 -0.7000 -0.2550  0.0456
12599SOL    HW140689   6.303   2.546   2.150 -0.8019 -1.3891  0.6837
12599SOL    HW240690   6.419   2.458   2.191  1.0144  1.0307  0.9075
12600SOL     OW40691   1.274   7.863   0.484  0.0554  0.5259 -0.0708
12600SOL    HW140692   1.307   7.807   0.554  0.4300  0.7105 -0.0923
12600SOL    HW240693   1.261   7.804   0.410 -0.7615  0.2583  0.2847
12601SOL     OW40694   2.508   3.203   1.849 -0.2804  0.1905  0.1412
12601SOL    HW140695   2.570   3.241   1.787  0.8238 -0.2699  0.9244
12601SOL    HW240696   2.426   3.249   1.833 -0.7341 -1.5624 -3.3362
12602SOL     OW40697   1.604   2.227   2.912  0.3513  0.0997 -0.2511
12602SOL    HW140698   1.571   2.177   2.838  1.3945 -2.1603  0.7051
12602SOL    HW240699   1.692   2.255   2.886  0.0847  0.7632 -0.4676
12603SOL     OW40700   2.442   4.303   2.500 -0.3873 -0.4213  0.5230
12603SOL    HW140701   2.459   4.238   2.569  0.1723  1.3519  2.1564
12603SOL    HW240702   2.515   4.365   2.507 -2.6382  2.3988  1.5862
12604SOL     OW40703   3.056   2.992   8.487 -0.6025 -0.1583  0.2051
12604SOL    HW140704   3.076   3.056   8.420  0.1107 -1.1613 -0.5703
12604SOL    HW240705   3.076   2.907   8.447 -2.0735 -0.9215  0.9794
12605SOL     OW40706   5.661   7.166   3.582 -0.0666  0.2901 -0.2025
12605SOL    HW140707   5.734   7.185   3.523  0.5833  1.3705  0.9175
12605SOL    HW240708   5.664   7.235   3.649 -1.8994  0.1572  0.0802
12606SOL     OW40709   6.371   3.603   0.859 -0.3615  0.4176  0.1210
12606SOL    HW140710   6.385   3.519   0.903 -0.3407  1.0701  1.4213
12606SOL    HW240711   6.284   3.631   0.888  0.3066  1.6125  1.0676
12607SOL     OW40712   7.213   7.495   5.392  0.0326 -0.4385 -0.6068
12607SOL    HW140713   7.162   7.572   5.368  0.9586  0.5940  0.5647
12607SOL    HW240714   7.298   7.509   5.349  0.3431 -0.5865 -0.0534
12608SOL     OW40715   1.674   3.596   8.755  0.8556  0.0745 -0.7103
12608SOL    HW140716   1.657   3.684   8.786 -1.7795  0.2166 -2.2824
12608SOL    HW240717   1.728   3.556   8.824 -0.4527  1.9280  1.5363
12609SOL     OW40718   8.364   8.611   4.970  0.3253 -0.2615  0.0050
12609SOL    HW140719   8.343   8.539   5.030 -0.0286 -0.1974 -0.0389
12609SOL    HW240720   8.343   8.690   5.019  1.0719 -0.1698  0.1901
12610SOL     OW40721   8.666   3.347   3.892 -0.0479 -0.5111  0.1732
12610SOL    HW140722   8.654   3.401   3.970  0.7245  1.5588 -1.0425
12610SOL    HW240723   8.759   3.355   3.872 -0.5178  0.5209 -1.9211
12611SOL     OW40724   1.215   5.751   6.366 -0.2287 -1.1126 -0.4978
12611SOL    HW140725   1.193   5.823   6.425  0.2079 -1.6241  0.3087
12611SOL    HW240726   1.241   5.679   6.424  0.0645 -1.6784 -1.3071
12612SOL     OW40727   3.990   5.762   2.877 -0.0184 -0.3586 -0.3290
12612SOL    HW140728   4.037   5.815   2.942  0.0969 -0.2635 -0.4879
12612SOL    HW240729   3.943   5.826   2.823 -0.6094 -0.4717  0.0405
12613SOL     OW40730   8.280   0.381   0.297 -0.3218 -0.4056  0.4278
12613SOL    HW140731   8.289   0.387   0.393  1.0867  2.2801  0.2243
12613SOL    HW240732   8.366   0.408   0.264 -1.1816 -0.0245 -1.6146
12614SOL     OW40733   6.002   7.691   0.633  0.1193 -0.4301  0.0920
12614SOL    HW140734   5.981   7.598   0.643 -0.0549 -0.3364  0.6676
12614SOL    HW240735   5.983   7.728   0.719  1.7119 -0.1583  0.3552
12615SOL     OW40736   5.964   1.645   8.981 -0.3516 -0.3259 -0.4703
12615SOL    HW140737   5.934   1.610   8.897 -0.1655 -0.4182 -0.4995
12615SOL    HW240738   5.941   1.738   8.977 -0.7536 -0.4228 -0.4353
12616SOL     OW40739   8.158   5.824   2.944 -0.0922  0.2892  0.1063
12616SOL    HW140740   8.179   5.762   2.874  0.0311 -0.4663  0.8009
12616SOL    HW240741   8.084   5.874   2.911  0.1176  0.1004 -0.6603
12617SOL     OW40742   1.674   0.001   6.043  0.1116 -0.2353 -0.6488
12617SOL    HW140743   1.756  -0.007   5.995  0.8371 -1.8515  0.7296
12617SOL    HW240744   1.652  -0.089   6.068 -2.2788  0.1018 -1.2443
12618SOL     OW40745   3.021   2.792   2.465 -0.2415 -0.5252 -0.2960
12618SOL    HW140746   3.041   2.812   2.374  2.7100 -0.6623  0.2221
12618SOL    HW240747   3.021   2.876   2.510 -2.3719 -0.3796 -0.4568
12619SOL     OW40748   3.975   1.269   0.267 -0.3141 -0.2445  0.0814
12619SOL    HW140749   3.924   1.348   0.253 -0.4370 -0.6922 -2.2820
12619SOL    HW240750   3.923   1.218   0.329 -0.7893  0.9840  0.7286
12620SOL     OW40751   5.879   4.930   3.457  0.1901  0.3206 -0.2634
12620SOL    HW140752   5.898   4.839   3.434 -1.0193  0.5407 -2.4014
12620SOL    HW240753   5.947   4.980   3.411  0.8739  0.5162  0.9347
12621SOL     OW40754   9.172   7.016   1.486  0.1523 -0.0291  0.3579
12621SOL    HW140755   9.242   7.046   1.427  0.1495 -1.1084 -0.2224
12621SOL    HW240756   9.092   7.047   1.445  0.2218  0.2620  0.4391
12622SOL     OW40757   9.054   3.709   3.300  0.0153 -0.1649 -0.4301
12622SOL    HW140758   8.970   3.712   3.254  1.1545 -1.0661 -2.6649
12622SOL    HW240759   9.073   3.616   3.309 -0.5110 -0.0796  2.6646
12623SOL     OW40760   3.647   0.481   3.201 -0.1783  0.6378  0.1987
12623SOL    HW140761   3.572   0.537   3.182  0.0327  0.9735  0.3544
12623SOL    HW240762   3.677   0.451   3.115  1.2675  2.7925 -0.0983
12624SOL     OW40763   1.675   2.574   0.799 -0.2414  0.0696 -0.6470
12624SOL    HW140764   1.654   2.500   0.856 -0.8297  0.9594  0.3150
12624SOL    HW240765   1.591   2.616   0.782  0.1967  1.1215 -0.3299
12625SOL     OW40766   0.875   5.046   1.692 -0.3783  0.5073 -0.3738
12625SOL    HW140767   0.875   5.006   1.778  0.2474  0.5613 -0.3484
12625SOL    HW240768   0.784   5.038   1.662 -0.6852  0.8209  0.4362
12626SOL     OW40769   2.038   6.733   5.492  0.2198 -0.1701  0.4569
12626SOL    HW140770   2.110   6.790   5.521  0.0333 -0.4068  1.4185
12626SOL    HW240771   2.063   6.646   5.523  0.3813 -0.5850 -0.7874
12627SOL     OW40772   8.111   1.836   8.449  0.0992 -0.3917 -0.1385
12627SOL    HW140773   8.161   1.767   8.405  0.5239  0.4552 -1.0167
12627SOL    HW240774   8.130   1.824   8.542 -0.8094 -2.2112 -0.1405
12628SOL     OW40775   5.910   2.704   6.068  0.3489 -0.4945 -0.3619
12628SOL    HW140776   5.911   2.609   6.052 -1.2645 -0.3729 -1.4182
12628SOL    HW240777   5.818   2.728   6.063  0.8565  1.4009 -1.7909
12629SOL     OW40778   0.583   1.024   4.877 -0.4133 -0.0062 -0.4361
12629SOL    HW140779   0.547   0.937   4.896  1.8422 -1.2457 -1.4057
12629SOL    HW240780   0.641   1.042   4.950 -0.0736  0.1886 -0.7509
12630SOL     OW40781   4.680   7.500   0.678 -0.4611  0.0423  0.0013
12630SOL    HW140782   4.618   7.573   0.686  2.0014  2.4392 -1.1498
12630SOL    HW240783   4.723   7.495   0.763  2.1369  2.7956 -0.9727
12631SOL     OW40784   9.123   5.907   2.312 -0.5087 -0.2907  0.3690
12631SOL    HW140785   9.098   5.922   2.403  0.3545  0.1790  0.5492
12631SOL    HW240786   9.110   5.814   2.298  1.2069 -0.7578  1.5923
12632SOL     OW40787   7.190   0.094   8.293  0.1543  0.2880  0.0807
12632SOL    HW140788   7.249   0.058   8.227 -0.1057  0.9015 -0.4947
12632SOL    HW240789   7.246   0.146   8.350  0.6097 -1.3183  1.1763
12633SOL     OW40790   8.677   0.068   8.549 -0.2681 -0.1071  0.0852
12633SOL    HW140791   8.610   0.042   8.487 -0.0591  0.6498 -0.4621
12633SOL    HW240792   8.719   0.144   8.510 -1.2604  1.4726  1.9240
12634SOL     OW40793   1.633   1.628   1.943  0.0114  0.8408  0.2521
12634SOL    HW140794   1.549   1.599   1.905 -0.4096  2.7157 -0.3242
12634SOL    HW240795   1.695   1.561   1.914 -1.0568  0.0249 -0.2800
12635SOL     OW40796   6.023   8.617   0.565 -0.6282 -0.4535 -0.0070
12635SOL    HW140797   5.956   8.663   0.616 -1.4124 -1.3528 -0.1900
12635SOL    HW240798   5.999   8.633   0.474  0.4914  0.7443 -0.1184
12636SOL     OW40799   3.092   8.744   7.284  0.5727  0.2150 -0.2386
12636SOL    HW140800   3.064   8.768   7.196 -1.7621 -0.1823  0.3374
12636SOL    HW240801   3.055   8.812   7.340  2.1351  0.5278  0.4549
12637SOL     OW40802   5.593   1.393   0.867  0.3922  0.2390  0.8294
12637SOL    HW140803   5.609   1.487   0.863 -0.7400  0.4451  0.6406
12637SOL    HW240804   5.574   1.367   0.777  0.0421 -0.0349  0.9773
12638SOL     OW40805   7.515   8.498   0.737  0.1432  0.6501 -0.3731
12638SOL    HW140806   7.564   8.516   0.816  0.5901  1.0871 -0.7494
12638SOL    HW240807   7.560   8.546   0.668  0.5671 -0.7920 -1.1543
12639SOL     OW40808   8.563   4.617   1.168  0.1320  0.3680  0.1285
12639SOL    HW140809   8.473   4.621   1.198 -0.1311 -0.7818 -0.4850
12639SOL    HW240810   8.597   4.706   1.184 -0.8056  0.5559  1.2208
12640SOL     OW40811   0.372   0.398   8.630 -0.0666  0.4596  0.0439
12640SOL    HW140812   0.337   0.322   8.583  0.0123 -0.2696  1.1347
12640SOL    HW240813   0.429   0.441   8.567  0.5831 -0.8874 -0.3257
12641SOL     OW40814   4.729   5.358   8.881 -0.1576 -0.3985  0.0235
12641SOL    HW140815   4.803   5.373   8.823 -0.0444  1.4512  0.5750
12641SOL    HW240816   4.678   5.439   8.876  0.4275  0.3351  3.2312
12642SOL     OW40817   0.912   5.978   1.094  0.4909 -0.0720  0.1783
12642SOL    HW140818   0.824   5.982   1.132  0.1289 -1.0711 -0.5227
12642SOL    HW240819   0.952   6.062   1.118 -1.5365  1.5345 -1.6826
12643SOL     OW40820   8.790   4.343   2.677  0.0527 -0.1984 -0.7476
12643SOL    HW140821   8.747   4.298   2.605  0.2544 -0.6748 -0.5735
12643SOL    HW240822   8.739   4.320   2.754  0.2676 -0.2816 -0.6297
12644SOL     OW40823   7.687   3.873   5.050 -0.5610  0.1053 -0.3050
12644SOL    HW140824   7.757   3.924   5.008  0.7327 -1.8665 -0.6710
12644SOL    HW240825   7.625   3.855   4.980 -0.0542 -0.4099 -0.6304
12645SOL     OW40826   4.810   5.397   2.241 -0.6707 -0.6641  1.1007
12645SOL    HW140827   4.835   5.460   2.173  0.8544 -0.5269  1.7422
12645SOL    HW240828   4.726   5.362   2.212 -0.5384  0.1383 -0.3306
12646SOL     OW40829   2.992   5.031   7.715 -0.0465  0.1088 -0.1226
12646SOL    HW140830   2.911   5.072   7.746  0.6604  0.6329  1.0722
12646SOL    HW240831   2.963   4.971   7.646 -1.5651 -0.3552  0.8620
12647SOL     OW40832   8.268   7.546   4.283 -0.0236  0.1821 -0.3308
12647SOL    HW140833   8.342   7.494   4.253 -0.6432 -1.0072  0.1312
12647SOL    HW240834   8.296   7.637   4.271  1.9747 -0.2025  0.9905
12648SOL     OW40835   6.309   2.549   8.184  0.0822  0.2466  0.2396
12648SOL    HW140836   6.256   2.606   8.129  0.8741 -0.5227 -1.3603
12648SOL    HW240837   6.255   2.471   8.197 -0.9019  1.1649  2.2330
12649SOL     OW40838   2.894   0.289   0.144 -0.4949  0.0386  0.4666
12649SOL    HW140839   2.867   0.214   0.197 -0.3715 -1.5678 -1.5918
12649SOL    HW240840   2.952   0.339   0.201  1.7859 -3.0061  1.0669
12650SOL     OW40841   6.392   8.972   6.822  0.3960 -0.8700 -0.5957
12650SOL    HW140842   6.469   8.961   6.877  0.1927  0.1604 -0.0743
12650SOL    HW240843   6.350   9.052   6.855 -0.9809 -1.4967 -0.7656
12651SOL     OW40844   0.469   3.790   5.471 -0.3526  0.1343 -0.2801
12651SOL    HW140845   0.465   3.712   5.526 -2.1428 -0.1202 -0.7206
12651SOL    HW240846   0.551   3.781   5.422 -0.7989 -1.7605 -0.7429
12652SOL     OW40847   2.104   8.382   2.385  0.1906 -0.6167  0.0163
12652SOL    HW140848   2.046   8.411   2.455 -0.6399 -1.3063 -0.3661
12652SOL    HW240849   2.121   8.290   2.404  1.8281 -0.2277  0.5633
12653SOL     OW40850   2.833   3.090   5.808  0.3396  0.1742  0.0481
12653SOL    HW140851   2.881   3.084   5.891  0.5215  3.1186  0.2508
12653SOL    HW240852   2.743   3.107   5.833  0.4793  1.5817 -0.2936
12654SOL     OW40853   2.687   0.295   4.707 -0.2750  0.1229  0.0279
12654SOL    HW140854   2.618   0.297   4.641 -1.5480  0.6677  1.3031
12654SOL    HW240855   2.769   0.295   4.657 -1.1608  1.4217 -1.5331
12655SOL     OW40856   1.630   8.087   2.671  0.0683 -0.2942 -0.2165
12655SOL    HW140857   1.682   8.139   2.731  3.6436 -2.7573 -0.8424
12655SOL    HW240858   1.574   8.033   2.727 -1.0618  1.5898  0.5336
12656SOL     OW40859   2.311   7.760   3.042  0.3827 -0.6185 -0.6389
12656SOL    HW140860   2.292   7.741   3.134 -1.9677 -0.1980 -0.9578
12656SOL    HW240861   2.269   7.689   2.993 -1.4285  0.9091 -1.4704
12657SOL     OW40862   4.853   7.049   4.645  0.1810  0.3286  0.0646
12657SOL    HW140863   4.759   7.068   4.638 -0.0502 -0.8139 -0.0451
12657SOL    HW240864   4.894   7.117   4.591 -0.5700  0.8812  0.1653
12658SOL     OW40865   1.945   2.728   8.250 -0.4485  0.1006 -0.2945
12658SOL    HW140866   1.866   2.681   8.225  0.8096 -1.8090 -0.9291
12658SOL    HW240867   2.003   2.720   8.174  0.8250  0.3328  0.6163
12659SOL     OW40868   2.717   8.784   2.066  0.4443  0.2140  0.1147
12659SOL    HW140869   2.706   8.694   2.097  0.2435  0.0013 -0.5760
12659SOL    HW240870   2.792   8.780   2.007 -0.0610  0.3418 -0.5433
12660SOL     OW40871   4.581   4.712   1.033  0.1344 -0.4037 -0.2184
12660SOL    HW140872   4.619   4.694   1.119 -2.1220  2.1317  1.4795
12660SOL    HW240873   4.620   4.794   1.005  0.5125 -0.9767 -1.4534
12661SOL     OW40874   7.614   7.355   1.740  0.4566  0.2104  0.2884
12661SOL    HW140875   7.585   7.267   1.718 -1.8264  0.8841  0.2767
12661SOL    HW240876   7.691   7.370   1.684  0.2263 -1.3697 -0.5020
12662SOL     OW40877   0.974   6.482   6.241 -0.3919 -0.3910 -0.0576
12662SOL    HW140878   0.888   6.459   6.278  0.5496 -0.9781  1.9231
12662SOL    HW240879   0.988   6.418   6.171 -1.0912 -0.9936  0.3362
12663SOL     OW40880   4.072   5.434   8.052  0.1728 -0.4218  0.4121
12663SOL    HW140881   4.110   5.437   7.964 -1.4928  0.4101 -0.3188
12663SOL    HW240882   4.140   5.470   8.109  0.8319  0.1913 -0.7284
12664SOL     OW40883   1.776   1.413   3.969  0.2540  0.2631 -0.3445
12664SOL    HW140884   1.701   1.382   4.021  0.3400  0.7225  0.0610
12664SOL    HW240885   1.849   1.358   3.997  0.3050  0.5234  0.0450
12665SOL     OW40886   1.935   0.193   8.977 -0.7497  0.1431 -0.0444
12665SOL    HW140887   1.953   0.211   9.070  2.0466 -0.5503 -0.3515
12665SOL    HW240888   1.869   0.125   8.978  1.3382 -2.0227  1.6229
12666SOL     OW40889   3.536   9.013   5.757  0.4744 -0.1234  0.4465
12666SOL    HW140890   3.482   8.934   5.753 -0.1278  0.3364 -2.0102
12666SOL    HW240891   3.522   9.047   5.846 -2.1354 -0.8048  0.3747
12667SOL     OW40892   4.342   7.204   2.077 -0.0507  0.8452  0.2259
12667SOL    HW140893   4.340   7.159   2.162  2.2463 -1.1146 -0.6548
12667SOL    HW240894   4.389   7.286   2.094  1.9571 -0.3170  0.6007
12668SOL     OW40895   2.206   3.514   9.229 -0.5266 -0.2573  0.4370
12668SOL    HW140896   2.144   3.492   9.159  1.1008 -0.2448 -1.0776
12668SOL    HW240897   2.267   3.440   9.230 -0.6514 -0.3788  2.0593
12669SOL     OW40898   6.027   7.673   1.491  0.0248  0.1371  0.3733
12669SOL    HW140899   6.056   7.763   1.478  0.0723  0.5793  2.9145
12669SOL    HW240900   6.052   7.628   1.411  3.4366  1.5400  0.4820
12670SOL     OW40901   4.624   8.874   7.648 -0.2860  0.1851  0.2674
12670SOL    HW140902   4.606   8.951   7.702  1.4135  1.5355 -0.9616
12670SOL    HW240903   4.546   8.863   7.594 -0.6307  0.9100  0.6092
12671SOL     OW40904   1.817   2.307   9.247 -0.6253 -0.0124  0.0104
12671SOL    HW140905   1.735   2.266   9.221  0.7493 -2.1540 -1.3189
12671SOL    HW240906   1.852   2.344   9.166 -0.7190  1.8685  0.7619
12672SOL     OW40907   8.570   5.885   4.023 -0.0872 -0.0247 -0.5139
12672SOL    HW140908   8.557   5.919   3.934  0.3421  0.4512 -0.4012
12672SOL    HW240909   8.632   5.813   4.012  2.0310  1.6497 -0.3344
12673SOL     OW40910   4.217   6.823   0.916  0.0749  0.3369  0.3791
12673SOL    HW140911   4.177   6.891   0.970 -1.3685 -1.1018  1.2090
12673SOL    HW240912   4.201   6.852   0.826 -0.5997  1.0526  0.7172
12674SOL     OW40913   4.213   4.779   7.674 -0.0536 -0.1346 -0.2898
12674SOL    HW140914   4.295   4.799   7.629  1.8593 -2.1668  1.9839
12674SOL    HW240915   4.228   4.806   7.764 -1.0696 -2.3986  0.6335
12675SOL     OW40916   2.784   7.513   3.202  0.4033 -0.4026 -0.5221
12675SOL    HW140917   2.863   7.550   3.162 -0.1078 -0.7030 -1.8528
12675SOL    HW240918   2.758   7.442   3.143 -0.7983 -0.3881 -0.0373
12676SOL     OW40919   6.299   7.240   6.015  0.3726 -0.1782  0.4095
12676SOL    HW140920   6.291   7.161   6.069  0.9629  0.2449  1.1421
12676SOL    HW240921   6.250   7.221   5.936 -0.6156 -0.7772  1.1534
12677SOL     OW40922   7.429   7.193   1.343 -0.1775  0.1338 -0.3712
12677SOL    HW140923   7.466   7.242   1.269  0.4121  1.3284  0.6797
12677SOL    HW240924   7.485   7.116   1.351 -1.5902 -1.2334 -2.5464
12678SOL     OW40925   6.433   2.383   5.658 -0.2568  0.4607  0.1164
12678SOL    HW140926   6.369   2.316   5.685 -0.2369 -0.3430 -1.6805
12678SOL    HW240927   6.382   2.464   5.654 -0.6458  0.2646  0.8158
12679SOL     OW40928   0.476   7.466   6.304  0.4870 -0.1565 -0.2339
12679SOL    HW140929   0.457   7.521   6.380 -0.0190 -0.0506 -0.4322
12679SOL    HW240930   0.461   7.377   6.334  0.2614 -0.1130 -0.2123
12680SOL     OW40931   8.106   3.220   8.091 -0.3314 -0.0194 -0.1790
12680SOL    HW140932   8.095   3.127   8.072 -0.4354  0.1984 -1.2339
12680SOL    HW240933   8.046   3.237   8.163  0.2968 -0.9460  0.5902
12681SOL     OW40934   2.662   0.609   5.942 -0.1100 -0.9092  0.5318
12681SOL    HW140935   2.745   0.584   5.983  0.4279 -1.9286 -1.0700
12681SOL    HW240936   2.688   0.655   5.862 -1.1211  1.0683  1.2766
12682SOL     OW40937   0.052   3.321   6.551 -0.3737  0.0208  0.4378
12682SOL    HW140938   0.015   3.291   6.634 -0.6471  0.7098  0.5727
12682SOL    HW240939   0.036   3.249   6.491  0.6431 -0.8741  1.1930
12683SOL     OW40940   2.902   3.228   6.603 -0.1965 -0.7155  0.4621
12683SOL    HW140941   2.902   3.180   6.520  0.3142  1.1203 -0.6816
12683SOL    HW240942   2.810   3.251   6.618 -0.6922 -3.2881  1.8625
12684SOL     OW40943   6.600   4.830   8.677 -0.1656 -0.3235 -0.7374
12684SOL    HW140944   6.611   4.797   8.588  2.4804  0.6756 -0.8766
12684SOL    HW240945   6.620   4.923   8.671  0.6872 -0.3501  0.9809
12685SOL     OW40946   4.047   4.953   4.142  0.2847 -0.0503  0.5419
12685SOL    HW140947   4.064   4.915   4.056  1.2100  0.2850  0.5618
12685SOL    HW240948   4.015   4.880   4.195 -2.3314  0.1425 -0.6202
12686SOL     OW40949   2.619   4.484   1.451 -0.6356  0.3513  0.0850
12686SOL    HW140950   2.668   4.488   1.368 -0.8286  3.8855 -0.0112
12686SOL    HW240951   2.528   4.477   1.424 -0.6189  0.3542  0.0257
12687SOL     OW40952   3.228   3.498   3.029  0.0818 -0.6164  0.6512
12687SOL    HW140953   3.218   3.450   2.946  0.6456 -0.3465  0.4222
12687SOL    HW240954   3.168   3.453   3.089 -0.4385 -0.7274  0.0645
12688SOL     OW40955   1.056   0.165   2.459 -0.0128 -0.1933 -0.4301
12688SOL    HW140956   1.068   0.164   2.364  0.2858  0.8203 -0.4169
12688SOL    HW240957   1.136   0.206   2.493  1.5837 -3.7185  0.5817
12689SOL     OW40958   0.802   8.296   5.343 -0.1323  0.6149  0.0683
12689SOL    HW140959   0.888   8.306   5.382 -0.6832 -1.9558  2.1801
12689SOL    HW240960   0.743   8.342   5.402 -0.4487  0.8606 -0.4248
12690SOL     OW40961   7.528   6.861   5.783 -0.3125  0.4897  0.7352
12690SOL    HW140962   7.550   6.768   5.786 -1.6619  0.1317  0.4741
12690SOL    HW240963   7.606   6.906   5.815  0.5188 -0.7027  0.4261
12691SOL     OW40964   9.028   1.739   7.510 -0.8616 -0.1741  0.1709
12691SOL    HW140965   9.073   1.822   7.494 -1.3364  0.2671  1.0189
12691SOL    HW240966   9.002   1.708   7.424 -2.8261  1.7892 -0.0382
12692SOL     OW40967   2.644   1.366   6.606 -0.2299 -0.8271 -0.1488
12692SOL    HW140968   2.708   1.315   6.656  1.7677  0.5680 -1.1230
12692SOL    HW240969   2.697   1.426   6.553 -2.3623  2.0798  0.7074
12693SOL     OW40970   5.194   4.926   5.870 -0.0960  0.0818 -0.0185
12693SOL    HW140971   5.284   4.909   5.898  0.1457  1.5497  0.1820
12693SOL    HW240972   5.199   5.007   5.821 -1.0347 -0.8075 -1.6638
12694SOL     OW40973   4.261   2.696   8.959 -0.2174 -0.1009  0.4337
12694SOL    HW140974   4.180   2.708   9.010 -0.9621 -0.8539 -0.5147
12694SOL    HW240975   4.267   2.601   8.947 -0.0581  0.0605 -0.8575
12695SOL     OW40976   0.139   2.499   8.603  0.2391  0.0391  0.0637
12695SOL    HW140977   0.044   2.494   8.607  0.2167 -0.7082 -1.0760
12695SOL    HW240978   0.157   2.571   8.542  0.3993 -0.1714 -0.1372
12696SOL     OW40979   2.609   1.286   2.007 -0.1282  0.3222 -0.0039
12696SOL    HW140980   2.647   1.357   1.955  0.3389  0.2703  0.2586
12696SOL    HW240981   2.585   1.220   1.943  2.6497 -0.7988 -0.0556
12697SOL     OW40982   5.330   5.135   6.053  0.4945 -0.8165 -0.3149
12697SOL    HW140983   5.421   5.160   6.071  0.4250 -0.6589 -0.1879
12697SOL    HW240984   5.280   5.215   6.065  0.6523 -0.2290 -2.9205
12698SOL     OW40985   3.887   0.557   9.219 -0.7089 -0.6398  0.3601
12698SOL    HW140986   3.874   0.646   9.184  0.4519 -0.1932  1.0085
12698SOL    HW240987   3.846   0.559   9.305 -0.5768 -0.6995  0.4237
12699SOL     OW40988   8.699   0.525   8.278  0.3515 -0.1541  0.1036
12699SOL    HW140989   8.663   0.491   8.196  0.7216 -1.9621  0.6285
12699SOL    HW240990   8.757   0.596   8.252 -1.6114  1.1314 -0.9563
12700SOL     OW40991   2.314   7.017   4.827 -0.1599 -0.6337 -1.2026
12700SOL    HW140992   2.253   6.943   4.829 -0.3454 -0.4668 -0.4162
12700SOL    HW240993   2.270   7.087   4.875  0.6226 -0.4906 -0.6699
12701SOL     OW40994   6.780   7.405   3.641  0.2150  0.3469  0.2462
12701SOL    HW140995   6.733   7.467   3.697  1.0292  0.3247  0.9748
12701SOL    HW240996   6.825   7.347   3.701  0.1557 -0.4319 -0.4397
12702SOL     OW40997   2.178   5.138   1.713  0.2833 -0.1824 -0.5257
12702SOL    HW140998   2.271   5.158   1.713  0.4698 -0.9108 -1.9784
12702SOL    HW240999   2.174   5.043   1.700 -0.6471  0.0854 -2.5788
12703SOL     OW41000   5.818   4.218   2.300  0.4371  0.1684  0.6034
12703SOL    HW141001   5.802   4.162   2.224  1.1310  1.3664 -0.4686
12703SOL    HW241002   5.733   4.259   2.318 -0.1379 -1.3541  1.5505
12704SOL     OW41003   9.083   1.387   0.141  0.2794 -0.2528  0.4719
12704SOL    HW141004   9.014   1.386   0.075  0.4703  1.3494  0.1978
12704SOL    HW241005   9.142   1.316   0.115  0.1500  0.0957 -0.8841
12705SOL     OW41006   7.671   2.060   8.938 -0.6725  0.3470 -0.3532
12705SOL    HW141007   7.741   2.124   8.922 -0.6564 -0.0527 -2.1805
12705SOL    HW241008   7.663   2.014   8.854 -1.5969 -1.1363  0.5225
12706SOL     OW41009   7.173   6.879   4.126 -0.1662 -0.2067  0.6468
12706SOL    HW141010   7.128   6.963   4.129 -0.5024 -0.3417 -0.2956
12706SOL    HW241011   7.131   6.832   4.055  1.3174 -0.4345 -0.1152
12707SOL     OW41012   5.035   6.399   0.263  0.1910  0.2390  0.0993
12707SOL    HW141013   5.096   6.359   0.201 -0.4428 -1.2432  0.3831
12707SOL    HW241014   5.037   6.492   0.242  0.3162 -0.1588 -1.8642
12708SOL     OW41015   3.701   6.371   3.835 -0.1422 -0.4062 -0.6776
12708SOL    HW141016   3.750   6.363   3.916 -2.3797 -2.1260  0.6375
12708SOL    HW241017   3.709   6.463   3.811  0.3863  0.2325  1.6681
12709SOL     OW41018   6.251   8.069   7.119 -0.3109 -0.1898  0.0011
12709SOL    HW141019   6.176   8.123   7.142  0.8165  0.7593  1.6714
12709SOL    HW241020   6.271   8.093   7.029 -1.9307 -0.4116 -0.4492
12710SOL     OW41021   9.067   7.181   1.936 -0.1075 -0.2267  0.0322
12710SOL    HW141022   9.137   7.117   1.930  0.1369  0.1535 -1.6121
12710SOL    HW241023   9.021   7.175   1.852 -0.5765  1.1725  0.1537
12711SOL     OW41024   7.934   4.426   3.944  0.8281 -0.5320 -0.3937
12711SOL    HW141025   7.908   4.450   3.855  0.8265 -0.4645 -0.3756
12711SOL    HW241026   7.964   4.336   3.938  2.7887  0.1036 -0.8571
12712SOL     OW41027   4.719   8.799   3.044 -0.0410 -0.2415  0.1821
12712SOL    HW141028   4.655   8.843   2.989  0.9832  1.1543  0.0419
12712SOL    HW241029   4.794   8.859   3.046  1.1657 -1.7034  0.5357
12713SOL     OW41030   3.038   6.397   6.521  0.2299  0.0390  0.2650
12713SOL    HW141031   3.037   6.398   6.617  1.8007  1.2666  0.3197
12713SOL    HW241032   3.008   6.485   6.496 -0.1904 -0.2798 -0.3892
12714SOL     OW41033   0.210   7.788   4.024  0.1248  0.1134 -0.1788
12714SOL    HW141034   0.281   7.808   4.085 -0.0937  0.1429  0.0674
12714SOL    HW241035   0.253   7.744   3.951  0.1466 -2.0401  1.0117
12715SOL     OW41036   3.525   7.642   7.746  0.5492 -0.0292 -0.2774
12715SOL    HW141037   3.512   7.729   7.784  0.3899  0.0801 -0.5796
12715SOL    HW241038   3.575   7.595   7.812  0.5452  0.2584 -0.0648
12716SOL     OW41039   3.297   8.265   4.932 -0.0828  0.3311 -0.4501
12716SOL    HW141040   3.288   8.348   4.980  0.5466  0.6945 -0.9360
12716SOL    HW241041   3.224   8.266   4.870  0.0294  0.6196 -0.5824
12717SOL     OW41042   4.669   5.351   7.030  0.1826 -0.3656 -0.0534
12717SOL    HW141043   4.610   5.296   7.080 -0.3065 -0.0985 -0.3229
12717SOL    HW241044   4.755   5.340   7.071 -0.0967 -0.6054  0.4624
12718SOL     OW41045   0.238   7.379   4.748 -0.5071 -0.4823 -0.0563
12718SOL    HW141046   0.204   7.373   4.837  0.7395  0.2931  0.4895
12718SOL    HW241047   0.202   7.301   4.704 -1.6660 -0.5326  0.9170
12719SOL     OW41048   2.318   3.737   7.838 -0.1943 -0.1987 -0.4008
12719SOL    HW141049   2.230   3.752   7.873 -0.5018 -1.2521 -0.6678
12719SOL    HW241050   2.376   3.777   7.902 -0.8401 -0.1368  0.1633
12720SOL     OW41051   3.804   8.877   2.119  0.6517  0.3540 -0.1768
12720SOL    HW141052   3.791   8.902   2.210 -0.8855 -2.4410  0.5035
12720SOL    HW241053   3.892   8.907   2.098  0.3707  2.6638  1.6170
12721SOL     OW41054   1.619   6.990   4.348 -0.3848 -0.2499 -0.9490
12721SOL    HW141055   1.563   7.027   4.280 -1.6035 -0.1724  0.0648
12721SOL    HW241056   1.675   6.927   4.301 -0.2519  0.7815 -2.2234
12722SOL     OW41057   8.161   3.031   5.487  0.2258  0.1619  0.2703
12722SOL    HW141058   8.149   2.938   5.469 -1.5379  0.0303  1.8356
12722SOL    HW241059   8.218   3.034   5.563  0.5777  0.3754 -0.0003
12723SOL     OW41060   8.390   7.782   7.100  0.3876 -0.1704  0.0957
12723SOL    HW141061   8.305   7.787   7.056  0.8313  1.3687 -0.6697
12723SOL    HW241062   8.413   7.874   7.118  2.1736 -0.5017 -0.2886
12724SOL     OW41063   4.810   5.854   5.949  0.2630  0.2968 -0.6082
12724SOL    HW141064   4.743   5.853   5.882  2.8321 -2.9177 -3.5076
12724SOL    HW241065   4.765   5.828   6.029 -2.1459 -0.3961 -2.0972
12725SOL     OW41066   0.049   8.217   4.611 -0.6856  0.1138  0.4969
12725SOL    HW141067   0.037   8.212   4.516  0.6902 -0.9641  0.3481
12725SOL    HW241068   0.007   8.299   4.636 -0.6994  0.6346 -1.1049
12726SOL     OW41069   3.933   3.525   1.350  0.2590  0.3445  0.0977
12726SOL    HW141070   3.866   3.461   1.377 -0.3089  0.7985 -0.2025
12726SOL    HW241071   4.015   3.491   1.385  0.0585 -0.8529 -0.5663
12727SOL     OW41072   1.320   3.173   5.290 -0.1153 -0.1103 -0.2032
12727SOL    HW141073   1.268   3.251   5.311  0.3140 -0.3389  1.9559
12727SOL    HW241074   1.402   3.208   5.257 -0.0912  0.3562  0.3357
12728SOL     OW41075   4.888   7.623   0.049  0.0803 -0.7408  0.3008
12728SOL    HW141076   4.955   7.673   0.003 -0.3572  0.2997  0.7568
12728SOL    HW241077   4.934   7.546   0.082  0.6436 -0.9291 -0.8857
12729SOL     OW41078   3.692   1.759   8.221 -0.2195  0.5750  0.2098
12729SOL    HW141079   3.716   1.698   8.151 -0.6684  1.4225 -0.7047
12729SOL    HW241080   3.615   1.719   8.262  0.8753 -0.6292  1.1752
12730SOL     OW41081   4.168   7.367   2.897 -0.1613 -0.5928  0.4269
12730SOL    HW141082   4.259   7.365   2.869 -0.0303 -2.1110  0.8698
12730SOL    HW241083   4.131   7.444   2.853  1.1670 -0.3028 -0.2376
12731SOL     OW41084   6.982   6.325   1.107  0.3611  0.9209  0.1984
12731SOL    HW141085   6.910   6.291   1.053 -0.3126 -0.6428  1.9562
12731SOL    HW241086   7.053   6.262   1.094  0.4496  0.9428  0.5701
12732SOL     OW41087   7.918   0.386   6.707 -0.5605 -0.1687 -0.6210
12732SOL    HW141088   7.921   0.387   6.803 -1.2587  0.3559 -0.5958
12732SOL    HW241089   7.990   0.329   6.681 -0.4348 -0.4033  0.2209
12733SOL     OW41090   5.767   3.067   0.274 -0.1022  0.5731  0.0234
12733SOL    HW141091   5.804   3.146   0.313 -0.1395  0.6058 -0.0081
12733SOL    HW241092   5.693   3.098   0.222  1.8065  0.9295 -2.7107
12734SOL     OW41093   6.236   8.942   7.193  0.0401  1.2794 -0.3742
12734SOL    HW141094   6.190   8.871   7.147 -0.6472 -0.3292  2.5768
12734SOL    HW241095   6.328   8.932   7.168 -0.0452 -0.6886 -0.0378
12735SOL     OW41096   0.619   1.412   8.858  0.5784  0.7614 -0.5413
12735SOL    HW141097   0.608   1.334   8.803 -0.8014 -0.0806  0.8426
12735SOL    HW241098   0.698   1.394   8.909  0.7484  0.6559 -0.8393
12736SOL     OW41099   0.712   3.371   6.027  0.1865  0.9599 -0.5055
12736SOL    HW141100   0.731   3.333   6.113 -1.2538 -1.0933 -1.0160
12736SOL    HW241101   0.637   3.428   6.043  1.2700  2.3263 -0.0578
12737SOL     OW41102   7.134   0.740   3.866  0.1513  0.0439 -0.0033
12737SOL    HW141103   7.214   0.744   3.918  1.5184  1.3262 -2.0595
12737SOL    HW241104   7.130   0.649   3.836  0.7143 -0.0873  0.3089
12738SOL     OW41105   6.140   8.321   5.139  0.2444  0.3651  0.2438
12738SOL    HW141106   6.131   8.320   5.235  0.5664 -0.9422  0.2824
12738SOL    HW241107   6.066   8.269   5.108  0.5120  0.2367 -0.1765
12739SOL     OW41108   4.248   5.200   2.082  0.1432 -0.1038 -0.2854
12739SOL    HW141109   4.334   5.158   2.076 -1.0391 -2.6722 -0.7726
12739SOL    HW241110   4.227   5.198   2.175 -0.5923 -2.2791 -0.4444
12740SOL     OW41111   5.418   6.133   2.112  0.0773 -0.5471 -0.0979
12740SOL    HW141112   5.443   6.167   2.026 -1.8027  0.1201 -0.4397
12740SOL    HW241113   5.459   6.193   2.174  0.0491 -0.0102 -0.5906
12741SOL     OW41114   1.357   8.568   8.333  0.4146  0.2947  0.1747
12741SOL    HW141115   1.310   8.631   8.388 -1.2519  0.6175 -1.5159
12741SOL    HW241116   1.353   8.486   8.383 -0.1443  0.8006  1.0052
12742SOL     OW41117   4.996   1.245   1.690 -0.4471 -0.1227 -0.4029
12742SOL    HW141118   5.021   1.293   1.768  1.6846  0.8469 -1.5974
12742SOL    HW241119   5.052   1.168   1.689 -1.6471 -1.0299 -0.1420
12743SOL     OW41120   9.168   7.828   5.314  0.0143  0.4881  0.0551
12743SOL    HW141121   9.141   7.827   5.222  0.7481 -0.3878 -0.1628
12743SOL    HW241122   9.176   7.921   5.335 -1.3978  0.7407 -0.3860
12744SOL     OW41123   8.529   8.725   7.055 -0.3707 -0.0758  0.4370
12744SOL    HW141124   8.597   8.785   7.085  0.5965 -1.1918  0.5543
12744SOL    HW241125   8.521   8.660   7.125 -2.2957  0.5639  0.8929
12745SOL     OW41126   6.954   1.302   2.126  0.2721 -0.6514 -0.4262
12745SOL    HW141127   6.964   1.395   2.109 -3.0805 -0.2098 -0.6834
12745SOL    HW241128   7.043   1.266   2.120  2.1209  2.8403  2.1561
12746SOL     OW41129   5.703   1.380   5.465 -0.4046  0.3182  0.1646
12746SOL    HW141130   5.651   1.385   5.546  1.1365  0.1074  1.2114
12746SOL    HW241131   5.756   1.460   5.466 -1.7107  1.2812 -1.6553
12747SOL     OW41132   8.187   8.363   2.209 -0.0000 -0.2798 -0.1983
12747SOL    HW141133   8.234   8.316   2.140 -0.7213 -0.2132 -0.7412
12747SOL    HW241134   8.177   8.298   2.279  0.2160 -0.5210 -0.3853
12748SOL     OW41135   3.852   1.771   5.684  0.0463  0.2650 -0.0643
12748SOL    HW141136   3.889   1.690   5.647  2.0425 -0.4270  3.0559
12748SOL    HW241137   3.900   1.841   5.640 -0.5789 -0.2550 -1.6645
12749SOL     OW41138   8.460   9.178   5.150 -0.6228  0.0732  0.1495
12749SOL    HW141139   8.459   9.113   5.080 -0.1470 -1.2787  1.3415
12749SOL    HW241140   8.549   9.213   5.149 -0.2587 -0.8107  0.8241
12750SOL     OW41141   1.221   9.151   5.438  0.6419  0.0405 -0.5843
12750SOL    HW141142   1.182   9.116   5.518  1.0498  2.6901  0.9076
12750SOL    HW241143   1.310   9.115   5.436 -0.0701 -1.7667 -1.0801
12751SOL     OW41144   1.910   3.714   3.259  0.0179 -0.1439  0.5764
12751SOL    HW141145   1.819   3.702   3.233 -0.4450  1.3343  1.4290
12751SOL    HW241146   1.960   3.676   3.187 -1.2500  1.0491 -0.9947
12752SOL     OW41147   6.180   4.466   2.603 -0.0596  0.2522  0.1193
12752SOL    HW141148   6.255   4.515   2.571  0.0872  1.8267  2.5588
12752SOL    HW241149   6.209   4.375   2.606  0.9067  0.4981 -1.1431
12753SOL     OW41150   2.387   8.529   7.802  0.3232 -0.5283 -0.0602
12753SOL    HW141151   2.315   8.533   7.865  0.8950  1.5697  0.5341
12753SOL    HW241152   2.356   8.582   7.728  0.0344 -2.2123 -1.2290
12754SOL     OW41153   8.690   6.448   4.417  0.0917 -0.2217  0.1454
12754SOL    HW141154   8.609   6.433   4.466  0.4292  0.2419  0.8626
12754SOL    HW241155   8.717   6.537   4.442  2.0388 -1.1873  1.7313
12755SOL     OW41156   1.306   0.441   3.533  0.1213 -0.6340  0.3150
12755SOL    HW141157   1.342   0.467   3.448 -1.7348  0.4777 -0.1756
12755SOL    HW241158   1.325   0.348   3.539 -1.4026 -1.2164 -2.2579
12756SOL     OW41159   7.842   5.854   2.688  0.1837  0.9355 -0.6245
12756SOL    HW141160   7.761   5.826   2.646  0.0296 -0.9133  0.7307
12756SOL    HW241161   7.911   5.801   2.647  0.3833  0.9233 -0.2831
12757SOL     OW41162   1.106   0.296   7.544  0.6029 -0.2260 -0.2455
12757SOL    HW141163   1.106   0.203   7.566  0.2670  0.0096  0.8299
12757SOL    HW241164   1.031   0.307   7.486  1.4103 -0.8433 -1.4294
12758SOL     OW41165   0.601   8.724   7.324 -0.0326 -0.3610 -0.0487
12758SOL    HW141166   0.679   8.717   7.270  2.3781  0.2221  3.0763
12758SOL    HW241167   0.561   8.807   7.299  1.9601  0.7136  0.1719
12759SOL     OW41168   8.149   6.234   4.609  0.3877 -0.8210 -0.2844
12759SOL    HW141169   8.167   6.320   4.572 -0.5094 -0.7586 -0.6095
12759SOL    HW241170   8.227   6.213   4.661  0.7025  0.0894 -0.3684
12760SOL     OW41171   9.224   4.852   3.190 -0.0925 -0.0401  0.1810
12760SOL    HW141172   9.210   4.819   3.101 -0.0748  0.4332 -0.0028
12760SOL    HW241173   9.206   4.946   3.183 -1.6309 -0.2549  1.0263
12761SOL     OW41174   9.068   5.287   3.820  0.2345 -0.6063  0.0649
12761SOL    HW141175   9.131   5.305   3.889 -1.2073 -1.4783  1.7065
12761SOL    HW241176   9.070   5.191   3.811 -2.2425 -0.9365  1.7048
12762SOL     OW41177   4.675   4.995   3.444 -0.0606  0.2134  0.1123
12762SOL    HW141178   4.680   5.007   3.539  0.4526 -0.9707  0.2606
12762SOL    HW241179   4.756   4.949   3.422 -0.5489 -0.2544 -0.7718
12763SOL     OW41180   3.403   0.469   2.688  0.5521 -0.0040  0.1288
12763SOL    HW141181   3.338   0.504   2.749  0.2173  0.5332 -0.5234
12763SOL    HW241182   3.483   0.517   2.708  0.8362 -0.8689  1.1278
12764SOL     OW41183   6.242   5.162   9.100 -0.5091  0.3254  0.6135
12764SOL    HW141184   6.334   5.186   9.105 -0.3133 -0.4548  0.9162
12764SOL    HW241185   6.217   5.141   9.190 -0.5305 -1.0442  0.3165
12765SOL     OW41186   0.135   5.808   5.828  0.3434  0.9371  0.0111
12765SOL    HW141187   0.186   5.786   5.907  0.5185  1.5515  0.0777
12765SOL    HW241188   0.052   5.840   5.862  0.1426  0.5104 -0.0789
12766SOL     OW41189   2.857   7.022   0.181 -0.3066  0.3188 -0.0449
12766SOL    HW141190   2.913   6.945   0.173  0.4021  0.9787 -2.0858
12766SOL    HW241191   2.772   6.994   0.145  0.0315  0.5290 -1.0451
12767SOL     OW41192   2.262   7.886   0.641 -0.6678  0.0683  0.0498
12767SOL    HW141193   2.261   7.950   0.712 -0.4286 -0.0312  0.1443
12767SOL    HW241194   2.338   7.909   0.588 -0.6874 -0.0232 -0.0198
12768SOL     OW41195   5.369   4.959   7.741 -0.0886  0.1486  0.0855
12768SOL    HW141196   5.320   5.000   7.812 -0.5522 -0.8036  0.3349
12768SOL    HW241197   5.377   5.027   7.675 -1.1349  0.5428  0.3478
12769SOL     OW41198   2.967   5.204   1.827 -0.1369  0.5619 -0.3577
12769SOL    HW141199   2.939   5.117   1.854  0.2520  0.1480 -1.2529
12769SOL    HW241200   2.890   5.260   1.839 -0.0968  0.3413  1.2264
12770SOL     OW41201   4.486   3.526   6.961 -0.0322 -0.1125 -0.2815
12770SOL    HW141202   4.439   3.442   6.966 -0.0747 -0.0391  0.7425
12770SOL    HW241203   4.486   3.547   6.868 -0.9740 -0.7179 -0.4358
12771SOL     OW41204   7.657   3.928   6.482 -0.4002  0.6995  0.1679
12771SOL    HW141205   7.567   3.959   6.490 -1.7679 -2.3736 -1.3567
12771SOL    HW241206   7.654   3.840   6.519  1.9747  0.4991 -0.0038
12772SOL     OW41207   6.166   7.368   2.492 -0.3762 -0.2584 -0.2664
12772SOL    HW141208   6.208   7.331   2.569 -0.1816 -1.4869 -0.9411
12772SOL    HW241209   6.107   7.299   2.461 -0.9387  0.4633 -0.8440
12773SOL     OW41210   6.934   8.800   5.317  0.3062 -0.3836 -0.1213
12773SOL    HW141211   6.915   8.779   5.225  2.3654  0.8086 -0.8792
12773SOL    HW241212   6.979   8.724   5.351  0.8224 -0.2635 -0.5348
12774SOL     OW41213   4.561   2.195   3.061 -0.1804 -0.6330  0.2486
12774SOL    HW141214   4.557   2.187   2.966 -3.9714 -0.9354  0.2741
12774SOL    HW241215   4.607   2.117   3.090 -0.7439 -1.5799 -1.2802
12775SOL     OW41216   2.374   5.675   3.563 -0.2121 -0.0262  0.4686
12775SOL    HW141217   2.415   5.683   3.477  0.4257  1.0961  0.8646
12775SOL    HW241218   2.334   5.588   3.562 -0.3897  0.0466 -1.0321
12776SOL     OW41219   4.243   6.080   9.056 -0.0589  0.1265 -0.7609
12776SOL    HW141220   4.257   6.003   9.111  0.4241  0.8626  0.1852
12776SOL    HW241221   4.224   6.045   8.969  0.2661 -1.0519 -0.3745
12777SOL     OW41222   8.378   5.630   5.185  0.3911 -0.5630  0.3579
12777SOL    HW141223   8.434   5.696   5.228  1.9415 -0.2421 -1.9606
12777SOL    HW241224   8.334   5.679   5.116 -0.5968 -1.4393  0.3518
12778SOL     OW41225   9.215   1.689   9.043 -0.0176  0.0305 -0.0557
12778SOL    HW141226   9.155   1.616   9.030 -1.1372 -0.0908  4.3711
12778SOL    HW241227   9.162   1.768   9.031 -0.2506 -0.0098  0.7008
12779SOL     OW41228   6.651   9.255   0.998 -0.1433 -0.2930  0.3651
12779SOL    HW141229   6.638   9.160   0.999 -0.0896 -0.3015  0.2837
12779SOL    HW241230   6.695   9.273   0.915 -1.4710 -0.0331 -0.3110
12780SOL     OW41231   5.140   3.046   3.339  0.4871  0.1974  0.1218
12780SOL    HW141232   5.183   2.978   3.286  1.3953  0.9358 -0.1161
12780SOL    HW241233   5.131   3.007   3.426 -1.6876 -1.3170 -0.6778
12781SOL     OW41234   9.074   2.725   8.724 -0.1488 -0.0410  0.1913
12781SOL    HW141235   9.071   2.798   8.661 -3.0272 -0.0305  0.2142
12781SOL    HW241236   9.096   2.648   8.671 -2.5973 -0.0419 -0.9281
12782SOL     OW41237   1.876   3.752   7.168  0.2188  0.1857 -0.4336
12782SOL    HW141238   1.830   3.722   7.247  1.7419 -2.6103 -0.4699
12782SOL    HW241239   1.964   3.775   7.199  0.9713 -1.3629 -1.3109
12783SOL     OW41240   3.672   0.739   2.630  0.0789 -0.1198 -0.1056
12783SOL    HW141241   3.596   0.786   2.664  0.8472  0.4429  0.8795
12783SOL    HW241242   3.652   0.726   2.537 -0.3113  1.8878 -0.3465
12784SOL     OW41243   5.653   0.273   1.675 -0.0158 -0.1451  0.2237
12784SOL    HW141244   5.567   0.233   1.684 -0.3572  0.6184  0.4383
12784SOL    HW241245   5.714   0.208   1.712 -0.2920 -1.3911 -1.3871
12785SOL     OW41246   6.221   2.981   2.356  0.1768 -0.0372 -0.2252
12785SOL    HW141247   6.184   3.014   2.438  0.4612  2.2428 -0.9576
12785SOL    HW241248   6.189   3.042   2.289 -0.0642 -1.8553 -1.8466
12786SOL     OW41249   2.982   7.019   7.416 -0.0666 -0.1827 -0.3770
12786SOL    HW141250   2.990   7.106   7.378  0.5057 -0.4225 -0.8260
12786SOL    HW241251   3.064   6.975   7.392  0.3501 -0.3243  1.1875
12787SOL     OW41252   5.118   1.189   4.895 -0.0924  0.3316  0.0857
12787SOL    HW141253   5.211   1.168   4.887 -0.2811 -0.9256  0.8968
12787SOL    HW241254   5.115   1.284   4.891  1.0462  0.3401 -1.6953
12788SOL     OW41255   5.463   6.238   6.075 -0.0784  1.0437 -0.2222
12788SOL    HW141256   5.484   6.159   6.026  0.9358  1.6625 -0.7971
12788SOL    HW241257   5.450   6.207   6.165 -0.5795  0.1101 -0.5957
12789SOL     OW41258   0.408   6.551   6.339  0.4630  0.2922  0.4993
12789SOL    HW141259   0.340   6.619   6.339  2.5081  2.4853  0.1290
12789SOL    HW241260   0.390   6.500   6.418 -0.8495  1.6177  1.1172
12790SOL     OW41261   6.327   8.154   6.327 -0.4794  0.4200 -0.7000
12790SOL    HW141262   6.348   8.201   6.408 -1.0167  1.6471 -1.2438
12790SOL    HW241263   6.237   8.126   6.338  0.7006 -3.5137  0.9923
12791SOL     OW41264   7.357   8.288   0.657  0.2281  0.0125  0.2973
12791SOL    HW141265   7.293   8.247   0.715 -1.3664  0.2940 -1.1969
12791SOL    HW241266   7.414   8.338   0.716 -1.4145  0.4098  1.6313
12792SOL     OW41267   2.987   1.454   7.644 -0.6251  0.0957  0.7027
12792SOL    HW141268   2.936   1.397   7.586 -1.9827 -0.0306  1.9561
12792SOL    HW241269   3.038   1.509   7.584 -0.9752 -0.9187 -0.5732
12793SOL     OW41270   4.292   1.297   7.748 -0.3000  0.3830 -0.2005
12793SOL    HW141271   4.247   1.328   7.670 -3.1932 -1.7963  0.4360
12793SOL    HW241272   4.260   1.353   7.819 -3.1389 -1.7776  0.4276
12794SOL     OW41273   8.235   3.714   3.597 -0.1436 -0.3989 -0.1955
12794SOL    HW141274   8.146   3.736   3.624 -0.0090 -0.8645  0.6510
12794SOL    HW241275   8.275   3.675   3.674  0.1651 -2.0752 -1.1549
12795SOL     OW41276   6.992   5.372   6.592  0.2089  0.0388  0.6117
12795SOL    HW141277   7.038   5.366   6.508 -0.2783 -0.1418  0.3558
12795SOL    HW241278   6.958   5.461   6.594 -2.6078 -0.8880 -0.8970
12796SOL     OW41279   3.925   4.154   3.925  0.2139 -0.4899 -0.2238
12796SOL    HW141280   3.983   4.212   3.876  0.9326  0.0759  1.2576
12796SOL    HW241281   3.839   4.195   3.920  0.4126 -0.0999 -0.4492
12797SOL     OW41282   4.648   2.471   3.112  0.0667  0.1638 -0.0196
12797SOL    HW141283   4.587   2.522   3.166  0.6007 -1.3663  2.2029
12797SOL    HW241284   4.610   2.383   3.112  0.8517 -0.1818 -0.9465
12798SOL     OW41285   8.801   4.196   1.577 -0.0409 -0.1428  0.0857
12798SOL    HW141286   8.756   4.122   1.538 -0.9831  0.9061 -0.8888
12798SOL    HW241287   8.829   4.165   1.664 -2.4742 -0.9076  0.6591
12799SOL     OW41288   0.695   8.729   7.770  0.7052 -0.0099 -0.0614
12799SOL    HW141289   0.747   8.652   7.747  0.0817 -0.8896  1.3403
12799SOL    HW241290   0.617   8.722   7.716  1.2913  0.4259 -0.9781
12800SOL     OW41291   8.432   5.965   5.758 -0.2541  0.4713 -0.0958
12800SOL    HW141292   8.500   5.985   5.694  1.2162 -0.5920  1.0583
12800SOL    HW241293   8.450   5.875   5.785 -1.3591  0.5952  1.1845
12801SOL     OW41294   2.406   8.397   8.219  0.1877  0.4613 -0.4273
12801SOL    HW141295   2.385   8.488   8.198 -0.3215  0.6187  0.7238
12801SOL    HW241296   2.322   8.354   8.229  0.4153 -0.2937 -1.4990
12802SOL     OW41297   4.229   5.649   1.292  0.4802  0.0660  0.1526
12802SOL    HW141298   4.239   5.589   1.218  1.1020 -0.1752  0.4240
12802SOL    HW241299   4.279   5.726   1.267 -0.6297  0.6433 -0.3600
12803SOL     OW41300   0.881   6.422   0.891 -0.3887 -0.2200  0.3237
12803SOL    HW141301   0.842   6.354   0.945 -0.7483 -1.1314 -1.0169
12803SOL    HW241302   0.975   6.407   0.898 -0.4642 -0.8855  0.0341
12804SOL     OW41303   8.053   3.937   2.904  0.3653  0.2513 -0.1811
12804SOL    HW141304   8.072   4.031   2.908 -1.4507  0.6634 -0.4635
12804SOL    HW241305   7.989   3.922   2.973  0.3398 -0.7060 -0.3965
12805SOL     OW41306   4.472   7.388   7.171 -0.2692  0.0887 -0.0872
12805SOL    HW141307   4.447   7.343   7.251 -0.3320  2.2115  1.1782
12805SOL    HW241308   4.556   7.429   7.193  0.6853 -0.8452 -1.7856
12806SOL     OW41309   3.282   1.329   5.675 -0.2535 -0.1018  0.3301
12806SOL    HW141310   3.321   1.252   5.633  0.6632  1.3892 -1.7593
12806SOL    HW241311   3.189   1.308   5.681 -0.3325 -0.6865 -1.9827
12807SOL     OW41312   0.947   6.989   6.461 -0.1871  0.2226  0.4386
12807SOL    HW141313   1.007   7.063   6.463  0.9175 -0.6375  2.8360
12807SOL    HW241314   0.890   7.002   6.537 -0.2749 -1.1519  0.6357
12808SOL     OW41315   5.670   5.430   8.903  0.0719  0.4934 -0.3742
12808SOL    HW141316   5.601   5.493   8.921  1.3760  1.6945  0.6184
12808SOL    HW241317   5.670   5.372   8.979 -1.2367 -0.8848 -1.3591
12809SOL     OW41318   2.478   8.255   8.803  0.5565 -0.4612 -0.2446
12809SOL    HW141319   2.512   8.342   8.825  0.6295 -0.2869 -1.0138
12809SOL    HW241320   2.495   8.246   8.709 -2.0429 -0.1280 -0.8163
12810SOL     OW41321   4.975   6.006   5.186 -0.1530 -0.5976  0.9333
12810SOL    HW141322   4.936   5.919   5.172  0.4257 -0.6652 -0.4212
12810SOL    HW241323   4.990   6.010   5.281  0.7616 -2.4057  0.9157
12811SOL     OW41324   2.966   3.196   0.208  0.1748  0.1083 -0.1320
12811SOL    HW141325   2.930   3.138   0.141 -3.5494  0.3620  1.3808
12811SOL    HW241326   2.956   3.284   0.172 -0.6135  0.1634  0.1939
12812SOL     OW41327   8.219   1.589   3.998  0.2696 -0.1036  0.0372
12812SOL    HW141328   8.224   1.525   4.070  0.2306  0.3907  0.4864
12812SOL    HW241329   8.249   1.671   4.037 -0.7800  0.4155 -0.2124
12813SOL     OW41330   2.119   5.203   5.855 -0.0188 -0.8134 -0.4302
12813SOL    HW141331   2.065   5.275   5.824 -0.2719 -0.4737  0.7440
12813SOL    HW241332   2.150   5.231   5.941  2.4274 -0.7786 -1.2220
12814SOL     OW41333   0.113   8.855   8.785 -0.2174 -0.3247  0.1883
12814SOL    HW141334   0.095   8.783   8.846 -0.7156 -0.1154  0.2942
12814SOL    HW241335   0.157   8.921   8.838 -0.0788 -0.4024  0.1716
12815SOL     OW41336   2.393   0.511   5.168  0.1378  0.3171 -0.0714
12815SOL    HW141337   2.453   0.522   5.241 -0.5584  1.0704  0.4056
12815SOL    HW241338   2.444   0.534   5.090  0.6190  0.3937  0.2658
12816SOL     OW41339   4.183   2.143   0.930  0.3669 -0.1139  0.2152
12816SOL    HW141340   4.095   2.126   0.895  0.0895  2.1241 -0.3569
12816SOL    HW241341   4.183   2.237   0.948  1.7520 -0.5486  2.8592
12817SOL     OW41342   4.021   6.459   8.958  0.2109  0.2181  0.3679
12817SOL    HW141343   3.969   6.515   9.017  1.5722  0.4498  1.4005
12817SOL    HW241344   3.957   6.398   8.921 -0.5525 -0.7119  2.9938
12818SOL     OW41345   2.357   7.055   8.615 -0.0621  0.5135 -0.0737
12818SOL    HW141346   2.420   7.121   8.586  1.7313 -0.7929  0.7297
12818SOL    HW241347   2.410   6.982   8.646 -1.9777 -0.6303  0.6965
12819SOL     OW41348   2.360   5.322   5.202  0.2811 -0.0404 -0.1026
12819SOL    HW141349   2.352   5.375   5.122  0.0179  0.0462 -0.0186
12819SOL    HW241350   2.449   5.287   5.198  0.6322  0.8092  0.0880
12820SOL     OW41351   8.130   9.014   0.013 -0.2097 -0.0003  0.4158
12820SOL    HW141352   8.156   9.106   0.008  0.2159 -0.1903 -1.4564
12820SOL    HW241353   8.185   8.977   0.082  1.2537  0.6385 -0.3861
12821SOL     OW41354   2.246   0.001   4.213  0.5635 -0.0548 -0.5525
12821SOL    HW141355   2.218   0.089   4.190 -0.9517 -0.1244  0.8904
12821SOL    HW241356   2.214  -0.054   4.141  0.9744  0.4698 -1.1471
12822SOL     OW41357   5.385   5.628   5.791 -0.1070  0.0283 -0.3271
12822SOL    HW141358   5.337   5.693   5.739 -0.0080  0.2488 -0.1419
12822SOL    HW241359   5.445   5.587   5.728 -0.7215 -0.4359 -0.6193
12823SOL     OW41360   8.550   1.878   5.079 -0.4078  0.5028 -0.4672
12823SOL    HW141361   8.481   1.904   5.018 -0.0750 -0.5287 -1.3054
12823SOL    HW241362   8.504   1.861   5.161 -0.9418  1.2887 -0.5874
12824SOL     OW41363   2.981   1.054   5.102  0.3196  0.1429 -0.2781
12824SOL    HW141364   2.894   1.018   5.120  1.0152 -1.1200  0.7493
12824SOL    HW241365   2.994   1.040   5.008 -0.4196 -0.0152 -0.3640
12825SOL     OW41366   8.231   4.278   3.864  0.1711  0.1270  0.0098
12825SOL    HW141367   8.325   4.260   3.869  0.3174  0.5976 -0.8637
12825SOL    HW241368   8.225   4.371   3.844 -0.4954  0.1946  0.4879
12826SOL     OW41369   8.797   9.052   0.449 -0.5120  0.4129 -0.1801
12826SOL    HW141370   8.864   8.988   0.427 -1.5220 -0.8658  0.3115
12826SOL    HW241371   8.783   9.039   0.543 -2.3070 -0.2463 -0.4995
12827SOL     OW41372   6.996   6.926   3.437  0.4824  0.1399 -0.4531
12827SOL    HW141373   7.039   6.846   3.406  1.9694 -0.1304  2.0706
12827SOL    HW241374   7.066   6.991   3.442 -0.0019  0.5851  0.8193
12828SOL     OW41375   2.810   2.750   5.541  0.5017  0.3425  0.0892
12828SOL    HW141376   2.756   2.768   5.463 -1.5723  2.0639  1.7979
12828SOL    HW241377   2.898   2.739   5.506 -0.5205 -0.2650 -2.6275
12829SOL     OW41378   1.878   8.325   0.007  0.2974 -0.4785 -0.0225
12829SOL    HW141379   1.953   8.319   0.066 -0.7771 -2.0193  1.3201
12829SOL    HW241380   1.865   8.235  -0.024 -0.5670 -0.1118 -0.7766
12830SOL     OW41381   8.363   1.803   4.698  0.4596 -0.2037  0.1316
12830SOL    HW141382   8.443   1.852   4.718  0.0143  0.5754  0.0402
12830SOL    HW241383   8.292   1.866   4.714 -0.1466 -0.9419  0.3975
12831SOL     OW41384   0.559   4.051   2.029  0.2433 -0.1571 -0.4670
12831SOL    HW141385   0.536   4.137   2.064 -0.3268 -0.1556 -0.8260
12831SOL    HW241386   0.495   4.036   1.958 -0.0387 -1.1193 -0.0280
12832SOL     OW41387   1.910   6.928   8.036 -0.1760  0.1438 -0.0084
12832SOL    HW141388   1.918   6.978   8.117 -2.6032  1.5532 -0.5187
12832SOL    HW241389   1.879   6.842   8.064 -0.8643  0.5751  0.5968
12833SOL     OW41390   6.406   0.446   0.040 -0.2358  0.0062  0.1625
12833SOL    HW141391   6.362   0.439   0.126 -1.5500 -1.1307 -0.5547
12833SOL    HW241392   6.433   0.356   0.020 -1.1998  0.0005 -1.2273
12834SOL     OW41393   1.234   5.663   1.386  0.0172 -0.0759  0.3041
12834SOL    HW141394   1.162   5.631   1.441  0.1918 -1.4546 -0.2135
12834SOL    HW241395   1.191   5.702   1.311 -0.2090 -0.2293  0.3518
12835SOL     OW41396   5.256   2.564   3.899  0.5055 -0.3427  0.2715
12835SOL    HW141397   5.346   2.542   3.877  0.4621  1.3582 -1.8846
12835SOL    HW241398   5.255   2.568   3.995  3.0577  0.9780  0.3183
12836SOL     OW41399   2.568   2.336   7.501 -0.1618 -0.0035  0.6518
12836SOL    HW141400   2.479   2.348   7.465 -0.0163  1.9233  0.8205
12836SOL    HW241401   2.578   2.241   7.510 -2.4669 -0.2477  1.2751
12837SOL     OW41402   0.621   8.255   1.353 -1.1472  0.4216 -0.4888
12837SOL    HW141403   0.667   8.191   1.298  0.0635  0.8747 -0.0236
12837SOL    HW241404   0.536   8.214   1.370 -0.9963 -0.3625 -1.5018
12838SOL     OW41405   1.289   1.195   5.393  0.2195  0.1622 -0.3698
12838SOL    HW141406   1.245   1.184   5.477 -1.0946  0.4378 -0.9874
12838SOL    HW241407   1.376   1.228   5.415 -0.1796  0.4315  0.8749
12839SOL     OW41408   4.258   4.550   4.852  0.9013  0.0236 -0.1078
12839SOL    HW141409   4.271   4.626   4.796 -1.2220  0.7869  0.3652
12839SOL    HW241410   4.266   4.584   4.941  0.7906 -0.4866  0.1021
12840SOL     OW41411   6.859   6.565   8.320  0.8320 -0.1061 -0.1785
12840SOL    HW141412   6.856   6.571   8.415  0.5436  0.1032 -0.1990
12840SOL    HW241413   6.912   6.487   8.302 -2.0410 -2.3367  0.2215
12841SOL     OW41414   7.657   2.287   4.562 -0.4379  0.3643 -0.4412
12841SOL    HW141415   7.626   2.243   4.642 -1.3175  0.5030 -0.6980
12841SOL    HW241416   7.732   2.235   4.533  0.0025  0.4080  0.5634
12842SOL     OW41417   8.729   0.292   0.914 -0.4165  0.4419 -0.1319
12842SOL    HW141418   8.769   0.365   0.962 -0.6053 -0.2287  1.0760
12842SOL    HW241419   8.670   0.252   0.977 -0.8441 -0.3340 -1.0103
12843SOL     OW41420   1.382   0.760   6.411  0.2194 -0.0953 -0.4378
12843SOL    HW141421   1.465   0.805   6.394  1.2977 -1.3784  1.0457
12843SOL    HW241422   1.372   0.766   6.506 -0.1546 -1.9763 -0.3236
12844SOL     OW41423   7.237   7.718   5.035  0.4760 -0.5075 -0.1713
12844SOL    HW141424   7.172   7.748   5.098 -0.7559 -1.1738 -1.0756
12844SOL    HW241425   7.286   7.650   5.081 -2.2235 -3.0138 -0.6832
12845SOL     OW41426   5.204   8.147   1.019 -0.3120  0.0074  0.0646
12845SOL    HW141427   5.297   8.168   1.033 -0.5341  0.6923  0.5881
12845SOL    HW241428   5.163   8.165   1.104 -0.3451 -3.8305  1.0633
12846SOL     OW41429   1.008   6.228   1.184  0.3979  0.1894  0.1939
12846SOL    HW141430   1.075   6.246   1.250  0.3340  1.4041 -0.0346
12846SOL    HW241431   0.925   6.245   1.228  0.0625 -2.9854  1.0033
12847SOL     OW41432   3.844   2.692   5.912  0.1341  0.1006 -0.0185
12847SOL    HW141433   3.781   2.720   5.846 -0.0331  1.9436  0.8735
12847SOL    HW241434   3.880   2.773   5.947  0.4714 -0.8393  1.9181
12848SOL     OW41435   9.049   1.568   6.413 -0.1080  0.3118 -0.2963
12848SOL    HW141436   8.979   1.580   6.349 -0.4429 -0.6724 -0.1340
12848SOL    HW241437   9.005   1.578   6.498  0.2245  1.0594 -0.2086
12849SOL     OW41438   7.669   8.979   3.193  0.2477 -0.5023  0.9890
12849SOL    HW141439   7.700   8.974   3.284  2.2147 -0.7566  0.3662
12849SOL    HW241440   7.733   8.926   3.144 -0.2506  0.3689 -0.6607
12850SOL     OW41441   5.130   0.364   8.961  0.0039 -0.2018 -0.3353
12850SOL    HW141442   5.083   0.290   9.000 -1.4422  1.4996  1.4076
12850SOL    HW241443   5.212   0.368   9.009 -1.1197  0.9472  1.6398
12851SOL     OW41444   6.378   6.027   2.072  0.1927  0.9631  0.2577
12851SOL    HW141445   6.387   5.942   2.030 -1.0544  0.5596  0.7551
12851SOL    HW241446   6.457   6.037   2.124 -0.0040 -0.2774  0.8367
12852SOL     OW41447   4.602   4.604   1.762 -0.5417 -0.8785  0.1624
12852SOL    HW141448   4.511   4.593   1.735 -0.3874  1.4315 -1.6380
12852SOL    HW241449   4.598   4.655   1.843 -0.8698 -0.9503  0.1891
12853SOL     OW41450   5.138   0.018   6.767  0.0840  0.2554  0.7781
12853SOL    HW141451   5.217  -0.031   6.744 -1.1114 -0.3704 -2.6697
12853SOL    HW241452   5.082  -0.047   6.812  0.3762 -0.1646  0.5429
12854SOL     OW41453   4.926   1.645   8.160 -1.3323 -0.1795  0.1408
12854SOL    HW141454   4.870   1.613   8.230 -0.3635  0.4342  1.2353
12854SOL    HW241455   4.941   1.737   8.182 -1.8880  0.3317 -1.4784
12855SOL     OW41456   1.116   4.062   8.638  0.2387 -0.0768 -0.1710
12855SOL    HW141457   1.064   3.993   8.598  0.4916 -0.3378 -0.0489
12855SOL    HW241458   1.076   4.076   8.724 -0.3397  0.5227 -0.5234
12856SOL     OW41459   5.434   7.307   8.453 -0.6016 -0.6494 -0.2533
12856SOL    HW141460   5.524   7.321   8.422  0.4293 -1.8415  1.9405
12856SOL    HW241461   5.399   7.395   8.464  0.1683 -0.1680 -1.4580
12857SOL     OW41462   0.286   8.584   4.958  0.0753  0.0802 -0.0214
12857SOL    HW141463   0.331   8.545   4.883 -0.8244  0.9186 -1.0393
12857SOL    HW241464   0.194   8.561   4.944 -0.3866  1.9232 -0.2969
12858SOL     OW41465   3.812   3.747   0.797 -0.3531 -0.2255 -0.1701
12858SOL    HW141466   3.717   3.740   0.796 -0.2532 -2.1673 -0.6561
12858SOL    HW241467   3.842   3.670   0.748  1.4832 -0.3329  1.0272
12859SOL     OW41468   2.403   0.526   5.896  0.0237 -0.1011 -0.5645
12859SOL    HW141469   2.404   0.432   5.879 -1.6325 -0.2998  0.1823
12859SOL    HW241470   2.488   0.545   5.935 -0.0746 -1.5420  0.4207
12860SOL     OW41471   3.050   4.066   4.546 -0.4506 -0.0350 -0.1623
12860SOL    HW141472   3.060   4.000   4.615 -1.9338 -0.4132 -0.2653
12860SOL    HW241473   2.993   4.024   4.482  1.0299  0.2504 -1.7200
12861SOL     OW41474   0.409   2.020   0.476 -0.5154 -0.3641  0.0537
12861SOL    HW141475   0.363   1.947   0.516  1.0210 -1.7186 -0.5376
12861SOL    HW241476   0.452   1.983   0.399 -1.4235  1.6485 -1.5205
12862SOL     OW41477   8.363   2.398   7.195 -0.4118  0.5938 -0.6253
12862SOL    HW141478   8.384   2.483   7.155 -1.4291  0.2281 -1.9824
12862SOL    HW241479   8.294   2.362   7.140 -0.2527 -0.9648  0.1565
12863SOL     OW41480   6.565   7.653   8.372  0.4569  0.0595 -0.5168
12863SOL    HW141481   6.601   7.739   8.352  0.6370  0.3679  0.9899
12863SOL    HW241482   6.494   7.671   8.434  0.3722 -0.8609 -0.3301
12864SOL     OW41483   6.706   7.120   4.435  0.3876 -0.2003  0.2005
12864SOL    HW141484   6.679   7.126   4.344 -1.6647  2.7770  0.8369
12864SOL    HW241485   6.659   7.045   4.470 -1.6029  0.6948 -0.4401
12865SOL     OW41486   6.983   4.348   9.006 -0.3711 -0.2155  0.1033
12865SOL    HW141487   6.953   4.276   8.951 -0.7358  0.1536 -0.1876
12865SOL    HW241488   6.905   4.400   9.023 -0.1890 -0.1204  0.6638
12866SOL     OW41489   1.037   1.949   1.655 -0.5290 -0.3448  0.1232
12866SOL    HW141490   1.109   1.911   1.705  1.7972  0.9636 -2.0041
12866SOL    HW241491   0.958   1.918   1.699  1.2997 -1.9389  2.5228
12867SOL     OW41492   4.736   3.599   2.396 -0.1257  0.0468  0.1125
12867SOL    HW141493   4.767   3.541   2.466 -2.1325 -3.2142 -1.4730
12867SOL    HW241494   4.641   3.592   2.400 -0.3521  1.6993 -1.4748
12868SOL     OW41495   4.384   9.107   1.308  0.2765 -0.0512 -0.4556
12868SOL    HW141496   4.357   9.167   1.378 -0.8747  0.3850 -1.2326
12868SOL    HW241497   4.418   9.165   1.240  4.0467 -0.6009  0.7383
12869SOL     OW41498   8.571   3.749   5.675  0.3627  0.0945 -0.0600
12869SOL    HW141499   8.574   3.668   5.623  1.0715  0.4165 -0.5466
12869SOL    HW241500   8.591   3.721   5.764 -1.2969 -0.5311  0.1446
12870SOL     OW41501   8.905   7.488   3.700 -0.1012  0.5604 -0.0082
12870SOL    HW141502   8.901   7.452   3.788 -1.8352  1.8695  0.4967
12870SOL    HW241503   8.888   7.581   3.712  1.3234  1.0722 -1.5735
12871SOL     OW41504   3.586   0.098   7.788 -0.0524  0.3216  0.1197
12871SOL    HW141505   3.533   0.022   7.764  2.4023 -1.1900 -0.9619
12871SOL    HW241506   3.630   0.122   7.707  1.3659  1.0937  1.0788
12872SOL     OW41507   3.930   1.159   7.303 -0.0671 -0.7124  0.0511
12872SOL    HW141508   3.902   1.088   7.361 -2.6629 -0.4665 -0.7710
12872SOL    HW241509   3.959   1.114   7.223  0.2534 -0.9148  0.2798
12873SOL     OW41510   6.866   0.156   6.712 -0.3239  0.3673 -0.1699
12873SOL    HW141511   6.947   0.159   6.763 -0.0791 -0.7053 -0.4784
12873SOL    HW241512   6.839   0.248   6.706  1.0740  0.7882 -0.4029
12874SOL     OW41513   5.701   5.755   5.972 -0.3555 -0.7706 -0.3963
12874SOL    HW141514   5.694   5.722   5.882 -1.9811 -1.4158 -0.0678
12874SOL    HW241515   5.753   5.835   5.964 -1.4591 -0.1469 -2.1146
12875SOL     OW41516   8.518   4.178   8.890 -0.5901 -0.3851  0.2446
12875SOL    HW141517   8.516   4.259   8.941 -1.7491 -0.2138 -0.0194
12875SOL    HW241518   8.458   4.119   8.936 -0.7219 -0.6400 -0.2424
12876SOL     OW41519   5.564   1.661   6.594  0.0152  0.2049  0.2970
12876SOL    HW141520   5.592   1.751   6.574  0.6341  0.0285  0.3391
12876SOL    HW241521   5.610   1.639   6.675  0.9456 -0.6184 -0.4267
12877SOL     OW41522   8.917   2.971   7.683 -0.7075  0.0520  0.0808
12877SOL    HW141523   8.950   2.909   7.618  0.1874  0.0627  0.5139
12877SOL    HW241524   8.988   2.981   7.746 -1.4246  0.3199  0.8745
12878SOL     OW41525   5.084   4.436   4.480 -0.1767 -0.3606 -0.9945
12878SOL    HW141526   5.112   4.442   4.571 -1.1577  2.1711 -0.7926
12878SOL    HW241527   5.147   4.377   4.440 -0.4705 -2.6483  1.5641
12879SOL     OW41528   2.149   7.868   3.959  0.5671  0.7015  0.9063
12879SOL    HW141529   2.157   7.962   3.976 -1.8251  1.2077 -0.3746
12879SOL    HW241530   2.086   7.837   4.023  0.5952  0.1572  0.6752
12880SOL     OW41531   8.680   2.623   0.406 -0.8204 -0.0913  0.0735
12880SOL    HW141532   8.729   2.705   0.400  0.3320 -0.7098  0.5823
12880SOL    HW241533   8.656   2.616   0.499 -1.7502  0.1224 -0.1402
12881SOL     OW41534   8.241   6.291   2.663  0.0352 -0.0701  0.0232
12881SOL    HW141535   8.276   6.252   2.743 -0.6986 -2.3226 -0.6734
12881SOL    HW241536   8.302   6.264   2.594 -0.3899  0.1794 -0.4586
12882SOL     OW41537   1.613   5.868   3.434 -0.0948 -0.2397  0.1100
12882SOL    HW141538   1.613   5.774   3.417  1.1475 -0.0430 -1.1056
12882SOL    HW241539   1.607   5.908   3.348 -0.2098  0.8079  0.5908
12883SOL     OW41540   8.435   8.776   8.688 -0.2013 -0.2619 -0.2216
12883SOL    HW141541   8.526   8.766   8.660  0.2531  0.6587  0.8547
12883SOL    HW241542   8.422   8.870   8.694 -1.3857 -0.3742 -0.8242
12884SOL     OW41543   4.570   7.564   3.304  0.0619 -0.1668  0.3225
12884SOL    HW141544   4.641   7.501   3.312  0.1270 -0.3512 -1.3968
12884SOL    HW241545   4.503   7.532   3.365  0.7967 -0.9014  0.7611
12885SOL     OW41546   4.841   3.706   1.248 -0.4177 -0.3754 -0.1713
12885SOL    HW141547   4.870   3.659   1.169  0.1304 -0.6961  0.2137
12885SOL    HW241548   4.748   3.684   1.255 -0.1006 -1.7048  0.1883
12886SOL     OW41549   0.479   8.843   3.926 -0.0081 -0.1142  0.2919
12886SOL    HW141550   0.432   8.915   3.968 -0.6233 -0.4364  0.1762
12886SOL    HW241551   0.503   8.785   3.999 -1.2058 -0.7476  0.2166
12887SOL     OW41552   0.902   8.566   7.703  0.7293 -0.5372  0.2700
12887SOL    HW141553   0.902   8.474   7.677  1.9414 -0.3045 -0.6326
12887SOL    HW241554   0.956   8.567   7.783 -0.6342 -0.8246  1.2324
12888SOL     OW41555   5.959   4.298   3.396  0.3024 -0.2342 -0.4223
12888SOL    HW141556   5.999   4.248   3.467  0.5954 -0.1600 -0.5314
12888SOL    HW241557   6.012   4.276   3.319 -1.0080 -1.6140 -0.9905
12889SOL     OW41558   2.825   0.727   7.594 -0.2872 -0.0960 -0.4051
12889SOL    HW141559   2.864   0.671   7.527 -1.7433 -3.3653  1.2713
12889SOL    HW241560   2.767   0.670   7.643  0.8384  1.9743  3.8701
12890SOL     OW41561   5.968   5.255   7.054 -0.7664  0.1990 -0.3450
12890SOL    HW141562   5.999   5.177   7.100  0.0964 -0.8563 -2.5690
12890SOL    HW241563   5.902   5.222   6.993 -1.9226  1.5625  0.1164
12891SOL     OW41564   8.074   1.221   4.899 -0.0628 -0.0639  0.0878
12891SOL    HW141565   8.005   1.223   4.966 -0.1110  2.1599  0.0460
12891SOL    HW241566   8.154   1.204   4.949 -0.3158 -0.0840  0.4934
12892SOL     OW41567   5.179   2.740   5.134 -0.0000  0.2992  0.1016
12892SOL    HW141568   5.133   2.815   5.171 -1.6189 -0.1017 -0.9645
12892SOL    HW241569   5.220   2.697   5.209  0.6771  2.0344  0.7720
12893SOL     OW41570   8.983   0.036   8.181 -0.0287 -0.5548 -0.3885
12893SOL    HW141571   9.072   0.002   8.186  1.0468  2.1295  0.7572
12893SOL    HW241572   8.979   0.079   8.096 -0.6518 -1.6180 -0.9164
12894SOL     OW41573   0.534   5.626   1.219  0.6537  0.5512 -0.5911
12894SOL    HW141574   0.446   5.628   1.256  1.0922  1.7062  0.4316
12894SOL    HW241575   0.537   5.701   1.159  0.7354  0.1074 -1.1602
12895SOL     OW41576   1.615   3.635   0.664 -0.3300 -0.3108 -0.0694
12895SOL    HW141577   1.695   3.635   0.612 -0.9743  0.5480 -1.1098
12895SOL    HW241578   1.609   3.546   0.699  0.6611 -0.6147 -0.6346
12896SOL     OW41579   1.530   6.761   7.118 -0.6889 -0.3349  0.1369
12896SOL    HW141580   1.453   6.737   7.066 -1.1382  1.2897 -0.0046
12896SOL    HW241581   1.509   6.733   7.207 -1.5925  0.3486  0.1554
12897SOL     OW41582   5.760   7.837   9.012 -0.6577  0.2565  0.0036
12897SOL    HW141583   5.756   7.885   8.929 -0.1220 -1.7817 -1.2586
12897SOL    HW241584   5.669   7.814   9.031 -0.7011  0.1331 -0.3633
12898SOL     OW41585   5.206   7.850   1.958 -0.0923 -0.1132 -0.1429
12898SOL    HW141586   5.280   7.910   1.968 -0.0904 -0.1708  0.1883
12898SOL    HW241587   5.242   7.774   1.913 -0.0991  0.1430 -0.5823
12899SOL     OW41588   8.092   9.121   7.202 -0.9122 -0.3258  0.4811
12899SOL    HW141589   8.173   9.087   7.242 -1.2951 -0.2567  1.3310
12899SOL    HW241590   8.027   9.053   7.220 -1.1023 -0.2695  0.0047
12900SOL     OW41591   0.263   3.643   3.669 -0.0260 -0.5043  0.1839
12900SOL    HW141592   0.299   3.731   3.659 -2.4731  0.7179  1.3072
12900SOL    HW241593   0.217   3.644   3.753 -0.5722 -2.6931 -0.0059
12901SOL     OW41594   1.211   4.734   4.147 -0.2698 -0.1741 -0.4919
12901SOL    HW141595   1.144   4.709   4.084 -2.1824  3.1330 -0.0031
12901SOL    HW241596   1.246   4.816   4.114 -0.9481  1.4034  2.3474
12902SOL     OW41597   3.560   6.196   0.186 -0.3920  0.0727 -0.3699
12902SOL    HW141598   3.481   6.184   0.135 -0.1150  0.5509 -0.9203
12902SOL    HW241599   3.620   6.129   0.153 -0.3194  0.1805 -0.4564
12903SOL     OW41600   4.091   1.736   2.725  0.0364  0.3096  0.2717
12903SOL    HW141601   4.129   1.820   2.700  1.9091 -0.2183  1.1163
12903SOL    HW241602   4.110   1.678   2.651  0.4601  0.1748  0.4799
12904SOL     OW41603   7.177   5.690   0.385  0.0738  0.2157 -0.1038
12904SOL    HW141604   7.224   5.770   0.409  0.0319  0.2458 -0.1209
12904SOL    HW241605   7.212   5.668   0.298  0.2734  0.0695  0.0120
12905SOL     OW41606   1.344   5.298   1.632 -0.0223 -0.0016  0.1145
12905SOL    HW141607   1.332   5.386   1.670  2.2586  0.6961 -0.6263
12905SOL    HW241608   1.318   5.308   1.540  0.1594 -0.1165  0.0497
12906SOL     OW41609   4.425   1.291   2.271 -0.0004 -0.1966  0.4410
12906SOL    HW141610   4.399   1.223   2.333 -1.1238 -0.5374 -0.3856
12906SOL    HW241611   4.519   1.278   2.259 -0.6039 -3.5973 -1.9836
12907SOL     OW41612   2.777   1.411   6.134  0.1983 -0.1421  0.1273
12907SOL    HW141613   2.776   1.416   6.039 -0.0431 -1.5582  0.0357
12907SOL    HW241614   2.728   1.487   6.163  2.4738  1.7878 -0.7808
12908SOL     OW41615   4.281   2.105   6.406 -0.4477  0.2911  0.1968
12908SOL    HW141616   4.281   2.011   6.422 -0.4360  0.4694  1.2841
12908SOL    HW241617   4.368   2.123   6.369 -0.8639 -0.2857 -1.1598
12909SOL     OW41618   8.449   0.858   1.581 -0.0187 -0.2294 -0.0219
12909SOL    HW141619   8.419   0.948   1.572 -0.6423 -0.3131  1.0208
12909SOL    HW241620   8.533   0.865   1.625  0.8055 -0.0774 -1.5626
12910SOL     OW41621   7.649   5.223   4.572 -0.2150 -0.0757  0.5439
12910SOL    HW141622   7.556   5.208   4.554 -0.5483 -0.8036  2.5791
12910SOL    HW241623   7.694   5.148   4.533 -0.3982  0.4993 -0.8288
12911SOL     OW41624   1.511   5.121   3.782 -0.1938 -0.3246 -0.2446
12911SOL    HW141625   1.418   5.101   3.781 -0.2163 -0.2847 -1.8839
12911SOL    HW241626   1.516   5.212   3.751  0.4735 -0.9439 -2.0893
12912SOL     OW41627   8.057   7.092   3.097 -0.0090  0.0475 -0.0424
12912SOL    HW141628   8.014   7.009   3.119  1.0230 -0.4225  0.2908
12912SOL    HW241629   8.107   7.073   3.017  0.2351  0.3498  0.0350
12913SOL     OW41630   1.689   2.358   4.167  0.5328  0.4199 -0.0604
12913SOL    HW141631   1.669   2.440   4.122 -2.0919 -0.4136 -0.6211
12913SOL    HW241632   1.631   2.358   4.244  0.3180 -0.9649 -0.1839
12914SOL     OW41633   2.038   5.879   2.595  0.0313 -0.5236 -0.0172
12914SOL    HW141634   1.985   5.958   2.583  1.1410  0.0667 -1.3987
12914SOL    HW241635   2.051   5.847   2.506  1.4341 -1.0156  0.3496
12915SOL     OW41636   1.655   0.447   1.649  0.0728 -0.2979  0.4444
12915SOL    HW141637   1.618   0.363   1.675  0.8336 -0.8404 -0.1582
12915SOL    HW241638   1.600   0.476   1.576  0.0979 -0.5123  0.3382
12916SOL     OW41639   6.735   0.593   7.619 -0.0456  0.6902  0.4174
12916SOL    HW141640   6.704   0.614   7.531 -1.6157 -0.6467  0.5951
12916SOL    HW241641   6.694   0.659   7.675 -0.7714  0.2945  0.3707
12917SOL     OW41642   0.677   4.724   1.835  0.4775  0.1345 -0.1693
12917SOL    HW141643   0.755   4.672   1.854 -0.7836 -0.5255  4.3398
12917SOL    HW241644   0.606   4.677   1.877 -1.8551  2.3521 -1.3458
12918SOL     OW41645   3.618   5.608   5.868  0.1504  0.3199 -0.5677
12918SOL    HW141646   3.628   5.564   5.952  1.9168 -0.1007 -0.9337
12918SOL    HW241647   3.562   5.683   5.885 -1.9195 -1.3626  0.3409
12919SOL     OW41648   1.098   7.705   7.387 -0.5160  0.4311  0.3607
12919SOL    HW141649   1.174   7.761   7.402 -0.5264  0.4035  0.5165
12919SOL    HW241650   1.065   7.685   7.475  1.2204 -2.2462  0.5217
12920SOL     OW41651   2.532   7.010   3.180  0.1010 -0.0499  0.6945
12920SOL    HW141652   2.617   6.966   3.181 -0.2144 -0.7755 -0.7670
12920SOL    HW241653   2.487   6.977   3.258  1.7671  1.7038  2.5018
12921SOL     OW41654   3.609   4.332   1.986  0.1483  0.0056  0.6621
12921SOL    HW141655   3.615   4.276   2.063  0.2771 -0.6029  0.2180
12921SOL    HW241656   3.522   4.316   1.950 -1.2438  2.6989  2.4646
12922SOL     OW41657   6.113   4.405   5.097  0.7543  0.4412 -0.0625
12922SOL    HW141658   6.197   4.420   5.052 -0.5531 -0.0050 -2.8711
12922SOL    HW241659   6.054   4.377   5.027 -1.9946  1.6065  1.6765
12923SOL     OW41660   1.155   2.280   2.860  0.0937  0.5512 -0.5067
12923SOL    HW141661   1.086   2.243   2.805  0.5635 -1.5128  0.1821
12923SOL    HW241662   1.236   2.245   2.824  0.5626  0.8082  0.2642
12924SOL     OW41663   3.748   0.733   5.135 -0.1476 -0.0148 -0.5196
12924SOL    HW141664   3.758   0.729   5.040  0.8994  0.0028 -0.4147
12924SOL    HW241665   3.780   0.649   5.166  0.4987  0.3713 -0.1087
12925SOL     OW41666   2.914   6.963   3.325  0.3341  0.1722 -0.0619
12925SOL    HW141667   2.896   6.891   3.385 -1.3975  0.9058  0.3768
12925SOL    HW241668   2.892   6.929   3.239 -1.0651  0.3103  0.2089
12926SOL     OW41669   6.196   2.213   2.944 -0.8364  0.8042 -0.3739
12926SOL    HW141670   6.290   2.225   2.928 -0.7133  0.1205 -0.1876
12926SOL    HW241671   6.161   2.302   2.948 -0.1904  1.0654 -0.4076
12927SOL     OW41672   4.573   1.704   6.512 -0.0055 -0.1837  0.0231
12927SOL    HW141673   4.541   1.785   6.551  0.4304 -0.2921  0.6257
12927SOL    HW241674   4.668   1.705   6.528  0.5194  0.6195 -2.6161
12928SOL     OW41675   0.246   0.969   4.230  0.2087  0.8154  0.0000
12928SOL    HW141676   0.203   0.995   4.311 -0.6636  1.7309 -0.7313
12928SOL    HW241677   0.177   0.930   4.177  1.1523 -1.6375  0.4154
12929SOL     OW41678   4.225   0.013   6.859  0.1557  0.4089  0.0909
12929SOL    HW141679   4.290  -0.034   6.807  1.3963  2.0084  0.1110
12929SOL    HW241680   4.140  -0.019   6.827  0.9263 -0.8207 -0.7899
12930SOL     OW41681   3.703   8.576   6.390  0.7134  0.3523 -0.1403
12930SOL    HW141682   3.778   8.557   6.333 -0.5706  1.2615 -2.2656
12930SOL    HW241683   3.706   8.671   6.404 -1.3311  0.8712 -2.3952
12931SOL     OW41684   5.845   7.080   1.289 -0.1878  0.3082 -0.1705
12931SOL    HW141685   5.805   7.122   1.213  1.4260 -0.9248 -1.7810
12931SOL    HW241686   5.790   7.003   1.306  2.0196 -2.2270 -3.3032
12932SOL     OW41687   0.901   1.329   5.691  0.4097 -0.2661  0.4757
12932SOL    HW141688   0.969   1.351   5.756  1.6771 -1.2051 -0.4836
12932SOL    HW241689   0.855   1.254   5.730  0.2813  0.0087  0.8681
12933SOL     OW41690   0.204   4.317   2.127 -0.1153 -0.2674 -0.4535
12933SOL    HW141691   0.158   4.310   2.044 -2.1954  1.9564  0.3958
12933SOL    HW241692   0.176   4.240   2.176 -0.4393 -0.5656 -1.0899
12934SOL     OW41693   3.881   3.418   1.762 -0.3851 -0.4557 -0.3881
12934SOL    HW141694   3.850   3.484   1.699  0.9787 -0.3714 -1.0088
12934SOL    HW241695   3.862   3.457   1.847  0.8698  1.0356 -0.7281
12935SOL     OW41696   2.975   7.452   7.478 -0.3453  0.4291 -0.1174
12935SOL    HW141697   2.908   7.508   7.518 -0.6723  1.3066 -1.8019
12935SOL    HW241698   3.033   7.429   7.551  0.1921  3.5103  0.5757
12936SOL     OW41699   3.453   4.368   4.151 -0.1053 -0.2209  0.0500
12936SOL    HW141700   3.488   4.287   4.187 -2.0550  0.1818  3.2662
12936SOL    HW241701   3.530   4.416   4.120  1.8702 -0.9277  3.3360
12937SOL     OW41702   2.269   7.126   5.756  0.2122 -0.2217 -0.3376
12937SOL    HW141703   2.289   7.195   5.819  1.8067 -0.8087 -0.1606
12937SOL    HW241704   2.282   7.045   5.805  0.1084 -0.6737 -1.0436
12938SOL     OW41705   7.730   8.000   3.441  0.1535 -0.0237  0.5806
12938SOL    HW141706   7.712   8.094   3.452  1.1659  0.2979 -0.3321
12938SOL    HW241707   7.672   7.957   3.504  0.5062  1.2777  1.8536
12939SOL     OW41708   9.144   3.093   5.886 -0.1520  0.3571  0.1225
12939SOL    HW141709   9.088   3.142   5.826  0.7973  0.6016 -0.5983
12939SOL    HW241710   9.225   3.143   5.890  0.0717 -0.0503  1.0456
12940SOL     OW41711   5.571   2.497   6.412 -0.0959 -0.5463 -0.1941
12940SOL    HW141712   5.478   2.476   6.413 -0.9093  2.6019 -0.7160
12940SOL    HW241713   5.599   2.475   6.323 -0.4475 -1.0003 -0.1982
12941SOL     OW41714   4.927   5.869   6.426  0.1215 -0.0467 -0.5338
12941SOL    HW141715   4.961   5.888   6.513  1.9861 -2.8448 -0.5324
12941SOL    HW241716   4.834   5.849   6.441  0.6266 -1.4850  1.0555
12942SOL     OW41717   0.341   6.339   2.191 -0.1662 -0.0850  0.0064
12942SOL    HW141718   0.304   6.345   2.103 -1.1246 -2.4895  0.1810
12942SOL    HW241719   0.435   6.353   2.179 -0.5806  2.5840 -0.9302
12943SOL     OW41720   5.967   5.273   0.513  0.5338 -0.5334 -0.4156
12943SOL    HW141721   5.947   5.366   0.515  0.6709 -0.5184  1.5717
12943SOL    HW241722   5.932   5.243   0.429 -1.7686  0.7983  0.0050
12944SOL     OW41723   6.078   4.912   5.563 -0.2934 -0.2458 -0.2642
12944SOL    HW141724   6.113   4.825   5.547 -0.2609 -0.2149 -0.3602
12944SOL    HW241725   6.044   4.941   5.478 -1.0660 -0.5035 -0.0507
12945SOL     OW41726   1.207   6.161   2.211 -0.2052  0.7443 -0.1649
12945SOL    HW141727   1.163   6.204   2.138 -0.0755  1.3807  0.1275
12945SOL    HW241728   1.166   6.074   2.216  1.7035 -0.4374 -2.7808
12946SOL     OW41729   1.159   4.282   4.413  0.0811  0.6485  0.0430
12946SOL    HW141730   1.127   4.326   4.492 -0.2395 -0.9651  0.8528
12946SOL    HW241731   1.193   4.199   4.445 -0.2076 -0.1095 -1.5613
12947SOL     OW41732   1.755   5.277   5.415  0.2879 -0.3947 -0.0732
12947SOL    HW141733   1.738   5.185   5.433 -0.2175  0.1003  2.3519
12947SOL    HW241734   1.848   5.289   5.436  0.2754 -0.2800 -0.0816
12948SOL     OW41735   1.498   3.483   0.865 -0.8283 -0.2035 -0.0688
12948SOL    HW141736   1.419   3.528   0.893 -0.3076  1.1112 -0.6361
12948SOL    HW241737   1.489   3.394   0.900 -1.2210  0.7232  2.3315
12949SOL     OW41738   0.188   6.632   1.043  0.2192 -0.6332 -0.3656
12949SOL    HW141739   0.125   6.677   1.100  1.8196  0.3330  0.7347
12949SOL    HW241740   0.249   6.589   1.104  1.6125 -0.1202 -1.3424
12950SOL     OW41741   8.190   6.670   3.866  0.2281 -0.0983 -0.8970
12950SOL    HW141742   8.208   6.707   3.779 -0.3576  1.4396 -0.3925
12950SOL    HW241743   8.139   6.591   3.848 -0.5148  0.5942 -1.9494
12951SOL     OW41744   1.437   8.010   3.945  0.2882  0.3121  0.0228
12951SOL    HW141745   1.415   7.966   3.863  1.0145  0.6610 -0.3788
12951SOL    HW241746   1.528   7.986   3.961  0.0848  0.0722  0.8520
12952SOL     OW41747   9.218   8.684   3.787  0.3139 -0.1733  0.8755
12952SOL    HW141748   9.249   8.614   3.729  0.2285 -1.5940  2.4678
12952SOL    HW241749   9.206   8.641   3.872 -2.9330  0.9995  1.1479
12953SOL     OW41750   1.599   2.607   1.159  0.5010  0.4920 -0.2238
12953SOL    HW141751   1.527   2.553   1.126  1.1658 -0.4422 -0.1936
12953SOL    HW241752   1.561   2.657   1.231 -0.1002 -0.0584 -0.1501
12954SOL     OW41753   2.339   7.691   1.014 -0.0841  0.2617 -0.1426
12954SOL    HW141754   2.380   7.761   1.065 -1.4244  0.5895  0.5546
12954SOL    HW241755   2.286   7.643   1.078  1.5281 -2.0303 -0.4037
12955SOL     OW41756   5.066   1.916   2.047 -0.0030  0.0609 -0.2474
12955SOL    HW141757   5.135   1.969   2.087  0.1527 -0.0460 -0.3673
12955SOL    HW241758   5.096   1.826   2.059 -0.2049  0.0057 -0.1537
12956SOL     OW41759   5.582   6.325   8.764  0.3578 -0.0382 -0.9595
12956SOL    HW141760   5.524   6.268   8.714  0.5423 -1.6195  0.5383
12956SOL    HW241761   5.668   6.283   8.757  0.6536  0.4723 -0.4300
12957SOL     OW41762   8.702   0.553   7.505  0.1632  0.1987 -0.5199
12957SOL    HW141763   8.620   0.571   7.550  0.4450 -0.0360  0.0951
12957SOL    HW241764   8.683   0.570   7.412 -0.0261  2.0559 -0.1743
12958SOL     OW41765   2.161   2.219   3.773 -0.5275 -0.3865  0.2899
12958SOL    HW141766   2.238   2.179   3.813  1.0653 -0.1460 -2.3083
12958SOL    HW241767   2.122   2.150   3.719  0.5009  0.5945 -1.8466
12959SOL     OW41768   5.606   0.361   6.324 -0.5917 -0.1753 -0.2468
12959SOL    HW141769   5.622   0.440   6.272  1.0362 -0.4021 -0.1572
12959SOL    HW241770   5.513   0.365   6.347 -0.0895  3.0687  1.9482
12960SOL     OW41771   6.129   3.237   0.948 -0.5241  0.5069 -0.3321
12960SOL    HW141772   6.205   3.185   0.975 -1.7214 -0.4367  1.4788
12960SOL    HW241773   6.150   3.266   0.859  1.0984 -1.3669 -0.6432
12961SOL     OW41774   2.789   4.070   6.159 -0.5172 -0.2834  0.1620
12961SOL    HW141775   2.764   4.133   6.227 -1.8924 -0.4071 -0.1956
12961SOL    HW241776   2.880   4.091   6.139 -1.2664  2.4252 -0.8215
12962SOL     OW41777   1.851   5.130   1.084  0.0608  0.0750 -0.0808
12962SOL    HW141778   1.805   5.213   1.094  0.4029  0.2320  0.2130
12962SOL    HW241779   1.800   5.068   1.136 -0.6873 -0.1014 -0.9931
12963SOL     OW41780   7.674   4.333   5.394  0.0305 -0.3391 -0.0390
12963SOL    HW141781   7.696   4.266   5.329 -1.0331 -1.9637  1.1679
12963SOL    HW241782   7.756   4.377   5.413  1.0257 -2.0935 -0.0844
12964SOL     OW41783   6.866   7.752   0.509 -0.0396  0.0257 -0.2870
12964SOL    HW141784   6.788   7.794   0.546  1.4676  2.2816  0.5306
12964SOL    HW241785   6.851   7.754   0.415 -0.6736  1.0987 -0.1836
12965SOL     OW41786   7.887   3.355   3.997 -0.0626 -0.3425  0.2069
12965SOL    HW141787   7.970   3.366   3.952 -0.0446 -0.2518  0.2623
12965SOL    HW241788   7.851   3.274   3.962  0.4420 -0.8248  0.7961
12966SOL     OW41789   3.467   5.831   1.238 -0.0754 -0.3409  0.2850
12966SOL    HW141790   3.378   5.854   1.211 -0.8112 -3.5437 -0.4124
12966SOL    HW241791   3.462   5.825   1.333 -1.0539 -1.9699  0.1591
12967SOL     OW41792   7.055   2.617   8.840  0.1904 -0.3598  0.1100
12967SOL    HW141793   6.973   2.620   8.790  1.3289  0.0411 -1.8475
12967SOL    HW241794   7.079   2.524   8.840  0.0114 -0.4064  0.2124
12968SOL     OW41795   0.763   1.121   4.711  0.0907  0.0485  0.2101
12968SOL    HW141796   0.726   1.131   4.623 -0.4047  1.7381  0.5671
12968SOL    HW241797   0.687   1.109   4.768  0.3783 -0.5884  0.4727
12969SOL     OW41798   7.438   4.988   0.647  0.3524 -0.5404 -0.5467
12969SOL    HW141799   7.447   5.027   0.734 -1.3788 -0.1426 -0.4962
12969SOL    HW241800   7.507   5.029   0.595  1.0305 -0.3356  0.4834
12970SOL     OW41801   6.694   4.320   6.506 -0.0355 -0.0747  0.0699
12970SOL    HW141802   6.619   4.379   6.507 -1.0671 -1.3206 -0.5161
12970SOL    HW241803   6.763   4.368   6.551 -1.2386  1.0387  0.8020
12971SOL     OW41804   0.026   7.618   7.369 -0.0322 -0.2044  0.1533
12971SOL    HW141805  -0.045   7.628   7.306  0.8271  0.6774 -0.7343
12971SOL    HW241806   0.088   7.688   7.346  0.4585 -0.0501  1.7941
12972SOL     OW41807   0.728   2.074   8.559  0.0939 -0.1064  0.3092
12972SOL    HW141808   0.653   2.031   8.519 -0.0506  0.8724 -0.5089
12972SOL    HW241809   0.781   2.002   8.593  0.2117 -0.9970 -1.6217
12973SOL     OW41810   5.075   9.169   7.585  0.0694 -0.1610  0.5166
12973SOL    HW141811   5.061   9.081   7.551  0.9556  0.5443 -1.8791
12973SOL    HW241812   5.161   9.166   7.626  1.0873  0.0424 -1.4792
12974SOL     OW41813   4.368   8.605   9.191 -0.7863  0.1883  0.2960
12974SOL    HW141814   4.334   8.532   9.243  2.6420 -0.4100  1.9951
12974SOL    HW241815   4.422   8.655   9.252  0.7960  1.3783 -1.9311
12975SOL     OW41816   4.274   8.382   4.253 -0.4252  0.0903  0.0611
12975SOL    HW141817   4.263   8.438   4.176 -0.6129  0.9702  0.7105
12975SOL    HW241818   4.365   8.353   4.249 -0.2058  0.7708 -0.0694
12976SOL     OW41819   4.191   7.447   4.998  0.2143  0.0570 -0.0536
12976SOL    HW141820   4.219   7.493   5.077  2.1365  3.9797 -2.6982
12976SOL    HW241821   4.097   7.433   5.010  0.3470  1.0470  2.6646
12977SOL     OW41822   2.115   6.796   3.391 -0.1283 -0.4569  0.8483
12977SOL    HW141823   2.159   6.870   3.348  0.8661 -2.1823 -1.3285
12977SOL    HW241824   2.187   6.739   3.418 -0.8906 -1.8920 -0.0118
12978SOL     OW41825   4.400   3.706   3.405 -0.1453 -0.1955 -0.4153
12978SOL    HW141826   4.434   3.645   3.340 -0.2907  2.3147 -3.0379
12978SOL    HW241827   4.306   3.712   3.385 -0.0475  1.2081 -0.5490
12979SOL     OW41828   8.941   0.208   6.123 -0.3053 -0.3267 -0.1097
12979SOL    HW141829   9.003   0.263   6.171 -0.2372 -0.3612 -0.1587
12979SOL    HW241830   8.950   0.121   6.162  0.3234 -0.5389 -0.7123
12980SOL     OW41831   1.859   2.098   1.708  0.5369 -0.1734  0.3262
12980SOL    HW141832   1.782   2.069   1.660 -0.7777  1.8163  1.0999
12980SOL    HW241833   1.897   2.018   1.744 -1.8828 -1.0995  0.9597
12981SOL     OW41834   5.143   5.797   2.983  0.6715 -0.1939 -0.3698
12981SOL    HW141835   5.204   5.813   2.911  0.9318  1.1029  0.1087
12981SOL    HW241836   5.198   5.773   3.057  0.5971  0.6479 -0.0264
12982SOL     OW41837   3.927   1.043   5.709 -0.2091 -0.4683  0.0951
12982SOL    HW141838   3.895   0.991   5.782 -2.1514 -0.7060 -0.8690
12982SOL    HW241839   3.874   1.016   5.634  0.5785  0.9541 -1.0476
12983SOL     OW41840   4.116   7.254   7.499 -0.7925 -0.0073  0.3022
12983SOL    HW141841   4.187   7.306   7.536 -1.3883  0.5542  0.6633
12983SOL    HW241842   4.037   7.303   7.519 -1.2130 -0.1451 -0.9332
12984SOL     OW41843   2.616   9.129   6.805 -0.5430  0.5415 -0.5155
12984SOL    HW141844   2.648   9.170   6.725 -1.3153  0.4199 -0.8937
12984SOL    HW241845   2.653   9.041   6.803  0.0514  0.7837 -0.3565
12985SOL     OW41846   3.346   1.527   8.894 -0.3594 -0.3189  0.0920
12985SOL    HW141847   3.319   1.553   8.982 -0.9346 -0.5672 -0.0093
12985SOL    HW241848   3.383   1.607   8.856  0.9606 -0.4816  0.9469
12986SOL     OW41849   6.235   9.039   5.134  0.1416  0.2209 -0.3822
12986SOL    HW141850   6.175   8.972   5.168  0.7203 -1.2980 -2.1968
12986SOL    HW241851   6.321   9.013   5.167  0.3607  0.0684 -1.0640
12987SOL     OW41852   5.834   6.219   3.598  0.1578  0.0364  0.5220
12987SOL    HW141853   5.743   6.215   3.630 -0.3171  0.4676 -0.7285
12987SOL    HW241854   5.826   6.227   3.503  1.4976  0.7409  0.4456
12988SOL     OW41855   1.314   6.353   4.580 -0.2017  0.3010  0.1350
12988SOL    HW141856   1.301   6.330   4.673 -0.6520 -0.4773 -0.1076
12988SOL    HW241857   1.408   6.343   4.566  0.0645  1.6521  0.8162
12989SOL     OW41858   1.736   4.744   0.305 -0.1118 -0.4974 -0.3134
12989SOL    HW141859   1.827   4.746   0.276 -0.3048 -1.8728 -1.0884
12989SOL    HW241860   1.687   4.715   0.228 -1.0456 -0.9917  0.4558
12990SOL     OW41861   5.996   7.347   7.277  0.5927  0.0839 -0.4276
12990SOL    HW141862   6.090   7.336   7.292  0.6647  0.8135 -0.2602
12990SOL    HW241863   5.989   7.428   7.227  0.0201  0.3567  0.0733
12991SOL     OW41864   0.777   8.835   0.045  0.0745 -0.3731 -0.1527
12991SOL    HW141865   0.737   8.762   0.092 -1.2855 -0.2563 -1.0566
12991SOL    HW241866   0.825   8.884   0.112 -2.3426  0.1948  1.3070
12992SOL     OW41867   9.203   3.562   5.625 -0.4708 -0.1659  0.7597
12992SOL    HW141868   9.276   3.567   5.563 -0.4650  0.0369  0.7819
12992SOL    HW241869   9.242   3.528   5.705 -0.3051  0.3697  0.9133
12993SOL     OW41870   3.903   7.102   6.354  0.3355 -0.1385  0.4951
12993SOL    HW141871   3.966   7.147   6.297  0.3990  0.0915  0.7434
12993SOL    HW241872   3.883   7.020   6.309 -0.4054  0.5016 -0.3751
12994SOL     OW41873   5.309   0.359   5.995  0.3459  0.6056 -0.5277
12994SOL    HW141874   5.290   0.410   6.074 -1.8482 -0.1677 -0.4673
12994SOL    HW241875   5.301   0.422   5.923 -0.4690  0.7496 -0.3214
12995SOL     OW41876   4.192   8.625   7.956  0.2813 -1.0850  0.0581
12995SOL    HW141877   4.189   8.533   7.929  0.0657 -0.9086 -0.5353
12995SOL    HW241878   4.125   8.667   7.903 -0.5893 -0.8331  1.2989
12996SOL     OW41879   6.799   2.927   8.896  0.3341 -0.1515  0.0044
12996SOL    HW141880   6.803   3.023   8.897  0.2423 -0.0378 -2.7553
12996SOL    HW241881   6.706   2.907   8.906  0.3970 -0.0008  0.9995
12997SOL     OW41882   4.147   4.451   8.352  0.0539 -0.1005  0.3870
12997SOL    HW141883   4.100   4.391   8.409  0.2333  0.3057  0.9675
12997SOL    HW241884   4.214   4.491   8.408  0.8072 -0.3445 -0.3205
12998SOL     OW41885   0.628   4.495   0.304  0.7037  0.7456  0.1950
12998SOL    HW141886   0.541   4.464   0.277  1.0336  0.4845 -0.6049
12998SOL    HW241887   0.668   4.419   0.346  1.1693  0.3306 -0.9524
12999SOL     OW41888   2.288   9.078   1.311  0.4232  0.2709 -0.0955
12999SOL    HW141889   2.281   8.982   1.313 -1.3150  0.3545  1.3495
12999SOL    HW241890   2.327   9.100   1.396 -0.4688  0.8761  0.1731
13000SOL     OW41891   6.715   1.128   6.573  0.4583  0.0663 -0.2398
13000SOL    HW141892   6.721   1.033   6.582 -0.1414 -0.2338 -2.4070
13000SOL    HW241893   6.805   1.159   6.580  0.4762 -0.3276  2.7835
13001SOL     OW41894   2.334   5.826   3.004 -0.4898 -0.2245 -0.8224
13001SOL    HW141895   2.427   5.808   2.990 -0.8017 -2.1373 -0.7005
13001SOL    HW241896   2.314   5.898   2.944  1.5775  1.8881  0.8545
13002SOL     OW41897   3.796   3.519   4.043  0.0852 -0.2140 -0.3156
13002SOL    HW141898   3.792   3.448   3.979 -0.9181  0.1373 -0.6546
13002SOL    HW241899   3.751   3.592   4.001 -0.5670  0.0300  0.7761
13003SOL     OW41900   5.821   5.005   8.058 -0.5124  0.2130  0.4499
13003SOL    HW141901   5.753   4.940   8.078 -0.1033  0.1585  1.7885
13003SOL    HW241902   5.787   5.087   8.094  0.1108  0.1833  1.1377
13004SOL     OW41903   0.065   8.421   8.568  0.7967 -0.3338  0.1083
13004SOL    HW141904   0.152   8.389   8.545  1.4428  1.1488  0.3746
13004SOL    HW241905   0.063   8.511   8.535 -0.5170 -0.2316  0.4058
13005SOL     OW41906   3.649   2.316   5.954 -0.6332  0.1856  0.1342
13005SOL    HW141907   3.725   2.330   5.897 -0.1779  0.9924  0.9228
13005SOL    HW241908   3.598   2.397   5.946 -2.0683 -0.7987 -1.3171
13006SOL     OW41909   6.092   2.052   3.558 -0.0428 -0.5588  0.1214
13006SOL    HW141910   6.065   1.967   3.594  0.0644 -0.2362  0.9741
13006SOL    HW241911   6.010   2.095   3.533 -0.1201 -0.7583  0.0292
13007SOL     OW41912   0.222   2.071   8.574  0.2215  0.1063  0.3549
13007SOL    HW141913   0.165   2.142   8.543 -0.1891 -0.3490  0.0429
13007SOL    HW241914   0.163   2.012   8.621  0.7200  0.4200  1.3870
13008SOL     OW41915   8.306   7.190   7.317  0.8499 -0.8793 -1.0713
13008SOL    HW141916   8.392   7.148   7.310  0.7037 -1.0210 -2.3492
13008SOL    HW241917   8.271   7.161   7.401  1.2934 -2.3200 -1.3589
13009SOL     OW41918   5.741   7.183   6.032  0.4181  0.3819 -0.1602
13009SOL    HW141919   5.771   7.236   5.958  1.3845 -0.4038 -0.3401
13009SOL    HW241920   5.681   7.119   5.993  2.9192 -1.7481 -0.7527
13010SOL     OW41921   2.404   0.900   6.327  0.3601 -0.0972  0.1279
13010SOL    HW141922   2.433   0.990   6.313  0.0029 -0.1791 -1.2688
13010SOL    HW241923   2.308   0.904   6.320  0.3506 -0.6145 -0.0969
13011SOL     OW41924   4.468   1.280   8.604  0.0528  0.2885 -0.1470
13011SOL    HW141925   4.393   1.339   8.604  0.0928  0.3438 -0.7881
13011SOL    HW241926   4.473   1.247   8.694 -1.0612 -0.1341 -0.2311
13012SOL     OW41927   0.464   8.694   1.163 -0.1598 -0.3661  0.3702
13012SOL    HW141928   0.431   8.714   1.251 -1.9131 -1.9417  0.1130
13012SOL    HW241929   0.471   8.599   1.161  0.6536 -0.2999 -0.9563
13013SOL     OW41930   4.951   4.823   2.793  0.1400  0.1052  0.3712
13013SOL    HW141931   4.919   4.743   2.753  0.1992  0.6478 -0.8292
13013SOL    HW241932   4.889   4.891   2.765  0.2738  0.5308  1.0819
13014SOL     OW41933   8.667   6.727   5.134  0.2658  0.0549 -0.4627
13014SOL    HW141934   8.721   6.771   5.200 -0.0993  0.6932 -0.5881
13014SOL    HW241935   8.716   6.738   5.053  1.2958 -1.7229 -0.1410
13015SOL     OW41936   6.240   4.224   2.640 -0.2820 -0.1827 -0.2162
13015SOL    HW141937   6.243   4.184   2.728 -0.0164  0.1029 -0.0968
13015SOL    HW241938   6.236   4.149   2.581  0.2664 -0.3928  0.0054
13016SOL     OW41939   3.593   7.766   4.469  0.6641 -0.1392  0.7439
13016SOL    HW141940   3.632   7.844   4.430 -0.8809 -0.5797 -1.9249
13016SOL    HW241941   3.614   7.696   4.408 -0.1757 -1.3291  1.7763
13017SOL     OW41942   8.903   0.105   0.023  0.4623 -0.2721 -0.1512
13017SOL    HW141943   8.950   0.153  -0.045 -1.6239  0.8283 -0.9133
13017SOL    HW241944   8.871   0.026  -0.022 -1.8463  0.9788 -0.8524
13018SOL     OW41945   1.771   9.225   9.069 -0.5604 -0.2639 -0.0576
13018SOL    HW141946   1.788   9.177   9.151 -0.6073  0.2552  0.2618
13018SOL    HW241947   1.678   9.246   9.073 -1.5388 -3.5225 -2.0371
13019SOL     OW41948   0.755   3.287   0.193 -0.5253  0.4525  0.1590
13019SOL    HW141949   0.791   3.363   0.147  1.6645 -1.8792 -2.3833
13019SOL    HW241950   0.778   3.300   0.284  2.8195  1.3476 -0.6872
13020SOL     OW41951   8.962   7.531   5.128 -0.2388  0.3282 -1.0251
13020SOL    HW141952   8.950   7.466   5.059  0.3077  0.2665 -1.0674
13020SOL    HW241953   8.905   7.604   5.103 -0.0744  0.2901 -1.5221
13021SOL     OW41954   6.392   7.626   4.441 -0.8251 -0.1193  0.4902
13021SOL    HW141955   6.320   7.582   4.487 -0.2507  0.0578  1.5758
13021SOL    HW241956   6.349   7.696   4.392 -1.2556  0.9111  2.2679
13022SOL     OW41957   2.643   5.352   0.180 -0.1392 -0.3484 -0.3284
13022SOL    HW141958   2.588   5.289   0.227 -1.9131 -0.9517 -2.9353
13022SOL    HW241959   2.680   5.301   0.107 -0.2697  1.2124 -1.5465
13023SOL     OW41960   4.692   3.949   4.413 -0.0388  0.1981  0.1941
13023SOL    HW141961   4.772   3.910   4.378 -0.9046 -1.6713  0.1953
13023SOL    HW241962   4.656   3.998   4.339 -0.2160 -1.1129 -0.6214
13024SOL     OW41963   7.428   4.994   4.733 -0.0051  0.7846  0.0038
13024SOL    HW141964   7.505   4.937   4.732 -1.1064 -0.7632 -0.9720
13024SOL    HW241965   7.358   4.940   4.770 -0.6834  2.1254  0.7711
13025SOL     OW41966   5.670   8.841   1.366 -0.4721 -0.0774  0.0380
13025SOL    HW141967   5.733   8.859   1.436  0.8110 -1.7166 -0.6267
13025SOL    HW241968   5.711   8.877   1.288 -0.6715 -0.5784 -0.2973
13026SOL     OW41969   4.259   6.542   0.885  0.1553 -0.2271  0.4008
13026SOL    HW141970   4.191   6.512   0.945  0.4281 -0.1031  0.7759
13026SOL    HW241971   4.255   6.637   0.890  0.4022 -0.2203  0.4791
13027SOL     OW41972   2.088   5.053   5.241  0.6480 -0.0975 -0.2704
13027SOL    HW141973   2.155   5.052   5.173  0.4635  1.2652 -0.5179
13027SOL    HW241974   2.011   5.091   5.198  0.2220 -0.1340  0.4387
13028SOL     OW41975   8.261   2.914   7.072 -0.2307  0.9021  0.9089
13028SOL    HW141976   8.198   2.971   7.029 -0.0654  1.0211  0.8279
13028SOL    HW241977   8.342   2.924   7.022  0.4674  2.3507  2.2371
13029SOL     OW41978   7.685   4.829   5.260 -0.3619 -0.1308 -0.2067
13029SOL    HW141979   7.595   4.858   5.243  0.0026  1.5994  0.5983
13029SOL    HW241980   7.705   4.771   5.187 -2.4584 -1.3510  0.1010
13030SOL     OW41981   4.340   1.922   3.417 -0.2772  0.0706  0.3502
13030SOL    HW141982   4.298   1.989   3.363 -0.3546 -0.2503  0.0042
13030SOL    HW241983   4.335   1.956   3.506  0.3630  0.8659  0.0888
13031SOL     OW41984   6.265   5.344   5.590 -0.2619 -0.2714  0.2736
13031SOL    HW141985   6.293   5.430   5.621  0.5799  0.1427 -1.4777
13031SOL    HW241986   6.345   5.292   5.591  0.0746  0.0613 -2.0096
13032SOL     OW41987   1.194   3.417   1.816 -0.4236  0.5905  0.2329
13032SOL    HW141988   1.227   3.330   1.839 -0.8935  0.3196 -0.1190
13032SOL    HW241989   1.253   3.448   1.747 -0.5912  0.3262 -0.0260
13033SOL     OW41990   1.136   5.787   5.245  0.3187  0.0209  0.7172
13033SOL    HW141991   1.180   5.775   5.329  0.9760 -1.6009  0.1739
13033SOL    HW241992   1.064   5.725   5.245 -0.8786  1.3621  0.8331
13034SOL     OW41993   5.246   7.247   6.053  0.2270  0.4714  0.0642
13034SOL    HW141994   5.231   7.165   6.100 -2.0635 -0.2653 -1.7933
13034SOL    HW241995   5.211   7.315   6.110  0.7407 -0.0046  0.9539
13035SOL     OW41996   2.809   4.632   2.918 -0.3557 -0.8095 -0.1567
13035SOL    HW141997   2.766   4.563   2.969 -0.8652 -0.5185 -0.1916
13035SOL    HW241998   2.871   4.671   2.980 -0.5975 -0.8031  0.0832
13036SOL     OW41999   7.147   8.200   0.832 -0.2210 -0.3738 -0.3664
13036SOL    HW142000   7.159   8.107   0.814 -2.1518 -0.7132 -0.1116
13036SOL    HW242001   7.084   8.202   0.904 -0.5526  1.1475 -0.6768
13037SOL     OW42002   6.867   3.581   7.131  0.9823  0.5955 -0.0377
13037SOL    HW142003   6.940   3.568   7.071  2.3332 -1.6674  1.8971
13037SOL    HW242004   6.879   3.513   7.197 -1.3231  1.9276  1.8958
13038SOL     OW42005   1.307   1.364   3.221 -0.7128 -0.0140 -0.3326
13038SOL    HW142006   1.311   1.410   3.137  1.3517  0.7256  0.0954
13038SOL    HW242007   1.245   1.415   3.273  0.1199  1.2136 -0.4992
13039SOL     OW42008   5.541   3.548   6.010  0.3368 -0.4547 -0.1546
13039SOL    HW142009   5.448   3.537   5.991 -0.2204  0.6075  1.6522
13039SOL    HW242010   5.577   3.590   5.932 -0.7769 -0.5764 -0.7498
13040SOL     OW42011   8.718   2.305   3.997  0.1440  0.2450 -0.5931
13040SOL    HW142012   8.803   2.347   3.996 -1.1769  3.1878  0.1613
13040SOL    HW242013   8.719   2.249   4.075  0.8201  1.6311  0.4351
13041SOL     OW42014   4.081   2.947   2.800 -0.5231 -0.0830  0.2071
13041SOL    HW142015   4.050   2.951   2.891 -0.2632  0.2939  0.2787
13041SOL    HW242016   4.175   2.934   2.807 -0.5165 -0.1589 -0.0126
13042SOL     OW42017   1.394   1.564   5.367 -0.4587 -0.4430 -0.1897
13042SOL    HW142018   1.387   1.469   5.363  1.0991 -0.6536  0.8575
13042SOL    HW242019   1.329   1.591   5.432 -0.9774 -0.7695 -0.5691
13043SOL     OW42020   4.151   4.047   1.866  1.0556 -0.5661 -0.5781
13043SOL    HW142021   4.133   3.954   1.852  2.7418 -0.9309 -0.5130
13043SOL    HW242022   4.123   4.088   1.784 -2.8022 -0.5624  0.5242
13044SOL     OW42023   8.387   5.076   2.862 -1.1120  0.1121  0.2867
13044SOL    HW142024   8.384   5.019   2.785  2.2462 -1.0971  0.8587
13044SOL    HW242025   8.401   5.016   2.936 -0.2447  1.4874  1.2957
13045SOL     OW42026   7.018   1.963   3.741 -0.4829  0.6151  0.3949
13045SOL    HW142027   7.096   2.011   3.715 -1.6427  1.8412 -0.9883
13045SOL    HW242028   6.964   1.960   3.662 -0.7190 -2.5358  0.5838
13046SOL     OW42029   3.431   3.889   3.595 -0.5399  0.0439 -0.2958
13046SOL    HW142030   3.401   3.894   3.504 -2.0569  0.9806  0.2190
13046SOL    HW242031   3.398   3.969   3.636  0.4487 -0.1763  0.9988
13047SOL     OW42032   1.616   1.931   3.506  0.1696 -0.3170  0.0123
13047SOL    HW142033   1.568   1.863   3.552  0.4447 -1.4551 -1.3047
13047SOL    HW242034   1.614   2.006   3.564  1.0169 -1.8455  2.1566
13048SOL     OW42035   7.118   7.545   1.316 -0.2416 -0.5354 -0.3473
13048SOL    HW142036   7.080   7.573   1.232 -0.8708 -3.2842 -1.1105
13048SOL    HW242037   7.043   7.542   1.376 -0.7014 -2.5966 -0.9151
13049SOL     OW42038   9.124   0.330   5.630  0.3017  0.0226  0.0373
13049SOL    HW142039   9.041   0.283   5.619  1.0994 -1.9262  1.7464
13049SOL    HW242040   9.162   0.295   5.710  2.1856  1.8310  0.0351
13050SOL     OW42041   7.067   3.482   2.187  0.2008 -1.1723 -0.7703
13050SOL    HW142042   7.115   3.484   2.104  0.3593  0.8662 -0.6804
13050SOL    HW242043   7.051   3.574   2.207  0.4140 -1.5940  1.6062
13051SOL     OW42044   1.551   0.343   7.231  0.1710  0.1107 -1.2062
13051SOL    HW142045   1.531   0.420   7.177 -1.0569  0.0746 -0.8302
13051SOL    HW242046   1.465   0.312   7.262  0.8098  0.0277  0.6248
13052SOL     OW42047   5.078   7.015   4.364 -0.1378 -0.5833  0.6396
13052SOL    HW142048   5.011   7.066   4.320  1.3172 -0.8852 -2.1592
13052SOL    HW242049   5.039   6.929   4.376 -0.7796 -0.3139  0.5379
13053SOL     OW42050   0.706   3.239   6.894  0.4333 -0.2461 -0.2051
13053SOL    HW142051   0.753   3.156   6.904  2.6078  0.7211 -1.5765
13053SOL    HW242052   0.622   3.216   6.855 -0.5168 -2.0908  2.5786
13054SOL     OW42053   6.087   1.932   5.246 -0.2052 -0.4519  0.2465
13054SOL    HW142054   6.087   1.848   5.292  1.5287 -1.2131 -1.0560
13054SOL    HW242055   6.130   1.992   5.307  1.8352 -1.3955 -0.1742
13055SOL     OW42056   5.113   5.617   0.805  0.2704  0.1328 -0.0752
13055SOL    HW142057   5.059   5.677   0.753 -0.3091 -0.3031  0.0171
13055SOL    HW242058   5.203   5.649   0.792 -0.0798  1.4325  0.5048
13056SOL     OW42059   0.118   2.639   8.358  0.4824  0.3411 -0.5652
13056SOL    HW142060   0.097   2.698   8.286  2.6271 -0.0865 -1.5906
13056SOL    HW242061   0.137   2.555   8.316 -0.5646 -0.5999  0.7214
13057SOL     OW42062   3.877   2.129   3.465 -0.0444  0.1066 -0.2440
13057SOL    HW142063   3.870   2.054   3.405  1.1134 -0.0680 -0.1977
13057SOL    HW242064   3.789   2.166   3.469 -0.5637 -1.0477 -0.5440
13058SOL     OW42065   5.158   1.554   3.917 -0.6214 -0.3647  0.0052
13058SOL    HW142066   5.241   1.537   3.960 -1.3777 -1.3554  1.1266
13058SOL    HW242067   5.179   1.553   3.823  0.9858  1.4801  0.2845
13059SOL     OW42068   1.458   3.885   6.008  0.3933 -0.3598 -0.1365
13059SOL    HW142069   1.394   3.947   6.043  1.7486  1.5585 -0.8613
13059SOL    HW242070   1.542   3.916   6.041  1.2842 -0.8679 -1.7975
13060SOL     OW42071   6.541   3.655   3.560 -0.1395 -0.4708  0.2358
13060SOL    HW142072   6.624   3.672   3.516 -1.4766  0.4197 -2.2115
13060SOL    HW242073   6.491   3.736   3.547 -0.9549 -0.4884  2.8042
13061SOL     OW42074   1.231   0.533   2.936  0.2805  0.2444  0.0838
13061SOL    HW142075   1.245   0.592   3.009  0.5692 -0.4818  0.6250
13061SOL    HW242076   1.164   0.576   2.883 -1.2793 -0.0502  1.7153
13062SOL     OW42077   2.308   2.645   0.887  0.2643  0.4331  0.3104
13062SOL    HW142078   2.395   2.683   0.872  1.2493 -1.9359 -0.5325
13062SOL    HW242079   2.291   2.660   0.980  2.9196 -1.4733  1.2463
13063SOL     OW42080   2.564   6.372   4.936 -0.0298 -0.7185 -0.4866
13063SOL    HW142081   2.630   6.316   4.896  2.0038  1.0290  0.1949
13063SOL    HW242082   2.486   6.359   4.884  0.6924 -3.2565 -1.0427
13064SOL     OW42083   3.032   3.933   3.851  0.1177  0.8147 -0.0453
13064SOL    HW142084   3.007   3.859   3.907 -0.4437  0.9425 -0.1160
13064SOL    HW242085   3.045   3.894   3.764 -0.5878  0.8589 -0.1742
13065SOL     OW42086   3.619   3.665   6.290 -0.0650 -0.1732  0.2112
13065SOL    HW142087   3.593   3.575   6.312  0.0946  0.2557  2.3856
13065SOL    HW242088   3.715   3.664   6.297 -0.0838  0.2290  0.5548
13066SOL     OW42089   8.747   8.885   1.670 -0.5732  0.2230 -0.4836
13066SOL    HW142090   8.745   8.980   1.680  1.1027  0.3176 -0.7338
13066SOL    HW242091   8.763   8.852   1.758  1.4117  0.3565 -0.7392
13067SOL     OW42092   8.790   5.736   1.499  0.0743  0.0247 -0.4132
13067SOL    HW142093   8.744   5.820   1.493  0.1532  0.1184  0.2705
13067SOL    HW242094   8.724   5.672   1.473 -1.2620 -0.0886  2.8286
13068SOL     OW42095   1.044   2.017   4.093 -0.3676 -0.2984  0.2727
13068SOL    HW142096   1.117   2.079   4.088 -1.3879  0.9594  0.3154
13068SOL    HW242097   1.024   1.995   4.002 -0.0241 -0.5493  0.2559
13069SOL     OW42098   0.394   2.691   1.730  0.3484 -0.3558 -0.1285
13069SOL    HW142099   0.475   2.728   1.695 -0.3532 -0.1835 -1.6444
13069SOL    HW242100   0.344   2.767   1.759  0.5776 -0.4339  0.4725
13070SOL     OW42101   6.449   8.827   0.235  0.0046  0.1764 -0.1975
13070SOL    HW142102   6.383   8.779   0.284  0.8143  0.1607  0.9301
13070SOL    HW242103   6.403   8.863   0.159 -0.6033 -2.5345 -1.2064
13071SOL     OW42104   9.144   7.020   4.034  0.1976  0.3913 -0.3484
13071SOL    HW142105   9.106   6.993   3.951 -0.8729 -1.0516  0.5668
13071SOL    HW242106   9.233   6.984   4.032  0.2475  0.5319 -0.9308
13072SOL     OW42107   5.554   7.389   5.793 -0.4106  0.0609  0.1715
13072SOL    HW142108   5.563   7.475   5.753  0.5462  1.2038  2.6197
13072SOL    HW242109   5.641   7.351   5.789 -1.1360 -1.5640 -2.3057
13073SOL     OW42110   2.429   4.174   2.270 -0.1752 -0.3019  0.2206
13073SOL    HW142111   2.410   4.226   2.348  0.2856 -0.1608  0.2431
13073SOL    HW242112   2.488   4.228   2.219  0.7431 -1.0040  0.4990
13074SOL     OW42113   7.685   5.887   7.489 -0.2856 -0.3761 -0.2069
13074SOL    HW142114   7.751   5.834   7.535 -1.7215 -1.8956  0.1870
13074SOL    HW242115   7.659   5.832   7.414 -0.7509  0.4251 -0.6398
13075SOL     OW42116   5.475   9.017   0.337 -0.2887 -0.3118 -0.3597
13075SOL    HW142117   5.431   9.102   0.334 -0.1615 -0.2646 -2.7775
13075SOL    HW242118   5.444   8.977   0.418 -1.0423  1.6670  0.3844
13076SOL     OW42119   2.663   5.888   7.155  0.0082 -0.0440  0.0433
13076SOL    HW142120   2.678   5.857   7.244 -0.6036  0.3891  0.3065
13076SOL    HW242121   2.743   5.866   7.107 -0.2523 -1.6936  0.3017
13077SOL     OW42122   4.095   5.396   5.401  0.5068  0.5415  0.2258
13077SOL    HW142123   4.015   5.406   5.452 -0.0438  1.7202 -0.8037
13077SOL    HW242124   4.160   5.363   5.464 -1.1248 -1.9045  0.7434
13078SOL     OW42125   2.747   2.549   3.406 -0.0708 -0.2458  0.3491
13078SOL    HW142126   2.659   2.525   3.379  0.1441  1.4957 -2.4264
13078SOL    HW242127   2.735   2.607   3.481 -1.5042  1.3611 -1.0273
13079SOL     OW42128   3.839   1.222   5.106  0.4322 -0.5785 -0.8395
13079SOL    HW142129   3.887   1.142   5.129  1.1154 -0.4188 -1.6815
13079SOL    HW242130   3.907   1.285   5.083 -0.1023  0.2341 -0.2795
13080SOL     OW42131   2.499   3.879   5.329 -0.0947 -0.0906  0.5419
13080SOL    HW142132   2.472   3.852   5.417 -0.9978  2.8896  1.3186
13080SOL    HW242133   2.421   3.865   5.276 -0.1796 -0.1127  0.6704
13081SOL     OW42134   4.523   3.272   4.595 -0.2059  0.0832 -0.0696
13081SOL    HW142135   4.560   3.333   4.531 -0.3433 -1.6573 -1.9093
13081SOL    HW242136   4.428   3.285   4.588 -0.1897  0.5507  0.4980
13082SOL     OW42137   4.830   7.726   2.242 -0.0572  0.1138 -0.1616
13082SOL    HW142138   4.890   7.800   2.251 -0.4719  0.3792  0.5427
13082SOL    HW242139   4.866   7.659   2.299 -0.0686  0.0326 -0.2503
13083SOL     OW42140   0.047   0.113   4.467 -0.4406 -0.0089  0.3746
13083SOL    HW142141   0.084   0.178   4.408  0.1666 -1.1608 -0.5661
13083SOL    HW242142  -0.024   0.073   4.417 -0.7981 -0.0929  0.9364
13084SOL     OW42143   2.466   5.921   4.326 -0.5939 -0.0149 -0.6550
13084SOL    HW142144   2.388   5.868   4.344 -0.1750 -0.3305  0.3234
13084SOL    HW242145   2.523   5.906   4.402  0.6705 -0.2567 -1.6101
13085SOL     OW42146   2.483   1.248   4.515  0.4507 -0.2317 -0.1909
13085SOL    HW142147   2.410   1.270   4.573 -0.4342 -0.5539 -1.1352
13085SOL    HW242148   2.512   1.332   4.480  2.3472  0.1917  2.2196
13086SOL     OW42149   2.691   3.555   2.433 -0.3552  0.6992 -0.2322
13086SOL    HW142150   2.624   3.548   2.500 -0.0489  1.1603  0.1330
13086SOL    HW242151   2.646   3.589   2.356 -0.8315 -0.4117 -0.4626
13087SOL     OW42152   7.465   5.719   8.706 -0.0302  0.1043 -0.4181
13087SOL    HW142153   7.483   5.629   8.734  1.9853  0.3175 -0.8677
13087SOL    HW242154   7.523   5.733   8.631  0.6212  2.1487  0.3849
13088SOL     OW42155   4.473   6.253   3.517  0.0850 -0.2021 -0.0662
13088SOL    HW142156   4.424   6.296   3.587  1.6572 -1.8213  2.1563
13088SOL    HW242157   4.502   6.171   3.555  2.1293 -0.5727 -2.2136
13089SOL     OW42158   4.569   8.503   5.007 -0.5927  0.0254 -0.6496
13089SOL    HW142159   4.479   8.526   5.028 -0.3372 -0.7891  1.6404
13089SOL    HW242160   4.565   8.413   4.976 -0.3279 -1.2698  2.6790
13090SOL     OW42161   0.006   7.440   3.752  0.0528  0.7877 -0.0457
13090SOL    HW142162  -0.032   7.404   3.832  0.7002 -2.1200 -0.9275
13090SOL    HW242163   0.096   7.408   3.751  0.2261  1.2039 -1.6734
13091SOL     OW42164   4.954   2.428   7.974 -0.3187  0.9587 -0.1064
13091SOL    HW142165   5.039   2.423   7.929 -1.0995 -0.7672 -1.4895
13091SOL    HW242166   4.953   2.351   8.031 -0.5980  1.4867  0.6186
13092SOL     OW42167   6.889   2.474   6.438  0.3784  0.3710  0.0096
13092SOL    HW142168   6.811   2.528   6.422  0.1324  0.0502  0.1242
13092SOL    HW242169   6.860   2.384   6.422  0.6045  0.2063  0.4967
13093SOL     OW42170   8.418   2.035   0.381  0.0987 -0.2504 -0.0289
13093SOL    HW142171   8.393   2.072   0.466 -1.1500 -0.6660 -0.1885
13093SOL    HW242172   8.447   1.946   0.401 -0.5707 -0.4849 -0.0634
13094SOL     OW42173   5.021   8.175   5.825  0.9581 -0.6009  0.0660
13094SOL    HW142174   5.066   8.198   5.744 -2.1181  2.2215 -1.1203
13094SOL    HW242175   5.063   8.228   5.893 -0.6405  2.4338 -1.1181
13095SOL     OW42176   3.090   0.591   3.331 -0.1992  0.1314  0.1044
13095SOL    HW142177   2.996   0.598   3.348 -0.3523  0.8792 -0.9604
13095SOL    HW242178   3.099   0.515   3.274 -0.4536  1.3055 -1.5940
13096SOL     OW42179   6.874   0.260   9.241 -0.0897  0.2512  0.2369
13096SOL    HW142180   6.852   0.192   9.304  1.3428 -1.1227 -0.6535
13096SOL    HW242181   6.821   0.239   9.163 -0.3139  0.7000  0.2644
13097SOL     OW42182   5.617   0.996   3.434  0.6136  0.1278  0.5112
13097SOL    HW142183   5.572   0.951   3.363 -0.3891 -1.4178  2.0371
13097SOL    HW242184   5.648   1.078   3.395  0.2443 -0.7133 -1.7090
13098SOL     OW42185   7.145   6.981   8.886 -0.7349 -0.2491 -0.3914
13098SOL    HW142186   7.053   7.001   8.869 -0.3860 -0.1156 -2.2612
13098SOL    HW242187   7.169   6.918   8.819 -0.1363 -2.3481  1.6588
13099SOL     OW42188   5.679   0.359   3.168  0.2373  0.3831  0.3189
13099SOL    HW142189   5.591   0.327   3.151  0.3262 -0.7045  1.7465
13099SOL    HW242190   5.729   0.334   3.091 -0.1445 -1.2598  0.5637
13100SOL     OW42191   0.911   1.555   6.614  0.2248  0.0341  0.4230
13100SOL    HW142192   0.909   1.548   6.519 -0.0825 -0.9397  0.4891
13100SOL    HW242193   0.891   1.647   6.632  1.3395  0.4709 -0.4727
13101SOL     OW42194   3.967   0.780   3.019  0.2128 -0.2670  0.0386
13101SOL    HW142195   3.963   0.730   2.937  1.6441  0.3329 -0.4300
13101SOL    HW242196   3.989   0.715   3.085 -0.2455 -0.6355 -0.1577
13102SOL     OW42197   8.092   1.555   7.966 -0.2492  0.0912  0.3321
13102SOL    HW142198   8.062   1.467   7.991 -0.0661 -0.1201 -0.1659
13102SOL    HW242199   8.017   1.594   7.922 -0.0851 -0.1073 -0.1301
13103SOL     OW42200   7.202   2.388   7.527  0.2464  0.2618  0.4121
13103SOL    HW142201   7.123   2.335   7.529 -0.7451  1.5644 -1.3233
13103SOL    HW242202   7.208   2.426   7.615 -0.4084 -0.7285  0.9001
13104SOL     OW42203   7.352   1.930   7.125 -0.2185 -0.0229 -0.2920
13104SOL    HW142204   7.369   2.024   7.129 -0.9286  0.1299 -0.5722
13104SOL    HW242205   7.418   1.896   7.064  0.0640  0.2843 -0.1613
13105SOL     OW42206   6.707   1.047   8.403 -0.7614 -0.3374 -0.2816
13105SOL    HW142207   6.788   0.997   8.396 -0.9276 -0.5571 -0.6405
13105SOL    HW242208   6.670   1.020   8.487  0.4403  1.1198  0.7765
13106SOL     OW42209   5.086   1.709   6.727  0.1914  0.0009 -0.6498
13106SOL    HW142210   5.065   1.622   6.692  2.0431 -1.0264  0.6418
13106SOL    HW242211   5.160   1.694   6.785  0.0428  2.3465  0.2353
13107SOL     OW42212   3.453   2.300   4.139 -0.5165  0.1876  0.2610
13107SOL    HW142213   3.501   2.252   4.207 -0.0871  2.2433  1.5107
13107SOL    HW242214   3.362   2.301   4.169 -0.4009  0.7242  0.6155
13108SOL     OW42215   8.387   9.068   0.582  0.0452 -0.6823  0.0944
13108SOL    HW142216   8.420   9.059   0.493 -1.3492  1.2959 -0.7050
13108SOL    HW242217   8.313   9.008   0.587 -1.2260  0.7305 -0.8701
13109SOL     OW42218   5.172   3.478   3.489 -0.3076 -0.1060 -0.2318
13109SOL    HW142219   5.105   3.410   3.495  0.5218 -0.9611 -0.4252
13109SOL    HW242220   5.128   3.553   3.448 -1.1138 -0.6937 -0.4464
13110SOL     OW42221   0.019   4.082   7.476  0.3507  0.2584  0.1313
13110SOL    HW142222   0.081   4.101   7.406 -0.0184 -0.8352 -0.5110
13110SOL    HW242223   0.030   3.988   7.494 -1.6194 -0.1440 -0.5210
13111SOL     OW42224   6.913   7.933   3.618  0.5254  0.0287  0.5946
13111SOL    HW142225   6.897   7.923   3.711  0.4769 -0.2842  0.5545
13111SOL    HW242226   6.862   8.010   3.593  1.2706  0.6719  1.0015
13112SOL     OW42227   6.254   5.706   6.488 -0.0671  0.2014 -0.5457
13112SOL    HW142228   6.247   5.652   6.567  1.8066  1.4642  0.5572
13112SOL    HW242229   6.256   5.643   6.416 -0.1189 -1.0702  0.5285
13113SOL     OW42230   9.206   0.581   5.690 -0.2863  0.1058 -0.2044
13113SOL    HW142231   9.143   0.587   5.762  1.1676 -1.3933  1.2957
13113SOL    HW242232   9.173   0.510   5.636 -0.0013 -0.5688  0.4877
13114SOL     OW42233   4.950   2.089   2.870  0.3683  0.6835  0.0111
13114SOL    HW142234   4.995   2.153   2.926  1.6596 -0.1948  0.0411
13114SOL    HW242235   4.987   2.004   2.897  1.0205  0.2281 -2.1403
13115SOL     OW42236   5.457   3.408   7.775 -0.2583 -0.0314  0.3493
13115SOL    HW142237   5.496   3.495   7.777 -1.3708  0.5175 -0.6148
13115SOL    HW242238   5.401   3.405   7.853  1.3364 -0.6888  1.5346
13116SOL     OW42239   8.578   0.040   1.746  0.2092 -1.1230 -0.1215
13116SOL    HW142240   8.566  -0.044   1.703 -0.5062 -1.3030  0.4148
13116SOL    HW242241   8.541   0.028   1.834  0.6655 -0.4389  0.1768
13117SOL     OW42242   3.542   3.871   4.454 -0.0183  0.2136  0.0694
13117SOL    HW142243   3.617   3.816   4.433  0.0901 -0.0289  1.0399
13117SOL    HW242244   3.555   3.895   4.546 -0.3173  1.4544 -0.1874
13118SOL     OW42245   1.802   7.218   3.402 -0.6318  0.3232 -0.3770
13118SOL    HW142246   1.878   7.180   3.447 -1.4614 -0.0531  0.7310
13118SOL    HW242247   1.837   7.245   3.317  0.1936 -2.1907 -0.9274
13119SOL     OW42248   0.303   7.035   2.446  0.1509  0.0971 -0.4144
13119SOL    HW142249   0.272   7.120   2.413  0.3483  0.1696 -0.4147
13119SOL    HW242250   0.245   7.016   2.520  1.8680  1.5922  1.4277
13120SOL     OW42251   3.498   4.131   6.924 -0.7217  0.6708  0.0269
13120SOL    HW142252   3.556   4.206   6.911  0.7920 -0.4927 -0.1526
13120SOL    HW242253   3.550   4.068   6.974 -1.7930 -0.4464 -0.2174
13121SOL     OW42254   5.367   5.092   2.230 -0.4652 -0.3467 -0.2250
13121SOL    HW142255   5.322   5.008   2.225 -0.6806 -0.3726  1.5330
13121SOL    HW242256   5.379   5.108   2.323  1.4680  0.5858 -0.5654
13122SOL     OW42257   5.447   4.682   8.849  0.2698  0.3175 -0.1044
13122SOL    HW142258   5.398   4.601   8.836 -0.1164  0.7031 -1.2227
13122SOL    HW242259   5.539   4.654   8.854  0.2038 -0.1461 -1.1468
13123SOL     OW42260   5.960   7.113   9.069  0.6612  0.5902  0.3039
13123SOL    HW142261   5.882   7.163   9.046 -0.3010 -0.4250  1.2347
13123SOL    HW242262   6.031   7.156   9.022 -0.5875  1.0108 -1.2879
13124SOL     OW42263   3.861   7.524   4.043  0.1731 -0.3539  0.2959
13124SOL    HW142264   3.872   7.592   3.977 -0.4660 -0.7365 -0.2086
13124SOL    HW242265   3.911   7.556   4.118 -1.1364  1.2882  0.5279
13125SOL     OW42266   6.658   5.214   6.501  0.0525 -0.1388 -0.1885
13125SOL    HW142267   6.592   5.162   6.548 -2.3604  1.8820 -1.1110
13125SOL    HW242268   6.690   5.276   6.567  1.7747 -1.6547  0.4885
13126SOL     OW42269   8.702   4.079   9.257 -0.0811 -0.2914 -0.5176
13126SOL    HW142270   8.629   4.128   9.219  0.0700 -1.3022 -2.1730
13126SOL    HW242271   8.700   3.994   9.214  1.1160 -0.9210  0.5836
13127SOL     OW42272   8.520   8.255   6.843  0.8161 -0.3084  0.0533
13127SOL    HW142273   8.461   8.330   6.854  1.0321  0.1446 -1.6473
13127SOL    HW242274   8.579   8.261   6.918 -0.8107 -0.3628  1.4168
13128SOL     OW42275   2.108   4.632   1.251  0.4702  0.4214  0.5063
13128SOL    HW142276   2.127   4.653   1.342  1.7164  0.6266  0.2192
13128SOL    HW242277   2.127   4.713   1.203  2.5658 -0.4584 -0.2651
13129SOL     OW42278   8.822   1.731   4.841 -0.0946 -0.0772 -0.5842
13129SOL    HW142279   8.745   1.684   4.875 -0.3328  0.4944 -0.3257
13129SOL    HW242280   8.894   1.702   4.897 -0.2136 -0.2523 -0.5209
13130SOL     OW42281   1.845   2.770   8.907 -0.2803 -0.5785  1.0129
13130SOL    HW142282   1.796   2.704   8.858  0.6057 -0.4233 -0.1166
13130SOL    HW242283   1.937   2.744   8.899  0.1491  1.0560  0.0666
13131SOL     OW42284   5.519   3.747   4.608  0.4168  0.0768  0.0844
13131SOL    HW142285   5.467   3.751   4.688  1.7420 -3.5560  1.3401
13131SOL    HW242286   5.598   3.797   4.628  0.4772 -0.3047  0.8510
13132SOL     OW42287   4.574   4.580   2.864  0.4188  0.2594  0.5884
13132SOL    HW142288   4.483   4.566   2.837  0.6135 -0.3484  0.2146
13132SOL    HW242289   4.596   4.501   2.913  0.3735  0.9389  1.7293
13133SOL     OW42290   2.896   0.884   4.592 -0.4818  0.4670  1.1537
13133SOL    HW142291   2.980   0.841   4.576 -0.2701  1.6127 -1.2333
13133SOL    HW242292   2.831   0.821   4.562 -0.4440  0.0119  1.9944
13134SOL     OW42293   0.509   1.030   1.913 -0.8474 -0.0834 -0.1954
13134SOL    HW142294   0.572   1.066   1.975 -0.8541  0.1382 -0.3153
13134SOL    HW242295   0.543   0.943   1.890  0.0689  0.5144 -1.1966
13135SOL     OW42296   0.753   3.685   5.615 -0.0975  0.0980 -0.7506
13135SOL    HW142297   0.731   3.731   5.534 -0.7407  2.3366  0.6180
13135SOL    HW242298   0.670   3.650   5.647  0.2598 -1.3790 -1.3468
13136SOL     OW42299   4.639   7.279   0.533 -0.1405 -0.2642 -0.7112
13136SOL    HW142300   4.663   7.368   0.560  3.0561 -1.2972  0.3740
13136SOL    HW242301   4.603   7.239   0.612 -0.0402 -0.3984 -0.7328
13137SOL     OW42302   1.591   1.109   5.260  0.5280  0.3153 -0.1111
13137SOL    HW142303   1.671   1.159   5.240  0.5316  0.0140 -0.8680
13137SOL    HW242304   1.619   1.018   5.259  1.1390  0.2689  3.9034
13138SOL     OW42305   1.509   3.541   4.097  0.0351 -0.3315 -0.0133
13138SOL    HW142306   1.593   3.499   4.115  1.0063  1.5836  0.1455
13138SOL    HW242307   1.516   3.628   4.137 -1.3150  0.5649 -1.6056
13139SOL     OW42308   1.026   0.481   0.424  0.1214 -0.3386 -0.2222
13139SOL    HW142309   1.099   0.419   0.437 -0.8148 -1.2692  0.8027
13139SOL    HW242310   0.973   0.441   0.355  0.7185  0.5118 -1.2151
13140SOL     OW42311   7.167   9.081   2.936  0.5219  0.4920 -0.3314
13140SOL    HW142312   7.261   9.076   2.953  0.8874 -0.3564 -2.2833
13140SOL    HW242313   7.134   8.994   2.959  0.1182  0.9147  0.7425
13141SOL     OW42314   6.106   0.792   0.159  0.0403  0.0774  0.7544
13141SOL    HW142315   6.167   0.865   0.159 -1.0729  1.0541  0.1667
13141SOL    HW242316   6.130   0.741   0.082 -1.3069  1.7798 -0.9080
13142SOL     OW42317   3.698   3.892   3.722  0.2115 -0.2996  0.7458
13142SOL    HW142318   3.609   3.883   3.689  0.6294  1.2507 -0.9489
13142SOL    HW242319   3.688   3.932   3.808 -0.7056  0.7069  0.1888
13143SOL     OW42320   8.769   6.662   6.614 -0.4683  0.2500 -0.7014
13143SOL    HW142321   8.784   6.569   6.598 -0.2711  0.2608 -0.5817
13143SOL    HW242322   8.818   6.707   6.546 -0.8910  0.2569 -1.0035
13144SOL     OW42323   4.692   2.454   1.289 -0.7434 -0.2139  0.0544
13144SOL    HW142324   4.689   2.548   1.268 -1.0532 -0.2712 -0.1574
13144SOL    HW242325   4.740   2.415   1.216  0.8360 -0.0063  0.9280
13145SOL     OW42326   3.997   2.544   4.865 -0.5904 -0.2274  0.0106
13145SOL    HW142327   4.089   2.519   4.870 -0.1880  1.1524 -0.0961
13145SOL    HW242328   3.953   2.468   4.828  0.1391 -1.7349  2.0762
13146SOL     OW42329   6.285   1.578   4.234 -0.3321  0.3409 -0.0549
13146SOL    HW142330   6.204   1.619   4.266 -0.9794 -0.8430 -0.1308
13146SOL    HW242331   6.263   1.485   4.225  2.1359 -0.8437  3.7938
13147SOL     OW42332   6.359   3.715   1.537  0.0428 -0.1394 -0.3972
13147SOL    HW142333   6.437   3.661   1.530  0.5566  0.6326 -0.6991
13147SOL    HW242334   6.316   3.685   1.618  0.1947 -1.1382 -0.6767
13148SOL     OW42335   2.967   7.419   1.518  0.2253  0.2684 -0.3561
13148SOL    HW142336   2.958   7.434   1.423 -1.9265  1.2198 -0.0663
13148SOL    HW242337   2.878   7.426   1.551  0.5721 -2.5090  1.4498
13149SOL     OW42338   1.574   6.342   8.524  0.0120 -0.3005 -0.0291
13149SOL    HW142339   1.541   6.371   8.610  0.9676  0.9580 -0.0578
13149SOL    HW242340   1.526   6.395   8.461  0.3218 -0.2182 -0.1974
13150SOL     OW42341   7.388   6.225   8.022  0.5339  0.6807  0.1828
13150SOL    HW142342   7.474   6.259   8.045  0.2551  0.9542  0.8612
13150SOL    HW242343   7.326   6.289   8.059  0.0281  0.1231  0.3302
13151SOL     OW42344   7.613   3.921   5.311 -0.8924 -0.0922  0.1836
13151SOL    HW142345   7.662   4.002   5.328 -1.7472  0.6953 -0.9156
13151SOL    HW242346   7.657   3.882   5.236 -1.4043  0.1604 -0.2522
13152SOL     OW42347   4.261   5.063   7.260 -0.4871 -0.3804 -0.0293
13152SOL    HW142348   4.262   5.120   7.337 -1.5391  1.3493 -1.2293
13152SOL    HW242349   4.338   5.090   7.209 -2.0151  1.3939 -1.5237
13153SOL     OW42350   5.677   2.936   2.801  0.0909  0.1752  0.9108
13153SOL    HW142351   5.589   2.933   2.839 -0.0687 -1.3492  0.5074
13153SOL    HW242352   5.678   2.864   2.737  1.4495  0.5161  0.5132
13154SOL     OW42353   8.592   4.994   3.812  0.3856 -0.3820 -0.2498
13154SOL    HW142354   8.663   4.990   3.876  0.4742  2.0702 -0.1067
13154SOL    HW242355   8.636   5.002   3.728  0.2942  0.3533 -0.2330
13155SOL     OW42356   4.372   8.266   8.048  0.4027  0.8375  0.4517
13155SOL    HW142357   4.442   8.329   8.062 -0.7955  2.2374  0.3363
13155SOL    HW242358   4.417   8.181   8.043  2.3941  1.8985 -2.3071
13156SOL     OW42359   4.303   5.969   6.226  0.1734 -0.5503 -0.0465
13156SOL    HW142360   4.346   6.054   6.231 -0.2358 -0.1939 -1.8506
13156SOL    HW242361   4.280   5.948   6.317  1.5099  0.5970  0.5984
13157SOL     OW42362   2.937   4.836   0.937  0.1909  0.4316  0.0749
13157SOL    HW142363   2.937   4.879   1.022  1.0417  0.6855 -0.0497
13157SOL    HW242364   2.866   4.771   0.943  0.8824 -0.2478  1.3261
13158SOL     OW42365   6.036   6.452   6.074 -0.3095 -0.0125 -0.3599
13158SOL    HW142366   5.956   6.461   6.023 -0.5766  1.3117  0.2682
13158SOL    HW242367   6.024   6.372   6.125 -1.2691  0.2195 -0.2080
13159SOL     OW42368   0.723   3.675   4.269 -0.1781 -0.0622 -0.3103
13159SOL    HW142369   0.759   3.648   4.354 -0.5621 -2.2471 -0.7749
13159SOL    HW242370   0.798   3.678   4.211  0.0427  1.1501  0.0079
13160SOL     OW42371   3.720   3.019   5.796 -0.0894  0.4660  0.4362
13160SOL    HW142372   3.722   3.076   5.873 -0.0513  0.1513  0.6710
13160SOL    HW242373   3.628   2.999   5.783  0.0000 -0.5821  1.2312
13161SOL     OW42374   6.913   1.960   5.968 -0.2331 -0.1827  0.1267
13161SOL    HW142375   6.883   2.049   5.949 -2.6381  0.1655  4.3468
13161SOL    HW242376   6.850   1.903   5.924 -0.3199  0.2736 -0.3405
13162SOL     OW42377   6.073   9.248   7.274  0.1873 -0.3559  0.6469
13162SOL    HW142378   5.978   9.239   7.280  0.1766  0.0103  1.0227
13162SOL    HW242379   6.089   9.342   7.285  0.5413 -0.3220 -0.0932
13163SOL     OW42380   3.615   3.209   3.764 -0.1935  0.3448 -0.7796
13163SOL    HW142381   3.563   3.174   3.836 -0.6263  0.8806 -0.8214
13163SOL    HW242382   3.584   3.161   3.687 -0.6402  0.6632 -0.8047
13164SOL     OW42383   2.212   2.888   6.286  0.5761 -0.6662 -0.0222
13164SOL    HW142384   2.153   2.871   6.213 -0.3900 -0.0513  0.6015
13164SOL    HW242385   2.293   2.842   6.262  0.0234 -1.1074 -1.1141
13165SOL     OW42386   2.916   7.681   5.874  0.3551 -0.6147 -0.1727
13165SOL    HW142387   2.839   7.720   5.833  1.4069  2.4192  0.4691
13165SOL    HW242388   2.976   7.665   5.802  1.1391  2.1442 -0.2553
13166SOL     OW42389   6.507   1.805   0.416  0.5618 -0.0012  0.2906
13166SOL    HW142390   6.556   1.729   0.446  0.6077  0.0477  0.3400
13166SOL    HW242391   6.434   1.769   0.366 -0.8094 -0.1709  2.3229
13167SOL     OW42392   3.620   0.959   5.734 -0.1153 -0.0462  0.0230
13167SOL    HW142393   3.622   0.882   5.791  0.6080 -0.4582 -0.5486
13167SOL    HW242394   3.635   0.925   5.646 -0.2821  0.6929 -0.3022
13168SOL     OW42395   4.016   3.215   4.098 -0.2487  0.7947 -0.0496
13168SOL    HW142396   3.958   3.234   4.025  1.1400  0.3075 -1.3453
13168SOL    HW242397   4.052   3.300   4.124  0.0777  0.8518 -0.6725
13169SOL     OW42398   4.669   5.785   5.496  0.6000  0.2260  0.2295
13169SOL    HW142399   4.615   5.729   5.440 -1.2160 -0.1498  2.2588
13169SOL    HW242400   4.641   5.874   5.476 -0.4704  0.0597  0.9124
13170SOL     OW42401   1.336   5.550   3.948  0.0939  0.0176  0.0622
13170SOL    HW142402   1.315   5.487   4.017  2.1712 -1.1453 -0.2844
13170SOL    HW242403   1.402   5.607   3.986  0.6111 -0.0773 -0.6780
13171SOL     OW42404   5.935   8.390   7.861  0.2542 -0.2383 -0.1833
13171SOL    HW142405   5.878   8.377   7.786  0.1414  0.2851 -0.1962
13171SOL    HW242406   5.951   8.485   7.862  0.3685 -0.2609  0.3664
13172SOL     OW42407   8.707   0.037   8.199  0.2306  0.4456  0.4066
13172SOL    HW142408   8.681  -0.051   8.227  0.7999 -0.6147 -2.1032
13172SOL    HW242409   8.802   0.037   8.207  0.2217  0.8921  0.5194
13173SOL     OW42410   4.804   7.640   3.499 -0.2590  0.2351 -0.4047
13173SOL    HW142411   4.789   7.567   3.439  0.1508 -0.6351  0.5195
13173SOL    HW242412   4.870   7.694   3.455 -0.8951  0.3061 -1.3000
13174SOL     OW42413   3.676   1.139   1.421  0.1009 -0.0014 -0.1074
13174SOL    HW142414   3.698   1.135   1.514  0.5033  0.4712 -0.1762
13174SOL    HW242415   3.682   1.232   1.399  0.7123 -0.1877 -0.7665
13175SOL     OW42416   5.541   3.915   8.064  0.5383  0.0193 -0.4151
13175SOL    HW142417   5.542   3.841   8.004  0.4896  0.2492 -0.7031
13175SOL    HW242418   5.543   3.992   8.007  1.6817  0.2447 -0.0942
13176SOL     OW42419   9.135   1.434   7.904 -0.4522 -0.5727 -0.0572
13176SOL    HW142420   9.190   1.371   7.858 -0.0258  0.9561 -1.7871
13176SOL    HW242421   9.079   1.470   7.835 -0.3709  1.2142  0.7615
13177SOL     OW42422   7.002   5.940   7.016 -0.0748 -0.3782  0.4866
13177SOL    HW142423   6.980   5.937   6.923  1.5285  1.8047 -0.0612
13177SOL    HW242424   7.053   5.861   7.031  1.2110  0.1172 -0.9820
13178SOL     OW42425   3.057   2.368   6.436  0.1399 -0.0932 -0.7262
13178SOL    HW142426   3.103   2.288   6.460 -1.0379 -1.5973 -3.1547
13178SOL    HW242427   3.114   2.410   6.372  1.4175  1.8680  1.5120
13179SOL     OW42428   7.567   3.428   7.990  0.1149 -0.0485  0.2458
13179SOL    HW142429   7.653   3.411   8.027 -0.9773 -0.8485  2.6167
13179SOL    HW242430   7.572   3.518   7.957  2.1679 -0.4830 -0.7536
13180SOL     OW42431   2.284   3.976   1.840 -0.3225 -0.3768 -0.0252
13180SOL    HW142432   2.334   3.933   1.770 -0.4387 -0.3648 -0.1147
13180SOL    HW242433   2.194   3.948   1.827 -0.1112 -1.7614  1.1429
13181SOL     OW42434   1.274   0.567   6.952 -0.2745  0.1144  0.1877
13181SOL    HW142435   1.278   0.525   7.038  1.7555  0.5228  0.3360
13181SOL    HW242436   1.265   0.494   6.891  0.2785 -0.3386  0.6332
13182SOL     OW42437   2.600   1.692   8.142 -0.3019 -0.2074  0.3090
13182SOL    HW142438   2.532   1.628   8.160 -0.0707  0.0159  2.2783
13182SOL    HW242439   2.555   1.776   8.145  0.1181  0.0150  2.5611
13183SOL     OW42440   6.195   4.208   0.843  0.2732  0.1340  0.2043
13183SOL    HW142441   6.152   4.166   0.917 -1.2738  1.3327  0.0228
13183SOL    HW242442   6.252   4.139   0.807 -0.5020 -1.1020  1.2436
13184SOL     OW42443   4.447   5.356   0.064 -0.0138 -0.2826 -0.0593
13184SOL    HW142444   4.402   5.421   0.117  0.8377  0.3633 -0.0984
13184SOL    HW242445   4.378   5.300   0.029 -0.6013 -0.6784  1.6516
13185SOL     OW42446   2.852   2.957   6.889  0.3404 -0.6785  0.5048
13185SOL    HW142447   2.828   3.046   6.916 -0.6125 -0.9080  0.4407
13185SOL    HW242448   2.872   2.912   6.971 -0.1099 -0.6640  0.6291
13186SOL     OW42449   4.036   1.687   3.625 -0.0235  0.3652  0.0058
13186SOL    HW142450   3.963   1.736   3.661  0.3641 -0.8355  2.6400
13186SOL    HW242451   4.106   1.696   3.690  0.8600 -1.6333 -0.5747
13187SOL     OW42452   6.275   2.811   4.040  0.3102  0.0741 -0.3074
13187SOL    HW142453   6.273   2.836   3.948 -0.1226 -0.3036 -0.4026
13187SOL    HW242454   6.315   2.724   4.041 -1.4854 -0.7951 -0.3556
13188SOL     OW42455   0.565   3.516   6.675  0.1944 -0.5143 -0.0716
13188SOL    HW142456   0.523   3.511   6.588  0.0649 -2.1198  0.0513
13188SOL    HW242457   0.566   3.425   6.706  0.0736  0.0505  1.6970
13189SOL     OW42458   0.707   3.020   7.685  0.1821 -0.0602  0.3269
13189SOL    HW142459   0.690   2.965   7.762 -0.5571 -1.2369 -0.6490
13189SOL    HW242460   0.783   2.979   7.643 -1.6311 -1.7043 -1.5696
13190SOL     OW42461   8.993   6.134   5.209 -0.0669  0.0617  0.2720
13190SOL    HW142462   9.063   6.097   5.263 -0.4822 -0.5577  0.3869
13190SOL    HW242463   8.925   6.158   5.272  0.1552  0.9599  0.1929
13191SOL     OW42464   7.452   6.830   1.517 -0.3424 -0.3403 -0.2567
13191SOL    HW142465   7.493   6.892   1.456 -0.3762 -1.4723 -1.4688
13191SOL    HW242466   7.406   6.768   1.461 -1.1166 -0.9073  0.9747
13192SOL     OW42467   2.217   6.169   6.014 -0.6086  0.2237  0.0442
13192SOL    HW142468   2.225   6.144   5.922  0.7733  0.2101  0.1517
13192SOL    HW242469   2.305   6.198   6.039 -0.6770 -0.8488  1.6714
13193SOL     OW42470   3.540   8.425   7.777 -0.0567 -0.0011 -0.0791
13193SOL    HW142471   3.532   8.475   7.695 -1.0314 -0.3246 -0.1933
13193SOL    HW242472   3.514   8.487   7.845 -0.1654 -0.0107 -0.1109
13194SOL     OW42473   8.473   4.165   3.123 -0.0534 -0.2957  0.5912
13194SOL    HW142474   8.511   4.145   3.209 -0.7297 -0.6922  0.8029
13194SOL    HW242475   8.526   4.114   3.062 -0.5572 -1.2815  0.9419
13195SOL     OW42476   1.853   7.597   3.508  0.1895 -0.5213  0.0023
13195SOL    HW142477   1.865   7.538   3.582 -1.4602 -0.4446  0.3815
13195SOL    HW242478   1.940   7.607   3.470  1.2363  0.0210  2.3743
13196SOL     OW42479   9.097   6.614   2.940  0.4713  0.4607 -0.3152
13196SOL    HW142480   9.189   6.640   2.952  0.0237  1.9200  0.1515
13196SOL    HW242481   9.047   6.688   2.975 -0.8949 -1.0816  1.1051
13197SOL     OW42482   4.277   2.426   8.991  0.2373 -0.1261  0.6950
13197SOL    HW142483   4.351   2.366   8.979  0.5442  0.3949 -0.1774
13197SOL    HW242484   4.232   2.395   9.069  1.0778 -0.7716  0.9313
13198SOL     OW42485   7.361   1.770   7.926 -0.0784 -0.0824 -0.1201
13198SOL    HW142486   7.361   1.728   8.012  1.7650  0.6044  0.2615
13198SOL    HW242487   7.309   1.711   7.871 -1.1766 -0.6158  1.3935
13199SOL     OW42488   3.235   2.087   7.215  0.0112  0.0946 -0.2614
13199SOL    HW142489   3.295   2.014   7.231 -1.2473 -1.0910 -0.7765
13199SOL    HW242490   3.225   2.090   7.120  0.3191  1.1857 -0.2728
13200SOL     OW42491   5.548   1.890   5.082  0.0057 -0.5402  0.3667
13200SOL    HW142492   5.493   1.813   5.091 -0.2316 -0.5211 -0.7333
13200SOL    HW242493   5.550   1.929   5.169 -1.7364 -0.5285  0.4350
13201SOL     OW42494   0.021   1.738   2.390 -0.1681  0.0895  0.0286
13201SOL    HW142495  -0.035   1.708   2.318 -1.2461 -0.5876  1.1063
13201SOL    HW242496   0.106   1.697   2.373 -0.7533 -1.0561 -0.2077
13202SOL     OW42497   1.586   8.368   2.078 -0.0551  0.3321 -0.3510
13202SOL    HW142498   1.584   8.420   1.998  1.3735  0.5649 -0.2667
13202SOL    HW242499   1.651   8.300   2.061  0.3402  0.4486  0.6201
13203SOL     OW42500   3.924   2.007   0.883 -0.6021  0.2374 -0.0755
13203SOL    HW142501   3.928   2.014   0.788  0.8514  0.8712 -0.0012
13203SOL    HW242502   3.877   1.926   0.900 -0.9646  0.1671 -1.3338
13204SOL     OW42503   0.292   4.709   4.093 -0.2882  0.5409 -0.1584
13204SOL    HW142504   0.222   4.753   4.142  0.9483  0.9172  1.3440
13204SOL    HW242505   0.358   4.777   4.081  0.9334 -0.4733  0.7170
13205SOL     OW42506   8.597   6.570   5.347 -0.6240 -0.0779  0.3123
13205SOL    HW142507   8.642   6.486   5.343 -0.3238  0.1057 -0.5704
13205SOL    HW242508   8.625   6.615   5.267  0.5901  1.5440  1.5910
13206SOL     OW42509   1.716   7.804   4.493 -0.5797 -0.2633 -0.3289
13206SOL    HW142510   1.654   7.860   4.446 -2.2150 -0.9585  0.8872
13206SOL    HW242511   1.764   7.864   4.550 -1.1237  0.1217 -0.2636
13207SOL     OW42512   0.141   0.167   1.144 -0.4785  0.0421  0.5635
13207SOL    HW142513   0.152   0.122   1.228  0.6273  2.1575  1.6358
13207SOL    HW242514   0.054   0.207   1.150 -0.1216  0.7618  1.0052
13208SOL     OW42515   5.716   1.871   0.121 -0.5356  0.0854 -0.6021
13208SOL    HW142516   5.659   1.928   0.175  2.3452  1.1538  1.5847
13208SOL    HW242517   5.727   1.792   0.174 -1.0198 -0.6794 -1.6256
13209SOL     OW42518   4.089   3.743   8.542  0.4896  0.5494  0.2541
13209SOL    HW142519   4.181   3.745   8.568  0.6178  0.7904 -0.2163
13209SOL    HW242520   4.076   3.822   8.489  0.0714  0.3972  0.1189
13210SOL     OW42521   2.517   9.114   4.196  0.2197 -0.5125 -0.1486
13210SOL    HW142522   2.462   9.189   4.173  0.7045  0.0294  0.4110
13210SOL    HW242523   2.605   9.152   4.207  0.6548 -1.3193 -0.7669
13211SOL     OW42524   1.682   1.103   8.056  0.5174  0.4033 -0.7411
13211SOL    HW142525   1.639   1.156   8.123  0.7471 -0.8058  0.4172
13211SOL    HW242526   1.628   1.114   7.978 -0.9272  0.2690  0.2086
13212SOL     OW42527   5.468   1.041   7.009 -0.1047  0.3778 -0.1601
13212SOL    HW142528   5.425   0.964   6.972  2.0338 -0.4847 -1.0394
13212SOL    HW242529   5.539   1.004   7.063  0.2529  1.7189  0.3166
13213SOL     OW42530   2.631   1.394   2.247 -0.1216 -0.2839 -0.9265
13213SOL    HW142531   2.636   1.482   2.211 -0.6172 -0.1400 -0.6449
13213SOL    HW242532   2.619   1.337   2.171 -0.4490 -0.0485 -1.0489
13214SOL     OW42533   1.380   1.690   1.533 -0.3369  0.3727  0.3113
13214SOL    HW142534   1.384   1.609   1.482  0.5410  0.2486  0.5604
13214SOL    HW242535   1.296   1.730   1.508 -0.3007 -0.0904 -0.6074
13215SOL     OW42536   4.049   6.257   4.910  1.2211 -0.1247 -0.3058
13215SOL    HW142537   4.088   6.341   4.934 -1.6081  1.2908 -0.2911
13215SOL    HW242538   4.064   6.250   4.815  1.3694  0.4462 -0.3280
13216SOL     OW42539   4.755   4.614   6.008  0.5061 -0.2528 -0.2925
13216SOL    HW142540   4.796   4.564   6.079  0.5453 -0.0311 -0.1583
13216SOL    HW242541   4.754   4.704   6.040 -0.2904 -0.2862 -0.2002
13217SOL     OW42542   0.404   7.809   2.615  0.3870  0.4689 -0.8541
13217SOL    HW142543   0.435   7.852   2.695 -1.6442 -0.0489  0.2772
13217SOL    HW242544   0.443   7.859   2.544  0.9241  1.9707  0.4496
13218SOL     OW42545   2.768   6.025   1.247  0.5306  0.1939 -0.1414
13218SOL    HW142546   2.730   5.943   1.282  0.2977  0.7842  1.0585
13218SOL    HW242547   2.787   6.077   1.325  1.5441  0.9210 -0.8525
13219SOL     OW42548   3.632   5.971   2.381 -0.0659  0.9554 -0.5252
13219SOL    HW142549   3.719   5.973   2.343  0.2159 -0.4705 -0.0134
13219SOL    HW242550   3.646   5.989   2.474 -0.3870  1.2903 -0.5377
13220SOL     OW42551   2.541   2.463   0.448  0.2429 -0.2949 -0.1832
13220SOL    HW142552   2.577   2.479   0.361  1.9055 -0.5243  0.4257
13220SOL    HW242553   2.502   2.547   0.473 -1.5371 -0.6147 -1.6807
13221SOL     OW42554   7.101   9.156   9.036 -0.4979  0.2341  0.0307
13221SOL    HW142555   7.170   9.211   8.999  1.1382 -2.3414 -0.9891
13221SOL    HW242556   7.098   9.181   9.128  0.2267  1.9296 -0.3612
13222SOL     OW42557   7.329   4.966   1.592  0.1452 -0.4705 -0.0259
13222SOL    HW142558   7.245   4.997   1.625  1.3010  1.5546  1.2619
13222SOL    HW242559   7.318   4.961   1.497 -1.0101  1.2762 -0.0278
13223SOL     OW42560   7.097   2.141   1.325  0.2607  0.3205  0.4696
13223SOL    HW142561   7.074   2.059   1.280  0.2050  0.8507 -0.5080
13223SOL    HW242562   7.179   2.168   1.284 -0.3695  1.3987 -0.1255
13224SOL     OW42563   0.271   0.273   5.578  0.4832  0.6441 -0.6170
13224SOL    HW142564   0.254   0.262   5.672 -0.0717 -0.6266 -0.8388
13224SOL    HW242565   0.300   0.186   5.549 -1.2686  0.4654 -1.9955
13225SOL     OW42566   3.865   6.931   1.095  0.2490 -0.1190  0.5489
13225SOL    HW142567   3.842   6.862   1.034 -0.8307 -1.7496  2.6807
13225SOL    HW242568   3.790   6.991   1.094 -0.3752 -0.8767  1.2585
13226SOL     OW42569   8.115   6.311   6.395  0.4735 -0.1002 -0.0334
13226SOL    HW142570   8.037   6.262   6.419 -1.2429  1.3348 -2.2593
13226SOL    HW242571   8.127   6.295   6.302  1.2533  1.7673 -0.3128
13227SOL     OW42572   5.053   3.867   3.749  0.1187 -0.1905 -0.4128
13227SOL    HW142573   5.063   3.903   3.837  1.4410  1.3344 -1.1326
13227SOL    HW242574   5.116   3.795   3.746  2.5421  1.8051 -1.0664
13228SOL     OW42575   7.458   6.432   7.233  0.1244  0.5674  0.1547
13228SOL    HW142576   7.496   6.414   7.147 -1.5709 -0.7773 -0.3766
13228SOL    HW242577   7.364   6.441   7.217  0.1344  4.8110  1.2476
13229SOL     OW42578   4.171   8.259   0.646  0.9110 -0.5405  0.3313
13229SOL    HW142579   4.083   8.295   0.651  0.5342 -1.3452 -0.3744
13229SOL    HW242580   4.213   8.289   0.727  0.5211  1.1731 -0.0520
13230SOL     OW42581   0.792   0.858   2.626 -0.1264 -0.5156 -0.8260
13230SOL    HW142582   0.882   0.828   2.635  0.5760  1.5311 -0.6222
13230SOL    HW242583   0.791   0.906   2.543 -0.6313  0.7838 -0.0834
13231SOL     OW42584   6.451   4.962   7.828 -0.1722 -0.2664 -0.2772
13231SOL    HW142585   6.364   4.925   7.815 -1.3440  1.5563  1.6672
13231SOL    HW242586   6.435   5.051   7.859  2.4333  0.6527 -1.2356
13232SOL     OW42587   7.866   4.352   6.545 -0.4700 -0.2994  0.1506
13232SOL    HW142588   7.799   4.340   6.612  0.3196  1.0062  1.2140
13232SOL    HW242589   7.947   4.362   6.594  0.2243  0.0347 -1.0365
13233SOL     OW42590   1.411   8.572   4.809  0.0389  0.2744  0.1770
13233SOL    HW142591   1.375   8.608   4.727  1.2682  0.5770 -0.2451
13233SOL    HW242592   1.381   8.481   4.810  0.3712  0.1423 -0.8316
13234SOL     OW42593   8.972   7.665   1.630 -0.1349  0.5857 -0.2576
13234SOL    HW142594   8.988   7.686   1.722 -0.9939  1.5061 -0.2919
13234SOL    HW242595   8.925   7.582   1.631  1.0194 -0.0776  0.0476
13235SOL     OW42596   2.667   4.225   1.040 -0.1675  0.6663  0.6544
13235SOL    HW142597   2.635   4.211   0.951 -1.0371 -1.4595  1.2293
13235SOL    HW242598   2.591   4.257   1.088 -0.4289 -0.6381  1.1573
13236SOL     OW42599   5.800   9.212   2.914  0.6985  0.2560  0.3848
13236SOL    HW142600   5.833   9.187   3.000  0.1856 -1.2760  0.1665
13236SOL    HW242601   5.871   9.188   2.854  0.9969  1.1857  0.3556
13237SOL     OW42602   3.228   5.685   6.132  0.3986  0.0943 -0.3712
13237SOL    HW142603   3.159   5.726   6.184  0.6363  0.4335 -0.3162
13237SOL    HW242604   3.183   5.649   6.056  0.1490  0.2498 -0.2983
13238SOL     OW42605   3.168   2.448   2.947  0.2260 -0.0601 -0.1544
13238SOL    HW142606   3.169   2.533   2.901  2.5044 -0.0164 -0.1583
13238SOL    HW242607   3.112   2.462   3.023  1.5047  1.8490  0.4945
13239SOL     OW42608   7.305   5.442   5.776  0.1496  0.0392  0.2743
13239SOL    HW142609   7.350   5.497   5.840  0.4066 -1.2018  1.1939
13239SOL    HW242610   7.313   5.491   5.694  0.2956  1.3987  1.0580
13240SOL     OW42611   2.057   0.906   0.841  0.0226  0.2587  0.4054
13240SOL    HW142612   2.046   0.924   0.934 -1.5836 -0.7946  0.4479
13240SOL    HW242613   2.023   0.984   0.797  0.7542  0.7435  0.6855
13241SOL     OW42614   3.439   7.385   4.633  0.7395  0.0515 -0.1203
13241SOL    HW142615   3.428   7.367   4.727 -0.6032 -0.6222 -0.3846
13241SOL    HW242616   3.435   7.480   4.626 -0.6571  0.0475  0.3506
13242SOL     OW42617   5.731   8.692   3.678  0.6987  0.3667 -0.0933
13242SOL    HW142618   5.818   8.685   3.638  0.7320  0.6130 -0.0626
13242SOL    HW242619   5.730   8.779   3.718  0.9773 -0.1868  1.1706
13243SOL     OW42620   6.485   3.128   7.718 -0.0308 -0.4158  0.0599
13243SOL    HW142621   6.441   3.154   7.799  0.9615  1.7776 -0.0262
13243SOL    HW242622   6.414   3.113   7.656 -0.7657 -0.5829  0.9166
13244SOL     OW42623   0.794   3.308   0.464  0.7361 -0.7942 -0.7454
13244SOL    HW142624   0.879   3.317   0.507  0.0390  2.8199  0.2517
13244SOL    HW242625   0.735   3.362   0.517 -2.0168 -2.4460 -1.9019
13245SOL     OW42626   6.973   3.800   1.209  0.2284 -0.3515  0.0153
13245SOL    HW142627   6.912   3.738   1.168  0.1005 -0.0102 -0.3211
13245SOL    HW242628   6.942   3.809   1.299  0.4209 -0.9968  0.1483
13246SOL     OW42629   7.767   8.984   2.800 -0.1610  0.1668  0.6370
13246SOL    HW142630   7.774   9.070   2.841 -1.0250  0.5718 -0.0418
13246SOL    HW242631   7.850   8.972   2.755 -0.4472  1.1335 -0.1764
13247SOL     OW42632   5.682   0.245   5.577  0.5057 -0.0299  0.2685
13247SOL    HW142633   5.654   0.158   5.549 -0.1094  0.0954  0.4685
13247SOL    HW242634   5.775   0.248   5.558 -0.2072  0.8926 -4.1454
13248SOL     OW42635   2.757   1.996   5.938 -0.0139  0.4145  0.0390
13248SOL    HW142636   2.714   1.911   5.927 -0.1919  0.6218 -0.8799
13248SOL    HW242637   2.806   2.009   5.857 -0.5740  1.5304 -0.1345
13249SOL     OW42638   7.739   9.156   4.413  0.1130  0.1439 -0.2071
13249SOL    HW142639   7.664   9.111   4.374  0.6509 -0.0260 -1.0712
13249SOL    HW242640   7.709   9.245   4.428  0.2427  0.5622 -2.1741
13250SOL     OW42641   3.976   3.920   0.096 -0.1361  0.4269  0.1516
13250SOL    HW142642   3.924   3.951   0.171  0.7684  1.6699  0.2924
13250SOL    HW242643   4.038   3.858   0.135  1.3432  2.2042  0.7247
13251SOL     OW42644   8.426   4.797   4.724  0.1205  0.5306  0.4934
13251SOL    HW142645   8.497   4.811   4.661  1.7544 -0.9566  1.8973
13251SOL    HW242646   8.380   4.718   4.692  0.3731  0.3161  0.6547
13252SOL     OW42647   8.800   8.456   2.858 -0.0341 -0.1257 -0.2571
13252SOL    HW142648   8.884   8.476   2.817  1.0013 -0.1003  1.7641
13252SOL    HW242649   8.822   8.393   2.927 -1.2614  1.6149  1.8604
13253SOL     OW42650   2.451   4.723   4.688 -0.2153 -0.0888 -0.3980
13253SOL    HW142651   2.529   4.667   4.685 -0.9449 -1.2700  1.0038
13253SOL    HW242652   2.389   4.673   4.742 -1.5803  1.2678 -0.6640
13254SOL     OW42653   1.389   0.275   5.032  0.3197  0.1893 -0.2022
13254SOL    HW142654   1.449   0.207   5.001  0.2826 -0.3340  0.8197
13254SOL    HW242655   1.304   0.250   4.997  0.1259 -0.8465  0.9280
13255SOL     OW42656   8.674   5.339   4.030  0.3192 -0.9177 -0.1522
13255SOL    HW142657   8.582   5.359   4.047  0.7180  0.5717  0.3906
13255SOL    HW242658   8.699   5.281   4.102 -0.1993 -1.3664 -0.3257
13256SOL     OW42659   2.541   2.024   0.488  0.1452  0.6826  0.4638
13256SOL    HW142660   2.476   2.094   0.474 -1.1418 -0.1482  1.9283
13256SOL    HW242661   2.598   2.058   0.557 -2.0566 -0.5982  3.0970
13257SOL     OW42662   5.374   7.602   8.379  0.4471 -0.4537 -0.5156
13257SOL    HW142663   5.460   7.580   8.343  0.0846 -0.9449 -1.1104
13257SOL    HW242664   5.355   7.690   8.345  1.4277  0.3567  0.9734
13258SOL     OW42665   1.510   3.847   2.718  0.0775  0.1916  0.2770
13258SOL    HW142666   1.418   3.822   2.728  0.0120  1.1346  3.2357
13258SOL    HW242667   1.507   3.929   2.668 -0.6449 -0.0270 -0.0524
13259SOL     OW42668   3.716   3.916   1.617  0.0740  0.0651 -0.7828
13259SOL    HW142669   3.680   3.910   1.706  2.3795 -1.7541  0.1349
13259SOL    HW242670   3.675   3.994   1.580 -0.1677  1.5290  2.2642
13260SOL     OW42671   2.654   8.686   4.827 -0.5789  0.0850 -0.1663
13260SOL    HW142672   2.607   8.694   4.744 -0.2944  0.2112 -0.3172
13260SOL    HW242673   2.586   8.697   4.894 -0.7778  0.1859 -0.3811
13261SOL     OW42674   1.678   6.121   8.848 -0.5397 -0.8088 -0.3956
13261SOL    HW142675   1.754   6.075   8.884  0.7596  0.5557 -1.2714
13261SOL    HW242676   1.651   6.068   8.773  0.3529 -0.6762 -0.8310
13262SOL     OW42677   5.026   7.586   6.988 -0.1847  0.0901  0.0458
13262SOL    HW142678   5.073   7.656   6.945  3.3677 -1.8981  0.2904
13262SOL    HW242679   4.971   7.630   7.053  0.6442  2.6530 -0.8699
13263SOL     OW42680   4.504   1.431   6.533 -0.4386 -0.4451 -0.0025
13263SOL    HW142681   4.410   1.437   6.549 -0.1933  0.7872  1.0845
13263SOL    HW242682   4.525   1.506   6.478 -0.0135 -0.4684  0.1213
13264SOL     OW42683   3.478   3.047   7.748  0.4337 -0.4332  0.5728
13264SOL    HW142684   3.453   3.095   7.826  0.3392 -0.1633  0.3782
13264SOL    HW242685   3.570   3.023   7.763  0.6809  0.3601  0.4056
13265SOL     OW42686   3.850   2.410   2.621  0.2119 -0.3188 -0.2646
13265SOL    HW142687   3.758   2.401   2.599 -0.0205 -0.0507  0.5710
13265SOL    HW242688   3.890   2.327   2.592  0.1837  0.4710 -2.8003
13266SOL     OW42689   6.398   1.158   1.554 -0.1194  0.2320  0.4188
13266SOL    HW142690   6.493   1.153   1.545 -0.1770  0.2615 -0.2313
13266SOL    HW242691   6.367   1.073   1.522 -0.5255  1.3929 -2.5581
13267SOL     OW42692   5.509   1.362   3.519 -0.1281  0.5497 -0.5331
13267SOL    HW142693   5.554   1.446   3.534 -1.9681  1.3398  0.9333
13267SOL    HW242694   5.577   1.306   3.482  1.1460  2.7103 -1.7117
13268SOL     OW42695   5.961   6.148   2.225 -0.6706  0.5701  0.1325
13268SOL    HW142696   5.921   6.199   2.154  0.2246 -0.4697 -1.1484
13268SOL    HW242697   6.008   6.078   2.181 -0.5479 -0.4379  1.7982
13269SOL     OW42698   4.600   0.299   4.863 -0.2307  0.6848 -0.2978
13269SOL    HW142699   4.637   0.256   4.940 -0.9972  2.2107  0.9839
13269SOL    HW242700   4.650   0.380   4.855 -0.0541  0.4768 -1.5340
13270SOL     OW42701   1.406   8.433   4.220 -0.5335  0.1398  0.2517
13270SOL    HW142702   1.331   8.381   4.249  0.4693 -0.5760  1.6779
13270SOL    HW242703   1.409   8.420   4.125 -0.8764 -1.6804  0.4488
13271SOL     OW42704   8.010   7.642   2.550  0.2465  0.1429 -0.0569
13271SOL    HW142705   8.027   7.700   2.624 -0.3329  0.3046 -0.0515
13271SOL    HW242706   7.973   7.563   2.590 -0.9368  0.5859 -0.2481
13272SOL     OW42707   2.236   3.422   2.210  0.5485  0.5646  0.0008
13272SOL    HW142708   2.188   3.492   2.165  1.6662  1.2544 -0.1488
13272SOL    HW242709   2.168   3.359   2.234 -0.6716  2.2232  1.1853
13273SOL     OW42710   4.098   2.110   3.640 -0.1637  0.1482  0.1797
13273SOL    HW142711   4.157   2.159   3.583 -0.2277 -0.0470 -0.0537
13273SOL    HW242712   4.019   2.097   3.588 -0.2474  0.0283  0.3359
13274SOL     OW42713   8.705   2.503   3.716  0.2214 -0.1168  0.0926
13274SOL    HW142714   8.644   2.496   3.644  1.6746 -1.6741 -1.0703
13274SOL    HW242715   8.664   2.455   3.788 -1.0850  1.1680  0.2400
13275SOL     OW42716   2.494   5.172   0.347 -0.3060 -0.4257 -0.0540
13275SOL    HW142717   2.419   5.216   0.308 -0.6371  0.2314  1.2519
13275SOL    HW242718   2.504   5.213   0.433  1.4079 -0.6645 -0.1005
13276SOL     OW42719   1.694   3.425   4.256 -0.6011 -0.1810 -0.0902
13276SOL    HW142720   1.746   3.344   4.255 -0.2258  0.0606 -0.2287
13276SOL    HW242721   1.660   3.430   4.346 -1.7084 -1.1752 -0.4298
13277SOL     OW42722   8.347   4.130   0.911  0.7671  0.0889 -0.3979
13277SOL    HW142723   8.345   4.221   0.940 -2.0701 -0.2095  0.6274
13277SOL    HW242724   8.356   4.135   0.816  1.3835  1.3953 -0.2887
13278SOL     OW42725   1.277   2.365   7.430 -0.3118  0.0549  0.8422
13278SOL    HW142726   1.274   2.448   7.477 -0.2780  0.3055  0.4075
13278SOL    HW242727   1.355   2.321   7.463  0.8660  1.1130 -0.4353
13279SOL     OW42728   2.067   1.689   1.658  0.0093  0.3443  0.4530
13279SOL    HW142729   2.040   1.628   1.590 -0.0906  1.7191 -0.7957
13279SOL    HW242730   1.985   1.714   1.702  0.0023 -0.1011  0.6936
13280SOL     OW42731   9.055   2.040   1.555 -0.2814  0.3447  0.1760
13280SOL    HW142732   9.070   1.969   1.618  0.4150  0.7006  0.4307
13280SOL    HW242733   9.087   2.005   1.472 -4.9574 -1.7282 -1.0535
13281SOL     OW42734   2.717   3.417   4.423 -0.4689 -0.3508  0.3170
13281SOL    HW142735   2.736   3.411   4.517 -0.0190 -1.0629  0.1967
13281SOL    HW242736   2.799   3.448   4.384 -1.3952  2.4726  0.4016
13282SOL     OW42737   1.002   3.775   1.640  0.0451 -0.1166  0.1573
13282SOL    HW142738   1.075   3.714   1.629 -0.4821 -0.6309 -0.5958
13282SOL    HW242739   0.967   3.787   1.552 -0.3077  0.7314  0.3996
13283SOL     OW42740   1.605   7.802   0.950 -0.5997 -0.3643 -0.0490
13283SOL    HW142741   1.692   7.836   0.970 -0.8458 -1.1777  2.9008
13283SOL    HW242742   1.548   7.879   0.955 -0.0886  0.1982 -2.1566
13284SOL     OW42743   1.453   3.007   1.018 -0.6831  0.4765  0.1471
13284SOL    HW142744   1.502   2.966   0.947 -0.0996  0.4685  0.5427
13284SOL    HW242745   1.380   3.052   0.975 -0.7276 -0.0925 -0.3897
13285SOL     OW42746   7.527   5.798   7.823 -0.0985  0.0046 -0.0281
13285SOL    HW142747   7.532   5.774   7.916 -1.4219 -0.6808 -0.1120
13285SOL    HW242748   7.532   5.893   7.822  1.0291 -0.0339  0.6544
13286SOL     OW42749   7.860   5.365   1.779 -0.0021  0.0851 -0.0012
13286SOL    HW142750   7.788   5.416   1.816 -0.4750 -0.4166 -0.2129
13286SOL    HW242751   7.833   5.274   1.788  0.2188 -0.0785 -0.8493
13287SOL     OW42752   1.092   7.593   9.219 -0.5844 -0.0646  0.3304
13287SOL    HW142753   1.063   7.672   9.175 -1.9273 -1.1564 -0.8548
13287SOL    HW242754   1.103   7.529   9.149  1.5525 -0.6549  1.1290
13288SOL     OW42755   5.281   7.511   3.267  0.2206  0.1412 -0.4475
13288SOL    HW142756   5.365   7.472   3.291 -0.0313  0.4991  1.1050
13288SOL    HW242757   5.255   7.563   3.344 -2.0302 -0.9709 -0.3776
13289SOL     OW42758   7.714   4.858   1.581  0.0557 -0.6438  0.1433
13289SOL    HW142759   7.625   4.823   1.585 -0.7481  1.1073 -1.0657
13289SOL    HW242760   7.737   4.855   1.488  0.2936  1.1169  0.1114
13290SOL     OW42761   5.270   6.396   8.794 -0.6706 -0.5631 -0.5779
13290SOL    HW142762   5.313   6.358   8.870  0.8671  1.2796 -0.4485
13290SOL    HW242763   5.315   6.480   8.781 -3.5936  1.0589 -1.0419
13291SOL     OW42764   5.461   2.585   7.967  0.2557  0.1663 -0.0069
13291SOL    HW142765   5.512   2.517   7.923 -1.5607 -0.2420 -1.6318
13291SOL    HW242766   5.437   2.547   8.051  2.0583  0.1357  0.5246
13292SOL     OW42767   6.337   1.108   7.462  0.4315 -0.1647 -0.2436
13292SOL    HW142768   6.372   1.123   7.374 -0.1651  0.2194 -0.4216
13292SOL    HW242769   6.246   1.135   7.456  0.4489  0.0769  0.5615
13293SOL     OW42770   4.853   2.248   6.354 -0.2699 -0.7402 -0.1524
13293SOL    HW142771   4.907   2.186   6.304  2.5356  0.1091  1.5886
13293SOL    HW242772   4.878   2.334   6.320 -1.4237 -0.3446 -0.0630
13294SOL     OW42773   7.953   8.130   1.937 -0.0340 -0.3150  0.2555
13294SOL    HW142774   7.864   8.161   1.919  0.8142  1.2363 -1.6977
13294SOL    HW242775   7.954   8.039   1.907 -0.2984  0.4547 -2.3856
13295SOL     OW42776   8.567   8.024   3.673 -0.3379  0.2009  0.4743
13295SOL    HW142777   8.552   7.938   3.713  1.8801 -0.5630 -0.2257
13295SOL    HW242778   8.536   8.015   3.583  0.0752  0.0590  0.3439
13296SOL     OW42779   6.913   0.432   3.159  0.4120  0.8008  0.6296
13296SOL    HW142780   6.999   0.459   3.126  0.3873 -0.2896 -0.4056
13296SOL    HW242781   6.851   0.481   3.106  0.3376  3.1515  2.7337
13297SOL     OW42782   3.909   2.290   4.177 -0.0643 -0.6839 -0.0520
13297SOL    HW142783   4.000   2.319   4.187  0.3502 -2.2901  1.4649
13297SOL    HW242784   3.915   2.206   4.131 -0.7422 -0.9478  0.3200
13298SOL     OW42785   1.230   0.551   4.305  0.0011 -0.2586 -0.6324
13298SOL    HW142786   1.179   0.489   4.358  0.8514 -0.6989 -0.3070
13298SOL    HW242787   1.321   0.523   4.317  0.4513  1.3921 -0.0563
13299SOL     OW42788   6.395   7.596   5.610  0.3599 -0.1507 -0.0211
13299SOL    HW142789   6.418   7.549   5.529  0.5192  0.0196 -0.0738
13299SOL    HW242790   6.316   7.645   5.588 -0.2023 -0.9248  0.2298
13300SOL     OW42791   4.482   2.213   4.410  0.0833  0.0106  0.5127
13300SOL    HW142792   4.427   2.166   4.347 -1.1456 -0.7114  2.0765
13300SOL    HW242793   4.560   2.237   4.359 -0.1881 -1.8566 -0.9134
13301SOL     OW42794   4.561   4.624   4.741  0.0498  0.7660  0.3036
13301SOL    HW142795   4.625   4.552   4.739  1.5808  2.0630 -0.5299
13301SOL    HW242796   4.615   4.702   4.752 -1.5379  1.8273  0.7524
13302SOL     OW42797   7.931   3.923   8.728  0.4210 -0.3476  0.1600
13302SOL    HW142798   7.893   3.945   8.813 -1.0694 -2.9365  0.2845
13302SOL    HW242799   8.025   3.922   8.742  0.2339  0.2365  1.5172
13303SOL     OW42800   4.192   9.252   9.262 -0.4407  0.0377  0.1963
13303SOL    HW142801   4.261   9.251   9.329  0.1304 -2.1897 -0.3434
13303SOL    HW242802   4.120   9.203   9.301 -0.3670 -0.6766 -0.5389
13304SOL     OW42803   4.709   4.224   0.119  0.9589  0.1326 -0.1868
13304SOL    HW142804   4.666   4.166   0.056 -0.0279  0.3330  0.2920
13304SOL    HW242805   4.794   4.182   0.135 -0.0764 -1.6822  0.8454
13305SOL     OW42806   9.101   0.504   3.000 -0.4381  0.0855  0.2225
13305SOL    HW142807   9.168   0.527   3.064 -1.0611 -1.8161  1.6484
13305SOL    HW242808   9.019   0.537   3.038 -0.7881 -0.8946  0.3615
13306SOL     OW42809   3.423   5.890   8.828 -0.9564  0.1696  0.6910
13306SOL    HW142810   3.386   5.925   8.747 -0.1552  0.3482  0.3828
13306SOL    HW242811   3.392   5.799   8.831  0.9323 -0.6333 -1.1281
13307SOL     OW42812   9.243   3.727   1.124 -0.0460  0.7261 -0.0898
13307SOL    HW142813   9.313   3.778   1.165 -0.3390  1.4012 -0.4008
13307SOL    HW242814   9.166   3.744   1.179  0.0211  0.0183  0.2295
13308SOL     OW42815   1.118   1.396   6.187  0.5470 -0.2590 -0.1540
13308SOL    HW142816   1.130   1.307   6.154 -0.2461  0.3018 -2.1087
13308SOL    HW242817   1.048   1.389   6.251  0.3029 -1.0149 -0.4911
13309SOL     OW42818   8.608   7.753   6.319  0.0620  0.2127  0.0616
13309SOL    HW142819   8.633   7.697   6.393 -0.0619 -2.0985 -1.5479
13309SOL    HW242820   8.687   7.760   6.266 -0.0925  1.1395 -0.0677
13310SOL     OW42821   2.624   3.710   6.982 -0.2064  0.5489 -0.1753
13310SOL    HW142822   2.596   3.738   6.895 -2.5147 -0.4300  0.1801
13310SOL    HW242823   2.660   3.622   6.969 -0.2195  0.5444 -0.1807
13311SOL     OW42824   3.014   3.878   3.549  0.3180 -0.4043  0.2903
13311SOL    HW142825   2.949   3.946   3.531 -0.7294 -1.1668  1.0709
13311SOL    HW242826   2.972   3.797   3.520  1.4288 -0.7640 -0.3508
13312SOL     OW42827   4.922   5.467   8.430 -0.0157  0.5502 -0.3145
13312SOL    HW142828   5.006   5.431   8.401  0.0321  0.0064  0.4963
13312SOL    HW242829   4.919   5.554   8.389  1.5187  1.0926  0.6420
13313SOL     OW42830   6.908   4.533   4.307 -0.0602  0.1711  0.2807
13313SOL    HW142831   6.934   4.501   4.220 -1.5195  0.0257 -0.1231
13313SOL    HW242832   6.956   4.477   4.368  1.8227  0.9550 -0.3808
13314SOL     OW42833   8.339   5.650   2.071 -0.1656  0.3824  0.1655
13314SOL    HW142834   8.319   5.742   2.058 -1.2255 -0.1628 -2.6658
13314SOL    HW242835   8.265   5.603   2.032  1.4695 -1.6684 -0.6584
13315SOL     OW42836   6.080   4.783   2.974 -0.2651 -0.5088 -0.2706
13315SOL    HW142837   6.083   4.786   2.879  1.7418  0.8654 -0.2299
13315SOL    HW242838   6.100   4.692   2.996  0.7016 -0.5236 -1.1553
13316SOL     OW42839   3.988   0.165   0.178 -0.6505 -0.1870 -0.3988
13316SOL    HW142840   3.924   0.117   0.127 -1.5104 -1.5761  1.8411
13316SOL    HW242841   4.042   0.098   0.220 -0.1901  0.8385  0.7432
13317SOL     OW42842   1.442   6.662   3.582  0.0691 -0.1294 -0.3535
13317SOL    HW142843   1.467   6.752   3.560 -0.3890  1.0200  3.2661
13317SOL    HW242844   1.373   6.640   3.519  1.8646  1.0376 -2.8873
13318SOL     OW42845   4.142   4.520   1.645  0.3325  0.0191 -0.3659
13318SOL    HW142846   4.102   4.477   1.570  0.7617 -0.0031 -0.5787
13318SOL    HW242847   4.233   4.535   1.620  1.2205 -2.3163  1.0989
13319SOL     OW42848   9.080   8.564   7.905  0.5059  0.4084 -0.1870
13319SOL    HW142849   9.043   8.641   7.948 -1.1088 -0.1962 -0.4215
13319SOL    HW242850   9.099   8.593   7.816  3.2093  1.4676  0.6288
13320SOL     OW42851   2.383   0.768   8.507  0.2434  0.2676 -0.2752
13320SOL    HW142852   2.344   0.697   8.560  0.1361 -0.0079 -0.7143
13320SOL    HW242853   2.407   0.725   8.425  1.8653  0.3432  0.1324
13321SOL     OW42854   7.042   1.446   2.615  0.2280 -0.2093  0.1919
13321SOL    HW142855   7.108   1.393   2.570 -0.8520 -1.8896  0.4853
13321SOL    HW242856   6.994   1.383   2.669 -0.9965  1.1258  0.7224
13322SOL     OW42857   6.431   5.568   5.775 -0.2927  0.1015 -0.3965
13322SOL    HW142858   6.424   5.545   5.868 -2.5566  0.1035 -0.5143
13322SOL    HW242859   6.414   5.662   5.773 -0.5691  0.0433 -0.8493
13323SOL     OW42860   6.139   5.294   4.203 -0.0038  0.4089  0.8488
13323SOL    HW142861   6.108   5.208   4.175 -2.3012  1.1190  1.0852
13323SOL    HW242862   6.204   5.275   4.271  1.2577 -1.1597 -0.7082
13324SOL     OW42863   5.728   1.203   2.093 -0.1601  0.0675  0.2158
13324SOL    HW142864   5.726   1.280   2.036 -0.1941  0.8693  1.2682
13324SOL    HW242865   5.788   1.142   2.049  0.2015  0.8647 -0.4185
13325SOL     OW42866   9.143   1.839   1.312  0.0688  0.0697 -0.0782
13325SOL    HW142867   9.214   1.799   1.262  0.0061  0.9240 -0.8761
13325SOL    HW242868   9.091   1.765   1.344 -0.7035 -0.4919 -2.4703
13326SOL     OW42869   4.475   7.420   8.223  0.0193 -0.1781 -1.3652
13326SOL    HW142870   4.452   7.457   8.309 -1.4987 -1.2195 -1.2918
13326SOL    HW242871   4.524   7.341   8.243  0.8937  0.3048 -1.5072
13327SOL     OW42872   4.239   6.933   8.732  0.8802 -0.2021  0.0923
13327SOL    HW142873   4.254   6.957   8.823  0.1417  1.0429 -0.0947
13327SOL    HW242874   4.144   6.925   8.724  0.7813  1.4678 -0.9513
13328SOL     OW42875   4.352   2.273   3.919  0.2755  0.0252 -0.2535
13328SOL    HW142876   4.302   2.353   3.932 -0.0825  0.1403 -2.1070
13328SOL    HW242877   4.431   2.301   3.873  0.2725 -0.6396 -0.6872
13329SOL     OW42878   7.402   0.376   0.632 -0.3810 -0.7807 -0.3485
13329SOL    HW142879   7.491   0.407   0.612 -0.7268 -1.3298 -3.2535
13329SOL    HW242880   7.415   0.303   0.692  0.9770  0.2006  0.6204
13330SOL     OW42881   2.992   5.823   1.706 -0.6645 -0.5457 -0.1377
13330SOL    HW142882   3.081   5.812   1.738 -1.1863  0.2694  1.7416
13330SOL    HW242883   2.985   5.761   1.633  1.0418 -1.5510  0.4883
13331SOL     OW42884   9.039   1.544   1.687 -0.4498 -0.1979  0.1189
13331SOL    HW142885   9.119   1.569   1.734  1.0254 -1.5215 -1.5883
13331SOL    HW242886   9.042   1.595   1.606 -2.1589  0.8605  0.6612
13332SOL     OW42887   1.428   4.179   6.271  0.4078  0.1887  0.7877
13332SOL    HW142888   1.373   4.151   6.198  1.9459  2.1347 -1.2460
13332SOL    HW242889   1.483   4.102   6.290  1.2767  0.1763 -1.4412
13333SOL     OW42890   7.405   5.643   0.825 -0.1997 -0.3380 -0.0466
13333SOL    HW142891   7.490   5.600   0.814  0.1516 -0.0884  1.4600
13333SOL    HW242892   7.361   5.592   0.892  0.0386  1.3154  1.4451
13334SOL     OW42893   0.484   9.015   7.637  0.0138 -0.1387 -0.1486
13334SOL    HW142894   0.540   9.051   7.568 -0.0589 -0.0091 -0.1411
13334SOL    HW242895   0.541   9.005   7.712 -0.0114  0.1508 -0.0908
13335SOL     OW42896   0.605   6.091   3.712 -0.0978  0.0180 -0.2178
13335SOL    HW142897   0.614   6.186   3.723 -1.5981  0.1064  0.5116
13335SOL    HW242898   0.652   6.054   3.787  0.9395  0.1501 -0.7879
13336SOL     OW42899   6.616   3.275   8.448 -0.5903 -0.6106  0.5967
13336SOL    HW142900   6.697   3.300   8.402 -0.4106 -1.0727  0.6543
13336SOL    HW242901   6.585   3.198   8.400 -1.0501 -0.3746  0.5142
13337SOL     OW42902   7.107   0.465   6.083  0.3189  0.1494 -0.3689
13337SOL    HW142903   7.071   0.518   6.012 -0.8862 -0.3081 -0.1175
13337SOL    HW242904   7.130   0.528   6.151 -0.4011  0.4250 -0.3738
13338SOL     OW42905   4.639   6.060   7.636  0.8931 -0.0259 -0.3499
13338SOL    HW142906   4.730   6.065   7.665  0.9996  1.7160 -0.8976
13338SOL    HW242907   4.588   6.097   7.709  0.5203 -1.4999  0.1932
13339SOL     OW42908   1.678   8.276   3.922  0.0965 -0.5734 -0.3999
13339SOL    HW142909   1.678   8.372   3.916 -0.2349 -0.4869  0.8133
13339SOL    HW242910   1.592   8.255   3.958  0.2718 -1.3207 -0.4127
13340SOL     OW42911   4.116   4.859   3.586  0.1651 -0.5216 -0.0324
13340SOL    HW142912   4.199   4.821   3.556  0.3969  0.0531 -0.1183
13340SOL    HW242913   4.106   4.939   3.534  0.3831  0.2852  1.1430
13341SOL     OW42914   2.628   7.573   0.570 -0.2662  0.0101  0.1146
13341SOL    HW142915   2.550   7.570   0.625 -1.4713 -1.0375 -1.5690
13341SOL    HW242916   2.637   7.484   0.537 -0.8569  1.0062 -3.0237
13342SOL     OW42917   2.128   0.755   2.884  0.1325  0.2785 -0.2427
13342SOL    HW142918   2.187   0.700   2.833 -0.8838 -0.1858 -0.9579
13342SOL    HW242919   2.043   0.744   2.842 -1.2279 -1.7183  2.7316
13343SOL     OW42920   0.130   1.405   3.052  0.5829 -0.0296 -0.5571
13343SOL    HW142921   0.038   1.412   3.078  0.3815  1.8731 -1.6286
13343SOL    HW242922   0.141   1.313   3.027 -1.3536 -0.0448 -1.5322
13344SOL     OW42923   9.030   0.113   8.547  0.2444 -0.0148  0.5925
13344SOL    HW142924   9.013   0.020   8.534 -1.1894 -0.0159  2.1582
13344SOL    HW242925   8.956   0.157   8.505  1.9555  0.6000 -2.0080
13345SOL     OW42926   6.952   6.161   2.176  0.1554  0.9914  0.2090
13345SOL    HW142927   6.871   6.169   2.124  1.8567 -1.8344 -3.3729
13345SOL    HW242928   7.007   6.234   2.146  0.4694  0.3927 -0.7334
13346SOL     OW42929   1.073   1.502   1.136 -0.4680 -0.3217  0.2127
13346SOL    HW142930   0.996   1.446   1.145 -1.7177  1.2205 -0.2701
13346SOL    HW242931   1.052   1.559   1.062  1.0934  0.2294  0.1587
13347SOL     OW42932   9.137   3.328   5.075 -0.1456  0.0820 -0.3167
13347SOL    HW142933   9.119   3.388   5.147 -1.2242  0.0314 -0.5278
13347SOL    HW242934   9.222   3.290   5.097 -0.5597 -0.1180  1.0587
13348SOL     OW42935   4.885   0.630   0.642  0.3728  0.0218 -0.1110
13348SOL    HW142936   4.967   0.652   0.686  0.1780 -0.1748  0.3514
13348SOL    HW242937   4.817   0.674   0.693  0.2250  0.6213 -0.7948
13349SOL     OW42938   2.178   7.139   0.815  0.2315  0.5803  0.3988
13349SOL    HW142939   2.150   7.132   0.723  1.6288 -0.3763  0.0111
13349SOL    HW242940   2.241   7.211   0.816 -1.6417  2.2896  1.1396
13350SOL     OW42941   8.941   4.866   2.661  0.5593 -0.3067 -0.4283
13350SOL    HW142942   8.978   4.946   2.625 -2.3219  1.4189  0.0895
13350SOL    HW242943   8.896   4.825   2.586  1.5858 -1.2066 -0.5749
13351SOL     OW42944   5.689   2.140   4.504 -0.3685  0.9206  0.2383
13351SOL    HW142945   5.627   2.147   4.432 -0.2078  0.6415  0.0716
13351SOL    HW242946   5.634   2.133   4.582 -0.5683 -0.1499  0.0218
13352SOL     OW42947   8.533   2.174   2.533 -0.5947 -0.2767 -0.4522
13352SOL    HW142948   8.618   2.149   2.569  0.0850  0.2155 -1.6332
13352SOL    HW242949   8.496   2.092   2.501 -0.4075 -0.4441 -0.2442
13353SOL     OW42950   3.278   4.543   2.101 -0.0233 -0.4431  0.1273
13353SOL    HW142951   3.213   4.614   2.102 -0.2692 -0.6650  0.2257
13353SOL    HW242952   3.312   4.540   2.191 -1.3517 -1.6450  0.6415
13354SOL     OW42953   0.970   0.738   2.257 -0.2070 -0.3626  0.8867
13354SOL    HW142954   0.901   0.682   2.294  0.4463 -3.3016 -1.9015
13354SOL    HW242955   0.928   0.782   2.183  0.2928 -0.2144  0.6854
13355SOL     OW42956   8.348   1.281   7.083  0.3187 -0.4220 -0.4326
13355SOL    HW142957   8.292   1.230   7.141  0.3414 -0.4000 -0.3910
13355SOL    HW242958   8.293   1.297   7.005  0.8469 -1.8660 -1.1402
13356SOL     OW42959   3.307   7.180   7.380 -0.6028  0.2333 -0.4730
13356SOL    HW142960   3.214   7.202   7.375 -0.6248  0.1549 -0.4083
13356SOL    HW242961   3.312   7.111   7.446 -0.5065  0.1898 -0.5261
13357SOL     OW42962   6.205   3.186   9.008  0.3900 -0.5203 -0.0994
13357SOL    HW142963   6.235   3.254   8.947  2.7701 -2.1303 -0.8732
13357SOL    HW242964   6.263   3.194   9.083 -0.2171 -0.8284  0.4118
13358SOL     OW42965   6.575   7.212   3.581  0.2400 -0.9066 -0.3409
13358SOL    HW142966   6.647   7.265   3.615  0.5868 -1.6898  0.1553
13358SOL    HW242967   6.540   7.265   3.509  2.7236 -1.4530 -2.0830
13359SOL     OW42968   4.182   5.939   3.004 -0.2623 -0.3624 -0.0070
13359SOL    HW142969   4.153   6.012   3.058  1.6387 -0.9731  2.0006
13359SOL    HW242970   4.251   5.897   3.056 -1.0632 -3.4122 -1.1571
13360SOL     OW42971   8.410   9.236   6.157  0.9455 -0.2885  1.0890
13360SOL    HW142972   8.420   9.145   6.127 -1.0611  0.1397 -1.1379
13360SOL    HW242973   8.367   9.227   6.242 -0.9614 -1.4534  0.0693
13361SOL     OW42974   6.695   9.030   8.796  0.3307 -0.0327  0.2481
13361SOL    HW142975   6.705   9.046   8.702  0.3091  0.5536  0.3403
13361SOL    HW242976   6.648   8.947   8.802 -0.6809  0.4899 -0.2787
13362SOL     OW42977   4.262   0.678   4.342  0.4754 -0.0439  0.0027
13362SOL    HW142978   4.269   0.619   4.417  0.7018  0.2444  0.2156
13362SOL    HW242979   4.170   0.705   4.341  0.4407 -0.1587  0.0944
13363SOL     OW42980   1.435   0.960   4.108 -0.2201 -0.0883 -0.5223
13363SOL    HW142981   1.352   0.953   4.060 -0.7458  0.3325  0.2964
13363SOL    HW242982   1.415   0.925   4.195  0.5855 -0.3807 -0.4442
13364SOL     OW42983   1.304   1.060   8.345  0.1347 -0.2050 -0.5109
13364SOL    HW142984   1.361   1.107   8.284  0.1753 -1.2103 -1.2735
13364SOL    HW242985   1.363   1.004   8.396  0.1483  0.9096  0.7546
13365SOL     OW42986   1.678   7.561   6.841 -0.0248 -0.1102 -0.1661
13365SOL    HW142987   1.599   7.510   6.823 -0.2799  0.3152 -0.2740
13365SOL    HW242988   1.656   7.612   6.919  0.2529 -0.2230 -0.0151
13366SOL     OW42989   0.614   3.755   0.690  0.0297  0.0029  0.0706
13366SOL    HW142990   0.549   3.815   0.728 -0.8026  0.6811 -2.2391
13366SOL    HW242991   0.680   3.812   0.651 -1.0577 -0.4526 -2.6540
13367SOL     OW42992   7.401   7.073   7.476 -0.2918  0.0625 -0.4336
13367SOL    HW142993   7.418   7.166   7.491  2.7982 -0.5123  0.5298
13367SOL    HW242994   7.443   7.029   7.550  0.2930 -2.1658 -1.9738
13368SOL     OW42995   0.922   7.923   2.963  0.4843  0.2476  0.2785
13368SOL    HW142996   0.933   7.944   2.870  2.9172  1.0811  0.6609
13368SOL    HW242997   0.842   7.969   2.989 -1.0118 -1.1174 -1.6480
13369SOL     OW42998   6.777   0.046   7.066  0.3158 -0.0238  0.0475
13369SOL    HW142999   6.785  -0.023   7.132 -0.2508 -0.8614 -0.7247
13369SOL    HW243000   6.836   0.018   6.996  0.7813  0.7621  0.1160
13370SOL     OW43001   6.806   3.671   3.526 -0.7183  0.3403  0.6738
13370SOL    HW143002   6.815   3.614   3.450  0.8374  0.5851  0.6382
13370SOL    HW243003   6.846   3.753   3.499 -2.1422  1.1837  1.0300
13371SOL     OW43004   6.916   5.929   7.754 -0.0357  0.3908  0.5844
13371SOL    HW143005   6.843   5.944   7.694  1.0859 -1.5983 -1.3895
13371SOL    HW243006   6.882   5.868   7.819  0.5326 -2.9749 -2.0341
13372SOL     OW43007   8.507   6.610   1.165  0.0983  0.2455 -0.1714
13372SOL    HW143008   8.488   6.621   1.258  0.6021  0.6317 -0.1111
13372SOL    HW243009   8.423   6.623   1.121 -0.3252 -0.8304  0.2927
13373SOL     OW43010   6.500   5.793   3.421  0.2450  0.5582  0.7082
13373SOL    HW143011   6.406   5.808   3.410  0.4670  1.7173  0.2283
13373SOL    HW243012   6.513   5.702   3.392 -0.5412  0.7680 -0.3781
13374SOL     OW43013   7.317   7.731   3.482 -0.1144  0.3758 -0.3480
13374SOL    HW143014   7.250   7.799   3.485 -1.4511 -0.9002  0.3226
13374SOL    HW243015   7.305   7.690   3.396  1.3622  1.5896 -1.1732
13375SOL     OW43016   8.026   1.842   2.583  0.0416  0.2647 -0.1376
13375SOL    HW143017   8.013   1.755   2.545  1.5725  0.5838 -1.5072
13375SOL    HW243018   8.000   1.902   2.514 -1.9459  0.9544  1.1398
13376SOL     OW43019   3.613   0.612   9.027 -0.6118 -0.1890 -0.2092
13376SOL    HW143020   3.679   0.548   9.001 -0.2220  0.1559 -0.0803
13376SOL    HW243021   3.608   0.603   9.123  0.0047  0.5060 -0.1070
13377SOL     OW43022   0.954   6.292   7.752 -0.5774 -0.6720  0.5656
13377SOL    HW143023   0.924   6.341   7.829  0.7211 -0.3191  0.8626
13377SOL    HW243024   0.934   6.201   7.773 -1.4902 -0.4529  0.7207
13378SOL     OW43025   6.468   2.579   5.404 -0.3396  0.6467 -0.4025
13378SOL    HW143026   6.374   2.567   5.390 -0.1730  0.1548 -1.1722
13378SOL    HW243027   6.502   2.608   5.319  0.2059  0.7997 -0.1396
13379SOL     OW43028   7.368   3.919   3.826  0.4457  0.2006  0.3187
13379SOL    HW143029   7.461   3.928   3.843  0.3154 -1.2631  2.1270
13379SOL    HW243030   7.362   3.851   3.759  0.6537 -0.0911  0.5983
13380SOL     OW43031   0.189   5.858   3.179 -0.3183 -0.0016 -0.1239
13380SOL    HW143032   0.098   5.849   3.148 -1.0038 -1.8574  2.1617
13380SOL    HW243033   0.191   5.944   3.221 -0.7485  0.4267 -0.9504
13381SOL     OW43034   0.093   0.077   4.724 -0.0771  0.2390 -0.1671
13381SOL    HW143035   0.098   0.172   4.732 -0.7558  0.2305  0.4423
13381SOL    HW243036   0.070   0.062   4.632 -0.1915  0.6754 -0.2127
13382SOL     OW43037   7.688   3.314   2.935 -0.2933  0.5450  0.1423
13382SOL    HW143038   7.719   3.244   2.992 -0.2643  0.7649  0.3964
13382SOL    HW243039   7.670   3.388   2.994 -2.1388  0.1521  0.1370
13383SOL     OW43040   2.289   1.041   8.535  0.6292 -0.2311  0.3180
13383SOL    HW143041   2.311   0.958   8.493  0.5915 -1.2148  2.1766
13383SOL    HW243042   2.263   1.018   8.624 -1.4389  1.5708  0.2609
13384SOL     OW43043   3.922   0.178   8.901 -0.3885 -0.0282  0.2200
13384SOL    HW143044   3.907   0.182   8.807  0.1814 -3.5298 -0.1633
13384SOL    HW243045   3.835   0.192   8.940 -0.5177  2.0943 -0.7186
13385SOL     OW43046   7.686   7.858   7.016 -0.1583 -0.1819 -0.4713
13385SOL    HW143047   7.773   7.874   7.052 -0.9076  1.2936  0.7963
13385SOL    HW243048   7.695   7.776   6.967  1.5782 -0.8391  0.8434
13386SOL     OW43049   3.828   5.606   4.208 -0.0551  0.3525  0.2186
13386SOL    HW143050   3.870   5.602   4.293  1.7055 -3.2125 -0.6153
13386SOL    HW243051   3.896   5.639   4.149 -0.5192  0.5919 -0.1919
13387SOL     OW43052   5.832   7.332   2.564 -0.1645  0.4821 -0.3265
13387SOL    HW143053   5.836   7.241   2.536  0.0914 -0.1978  1.8054
13387SOL    HW243054   5.814   7.381   2.483  2.0973 -1.1693 -1.9419
13388SOL     OW43055   6.942   6.249   2.431  0.4720  0.0080 -0.0276
13388SOL    HW143056   6.895   6.181   2.479  0.0665 -0.2971 -0.8438
13388SOL    HW243057   6.983   6.203   2.358  0.1776  0.6360 -0.5969
13389SOL     OW43058   1.906   1.710   5.768  0.6103 -0.5056  0.2754
13389SOL    HW143059   1.946   1.793   5.740  1.0502 -0.0505  2.1143
13389SOL    HW243060   1.894   1.720   5.862  0.4492 -2.4542  0.4977
13390SOL     OW43061   3.580   0.516   4.810 -0.2938 -0.4288  0.2739
13390SOL    HW143062   3.641   0.566   4.864 -1.0362  1.1114 -0.2623
13390SOL    HW243063   3.521   0.475   4.874  0.2966 -0.5940  0.7218
13391SOL     OW43064   8.822   3.850   1.618 -0.0665  0.1099  0.0084
13391SOL    HW143065   8.850   3.825   1.706 -0.9376 -0.1272  0.2300
13391SOL    HW243066   8.777   3.772   1.584  1.8370 -0.4522 -1.3636
13392SOL     OW43067   2.222   3.079   1.640 -0.9565  0.2562  0.4882
13392SOL    HW143068   2.138   3.120   1.657 -0.5947  1.4244 -0.3970
13392SOL    HW243069   2.209   2.987   1.662 -2.2410  0.5524  1.0577
13393SOL     OW43070   2.644   0.338   7.676  0.1395  0.3806  0.1688
13393SOL    HW143071   2.641   0.302   7.765  0.7036 -1.2558 -0.4309
13393SOL    HW243072   2.562   0.308   7.636 -0.9320  2.5556  0.6190
13394SOL     OW43073   7.997   1.180   3.367 -0.0659  0.2964  0.3694
13394SOL    HW143074   8.039   1.165   3.452  0.2730  1.2430  0.3856
13394SOL    HW243075   7.965   1.270   3.373 -1.9196 -0.3241  0.2706
13395SOL     OW43076   7.476   5.319   8.094 -0.0583 -0.1721  0.2274
13395SOL    HW143077   7.445   5.235   8.060 -0.3134 -0.9738  2.2699
13395SOL    HW243078   7.408   5.347   8.155  0.9106  0.5520  1.0050
13396SOL     OW43079   0.330   8.038   1.638 -0.4502 -0.2166  0.1674
13396SOL    HW143080   0.351   7.960   1.689  0.0389 -1.4484 -1.8106
13396SOL    HW243081   0.236   8.050   1.649  0.0320  1.5236  3.9000
13397SOL     OW43082   2.983   5.466   4.162 -0.1198  0.1370 -1.0100
13397SOL    HW143083   2.951   5.531   4.225 -1.0418  0.0295 -1.3481
13397SOL    HW243084   2.922   5.392   4.172  1.2063 -0.9050 -0.2663
13398SOL     OW43085   3.081   0.595   5.413  0.4166  0.0220  0.5060
13398SOL    HW143086   3.135   0.660   5.458  0.7926  0.4982 -0.6060
13398SOL    HW243087   3.018   0.566   5.480 -0.8934  2.7854  0.6259
13399SOL     OW43088   3.893   2.163   2.503  0.0621  0.0704 -0.7487
13399SOL    HW143089   3.854   2.152   2.416 -1.3572  2.2506 -0.4829
13399SOL    HW243090   3.987   2.164   2.486 -0.1963  1.1324 -2.4044
13400SOL     OW43091   6.038   1.278   0.360  0.2651 -0.2827  0.4388
13400SOL    HW143092   6.051   1.355   0.305 -2.1526  1.3211  1.8715
13400SOL    HW243093   5.965   1.232   0.319  1.1928 -1.4196  0.0256
13401SOL     OW43094   2.586   6.497   0.465 -0.4193  0.7637 -0.2922
13401SOL    HW143095   2.621   6.491   0.376 -0.7136 -0.2825 -0.3469
13401SOL    HW243096   2.643   6.441   0.517 -1.5825 -0.4257 -0.2534
13402SOL     OW43097   8.125   6.041   4.027 -0.1873  0.0881 -0.1670
13402SOL    HW143098   8.048   6.071   3.977 -0.5031 -0.5475 -0.0694
13402SOL    HW243099   8.144   5.954   3.991 -1.1320 -0.8903  1.5930
13403SOL     OW43100   9.076   2.101   4.870 -0.0944 -0.4231  0.3957
13403SOL    HW143101   9.095   2.018   4.915 -0.6341 -1.4246 -1.1542
13403SOL    HW243102   8.981   2.105   4.867 -0.2454  1.9167  3.3128
13404SOL     OW43103   8.286   2.925   6.739  0.2035 -0.0424  0.6144
13404SOL    HW143104   8.342   2.871   6.795 -2.4358 -1.0005  2.5152
13404SOL    HW243105   8.281   3.009   6.783 -1.2439 -0.5431  1.4509
13405SOL     OW43106   0.732   5.854   0.715  0.2632  0.0500 -0.1802
13405SOL    HW143107   0.810   5.893   0.754  0.2565  0.0178 -0.1349
13405SOL    HW243108   0.735   5.881   0.623  1.2905 -1.4395 -0.6141
13406SOL     OW43109   4.208   8.812   8.568  0.1185 -0.7432 -0.2826
13406SOL    HW143110   4.193   8.752   8.642 -1.3875 -1.9454 -1.4922
13406SOL    HW243111   4.188   8.899   8.603 -2.0246 -1.4411  0.3923
13407SOL     OW43112   4.712   5.195   5.360  0.2896 -0.3543  0.4055
13407SOL    HW143113   4.648   5.164   5.424  0.0229  2.2212  1.4899
13407SOL    HW243114   4.671   5.271   5.319  1.4988 -0.4228 -1.0388
13408SOL     OW43115   1.513   0.012   9.085  0.0832  0.4099 -0.2653
13408SOL    HW143116   1.424  -0.022   9.084 -0.2901  1.3704 -0.2709
13408SOL    HW243117   1.508   0.097   9.041  0.5632  1.4966  1.6441
13409SOL     OW43118   1.481   1.996   8.070 -0.4824  0.3158  0.4480
13409SOL    HW143119   1.549   2.000   8.003 -1.6154 -1.2078 -0.8652
13409SOL    HW243120   1.441   2.083   8.070  1.3759  1.2256  1.2144
13410SOL     OW43121   6.476   8.316   8.708 -0.3024 -0.8408  0.3733
13410SOL    HW143122   6.474   8.305   8.613  0.9229 -1.2585  0.3856
13410SOL    HW243123   6.474   8.227   8.743  0.6321 -0.7446  0.6969
13411SOL     OW43124   0.138   8.629   8.406  0.3230 -0.1227 -0.2160
13411SOL    HW143125   0.153   8.566   8.335  1.4649  0.3627 -0.4122
13411SOL    HW243126   0.223   8.671   8.420 -0.3018  1.0172  0.2690
13412SOL     OW43127   2.370   6.672   0.468  0.3723 -0.0137 -0.0829
13412SOL    HW143128   2.436   6.606   0.489  1.6786  1.5946  1.1611
13412SOL    HW243129   2.287   6.624   0.471  1.2485 -1.5802  0.8319
13413SOL     OW43130   6.902   6.320   1.457 -0.3913 -0.0410  0.2836
13413SOL    HW143131   6.825   6.369   1.485  0.7308  1.1147  1.5215
13413SOL    HW243132   6.940   6.372   1.386 -0.0034  0.1119  0.6016
13414SOL     OW43133   3.274   3.459   2.453 -0.1262  0.4658 -0.2244
13414SOL    HW143134   3.187   3.474   2.417 -0.3032  1.8421  0.7099
13414SOL    HW243135   3.335   3.483   2.383 -0.4853  0.3242 -0.5836
13415SOL     OW43136   4.224   5.614   3.148  0.2892 -0.5415  0.0642
13415SOL    HW143137   4.288   5.685   3.147  0.0855 -0.2397 -3.2099
13415SOL    HW243138   4.270   5.539   3.110  0.1323 -1.8691  2.3483
13416SOL     OW43139   8.663   7.983   9.172 -0.3843  0.8061 -0.5210
13416SOL    HW143140   8.712   7.919   9.120  0.3160 -0.5421  1.6341
13416SOL    HW243141   8.572   7.969   9.148 -0.2278 -0.9126 -0.2493
13417SOL     OW43142   3.122   1.067   7.147 -0.2153  0.0440 -0.4808
13417SOL    HW143143   3.202   1.120   7.155 -0.1962 -0.0334 -0.1233
13417SOL    HW243144   3.087   1.064   7.236 -0.8396  0.4128 -0.7119
13418SOL     OW43145   1.799   3.917   8.437 -0.3910  0.3118 -0.0322
13418SOL    HW143146   1.730   3.983   8.437 -0.8384 -0.1518 -0.5338
13418SOL    HW243147   1.848   3.934   8.518 -1.4162  0.3023  0.6066
13419SOL     OW43148   4.986   2.706   2.985  0.0665  0.5195  0.5549
13419SOL    HW143149   5.070   2.683   2.946  0.9870  1.2485  2.0020
13419SOL    HW243150   4.995   2.798   3.010  0.2706 -0.2784  4.0128
13420SOL     OW43151   5.042   7.110   2.502 -0.7689 -0.3335  0.1258
13420SOL    HW143152   5.135   7.092   2.488 -0.9391 -0.4911 -0.9010
13420SOL    HW243153   5.039   7.160   2.584  0.1839 -0.5976  0.3349
13421SOL     OW43154   3.575   6.611   4.315 -0.8331 -0.9278  0.0304
13421SOL    HW143155   3.669   6.630   4.311 -1.3712  2.2060 -0.7287
13421SOL    HW243156   3.557   6.565   4.233 -0.2464  0.3546 -0.8652
13422SOL     OW43157   8.279   1.569   6.947  0.1760 -0.2866  0.1235
13422SOL    HW143158   8.216   1.613   7.004  0.2216 -0.5030  0.3390
13422SOL    HW243159   8.233   1.491   6.916  0.6857 -0.9874  1.0861
13423SOL     OW43160   7.101   6.789   2.959  0.3190 -0.0317 -0.6185
13423SOL    HW143161   7.101   6.807   3.053 -0.6173  1.8109 -0.9194
13423SOL    HW243162   7.025   6.732   2.946  0.0522  0.2612 -0.3517
13424SOL     OW43163   3.976   2.910   6.016  0.2901  0.0466  0.7229
13424SOL    HW143164   4.011   2.871   6.096  0.4371  0.2860  0.7775
13424SOL    HW243165   3.985   3.005   6.030  2.3078  0.0851 -0.4364
13425SOL     OW43166   7.564   4.261   4.525  0.0545 -0.0100  0.3421
13425SOL    HW143167   7.561   4.288   4.616  0.8568 -0.8180  0.6227
13425SOL    HW243168   7.575   4.166   4.528 -1.8306 -0.3110 -0.6113
13426SOL     OW43169   5.306   8.352   1.438 -0.5610  0.0283 -0.0320
13426SOL    HW143170   5.247   8.307   1.377 -1.4641 -2.2553  2.3525
13426SOL    HW243171   5.373   8.287   1.460  0.2375  1.0776  0.7362
13427SOL     OW43172   4.947   7.723   1.580 -0.9662  0.4321 -0.1590
13427SOL    HW143173   5.024   7.697   1.529 -0.1370  3.8620 -0.9122
13427SOL    HW243174   4.897   7.641   1.592  0.9534 -1.2730 -2.7457
13428SOL     OW43175   2.897   8.797   0.493  0.1115  0.2866 -0.2928
13428SOL    HW143176   2.931   8.838   0.413  1.8483 -0.8069 -0.1661
13428SOL    HW243177   2.974   8.784   0.548 -0.4885 -2.1770  0.0974
13429SOL     OW43178   8.246   4.821   3.458 -0.1519 -0.7387  0.0480
13429SOL    HW143179   8.257   4.903   3.410  0.2054 -1.8505 -1.8673
13429SOL    HW243180   8.317   4.765   3.427 -2.7245 -3.2418 -2.0343
13430SOL     OW43181   3.767   9.263   6.580  0.2035  0.0684 -0.3118
13430SOL    HW143182   3.675   9.255   6.604  0.1516  1.5854  0.1217
13430SOL    HW243183   3.791   9.352   6.606  1.2460  0.4020 -2.2400
13431SOL     OW43184   0.600   0.784   1.949 -0.0640  0.7751  0.0149
13431SOL    HW143185   0.512   0.797   1.984 -0.7970  1.1483 -1.8625
13431SOL    HW243186   0.593   0.705   1.895  1.0706  0.1140  0.8084
13432SOL     OW43187   0.690   5.047   3.512 -0.3810  0.0830  0.1151
13432SOL    HW143188   0.599   5.031   3.538 -0.4547 -1.5390 -0.9903
13432SOL    HW243189   0.699   5.003   3.428  1.9144 -1.3241  1.0035
13433SOL     OW43190   5.378   0.729   9.034 -0.1936 -0.0347  1.2985
13433SOL    HW143191   5.444   0.793   9.004 -0.3827 -1.2042 -2.0760
13433SOL    HW243192   5.422   0.679   9.102  2.1565 -0.1491 -0.1882
13434SOL     OW43193   3.667   6.091   5.787  0.3066  0.5254 -0.8136
13434SOL    HW143194   3.580   6.072   5.822  1.8946 -1.4622  2.4902
13434SOL    HW243195   3.679   6.026   5.717  0.1376 -1.1041  0.6101
13435SOL     OW43196   5.885   0.949   0.081 -0.2407  0.3760  0.3570
13435SOL    HW143197   5.940   0.882   0.120  1.0086  0.1115 -1.6972
13435SOL    HW243198   5.891   0.933  -0.013  1.1951  4.1574 -0.3512
13436SOL     OW43199   2.265   7.248   7.806 -0.5132 -0.7459 -0.0662
13436SOL    HW143200   2.233   7.158   7.794 -0.3073 -0.9297  0.7060
13436SOL    HW243201   2.255   7.264   7.899 -1.4045  0.3708 -0.3325
13437SOL     OW43202   9.219   2.060   4.637  0.1927 -0.2207 -0.0421
13437SOL    HW143203   9.158   2.050   4.710  0.4907 -0.0471  0.2336
13437SOL    HW243204   9.194   2.143   4.596 -0.7707 -0.9032 -0.9027
13438SOL     OW43205   3.701   0.614   1.751 -0.4014  0.5653 -0.1030
13438SOL    HW143206   3.731   0.602   1.662  0.0570  0.3283  0.0804
13438SOL    HW243207   3.663   0.529   1.776  3.0495 -0.7635  1.2726
13439SOL     OW43208   5.779   8.654   8.645 -0.3396 -0.5847 -0.8836
13439SOL    HW143209   5.771   8.600   8.724  0.2483 -0.8006 -0.9664
13439SOL    HW243210   5.838   8.725   8.670  0.7368 -1.2566 -1.4281
13440SOL     OW43211   6.635   3.886   8.290 -0.5037  0.3119  0.1714
13440SOL    HW143212   6.548   3.848   8.281 -2.0427  3.2621  1.1582
13440SOL    HW243213   6.673   3.840   8.365 -1.4556 -0.5659  0.1469
13441SOL     OW43214   0.954   8.401   2.695 -0.0172 -0.5569 -0.6727
13441SOL    HW143215   1.030   8.362   2.739 -0.8105 -0.7594  0.5758
13441SOL    HW243216   0.969   8.496   2.702 -0.6571 -0.5440  1.0962
13442SOL     OW43217   9.262   5.918   9.191  0.1202  0.0201  0.4935
13442SOL    HW143218   9.309   5.856   9.136 -1.8721 -0.7514 -0.4645
13442SOL    HW243219   9.289   5.897   9.280  0.7624 -1.0919  0.0630
13443SOL     OW43220   2.866   0.634   8.330 -1.1517 -0.3268  0.4446
13443SOL    HW143221   2.859   0.568   8.261  0.3662  0.0074 -0.0806
13443SOL    HW243222   2.843   0.716   8.286  2.3549  0.3116 -0.4915
13444SOL     OW43223   6.624   1.550   5.545 -0.0010 -0.5701 -0.5729
13444SOL    HW143224   6.654   1.640   5.548  0.8309 -0.8449 -0.0667
13444SOL    HW243225   6.673   1.510   5.473  1.5012 -1.2084  0.7128
13445SOL     OW43226   6.053   2.993   7.237  0.2261  0.0322  0.0907
13445SOL    HW143227   6.058   3.002   7.332  2.1064  0.4151 -0.0081
13445SOL    HW243228   6.127   2.936   7.214 -0.9405 -1.1062 -1.0440
13446SOL     OW43229   9.074   2.692   9.150 -0.3265  0.2253 -0.3887
13446SOL    HW143230   9.137   2.734   9.092 -0.4845  0.5247 -0.3471
13446SOL    HW243231   9.113   2.699   9.237  0.0864 -0.5540 -0.4969
13447SOL     OW43232   5.542   2.533   3.431 -0.2050  0.2447  0.4614
13447SOL    HW143233   5.474   2.553   3.495 -0.5703  0.3446  0.0516
13447SOL    HW243234   5.622   2.527   3.482 -0.6416 -0.6280  1.0567
13448SOL     OW43235   5.906   5.527   2.217 -0.2524 -0.2814 -0.0266
13448SOL    HW143236   5.843   5.571   2.160 -1.2272 -0.6978  0.6899
13448SOL    HW243237   5.940   5.596   2.273  0.0876 -0.0167 -0.5528
13449SOL     OW43238   4.901   8.727   2.746  0.1309  0.4404 -0.0166
13449SOL    HW143239   4.959   8.775   2.687  0.5131 -0.0660 -0.0621
13449SOL    HW243240   4.958   8.662   2.787 -0.2660  0.3761  0.4449
13450SOL     OW43241   7.665   7.847   2.122  0.6788  0.1000  0.3735
13450SOL    HW143242   7.625   7.792   2.054 -0.9148  0.2751  1.1107
13450SOL    HW243243   7.641   7.804   2.204  1.1865  0.7797  0.8834
13451SOL     OW43244   7.956   4.670   8.850 -0.1484 -0.1619  0.0551
13451SOL    HW143245   7.968   4.627   8.765 -0.0155  0.8381 -0.4412
13451SOL    HW243246   7.890   4.737   8.834 -0.9684 -0.6993  1.0229
13452SOL     OW43247   3.944   2.937   6.417 -0.4852  0.3708 -0.1687
13452SOL    HW143248   3.907   3.017   6.457  2.2786  1.6052  0.1604
13452SOL    HW243249   3.951   2.875   6.490  1.1903  1.3476  0.5540
13453SOL     OW43250   4.273   5.686   5.555 -0.2611  0.3958  0.0806
13453SOL    HW143251   4.323   5.604   5.559 -2.5077 -1.0434  0.8127
13453SOL    HW243252   4.234   5.694   5.642 -1.4059  1.3525 -0.4915
13454SOL     OW43253   4.828   2.490   6.077 -0.3331  0.7801  0.1150
13454SOL    HW143254   4.739   2.455   6.073  0.5371 -1.9711  1.9548
13454SOL    HW243255   4.871   2.454   6.000 -0.3070  0.4256  0.2907
13455SOL     OW43256   3.828   1.576   5.023 -0.0843 -0.3784  0.1068
13455SOL    HW143257   3.793   1.653   4.978  2.0031 -0.5976 -2.0738
13455SOL    HW243258   3.900   1.609   5.076  0.4318 -0.7487 -0.3632
13456SOL     OW43259   4.247   5.850   3.609  0.0464  0.3356 -0.1951
13456SOL    HW143260   4.219   5.812   3.693 -0.3647 -0.8956 -0.8623
13456SOL    HW243261   4.189   5.809   3.545  0.8430  0.7033 -1.1671
13457SOL     OW43262   1.785   2.112   0.487  0.7565  0.2298 -0.2737
13457SOL    HW143263   1.690   2.114   0.486  0.5986 -2.2996 -1.9755
13457SOL    HW243264   1.812   2.196   0.450 -0.9022  0.3734 -1.2483
13458SOL     OW43265   1.397   6.179   8.262  0.4301  0.3425  0.0185
13458SOL    HW143266   1.376   6.127   8.339  1.7687 -0.5743 -0.1948
13458SOL    HW243267   1.314   6.219   8.236  0.1822  1.8039  2.7184
13459SOL     OW43268   5.312   5.967   1.380 -0.4474 -0.3521  0.8012
13459SOL    HW143269   5.324   5.935   1.469 -1.9459 -2.1556  0.4289
13459SOL    HW243270   5.235   6.025   1.385  0.5545  1.0115  0.9634
13460SOL     OW43271   2.079   0.658   4.862  0.1572 -0.0736  0.2807
13460SOL    HW143272   2.108   0.588   4.921  2.4582 -0.4566 -1.1647
13460SOL    HW243273   1.999   0.693   4.902 -0.6970 -3.0535  1.4178
13461SOL     OW43274   8.651   3.402   7.683 -0.4331  0.3797  0.3916
13461SOL    HW143275   8.559   3.379   7.695 -0.6527  0.1502 -1.4220
13461SOL    HW243276   8.650   3.496   7.665 -0.4382  0.2330 -0.4573
13462SOL     OW43277   6.194   0.459   4.679 -0.0733 -0.7088 -0.5448
13462SOL    HW143278   6.238   0.468   4.595  1.4218  1.1070  0.3468
13462SOL    HW243279   6.266   0.457   4.743 -1.2198 -0.2233  0.8001
13463SOL     OW43280   1.538   2.163   6.779  0.6997 -0.2093  0.5890
13463SOL    HW143281   1.599   2.104   6.735 -0.4329 -1.6798  0.9374
13463SOL    HW243282   1.556   2.249   6.740  0.0090 -1.3516 -2.4731
13464SOL     OW43283   5.889   3.774   1.605 -0.3047 -0.5810 -0.1719
13464SOL    HW143284   5.942   3.698   1.630 -1.8119 -1.3966  0.6918
13464SOL    HW243285   5.939   3.816   1.535  0.9527 -1.9114 -0.1193
13465SOL     OW43286   6.695   7.248   6.346  1.2800  0.6843  0.2489
13465SOL    HW143287   6.623   7.275   6.289  1.1531 -0.0636  0.0535
13465SOL    HW243288   6.740   7.330   6.367  1.2995  0.9703 -0.8727
13466SOL     OW43289   0.637   7.409   7.230 -0.0689  0.0182  0.3655
13466SOL    HW143290   0.548   7.397   7.199 -0.0275  1.1162 -0.2176
13466SOL    HW243291   0.653   7.503   7.224  0.3901  0.1289  2.5396
13467SOL     OW43292   2.850   1.458   6.969 -0.4375 -0.2750  0.7828
13467SOL    HW143293   2.910   1.496   7.033  1.0813  2.8074 -2.1104
13467SOL    HW243294   2.777   1.519   6.966 -0.7307 -0.6514 -0.0055
13468SOL     OW43295   7.346   3.737   3.614 -0.2003  0.5130 -0.5374
13468SOL    HW143296   7.330   3.768   3.525  1.3731  1.2869 -0.5800
13468SOL    HW243297   7.273   3.678   3.632  0.2044 -0.8253 -2.8882
13469SOL     OW43298   5.040   9.106   8.218  0.3015  0.6650 -0.1488
13469SOL    HW143299   5.116   9.060   8.182  0.9951  0.1541  1.8537
13469SOL    HW243300   5.029   9.070   8.306 -0.1210  3.1626  0.9056
13470SOL     OW43301   1.497   2.816   6.061 -0.4259 -0.3754 -0.0456
13470SOL    HW143302   1.582   2.772   6.066 -0.8667 -1.3107 -0.5080
13470SOL    HW243303   1.471   2.807   5.969 -0.5354  0.8766 -0.1530
13471SOL     OW43304   0.127   3.317   0.362  0.4717 -0.6227  0.0088
13471SOL    HW143305   0.134   3.331   0.268  0.2969 -1.5900 -0.1572
13471SOL    HW243306   0.033   3.303   0.378  0.5276 -0.6953  0.2877
13472SOL     OW43307   4.852   2.528   6.574  0.6253 -0.2314  0.3588
13472SOL    HW143308   4.835   2.479   6.654 -0.0437  0.2823  0.5415
13472SOL    HW243309   4.773   2.516   6.521  1.5372 -1.5542 -0.7588
13473SOL     OW43310   7.357   7.479   0.224 -0.1823 -0.2316  0.1801
13473SOL    HW143311   7.369   7.384   0.216  0.7353 -0.0255 -1.2943
13473SOL    HW243312   7.278   7.497   0.174 -0.3776 -0.2086  0.4919
13474SOL     OW43313   7.817   2.403   1.973 -0.2773 -0.2103 -0.1211
13474SOL    HW143314   7.724   2.404   1.952 -0.1096 -2.6975 -1.2676
13474SOL    HW243315   7.825   2.465   2.046 -2.8334 -0.0828  0.1554
13475SOL     OW43316   7.325   9.077   4.292  0.6122  0.3373 -0.2875
13475SOL    HW143317   7.270   9.103   4.366  1.0714  1.4204 -0.3020
13475SOL    HW243318   7.266   9.081   4.216  0.2374 -0.4085 -0.0496
13476SOL     OW43319   3.698   0.568   6.745 -0.1137 -0.6314 -0.5059
13476SOL    HW143320   3.724   0.523   6.825 -1.7366  0.1908  0.5221
13476SOL    HW243321   3.602   0.564   6.745 -0.1719  0.1190 -1.9890
13477SOL     OW43322   9.216   4.580   2.572 -0.2801 -0.3371  0.1883
13477SOL    HW143323   9.121   4.571   2.563 -0.2831 -0.2046  0.0916
13477SOL    HW243324   9.251   4.552   2.488 -0.3485  1.4711 -0.4935
13478SOL     OW43325   1.178   8.219   8.938 -0.3909 -0.3308  0.1134
13478SOL    HW143326   1.163   8.230   8.844 -2.0237  0.0464  0.3985
13478SOL    HW243327   1.190   8.308   8.972  0.0543 -0.4552  0.2959
13479SOL     OW43328   3.526   5.253   6.293 -0.6131 -0.3880 -0.0166
13479SOL    HW143329   3.445   5.291   6.326 -1.5744 -1.8140 -0.6163
13479SOL    HW243330   3.578   5.237   6.371 -1.8903 -1.5596  0.6461
13480SOL     OW43331   4.968   9.175   4.099  0.1446 -0.3902  0.1754
13480SOL    HW143332   4.973   9.112   4.027  0.8355  0.0162 -0.1492
13480SOL    HW243333   4.910   9.135   4.163  0.5580 -1.3399 -0.0333
13481SOL     OW43334   2.176   5.597   5.950 -0.2618  0.1934  0.1914
13481SOL    HW143335   2.170   5.508   5.917  1.4106  0.6779 -1.5656
13481SOL    HW243336   2.096   5.640   5.918  0.2629  0.0493 -1.3817
13482SOL     OW43337   5.453   3.887   3.482  0.2106  0.1377 -0.0347
13482SOL    HW143338   5.361   3.877   3.507  0.5936 -0.6376  1.1563
13482SOL    HW243339   5.466   3.822   3.413 -0.1051  0.1756 -0.1338
13483SOL     OW43340   5.881   5.235   5.533 -0.2185 -0.7012 -0.1280
13483SOL    HW143341   5.949   5.263   5.472 -0.4134 -0.6280 -0.3111
13483SOL    HW243342   5.871   5.309   5.593  0.5203 -1.0761  0.4624
13484SOL     OW43343   6.516   7.630   2.627  0.3561  0.1837  0.0026
13484SOL    HW143344   6.468   7.550   2.646 -0.2817  0.1187 -1.7615
13484SOL    HW243345   6.456   7.682   2.574  1.3526  1.1590 -0.2070
13485SOL     OW43346   4.300   3.481   1.273  0.6333  0.0788  0.5101
13485SOL    HW143347   4.286   3.561   1.323  0.6191  0.6057 -0.3065
13485SOL    HW243348   4.331   3.512   1.188 -3.4785 -0.4306 -1.4464
13486SOL     OW43349   3.668   0.511   5.665  0.7868  0.3626 -0.3988
13486SOL    HW143350   3.726   0.449   5.710 -2.5092 -1.5855  1.5475
13486SOL    HW243351   3.658   0.583   5.727  0.8329  0.5420 -0.5975
13487SOL     OW43352   7.821   1.102   1.164 -0.4792 -0.2809 -0.2666
13487SOL    HW143353   7.775   1.176   1.205 -0.2676 -0.1587 -0.2511
13487SOL    HW243354   7.802   1.028   1.221 -0.8433 -0.2785 -0.3792
13488SOL     OW43355   7.751   7.992   1.482  0.1724 -0.0080  0.3112
13488SOL    HW143356   7.788   7.982   1.395 -0.1386  1.2410  0.0199
13488SOL    HW243357   7.798   8.066   1.520 -0.8958  0.5705  0.5345
13489SOL     OW43358   3.706   4.646   7.963  0.2166 -0.2613  0.2678
13489SOL    HW143359   3.708   4.687   8.050 -1.3620 -0.6530  0.5222
13489SOL    HW243360   3.748   4.710   7.906  1.0489  0.1188  1.2646
13490SOL     OW43361   2.150   3.350   7.981  0.3378 -0.1041  0.2966
13490SOL    HW143362   2.060   3.334   8.009  0.9270 -0.9943  1.8086
13490SOL    HW243363   2.204   3.322   8.055  1.9152 -0.5332 -0.9523
13491SOL     OW43364   4.333   7.372   2.532 -0.5703 -0.4343  0.0351
13491SOL    HW143365   4.387   7.381   2.454  0.4870 -0.6089  0.7239
13491SOL    HW243366   4.247   7.347   2.499 -0.3547  0.2753 -1.1146
13492SOL     OW43367   0.779   0.046   3.145  0.0363 -0.1520  0.9839
13492SOL    HW143368   0.776   0.070   3.052  1.9514 -0.0256  0.9151
13492SOL    HW243369   0.809  -0.045   3.144  1.5686  0.3192  1.4911
13493SOL     OW43370   8.914   2.661   3.795 -0.2363  0.7551 -0.4209
13493SOL    HW143371   8.835   2.614   3.770  0.7237 -1.0537 -0.2100
13493SOL    HW243372   8.974   2.648   3.722  0.3594  0.8851  0.0345
13494SOL     OW43373   3.488   3.598   7.354 -0.0403  0.0726 -0.0432
13494SOL    HW143374   3.438   3.603   7.272 -0.4486 -0.4688  0.1624
13494SOL    HW243375   3.577   3.576   7.327 -0.2920 -0.6261 -0.3092
13495SOL     OW43376   6.315   4.227   2.229 -0.2590 -0.0493  0.2098
13495SOL    HW143377   6.292   4.310   2.272 -2.5376  0.0199 -0.9873
13495SOL    HW243378   6.381   4.251   2.164  0.3913  0.5057  1.0563
13496SOL     OW43379   3.692   5.833   8.530 -0.9049  0.6792  0.4745
13496SOL    HW143380   3.758   5.818   8.462 -0.0068  3.0742  0.7195
13496SOL    HW243381   3.615   5.784   8.500  0.9963 -2.5097  0.3565
13497SOL     OW43382   0.661   0.306   6.249  0.5089  0.0265  0.2619
13497SOL    HW143383   0.747   0.266   6.241  0.0055 -1.2216  0.8665
13497SOL    HW243384   0.606   0.239   6.290 -0.8915  0.6071 -0.5705
13498SOL     OW43385   3.855   1.533   4.676  0.5411  0.2395  0.3422
13498SOL    HW143386   3.918   1.526   4.605  0.2516  0.4545  0.0578
13498SOL    HW243387   3.839   1.443   4.703  1.8659  0.2611  1.2243
13499SOL     OW43388   5.618   1.565   4.950 -0.2139 -0.4688 -0.0483
13499SOL    HW143389   5.713   1.576   4.950 -0.2783  0.3330 -1.7788
13499SOL    HW243390   5.589   1.618   5.025  0.7571 -1.7882  1.3406
13500SOL     OW43391   4.581   2.369   6.125 -0.0780  0.2585 -0.3089
13500SOL    HW143392   4.486   2.378   6.134  0.0949  0.9669  1.0965
13500SOL    HW243393   4.598   2.276   6.140 -0.4723  0.3037  0.4766
13501SOL     OW43394   6.825   4.218   1.871 -0.3791  0.2189  0.1943
13501SOL    HW143395   6.787   4.286   1.815  0.8782  0.9374  0.1746
13501SOL    HW243396   6.900   4.261   1.912 -1.5916 -0.1036  2.9283
13502SOL     OW43397   6.099   5.822   6.280 -0.3818 -0.2290  0.0656
13502SOL    HW143398   6.099   5.807   6.374 -2.3537 -2.3040 -0.1844
13502SOL    HW243399   6.022   5.877   6.265 -1.4824 -1.8672 -0.5267
13503SOL     OW43400   8.014   7.425   4.865 -0.0697  0.0362  0.3246
13503SOL    HW143401   8.093   7.453   4.821 -1.2183  3.0870 -0.0245
13503SOL    HW243402   7.954   7.401   4.794 -0.0833 -0.4891  0.5078
13504SOL     OW43403   8.375   0.155   1.456  0.8415 -0.3425 -0.0473
13504SOL    HW143404   8.301   0.110   1.496  0.7887 -1.8348 -1.6915
13504SOL    HW243405   8.451   0.124   1.505  0.5523 -0.2807  0.4415
13505SOL     OW43406   6.941   1.339   3.108 -0.5102 -0.1759 -0.3077
13505SOL    HW143407   6.883   1.300   3.042 -0.6755  1.0503 -0.9193
13505SOL    HW243408   6.884   1.396   3.160 -0.0607  0.1760 -0.1938
13506SOL     OW43409   5.512   4.291   8.754 -0.5078 -0.6716 -0.1284
13506SOL    HW143410   5.593   4.245   8.732  0.5441  1.4548 -0.9728
13506SOL    HW243411   5.453   4.272   8.681  0.0254 -0.4181 -0.6340
13507SOL     OW43412   7.627   3.894   3.859 -0.3091 -0.3374 -0.1259
13507SOL    HW143413   7.702   3.953   3.851 -0.2912 -0.3739 -0.2342
13507SOL    HW243414   7.642   3.828   3.791 -0.3203 -0.4758  0.0066
13508SOL     OW43415   4.726   3.837   7.301 -0.3991 -0.0684  0.3085
13508SOL    HW143416   4.649   3.815   7.353  0.1332  0.6476  1.4326
13508SOL    HW243417   4.726   3.773   7.229 -2.4827  0.4248 -0.1853
13509SOL     OW43418   2.676   6.212   7.651  0.3711  0.1423 -0.0424
13509SOL    HW143419   2.697   6.289   7.597  1.7470 -0.6547 -0.6907
13509SOL    HW243420   2.585   6.192   7.630  0.0097  1.5338  0.0810
13510SOL     OW43421   8.849   4.254   0.174 -0.2653 -0.3093 -0.0033
13510SOL    HW143422   8.788   4.197   0.126 -2.3129 -0.0518  2.0908
13510SOL    HW243423   8.916   4.194   0.207 -0.5653 -0.9779 -0.5699
13511SOL     OW43424   0.554   2.354   9.053  0.1084  0.3590 -0.4218
13511SOL    HW143425   0.584   2.345   8.963 -0.5508 -1.3777 -0.5007
13511SOL    HW243426   0.460   2.335   9.050 -0.0347  0.8185  0.5483
13512SOL     OW43427   8.855   7.443   0.426  0.2704  0.0391 -0.1782
13512SOL    HW143428   8.944   7.449   0.462 -0.5502  0.5049  1.8890
13512SOL    HW243429   8.799   7.478   0.495 -1.6616 -1.5281 -0.8735
13513SOL     OW43430   8.676   5.607   3.365 -0.5389 -0.9645  0.2135
13513SOL    HW143431   8.697   5.541   3.299 -1.6222  1.1445 -2.4504
13513SOL    HW243432   8.761   5.644   3.389 -0.0293 -2.4979  0.8969
13514SOL     OW43433   3.300   0.909   4.840  0.0080  0.0521 -0.0646
13514SOL    HW143434   3.222   0.951   4.806  0.5309  0.4339 -0.8118
13514SOL    HW243435   3.372   0.948   4.791  0.6834 -0.2012  0.6999
13515SOL     OW43436   0.169   6.457   4.013 -0.2651 -0.3646  0.2157
13515SOL    HW143437   0.246   6.401   4.003  1.5726  1.7582  1.4406
13515SOL    HW243438   0.127   6.426   4.093 -0.5675 -1.3745 -0.3184
13516SOL     OW43439   9.142   4.519   0.288 -0.0777  0.4894 -0.4413
13516SOL    HW143440   9.219   4.576   0.283  0.6777 -0.6163 -1.7407
13516SOL    HW243441   9.177   4.430   0.289 -1.3308 -0.1261 -2.9026
13517SOL     OW43442   5.723   0.922   4.440  0.0735 -0.0423  0.0407
13517SOL    HW143443   5.667   0.888   4.369 -3.3015 -0.3336  2.5935
13517SOL    HW243444   5.726   0.851   4.504  0.1442  1.4038  1.6983
13518SOL     OW43445   2.859   6.393   2.865 -0.6032  0.0864  0.7232
13518SOL    HW143446   2.941   6.345   2.851 -0.8344  0.1082 -0.8182
13518SOL    HW243447   2.798   6.355   2.802 -0.6537  2.6979 -0.9326
13519SOL     OW43448   1.023   3.595   9.099  0.0807  0.2953  0.0467
13519SOL    HW143449   1.051   3.667   9.156 -0.8270  1.6907 -1.2136
13519SOL    HW243450   0.966   3.636   9.035 -1.8411 -1.8345  0.2792
13520SOL     OW43451   6.773   6.485   5.864  0.0953  0.4170 -0.3867
13520SOL    HW143452   6.715   6.560   5.884 -1.5941 -0.9649  0.1845
13520SOL    HW243453   6.797   6.497   5.772 -1.0709  1.0696 -0.6289
13521SOL     OW43454   0.867   7.103   4.183 -0.4721  0.2187 -0.7549
13521SOL    HW143455   0.909   7.173   4.135 -1.4843  1.6346  0.3385
13521SOL    HW243456   0.786   7.085   4.134  0.2251 -0.8814 -1.5557
13522SOL     OW43457   4.773   5.895   8.737  0.4490 -0.2179  0.1412
13522SOL    HW143458   4.815   5.955   8.675  0.3513 -0.2731  0.0192
13522SOL    HW243459   4.822   5.905   8.818  0.9873 -0.6145 -0.1263
13523SOL     OW43460   8.945   9.013   2.513  0.3958  0.1498  0.1341
13523SOL    HW143461   8.965   8.929   2.554  0.8363 -0.6967 -1.7084
13523SOL    HW243462   8.984   9.008   2.426 -0.7882  1.7092 -0.5552
13524SOL     OW43463   3.407   3.925   1.655  0.3363 -0.5228  0.0298
13524SOL    HW143464   3.314   3.929   1.634  0.3151 -1.3127 -0.0562
13524SOL    HW243465   3.438   4.015   1.645 -0.6003 -0.0787  0.9288
13525SOL     OW43466   7.166   7.834   2.609 -0.1066  0.0337  0.1579
13525SOL    HW143467   7.219   7.758   2.633  1.2073  1.0921  0.7488
13525SOL    HW243468   7.174   7.893   2.683 -0.7630  0.9364 -0.4703
13526SOL     OW43469   2.502   5.258   3.858 -0.0580 -0.1381 -0.9126
13526SOL    HW143470   2.409   5.277   3.867 -0.0455 -0.1128 -0.8340
13526SOL    HW243471   2.545   5.319   3.918 -0.1781 -2.1282  1.3362
13527SOL     OW43472   0.276   7.480   4.296 -0.1252  0.0409 -0.7196
13527SOL    HW143473   0.298   7.472   4.203 -2.2350  2.0393 -1.4905
13527SOL    HW243474   0.187   7.447   4.303  0.5568 -1.6355  0.9877
13528SOL     OW43475   8.390   6.048   1.294 -0.5809  0.2216  0.0313
13528SOL    HW143476   8.399   5.954   1.312  0.5641  0.4572  0.7969
13528SOL    HW243477   8.304   6.070   1.330 -0.7476 -0.4815  0.0845
13529SOL     OW43478   1.224   7.337   6.866 -0.0426  0.0080 -0.1966
13529SOL    HW143479   1.184   7.424   6.873  1.3682  0.8503 -1.9045
13529SOL    HW243480   1.310   7.346   6.908  0.3382 -0.4101 -0.8718
13530SOL     OW43481   7.696   6.468   1.307  0.3784  0.3224  0.3703
13530SOL    HW143482   7.618   6.448   1.359 -0.0842  3.5406  1.0914
13530SOL    HW243483   7.683   6.421   1.225 -1.2650 -0.8935  1.2722
13531SOL     OW43484   3.214   5.684   1.991 -0.2855  0.1133  0.7012
13531SOL    HW143485   3.276   5.634   2.044 -0.9087 -0.6076  0.7781
13531SOL    HW243486   3.188   5.757   2.047  0.5328  0.4564  0.6433
13532SOL     OW43487   8.398   3.316   2.858 -0.1073 -0.0577  0.1176
13532SOL    HW143488   8.351   3.344   2.937 -0.1388  0.0708  0.0544
13532SOL    HW243489   8.417   3.398   2.812  0.7242 -0.0618  0.4444
13533SOL     OW43490   7.094   4.573   5.438  0.0036 -0.3589 -0.1045
13533SOL    HW143491   7.095   4.624   5.519 -0.0916  2.3834 -1.7379
13533SOL    HW243492   7.180   4.531   5.435  0.9772  1.5393  0.2240
13534SOL     OW43493   1.988   1.519   1.180  0.0735  0.4983  0.5512
13534SOL    HW143494   2.020   1.532   1.091  2.6307  1.2917  1.4944
13534SOL    HW243495   1.945   1.434   1.177 -0.8898  0.9718 -1.6453
13535SOL     OW43496   5.555   1.471   0.613 -0.0594 -0.8645 -0.5843
13535SOL    HW143497   5.595   1.408   0.554 -0.4202 -2.3570  0.6924
13535SOL    HW243498   5.461   1.468   0.593 -0.2141 -1.5432  0.1709
13536SOL     OW43499   8.373   1.605   7.701  0.2682 -0.0499  0.7985
13536SOL    HW143500   8.396   1.600   7.609 -3.8955 -3.4123 -0.4050
13536SOL    HW243501   8.311   1.678   7.707 -0.5397 -0.6989  0.5539
13537SOL     OW43502   5.002   0.231   0.445 -0.0621 -0.1134  0.2099
13537SOL    HW143503   5.011   0.141   0.476  0.6333  0.2979  1.2330
13537SOL    HW243504   4.964   0.278   0.519 -1.2139  0.2898 -0.6000
13538SOL     OW43505   3.068   7.584   8.404  0.1514 -0.3147  0.5668
13538SOL    HW143506   3.058   7.540   8.320 -1.6332 -0.0664  0.6104
13538SOL    HW243507   2.981   7.582   8.443  0.5990  0.9582  1.7268
13539SOL     OW43508   8.221   7.353   4.476 -0.4799  0.5666 -0.4366
13539SOL    HW143509   8.223   7.434   4.425  0.3603  0.7206 -0.1734
13539SOL    HW243510   8.248   7.378   4.564 -0.4195  0.0444 -0.2984
13540SOL     OW43511   6.325   4.916   0.527 -0.4284 -0.3599  0.2775
13540SOL    HW143512   6.348   4.834   0.571  2.3011  0.2962  0.2580
13540SOL    HW243513   6.353   4.984   0.588 -1.6654  0.5902 -0.1747
13541SOL     OW43514   0.702   7.832   8.715  0.1812 -0.2102  0.0801
13541SOL    HW143515   0.779   7.857   8.766  0.2369  0.5896 -0.3778
13541SOL    HW243516   0.637   7.900   8.735  0.0987 -0.0578 -0.6582
13542SOL     OW43517   0.118   8.225   6.898  0.3898 -0.0284 -0.6478
13542SOL    HW143518   0.047   8.204   6.959 -0.7236 -0.5002 -2.0542
13542SOL    HW243519   0.196   8.189   6.940 -0.4043 -0.7423  0.2825
13543SOL     OW43520   3.516   8.849   8.208 -0.2134 -0.3625  0.0563
13543SOL    HW143521   3.599   8.873   8.250 -1.2334  0.7195  1.5768
13543SOL    HW243522   3.449   8.874   8.271 -1.7878 -0.0485 -1.6456
13544SOL     OW43523   6.666   5.500   0.505 -0.3847 -0.0423  0.1519
13544SOL    HW143524   6.627   5.570   0.557 -1.1610  1.2861 -2.0944
13544SOL    HW243525   6.759   5.503   0.528 -0.3462  1.9672 -0.1244
13545SOL     OW43526   2.140   7.432   8.065 -0.6193 -0.6431 -0.1925
13545SOL    HW143527   2.055   7.438   8.108 -1.0860 -1.3174 -0.9947
13545SOL    HW243528   2.164   7.340   8.072 -0.1616 -0.5405 -0.3617
13546SOL     OW43529   5.153   7.933   5.801  0.1869 -0.4094 -0.0146
13546SOL    HW143530   5.138   7.942   5.706  0.1296 -1.5711 -0.1278
13546SOL    HW243531   5.094   7.998   5.840 -2.0479 -1.9240 -0.6606
13547SOL     OW43532   8.738   6.308   8.704  0.1303  0.0880 -0.1468
13547SOL    HW143533   8.827   6.332   8.730 -0.3657  1.2767  0.5304
13547SOL    HW243534   8.718   6.229   8.754  0.0313  1.0444  1.3940
13548SOL     OW43535   4.795   1.433   4.500  0.1238  0.8044  0.0027
13548SOL    HW143536   4.739   1.405   4.428  1.3544  2.1494 -1.5764
13548SOL    HW243537   4.828   1.352   4.538 -0.6968  0.0460 -0.8571
13549SOL     OW43538   5.830   6.285   5.034 -0.0598 -0.3338 -0.4758
13549SOL    HW143539   5.868   6.248   4.955  0.7516 -1.0629  0.2327
13549SOL    HW243540   5.800   6.372   5.008 -2.0424 -1.4455 -2.1884
13550SOL     OW43541   6.132   8.827   7.691 -0.5552  0.5192  0.4839
13550SOL    HW143542   6.224   8.853   7.697 -1.1781  2.8917  0.6054
13550SOL    HW243543   6.115   8.823   7.597 -0.5724  1.0441  0.4626
13551SOL     OW43544   8.368   2.271   0.203  0.2956  0.6767 -0.0903
13551SOL    HW143545   8.379   2.356   0.245 -1.1929  0.7969  0.1008
13551SOL    HW243546   8.403   2.208   0.266  1.7424  1.1323 -0.3814
13552SOL     OW43547   5.423   2.026   2.589  0.0560 -0.3123  0.3612
13552SOL    HW143548   5.332   2.036   2.616 -0.5061  0.3987 -1.6137
13552SOL    HW243549   5.418   1.989   2.501  1.6148  1.0027 -0.3234
13553SOL     OW43550   8.095   1.661   2.244 -0.3938 -0.7339 -0.2787
13553SOL    HW143551   8.015   1.694   2.285 -0.6575 -0.4850 -0.9827
13553SOL    HW243552   8.112   1.721   2.171  1.1498 -0.0190  0.6182
13554SOL     OW43553   7.301   8.340   5.289 -0.0525 -0.2799 -0.0727
13554SOL    HW143554   7.239   8.405   5.323  1.4611  0.4818  1.3991
13554SOL    HW243555   7.245   8.267   5.260 -1.8961  2.0121 -2.8455
13555SOL     OW43556   6.713   1.204   5.166 -0.1247 -0.0584  0.4280
13555SOL    HW143557   6.629   1.219   5.124 -0.5469 -0.1762  1.2172
13555SOL    HW243558   6.768   1.166   5.097 -1.1117 -1.2137  0.2582
13556SOL     OW43559   4.185   6.628   0.246 -1.0408  0.2590 -0.1418
13556SOL    HW143560   4.113   6.638   0.308 -1.3020 -1.0420 -0.1911
13556SOL    HW243561   4.154   6.559   0.186 -1.0596  1.8907 -2.0933
13557SOL     OW43562   3.982   0.894   0.083 -0.0996 -0.2844  0.2959
13557SOL    HW143563   3.994   0.847   0.000  0.5587 -0.9836  0.7692
13557SOL    HW243564   3.889   0.916   0.085  0.1967  1.3136 -1.4342
13558SOL     OW43565   0.998   8.201   4.050  0.1896 -0.2790 -0.1330
13558SOL    HW143566   1.044   8.249   4.119  1.2661 -1.1179 -0.2392
13558SOL    HW243567   0.913   8.178   4.090  0.1979  0.5212  0.3763
13559SOL     OW43568   8.307   2.213   0.886  0.3066  0.1820  0.1612
13559SOL    HW143569   8.292   2.250   0.974 -0.2306  1.3037 -0.3802
13559SOL    HW243570   8.272   2.279   0.826  1.2774 -0.2635 -0.9315
13560SOL     OW43571   0.673   4.088   3.031 -0.9716  0.5663 -0.4030
13560SOL    HW143572   0.697   4.009   3.079  0.5413  0.4430 -1.3197
13560SOL    HW243573   0.637   4.147   3.098  0.6039  0.2007  0.8085
13561SOL     OW43574   3.695   2.786   3.195  0.1745 -0.3005 -0.0080
13561SOL    HW143575   3.610   2.792   3.152  0.9022  0.8748 -1.3756
13561SOL    HW243576   3.708   2.871   3.237  1.8568  0.6583 -2.2569
13562SOL     OW43577   8.508   7.240   2.872  0.2261  0.3432  0.0080
13562SOL    HW143578   8.564   7.243   2.795 -3.2763  2.2415 -2.8040
13562SOL    HW243579   8.445   7.170   2.853  0.8838 -1.0340  2.5302
13563SOL     OW43580   4.963   7.291   4.840 -0.4566  0.6743  0.2217
13563SOL    HW143581   5.041   7.302   4.787 -0.3943 -0.5573  0.0295
13563SOL    HW243582   4.892   7.278   4.776 -0.4249 -0.5413  0.4129
13564SOL     OW43583   6.219   4.885   3.321  0.3284  0.2658  0.0627
13564SOL    HW143584   6.249   4.885   3.412 -0.0587  0.6462  0.1940
13564SOL    HW243585   6.264   4.810   3.281 -0.0440 -0.3433  0.7498
13565SOL     OW43586   8.941   2.970   6.554  0.6688 -0.0571  0.0311
13565SOL    HW143587   9.028   2.983   6.591  0.6501  3.4580 -0.8026
13565SOL    HW243588   8.923   3.051   6.507 -1.7371 -1.9259 -2.6236
13566SOL     OW43589   7.283   5.444   0.007  0.0054  0.4832 -0.3670
13566SOL    HW143590   7.336   5.402   0.075 -0.8859  0.1875  0.1677
13566SOL    HW243591   7.194   5.415   0.026 -0.7473  3.0213  0.3425
13567SOL     OW43592   9.035   3.437   3.332 -0.5880  0.0181  0.3474
13567SOL    HW143593   8.975   3.408   3.401  0.1269  1.1386  1.4904
13567SOL    HW243594   8.981   3.442   3.254 -1.2438 -2.0325  0.6358
13568SOL     OW43595   0.528   1.428   7.181  0.0806 -0.1123  0.1389
13568SOL    HW143596   0.461   1.393   7.240  1.0245 -0.2430  1.1799
13568SOL    HW243597   0.595   1.360   7.177  0.8995  0.6463  0.4085
13569SOL     OW43598   8.141   1.805   5.194 -0.1592  0.2681 -1.1318
13569SOL    HW143599   8.104   1.736   5.250 -2.0291  0.0672 -2.5343
13569SOL    HW243600   8.085   1.881   5.209  0.5554  0.8309 -1.2431
13570SOL     OW43601   0.923   3.015   2.768  0.0107  0.1980 -0.2027
13570SOL    HW143602   0.893   2.928   2.739  0.3021 -0.0358  0.1870
13570SOL    HW243603   0.844   3.059   2.799 -0.1046 -0.0102 -0.2003
13571SOL     OW43604   3.900   8.549   6.174 -0.0219 -0.0189 -0.0229
13571SOL    HW143605   3.986   8.532   6.211  0.1796 -0.0665 -0.5032
13571SOL    HW243606   3.886   8.477   6.112 -0.2728  0.1527 -0.1687
13572SOL     OW43607   1.980   9.228   6.375  0.3461 -0.8794 -0.0628
13572SOL    HW143608   2.015   9.251   6.289  0.2364 -0.5641 -0.0224
13572SOL    HW243609   2.055   9.239   6.434 -0.5419  3.1504  0.6148
13573SOL     OW43610   0.418   1.664   6.236 -0.6859 -0.0546 -0.6262
13573SOL    HW143611   0.346   1.727   6.244 -1.0291 -0.5533  0.3459
13573SOL    HW243612   0.434   1.634   6.326  1.1981  0.5513 -0.6942
13574SOL     OW43613   7.762   4.762   5.712 -0.2450 -0.1566 -0.3924
13574SOL    HW143614   7.845   4.715   5.719 -0.7221 -1.1752 -1.3056
13574SOL    HW243615   7.755   4.811   5.794  1.4649  0.3154 -0.4980
13575SOL     OW43616   0.338   4.508   3.568 -0.1054  0.0233 -0.1065
13575SOL    HW143617   0.246   4.492   3.549 -0.4602  2.0505 -0.3662
13575SOL    HW243618   0.374   4.422   3.590 -1.3229 -1.3851 -2.9800
13576SOL     OW43619   4.413   4.835   4.174  0.5210 -0.2358 -0.2520
13576SOL    HW143620   4.422   4.924   4.141 -0.0139 -0.5267 -1.2197
13576SOL    HW243621   4.479   4.828   4.242  0.2876  1.0320  0.1308
13577SOL     OW43622   2.406   7.195   7.039  0.1998 -0.3738  0.1090
13577SOL    HW143623   2.426   7.139   6.964  0.0373 -1.3856  0.8020
13577SOL    HW243624   2.489   7.203   7.087  0.2519  0.0869 -0.0519
13578SOL     OW43625   7.369   1.598   4.095  0.3929  0.5417  0.0926
13578SOL    HW143626   7.449   1.590   4.148  0.1741 -2.9311  0.0764
13578SOL    HW243627   7.401   1.607   4.005  0.7157  2.3860  0.3478
13579SOL     OW43628   4.930   5.050   7.116  0.3714 -0.0313 -0.0244
13579SOL    HW143629   4.944   5.038   7.022 -0.9217 -1.7539 -0.0409
13579SOL    HW243630   5.012   5.023   7.157  0.2348 -1.2755 -0.5592
13580SOL     OW43631   5.854   1.884   5.867 -0.1132  0.1887  0.3583
13580SOL    HW143632   5.908   1.889   5.789  0.9844  3.9912  1.1412
13580SOL    HW243633   5.766   1.908   5.837  0.7196  3.9509  0.3920
13581SOL     OW43634   4.576   7.563   4.715  0.0832 -0.0698  0.1205
13581SOL    HW143635   4.622   7.579   4.798 -1.2802  2.0495  0.5512
13581SOL    HW243636   4.484   7.554   4.740 -0.2236 -0.5076 -1.0884
13582SOL     OW43637   7.272   0.060   5.142 -0.4444  0.4734  0.1996
13582SOL    HW143638   7.338   0.030   5.204  1.4669  1.8415 -1.0369
13582SOL    HW243639   7.216   0.118   5.192  0.6735  1.0560  0.8035
13583SOL     OW43640   3.315   1.360   0.408  0.2495  0.3768 -0.5682
13583SOL    HW143641   3.235   1.307   0.406  0.6967 -0.3072 -0.1665
13583SOL    HW243642   3.318   1.401   0.321 -0.8565  0.8984 -0.3860
13584SOL     OW43643   8.783   8.060   6.990 -0.4540 -0.0415 -0.1805
13584SOL    HW143644   8.746   8.073   6.903 -1.8529 -1.4127  0.1630
13584SOL    HW243645   8.736   8.122   7.045 -1.5620 -1.0642  0.0650
13585SOL     OW43646   3.349   8.920   0.920 -0.0179 -0.6711  0.6579
13585SOL    HW143647   3.437   8.922   0.883 -0.1160 -0.2503  0.4374
13585SOL    HW243648   3.307   8.999   0.885 -0.2209 -0.4460  1.4015
13586SOL     OW43649   7.535   6.194   0.812 -0.1006 -0.2593 -0.1998
13586SOL    HW143650   7.539   6.287   0.834  2.3101 -0.6522  1.3846
13586SOL    HW243651   7.622   6.175   0.776 -0.6181 -1.8826 -0.6511
13587SOL     OW43652   3.015   3.869   3.028 -0.0896  0.2619  0.0469
13587SOL    HW143653   3.004   3.790   3.081 -0.3292 -0.9678 -1.7770
13587SOL    HW243654   3.061   3.930   3.086  0.5156 -1.3613  1.3553
13588SOL     OW43655   7.587   4.430   6.743 -0.0919 -0.2211 -0.3858
13588SOL    HW143656   7.617   4.340   6.730 -0.4554 -0.2940 -0.7553
13588SOL    HW243657   7.512   4.439   6.684  0.7930  0.7561 -1.4018
13589SOL     OW43658   4.026   6.053   3.519  0.2346 -0.2627  0.0208
13589SOL    HW143659   4.118   6.036   3.498  0.4298  0.9192 -0.1929
13589SOL    HW243660   4.026   6.074   3.612  0.1265 -0.6506  0.1063
13590SOL     OW43661   5.359   0.440   3.364 -0.2109  0.4280  0.3999
13590SOL    HW143662   5.378   0.495   3.440 -2.9724  2.8387 -0.4888
13590SOL    HW243663   5.291   0.380   3.395  2.0019 -1.9441  1.0389
13591SOL     OW43664   3.435   8.759   2.134 -0.8405 -0.5279  0.4548
13591SOL    HW143665   3.526   8.745   2.159 -1.0742 -1.1713  0.9671
13591SOL    HW243666   3.415   8.687   2.075 -1.0340 -0.4199  0.3878
13592SOL     OW43667   1.318   2.749   4.409 -0.5277  0.0743 -0.0526
13592SOL    HW143668   1.275   2.737   4.494  0.9333  1.5645  0.9509
13592SOL    HW243669   1.292   2.836   4.380 -0.8523 -0.3445 -1.0527
13593SOL     OW43670   4.360   7.642   8.913 -0.1966  0.3331 -0.0887
13593SOL    HW143671   4.406   7.724   8.895 -1.2201  1.2387  1.1876
13593SOL    HW243672   4.379   7.586   8.838  1.3168  1.3816 -0.5365
13594SOL     OW43673   5.414   8.677   1.745 -0.2877 -0.1979 -0.0494
13594SOL    HW143674   5.507   8.681   1.723 -0.1343  2.5514  0.7688
13594SOL    HW243675   5.413   8.661   1.840 -0.5326  2.1003  0.3781
13595SOL     OW43676   5.930   2.509   7.444 -0.5787 -0.0598  0.1871
13595SOL    HW143677   5.979   2.562   7.381 -0.3604  0.2241  0.5938
13595SOL    HW243678   5.943   2.553   7.528  1.0210 -1.6670  0.8503
13596SOL     OW43679   5.006   4.599   1.371  0.1011  0.2946  0.4164
13596SOL    HW143680   4.968   4.562   1.451 -1.4055 -1.2478 -0.9454
13596SOL    HW243681   4.945   4.575   1.302  1.8452  0.7576 -1.3691
13597SOL     OW43682   6.760   1.347   2.661 -0.1196 -0.2502  0.3947
13597SOL    HW143683   6.680   1.314   2.702  0.0182  0.2788  1.1086
13597SOL    HW243684   6.788   1.418   2.718 -0.8982  1.7285 -1.5887
13598SOL     OW43685   8.092   7.441   0.494 -0.0015 -0.2171  0.1414
13598SOL    HW143686   8.175   7.471   0.531  0.1329  0.2898 -0.5449
13598SOL    HW243687   8.102   7.454   0.400 -0.7504 -0.4352  0.0268
13599SOL     OW43688   7.818   7.330   6.026 -0.4680 -0.2068 -0.2580
13599SOL    HW143689   7.829   7.237   6.046 -0.1428 -0.0042  0.5139
13599SOL    HW243690   7.810   7.373   6.111  0.6209  0.6261 -0.5633
13600SOL     OW43691   8.119   7.809   3.458  0.0288 -0.0887  0.0904
13600SOL    HW143692   8.107   7.857   3.376  1.0390  0.7866  0.4186
13600SOL    HW243693   8.214   7.800   3.466 -0.0956 -0.9851  0.7131
13601SOL     OW43694   7.402   6.829   4.249 -0.1614 -0.3333 -0.1186
13601SOL    HW143695   7.417   6.768   4.177 -0.8050 -1.1435  0.4126
13601SOL    HW243696   7.316   6.866   4.232 -0.2359 -0.3890  0.1250
13602SOL     OW43697   8.137   7.485   8.055 -0.0146  0.2201 -0.6186
13602SOL    HW143698   8.164   7.556   8.113  2.3558 -0.9707 -0.1077
13602SOL    HW243699   8.045   7.469   8.077  0.0136  1.6960  0.7421
13603SOL     OW43700   6.429   1.613   6.862 -0.3648 -0.3001  0.4016
13603SOL    HW143701   6.394   1.658   6.939  1.3352 -0.9166  1.6125
13603SOL    HW243702   6.373   1.640   6.790 -0.9107  1.7709  1.5298
13604SOL     OW43703   5.765   0.419   2.708  0.4034  0.2547 -0.3377
13604SOL    HW143704   5.720   0.379   2.634  0.3239  1.6338 -1.0432
13604SOL    HW243705   5.736   0.510   2.709 -0.9118 -0.0653  2.3968
13605SOL     OW43706   8.322   8.402   1.937  0.0663  0.2746  0.4563
13605SOL    HW143707   8.330   8.310   1.960  1.3763  0.4677  0.8820
13605SOL    HW243708   8.274   8.403   1.854  0.3091 -0.8036  0.2958
13606SOL     OW43709   7.368   4.682   2.090 -0.7297  0.6198 -0.4959
13606SOL    HW143710   7.328   4.603   2.128 -1.0160 -0.3266 -2.6482
13606SOL    HW243711   7.445   4.698   2.145 -0.6574 -1.1703 -0.0049
13607SOL     OW43712   5.608   0.885   6.795  0.0815  0.4009 -0.1307
13607SOL    HW143713   5.551   0.896   6.872  0.5213 -0.6822  0.3727
13607SOL    HW243714   5.696   0.904   6.828  0.1081  1.5186 -0.7756
13608SOL     OW43715   0.569   4.547   2.059  0.2172  0.0878 -0.1781
13608SOL    HW143716   0.487   4.573   2.101  0.6210 -0.6132  1.0718
13608SOL    HW243717   0.560   4.453   2.046  1.1665 -0.1510  0.7799
13609SOL     OW43718   1.056   6.215   3.269  0.4634 -0.5709 -0.3718
13609SOL    HW143719   1.094   6.142   3.318  2.9138  0.7648 -0.1468
13609SOL    HW243720   1.053   6.287   3.332 -1.5702 -0.2939 -0.6946
13610SOL     OW43721   7.635   8.920   7.241  0.2084  0.1759  0.2463
13610SOL    HW143722   7.581   8.904   7.319  0.2248 -1.4925 -0.0424
13610SOL    HW243723   7.617   9.011   7.218  0.0256  0.6510  2.0571
13611SOL     OW43724   0.823   5.319   4.341 -0.1142 -0.4107  0.4699
13611SOL    HW143725   0.852   5.298   4.252 -0.4159 -1.4503  0.5949
13611SOL    HW243726   0.753   5.383   4.329  1.5195  1.3937  0.1149
13612SOL     OW43727   6.527   4.221   1.216  0.0472 -0.3108  0.0091
13612SOL    HW143728   6.530   4.270   1.134  0.6664  0.4623  0.4791
13612SOL    HW243729   6.619   4.204   1.236 -0.1317 -1.1535  0.1671
13613SOL     OW43730   0.941   3.164   6.457 -0.3697 -0.2420 -0.0890
13613SOL    HW143731   0.888   3.239   6.482 -1.4793 -0.6558 -1.0978
13613SOL    HW243732   0.983   3.137   6.538 -4.0799 -1.7563  1.5806
13614SOL     OW43733   5.009   5.911   5.439 -0.7723 -0.2490 -0.2111
13614SOL    HW143734   4.965   5.830   5.466  0.1550 -0.5316  0.5026
13614SOL    HW243735   5.100   5.900   5.468 -0.5159  0.8489 -0.5431
13615SOL     OW43736   7.255   6.763   4.929  0.2470 -0.2118  0.0259
13615SOL    HW143737   7.219   6.842   4.888  1.1886 -0.5800 -1.6033
13615SOL    HW243738   7.342   6.788   4.958 -0.4298  0.0605  1.9665
13616SOL     OW43739   8.858   8.482   6.463  0.2665  0.3463 -0.3051
13616SOL    HW143740   8.941   8.438   6.480 -0.4632 -0.6589  0.7838
13616SOL    HW243741   8.840   8.464   6.371  0.1941 -1.2915  0.0084
13617SOL     OW43742   3.890   7.272   0.172 -0.0421  0.1924  0.4264
13617SOL    HW143743   3.859   7.353   0.132  0.2202 -0.1761 -0.5520
13617SOL    HW243744   3.836   7.262   0.250 -0.9701  0.6461 -0.1341
13618SOL     OW43745   4.627   4.372   4.070  0.3054 -0.1177 -0.5728
13618SOL    HW143746   4.661   4.358   4.159 -0.8379  1.9454  0.2612
13618SOL    HW243747   4.561   4.304   4.059  0.9756 -0.8530 -0.1347
13619SOL     OW43748   1.208   6.461   5.355 -0.2079 -0.2948  0.1974
13619SOL    HW143749   1.257   6.436   5.277 -2.0597 -0.2624 -1.0432
13619SOL    HW243750   1.202   6.556   5.350 -0.4061 -0.3005  0.3106
13620SOL     OW43751   3.267   2.957   8.803 -0.4484  0.6281 -0.3419
13620SOL    HW143752   3.224   2.944   8.718  1.0965  0.6245 -1.1568
13620SOL    HW243753   3.345   2.902   8.799  0.7702  2.2374  0.2293
13621SOL     OW43754   8.499   2.022   5.795  0.2837 -0.3923  0.0279
13621SOL    HW143755   8.424   2.013   5.853  1.2968 -1.3064  1.2394
13621SOL    HW243756   8.461   2.028   5.707 -1.2071 -0.4346  0.6484
13622SOL     OW43757   2.296   2.830   1.372 -0.2976 -0.8332 -0.1635
13622SOL    HW143758   2.335   2.836   1.459  1.5925  2.5668 -1.0514
13622SOL    HW243759   2.243   2.909   1.363 -0.0719 -0.8447 -2.1976
13623SOL     OW43760   5.988   6.863   9.132  0.0980 -0.0197  0.3768
13623SOL    HW143761   5.941   6.833   9.054  2.4855 -1.6750 -0.5404
13623SOL    HW243762   6.006   6.955   9.114 -2.3744  0.5849  0.6180
13624SOL     OW43763   3.464   6.003   2.955  0.0170 -0.0818 -0.3963
13624SOL    HW143764   3.439   6.091   2.982 -0.8313  0.0092 -1.3977
13624SOL    HW243765   3.390   5.973   2.901  0.8091 -0.9517 -1.0222
13625SOL     OW43766   5.799   0.818   5.109  0.1405 -0.2276 -0.1124
13625SOL    HW143767   5.827   0.733   5.073 -2.0516 -1.8459  1.7036
13625SOL    HW243768   5.751   0.859   5.037  2.2702  0.1427 -1.4314
13626SOL     OW43769   8.579   0.326   5.548  0.1604  0.1243  0.1976
13626SOL    HW143770   8.529   0.273   5.486  0.5735 -1.4301  1.1318
13626SOL    HW243771   8.525   0.403   5.563 -1.2674 -0.7924  0.0147
13627SOL     OW43772   8.748   8.855   7.166  0.3945 -0.3154 -0.1085
13627SOL    HW143773   8.752   8.938   7.119  1.9302  0.7174  1.6861
13627SOL    HW243774   8.827   8.808   7.139  2.0412  0.8622  2.2331
13628SOL     OW43775   4.406   4.400   4.388 -0.4173  0.3981  0.2789
13628SOL    HW143776   4.393   4.401   4.483 -2.2237 -1.7409  0.1524
13628SOL    HW243777   4.497   4.426   4.375  0.7221 -1.8671  2.8064
13629SOL     OW43778   3.075   0.332   3.604 -0.1419 -0.1352 -0.0699
13629SOL    HW143779   3.094   0.424   3.583  2.3325 -1.0534 -2.4981
13629SOL    HW243780   3.008   0.307   3.540 -1.2598  0.0881  0.9848
13630SOL     OW43781   2.824   2.910   8.707  0.2172 -0.1654  0.0352
13630SOL    HW143782   2.905   2.928   8.658  1.0447  0.1792  1.4602
13630SOL    HW243783   2.775   2.992   8.703  1.4957  0.7801  1.9246
13631SOL     OW43784   2.021   6.998   5.384  0.0575  0.4272  0.3973
13631SOL    HW143785   2.054   6.955   5.463  0.6023  1.2938  0.6501
13631SOL    HW243786   2.100   7.024   5.336 -0.2555 -0.8557 -0.8723
13632SOL     OW43787   7.268   1.203   1.172 -0.1394  0.2847  0.3055
13632SOL    HW143788   7.237   1.236   1.088 -0.9094  1.1983  0.9296
13632SOL    HW243789   7.255   1.108   1.167  0.8432  0.1783 -1.0024
13633SOL     OW43790   6.767   4.496   2.628 -0.1298 -0.2157 -0.4612
13633SOL    HW143791   6.774   4.527   2.718 -0.9352 -0.9029 -0.1459
13633SOL    HW243792   6.732   4.570   2.579 -1.9354 -0.5436  0.2537
13634SOL     OW43793   6.222   9.063   5.665 -0.0856 -0.1161 -0.2167
13634SOL    HW143794   6.209   9.151   5.699 -0.1639  0.1656 -0.9795
13634SOL    HW243795   6.228   9.073   5.570 -2.8037 -1.1886 -0.6065
13635SOL     OW43796   9.043   3.669   4.170 -0.4249  0.1901  0.5115
13635SOL    HW143797   8.985   3.664   4.094 -0.0520 -1.4539  0.2822
13635SOL    HW243798   9.046   3.579   4.203  0.5185  0.6100  1.6352
13636SOL     OW43799   1.618   8.907   1.849 -0.5338 -0.0564  0.2195
13636SOL    HW143800   1.657   8.886   1.764 -0.1254 -1.1502  0.6562
13636SOL    HW243801   1.692   8.931   1.904 -0.8695  1.3653  0.0888
13637SOL     OW43802   2.987   3.410   8.666 -0.2913  0.3801  0.0493
13637SOL    HW143803   3.022   3.412   8.577 -0.0093  0.8635  0.1635
13637SOL    HW243804   3.025   3.332   8.706 -2.1361 -1.1087 -0.9172
13638SOL     OW43805   0.460   6.432   5.692  0.0219 -0.2438  0.0400
13638SOL    HW143806   0.405   6.380   5.633  1.5545 -0.4783 -1.2504
13638SOL    HW243807   0.403   6.503   5.722 -1.1273 -0.7638 -0.8330
13639SOL     OW43808   5.616   8.982   4.233  0.2098  0.2105  0.1740
13639SOL    HW143809   5.600   9.057   4.289  0.3985  0.4889 -0.1455
13639SOL    HW243810   5.688   9.008   4.177  0.6352 -0.4099  0.4252
13640SOL     OW43811   4.276   4.548   8.860  0.0101  0.0117 -0.5458
13640SOL    HW143812   4.289   4.454   8.857 -1.9967 -0.3874  0.7526
13640SOL    HW243813   4.358   4.583   8.894  0.2536 -1.4697  0.4954
13641SOL     OW43814   6.514   1.191   5.443 -0.0864 -0.4028  0.0729
13641SOL    HW143815   6.597   1.234   5.425 -0.0007 -0.9492 -0.8848
13641SOL    HW243816   6.504   1.127   5.373 -0.9835 -0.8273  0.5663
13642SOL     OW43817   1.408   6.004   5.128  0.0974  0.0082 -0.3408
13642SOL    HW143818   1.381   6.080   5.181 -0.1365 -0.7872  0.7366
13642SOL    HW243819   1.327   5.974   5.087 -0.5283 -1.5265  1.7752
13643SOL     OW43820   5.335   5.696   8.699 -0.3349  0.2274  0.0203
13643SOL    HW143821   5.316   5.718   8.608 -3.9586  1.8025  0.9670
13643SOL    HW243822   5.266   5.634   8.723  1.1855 -0.9939  1.4501
13644SOL     OW43823   3.051   2.609   1.199  0.4591  0.1393  0.6598
13644SOL    HW143824   3.077   2.546   1.131  2.5308  1.5882  0.0183
13644SOL    HW243825   3.042   2.556   1.278 -0.4460 -1.3411 -0.3733
13645SOL     OW43826   0.269   3.687   8.419 -0.4940  0.0074  0.1629
13645SOL    HW143827   0.336   3.753   8.400 -1.0491  0.6535  0.4214
13645SOL    HW243828   0.262   3.638   8.337  0.5315 -0.2920  0.2364
13646SOL     OW43829   3.161   7.392   6.754  0.2813  0.1308  0.1195
13646SOL    HW143830   3.164   7.466   6.694 -0.1674  0.4566  0.4866
13646SOL    HW243831   3.086   7.411   6.811 -1.0273 -1.5359 -0.9663
13647SOL     OW43832   9.233   3.231   6.808 -0.4124  0.5208  0.1099
13647SOL    HW143833   9.227   3.326   6.795  0.3663  0.8673  2.0138
13647SOL    HW243834   9.176   3.213   6.882 -0.2623 -0.4463 -0.0028
13648SOL     OW43835   0.926   9.004   8.257  0.6813 -0.1474 -0.0688
13648SOL    HW143836   0.911   9.049   8.174 -1.7133 -0.4118  0.1533
13648SOL    HW243837   1.021   9.002   8.266  1.0886 -0.8419 -3.1983
13649SOL     OW43838   2.569   5.400   4.871 -0.8637 -0.3183 -0.6129
13649SOL    HW143839   2.620   5.464   4.921 -0.1884 -0.0058 -1.6531
13649SOL    HW243840   2.603   5.315   4.899 -1.7839 -0.2436  0.7958
13650SOL     OW43841   4.177   3.265   3.423 -0.0630  0.3599 -0.0746
13650SOL    HW143842   4.220   3.203   3.482 -0.3375  0.4349  0.2069
13650SOL    HW243843   4.084   3.250   3.438 -0.1400  1.5389  0.7407
13651SOL     OW43844   6.923   7.830   3.045  0.2076 -0.1862  0.4995
13651SOL    HW143845   6.919   7.892   2.972 -0.5744  1.2196  1.6979
13651SOL    HW243846   6.837   7.833   3.085  0.3577 -1.5850  1.0000
13652SOL     OW43847   1.592   3.039   6.911  0.1058 -0.1677 -0.0877
13652SOL    HW143848   1.554   3.127   6.906  0.1268 -0.1857 -0.5814
13652SOL    HW243849   1.614   3.017   6.821 -0.5648 -0.9724 -0.0747
13653SOL     OW43850   2.964   8.679   6.232  0.0837 -0.4488  0.2912
13653SOL    HW143851   3.036   8.718   6.282  0.8942  1.1413 -1.9625
13653SOL    HW243852   3.006   8.615   6.175 -0.0160  1.1564 -1.7221
13654SOL     OW43853   3.943   8.386   0.670 -0.3148  0.5040  0.2595
13654SOL    HW143854   3.911   8.423   0.588  0.7059  0.3203 -0.2331
13654SOL    HW243855   3.891   8.429   0.738  0.3534  2.3152 -0.3360
13655SOL     OW43856   7.691   2.666   8.941  0.2881  0.0948 -0.2704
13655SOL    HW143857   7.664   2.747   8.984 -1.6463 -0.6219 -0.0617
13655SOL    HW243858   7.748   2.623   9.005 -1.9710 -0.6176  1.3645
13656SOL     OW43859   5.006   9.106   3.607  0.0447  0.2450  0.0815
13656SOL    HW143860   4.935   9.158   3.570  0.1017  0.6167  0.4785
13656SOL    HW243861   4.971   9.017   3.611  0.3682 -0.0037 -1.7153
13657SOL     OW43862   1.218   3.930   1.092  0.2996 -0.0230  0.5989
13657SOL    HW143863   1.240   3.999   1.155  0.6070  1.2378 -0.8414
13657SOL    HW243864   1.253   3.961   1.009 -1.2287 -1.0405 -0.4813
13658SOL     OW43865   7.225   6.061   5.640 -0.4906  0.2264  0.2141
13658SOL    HW143866   7.195   6.002   5.709 -3.1721  1.0699 -0.1115
13658SOL    HW243867   7.265   6.135   5.686  0.4593 -0.5833  0.7118
13659SOL     OW43868   4.232   6.280   4.225 -0.7888  0.7587  0.2511
13659SOL    HW143869   4.170   6.276   4.152  0.2083 -0.0362 -0.5761
13659SOL    HW243870   4.275   6.195   4.224  1.1767  1.7060  0.0170
13660SOL     OW43871   0.859   1.299   3.777 -0.2679  0.0837 -0.0967
13660SOL    HW143872   0.882   1.368   3.839 -0.8668 -0.1453  0.3951
13660SOL    HW243873   0.941   1.280   3.731 -0.2470  1.6220 -0.7594
13661SOL     OW43874   6.111   5.248   5.796  0.4846 -0.4508 -0.1890
13661SOL    HW143875   6.176   5.270   5.729  1.1753 -1.4915  0.1114
13661SOL    HW243876   6.039   5.308   5.780  1.0252 -0.0639 -1.2850
13662SOL     OW43877   4.515   7.203   7.360 -0.6263 -0.0075  0.4683
13662SOL    HW143878   4.568   7.269   7.406 -0.5582 -1.2869  2.3235
13662SOL    HW243879   4.562   7.121   7.373 -2.6505 -1.0708  1.5850
13663SOL     OW43880   3.484   3.153   8.728  0.1658  0.1963 -0.3996
13663SOL    HW143881   3.394   3.185   8.741 -0.8399 -2.0726 -1.1907
13663SOL    HW243882   3.508   3.114   8.812  0.2976  0.5398 -0.2768
13664SOL     OW43883   5.962   6.885   8.441  0.7544  0.7748 -0.4704
13664SOL    HW143884   5.931   6.863   8.529  0.1703  1.7877 -0.4118
13664SOL    HW243885   5.889   6.862   8.384  1.8177 -1.7389 -0.9773
13665SOL     OW43886   4.048   1.110   8.790 -0.4191 -0.0137  0.2993
13665SOL    HW143887   4.062   1.051   8.716  3.5147 -0.9275  1.5284
13665SOL    HW243888   3.996   1.182   8.755 -0.4737 -1.3942 -2.7424
13666SOL     OW43889   5.643   0.533   7.879 -0.1585 -0.2993 -0.5241
13666SOL    HW143890   5.641   0.449   7.833  0.5184  0.5727 -2.2487
13666SOL    HW243891   5.570   0.529   7.940  1.3554 -3.1062  1.3037
13667SOL     OW43892   2.990   8.460   9.062  0.6370  0.0029 -0.3961
13667SOL    HW143893   3.019   8.486   8.975  0.3713 -0.4022 -0.6068
13667SOL    HW243894   3.070   8.451   9.113  0.7677  0.7135 -0.4607
13668SOL     OW43895   3.559   7.186   0.662 -0.8380 -0.6491 -0.2074
13668SOL    HW143896   3.592   7.275   0.644  0.2815 -0.9243  0.3989
13668SOL    HW243897   3.530   7.190   0.753  1.2557 -1.4575  0.5477
13669SOL     OW43898   0.120   7.326   5.357  0.5157  0.1542 -0.1531
13669SOL    HW143899   0.035   7.356   5.389  1.1985  2.6941 -0.5574
13669SOL    HW243900   0.179   7.336   5.432  0.6668 -0.8074 -0.1226
13670SOL     OW43901   8.532   6.533   6.401  0.0627  0.6555  0.2028
13670SOL    HW143902   8.591   6.506   6.470 -1.9452  0.9747  2.1648
13670SOL    HW243903   8.445   6.507   6.432 -0.9730  1.2286 -1.9962
13671SOL     OW43904   0.438   4.116   7.392  0.1367  0.6683 -0.7280
13671SOL    HW143905   0.385   4.074   7.324  2.3130 -2.3553 -0.7382
13671SOL    HW243906   0.518   4.064   7.396  0.2682  0.7910  4.0168
13672SOL     OW43907   0.860   7.732   6.857  0.2518  0.3480 -0.1454
13672SOL    HW143908   0.808   7.652   6.857 -0.6119  0.8494 -1.6747
13672SOL    HW243909   0.942   7.708   6.815  2.0965 -0.8474  3.7063
13673SOL     OW43910   2.487   0.595   3.885  0.1347  0.1974  0.3043
13673SOL    HW143911   2.533   0.677   3.903 -2.0076  1.2164  1.5694
13673SOL    HW243912   2.409   0.622   3.835  0.6068 -1.3939 -1.4104
13674SOL     OW43913   3.344   0.922   7.011 -0.3540  0.0932  0.1404
13674SOL    HW143914   3.304   0.999   7.053 -0.5511  1.0786 -1.7515
13674SOL    HW243915   3.344   0.943   6.918  1.4306 -1.3716 -0.2495
13675SOL     OW43916   8.374   6.413   7.281  0.0636 -0.0541  0.2483
13675SOL    HW143917   8.278   6.405   7.287  0.2977 -3.8958  1.4344
13675SOL    HW243918   8.400   6.345   7.218  2.0766  0.0875  0.8603
13676SOL     OW43919   6.150   3.384   5.900 -0.5940  0.2163 -0.4337
13676SOL    HW143920   6.238   3.365   5.868 -0.8909  1.7496 -2.3473
13676SOL    HW243921   6.164   3.433   5.981  0.3831  1.5637 -1.3769
13677SOL     OW43922   2.181   1.352   0.012 -0.1281  0.3015  0.2689
13677SOL    HW143923   2.169   1.418   0.080 -0.6304  0.0267  0.4478
13677SOL    HW243924   2.130   1.277   0.041  0.9293 -0.3945  0.3666
13678SOL     OW43925   5.513   4.388   7.820 -0.6883 -0.3906 -0.2580
13678SOL    HW143926   5.470   4.457   7.869  2.2404  1.4208  0.0528
13678SOL    HW243927   5.536   4.430   7.736 -2.3590 -2.2902 -1.7465
13679SOL     OW43928   1.283   0.339   1.956 -0.3057 -0.3709  0.5150
13679SOL    HW143929   1.208   0.331   1.897  0.8023  0.2429 -1.0346
13679SOL    HW243930   1.354   0.373   1.901  0.7869  0.2301  2.2010
13680SOL     OW43931   6.171   1.682   1.034 -0.3205  0.8087  0.1633
13680SOL    HW143932   6.108   1.614   1.008 -0.1410  0.3236  0.9783
13680SOL    HW243933   6.253   1.635   1.047 -0.0250  1.2928  0.0648
13681SOL     OW43934   2.180   8.531   1.693  0.0500  0.2704  0.1879
13681SOL    HW143935   2.124   8.461   1.729  1.3310 -0.3898  0.9677
13681SOL    HW243936   2.213   8.577   1.770  3.4173 -1.6048  0.0802
13682SOL     OW43937   7.150   6.353   2.147 -0.6183  0.4084 -0.1943
13682SOL    HW143938   7.239   6.337   2.113  0.6124  1.0551  2.4656
13682SOL    HW243939   7.108   6.405   2.079  0.0762 -2.0087 -2.6914
13683SOL     OW43940   3.028   1.447   1.001  0.3661  0.1253 -0.0806
13683SOL    HW143941   2.974   1.450   1.080  0.6884  0.5557  0.1244
13683SOL    HW243942   3.077   1.529   1.002 -0.2501  0.5158 -1.1814
13684SOL     OW43943   7.538   4.028   5.549 -0.2638  0.7254 -0.2880
13684SOL    HW143944   7.512   4.003   5.460  0.4495  0.0605 -0.3143
13684SOL    HW243945   7.592   3.955   5.580 -2.3085 -0.1141  1.5281
13685SOL     OW43946   6.344   8.142   0.345 -0.4470 -0.0071 -0.2373
13685SOL    HW143947   6.426   8.095   0.362 -0.4872  0.1855  0.5217
13685SOL    HW243948   6.314   8.108   0.261  1.5560  1.5324 -1.6806
13686SOL     OW43949   2.468   7.853   2.309  0.1939  0.1903  0.1791
13686SOL    HW143950   2.470   7.794   2.234 -1.2472  0.7997 -0.3941
13686SOL    HW243951   2.524   7.812   2.374  0.9124 -0.7153 -0.9698
13687SOL     OW43952   5.982   1.382   3.578  0.6055  0.1818 -0.9495
13687SOL    HW143953   5.993   1.295   3.541  2.0238  0.9041 -2.3237
13687SOL    HW243954   6.065   1.399   3.624 -0.5464 -0.0946  1.4002
13688SOL     OW43955   7.011   0.330   1.080 -0.2509  0.4984 -0.3208
13688SOL    HW143956   6.983   0.350   0.991 -1.1559  0.9433  0.0572
13688SOL    HW243957   7.015   0.415   1.124  0.3229  0.2954  0.0319
13689SOL     OW43958   6.475   2.792   2.711 -0.1580  0.0926 -0.2286
13689SOL    HW143959   6.394   2.841   2.724  0.5884  0.8114  2.5447
13689SOL    HW243960   6.510   2.823   2.628 -0.4029  3.3696  0.7570
13690SOL     OW43961   8.307   0.172   1.190 -0.4360 -0.4740 -0.2693
13690SOL    HW143962   8.252   0.099   1.163  1.0744 -1.5566 -0.5061
13690SOL    HW243963   8.356   0.140   1.266 -0.5871  0.6912  0.3534
13691SOL     OW43964   4.166   2.750   5.925  0.1998 -0.0589 -0.3826
13691SOL    HW143965   4.137   2.659   5.929 -0.6997  0.2340  2.9997
13691SOL    HW243966   4.085   2.801   5.925  0.6980  0.7488 -0.6641
13692SOL     OW43967   3.034   5.997   6.277  0.8434  0.3985  0.0413
13692SOL    HW143968   3.011   5.910   6.246  1.1364 -0.8280  3.0021
13692SOL    HW243969   2.980   6.056   6.225 -0.3164 -1.6073 -1.1454
13693SOL     OW43970   7.594   0.805   5.559 -0.4048 -0.0855 -0.8716
13693SOL    HW143971   7.663   0.860   5.595 -0.2962 -0.0432 -1.1415
13693SOL    HW243972   7.621   0.788   5.468  0.0922 -1.4460 -0.4971
13694SOL     OW43973   4.733   8.312   5.262 -0.6601  0.9544 -0.4959
13694SOL    HW143974   4.650   8.332   5.304 -1.3533 -0.5896 -1.0253
13694SOL    HW243975   4.732   8.363   5.181 -0.4769  1.9599  0.1258
13695SOL     OW43976   2.313   2.744   1.912 -0.1966 -1.0126 -0.1908
13695SOL    HW143977   2.384   2.808   1.913 -0.7044 -0.4387 -0.1390
13695SOL    HW243978   2.338   2.679   1.978 -0.1637 -0.3140  0.5067
13696SOL     OW43979   4.972   5.771   8.461 -0.2141  0.5038 -0.4525
13696SOL    HW143980   4.935   5.853   8.430  1.6272  1.6954  0.3468
13696SOL    HW243981   5.028   5.742   8.389  0.7502  1.0517  0.0657
13697SOL     OW43982   0.276   5.012   8.968 -0.1315  0.0092  0.1479
13697SOL    HW143983   0.323   5.034   8.887 -1.9376 -0.9766 -1.2409
13697SOL    HW243984   0.294   4.919   8.981 -0.6093 -0.0549  0.3578
13698SOL     OW43985   7.232   7.186   7.064 -0.6094  0.5123 -0.2079
13698SOL    HW143986   7.244   7.099   7.103 -0.3392  0.8106  0.3765
13698SOL    HW243987   7.269   7.178   6.976 -1.6633 -0.3047 -0.6017
13699SOL     OW43988   0.354   4.139   3.081  0.2125 -0.5074  0.3935
13699SOL    HW143989   0.285   4.124   3.016 -0.2335 -2.4389  1.2550
13699SOL    HW243990   0.370   4.234   3.077 -1.1681 -0.2911 -1.1329
13700SOL     OW43991   7.490   0.886   3.808 -0.3418  0.1331  0.1896
13700SOL    HW143992   7.442   0.944   3.748 -0.5332  0.0624  0.2739
13700SOL    HW243993   7.510   0.809   3.755 -1.8825 -0.6104  0.6477
13701SOL     OW43994   1.123   4.945   2.347 -0.0892 -0.3907 -0.1447
13701SOL    HW143995   1.208   4.971   2.383  0.6767 -1.0285 -1.3880
13701SOL    HW243996   1.134   4.852   2.326 -0.8640 -0.3092 -0.9379
13702SOL     OW43997   5.391   8.946   3.759  0.0582 -0.8015  0.2229
13702SOL    HW143998   5.358   8.949   3.669 -0.0852 -0.5190  0.2855
13702SOL    HW243999   5.336   8.881   3.802 -0.7020 -0.0367  0.4380
13703SOL     OW44000   7.174   4.669   3.565  0.5305  1.2277  0.4793
13703SOL    HW144001   7.131   4.720   3.496  1.1072 -0.8690 -1.5596
13703SOL    HW244002   7.237   4.730   3.603 -0.1454  2.6086 -0.4996
13704SOL     OW44003   2.210   5.449   3.636  0.6696 -0.3032  0.1004
13704SOL    HW144004   2.116   5.465   3.639  0.9051  1.8585 -1.6837
13704SOL    HW244005   2.230   5.409   3.721 -1.5512  0.9783  1.3184
13705SOL     OW44006   5.957   7.714   2.273  0.2257  0.1241 -0.4323
13705SOL    HW144007   5.962   7.628   2.231  1.1817  0.7871 -1.7512
13705SOL    HW244008   5.998   7.701   2.359  0.0686 -0.8029 -0.4869
13706SOL     OW44009   8.129   8.113   4.885 -0.6285 -0.0631  0.4649
13706SOL    HW144010   8.200   8.065   4.928 -0.5464  0.2820  0.7243
13706SOL    HW244011   8.115   8.068   4.803 -0.9279 -0.8685  0.9507
13707SOL     OW44012   1.910   3.695   8.284 -0.4820 -0.6054  0.1287
13707SOL    HW144013   1.902   3.650   8.368  2.0698  1.0640  1.3784
13707SOL    HW244014   1.885   3.786   8.302  3.3414  0.6356  0.1023
13708SOL     OW44015   1.221   6.869   8.579  0.0573  0.6263 -0.5239
13708SOL    HW144016   1.196   6.960   8.593 -0.1698  0.4404  0.4093
13708SOL    HW244017   1.314   6.866   8.602 -0.3168  0.3203  1.1242
13709SOL     OW44018   6.223   8.205   3.492 -0.2423  0.3987 -0.0878
13709SOL    HW144019   6.211   8.173   3.581  0.1329  0.8211  0.1216
13709SOL    HW244020   6.148   8.171   3.443  0.0244 -0.5932  0.1690
13710SOL     OW44021   2.717   6.608   7.017  0.6809 -0.0199 -0.1844
13710SOL    HW144022   2.688   6.561   6.939  2.1291 -2.5882  0.6851
13710SOL    HW244023   2.637   6.640   7.058 -0.2900 -0.7557 -1.4539
13711SOL     OW44024   8.055   0.408   1.671 -0.2030 -0.8844  0.0482
13711SOL    HW144025   8.070   0.492   1.714  0.0908 -1.1677  0.4991
13711SOL    HW244026   8.091   0.419   1.583 -0.2213 -0.5202  0.0874
13712SOL     OW44027   4.047   0.860   0.347  0.3195 -0.3664  0.1271
13712SOL    HW144028   4.040   0.869   0.252 -0.7971  0.6014  0.2791
13712SOL    HW244029   4.010   0.941   0.382  1.1162 -0.5125  1.3908
13713SOL     OW44030   5.578   7.260   0.059  0.1081  0.2237  0.6411
13713SOL    HW144031   5.525   7.268  -0.021 -0.6606  0.8018  1.1860
13713SOL    HW244032   5.668   7.274   0.029 -0.4526  5.3365  0.4365
13714SOL     OW44033   4.266   8.534   4.023  0.1516 -0.0591 -0.0471
13714SOL    HW144034   4.202   8.604   4.035  0.8165  0.5591 -0.0263
13714SOL    HW244035   4.335   8.574   3.969  0.4216 -0.7743 -0.2438
13715SOL     OW44036   6.012   6.954   5.166 -0.1293 -0.5164  0.5801
13715SOL    HW144037   5.924   6.941   5.201  0.2967 -1.0940  1.4768
13715SOL    HW244038   6.013   6.906   5.083 -0.4831 -0.9844  0.8476
13716SOL     OW44039   5.241   1.863   9.190  0.3129  0.0223  0.5801
13716SOL    HW144040   5.178   1.866   9.118 -0.2819  1.2052  1.1140
13716SOL    HW244041   5.324   1.891   9.150  0.5217 -1.4546 -0.1047
13717SOL     OW44042   1.333   0.150   3.929 -0.0977  0.0692 -0.1826
13717SOL    HW144043   1.348   0.077   3.989 -0.2053  1.1132  1.1581
13717SOL    HW244044   1.269   0.205   3.974 -0.7753  0.5055 -1.6141
13718SOL     OW44045   6.518   6.627   2.215  0.1375 -0.2736 -0.2485
13718SOL    HW144046   6.577   6.647   2.288  0.3635  0.9266 -0.7269
13718SOL    HW244047   6.508   6.711   2.170  0.2341 -1.0549 -1.7707
13719SOL     OW44048   8.147   2.196   4.677  0.2938 -0.6814  0.4214
13719SOL    HW144049   8.206   2.243   4.618  0.0531  0.2814  0.9211
13719SOL    HW244050   8.143   2.251   4.755 -0.3096 -1.3455  0.8684
13720SOL     OW44051   0.045   7.588   8.615  0.2553 -0.2323 -0.1517
13720SOL    HW144052   0.097   7.565   8.692  1.5855 -0.0609 -0.9662
13720SOL    HW244053  -0.035   7.536   8.624  0.2122  0.0796  1.5325
13721SOL     OW44054   0.437   4.561   3.823  0.1575  0.3072 -0.1180
13721SOL    HW144055   0.461   4.652   3.843  1.9394  0.0434 -0.9020
13721SOL    HW244056   0.402   4.565   3.734 -2.2196  0.5726  0.7553
13722SOL     OW44057   6.811   7.701   9.189  0.2677 -0.3528  0.0839
13722SOL    HW144058   6.733   7.682   9.138 -0.0147  0.8743  0.0249
13722SOL    HW244059   6.873   7.737   9.126  0.2646  0.2613  0.4226
13723SOL     OW44060   2.122   0.138   8.297  0.5131 -0.1411 -0.0376
13723SOL    HW144061   2.073   0.217   8.277 -1.1738 -0.7845  1.2782
13723SOL    HW244062   2.056   0.074   8.322  1.9459 -1.4225  0.7003
13724SOL     OW44063   3.702   7.759   5.085 -0.2162  0.4874 -0.4627
13724SOL    HW144064   3.779   7.787   5.134 -0.6959  1.5711 -0.2898
13724SOL    HW244065   3.633   7.819   5.113 -1.3410 -0.9535 -0.0132
13725SOL     OW44066   2.400   0.333   8.569 -0.2248  0.0037  0.4692
13725SOL    HW144067   2.320   0.285   8.548 -0.2437 -1.5352  3.4389
13725SOL    HW244068   2.463   0.264   8.592  1.4797  1.2513 -0.2814
13726SOL     OW44069   4.682   3.136   6.537  0.1024  0.1009  0.7128
13726SOL    HW144070   4.603   3.189   6.532  0.1604  0.2412  1.3021
13726SOL    HW244071   4.662   3.069   6.602  0.7893  0.6778  1.5316
13727SOL     OW44072   6.979   8.805   2.847  0.2854  0.0009 -0.4651
13727SOL    HW144073   6.905   8.856   2.880  1.8785  1.1572  1.5903
13727SOL    HW244074   7.042   8.806   2.919  1.5306 -2.6072 -1.3880
13728SOL     OW44075   3.912   2.996   7.165  0.2312  0.3292 -0.3070
13728SOL    HW144076   3.842   2.939   7.197 -0.2951  0.4400 -1.2331
13728SOL    HW244077   3.867   3.076   7.138  0.4571 -0.2046 -2.4508
13729SOL     OW44078   3.295   8.938   2.884 -0.4507 -0.1669 -0.0512
13729SOL    HW144079   3.250   9.022   2.873 -0.2314 -0.1598 -1.0068
13729SOL    HW244080   3.225   8.874   2.892 -0.6285  0.2140  1.7499
13730SOL     OW44081   1.388   7.030   5.242 -0.2826  0.3902  0.0894
13730SOL    HW144082   1.421   6.964   5.303  1.6882  0.8271 -0.4316
13730SOL    HW244083   1.293   7.022   5.248 -0.1232 -1.3279  1.2917
13731SOL     OW44084   4.952   8.152   7.157  0.2232 -0.0179 -0.1857
13731SOL    HW144085   5.033   8.111   7.125  0.0277  0.7557 -1.8095
13731SOL    HW244086   4.979   8.201   7.234  1.7934  1.9100 -1.8567
13732SOL     OW44087   3.736   6.112   6.289 -0.3639  0.6661  0.1269
13732SOL    HW144088   3.748   6.123   6.195  1.4922  0.2798  0.2878
13732SOL    HW244089   3.754   6.199   6.325  2.1442  0.1421  0.3452
13733SOL     OW44090   8.832   6.393   5.589 -0.2394 -0.0546 -0.2384
13733SOL    HW144091   8.883   6.319   5.622  0.5804 -0.6628 -2.6503
13733SOL    HW244092   8.758   6.400   5.649  0.9441 -1.2501  1.4687
13734SOL     OW44093   4.262   4.346   2.016 -0.2114  0.0971 -0.2520
13734SOL    HW144094   4.299   4.334   1.929 -0.5454  2.4560 -0.8096
13734SOL    HW244095   4.182   4.293   2.016 -0.9295  1.0783 -1.9382
13735SOL     OW44096   6.446   8.182   2.005 -0.3822 -0.1529 -0.1311
13735SOL    HW144097   6.541   8.172   2.005 -0.0489  2.3018  1.2277
13735SOL    HW244098   6.413   8.099   1.969  2.2066 -1.4447  0.2535
13736SOL     OW44099   3.663   1.198   5.879 -0.3966  0.5522 -0.4086
13736SOL    HW144100   3.687   1.141   5.952  0.2301  1.3812  0.0462
13736SOL    HW244101   3.643   1.137   5.807 -2.2133 -0.3284  0.7712
13737SOL     OW44102   2.428   7.778   8.123 -0.9222 -0.3519 -0.3157
13737SOL    HW144103   2.386   7.823   8.049  0.5755 -0.7201 -1.4421
13737SOL    HW244104   2.508   7.827   8.139 -2.2349  1.0607  2.6001
13738SOL     OW44105   2.319   2.288   3.519 -0.4775  0.4952 -0.1823
13738SOL    HW144106   2.365   2.204   3.515 -0.1053  0.7331 -1.1527
13738SOL    HW244107   2.269   2.283   3.600 -0.3093 -0.5861 -0.1207
13739SOL     OW44108   5.773   3.740   6.061  0.2180 -0.0324 -0.7965
13739SOL    HW144109   5.733   3.661   6.097 -0.3009  0.7749  0.4621
13739SOL    HW244110   5.780   3.799   6.136 -2.0849  2.2224 -2.2057
13740SOL     OW44111   5.606   5.397   5.304 -0.2128 -0.2546  0.1975
13740SOL    HW144112   5.533   5.393   5.366 -1.1257  0.5244 -0.8021
13740SOL    HW244113   5.655   5.475   5.330 -1.1318  0.6164 -0.6171
13741SOL     OW44114   5.123   2.008   2.321  0.6421 -0.7117  0.4549
13741SOL    HW144115   5.044   1.977   2.364 -0.9804  0.0517 -1.7828
13741SOL    HW244116   5.097   2.090   2.280  2.4050 -0.7815 -0.9125
13742SOL     OW44117   6.585   2.703   9.242  0.3451  0.4302 -0.0296
13742SOL    HW144118   6.513   2.762   9.265 -0.6318 -0.9301  0.5259
13742SOL    HW244119   6.556   2.617   9.271  1.4533 -0.4533 -1.3958
13743SOL     OW44120   0.365   1.122   1.445 -0.5501  0.2945  0.6275
13743SOL    HW144121   0.283   1.135   1.492 -0.8285 -2.0491  0.9404
13743SOL    HW244122   0.409   1.051   1.492  0.4011 -0.3225 -1.0782
13744SOL     OW44123   4.953   2.111   0.764 -0.0426  0.2686  0.7201
13744SOL    HW144124   4.860   2.125   0.743  0.4936 -1.3241 -3.6925
13744SOL    HW244125   4.990   2.200   0.764 -1.1760  0.7724  0.1243
13745SOL     OW44126   4.665   6.672   9.219 -0.4310  0.2563  0.1794
13745SOL    HW144127   4.691   6.668   9.127 -3.2079  1.0297 -0.7163
13745SOL    HW244128   4.590   6.612   9.225 -1.0492  1.1371  1.6460
13746SOL     OW44129   1.663   8.401   5.598 -0.6122 -0.8335 -0.1251
13746SOL    HW144130   1.725   8.405   5.670 -1.2400 -0.2148  0.3947
13746SOL    HW244131   1.716   8.410   5.519 -0.1822  1.5139  0.3582
13747SOL     OW44132   2.321   0.428   6.863 -0.0751 -0.2318 -0.4528
13747SOL    HW144133   2.266   0.406   6.789 -0.2671  1.6122 -0.9196
13747SOL    HW244134   2.262   0.424   6.939 -0.3649 -0.2101 -0.6749
13748SOL     OW44135   6.524   1.135   0.121  0.3191  0.9542 -0.1280
13748SOL    HW144136   6.520   1.211   0.063 -0.3248  0.7731 -0.3227
13748SOL    HW244137   6.613   1.101   0.109 -0.5560 -0.6264 -2.9828
13749SOL     OW44138   5.208   9.123   4.347 -0.1421 -0.7400 -0.1910
13749SOL    HW144139   5.276   9.172   4.302  0.4733  0.2889  1.7282
13749SOL    HW244140   5.171   9.066   4.280  0.3709  1.0139 -2.0864
13750SOL     OW44141   0.500   0.315   4.685 -0.0762 -0.0169 -0.2590
13750SOL    HW144142   0.420   0.347   4.728  0.1132  0.2531 -0.1089
13750SOL    HW244143   0.521   0.382   4.620 -1.0182 -0.9637 -1.6021
13751SOL     OW44144   2.253   9.057   4.719  0.4824  0.1777  0.1476
13751SOL    HW144145   2.281   9.087   4.633 -0.2893  0.3301 -0.0535
13751SOL    HW244146   2.179   8.999   4.701 -1.0216  1.8197  0.8162
13752SOL     OW44147   3.761   4.411   4.151 -0.8659 -0.2941 -0.3874
13752SOL    HW144148   3.856   4.404   4.162 -0.6420 -0.8649 -2.2199
13752SOL    HW244149   3.726   4.336   4.199 -0.3708 -0.2034  0.1223
13753SOL     OW44150   6.931   1.180   7.610 -0.5179 -0.2406  0.7151
13753SOL    HW144151   7.022   1.178   7.639 -0.2693 -0.7776 -0.0876
13753SOL    HW244152   6.892   1.253   7.658  0.8452  1.3185 -0.4549
13754SOL     OW44153   4.150   4.634   5.431  0.5067  0.8501  0.5286
13754SOL    HW144154   4.061   4.624   5.396  0.2103  0.6734  1.3308
13754SOL    HW244155   4.142   4.701   5.499  0.4412 -1.0124  2.4583
13755SOL     OW44156   6.045   8.127   6.685 -0.2270 -0.5501 -0.1499
13755SOL    HW144157   5.952   8.121   6.663  0.2527 -0.7921 -2.3138
13755SOL    HW244158   6.090   8.103   6.604  1.7370  0.9834  0.4271
13756SOL     OW44159   2.044   0.191   4.114 -0.2676  0.3911 -1.1073
13756SOL    HW144160   2.015   0.279   4.138  0.0524  0.2368 -0.1021
13756SOL    HW244161   2.091   0.203   4.031  1.4912  1.4948 -0.0018
13757SOL     OW44162   1.640   7.160   5.184 -0.4392 -0.2143  0.2901
13757SOL    HW144163   1.685   7.119   5.257  1.2398  0.0807 -0.5316
13757SOL    HW244164   1.547   7.148   5.203 -0.0236 -1.4632  1.6954
13758SOL     OW44165   9.190   8.175   7.143  0.2581 -0.3779  0.0108
13758SOL    HW144166   9.154   8.244   7.087  1.9998 -0.2602 -1.0344
13758SOL    HW244167   9.119   8.110   7.149 -1.1314  1.0998  0.3661
13759SOL     OW44168   8.525   7.440   5.384 -0.6717  0.2059  0.1981
13759SOL    HW144169   8.446   7.387   5.385 -0.0723 -0.7558  2.7543
13759SOL    HW244170   8.573   7.415   5.463  2.1806  0.7993 -1.1977
13760SOL     OW44171   4.810   7.538   5.371 -0.5491 -0.2341 -0.4386
13760SOL    HW144172   4.851   7.529   5.285  0.5528  0.6279 -0.0337
13760SOL    HW244173   4.821   7.630   5.393 -2.1393 -0.1163  0.0010
13761SOL     OW44174   2.993   7.310   4.468 -0.2507 -0.2951  0.2271
13761SOL    HW144175   3.015   7.341   4.556 -0.4887  0.2105  0.1086
13761SOL    HW244176   2.990   7.214   4.477 -0.5535 -0.2370  0.8341
13762SOL     OW44177   1.031   6.537   3.032  0.6107 -0.3723  0.1176
13762SOL    HW144178   1.117   6.554   3.071  0.4276  0.7959  0.0676
13762SOL    HW244179   0.987   6.622   3.035 -0.6581 -1.0211  0.4104
13763SOL     OW44180   1.632   2.181   3.983  0.0898  0.7415 -0.3216
13763SOL    HW144181   1.663   2.249   4.041 -0.5564  0.5423  0.2706
13763SOL    HW244182   1.544   2.209   3.957  0.5877  1.1192 -1.6775
13764SOL     OW44183   2.859   4.429   2.706 -0.0168  0.2777 -0.7423
13764SOL    HW144184   2.861   4.354   2.766 -0.8807 -0.8395 -2.0418
13764SOL    HW244185   2.840   4.504   2.763 -0.6820 -0.7159  0.4111
13765SOL     OW44186   4.370   1.589   4.082  0.6571  0.2780 -0.2050
13765SOL    HW144187   4.304   1.520   4.081 -0.2234  1.0501  0.9114
13765SOL    HW244188   4.328   1.664   4.040  1.8229 -0.0073 -1.9831
13766SOL     OW44189   0.572   0.192   4.906 -0.6618 -0.1398 -0.1377
13766SOL    HW144190   0.564   0.230   4.818  1.5220  1.0787  0.1259
13766SOL    HW244191   0.602   0.264   4.961  1.5318 -1.6821  0.8303
13767SOL     OW44192   2.334   8.163   0.905 -0.3829  0.9166  0.3792
13767SOL    HW144193   2.362   8.252   0.929  0.5105  0.4396  1.1553
13767SOL    HW244194   2.241   8.160   0.930 -0.6319  1.8689 -0.3605
13768SOL     OW44195   0.740   0.070   7.703 -0.5548  0.1511 -0.4702
13768SOL    HW144196   0.668   0.020   7.743 -0.5665  0.0789 -0.5802
13768SOL    HW244197   0.718   0.072   7.610 -0.4320  0.1595 -0.4984
13769SOL     OW44198   6.839   4.967   0.400  0.2304  0.3496 -0.0358
13769SOL    HW144199   6.852   5.057   0.429 -0.7300  0.8769 -1.1625
13769SOL    HW244200   6.922   4.941   0.362  0.9969  0.2076  1.6330
13770SOL     OW44201   0.007   6.761   3.131  0.4851 -0.3305  0.0749
13770SOL    HW144202  -0.048   6.718   3.198 -1.2873  0.0653 -1.0449
13770SOL    HW244203  -0.019   6.853   3.136 -1.0818 -0.5512 -2.3254
13771SOL     OW44204   7.536   5.497   4.679 -0.6041  0.8965  0.7187
13771SOL    HW144205   7.562   5.460   4.594  1.1212  0.9008  1.2243
13771SOL    HW244206   7.512   5.421   4.732 -0.2648  0.7717  0.6945
13772SOL     OW44207   2.484   6.990   5.901 -0.5544 -0.6667  0.3845
13772SOL    HW144208   2.558   7.016   5.846  0.7490  1.3893  2.8837
13772SOL    HW244209   2.446   6.914   5.856  1.1911  0.0453 -2.5589
13773SOL     OW44210   5.711   6.835   6.545 -0.0912 -0.9538  0.2573
13773SOL    HW144211   5.694   6.773   6.475  0.2382  0.1154 -0.8134
13773SOL    HW244212   5.806   6.835   6.555 -0.0667 -0.4486  0.0707
13774SOL     OW44213   6.235   5.990   1.760 -0.0995 -0.7421 -0.3458
13774SOL    HW144214   6.236   5.966   1.667  1.3614  0.1969 -0.6247
13774SOL    HW244215   6.232   6.086   1.759  0.0481 -0.7242  0.5740
13775SOL     OW44216   5.047   5.443   1.008 -0.0234 -0.2248  0.6242
13775SOL    HW144217   4.973   5.491   1.045 -1.6168 -0.5615 -1.9002
13775SOL    HW244218   5.093   5.507   0.953 -0.4221 -0.8137 -0.4204
13776SOL     OW44219   5.511   4.765   7.882 -0.0530  0.3117 -0.1356
13776SOL    HW144220   5.480   4.834   7.824 -1.1428  0.9112  1.0892
13776SOL    HW244221   5.437   4.705   7.890  0.5976 -0.5628 -0.5272
13777SOL     OW44222   3.924   6.552   5.008  0.4650 -0.1838  0.5290
13777SOL    HW144223   3.916   6.546   5.104 -1.4139  0.2012  0.4375
13777SOL    HW244224   4.013   6.522   4.990  1.5948  1.5922  2.5622
13778SOL     OW44225   4.307   6.489   8.442 -0.6607  0.6031  0.5961
13778SOL    HW144226   4.231   6.469   8.388  0.4484  0.5085 -1.0072
13778SOL    HW244227   4.290   6.577   8.475 -2.0742  0.0609  1.4070
13779SOL     OW44228   4.678   0.441   5.805  0.2435 -0.5736 -0.0408
13779SOL    HW144229   4.608   0.488   5.848  0.6526 -0.1799  0.1992
13779SOL    HW244230   4.683   0.480   5.717  0.0002 -0.7715 -0.1439
13780SOL     OW44231   1.411   4.975   7.157  0.7137 -0.6244  0.0640
13780SOL    HW144232   1.440   4.942   7.242  1.3109 -2.8117 -0.9221
13780SOL    HW244233   1.458   5.057   7.146  0.3789 -0.1393  1.9634
13781SOL     OW44234   5.761   4.589   7.039  0.2726 -0.2571  0.2154
13781SOL    HW144235   5.838   4.576   6.984 -0.7907 -1.0468 -1.1833
13781SOL    HW244236   5.769   4.524   7.108  1.5708  0.6596  0.9638
13782SOL     OW44237   2.339   9.040   6.783 -0.3923  0.1275  0.0855
13782SOL    HW144238   2.421   9.089   6.788 -0.1212 -0.1696 -1.1259
13782SOL    HW244239   2.275   9.104   6.751 -0.0595 -0.2656 -1.4038
13783SOL     OW44240   4.643   6.085   0.430  0.1006 -0.1716  0.0169
13783SOL    HW144241   4.728   6.083   0.387  0.7416 -2.7224  1.2457
13783SOL    HW244242   4.581   6.065   0.360  0.4254  1.6649 -0.8759
13784SOL     OW44243   5.840   1.065   0.950  0.1258 -0.0192 -0.1883
13784SOL    HW144244   5.931   1.055   0.923  0.7275  1.6385  1.0622
13784SOL    HW244245   5.837   1.149   0.996 -2.2543  0.4606 -1.0632
13785SOL     OW44246   4.958   3.081   9.110 -0.1375 -0.0130  0.0863
13785SOL    HW144247   5.007   3.019   9.056 -0.5196 -0.2461  0.0065
13785SOL    HW244248   4.999   3.166   9.092 -0.6844  0.0257 -1.0762
13786SOL     OW44249   7.748   7.580   4.848 -0.1160  0.1812  0.3413
13786SOL    HW144250   7.838   7.552   4.864  0.1671 -0.7617 -2.3766
13786SOL    HW244251   7.700   7.499   4.831 -1.0279  0.8077 -0.1899
13787SOL     OW44252   7.282   0.808   5.280  0.2130  0.5909 -0.4195
13787SOL    HW144253   7.308   0.764   5.361  0.2823  2.2638  0.5113
13787SOL    HW244254   7.192   0.837   5.296  0.3723  1.3007 -0.7729
13788SOL     OW44255   3.345   7.100   2.520 -0.9470  0.2402 -1.0691
13788SOL    HW144256   3.345   7.178   2.464  2.2360  0.5528 -0.8096
13788SOL    HW244257   3.398   7.036   2.473 -0.4551 -0.4410  0.3500
13789SOL     OW44258   8.403   6.567   6.150  0.0655  0.1183  0.4230
13789SOL    HW144259   8.337   6.627   6.185  0.9436  0.6548  1.1965
13789SOL    HW244260   8.458   6.546   6.225  1.4993  0.6175 -0.4568
13790SOL     OW44261   4.904   9.186   9.194  0.0890 -0.4332 -0.6457
13790SOL    HW144262   4.847   9.172   9.270 -2.6074  5.0366 -1.1844
13790SOL    HW244263   4.852   9.157   9.120  0.6548 -1.1003 -0.7964
13791SOL     OW44264   3.021   7.683   8.011  0.3195 -0.7822  0.4703
13791SOL    HW144265   3.108   7.719   7.990  0.1318 -0.0043  0.9688
13791SOL    HW244266   3.008   7.613   7.948  1.2104 -0.7447  0.2293
13792SOL     OW44267   6.945   8.271   3.821  0.2914  0.1249 -0.3359
13792SOL    HW144268   7.037   8.260   3.844  0.2375  0.4353  0.0446
13792SOL    HW244269   6.897   8.227   3.891  0.1442  0.2956 -0.3280
13793SOL     OW44270   8.275   7.703   8.226  0.0296  0.4918  0.0938
13793SOL    HW144271   8.318   7.720   8.143 -1.0808  0.5858 -0.4845
13793SOL    HW244272   8.295   7.779   8.280  2.1887 -0.3456  0.5535
13794SOL     OW44273   4.348   6.503   2.922  0.4665  0.2707 -0.0461
13794SOL    HW144274   4.421   6.563   2.908  1.3346 -0.6545  0.3961
13794SOL    HW244275   4.389   6.421   2.950 -0.7478 -0.2170  0.3850
13795SOL     OW44276   9.246   1.068   0.413  0.0302 -0.2512  0.4250
13795SOL    HW144277   9.321   1.124   0.433 -0.6311  1.5078 -1.5654
13795SOL    HW244278   9.284   0.992   0.369  0.7168  0.1997  0.2210
13796SOL     OW44279   3.283   3.963   5.381 -0.4328 -0.0296 -0.6759
13796SOL    HW144280   3.286   4.037   5.441 -1.8057 -0.5632  0.1121
13796SOL    HW244281   3.279   4.002   5.294  1.7834  0.7621 -0.4634
13797SOL     OW44282   5.138   5.205   8.238  0.0699 -0.2807 -0.5229
13797SOL    HW144283   5.158   5.240   8.325  0.5434 -1.7111 -0.0344
13797SOL    HW244284   5.065   5.146   8.251 -0.3225  0.0319 -1.2334
13798SOL     OW44285   1.856   6.035   8.645  0.6330 -0.4637 -0.2475
13798SOL    HW144286   1.874   6.021   8.738  2.2722  1.2627 -0.2438
13798SOL    HW244287   1.916   5.977   8.600 -0.0534 -1.1850 -0.2645
13799SOL     OW44288   3.918   4.857   8.792 -0.2044  0.2015  0.5030
13799SOL    HW144289   3.978   4.886   8.724  0.0698 -0.7111  0.3376
13799SOL    HW244290   3.933   4.762   8.799 -2.1005 -0.1938 -0.0401
13800SOL     OW44291   3.199   8.093   8.691 -0.2449 -0.2104  0.5115
13800SOL    HW144292   3.138   8.056   8.627  0.4583 -1.7678  0.6983
13800SOL    HW244293   3.195   8.188   8.675 -0.2361 -0.5180 -1.7119
13801SOL     OW44294   4.228   1.464   0.670 -0.2669  0.4065 -0.3069
13801SOL    HW144295   4.263   1.389   0.621  0.0389  0.9107 -0.8593
13801SOL    HW244296   4.147   1.431   0.708 -0.5705  0.0450 -1.2467
13802SOL     OW44297   2.194   3.374   1.325  0.3113 -0.1126 -0.4292
13802SOL    HW144298   2.155   3.460   1.341 -2.1025 -1.1831 -0.1433
13802SOL    HW244299   2.276   3.393   1.280  0.3507  2.3693  0.5263
13803SOL     OW44300   3.406   8.999   5.138  0.1431  0.4772 -0.1671
13803SOL    HW144301   3.311   8.999   5.132 -0.0438  0.8619  2.0566
13803SOL    HW244302   3.435   9.047   5.060 -1.5305  1.2494 -0.3553
13804SOL     OW44303   3.059   6.224   3.714  0.4448  0.0386  0.4306
13804SOL    HW144304   3.127   6.280   3.753 -0.1010  1.0915 -0.1008
13804SOL    HW244305   3.018   6.279   3.648 -0.9020 -0.6084  0.7087
13805SOL     OW44306   3.830   6.995   4.346  0.2099 -0.4411 -0.0946
13805SOL    HW144307   3.795   7.084   4.345  2.5333  0.6649  2.2862
13805SOL    HW244308   3.757   6.940   4.375 -1.3514  0.5892 -1.9001
13806SOL     OW44309   7.438   0.337   4.772  0.8459  0.0388  0.0038
13806SOL    HW144310   7.491   0.359   4.849  1.1004  0.8512 -0.3877
13806SOL    HW244311   7.373   0.408   4.767  1.2191  0.3356 -0.8730
13807SOL     OW44312   3.548   7.637   1.856 -0.7754  0.0231  0.6802
13807SOL    HW144313   3.585   7.633   1.944 -1.8134 -0.6205  1.1016
13807SOL    HW244314   3.524   7.546   1.836 -0.1440  0.0776 -0.4580
13808SOL     OW44315   6.630   1.368   5.769  0.0541 -0.3763  0.3924
13808SOL    HW144316   6.613   1.435   5.703  0.9036  1.4435  1.9077
13808SOL    HW244317   6.717   1.336   5.750 -0.1360 -0.6456 -0.0190
13809SOL     OW44318   5.664   2.202   4.099  0.3437 -0.1235 -0.0810
13809SOL    HW144319   5.627   2.173   4.182 -2.8910 -1.2224 -1.7426
13809SOL    HW244320   5.759   2.204   4.114 -0.1344  0.6704  3.8394
13810SOL     OW44321   0.475   0.014   3.497  0.1233  0.7490  0.4994
13810SOL    HW144322   0.482   0.101   3.459  1.3680 -0.3114 -1.9277
13810SOL    HW244323   0.566  -0.013   3.510 -0.2494 -0.0195  1.7345
13811SOL     OW44324   6.210   3.687   4.818  0.5214  0.1846  0.2660
13811SOL    HW144325   6.274   3.753   4.792  0.3550  0.1486 -0.2326
13811SOL    HW244326   6.232   3.610   4.765  0.3232  0.0412  0.3899
13812SOL     OW44327   3.771   7.751   1.512  0.1716  0.2693 -0.6683
13812SOL    HW144328   3.866   7.740   1.504 -0.1944 -2.3247 -3.2079
13812SOL    HW244329   3.755   7.842   1.486  1.8747  0.4588 -1.2010
13813SOL     OW44330   4.849   6.934   2.340  0.2586 -0.4198 -0.1508
13813SOL    HW144331   4.895   6.966   2.417 -0.1447  2.2186 -0.8987
13813SOL    HW244332   4.917   6.921   2.274  0.3792 -0.7988  0.0428
13814SOL     OW44333   2.348   0.640   7.685 -0.0747  0.3043  0.1326
13814SOL    HW144334   2.314   0.651   7.774  1.2492  0.1630  0.6816
13814SOL    HW244335   2.351   0.545   7.672  1.4587  0.2468  0.6691
13815SOL     OW44336   7.843   5.836   2.122 -0.0579 -0.2289  0.1221
13815SOL    HW144337   7.823   5.778   2.048 -0.2512  0.4759 -0.3785
13815SOL    HW244338   7.939   5.832   2.130  0.0002  0.0383 -0.4488
13816SOL     OW44339   8.411   9.044   2.885  0.2491 -0.1620 -0.1002
13816SOL    HW144340   8.483   9.108   2.885 -0.5993  0.8314  0.0908
13816SOL    HW244341   8.338   9.091   2.845 -0.5546 -0.8309  0.5408
13817SOL     OW44342   3.927   3.455   2.036 -0.4935  0.2818 -0.0069
13817SOL    HW144343   3.952   3.365   2.014  0.7126  0.4085  0.7698
13817SOL    HW244344   4.007   3.506   2.026 -0.9757  1.1293  0.3427
13818SOL     OW44345   6.111   2.357   4.543 -0.2826  0.2757  0.6241
13818SOL    HW144346   6.163   2.351   4.623 -1.1748 -0.1631  1.1868
13818SOL    HW244347   6.099   2.451   4.529  1.6009  0.4478 -0.1664
13819SOL     OW44348   4.769   6.937   1.743  0.4753  0.3900  0.1305
13819SOL    HW144349   4.703   6.979   1.799  0.8246  1.1359  0.0002
13819SOL    HW244350   4.845   6.927   1.800  0.2784 -0.4198  0.2651
13820SOL     OW44351   6.979   8.807   6.768  0.2305 -0.8886  0.2395
13820SOL    HW144352   7.036   8.881   6.749 -2.0733  0.9823  0.0536
13820SOL    HW244353   7.026   8.756   6.833  1.8432  0.8592  0.5278
13821SOL     OW44354   0.547   0.723   5.893  0.4488 -0.1269 -0.5260
13821SOL    HW144355   0.536   0.631   5.870 -0.2097 -0.1506 -0.1682
13821SOL    HW244356   0.481   0.738   5.961  1.6501  0.1788  0.6170
13822SOL     OW44357   5.180   5.092   7.959 -0.4807  0.3997 -1.1193
13822SOL    HW144358   5.105   5.140   7.924 -2.7398 -1.4342  0.8437
13822SOL    HW244359   5.202   5.137   8.040 -0.6842 -0.0976 -0.7778
13823SOL     OW44360   9.108   7.417   0.579 -0.0761 -0.2461 -0.8563
13823SOL    HW144361   9.188   7.379   0.614 -1.4627  0.1094  3.0948
13823SOL    HW244362   9.124   7.511   0.580 -0.1948 -0.2224 -1.0828
13824SOL     OW44363   3.844   6.247   9.101  0.5181  0.3136  0.6778
13824SOL    HW144364   3.819   6.281   9.015 -0.8605  0.2693  1.0400
13824SOL    HW244365   3.761   6.228   9.144  1.2082 -0.6888  1.6214
13825SOL     OW44366   1.356   8.148   6.946  0.1525  0.1684  0.6480
13825SOL    HW144367   1.310   8.087   6.888  0.2922 -0.4360  1.1605
13825SOL    HW244368   1.431   8.178   6.894  0.1561 -0.1995  0.4374
13826SOL     OW44369   2.946   1.385   2.636  0.0540  0.0214 -0.0717
13826SOL    HW144370   2.936   1.469   2.591  1.9996  1.2777  1.6272
13826SOL    HW244371   2.938   1.406   2.729 -0.7995 -1.9408  0.3465
13827SOL     OW44372   1.125   0.697   4.114  0.0063 -0.3000  0.0844
13827SOL    HW144373   1.159   0.659   4.033 -1.9406 -1.3114 -0.3095
13827SOL    HW244374   1.174   0.654   4.184  0.6473 -0.5201 -0.4947
13828SOL     OW44375   3.391   5.037   3.933  0.0248  0.1193  0.3678
13828SOL    HW144376   3.455   5.106   3.946  0.7496 -0.5949  0.6884
13828SOL    HW244377   3.345   5.031   4.016 -0.2109  0.3813  0.2579
13829SOL     OW44378   5.953   0.707   4.302  0.6147  0.3528 -0.2123
13829SOL    HW144379   5.908   0.778   4.256 -0.4281  0.2766  0.6604
13829SOL    HW244380   6.004   0.751   4.371 -1.3083  0.2000  1.3901
13830SOL     OW44381   4.435   8.916   8.703 -0.2127  0.5115  0.4847
13830SOL    HW144382   4.364   8.886   8.646  0.0382 -2.4827  1.5507
13830SOL    HW244383   4.397   8.918   8.791  0.7511 -0.2551  0.9434
13831SOL     OW44384   0.955   2.128   0.741  0.8293 -0.1273  0.3447
13831SOL    HW144385   0.913   2.051   0.779  0.7134 -0.1380  0.1960
13831SOL    HW244386   1.049   2.112   0.753  0.8538 -0.8069 -0.6735
13832SOL     OW44387   7.369   1.435   8.974 -0.1424  0.0113  0.2620
13832SOL    HW144388   7.423   1.448   9.052  1.4813 -0.0807 -0.7963
13832SOL    HW244389   7.336   1.522   8.954 -1.7003 -0.1732  1.7832
13833SOL     OW44390   0.389   2.068   5.250  0.8255 -0.0287 -0.0020
13833SOL    HW144391   0.475   2.087   5.288  1.5780  0.1894 -1.7255
13833SOL    HW244392   0.404   1.995   5.190 -0.5698 -1.1800  0.9684
13834SOL     OW44393   7.201   2.178   2.193 -1.1439  0.4389  0.4131
13834SOL    HW144394   7.131   2.134   2.242  0.1549 -1.1048  0.9933
13834SOL    HW244395   7.269   2.195   2.258  0.4026 -1.1859 -0.6873
13835SOL     OW44396   1.152   1.352   8.862  0.2712 -0.0817  0.2641
13835SOL    HW144397   1.181   1.277   8.810  1.8319  0.6019  0.1025
13835SOL    HW244398   1.153   1.321   8.952 -0.3624 -0.6275  0.0950
13836SOL     OW44399   2.894   1.849   6.186  0.2273  0.0072  0.0046
13836SOL    HW144400   2.967   1.806   6.142 -0.3254 -0.0664 -0.8673
13836SOL    HW244401   2.850   1.898   6.117 -0.7179 -0.1872  0.4508
13837SOL     OW44402   3.889   6.638   9.141 -0.8212 -0.3399  0.2086
13837SOL    HW144403   3.967   6.628   9.195 -0.1130 -2.9527 -1.1023
13837SOL    HW244404   3.816   6.628   9.202 -0.1241  0.2853  1.1736
13838SOL     OW44405   0.084   3.628   1.717 -0.3933  0.2210  0.5687
13838SOL    HW144406   0.170   3.602   1.683 -0.5064  1.3849 -0.6523
13838SOL    HW244407   0.034   3.653   1.640 -1.6216  0.2093  1.3378
13839SOL     OW44408   1.692   2.689   5.322 -0.1409 -0.1913  0.2087
13839SOL    HW144409   1.654   2.776   5.334 -1.1003 -0.5447 -0.1711
13839SOL    HW244410   1.755   2.680   5.394 -0.4223  0.5997  0.5629
13840SOL     OW44411   8.948   8.511   0.008  0.0463 -0.5739 -1.1322
13840SOL    HW144412   9.028   8.546  -0.033  0.5687 -1.9870 -1.3799
13840SOL    HW244413   8.942   8.421  -0.025  1.3040 -2.3602  2.9158
13841SOL     OW44414   5.460   5.430   5.969  0.4312  0.5442 -0.0394
13841SOL    HW144415   5.433   5.446   6.059 -1.9641  1.1063 -0.8010
13841SOL    HW244416   5.416   5.497   5.918  2.2774  0.6631 -1.6023
13842SOL     OW44417   8.372   7.799   0.053 -0.1312  0.3748  0.9813
13842SOL    HW144418   8.365   7.817  -0.041 -0.1113 -0.9066  0.7196
13842SOL    HW244419   8.390   7.705   0.058  0.3780  0.5214  2.2499
13843SOL     OW44420   1.903   0.673   0.775 -0.3645  0.0295 -0.3555
13843SOL    HW144421   1.872   0.677   0.685 -0.3326 -1.0592 -0.4193
13843SOL    HW244422   1.971   0.740   0.779  0.2813 -0.5312 -1.4045
13844SOL     OW44423   5.403   3.472   4.600 -0.2698  0.4937 -0.1601
13844SOL    HW144424   5.415   3.567   4.591 -0.0400  0.4894  0.0670
13844SOL    HW244425   5.394   3.459   4.695  1.9223  0.0527  0.0478
13845SOL     OW44426   7.469   4.507   6.506 -0.0820  0.3288  0.1423
13845SOL    HW144427   7.547   4.560   6.490 -0.2765  1.3107  2.0993
13845SOL    HW244428   7.396   4.568   6.494 -0.3216  0.4862  2.1025
13846SOL     OW44429   5.151   6.234   5.428  0.7315  0.5189 -0.4790
13846SOL    HW144430   5.141   6.221   5.522 -2.4415 -0.5625 -0.8432
13846SOL    HW244431   5.079   6.293   5.404  0.1732 -0.8764 -2.4708
13847SOL     OW44432   0.117   1.296   4.165 -0.1549 -0.1294 -0.2251
13847SOL    HW144433   0.117   1.260   4.254  1.4893  0.2467 -0.0525
13847SOL    HW244434   0.089   1.223   4.110  0.0451 -0.7326  0.4601
13848SOL     OW44435   5.773   3.491   1.386  1.0124 -0.8185 -0.1368
13848SOL    HW144436   5.785   3.510   1.293  1.9801 -2.5720 -0.4317
13848SOL    HW244437   5.862   3.476   1.419  0.6103 -1.2119  0.8130
13849SOL     OW44438   6.073   7.944   4.771  0.3837  0.3132  0.9158
13849SOL    HW144439   6.004   8.002   4.803 -1.3645 -1.0545 -0.1867
13849SOL    HW244440   6.061   7.863   4.819  1.6171  0.2347  1.1242
13850SOL     OW44441   4.774   8.179   0.633  0.5779  0.0887  0.0751
13850SOL    HW144442   4.798   8.206   0.545  1.4406 -1.4479 -0.1921
13850SOL    HW244443   4.806   8.250   0.689  0.4463  0.8485 -0.7898
13851SOL     OW44444   3.070   1.429   4.867  0.4007 -0.6700  0.4329
13851SOL    HW144445   3.148   1.374   4.863  0.4581 -0.6047  0.6496
13851SOL    HW244446   3.099   1.515   4.835  0.4251 -0.6379  0.5408
13852SOL     OW44447   8.514   1.573   3.551 -0.2322 -0.1778 -0.0543
13852SOL    HW144448   8.450   1.587   3.620  0.0766  0.6427  0.0840
13852SOL    HW244449   8.515   1.656   3.502  0.3018 -0.3803 -0.4044
13853SOL     OW44450   2.569   2.413   5.295  0.2467  0.3829  0.0455
13853SOL    HW144451   2.542   2.441   5.382  0.7705  0.1538  0.2859
13853SOL    HW244452   2.640   2.472   5.271 -0.0737  0.6168 -0.3409
13854SOL     OW44453   4.626   2.679   2.388  0.0242 -0.1259  0.5893
13854SOL    HW144454   4.662   2.736   2.320 -0.9829 -0.3140 -0.1310
13854SOL    HW244455   4.532   2.698   2.387 -0.2314 -1.3022  0.8219
13855SOL     OW44456   6.376   4.969   6.363 -0.2604  0.3969  0.1572
13855SOL    HW144457   6.427   4.904   6.412  0.2572  0.5725 -0.1462
13855SOL    HW244458   6.303   4.919   6.327  0.2612 -0.0723 -0.2725
13856SOL     OW44459   1.428   7.345   0.968  0.0604  0.1269  0.2750
13856SOL    HW144460   1.339   7.320   0.944  0.5822 -0.4280 -1.2240
13856SOL    HW244461   1.471   7.263   0.991  0.1825  0.3992  1.0550
13857SOL     OW44462   6.719   3.183   2.622  0.4499  0.2929  0.0479
13857SOL    HW144463   6.666   3.157   2.698 -0.7368 -1.2573 -1.2559
13857SOL    HW244464   6.761   3.103   2.592  1.1439  0.9384 -0.7735
13858SOL     OW44465   8.739   8.883   9.232  0.2767 -0.3238 -0.0157
13858SOL    HW144466   8.817   8.841   9.197 -0.4861 -0.1964 -1.9643
13858SOL    HW244467   8.666   8.840   9.189 -0.8377 -1.0201  2.3795
13859SOL     OW44468   8.950   3.049   9.157 -0.0742 -0.4800 -0.4530
13859SOL    HW144469   8.893   3.014   9.225 -0.0390 -1.4522 -0.9065
13859SOL    HW244470   9.038   3.048   9.195 -0.2191  0.1621 -0.0795
13860SOL     OW44471   3.007   8.720   2.456  0.1858 -0.7278 -0.1417
13860SOL    HW144472   2.916   8.747   2.467  0.2482 -0.0263 -1.1743
13860SOL    HW244473   3.007   8.670   2.374  0.9777  0.6268 -1.0108
13861SOL     OW44474   5.511   8.726   7.053  0.1473 -0.0166 -0.0052
13861SOL    HW144475   5.454   8.676   6.994  0.6171 -0.8534  0.2252
13861SOL    HW244476   5.585   8.751   6.998  0.0994  0.0791 -0.0260
13862SOL     OW44477   7.616   6.761   7.740 -0.4825 -0.0835  0.5038
13862SOL    HW144478   7.667   6.737   7.817 -0.0999  1.5538  0.8068
13862SOL    HW244479   7.558   6.687   7.725  1.0494 -1.4181  0.9631
13863SOL     OW44480   4.016   8.386   8.645  0.4105  0.7503 -0.0491
13863SOL    HW144481   4.107   8.365   8.624 -0.3743  0.7319 -4.2843
13863SOL    HW244482   3.968   8.305   8.625 -0.6127  0.6118  2.5432
13864SOL     OW44483   8.248   3.441   3.046  0.0603 -0.2201 -0.0817
13864SOL    HW144484   8.220   3.523   3.086  0.4022 -0.9841  1.8249
13864SOL    HW244485   8.171   3.383   3.051  0.4956 -0.7533  0.7503
13865SOL     OW44486   7.795   1.668   8.255 -0.0694  0.0941  0.1574
13865SOL    HW144487   7.744   1.739   8.292 -1.7178 -0.7908 -0.3002
13865SOL    HW244488   7.806   1.606   8.327  0.8974  0.5617  0.4155
13866SOL     OW44489   7.977   6.323   8.580  0.1484  0.6405  0.4371
13866SOL    HW144490   8.051   6.354   8.528 -1.2187  1.2762 -1.2532
13866SOL    HW244491   7.943   6.401   8.623  0.6879  0.2755  1.5705
13867SOL     OW44492   0.849   8.377   8.841 -0.0437  0.1897 -0.1708
13867SOL    HW144493   0.821   8.467   8.826 -1.2048  0.0469  0.9380
13867SOL    HW244494   0.936   8.385   8.881  0.6672  0.7253 -1.7505
13868SOL     OW44495   6.537   6.843   1.552 -0.1911  0.7037  0.0047
13868SOL    HW144496   6.524   6.779   1.482  1.4488 -0.7361  0.9399
13868SOL    HW244497   6.472   6.911   1.534 -1.6599 -0.9355 -1.3502
13869SOL     OW44498   4.849   4.563   7.607 -0.0539  0.6481 -0.1252
13869SOL    HW144499   4.793   4.490   7.635  3.3956 -2.2951 -0.1095
13869SOL    HW244500   4.860   4.550   7.512  0.6227  1.1193 -0.1220
13870SOL     OW44501   2.798   8.773   3.943  0.3004  0.1583 -0.4775
13870SOL    HW144502   2.851   8.740   4.015  2.9320  5.5319  0.5527
13870SOL    HW244503   2.723   8.815   3.986  0.5418  1.1969 -1.0367
13871SOL     OW44504   7.729   0.204   8.417 -0.1927  0.2474  0.3569
13871SOL    HW144505   7.821   0.185   8.403 -0.4888 -1.3618  0.4822
13871SOL    HW244506   7.682   0.136   8.368 -1.3000  0.1892  1.4598
13872SOL     OW44507   2.889   6.725   6.790 -0.4852  0.5204 -0.2244
13872SOL    HW144508   2.827   6.682   6.849  1.2930 -0.2139  1.2243
13872SOL    HW244509   2.880   6.818   6.809 -0.6793  0.3672  0.4450
13873SOL     OW44510   5.181   8.239   3.253 -0.0285  0.6553  0.1869
13873SOL    HW144511   5.261   8.287   3.273  1.8794 -1.7973 -1.0329
13873SOL    HW244512   5.135   8.293   3.188  0.5530  2.1432  0.9874
13874SOL     OW44513   5.674   0.599   3.767 -0.0759 -0.0407 -0.4887
13874SOL    HW144514   5.660   0.602   3.861  0.6263  0.8610 -0.3992
13874SOL    HW244515   5.586   0.587   3.730 -0.3463 -0.4555  0.2727
13875SOL     OW44516   6.853   1.966   4.930  0.0365 -0.2535  0.0263
13875SOL    HW144517   6.785   2.031   4.919  0.0027  0.1558  2.1430
13875SOL    HW244518   6.877   1.939   4.841 -0.3747  2.1806 -0.8765
13876SOL     OW44519   0.939   4.221   1.930 -0.5489  0.4509 -0.1451
13876SOL    HW144520   0.847   4.203   1.948 -0.0236 -1.4875  1.0143
13876SOL    HW244521   0.967   4.147   1.876  0.4237  0.7354 -0.0428
13877SOL     OW44522   2.416   7.062   6.794 -0.3531  0.0365 -0.0347
13877SOL    HW144523   2.509   7.041   6.779 -0.1682  0.7022  0.1789
13877SOL    HW244524   2.370   7.007   6.731  0.2912  1.0545 -1.4450
13878SOL     OW44525   4.777   0.105   3.781  0.3058 -0.1337  0.3815
13878SOL    HW144526   4.778   0.174   3.714  2.5322 -0.9244 -0.5023
13878SOL    HW244527   4.864   0.108   3.820  0.1628 -1.8488  0.9271
13879SOL     OW44528   0.730   9.250   0.195  0.1008  0.0873  0.1009
13879SOL    HW144529   0.741   9.157   0.176 -2.3587 -0.3284  0.3475
13879SOL    HW244530   0.664   9.252   0.264  0.3738  2.0300  0.3649
13880SOL     OW44531   0.526   3.001   2.037 -0.6164  0.1699 -0.6092
13880SOL    HW144532   0.438   2.967   2.053 -0.8304  0.6670 -0.7240
13880SOL    HW244533   0.538   3.069   2.103 -0.7421  0.8594 -1.2882
13881SOL     OW44534   2.948   8.637   8.000 -0.1330  0.2681  0.1808
13881SOL    HW144535   2.920   8.617   7.911 -0.5619  0.3788  0.2892
13881SOL    HW244536   2.993   8.557   8.030  0.7131  0.5092 -0.4056
13882SOL     OW44537   1.876   1.521   8.128 -0.3885 -0.1739 -0.1242
13882SOL    HW144538   1.854   1.613   8.142  1.1793  0.4332 -1.2690
13882SOL    HW244539   1.898   1.515   8.035  0.9535 -1.3625  0.2247
13883SOL     OW44540   2.519   4.204   6.868  0.3560  0.1358  0.9143
13883SOL    HW144541   2.518   4.129   6.927  0.4733 -0.4684  0.1582
13883SOL    HW244542   2.516   4.280   6.926  1.2575 -0.4322  1.7265
13884SOL     OW44543   1.337   5.241   0.335 -0.5238  0.9404 -0.3104
13884SOL    HW144544   1.418   5.231   0.284 -0.4393  0.1590 -0.0353
13884SOL    HW244545   1.361   5.300   0.407 -0.0258  0.2144  0.1253
13885SOL     OW44546   7.673   1.102   1.636  0.0655 -0.1191  0.2193
13885SOL    HW144547   7.742   1.082   1.699  0.5960 -0.7382 -0.5344
13885SOL    HW244548   7.663   1.022   1.585 -1.0226  0.0605  0.1421
13886SOL     OW44549   1.071   8.551   0.782  0.2047 -0.0736  0.5478
13886SOL    HW144550   1.058   8.486   0.713  0.4297 -0.5132  0.9179
13886SOL    HW244551   1.004   8.530   0.848 -0.3060  0.6231  0.2669
13887SOL     OW44552   7.036   1.342   1.615 -0.6595  0.2697 -0.3734
13887SOL    HW144553   7.103   1.275   1.602  0.0981  0.7930  0.7120
13887SOL    HW244554   7.000   1.357   1.528 -1.1802 -1.8702 -0.5708
13888SOL     OW44555   1.144   1.811   2.550 -0.6956  0.1455 -0.4324
13888SOL    HW144556   1.176   1.750   2.484 -1.0230 -1.1052  0.5355
13888SOL    HW244557   1.127   1.757   2.627 -1.4086  1.3917  0.3191
13889SOL     OW44558   4.496   3.490   2.435 -0.2368  0.6959  0.0623
13889SOL    HW144559   4.448   3.473   2.516  0.1236 -1.4347 -0.0975
13889SOL    HW244560   4.478   3.412   2.381 -1.3744  2.5008 -2.3778
13890SOL     OW44561   6.214   3.863   0.095  0.1408  0.8479  0.0143
13890SOL    HW144562   6.161   3.930   0.139 -0.8977  0.2324 -0.2443
13890SOL    HW244563   6.154   3.789   0.085  0.9739  0.2369 -0.5922
13891SOL     OW44564   9.074   8.878   2.862 -0.8974 -0.3436 -0.3338
13891SOL    HW144565   9.113   8.792   2.870 -0.5377 -0.2448 -0.9761
13891SOL    HW244566   9.145   8.935   2.833 -0.6770  0.5540  1.7862
13892SOL     OW44567   7.244   0.973   0.434  0.1445  0.4073  0.2599
13892SOL    HW144568   7.259   1.058   0.393  0.9610  0.7128  1.1461
13892SOL    HW244569   7.331   0.940   0.453 -0.1109 -1.2314 -1.1944
13893SOL     OW44570   0.315   6.381   0.375  0.3199  0.3411 -0.0294
13893SOL    HW144571   0.332   6.361   0.467 -0.2507  1.4282  0.3323
13893SOL    HW244572   0.295   6.297   0.335  0.4121 -0.1182  0.8813
13894SOL     OW44573   2.593   8.354   2.034  0.1161  0.0122 -0.0542
13894SOL    HW144574   2.577   8.283   1.971  2.9320  1.1636 -2.3224
13894SOL    HW244575   2.564   8.433   1.988  0.6484  0.7368  0.8298
13895SOL     OW44576   4.791   5.949   3.647 -0.6146  0.0854 -0.1029
13895SOL    HW144577   4.743   6.022   3.686 -0.7077 -0.7969  1.5200
13895SOL    HW244578   4.881   5.961   3.677 -0.8278 -1.0004  1.0450
13896SOL     OW44579   0.378   2.298   7.927  0.1548  0.6432 -0.0758
13896SOL    HW144580   0.328   2.335   8.000 -0.5769  1.2354 -0.8509
13896SOL    HW244581   0.468   2.326   7.943  0.5685 -1.6308  2.1116
13897SOL     OW44582   8.153   8.435   1.397  0.3236 -0.3613  0.1357
13897SOL    HW144583   8.185   8.356   1.354 -1.2642 -0.6847 -0.5329
13897SOL    HW244584   8.171   8.506   1.335 -0.2182 -0.5380 -0.2322
13898SOL     OW44585   2.759   8.376   5.990  0.1475  0.2991 -1.0464
13898SOL    HW144586   2.665   8.388   6.008 -0.1105 -1.3647 -1.1268
13898SOL    HW244587   2.772   8.419   5.905 -0.8484 -0.5836 -1.6721
13899SOL     OW44588   8.566   5.857   2.472 -0.3030 -0.4314  0.0189
13899SOL    HW144589   8.627   5.817   2.535 -0.4844  0.7721  0.9793
13899SOL    HW244590   8.489   5.879   2.524 -0.7784 -0.1492 -0.7986
13900SOL     OW44591   5.153   3.517   5.349  0.3576 -0.5957 -0.0677
13900SOL    HW144592   5.101   3.437   5.360  0.4027 -0.6297 -0.1036
13900SOL    HW244593   5.153   3.557   5.436  0.2590 -0.5883 -0.0702
13901SOL     OW44594   0.134   2.806   5.613  0.0275 -0.5992 -0.1199
13901SOL    HW144595   0.152   2.838   5.525  0.8501 -1.0431 -0.1257
13901SOL    HW244596   0.042   2.779   5.611  0.2342 -1.2532 -1.0476
13902SOL     OW44597   1.929   1.702   5.045 -0.2222 -0.1715  0.0482
13902SOL    HW144598   1.870   1.629   5.030  1.5360 -1.7479  0.4883
13902SOL    HW244599   1.969   1.684   5.130 -0.6113  1.9475  0.7466
13903SOL     OW44600   0.795   4.232   9.193 -0.3662  0.1699  0.2250
13903SOL    HW144601   0.858   4.232   9.265  1.2480  0.0209 -1.1085
13903SOL    HW244602   0.743   4.153   9.206  0.9764 -0.7328  0.3843
13904SOL     OW44603   0.010   4.284   0.255  0.8912  0.6750  0.4713
13904SOL    HW144604  -0.066   4.232   0.281  0.6912 -0.2707 -1.7598
13904SOL    HW244605   0.084   4.224   0.262  0.7420  0.1799 -1.5709
13905SOL     OW44606   5.292   5.523   4.287 -0.0205  0.1077 -0.9942
13905SOL    HW144607   5.380   5.548   4.315 -0.4451 -1.1701  1.9126
13905SOL    HW244608   5.246   5.606   4.273  0.6269  0.8951  1.1701
13906SOL     OW44609   2.132   2.846   1.736 -0.2001 -0.0541 -0.5734
13906SOL    HW144610   2.121   2.778   1.670 -0.3290 -0.6775  0.0887
13906SOL    HW244611   2.186   2.806   1.804  0.1281  0.6597 -0.4004
13907SOL     OW44612   6.130   6.337   2.806 -0.3442 -0.1897  0.3655
13907SOL    HW144613   6.093   6.420   2.779  0.0165 -0.7453 -2.1255
13907SOL    HW244614   6.075   6.271   2.763 -0.0065 -1.1949  1.4328
13908SOL     OW44615   3.993   6.464   6.816 -0.2302 -0.6793 -0.8756
13908SOL    HW144616   3.994   6.374   6.782  0.0292  0.0442 -2.9245
13908SOL    HW244617   3.970   6.518   6.741  3.0088  1.3265 -0.6182
13909SOL     OW44618   6.838   4.453   6.697 -0.2451 -0.2821  0.0589
13909SOL    HW144619   6.768   4.500   6.742 -1.3747 -1.3165 -0.5644
13909SOL    HW244620   6.903   4.521   6.677 -0.1829  0.4034  2.2312
13910SOL     OW44621   7.430   8.520   4.699  0.2160  0.6519 -0.2018
13910SOL    HW144622   7.341   8.517   4.663 -0.1039 -0.0059  0.5888
13910SOL    HW244623   7.427   8.459   4.773  2.2078 -1.9411 -2.0748
13911SOL     OW44624   3.224   2.394   0.705 -0.4284  0.8989 -0.4493
13911SOL    HW144625   3.167   2.469   0.722  0.7913  1.5505  1.0678
13911SOL    HW244626   3.312   2.432   0.699  0.7631 -0.5866  3.8975
13912SOL     OW44627   0.870   3.458   2.196  1.1478 -0.7358  0.2683
13912SOL    HW144628   0.840   3.376   2.156 -0.3302 -0.1147  0.0303
13912SOL    HW244629   0.938   3.490   2.138  0.7034 -1.0563 -0.4422
13913SOL     OW44630   8.539   0.689   5.183  0.0996  0.2388  0.2283
13913SOL    HW144631   8.594   0.672   5.259  0.3089 -0.3545 -0.0540
13913SOL    HW244632   8.460   0.729   5.220  0.9271  1.6341  0.5814
13914SOL     OW44633   5.452   6.334   7.219 -0.1433  0.3794 -0.2451
13914SOL    HW144634   5.367   6.378   7.227  0.0933  0.5580  1.7530
13914SOL    HW244635   5.503   6.366   7.293  0.9898 -1.1876 -0.2879
13915SOL     OW44636   4.113   7.898   0.284  0.2261 -0.1237 -0.4099
13915SOL    HW144637   4.155   7.826   0.237  0.0848 -1.3950  1.3076
13915SOL    HW244638   4.168   7.913   0.360 -0.1067  1.1790 -0.3967
13916SOL     OW44639   7.456   9.094   7.869 -0.1111 -0.4068 -0.3210
13916SOL    HW144640   7.382   9.073   7.812 -1.8928 -0.7468  1.9511
13916SOL    HW244641   7.481   9.183   7.844 -3.3170  0.9617  0.6972
13917SOL     OW44642   3.295   0.900   6.117 -0.6159 -0.4020 -0.5261
13917SOL    HW144643   3.211   0.867   6.150 -1.5290  0.1421 -2.1704
13917SOL    HW244644   3.290   0.995   6.129 -0.2663 -0.3609 -0.7009
13918SOL     OW44645   0.397   7.669   8.084  0.1957  0.2296 -0.1089
13918SOL    HW144646   0.473   7.710   8.042 -0.6915  2.1615  0.0677
13918SOL    HW244647   0.431   7.634   8.166  1.1863 -0.2713 -0.7203
13919SOL     OW44648   4.692   6.901   6.343  0.0729 -0.3366 -0.0489
13919SOL    HW144649   4.652   6.973   6.391  0.8180 -0.5582  0.9189
13919SOL    HW244650   4.643   6.824   6.370 -0.0198 -0.3491 -0.2518
13920SOL     OW44651   3.362   8.409   4.392 -0.3704 -0.0884 -0.0972
13920SOL    HW144652   3.356   8.360   4.475 -2.1684 -1.0710 -0.7389
13920SOL    HW244653   3.455   8.425   4.380  0.0802 -1.4123  1.2872
13921SOL     OW44654   1.687   6.954   6.960  0.6664  0.1598  0.5482
13921SOL    HW144655   1.614   7.016   6.967  0.5824  0.0693  0.4777
13921SOL    HW244656   1.652   6.872   6.995  0.1611 -0.3666 -1.0824
13922SOL     OW44657   3.642   6.606   1.772 -0.3567  0.6419 -0.0564
13922SOL    HW144658   3.634   6.652   1.689 -0.1712 -2.6565 -2.0572
13922SOL    HW244659   3.717   6.547   1.761 -0.3047  0.0989  2.4653
13923SOL     OW44660   5.212   2.067   3.533  1.1603 -0.9979 -0.3177
13923SOL    HW144661   5.217   1.980   3.493  0.4166 -1.4329  0.4986
13923SOL    HW244662   5.163   2.053   3.614  0.8182  0.2291 -0.2939
13924SOL     OW44663   1.418   9.028   3.363 -0.1957  0.4370  0.1189
13924SOL    HW144664   1.412   9.018   3.458  0.3262  1.9122  0.3312
13924SOL    HW244665   1.511   9.043   3.346 -0.2337 -0.1590 -0.6772
13925SOL     OW44666   3.760   8.937   4.051 -0.0505  0.3283 -0.0492
13925SOL    HW144667   3.686   8.950   3.992  0.3496 -1.5972 -1.0554
13925SOL    HW244668   3.788   8.847   4.035  0.5597 -0.0173  2.5685
13926SOL     OW44669   3.529   2.773   5.920 -0.1509  0.0876  0.9569
13926SOL    HW144670   3.456   2.795   5.977 -0.3377  0.5497  0.5475
13926SOL    HW244671   3.520   2.832   5.845 -0.3785 -1.0648  0.0509
13927SOL     OW44672   5.818   3.941   4.024  0.2618 -0.0574 -0.0579
13927SOL    HW144673   5.843   3.919   3.934  1.3813 -0.5496  0.3577
13927SOL    HW244674   5.775   3.862   4.057  0.6707 -0.2092  0.1241
13928SOL     OW44675   6.402   4.975   5.313 -0.3173 -0.8654  0.7480
13928SOL    HW144676   6.341   4.905   5.333  0.0504 -1.3047  0.3361
13928SOL    HW244677   6.349   5.040   5.267 -0.6067 -0.9691  0.9308
13929SOL     OW44678   2.540   2.932   5.574 -0.1481 -0.4257 -0.5468
13929SOL    HW144679   2.491   3.007   5.608  1.6253 -0.5366  2.5926
13929SOL    HW244680   2.552   2.875   5.650  2.9690 -1.4046 -1.6293
13930SOL     OW44681   3.438   4.853   7.266  0.4183  0.4728 -0.3487
13930SOL    HW144682   3.421   4.826   7.175  1.6127  0.2748 -0.5406
13930SOL    HW244683   3.362   4.823   7.315 -0.4576  0.9761 -1.3542
13931SOL     OW44684   4.001   7.493   8.770  0.4323  0.7399 -0.6306
13931SOL    HW144685   3.960   7.441   8.701 -1.4803  0.2129  0.8111
13931SOL    HW244686   3.927   7.534   8.816  1.7305  2.3853  0.0907
13932SOL     OW44687   6.127   5.498   1.095 -0.2477  0.1695 -0.4877
13932SOL    HW144688   6.070   5.486   1.019  0.6450 -0.7964 -1.0283
13932SOL    HW244689   6.134   5.411   1.134  1.1964  0.1679 -0.6929
13933SOL     OW44690   3.245   3.345   0.219 -0.2939  0.0788 -0.5384
13933SOL    HW144691   3.191   3.362   0.141  0.0419 -0.3600 -0.8712
13933SOL    HW244692   3.182   3.341   0.291 -0.5348  1.3371 -0.6435
13934SOL     OW44693   0.638   2.478   1.647  0.5252 -0.1378 -0.6580
13934SOL    HW144694   0.652   2.553   1.589  0.1925  0.2215 -0.2770
13934SOL    HW244695   0.543   2.469   1.652  0.5015  0.6294  0.8282
13935SOL     OW44696   7.168   7.411   3.674  0.1687  0.0038 -0.5490
13935SOL    HW144697   7.257   7.406   3.640  0.5543  2.6067 -0.1314
13935SOL    HW244698   7.123   7.472   3.616  0.1298  2.5363  1.9424
13936SOL     OW44699   8.944   7.479   6.130 -0.0239 -0.1374 -0.5861
13936SOL    HW144700   8.908   7.567   6.116  1.1858  0.6538  0.9899
13936SOL    HW244701   8.969   7.449   6.043 -2.4139  0.1558 -1.4554
13937SOL     OW44702   4.580   0.402   8.246 -0.3065 -0.6497  0.0461
13937SOL    HW144703   4.609   0.314   8.270  0.3923 -0.6994 -0.8988
13937SOL    HW244704   4.538   0.436   8.324 -3.5324 -3.0091 -0.4726
13938SOL     OW44705   9.122   2.149   8.206  0.4910  0.0883 -0.2017
13938SOL    HW144706   9.166   2.073   8.167  1.7514 -0.0057  1.3071
13938SOL    HW244707   9.161   2.157   8.293 -0.8668  1.4305  0.3229
13939SOL     OW44708   6.440   1.022   4.710  0.6252 -0.6437 -0.7019
13939SOL    HW144709   6.419   0.940   4.754 -1.9238  1.0669  1.6201
13939SOL    HW244710   6.356   1.056   4.680  1.3469  1.8328 -0.1587
13940SOL     OW44711   4.894   5.662   2.905 -0.2331 -0.3198  0.4391
13940SOL    HW144712   4.943   5.655   2.987  0.8910  1.1660 -0.0721
13940SOL    HW244713   4.961   5.676   2.838 -1.2968  2.0154 -0.2447
13941SOL     OW44714   6.251   7.369   5.027 -0.3291  0.4453  0.2399
13941SOL    HW144715   6.249   7.341   4.936  0.3495  0.2839  0.2667
13941SOL    HW244716   6.293   7.455   5.025  0.5033  0.0543  0.4837
13942SOL     OW44717   3.845   7.302   4.357  0.2237 -0.3372  0.5895
13942SOL    HW144718   3.939   7.309   4.376  0.1291 -0.1650  0.9987
13942SOL    HW244719   3.803   7.356   4.423 -0.2626 -1.6763  1.4171
13943SOL     OW44720   4.486   8.119   7.013 -0.1152  0.4973  0.1785
13943SOL    HW144721   4.534   8.191   6.973  0.3183  0.1526  0.0697
13943SOL    HW244722   4.417   8.161   7.063  0.2880  0.9979  0.3172
13944SOL     OW44723   7.933   5.793   4.289 -0.0250 -0.3442  0.4864
13944SOL    HW144724   7.951   5.717   4.343  0.7536  0.6260  1.6480
13944SOL    HW244725   7.849   5.774   4.247 -0.6938 -1.1057  2.1000
13945SOL     OW44726   0.036   6.465   4.464  0.5275  0.1409 -0.9255
13945SOL    HW144727   0.131   6.475   4.460  0.5365  0.8381  0.2788
13945SOL    HW244728   0.018   6.453   4.557 -0.5289 -0.5068 -1.2021
13946SOL     OW44729   1.269   1.158   0.784 -0.3394  0.5127  0.0207
13946SOL    HW144730   1.258   1.067   0.755  1.1758  0.2623  0.1365
13946SOL    HW244731   1.205   1.168   0.855 -0.9191 -0.2756 -0.3702
13947SOL     OW44732   3.060   0.363   0.688 -0.0675  1.1370  0.6118
13947SOL    HW144733   3.026   0.290   0.741  1.6761 -0.7236 -0.6852
13947SOL    HW244734   3.020   0.350   0.602  4.3877 -1.8529 -1.3491
13948SOL     OW44735   6.257   1.613   3.945  0.1055 -0.0631  0.3873
13948SOL    HW144736   6.337   1.593   3.896  1.0859 -0.2800  2.0131
13948SOL    HW244737   6.257   1.551   4.018 -0.0104  1.8096  2.0584
13949SOL     OW44738   4.238   9.113   5.066  0.2087  0.3732  0.0042
13949SOL    HW144739   4.229   9.198   5.025 -1.3680  1.1252  1.7601
13949SOL    HW244740   4.229   9.050   4.994 -1.4499  1.6328 -0.9423
13950SOL     OW44741   1.509   6.170   3.967  0.1286 -0.4207  0.2235
13950SOL    HW144742   1.552   6.255   3.975  2.0767 -1.4659  1.5043
13950SOL    HW244743   1.420   6.192   3.939  0.9196  1.9428 -0.7542
13951SOL     OW44744   4.614   3.619   3.812 -0.0042 -0.0456  0.2086
13951SOL    HW144745   4.674   3.649   3.744 -0.9492 -0.9826 -1.0980
13951SOL    HW244746   4.528   3.617   3.769 -0.7071 -0.2321  1.5685
13952SOL     OW44747   1.893   0.014   8.099 -0.7874  0.2950  0.5116
13952SOL    HW144748   1.797   0.023   8.101 -0.8448 -0.1162 -0.1718
13952SOL    HW244749   1.915  -0.017   8.187 -1.4561 -1.1566  0.1992
13953SOL     OW44750   7.018   6.838   6.786  0.1681 -0.2481  0.0478
13953SOL    HW144751   7.111   6.854   6.768  0.7868 -2.0725  1.2857
13953SOL    HW244752   7.015   6.814   6.879 -1.7689  1.1546  0.4191
13954SOL     OW44753   0.144   7.783   4.547 -0.3956  0.1561 -0.1166
13954SOL    HW144754   0.103   7.733   4.476 -0.4524 -2.0495  1.3701
13954SOL    HW244755   0.081   7.853   4.567 -1.8469 -1.0793 -0.1735
13955SOL     OW44756   0.193   1.558   2.185  0.2926 -0.1387  0.0451
13955SOL    HW144757   0.098   1.570   2.184  0.1319 -1.3134 -0.1824
13955SOL    HW244758   0.208   1.489   2.250  0.7678 -1.4899 -1.4346
13956SOL     OW44759   6.769   4.404   4.770 -0.2936  0.4489  0.0567
13956SOL    HW144760   6.803   4.493   4.776  0.3174  0.2900 -0.8368
13956SOL    HW244761   6.832   4.351   4.819 -0.0729  0.3721 -0.3006
13957SOL     OW44762   4.625   0.741   7.314  0.4282 -0.1468 -0.4445
13957SOL    HW144763   4.638   0.679   7.385 -1.5746 -0.5613 -0.3961
13957SOL    HW244764   4.603   0.823   7.358 -0.5442 -0.3350 -0.5693
13958SOL     OW44765   3.755   0.368   0.770 -0.0694  0.2505  0.7214
13958SOL    HW144766   3.763   0.276   0.796  1.5280  0.2082  0.2284
13958SOL    HW244767   3.779   0.417   0.849  2.5759  0.1456  0.0987
13959SOL     OW44768   2.726   0.836   1.612 -0.4258 -0.2747 -0.4245
13959SOL    HW144769   2.631   0.845   1.602 -0.9140 -1.3626  2.2870
13959SOL    HW244770   2.747   0.889   1.689  0.8868 -1.2716 -0.0551
13960SOL     OW44771   3.745   7.791   0.938  0.0607  0.2988  0.3521
13960SOL    HW144772   3.800   7.716   0.917 -0.3680 -0.0090  0.3109
13960SOL    HW244773   3.752   7.800   1.033  1.6974  1.4513  0.1631
13961SOL     OW44774   0.492   9.208   7.085  0.6382  0.1270 -0.3019
13961SOL    HW144775   0.412   9.211   7.137  0.1189 -2.7461 -0.7756
13961SOL    HW244776   0.464   9.229   6.996  0.5219 -0.2853 -0.3627
13962SOL     OW44777   6.631   8.391   5.733 -0.2826 -0.2210 -0.4321
13962SOL    HW144778   6.552   8.338   5.747 -0.1845  0.1636  2.0824
13962SOL    HW244779   6.604   8.456   5.668 -1.4133 -1.2794 -1.0800
13963SOL     OW44780   1.524   8.135   7.634 -0.2628  0.3421 -0.5941
13963SOL    HW144781   1.594   8.078   7.665 -0.2965  0.7314  0.2263
13963SOL    HW244782   1.444   8.100   7.674 -0.2140  1.2617  0.3601
13964SOL     OW44783   6.240   6.534   3.322  0.3008  0.4446 -0.3119
13964SOL    HW144784   6.315   6.563   3.373  0.7978 -1.6058  0.2408
13964SOL    HW244785   6.269   6.538   3.231  0.3658  1.5312 -0.2535
13965SOL     OW44786   5.582   8.404   6.925  0.3347  0.4774 -0.3886
13965SOL    HW144787   5.494   8.440   6.936  0.2232  0.2771 -0.6235
13965SOL    HW244788   5.570   8.309   6.932  0.7028  0.5061  0.7666
13966SOL     OW44789   6.050   1.302   8.309 -0.5118 -0.6538 -0.5003
13966SOL    HW144790   6.112   1.298   8.382  0.0432  2.3756 -0.6601
13966SOL    HW244791   5.966   1.325   8.350 -1.1855 -2.8859 -0.4881
13967SOL     OW44792   2.680   4.035   8.289 -0.1253  0.4364 -0.9169
13967SOL    HW144793   2.772   4.048   8.265  0.3888 -0.8145  0.2196
13967SOL    HW244794   2.649   3.966   8.231  0.2164 -0.4346 -0.0882
13968SOL     OW44795   2.481   6.246   1.627  0.3929 -0.1118  0.3428
13968SOL    HW144796   2.557   6.189   1.639  0.0765 -0.1342  2.6116
13968SOL    HW244797   2.407   6.193   1.659 -0.2519  0.7229  0.2574
13969SOL     OW44798   7.230   2.333   5.853 -0.4033 -0.1121 -0.6250
13969SOL    HW144799   7.147   2.319   5.898  0.2621  0.7290  0.9536
13969SOL    HW244800   7.220   2.417   5.808 -0.4568 -0.0803 -0.5524
13970SOL     OW44801   4.047   3.787   0.919  0.0864 -0.5999 -0.3532
13970SOL    HW144802   3.964   3.788   0.871 -1.8531 -1.2347  2.7080
13970SOL    HW244803   4.057   3.697   0.949  0.8272 -0.0973  1.0004
13971SOL     OW44804   4.072   3.449   6.150  0.1092 -0.0855  0.6452
13971SOL    HW144805   4.028   3.419   6.071 -1.5362  0.5091  1.2889
13971SOL    HW244806   4.068   3.374   6.210  0.3414 -0.1583  0.5727
13972SOL     OW44807   5.639   5.742   7.554 -0.5910  0.2661  0.1611
13972SOL    HW144808   5.594   5.797   7.619 -0.8189 -0.0895  0.3102
13972SOL    HW244809   5.615   5.653   7.578  1.8923 -0.1271  1.5575
13973SOL     OW44810   6.003   0.731   3.014  0.1159  0.3082 -0.3819
13973SOL    HW144811   5.919   0.702   2.981  0.2832 -0.4909 -0.1193
13973SOL    HW244812   6.023   0.810   2.964 -0.7302  0.4380 -0.5233
13974SOL     OW44813   7.523   5.568   6.243 -0.0073 -0.2217  0.1627
13974SOL    HW144814   7.526   5.504   6.313  1.3906  0.1220  0.4606
13974SOL    HW244815   7.477   5.643   6.280  0.6563 -0.0721  0.7065
13975SOL     OW44816   6.343   1.284   6.925 -0.2270 -0.6635 -0.6229
13975SOL    HW144817   6.379   1.200   6.953 -0.2694 -0.1999  0.8948
13975SOL    HW244818   6.415   1.326   6.878  1.3223  0.2241  2.3051
13976SOL     OW44819   2.513   6.076   7.920  0.1078  0.5007  0.2888
13976SOL    HW144820   2.523   6.000   7.863  1.9481  1.3201 -0.5661
13976SOL    HW244821   2.436   6.121   7.886  0.3907  0.2635 -0.7070
13977SOL     OW44822   8.034   8.176   7.910  0.2150  0.3926 -0.0282
13977SOL    HW144823   8.013   8.254   7.962 -4.7399  0.5455 -1.7386
13977SOL    HW244824   8.043   8.209   7.821  0.5270 -0.7594 -0.4372
13978SOL     OW44825   0.247   8.979   6.245  0.1182  0.6317  0.1276
13978SOL    HW144826   0.235   9.016   6.333  2.0922 -0.2309  0.8326
13978SOL    HW244827   0.238   9.054   6.186 -0.5274  1.3616  1.1186
13979SOL     OW44828   9.030   4.335   1.462  0.8616  0.2503  0.1851
13979SOL    HW144829   8.945   4.315   1.502  0.5306  2.0577  0.4816
13979SOL    HW244830   9.090   4.270   1.500 -0.2323 -0.6077  0.5129
13980SOL     OW44831   8.694   6.825   1.885 -0.6232 -0.8333  0.0728
13980SOL    HW144832   8.652   6.755   1.934 -0.4192 -1.4871 -0.6766
13980SOL    HW244833   8.631   6.898   1.889  0.0700 -0.2838  2.6594
13981SOL     OW44834   0.630   9.177   8.677  0.3174 -0.7729 -0.5842
13981SOL    HW144835   0.584   9.245   8.629 -1.2813 -0.7922  0.8409
13981SOL    HW244836   0.582   9.168   8.759  0.7565 -3.2768 -0.5151
13982SOL     OW44837   0.382   3.385   5.918 -0.1852 -0.1430 -0.2906
13982SOL    HW144838   0.401   3.292   5.913  0.1976 -0.1725  1.3304
13982SOL    HW244839   0.291   3.392   5.891 -0.0459 -0.9005 -1.0019
13983SOL     OW44840   5.658   0.749   0.582  0.1626 -0.0653 -0.0739
13983SOL    HW144841   5.671   0.676   0.642  0.9064  0.4209  0.3780
13983SOL    HW244842   5.563   0.755   0.570  0.0851 -0.9393  0.0826
13984SOL     OW44843   1.263   4.233   5.610 -0.0838  0.0562 -0.4192
13984SOL    HW144844   1.174   4.263   5.593 -0.0364  0.1986 -0.4271
13984SOL    HW244845   1.318   4.299   5.567  0.0588  0.8756  0.9714
13985SOL     OW44846   2.607   3.018   4.887 -0.5455 -0.5601 -0.3326
13985SOL    HW144847   2.664   3.022   4.964  0.0774  2.4593 -0.8436
13985SOL    HW244848   2.519   3.034   4.922 -0.6641 -1.8078  0.0125
13986SOL     OW44849   1.092   0.207   0.207 -0.2686  0.2294 -0.0223
13986SOL    HW144850   1.074   0.212   0.113  0.4462 -2.7488 -0.4462
13986SOL    HW244851   1.008   0.186   0.247 -0.4838  1.0414 -0.0323
13987SOL     OW44852   8.386   1.338   8.881  0.2838 -0.3815  0.0120
13987SOL    HW144853   8.443   1.412   8.902 -1.2804  0.7106  0.5915
13987SOL    HW244854   8.444   1.274   8.840  1.8308  0.8459  0.1928
13988SOL     OW44855   0.351   8.236   1.429  0.4993  0.6294 -0.1874
13988SOL    HW144856   0.258   8.225   1.413  0.1962  2.0582  0.4856
13988SOL    HW244857   0.370   8.176   1.502  0.4035 -0.5949 -1.1297
13989SOL     OW44858   5.024   0.771   4.490 -0.2008  0.5781 -0.1391
13989SOL    HW144859   5.021   0.806   4.579  0.3016 -0.5412  0.3377
13989SOL    HW244860   5.048   0.846   4.435  0.7968  0.9978  0.8403
13990SOL     OW44861   3.525   5.368   3.271  0.0358  0.0726 -0.1916
13990SOL    HW144862   3.471   5.431   3.224 -2.8143 -1.7116  0.4616
13990SOL    HW244863   3.574   5.322   3.203 -1.4395 -0.1751 -1.1160
13991SOL     OW44864   1.023   9.084   4.648  0.1605  0.2950 -0.0795
13991SOL    HW144865   1.024   9.143   4.573  0.9733 -0.5502 -0.7589
13991SOL    HW244866   1.025   8.996   4.609  1.6589 -0.1506  0.9321
13992SOL     OW44867   0.679   2.722   6.929 -0.6503  0.0436  0.4008
13992SOL    HW144868   0.769   2.720   6.962 -0.8681  1.2237  1.1581
13992SOL    HW244869   0.641   2.638   6.953  0.5948 -0.9764 -1.0214
13993SOL     OW44870   3.414   4.326   6.266  0.0444  0.4981  0.1887
13993SOL    HW144871   3.368   4.401   6.305  1.2802  0.8624  1.0300
13993SOL    HW244872   3.405   4.257   6.331 -0.9452 -0.0525 -0.5113
13994SOL     OW44873   8.890   1.350   9.224 -0.1225 -0.3621  0.2441
13994SOL    HW144874   8.871   1.256   9.220 -2.9068  0.1342 -0.9664
13994SOL    HW244875   8.816   1.387   9.272  1.2897  1.1686  1.3351
13995SOL     OW44876   5.325   1.785   1.017 -0.3024  0.5433 -0.2796
13995SOL    HW144877   5.359   1.873   1.029  2.0796 -0.3095 -0.3668
13995SOL    HW244878   5.313   1.751   1.106  0.6016  0.3161 -0.2361
13996SOL     OW44879   9.133   7.352   1.225  0.5155  0.0235 -0.0180
13996SOL    HW144880   9.093   7.420   1.279 -2.4224  0.1699 -2.1654
13996SOL    HW244881   9.176   7.399   1.154 -0.0215 -0.3054 -0.5643
13997SOL     OW44882   8.906   4.119   1.857 -0.1149  0.5536 -0.1799
13997SOL    HW144883   8.833   4.136   1.917 -0.3352 -0.3456 -0.1869
13997SOL    HW244884   8.911   4.024   1.850  0.4826  0.6235 -0.8932
13998SOL     OW44885   2.426   0.740   0.388  0.1380 -0.5839  0.0753
13998SOL    HW144886   2.435   0.667   0.449  0.3315 -1.4897 -1.0232
13998SOL    HW244887   2.374   0.805   0.437  0.7187 -1.0624  1.3851
13999SOL     OW44888   3.396   8.957   9.260  0.2459 -0.3456 -0.2107
13999SOL    HW144889   3.458   9.009   9.311 -1.7912  1.5433  0.4461
13999SOL    HW244890   3.426   8.967   9.169  0.8869  0.5175  0.0830
14000SOL     OW44891   6.578   2.159   5.756 -0.3593 -1.0614  0.3267
14000SOL    HW144892   6.534   2.235   5.717 -0.8849 -1.4850  0.0919
14000SOL    HW244893   6.571   2.175   5.851 -3.3962 -2.3876  0.4355
14001SOL     OW44894   9.239   3.889   3.994 -0.6265  0.1231  0.1245
14001SOL    HW144895   9.212   3.922   4.079 -1.2944 -0.5341  0.1844
14001SOL    HW244896   9.197   3.947   3.931  1.1845  1.6043  0.2287
14002SOL     OW44897   7.713   1.379   8.420  0.4472  0.7268 -0.2834
14002SOL    HW144898   7.782   1.370   8.487 -1.1525  0.1033  1.3555
14002SOL    HW244899   7.712   1.295   8.375  0.6360  0.6855 -0.2139
14003SOL     OW44900   2.534   0.505   0.517 -0.7354  0.3297 -0.3524
14003SOL    HW144901   2.625   0.507   0.485 -0.3607 -0.5777  0.5981
14003SOL    HW244902   2.506   0.415   0.503 -1.0855  0.3087  0.4475
14004SOL     OW44903   0.806   0.295   8.790  0.0229  0.1596  0.8019
14004SOL    HW144904   0.833   0.204   8.781  0.2195  0.3197 -0.5657
14004SOL    HW244905   0.872   0.344   8.740 -0.4730  0.9776  0.9300
14005SOL     OW44906   6.372   0.185   6.746 -0.3142 -0.5138  0.7677
14005SOL    HW144907   6.372   0.093   6.773  0.9694 -0.7646 -0.0098
14005SOL    HW244908   6.442   0.191   6.681 -1.1149  0.7872 -0.0212
14006SOL     OW44909   8.067   3.763   4.857  0.4189 -0.2166 -0.3909
14006SOL    HW144910   8.155   3.800   4.855  0.1590  0.5798  1.4329
14006SOL    HW244911   8.077   3.677   4.816  1.7912  0.3234 -1.2737
14007SOL     OW44912   3.701   0.473   2.655 -0.0298 -0.1006  0.3012
14007SOL    HW144913   3.778   0.471   2.597 -0.1410  0.9389  0.0970
14007SOL    HW244914   3.669   0.563   2.648 -0.3744 -0.1184  1.5669
14008SOL     OW44915   8.234   6.031   5.037 -0.6992 -0.7333 -0.5455
14008SOL    HW144916   8.234   6.026   5.132 -0.5212 -0.3716 -0.5233
14008SOL    HW244917   8.160   6.087   5.016  0.6769  1.2099 -0.4827
14009SOL     OW44918   1.781   8.169   2.106  0.2884  0.0649 -0.1782
14009SOL    HW144919   1.823   8.246   2.145  0.2041  1.0496 -1.9336
14009SOL    HW244920   1.847   8.099   2.115  1.5576  1.0886 -1.1288
14010SOL     OW44921   3.871   2.370   6.625 -0.6641 -0.0215  0.3375
14010SOL    HW144922   3.782   2.335   6.627 -1.6712  2.0325 -2.1182
14010SOL    HW244923   3.917   2.314   6.563 -1.0989  0.5483 -0.5192
14011SOL     OW44924   6.457   3.162   4.061  0.0398 -0.0944 -0.4603
14011SOL    HW144925   6.367   3.131   4.054  0.2102 -0.4534 -1.1521
14011SOL    HW244926   6.462   3.203   4.147 -0.3860 -1.3615  0.1959
14012SOL     OW44927   2.239   4.146   4.973 -0.2147  0.2730  0.5812
14012SOL    HW144928   2.231   4.185   4.886  0.1655 -1.1642 -0.1195
14012SOL    HW244929   2.148   4.141   5.005 -0.2045  2.6881  1.1712
14013SOL     OW44930   0.161   5.538   7.062 -0.2982  0.4154  0.2472
14013SOL    HW144931   0.205   5.542   7.147 -0.0671 -3.0435  0.4351
14013SOL    HW244932   0.232   5.547   6.998 -0.2941  1.6543  0.4019
14014SOL     OW44933   3.560   6.805   4.667 -0.5147  0.0774 -0.5251
14014SOL    HW144934   3.558   6.831   4.575  1.2130 -0.2418 -0.6856
14014SOL    HW244935   3.528   6.882   4.715 -0.9380  0.4215 -1.3449
14015SOL     OW44936   5.988   3.320   6.172  0.1070  0.5110  0.1853
14015SOL    HW144937   6.001   3.255   6.241  0.3186  0.1090 -0.2284
14015SOL    HW244938   6.075   3.359   6.160  0.2763 -0.0327 -0.4524
14016SOL     OW44939   3.684   7.564   4.897  0.1047 -0.2784 -0.2794
14016SOL    HW144940   3.696   7.622   4.972  0.5736 -1.4079  0.5597
14016SOL    HW244941   3.633   7.491   4.932 -1.6530  0.2321 -1.6407
14017SOL     OW44942   3.227   1.604   0.878  0.0367  0.8371  0.2715
14017SOL    HW144943   3.226   1.678   0.818 -0.0992  1.1178  0.6163
14017SOL    HW244944   3.273   1.636   0.955 -2.1724  1.4011  1.4549
14018SOL     OW44945   1.488   9.154   1.491  0.1324  0.5278 -0.3349
14018SOL    HW144946   1.458   9.202   1.414 -1.2993 -0.1708 -0.2416
14018SOL    HW244947   1.499   9.064   1.460 -0.2499  0.2868  0.2103
14019SOL     OW44948   7.425   8.620   1.199  0.0574 -0.4244 -0.3895
14019SOL    HW144949   7.375   8.553   1.246 -0.1680  0.4596  0.6584
14019SOL    HW244950   7.469   8.671   1.267  1.0495 -0.1291 -1.2195
14020SOL     OW44951   2.026   9.090   3.626 -0.1145  0.0605  0.8940
14020SOL    HW144952   1.975   9.133   3.558 -1.1262 -2.3054  0.0265
14020SOL    HW244953   1.998   9.132   3.708  0.0188  1.9356  0.0208
14021SOL     OW44954   6.464   2.864   2.446  0.9462  0.1837  0.2972
14021SOL    HW144955   6.543   2.910   2.417  0.9056  0.4587  0.6185
14021SOL    HW244956   6.393   2.923   2.424  0.9638  0.6942  1.5533
14022SOL     OW44957   4.693   2.138   1.025  0.2025 -0.4213 -0.6474
14022SOL    HW144958   4.689   2.160   0.932  0.1859  0.1913 -0.5036
14022SOL    HW244959   4.766   2.190   1.059  0.5157 -1.0055 -0.4104
14023SOL     OW44960   0.178   5.116   5.614  0.1592 -0.1240 -0.8445
14023SOL    HW144961   0.245   5.167   5.659  1.1888 -1.8506 -0.3128
14023SOL    HW244962   0.223   5.080   5.538  0.0223 -1.6903 -0.2294
14024SOL     OW44963   6.939   4.043   3.144  0.3067  0.2571  0.2175
14024SOL    HW144964   6.999   4.055   3.070 -0.4704 -0.2301 -0.5203
14024SOL    HW244965   6.864   3.998   3.106  0.2052 -0.6803  1.4662
14025SOL     OW44966   1.460   8.279   7.875  0.3785 -0.5264  0.2052
14025SOL    HW144967   1.489   8.266   7.784  1.4811  0.8550  0.3320
14025SOL    HW244968   1.527   8.335   7.914 -0.9579  0.3124  1.3970
14026SOL     OW44969   0.832   3.049   1.198 -0.2979 -0.1107 -0.0055
14026SOL    HW144970   0.787   3.104   1.134 -1.1604  0.1949  0.8584
14026SOL    HW244971   0.763   3.015   1.254  0.3061 -1.4492 -0.0285
14027SOL     OW44972   7.841   0.262   0.477 -0.0499 -0.3229 -0.0040
14027SOL    HW144973   7.783   0.222   0.541 -0.8687 -1.4179 -1.3711
14027SOL    HW244974   7.785   0.320   0.427  0.8045  1.3638  0.9204
14028SOL     OW44975   4.594   3.778   7.891 -0.1015  0.7770  0.0595
14028SOL    HW144976   4.608   3.828   7.971  0.5675 -0.3323  0.6771
14028SOL    HW244977   4.515   3.727   7.907  0.2007  0.3257  0.1491
14029SOL     OW44978   1.527   1.470   3.373  0.4547 -0.1979 -0.3754
14029SOL    HW144979   1.581   1.475   3.295 -0.2787 -0.7062 -0.9353
14029SOL    HW244980   1.449   1.421   3.345  1.3139 -2.7242  1.3138
14030SOL     OW44981   4.419   7.805   0.427  0.0093  0.5830 -0.0249
14030SOL    HW144982   4.454   7.831   0.341 -0.8509 -0.1087 -0.5936
14030SOL    HW244983   4.354   7.872   0.447  1.4283  1.7546  0.9407
14031SOL     OW44984   8.140   3.880   6.084 -0.0938 -0.0058  0.0765
14031SOL    HW144985   8.161   3.863   5.992 -0.2853 -1.1714  0.2267
14031SOL    HW244986   8.046   3.862   6.091 -0.0318 -0.1590  0.5524
14032SOL     OW44987   4.359   6.748   8.564  0.1109  0.1374  0.5622
14032SOL    HW144988   4.449   6.735   8.593  1.2673  2.4654 -1.5259
14032SOL    HW244989   4.315   6.789   8.638  0.6777 -1.1791  1.6640
14033SOL     OW44990   7.806   7.216   3.235  0.2372 -0.4733  0.0044
14033SOL    HW144991   7.744   7.255   3.297 -0.9106  0.8538 -1.8851
14033SOL    HW244992   7.890   7.256   3.257 -0.0984 -0.2206  0.8580
14034SOL     OW44993   1.668   4.659   2.520 -0.2580 -0.1268  0.2805
14034SOL    HW144994   1.725   4.720   2.567  0.9835  1.2635 -2.7065
14034SOL    HW244995   1.712   4.574   2.528  0.3283  0.2338  0.9984
14035SOL     OW44996   6.635   4.438   3.068 -0.3613  0.1829 -0.2876
14035SOL    HW144997   6.552   4.479   3.047 -1.1393 -0.6747  0.9856
14035SOL    HW244998   6.616   4.344   3.066  1.2267 -0.1953 -2.5817
14036SOL     OW44999   3.941   8.820   0.942 -0.3401 -0.2246 -0.0033
14036SOL    HW145000   3.995   8.747   0.913 -0.8310 -0.8167  0.5419
14036SOL    HW245001   3.953   8.822   1.037 -0.8452 -0.0153  0.0609
14037SOL     OW45002   2.312   8.088   7.090  0.6205 -0.2406  0.2510
14037SOL    HW145003   2.259   8.021   7.045  1.7729  0.0967 -1.7481
14037SOL    HW245004   2.254   8.164   7.096 -0.1062 -0.8339  0.8872
14038SOL     OW45005   2.718   3.222   2.046  0.3808  0.3658 -0.0624
14038SOL    HW145006   2.726   3.278   2.123 -0.5681 -0.0313  0.3314
14038SOL    HW245007   2.626   3.227   2.021  0.2690 -1.0363  0.0016
14039SOL     OW45008   7.951   2.447   0.489 -0.4723  0.0083  0.3079
14039SOL    HW145009   7.866   2.409   0.468 -1.1195  2.1701 -1.3438
14039SOL    HW245010   8.002   2.438   0.409  0.9725 -1.3443  1.3043
14040SOL     OW45011   3.667   1.141   6.699 -0.5074  0.2183 -0.3684
14040SOL    HW145012   3.603   1.179   6.639 -2.0431 -2.1105 -0.3314
14040SOL    HW245013   3.631   1.159   6.786 -0.0593  0.6375 -0.2686
14041SOL     OW45014   8.187   4.586   5.932  0.2072  0.3601 -0.0553
14041SOL    HW145015   8.280   4.565   5.940  0.5165  1.0736 -1.4230
14041SOL    HW245016   8.160   4.610   6.020  1.1066 -0.6657  0.5258
14042SOL     OW45017   8.901   7.349   4.311 -0.0057  0.0271  0.0713
14042SOL    HW145018   8.878   7.343   4.404 -0.9681  0.1497 -0.1428
14042SOL    HW245019   8.950   7.269   4.293  0.3063  0.0661  0.7128
14043SOL     OW45020   4.640   4.389   7.707 -0.6572  0.0708 -0.2774
14043SOL    HW145021   4.625   4.446   7.782  0.0811  1.6977 -1.3078
14043SOL    HW245022   4.558   4.341   7.696 -0.5728 -0.6835  1.9109
14044SOL     OW45023   0.211   2.430   3.485 -0.1623  0.2168  0.2224
14044SOL    HW145024   0.144   2.477   3.435  0.6864  0.9194 -0.2751
14044SOL    HW245025   0.276   2.496   3.508 -0.2758 -0.1928  1.8601
14045SOL     OW45026   5.748   4.618   0.453  0.2316 -0.1921 -0.5834
14045SOL    HW145027   5.683   4.683   0.480 -0.1152 -0.2061 -1.3629
14045SOL    HW245028   5.740   4.547   0.516  1.3725  0.9700  0.9599
14046SOL     OW45029   8.771   2.107   6.611  0.0154  0.3395 -0.1836
14046SOL    HW145030   8.678   2.093   6.597  0.2823 -0.4617 -1.4234
14046SOL    HW245031   8.796   2.171   6.544  0.4653  0.0391 -0.3116
14047SOL     OW45032   8.148   7.081   4.531  0.3314 -0.1925  0.2677
14047SOL    HW145033   8.201   7.028   4.472 -0.1054 -1.1054  0.6785
14047SOL    HW245034   8.170   7.172   4.508  0.9125 -0.5411 -0.5998
14048SOL     OW45035   1.595   3.753   4.274 -0.0074  0.2060  0.4297
14048SOL    HW145036   1.654   3.751   4.350  0.4553 -0.6132  0.0661
14048SOL    HW245037   1.654   3.762   4.199 -0.2618 -1.4892 -0.0040
14049SOL     OW45038   7.014   3.812   7.024  0.1262  0.1663  0.6466
14049SOL    HW145039   6.988   3.789   7.114  0.1588  1.5755  1.0423
14049SOL    HW245040   6.949   3.770   6.969 -0.3878 -0.0252  1.3778
14050SOL     OW45041   4.038   8.644   3.150 -0.3198 -0.1761  0.3394
14050SOL    HW145042   4.042   8.672   3.059  0.8224  0.8425  0.6803
14050SOL    HW245043   4.067   8.553   3.149 -0.2085 -0.1393 -0.2952
14051SOL     OW45044   1.091   4.916   0.941 -0.3032  0.0377  0.0060
14051SOL    HW145045   1.172   4.967   0.930  0.8364 -1.9364 -1.3289
14051SOL    HW245046   1.059   4.902   0.852 -0.2904 -1.9495  0.2628
14052SOL     OW45047   1.629   3.101   8.041  0.2732  0.1066 -0.2138
14052SOL    HW145048   1.541   3.073   8.066  0.3337 -0.6983 -0.8521
14052SOL    HW245049   1.679   3.019   8.034  0.9069  0.5049 -0.4785
14053SOL     OW45050   3.482   2.754   5.159  0.5776  0.0988  0.1899
14053SOL    HW145051   3.496   2.761   5.065 -0.1522 -0.0572  0.0702
14053SOL    HW245052   3.505   2.664   5.180 -1.1684 -0.4635 -0.1784
14054SOL     OW45053   1.434   9.154   0.275  0.3524  0.1449 -0.4662
14054SOL    HW145054   1.374   9.172   0.347 -0.0456 -0.3931 -0.6577
14054SOL    HW245055   1.495   9.228   0.276 -0.1131  0.5328 -0.0656
14055SOL     OW45056   7.650   8.254   3.542 -0.7154 -0.5399  0.0049
14055SOL    HW145057   7.705   8.283   3.615  0.6907 -0.3220 -1.0972
14055SOL    HW245058   7.562   8.282   3.565  0.0987  1.8432  0.4233
14056SOL     OW45059   0.626   7.888   1.959 -0.1413  0.6493  0.1368
14056SOL    HW145060   0.534   7.912   1.963 -0.2476  0.1294  2.2942
14056SOL    HW245061   0.662   7.916   2.044  1.1461 -1.1840  0.2539
14057SOL     OW45062   6.622   4.363   7.909  0.7590  0.6154 -0.5937
14057SOL    HW145063   6.545   4.402   7.950  1.6290  1.6430  0.1174
14057SOL    HW245064   6.685   4.355   7.980  1.4779  0.2335 -1.2652
14058SOL     OW45065   5.937   5.025   8.959 -0.4777 -0.0935 -0.5326
14058SOL    HW145066   5.979   4.954   8.910  0.6954  1.0654 -1.2517
14058SOL    HW245067   5.916   5.091   8.893  1.6469  1.7697  0.5135
14059SOL     OW45068   0.187   6.122   4.422 -0.2608 -0.5017  0.0369
14059SOL    HW145069   0.093   6.128   4.405 -0.3376  0.4685  0.7584
14059SOL    HW245070   0.227   6.181   4.358 -0.0148 -1.9414 -1.1829
14060SOL     OW45071   6.273   1.546   6.311  0.4138  0.0295  0.5500
14060SOL    HW145072   6.219   1.469   6.291  0.7740  0.3614 -2.0770
14060SOL    HW245073   6.237   1.615   6.255  1.8151  1.0261  0.8391
14061SOL     OW45074   6.432   0.581   7.541 -0.1515  0.2980 -0.5256
14061SOL    HW145075   6.481   0.591   7.623  0.6746 -0.0544 -0.9629
14061SOL    HW245076   6.341   0.596   7.566  0.3491  3.1399 -0.0611
14062SOL     OW45077   9.083   7.862   4.309 -0.2557  0.7732 -0.3510
14062SOL    HW145078   9.090   7.800   4.237  0.1842  1.2626 -0.7350
14062SOL    HW245079   9.116   7.814   4.385  1.6767  1.0523 -0.9565
14063SOL     OW45080   4.098   8.884   9.111  0.1343 -0.0795  0.0720
14063SOL    HW145081   4.115   8.869   9.204  0.9138  2.2085  0.3425
14063SOL    HW245082   4.057   8.802   9.081  0.7228 -1.2168  2.1805
14064SOL     OW45083   6.548   6.504   1.802 -1.2376  0.1414 -0.0615
14064SOL    HW145084   6.539   6.451   1.882  0.0970  2.4193  1.7298
14064SOL    HW245085   6.473   6.564   1.805 -1.1928  0.2207 -0.5175
14065SOL     OW45086   0.925   6.955   1.892  0.1581  0.5258  0.4874
14065SOL    HW145087   1.001   6.940   1.836  0.3359 -1.1627  1.1049
14065SOL    HW245088   0.961   6.994   1.972  0.4804 -0.6375  0.9404
14066SOL     OW45089   3.834   6.594   4.702 -0.2664  0.2097 -0.6372
14066SOL    HW145090   3.852   6.574   4.794 -2.6394 -1.9845 -0.5384
14066SOL    HW245091   3.793   6.680   4.703  1.6678  1.1887  0.0479
14067SOL     OW45092   0.213   4.227   9.243 -0.4641  1.1116  0.0209
14067SOL    HW145093   0.212   4.179   9.325  2.3786  2.8046  1.2196
14067SOL    HW245094   0.122   4.248   9.226 -1.6000 -2.7142  0.4959
14068SOL     OW45095   8.275   0.604   3.371 -0.1482 -0.0842  0.0303
14068SOL    HW145096   8.317   0.597   3.285  0.7229  0.6237  0.3815
14068SOL    HW245097   8.252   0.697   3.379  0.7098  0.0663  0.9737
14069SOL     OW45098   0.207   5.078   3.927 -0.2705 -0.0191  0.1235
14069SOL    HW145099   0.180   5.101   3.838 -0.7160 -0.8276  0.0405
14069SOL    HW245100   0.142   5.015   3.956 -0.1800  0.3120  1.0673
14070SOL     OW45101   2.501   2.329   0.805 -0.8291  0.4195 -0.6702
14070SOL    HW145102   2.415   2.297   0.832 -1.4959 -0.0919 -3.1026
14070SOL    HW245103   2.492   2.424   0.802 -0.9642  0.4334  0.1332
14071SOL     OW45104   7.543   0.401   3.650  0.4027  0.1901 -0.4635
14071SOL    HW145105   7.522   0.328   3.708 -0.3544 -0.6793 -1.7704
14071SOL    HW245106   7.503   0.377   3.566  1.0854  1.6004 -1.2300
14072SOL     OW45107   7.170   4.378   4.778  0.1158 -0.2133 -0.0115
14072SOL    HW145108   7.145   4.416   4.694  1.7264  1.2804  0.1490
14072SOL    HW245109   7.196   4.288   4.756  1.5193  0.4712 -1.3032
14073SOL     OW45110   8.599   2.851   1.595  0.0123 -0.0153 -0.2111
14073SOL    HW145111   8.625   2.821   1.508  1.3524  2.4427 -0.7183
14073SOL    HW245112   8.667   2.913   1.621 -1.4233  0.8284  1.7544
14074SOL     OW45113   7.692   0.258   4.683 -0.1394  0.4977  0.2254
14074SOL    HW145114   7.606   0.298   4.677  0.2820  1.3272 -0.6837
14074SOL    HW245115   7.725   0.283   4.769 -1.1559 -0.5857  0.9487
14075SOL     OW45116   1.804   0.598   7.437  0.5335 -0.2265  0.0798
14075SOL    HW145117   1.817   0.512   7.397  0.5310 -0.6930  1.0681
14075SOL    HW245118   1.890   0.640   7.430  1.1081 -1.1131  1.4449
14076SOL     OW45119   0.955   0.861   3.758  0.2409 -0.5619 -0.4128
14076SOL    HW145120   1.010   0.910   3.819 -0.0869  1.0491 -1.3435
14076SOL    HW245121   0.997   0.875   3.673 -1.1806  0.1365 -1.0426
14077SOL     OW45122   5.219   8.711   4.689 -0.6886  0.3982 -0.4888
14077SOL    HW145123   5.256   8.795   4.718 -2.4646  0.5061  1.7164
14077SOL    HW245124   5.159   8.735   4.618 -0.5393  0.8746 -0.4570
14078SOL     OW45125   4.985   0.303   1.054 -0.3664 -0.3617  0.2638
14078SOL    HW145126   4.930   0.230   1.026  1.7588 -1.4502 -1.3884
14078SOL    HW245127   4.947   0.379   1.010  1.2621 -1.6077 -3.8514
14079SOL     OW45128   7.712   4.290   2.064  0.0106  0.1392 -0.1849
14079SOL    HW145129   7.786   4.297   2.004  0.4064 -0.4093  0.2288
14079SOL    HW245130   7.751   4.261   2.146 -0.7253 -0.6154 -0.0924
14080SOL     OW45131   2.556   2.750   0.901 -0.3729 -0.1712  0.0714
14080SOL    HW145132   2.637   2.746   0.851 -0.6388  2.1039 -0.6572
14080SOL    HW245133   2.546   2.843   0.924 -1.8988 -0.6563  1.6144
14081SOL     OW45134   2.587   3.989   7.691 -0.4557 -0.6014  0.3067
14081SOL    HW145135   2.539   3.915   7.654  1.0077 -0.2765 -2.5151
14081SOL    HW245136   2.519   4.051   7.717 -1.7339 -0.4127 -2.9602
14082SOL     OW45137   2.255   7.419   8.646 -0.0250 -0.3970  0.2039
14082SOL    HW145138   2.249   7.514   8.661 -0.2277 -0.2922 -0.5216
14082SOL    HW245139   2.168   7.394   8.617  0.7822 -0.2639 -2.5953
14083SOL     OW45140   3.844   7.544   1.791 -0.0984 -0.0340  0.0055
14083SOL    HW145141   3.835   7.450   1.809  0.0512 -0.1037 -0.2829
14083SOL    HW245142   3.881   7.548   1.703 -1.4179  0.3016 -0.5619
14084SOL     OW45143   2.933   5.539   1.054  0.6707 -0.3623  0.7481
14084SOL    HW145144   2.928   5.483   0.976  0.3926 -0.0881  0.5661
14084SOL    HW245145   2.983   5.616   1.025  0.4606 -0.2034  0.8048
14085SOL     OW45146   7.633   6.833   2.995 -0.5170  0.2845  0.1648
14085SOL    HW145147   7.650   6.824   3.089  1.5293  1.3158 -0.0341
14085SOL    HW245148   7.592   6.919   2.986  1.8163  1.4770 -0.0484
14086SOL     OW45149   0.194   0.258   0.198 -0.2851 -0.3311  0.5134
14086SOL    HW145150   0.127   0.221   0.256 -0.2681 -0.6166  0.3549
14086SOL    HW245151   0.168   0.349   0.186 -0.9154 -0.5602  0.0801
14087SOL     OW45152   5.128   0.358   8.695 -0.0601 -0.1347 -0.4182
14087SOL    HW145153   5.141   0.374   8.789 -0.4394 -1.0466 -0.1995
14087SOL    HW245154   5.140   0.444   8.655  1.7139 -0.0224  0.2761
14088SOL     OW45155   0.498   7.382   8.826 -0.5397 -0.0438  0.1268
14088SOL    HW145156   0.572   7.423   8.781 -0.1912 -0.3119  0.4477
14088SOL    HW245157   0.532   7.358   8.912 -1.2359  0.5998  0.6056
14089SOL     OW45158   8.741   7.117   5.176 -0.1429  0.7933 -0.2151
14089SOL    HW145159   8.668   7.065   5.211 -0.8981  2.5004  0.8783
14089SOL    HW245160   8.796   7.135   5.252  0.6984  0.7071 -0.7878
14090SOL     OW45161   5.997   9.202   3.968 -0.2333  0.4839 -0.0002
14090SOL    HW145162   6.002   9.254   3.888  0.2470  0.5810  0.0915
14090SOL    HW245163   6.048   9.251   4.032 -1.6494  1.0734  0.7389
14091SOL     OW45164   8.883   7.768   0.735 -0.6049  0.0686 -0.2443
14091SOL    HW145165   8.938   7.798   0.807  0.1907 -2.2389  0.1914
14091SOL    HW245166   8.945   7.730   0.672 -1.4993 -0.0842 -1.0557
14092SOL     OW45167   1.657   0.422   5.864  0.2324 -0.9582  0.1600
14092SOL    HW145168   1.579   0.464   5.828  1.5488  0.2641 -1.5073
14092SOL    HW245169   1.653   0.440   5.958 -0.9024  0.1268 -0.0641
14093SOL     OW45170   4.940   3.985   3.092 -0.2345  0.1148 -0.3074
14093SOL    HW145171   4.938   3.952   3.002  0.9498  0.7439 -0.5852
14093SOL    HW245172   4.936   4.080   3.082  1.0002  0.2396  0.2269
14094SOL     OW45173   6.411   6.345   0.537 -0.3672  0.0702 -0.1168
14094SOL    HW145174   6.362   6.290   0.476 -0.8500  0.4292 -0.0622
14094SOL    HW245175   6.380   6.317   0.624 -0.0209 -0.1231 -0.0531
14095SOL     OW45176   1.144   1.929   6.678 -0.5515 -0.2646  0.1512
14095SOL    HW145177   1.199   1.998   6.641 -1.2011  0.4804  0.5492
14095SOL    HW245178   1.172   1.850   6.633  2.2351 -0.2890  1.7220
14096SOL     OW45179   4.339   7.289   6.473  0.1548  0.0143  0.6872
14096SOL    HW145180   4.247   7.265   6.484 -0.0847  0.4884 -0.1959
14096SOL    HW245181   4.385   7.206   6.462 -0.4269 -0.1435 -0.6405
14097SOL     OW45182   0.545   9.089   4.637 -0.3194  0.4217  0.2036
14097SOL    HW145183   0.575   9.034   4.709  0.5220 -0.5775 -0.8655
14097SOL    HW245184   0.477   9.038   4.594 -0.8852  1.0501  0.3397
14098SOL     OW45185   8.266   2.001   1.769  0.1699  0.2931  0.5080
14098SOL    HW145186   8.253   1.982   1.862 -1.4809 -1.9414 -0.0922
14098SOL    HW245187   8.198   2.065   1.748  1.3736  1.8351  1.0390
14099SOL     OW45188   8.580   6.288   0.683 -0.4645 -0.2493 -0.1620
14099SOL    HW145189   8.666   6.268   0.647 -0.1720  0.9585 -0.1738
14099SOL    HW245190   8.545   6.203   0.711  1.6837 -0.5549  1.9583
14100SOL     OW45191   5.003   3.221   3.554  0.1480  0.1126 -0.2273
14100SOL    HW145192   4.970   3.163   3.485  2.7067 -0.6558 -0.9316
14100SOL    HW245193   4.925   3.249   3.602 -1.5332 -0.8897 -2.2204
14101SOL     OW45194   3.864   4.048   2.402  0.0046 -0.4741 -0.1279
14101SOL    HW145195   3.814   4.060   2.482 -0.5280  0.5363 -0.5954
14101SOL    HW245196   3.924   3.977   2.422 -1.7361 -1.8763  0.3868
14102SOL     OW45197   2.532   0.410   7.045  0.4846  0.1719  0.1054
14102SOL    HW145198   2.454   0.441   6.999  0.6949  0.7240  0.1136
14102SOL    HW245199   2.581   0.361   6.979  1.3597  1.9315 -0.6272
14103SOL     OW45200   4.666   5.812   8.295 -0.3075  0.2191 -0.0361
14103SOL    HW145201   4.750   5.855   8.279  0.4467 -1.3139 -0.3897
14103SOL    HW245202   4.646   5.832   8.387  1.1001 -0.4563  0.4428
14104SOL     OW45203   0.378   3.591   0.334  0.6018 -0.1692  0.4793
14104SOL    HW145204   0.409   3.526   0.271 -1.9332 -0.1986 -0.8768
14104SOL    HW245205   0.367   3.542   0.415 -1.5840 -1.6256 -0.6028
14105SOL     OW45206   1.786   2.060   4.675  0.2026  0.5734  0.1174
14105SOL    HW145207   1.841   2.016   4.741  0.3239  0.3374 -0.1364
14105SOL    HW245208   1.715   1.997   4.658  1.4431 -0.4325 -1.7061
14106SOL     OW45209   6.582   5.844   1.491 -0.4198 -0.3876 -0.4967
14106SOL    HW145210   6.553   5.804   1.409 -0.8879 -0.9262 -0.0725
14106SOL    HW245211   6.658   5.897   1.466 -0.4890 -0.6369 -1.2575
14107SOL     OW45212   2.449   5.509   9.009  0.1091 -0.1808  0.1542
14107SOL    HW145213   2.360   5.520   8.977 -0.1879  0.8690  1.2512
14107SOL    HW245214   2.505   5.545   8.940 -0.5265  2.3344  0.8764
14108SOL     OW45215   7.840   2.114   1.984  0.5603  0.2927 -0.3067
14108SOL    HW145216   7.929   2.098   2.017  0.9499  0.6689 -1.1504
14108SOL    HW245217   7.821   2.204   2.011 -0.7345 -0.6779  2.4267
14109SOL     OW45218   5.483   6.960   4.864  0.0283  0.5062 -0.6584
14109SOL    HW145219   5.530   7.006   4.934 -1.2699  1.9307 -0.6694
14109SOL    HW245220   5.422   7.025   4.830 -1.7571 -1.1714 -0.8220
14110SOL     OW45221   6.056   8.680   4.529 -0.3207 -0.5181  0.0228
14110SOL    HW145222   6.082   8.763   4.490 -1.0852 -0.4548 -0.3575
14110SOL    HW245223   6.006   8.705   4.607  0.0135 -0.6359  0.2815
14111SOL     OW45224   7.937   8.844   8.641 -0.2499 -0.3622 -0.3542
14111SOL    HW145225   7.965   8.882   8.724 -3.2997  0.7564  0.2824
14111SOL    HW245226   7.915   8.753   8.662  2.2617 -1.1428 -0.7843
14112SOL     OW45227   3.017   8.976   7.433 -0.3890 -0.6488  0.6336
14112SOL    HW145228   3.049   9.057   7.394 -0.4600 -0.5989  0.6765
14112SOL    HW245229   3.022   8.992   7.528  1.9125 -1.5876  0.7105
14113SOL     OW45230   9.203   6.379   6.268  0.1531 -0.5849  0.4518
14113SOL    HW145231   9.120   6.354   6.226 -0.7348 -0.8810  2.3113
14113SOL    HW245232   9.220   6.467   6.235 -1.3691 -0.1650  0.6865
14114SOL     OW45233   1.541   8.088   3.116  0.1518  0.2037 -0.0790
14114SOL    HW145234   1.545   8.058   3.206 -1.3082 -0.4694 -0.2182
14114SOL    HW245235   1.572   8.013   3.064  0.5065  0.4140 -0.1785
14115SOL     OW45236   5.988   5.459   4.513 -0.4150 -0.3144  0.3365
14115SOL    HW145237   5.969   5.539   4.465  1.9992  0.0871 -0.0537
14115SOL    HW245238   5.993   5.391   4.446  1.9923  0.0744  0.0363
14116SOL     OW45239   4.048   7.659   1.535 -0.2065 -0.5743 -0.4368
14116SOL    HW145240   4.091   7.576   1.558 -2.9795 -1.6889  1.1890
14116SOL    HW245241   4.113   7.726   1.556  1.2565 -2.1960  0.5265
14117SOL     OW45242   5.031   3.666   8.198  0.3530  0.6183  0.3456
14117SOL    HW145243   5.038   3.757   8.167 -0.0805  0.7387  0.6110
14117SOL    HW245244   4.976   3.670   8.275 -0.4142  0.0071 -0.1538
14118SOL     OW45245   7.968   8.239   1.621  0.2042 -0.3494  1.1680
14118SOL    HW145246   7.955   8.229   1.527 -0.6477 -4.0284  1.5141
14118SOL    HW245247   7.896   8.294   1.650 -0.1979 -0.1274 -0.1949
14119SOL     OW45248   8.396   1.139   2.482 -0.5130  0.0738  0.0933
14119SOL    HW145249   8.335   1.126   2.554  0.5039 -0.8788  0.8140
14119SOL    HW245250   8.371   1.223   2.444 -2.3645 -0.3584  0.2515
14120SOL     OW45251   0.830   5.314   5.161  0.5566  0.3026 -0.6039
14120SOL    HW145252   0.833   5.233   5.110 -0.9379 -0.5888  0.6402
14120SOL    HW245253   0.768   5.296   5.232  1.1820  2.1083  0.4731
14121SOL     OW45254   2.445   4.932   8.883 -0.2050  0.1742  0.4222
14121SOL    HW145255   2.430   4.845   8.920  2.3063 -1.1464 -1.3091
14121SOL    HW245256   2.494   4.979   8.950  0.1207 -0.4700  0.6471
14122SOL     OW45257   5.792   3.060   7.114  0.5923 -0.3972  0.0214
14122SOL    HW145258   5.853   3.038   7.185  1.8423  0.5323 -0.7263
14122SOL    HW245259   5.822   3.008   7.040  0.2466 -0.2119 -0.2472
14123SOL     OW45260   6.775   0.745   4.836 -0.2348 -0.3822  0.2603
14123SOL    HW145261   6.849   0.799   4.809 -0.6376 -0.4229 -0.9971
14123SOL    HW245262   6.798   0.713   4.923  0.8562  0.2612  0.2143
14124SOL     OW45263   2.167   5.259   6.120 -0.3383  0.2349  0.0374
14124SOL    HW145264   2.168   5.316   6.197 -1.9580  0.1321  0.1717
14124SOL    HW245265   2.142   5.173   6.154  0.9702 -0.3077 -0.3263
14125SOL     OW45266   5.813   4.478   7.999 -0.2073 -0.4007  0.1997
14125SOL    HW145267   5.767   4.478   8.084  0.6568 -1.3557  0.6965
14125SOL    HW245268   5.886   4.417   8.012 -1.4064 -2.4667 -1.9483
14126SOL     OW45269   1.719   0.846   5.261 -0.1612  0.2052 -0.1561
14126SOL    HW145270   1.645   0.798   5.223  1.1626 -1.0285 -1.2771
14126SOL    HW245271   1.720   0.819   5.353 -0.2353 -0.8947 -0.4689
14127SOL     OW45272   5.653   4.350   9.017  0.0375  0.1607 -0.2373
14127SOL    HW145273   5.622   4.319   8.932  2.2749  2.6660 -2.1346
14127SOL    HW245274   5.588   4.415   9.043 -1.2995 -1.4455  0.6857
14128SOL     OW45275   9.176   2.470   2.335 -0.0729  0.6212  0.0846
14128SOL    HW145276   9.093   2.450   2.379 -0.4379 -0.3028 -0.9696
14128SOL    HW245277   9.228   2.390   2.346  0.7338  1.2438  0.8443
14129SOL     OW45278   1.153   6.933   0.673 -0.3901 -0.2098 -0.1678
14129SOL    HW145279   1.097   6.983   0.613  0.3399 -0.0408 -0.7345
14129SOL    HW245280   1.214   6.888   0.615  0.7767  0.5015  0.4758
14130SOL     OW45281   0.254   0.192   7.090  0.6020 -0.1730  0.4512
14130SOL    HW145282   0.321   0.259   7.079  0.1688  0.4346  1.3637
14130SOL    HW245283   0.252   0.146   7.006  1.9870 -0.0559  0.3317
14131SOL     OW45284   1.487   5.511   3.725  0.4786 -0.6845  0.1841
14131SOL    HW145285   1.416   5.518   3.789  1.0120 -0.5225  0.7612
14131SOL    HW245286   1.442   5.495   3.642 -0.1585 -2.2216  0.7885
14132SOL     OW45287   9.226   1.735   3.179  0.0352  0.8726  0.1574
14132SOL    HW145288   9.287   1.672   3.142 -1.0372 -1.0739  1.5112
14132SOL    HW245289   9.248   1.818   3.136 -0.1773 -0.8425 -3.6579
14133SOL     OW45290   2.862   3.009   3.590  0.5138  0.0454  0.1453
14133SOL    HW145291   2.931   2.947   3.613  0.8794  0.9051  1.4421
14133SOL    HW245292   2.902   3.095   3.601 -0.2844  0.5452 -0.6861
14134SOL     OW45293   3.672   8.018   4.440  0.4360  0.5341  0.4969
14134SOL    HW145294   3.671   8.027   4.535  0.3991  2.1220  0.3718
14134SOL    HW245295   3.581   8.026   4.414  0.4126 -0.1865  0.3395
14135SOL     OW45296   8.317   8.906   1.699 -0.2645 -0.1320  0.5141
14135SOL    HW145297   8.345   8.817   1.675 -0.8329 -0.0077 -0.7184
14135SOL    HW245298   8.351   8.961   1.628 -1.8283  0.2956  0.0543
14136SOL     OW45299   6.701   3.347   1.186 -0.1441  0.1689  0.4265
14136SOL    HW145300   6.661   3.312   1.265 -2.0626  3.0285  0.8422
14136SOL    HW245301   6.657   3.300   1.115 -0.1414 -0.7035  0.9830
14137SOL     OW45302   2.315   1.429   3.372 -1.0677  0.3665 -0.0405
14137SOL    HW145303   2.305   1.480   3.453 -4.2990 -0.1084  0.0023
14137SOL    HW245304   2.307   1.338   3.401 -1.8619  0.1774 -0.8129
14138SOL     OW45305   5.299   6.873   4.515  0.3792 -0.0913  0.0188
14138SOL    HW145306   5.243   6.798   4.534  0.8482 -0.4789 -0.1492
14138SOL    HW245307   5.258   6.915   4.440  1.5364 -1.6520 -1.5592
14139SOL     OW45308   5.872   2.917   6.458 -0.0741  0.4355  0.3918
14139SOL    HW145309   5.779   2.925   6.437 -0.3386 -1.2653  0.7654
14139SOL    HW245310   5.875   2.857   6.533  1.4259 -1.6014 -1.1741
14140SOL     OW45311   0.739   8.796   3.065  0.2376  0.3434 -0.2648
14140SOL    HW145312   0.669   8.837   3.115 -0.2036 -0.6079 -0.0961
14140SOL    HW245313   0.700   8.717   3.027  0.9434  0.3151 -0.9765
14141SOL     OW45314   2.071   8.767   8.401  0.2136  0.4029 -0.4980
14141SOL    HW145315   2.155   8.813   8.393  0.7576 -0.1620  1.3277
14141SOL    HW245316   2.008   8.835   8.425  0.3849  0.6676 -0.8027
14142SOL     OW45317   7.404   5.674   7.182  0.1000  0.1303  0.2814
14142SOL    HW145318   7.371   5.586   7.199 -0.2664  0.0092 -0.9314
14142SOL    HW245319   7.383   5.724   7.260 -0.1349 -0.7383  0.7808
14143SOL     OW45320   0.706   0.104   2.870  0.2710  0.6284  0.3364
14143SOL    HW145321   0.637   0.155   2.912 -0.2136  1.1618 -1.0572
14143SOL    HW245322   0.693   0.118   2.776  0.1680 -1.9934 -0.1096
14144SOL     OW45323   4.124   6.112   3.761  0.2266  0.7929  0.1275
14144SOL    HW145324   4.166   6.193   3.731  0.0661  0.3607 -1.3278
14144SOL    HW245325   4.192   6.045   3.750 -0.6747  0.1467 -1.9476
14145SOL     OW45326   7.368   4.314   2.547 -0.6556 -0.2200 -0.7531
14145SOL    HW145327   7.369   4.283   2.637  1.2185  0.2662 -0.5647
14145SOL    HW245328   7.458   4.341   2.530 -1.1370  0.4016 -2.5343
14146SOL     OW45329   5.054   3.887   2.149  0.3206  0.8864 -0.5939
14146SOL    HW145330   5.065   3.792   2.143  1.9779  1.1005 -1.6447
14146SOL    HW245331   4.966   3.899   2.186  0.1326 -1.0402 -0.3163
14147SOL     OW45332   0.278   7.736   6.108  0.6468  0.0168 -0.1788
14147SOL    HW145333   0.248   7.736   6.199  0.2194 -3.0928 -0.1966
14147SOL    HW245334   0.201   7.758   6.057  0.1657 -0.8533  0.1401
14148SOL     OW45335   7.641   7.440   3.312 -0.8096  0.0178 -0.0380
14148SOL    HW145336   7.688   7.518   3.340  0.8769 -0.9117 -0.1154
14148SOL    HW245337   7.622   7.455   3.220 -0.2781  0.2462 -0.1155
14149SOL     OW45338   8.355   0.924   1.022 -0.8426  0.4075 -0.2115
14149SOL    HW145339   8.295   0.987   0.983 -0.5359 -0.4579 -2.1896
14149SOL    HW245340   8.358   0.851   0.960  1.7268  0.1340  0.0948
14150SOL     OW45341   7.312   2.682   3.075 -0.5729  0.2065 -0.7520
14150SOL    HW145342   7.406   2.668   3.083 -0.6256  0.4269  0.3528
14150SOL    HW245343   7.277   2.666   3.163 -1.8369 -1.7577 -1.5163
14151SOL     OW45344   4.626   8.015   2.617 -0.2914 -0.1554 -0.2040
14151SOL    HW145345   4.691   8.037   2.551 -0.1892 -0.3127 -0.1556
14151SOL    HW245346   4.673   7.962   2.681 -0.6656 -1.0089 -0.6163
14152SOL     OW45347   0.183   7.362   6.639  0.2904 -0.2792 -0.2537
14152SOL    HW145348   0.257   7.309   6.610 -0.7698 -2.1484  0.2673
14152SOL    HW245349   0.221   7.426   6.699  1.2901 -2.5968  1.7848
14153SOL     OW45350   0.922   0.712   4.271 -0.7284 -0.0487 -0.2978
14153SOL    HW145351   0.922   0.620   4.297 -0.8807 -0.6650 -2.2803
14153SOL    HW245352   0.998   0.721   4.214 -0.6051  1.1149  0.0105
14154SOL     OW45353   0.621   1.935   0.147  0.7059  0.5637 -0.8000
14154SOL    HW145354   0.578   1.859   0.186  0.2443  0.9979 -0.4558
14154SOL    HW245355   0.554   2.003   0.145  1.3184  1.2039 -0.4000
14155SOL     OW45356   9.185   5.476   6.946  0.4615 -0.1584 -0.0034
14155SOL    HW145357   9.203   5.398   6.894 -0.1180 -1.7125  1.9955
14155SOL    HW245358   9.270   5.499   6.985  0.0868 -1.8620  2.0130
14156SOL     OW45359   4.004   4.451   4.573  0.4735 -0.0713 -0.2653
14156SOL    HW145360   3.989   4.378   4.513  0.2809  0.8301 -1.3451
14156SOL    HW245361   4.086   4.491   4.543 -0.7406  1.7325 -1.3907
14157SOL     OW45362   2.495   8.224   3.457  0.4326  0.0940  0.1941
14157SOL    HW145363   2.566   8.159   3.449  0.1293 -0.1159 -1.0152
14157SOL    HW245364   2.527   8.300   3.408  0.6951  0.7979  1.4236
14158SOL     OW45365   1.753   4.246   1.609  0.0641  0.0624 -0.1479
14158SOL    HW145366   1.805   4.166   1.614 -0.3513 -0.2023  0.0189
14158SOL    HW245367   1.800   4.310   1.663 -0.2030 -0.4133  0.6585
14159SOL     OW45368   8.006   2.451   7.889  0.3228 -0.3936  0.1526
14159SOL    HW145369   7.959   2.442   7.972 -1.0749  0.9965 -0.4387
14159SOL    HW245370   8.052   2.535   7.896 -0.7714  0.3249 -0.8976
14160SOL     OW45371   6.442   0.091   4.546  0.0962 -0.1193  0.1641
14160SOL    HW145372   6.357   0.076   4.589 -0.4941 -0.4412 -1.0907
14160SOL    HW245373   6.465   0.007   4.509  0.0613  0.4086 -1.0910
14161SOL     OW45374   1.134   3.459   6.815  0.0468  0.1027  0.5860
14161SOL    HW145375   1.144   3.364   6.817 -0.6133 -0.0022 -0.3287
14161SOL    HW245376   1.169   3.489   6.899  1.1675 -0.8538  0.4871
14162SOL     OW45377   4.153   5.417   0.443 -0.0896  0.1925  0.2774
14162SOL    HW145378   4.091   5.345   0.431  0.3801 -0.6174  2.2390
14162SOL    HW245379   4.098   5.494   0.454 -0.6056  0.1667 -1.7318
14163SOL     OW45380   4.298   2.349   1.137  0.4231  0.1619  0.2080
14163SOL    HW145381   4.312   2.393   1.221 -0.4020 -0.9639  0.9581
14163SOL    HW245382   4.207   2.368   1.114  0.2434 -0.6360  0.2422
14164SOL     OW45383   5.783   8.858   3.034  0.3353 -0.1035  0.4952
14164SOL    HW145384   5.811   8.843   3.124 -0.4649  0.5671  0.8668
14164SOL    HW245385   5.688   8.847   3.036  0.3921 -0.8490 -0.4276
14165SOL     OW45386   0.116   0.197   7.315 -0.0226 -0.3063  0.3921
14165SOL    HW145387   0.146   0.158   7.233 -0.4902 -1.7301  0.8734
14165SOL    HW245388   0.173   0.273   7.328 -0.3587  0.3392 -1.5738
14166SOL     OW45389   7.133   8.625   5.489 -0.0773 -0.0152 -0.1467
14166SOL    HW145390   7.179   8.565   5.546 -0.5922 -0.1966  0.0883
14166SOL    HW245391   7.193   8.698   5.476  0.3767 -0.3774 -0.0754
14167SOL     OW45392   3.765   7.410   7.270  0.3057  0.2007 -0.4821
14167SOL    HW145393   3.815   7.491   7.262  1.2941 -0.4510 -1.1904
14167SOL    HW245394   3.760   7.376   7.181 -1.8452  0.4641 -0.5224
14168SOL     OW45395   2.494   7.609   6.705  0.5113 -0.0118  0.4629
14168SOL    HW145396   2.584   7.638   6.719  0.4219  1.2902 -1.3658
14168SOL    HW245397   2.442   7.663   6.764  0.7436  0.5772  0.1301
14169SOL     OW45398   3.430   8.759   5.701  0.3977  0.6554 -0.0020
14169SOL    HW145399   3.482   8.743   5.622  0.7046  0.7304  0.1825
14169SOL    HW245400   3.379   8.679   5.712  1.8137 -0.1736  0.8308
14170SOL     OW45401   6.720   7.614   3.797  0.4245 -0.3595 -0.1222
14170SOL    HW145402   6.669   7.626   3.877 -0.6908 -1.3014 -0.6628
14170SOL    HW245403   6.700   7.691   3.743  0.8529  0.0685  0.3252
14171SOL     OW45404   5.561   0.913   4.190 -0.4038 -0.2726  0.0115
14171SOL    HW145405   5.473   0.898   4.226 -0.5358 -1.8387 -0.8611
14171SOL    HW245406   5.567   1.008   4.179 -2.1735 -0.1604 -0.3296
14172SOL     OW45407   9.121   6.173   4.026  0.0059 -0.0117  0.1475
14172SOL    HW145408   9.120   6.257   4.072 -0.6118 -0.8933  1.8498
14172SOL    HW245409   9.056   6.182   3.957  1.3950  1.5738 -1.0324
14173SOL     OW45410   5.361   1.773   3.672 -0.2154  0.4356  0.2695
14173SOL    HW145411   5.275   1.777   3.631 -0.1240 -0.0479  0.0256
14173SOL    HW245412   5.402   1.695   3.635  0.3031  0.6238  0.4348
14174SOL     OW45413   7.931   2.308   7.661 -0.5979  0.7758  0.2082
14174SOL    HW145414   8.015   2.317   7.616 -0.3294  0.3878  0.6216
14174SOL    HW245415   7.936   2.369   7.734 -0.3440  0.1708  0.7092
14175SOL     OW45416   6.241   5.271   4.722 -0.0746  0.0430  0.0351
14175SOL    HW145417   6.279   5.185   4.741 -0.2048 -0.0830 -0.2719
14175SOL    HW245418   6.176   5.284   4.790 -0.7248 -0.5226 -0.4678
14176SOL     OW45419   6.362   7.056   2.481 -0.0352  0.2035  0.2270
14176SOL    HW145420   6.323   6.969   2.493  0.8215 -0.3481 -0.8114
14176SOL    HW245421   6.333   7.106   2.557  0.0818 -1.2200  1.2398
14177SOL     OW45422   1.858   8.605   2.825  0.5789 -0.1844  0.1745
14177SOL    HW145423   1.841   8.684   2.773 -2.4977 -0.5184  0.4825
14177SOL    HW245424   1.810   8.620   2.907 -0.1828 -2.4094  0.1899
14178SOL     OW45425   7.320   2.292   9.234  0.0237  0.4400 -0.1734
14178SOL    HW145426   7.236   2.334   9.249 -0.4072 -0.0104 -1.1763
14178SOL    HW245427   7.383   2.363   9.235 -0.4336  0.8436  0.1477
14179SOL     OW45428   4.111   3.296   7.772  0.0798  0.2529 -0.0349
14179SOL    HW145429   4.159   3.304   7.854 -1.1573  0.9763  0.6336
14179SOL    HW245430   4.104   3.386   7.739 -0.1857  0.0687 -0.4898
14180SOL     OW45431   6.740   3.939   5.804  0.0271  0.1501  0.3030
14180SOL    HW145432   6.800   3.884   5.855  2.1250  0.7308 -1.4149
14180SOL    HW245433   6.653   3.914   5.835  1.0036 -2.4984  1.1880
14181SOL     OW45434   8.735   2.972   1.075 -0.1859  0.1853 -0.1858
14181SOL    HW145435   8.824   2.986   1.108  0.4806  0.2700 -1.9519
14181SOL    HW245436   8.702   3.060   1.058 -0.0939  0.0942 -0.8370
14182SOL     OW45437   2.679   3.960   1.286  0.3322  0.0197  0.3269
14182SOL    HW145438   2.586   3.979   1.276  0.2247 -1.1315 -1.3008
14182SOL    HW245439   2.719   3.994   1.206  1.0780 -0.7818  0.3406
14183SOL     OW45440   3.041   3.006   2.275  0.3193 -0.2471  0.3792
14183SOL    HW145441   3.030   3.098   2.300  0.1679 -0.2302  0.2532
14183SOL    HW245442   3.011   3.003   2.184  1.0277 -0.2709  0.1362
14184SOL     OW45443   7.827   5.990   0.988 -0.1441  0.0107  0.4006
14184SOL    HW145444   7.783   6.022   0.910 -0.3744 -2.0483 -0.3840
14184SOL    HW245445   7.915   5.966   0.958 -0.4313 -1.3696  0.5807
14185SOL     OW45446   3.135   4.238   9.157  0.4922  0.3792  0.2563
14185SOL    HW145447   3.216   4.264   9.114  0.8491  0.0836  0.7301
14185SOL    HW245448   3.077   4.313   9.148  0.6539  0.4201 -0.4930
14186SOL     OW45449   5.288   6.501   9.207 -0.6605 -0.3450 -0.2018
14186SOL    HW145450   5.224   6.573   9.201  0.0344  0.2578 -0.5784
14186SOL    HW245451   5.368   6.543   9.237 -0.5504 -1.1764  0.6819
14187SOL     OW45452   4.662   1.048   2.605  0.1957 -0.4430 -0.5618
14187SOL    HW145453   4.710   1.128   2.585 -0.9905 -0.3621 -3.6887
14187SOL    HW245454   4.691   0.984   2.539 -0.2138 -2.0150  0.7084
14188SOL     OW45455   2.788   0.252   6.587  0.3535  0.2823 -0.1828
14188SOL    HW145456   2.882   0.261   6.598  0.5071  1.1098 -1.8528
14188SOL    HW245457   2.777   0.163   6.553  0.8503  1.0186 -2.4655
14189SOL     OW45458   7.752   4.591   2.137 -0.3736 -0.7780 -0.0463
14189SOL    HW145459   7.840   4.555   2.129 -0.2516 -0.5197  0.1261
14189SOL    HW245460   7.715   4.585   2.049  0.3625  0.5222 -0.4717
14190SOL     OW45461   0.458   1.925   8.497 -0.5296 -0.5595 -0.2946
14190SOL    HW145462   0.422   1.968   8.574  0.2259  0.4560 -0.4915
14190SOL    HW245463   0.382   1.905   8.442 -0.8541  1.0929 -0.4804
14191SOL     OW45464   3.557   5.027   7.433  0.6424  0.5186  0.5443
14191SOL    HW145465   3.484   5.041   7.494 -0.1113  1.4803 -0.5167
14191SOL    HW245466   3.535   4.946   7.387  0.1178  0.9038  0.0951
14192SOL     OW45467   4.672   2.168   1.920  0.2677 -0.0496 -0.8337
14192SOL    HW145468   4.681   2.229   1.847 -0.9204 -0.8851 -1.7198
14192SOL    HW245469   4.660   2.224   1.997 -2.1593  0.9061 -1.7909
14193SOL     OW45470   2.758   8.969   8.588 -0.1567  0.3282  0.2888
14193SOL    HW145471   2.775   8.875   8.593  0.7946  0.5481  1.6110
14193SOL    HW245472   2.687   8.984   8.650 -1.0176  0.3573 -0.6696
14194SOL     OW45473   0.925   4.771   2.191  0.2817  0.1315  0.3385
14194SOL    HW145474   0.901   4.864   2.190  0.5430  0.2195 -1.4546
14194SOL    HW245475   0.872   4.733   2.261 -0.8449  1.3776  0.1973
14195SOL     OW45476   8.479   7.245   6.366 -0.0332  0.0631  0.2055
14195SOL    HW145477   8.493   7.296   6.286 -0.3863 -0.6861 -0.3510
14195SOL    HW245478   8.550   7.181   6.366 -0.8888 -0.9231 -0.3313
14196SOL     OW45479   0.282   5.049   0.754 -0.3649  0.1327 -0.0836
14196SOL    HW145480   0.316   5.034   0.666  2.6147  1.0901  0.7961
14196SOL    HW245481   0.340   4.999   0.811 -1.9854 -0.1403  1.4066
14197SOL     OW45482   2.259   8.339   2.955  0.1137 -0.2705  1.1488
14197SOL    HW145483   2.175   8.294   2.959  0.7639 -1.4233  2.5390
14197SOL    HW245484   2.316   8.280   2.906 -0.0639  0.8899 -0.5443
14198SOL     OW45485   1.745   7.272   0.114  0.2384 -0.0743  0.1715
14198SOL    HW145486   1.837   7.247   0.124  0.1688 -0.2220  0.4710
14198SOL    HW245487   1.719   7.237   0.029  0.7271  0.8188 -0.3568
14199SOL     OW45488   3.436   6.936   1.850 -0.0898 -0.4354  0.1667
14199SOL    HW145489   3.375   6.889   1.792  0.9117 -1.0728 -0.3884
14199SOL    HW245490   3.383   6.958   1.927 -0.7078 -2.1459  0.2805
14200SOL     OW45491   0.315   1.452   2.815  0.6722 -0.2722 -0.5691
14200SOL    HW145492   0.294   1.431   2.906  0.4466 -0.2429 -0.6129
14200SOL    HW245493   0.407   1.477   2.817  0.7120 -0.4294 -0.3755
14201SOL     OW45494   7.898   7.613   1.260  0.0494  0.5917 -0.1996
14201SOL    HW145495   7.942   7.528   1.265 -2.1100 -0.5666  0.4627
14201SOL    HW245496   7.930   7.661   1.337  0.3630 -0.0970  0.1117
14202SOL     OW45497   5.526   1.883   2.792  0.6597  0.4078  0.1446
14202SOL    HW145498   5.594   1.838   2.743  0.1882  0.2198 -0.3443
14202SOL    HW245499   5.455   1.897   2.729 -0.4094 -0.8184  0.9978
14203SOL     OW45500   2.934   2.277   0.397  0.4040 -0.0354  0.1071
14203SOL    HW145501   2.888   2.204   0.356  0.8593 -0.2188 -0.0861
14203SOL    HW245502   2.944   2.342   0.327  0.3393  0.0495  0.1767
14204SOL     OW45503   2.150   4.870   1.698  0.1502  0.8628  1.0004
14204SOL    HW145504   2.239   4.843   1.720  0.2811 -0.1956 -0.6373
14204SOL    HW245505   2.095   4.799   1.731  0.2889 -0.3797 -1.2624
14205SOL     OW45506   5.726   4.146   8.681 -0.4945  0.0203 -0.1707
14205SOL    HW145507   5.731   4.071   8.622 -0.6015  0.3360 -0.5904
14205SOL    HW245508   5.791   4.208   8.647 -1.8913  1.0244 -1.1603
14206SOL     OW45509   1.858   8.618   2.360  0.0879  0.2816  0.0532
14206SOL    HW145510   1.800   8.690   2.339  0.2055  0.8184  1.4888
14206SOL    HW245511   1.800   8.543   2.373 -0.2410  0.6518  0.7896
14207SOL     OW45512   0.218   3.501   6.711 -0.3632 -0.4824  0.0050
14207SOL    HW145513   0.192   3.429   6.653  0.8893 -1.9057  1.1627
14207SOL    HW245514   0.309   3.482   6.735 -0.3180  0.9636  1.1232
14208SOL     OW45515   4.946   2.640   7.319 -0.0673 -0.2594  0.1288
14208SOL    HW145516   4.891   2.616   7.394 -0.6718 -1.6892 -0.7277
14208SOL    HW245517   4.912   2.724   7.290 -0.6234 -0.2753  0.7047
14209SOL     OW45518   6.380   3.432   0.177  0.2147  0.6665  0.4665
14209SOL    HW145519   6.400   3.521   0.149 -1.8324  0.8437 -0.5736
14209SOL    HW245520   6.365   3.440   0.272 -0.7722  1.6032  0.2484
14210SOL     OW45521   4.266   1.738   0.357  0.1003 -0.1417  0.0724
14210SOL    HW145522   4.268   1.735   0.452 -0.3389 -1.2376  0.0649
14210SOL    HW245523   4.352   1.705   0.329 -0.3692 -1.4452  0.0949
14211SOL     OW45524   4.400   8.151   1.687 -0.5680  0.4623  0.4419
14211SOL    HW145525   4.320   8.137   1.638 -0.0128 -0.4656 -0.2248
14211SOL    HW245526   4.373   8.146   1.779 -1.1017 -0.9422  0.2291
14212SOL     OW45527   4.379   9.155   4.341 -0.1926 -0.5058 -0.5712
14212SOL    HW145528   4.397   9.238   4.298  0.9158  0.1344  1.0500
14212SOL    HW245529   4.284   9.147   4.339 -0.5524  2.0634  1.4295
14213SOL     OW45530   8.027   1.539   7.265 -0.2180  0.2198 -0.4217
14213SOL    HW145531   7.951   1.532   7.207  0.7999  1.2258 -1.9666
14213SOL    HW245532   8.078   1.612   7.229  0.9482  0.2625  1.2045
14214SOL     OW45533   3.474   5.036   9.179 -0.3790 -0.5523  0.0211
14214SOL    HW145534   3.488   5.092   9.256 -3.1377  2.0387 -1.1398
14214SOL    HW245535   3.414   4.968   9.210  1.7741 -2.1018  1.0590
14215SOL     OW45536   0.344   1.172   3.521  0.1050  0.2110  0.1920
14215SOL    HW145537   0.430   1.200   3.489 -0.3034  0.6537 -0.5619
14215SOL    HW245538   0.335   1.216   3.606  1.7045 -1.9292  1.5641
14216SOL     OW45539   3.761   8.932   8.287  0.7657  0.1885 -0.0384
14216SOL    HW145540   3.835   8.877   8.259  0.3854  0.2877 -1.2939
14216SOL    HW245541   3.762   9.006   8.226 -1.2733 -0.5659 -1.0826
14217SOL     OW45542   0.198   9.162   4.910 -0.2496  0.2340  0.2705
14217SOL    HW145543   0.242   9.080   4.887  0.0870  0.6255 -0.5038
14217SOL    HW245544   0.163   9.195   4.827  1.4155  1.9240  0.1858
14218SOL     OW45545   6.365   2.685   7.379 -0.4489  0.2093 -0.2064
14218SOL    HW145546   6.351   2.697   7.473  0.3055  2.5484 -0.3301
14218SOL    HW245547   6.450   2.643   7.373  0.6901  2.3039  0.1776
14219SOL     OW45548   5.109   1.071   0.840  0.1830 -0.1869 -0.2774
14219SOL    HW145549   5.155   1.086   0.923  1.3776 -0.2963 -0.9031
14219SOL    HW245550   5.150   1.130   0.778  0.5470 -1.4033 -1.2280
14220SOL     OW45551   8.936   1.874   6.286 -0.4695 -0.2652 -0.0911
14220SOL    HW145552   8.979   1.877   6.200  0.2331  0.5629  0.2750
14220SOL    HW245553   8.902   1.785   6.293  0.4253 -0.6764 -0.7638
14221SOL     OW45554   8.040   6.193   4.971  0.4254 -0.4667 -0.1429
14221SOL    HW145555   7.989   6.204   4.891  0.6080 -1.8810 -0.4642
14221SOL    HW245556   8.046   6.282   5.007 -0.7665 -0.0123 -0.9982
14222SOL     OW45557   5.983   1.510   0.848 -0.3728 -0.0840  0.8896
14222SOL    HW145558   5.982   1.603   0.829  1.0068 -0.0562  0.9001
14222SOL    HW245559   5.969   1.468   0.763 -1.1778  0.1245  0.9129
14223SOL     OW45560   7.704   3.963   8.597 -0.5754  0.2238  0.6838
14223SOL    HW145561   7.775   3.954   8.660 -0.1942  0.1204  0.2423
14223SOL    HW245562   7.624   3.965   8.650 -0.2075  0.8912  1.2159
14224SOL     OW45563   4.758   7.600   6.439 -0.1352  0.0535  0.5227
14224SOL    HW145564   4.680   7.546   6.424  1.1393 -1.8398  0.3978
14224SOL    HW245565   4.752   7.668   6.372 -1.5855 -0.1556  0.4002
14225SOL     OW45566   5.067   7.933   1.302 -0.0222 -0.5083  0.3894
14225SOL    HW145567   4.989   7.925   1.357 -0.8053 -1.8816 -0.8316
14225SOL    HW245568   5.037   7.906   1.215  1.3281  0.9125 -0.5683
14226SOL     OW45569   7.088   7.807   0.120  0.1590 -0.0061  0.4074
14226SOL    HW145570   7.084   7.778   0.029  1.7168 -2.8617  1.1362
14226SOL    HW245571   6.997   7.802   0.151 -0.5979  2.1224 -1.1994
14227SOL     OW45572   3.557   1.492   4.664 -0.4032 -0.0953  0.0168
14227SOL    HW145573   3.643   1.511   4.626 -0.5230 -1.8649 -1.2589
14227SOL    HW245574   3.571   1.496   4.758  1.2381 -0.9101 -0.1527
14228SOL     OW45575   8.299   7.227   0.390 -0.7426 -0.3879  0.5331
14228SOL    HW145576   8.353   7.160   0.431  2.3738 -0.0861 -2.6047
14228SOL    HW245577   8.324   7.308   0.435  0.5512 -0.4482 -0.0251
14229SOL     OW45578   4.765   3.463   6.368 -0.1820  0.4710 -0.3221
14229SOL    HW145579   4.727   3.382   6.402 -0.2533  2.1216  4.3140
14229SOL    HW245580   4.785   3.514   6.447  3.1241  3.5393 -2.8359
14230SOL     OW45581   0.056   8.821   4.974  0.8636  0.0771  0.0997
14230SOL    HW145582  -0.030   8.779   4.972  0.6041  0.6171 -1.7044
14230SOL    HW245583   0.077   8.827   5.068 -1.3018  0.4381  0.6276
14231SOL     OW45584   7.575   0.929   0.982  0.2358  0.7700  0.1917
14231SOL    HW145585   7.610   0.999   1.038  0.8668 -0.3326  1.2287
14231SOL    HW245586   7.495   0.901   1.027  0.9223 -0.3517  0.7680
14232SOL     OW45587   8.139   0.919   6.959 -0.1905 -0.5022  0.2236
14232SOL    HW145588   8.220   0.952   6.922  1.1407 -3.0461  0.6475
14232SOL    HW245589   8.071   0.975   6.921  1.7327  2.1176  0.3434
14233SOL     OW45590   6.546   7.916   2.946  0.2960  0.4749  0.0933
14233SOL    HW145591   6.602   7.864   2.889 -0.3551 -0.0225 -0.1122
14233SOL    HW245592   6.603   7.943   3.018  0.2564 -2.0557  1.1833
14234SOL     OW45593   6.595   3.936   0.213 -0.1015  0.8673  0.3234
14234SOL    HW145594   6.585   3.904   0.302 -1.4291  0.2311 -0.0323
14234SOL    HW245595   6.566   4.027   0.216 -1.7592  0.3707  0.2380
14235SOL     OW45596   2.993   8.808   2.865 -0.1099 -0.2203  0.0912
14235SOL    HW145597   3.031   8.729   2.828  1.1117 -0.3109  1.4096
14235SOL    HW245598   3.013   8.802   2.959 -1.9124  0.6048  0.5630
14236SOL     OW45599   0.600   1.075   1.042  0.2722  0.5188 -0.1040
14236SOL    HW145600   0.639   1.163   1.044  1.4813  0.0634  3.4064
14236SOL    HW245601   0.510   1.089   1.072 -0.1937  0.7393 -1.5258
14237SOL     OW45602   6.694   1.774   3.097 -0.0927 -0.4774 -0.5621
14237SOL    HW145603   6.651   1.779   3.183  1.1857 -2.1913  0.2426
14237SOL    HW245604   6.625   1.799   3.035 -0.8929  1.3535  0.9627
14238SOL     OW45605   3.319   3.557   6.542 -0.3730 -0.2719  0.7529
14238SOL    HW145606   3.360   3.538   6.458  0.0213 -2.0453  1.3101
14238SOL    HW245607   3.241   3.501   6.544 -0.2892 -0.3609  1.6317
14239SOL     OW45608   4.761   7.064   4.985 -0.4165  0.0932  0.2768
14239SOL    HW145609   4.791   7.117   4.911 -0.5050  1.8303  1.4428
14239SOL    HW245610   4.679   7.024   4.953 -0.2089  0.4369 -0.7172
14240SOL     OW45611   0.471   9.004   2.674  0.2592  0.3368 -0.0660
14240SOL    HW145612   0.495   9.072   2.611  0.2416  0.5188  0.1222
14240SOL    HW245613   0.474   8.923   2.624  0.4990  0.4507 -0.2385
14241SOL     OW45614   5.524   6.743   7.896  0.3385  0.5811 -0.4918
14241SOL    HW145615   5.454   6.678   7.886 -1.4482  1.7587  2.7492
14241SOL    HW245616   5.537   6.778   7.808 -3.7508  0.8250 -1.1815
14242SOL     OW45617   3.758   6.190   6.012  0.2093 -0.1276 -0.2629
14242SOL    HW145618   3.736   6.147   5.930 -0.1100  0.8473 -0.7064
14242SOL    HW245619   3.849   6.166   6.028  0.4119  0.0363 -1.1387
14243SOL     OW45620   0.775   8.831   0.866 -0.5160 -0.1438 -0.4239
14243SOL    HW145621   0.764   8.873   0.781 -0.3803  3.3685  1.1146
14243SOL    HW245622   0.685   8.820   0.899 -0.5416 -0.7880 -0.7097
14244SOL     OW45623   7.711   3.379   5.913  0.5001 -0.0657  0.1939
14244SOL    HW145624   7.706   3.465   5.954  1.3798  0.0475  0.0811
14244SOL    HW245625   7.779   3.333   5.962  1.4412  0.0102 -1.0075
14245SOL     OW45626   5.868   5.742   8.995  0.9450  0.3839 -0.0444
14245SOL    HW145627   5.961   5.763   9.006  1.5081 -1.3877 -1.0593
14245SOL    HW245628   5.851   5.674   9.060  0.2646  0.8899  0.3241
14246SOL     OW45629   2.274   4.703   3.210 -0.3305 -0.2584  0.1953
14246SOL    HW145630   2.359   4.736   3.180  0.6616 -2.2261  0.6814
14246SOL    HW245631   2.287   4.608   3.218 -2.1356 -0.4204  1.7213
14247SOL     OW45632   6.808   1.230   4.220  0.0588 -0.0593 -0.3059
14247SOL    HW145633   6.749   1.199   4.289  0.8473 -1.5314 -0.2531
14247SOL    HW245634   6.760   1.214   4.139 -0.3658  0.5176 -0.1773
14248SOL     OW45635   6.474   0.546   7.823 -0.4799  0.5098  0.1702
14248SOL    HW145636   6.550   0.494   7.848  0.4071  0.9290 -1.4976
14248SOL    HW245637   6.455   0.599   7.901 -0.0676 -0.7249  1.1454
14249SOL     OW45638   5.195   0.837   5.938  0.0644 -0.0861 -0.3490
14249SOL    HW145639   5.184   0.805   5.849 -1.0653  0.2293 -0.3395
14249SOL    HW245640   5.227   0.927   5.928 -1.5680  0.5057 -0.4905
14250SOL     OW45641   5.568   7.739   7.096  0.5223  0.5079  0.5248
14250SOL    HW145642   5.621   7.709   7.022 -1.1028  2.7107 -1.6799
14250SOL    HW245643   5.583   7.673   7.164  2.3676 -1.4645 -1.6154
14251SOL     OW45644   7.737   1.114   0.792 -0.1617  0.5213  0.2222
14251SOL    HW145645   7.769   1.026   0.774 -0.5718 -0.2673  2.9666
14251SOL    HW245646   7.810   1.171   0.769  0.4702 -0.5834 -0.6268
14252SOL     OW45647   8.688   3.949   5.925  0.4686 -0.0269 -0.1835
14252SOL    HW145648   8.731   4.021   5.880  0.2144 -0.6596 -1.4903
14252SOL    HW245649   8.726   3.870   5.886  0.5023 -0.6140  0.9811
14253SOL     OW45650   7.160   6.075   5.235  0.2552  0.0668  0.7916
14253SOL    HW145651   7.107   6.074   5.315 -0.4019 -1.4846  0.3733
14253SOL    HW245652   7.104   6.033   5.169  0.8436  1.1854 -0.4605
14254SOL     OW45653   1.182   0.155   3.527  0.1118  0.4362  0.0769
14254SOL    HW145654   1.093   0.167   3.493  0.3583  1.7187 -0.1786
14254SOL    HW245655   1.234   0.132   3.450 -0.1482 -1.3014  0.3818
14255SOL     OW45656   3.755   5.644   8.718 -0.2320  0.6870  0.6647
14255SOL    HW145657   3.839   5.682   8.744  0.2646  1.8857 -2.2750
14255SOL    HW245658   3.712   5.714   8.669 -1.4846 -0.9760 -0.7180
14256SOL     OW45659   8.368   7.767   0.520  0.0684  0.2976 -0.3265
14256SOL    HW145660   8.452   7.811   0.511 -0.2491  0.8636 -0.6281
14256SOL    HW245661   8.317   7.798   0.445 -0.3990 -0.0488 -0.1572
14257SOL     OW45662   6.069   3.550   8.904  0.6109  0.3402 -0.1336
14257SOL    HW145663   6.060   3.578   8.996  2.8715  0.1297  0.2192
14257SOL    HW245664   5.981   3.524   8.878 -0.1687  0.7895  1.8519
14258SOL     OW45665   7.659   7.333   8.085 -0.5668 -0.2024  0.5392
14258SOL    HW145666   7.612   7.299   8.009  1.5030 -1.2800 -0.3517
14258SOL    HW245667   7.632   7.425   8.092 -0.8998 -0.1191 -1.4293
14259SOL     OW45668   7.233   8.231   8.442  0.1288  0.2844  0.3217
14259SOL    HW145669   7.199   8.184   8.366 -1.5062 -0.7092  1.5947
14259SOL    HW245670   7.169   8.216   8.511  1.3098  1.5431  1.7977
14260SOL     OW45671   0.601   3.895   7.117  0.3845 -0.9675 -0.2001
14260SOL    HW145672   0.643   3.889   7.031 -0.8937 -1.2432 -0.8353
14260SOL    HW245673   0.532   3.961   7.105  0.5645 -0.5845  0.7835
14261SOL     OW45674   2.663   0.343   3.622  0.3788  0.3307 -0.4309
14261SOL    HW145675   2.573   0.316   3.602  1.0978 -2.6022 -0.1225
14261SOL    HW245676   2.716   0.300   3.556  1.6545  1.4683 -0.1889
14262SOL     OW45677   4.522   1.175   4.169  0.1769  0.2707 -0.1327
14262SOL    HW145678   4.478   1.187   4.085 -4.2328 -1.9994  1.5617
14262SOL    HW245679   4.527   1.080   4.181  0.6088  0.5308  2.1952
14263SOL     OW45680   8.437   8.310   6.212 -0.1546 -0.0452  0.3713
14263SOL    HW145681   8.399   8.321   6.299 -0.0278  1.1086  0.3040
14263SOL    HW245682   8.380   8.362   6.155 -0.3771 -0.9832 -0.2832
14264SOL     OW45683   5.864   8.152   2.893 -0.8184 -0.2148 -0.2104
14264SOL    HW145684   5.810   8.080   2.925  0.5629 -0.7897  0.8977
14264SOL    HW245685   5.954   8.123   2.905 -0.2238  1.5056 -0.1970
14265SOL     OW45686   7.073   1.236   4.412  0.8330  0.2542  0.7087
14265SOL    HW145687   7.009   1.274   4.352 -0.4617 -1.1591  1.1229
14265SOL    HW245688   7.157   1.270   4.383  0.1448  0.3187 -1.3320
14266SOL     OW45689   0.572   7.597   6.764 -0.0484  0.4176  0.1016
14266SOL    HW145690   0.543   7.627   6.678 -2.7410 -0.2336  0.6782
14266SOL    HW245691   0.624   7.519   6.746  0.1794  0.8021 -0.9770
14267SOL     OW45692   0.184   1.376   1.974  0.3468 -0.1476  0.5096
14267SOL    HW145693   0.190   1.427   2.055  0.1455  3.2998 -1.4666
14267SOL    HW245694   0.273   1.374   1.940  0.4990 -1.8964  0.9195
14268SOL     OW45695   7.003   1.604   8.191  0.4467 -0.0260  0.7254
14268SOL    HW145696   7.018   1.682   8.243 -0.7677 -0.2084  1.3793
14268SOL    HW245697   6.994   1.533   8.255  2.2268 -0.8637  0.1276
14269SOL     OW45698   5.564   8.268   5.753  0.0447 -0.0801  0.1189
14269SOL    HW145699   5.647   8.279   5.707  0.4929 -0.5245  0.8172
14269SOL    HW245700   5.577   8.192   5.809  0.0850  1.4266  2.2784
14270SOL     OW45701   2.157   1.736   6.511  0.1889 -0.5429  0.6383
14270SOL    HW145702   2.168   1.736   6.606  3.2935 -2.4619  0.4327
14270SOL    HW245703   2.133   1.826   6.489  0.7518  0.2860  3.1181
14271SOL     OW45704   3.464   3.994   8.897 -0.0828  0.0091 -0.5953
14271SOL    HW145705   3.487   4.087   8.903 -1.4447  0.4412 -1.6712
14271SOL    HW245706   3.381   3.993   8.849 -1.3033 -1.5997  1.3909
14272SOL     OW45707   3.233   5.726   4.324  0.0228 -0.1362 -0.5703
14272SOL    HW145708   3.226   5.816   4.354 -0.7142  0.2134 -1.7089
14272SOL    HW245709   3.327   5.706   4.328  0.2324  0.7933 -0.6082
14273SOL     OW45710   0.362   4.046   5.484  0.0496  0.3045  0.1143
14273SOL    HW145711   0.379   3.955   5.460  0.0758  0.6264 -1.1808
14273SOL    HW245712   0.351   4.044   5.579 -0.7678 -1.1818  0.0272
14274SOL     OW45713   4.021   7.275   8.427  0.3192  0.1662  0.1345
14274SOL    HW145714   4.057   7.326   8.354  0.4067 -0.5890 -0.3631
14274SOL    HW245715   4.080   7.200   8.434  0.4285  0.3348  1.1256
14275SOL     OW45716   2.557   0.033   3.202 -0.0179 -0.1191 -0.8663
14275SOL    HW145717   2.500   0.109   3.189  0.5855  0.1878 -1.8131
14275SOL    HW245718   2.645   0.066   3.183  0.2116 -1.1512 -1.6625
14276SOL     OW45719   2.323   2.480   4.749  0.0798 -0.0101  0.3220
14276SOL    HW145720   2.258   2.476   4.819 -0.3078 -1.0717 -0.0787
14276SOL    HW245721   2.274   2.508   4.672  0.5245  1.2484  0.4753
14277SOL     OW45722   2.827   7.815   4.782  0.3578 -0.0013 -0.3950
14277SOL    HW145723   2.787   7.730   4.763  0.1510 -0.2904  1.2566
14277SOL    HW245724   2.754   7.878   4.775  0.5791  0.1322 -1.9691
14278SOL     OW45725   1.184   8.797   7.029  0.7701  0.1783 -0.4474
14278SOL    HW145726   1.105   8.821   7.079  1.2657  2.7128 -0.7280
14278SOL    HW245727   1.150   8.758   6.949 -0.1093 -0.9401  0.4203
14279SOL     OW45728   3.768   0.609   0.226 -0.4596  0.3517 -0.4000
14279SOL    HW145729   3.804   0.696   0.238  3.8584 -1.4423  2.0017
14279SOL    HW245730   3.745   0.579   0.314 -1.4049 -1.1389 -1.1002
14280SOL     OW45731   8.223   6.488   4.857  0.1483 -0.5293 -0.3300
14280SOL    HW145732   8.134   6.470   4.887 -0.4600  0.2762 -1.5730
14280SOL    HW245733   8.278   6.436   4.914 -1.1923 -2.0468 -0.3428
14281SOL     OW45734   0.274   3.605   8.035  0.5416 -0.1799 -0.3202
14281SOL    HW145735   0.325   3.580   8.111 -0.0816 -1.4669 -0.3059
14281SOL    HW245736   0.334   3.658   7.982  1.3716 -0.3263  0.4541
14282SOL     OW45737   5.877   2.309   3.798  0.0686  0.3690 -0.2910
14282SOL    HW145738   5.820   2.236   3.822 -0.4418  0.0576 -2.2576
14282SOL    HW245739   5.966   2.278   3.818 -0.2615 -0.0775  0.5311
14283SOL     OW45740   6.834   3.300   7.871  0.1096  0.4866 -0.6547
14283SOL    HW145741   6.897   3.358   7.914  1.7744 -1.5529 -0.1297
14283SOL    HW245742   6.765   3.288   7.936  1.2393 -0.3973  0.4480
14284SOL     OW45743   8.267   1.841   4.081 -0.2026 -0.1359  0.0936
14284SOL    HW145744   8.339   1.905   4.079  1.3546 -1.7917  0.4070
14284SOL    HW245745   8.190   1.893   4.102  0.8473  1.7600 -0.4605
14285SOL     OW45746   1.796   2.132   0.952  0.0332 -0.1967 -0.2237
14285SOL    HW145747   1.819   2.046   0.919  0.0137  0.6460 -2.6330
14285SOL    HW245748   1.879   2.169   0.982  0.5152 -0.1180 -1.5852
14286SOL     OW45749   4.147   8.904   6.831  0.7455  0.2651  0.1518
14286SOL    HW145750   4.104   8.839   6.775 -2.3064  1.0276  1.4392
14286SOL    HW245751   4.167   8.977   6.772  1.3857 -0.5653 -0.6913
14287SOL     OW45752   2.219   4.411   6.570 -0.6746  0.2706  0.0110
14287SOL    HW145753   2.298   4.464   6.564 -1.2931  1.0585 -2.4067
14287SOL    HW245754   2.250   4.324   6.597  0.5813  1.3117  2.1734
14288SOL     OW45755   8.869   0.964   4.836  0.1623  0.2896  0.3581
14288SOL    HW145756   8.814   0.926   4.905 -1.0432 -1.0570 -1.2469
14288SOL    HW245757   8.827   1.047   4.815 -0.1306  0.1781  0.4900
14289SOL     OW45758   4.402   5.444   5.446 -0.2396  0.0732 -0.9336
14289SOL    HW145759   4.416   5.429   5.352  0.2093 -1.5684 -0.6414
14289SOL    HW245760   4.365   5.361   5.478  1.5134 -0.1427  0.7104
14290SOL     OW45761   4.274   2.391   3.453 -0.3306  0.0637  0.1809
14290SOL    HW145762   4.199   2.443   3.483 -0.4553  0.1290 -0.2437
14290SOL    HW245763   4.285   2.324   3.520 -0.0207  0.7796  0.8637
14291SOL     OW45764   0.222   8.326   2.082 -0.1118 -0.2015 -0.1747
14291SOL    HW145765   0.148   8.386   2.072 -0.5720 -0.7352  0.0018
14291SOL    HW245766   0.292   8.367   2.031 -0.4389  0.4462 -0.1203
14292SOL     OW45767   6.310   9.219   6.903  0.2949  0.2919  0.0454
14292SOL    HW145768   6.352   9.290   6.950  0.8835  2.0781 -2.8986
14292SOL    HW245769   6.219   9.249   6.890  0.1244 -0.1955  0.0881
14293SOL     OW45770   1.915   0.458   0.957  0.1874 -0.3922 -0.0116
14293SOL    HW145771   1.909   0.545   0.917  3.6425  0.3554  0.7877
14293SOL    HW245772   1.943   0.400   0.886 -3.1600 -1.2444 -0.8172
14294SOL     OW45773   4.448   2.124   8.388  0.3064 -0.0115 -0.3720
14294SOL    HW145774   4.442   2.200   8.447 -0.3351 -0.4143  0.1052
14294SOL    HW245775   4.447   2.049   8.447  0.1556 -0.4089 -0.8816
14295SOL     OW45776   1.647   8.003   0.665  0.2536 -0.3440 -0.1047
14295SOL    HW145777   1.575   7.984   0.725  0.1891 -0.7160 -0.2993
14295SOL    HW245778   1.630   7.949   0.588  0.7532 -0.4610 -0.1396
14296SOL     OW45779   1.448   8.633   8.859 -0.2594 -0.0716  0.5760
14296SOL    HW145780   1.501   8.628   8.780  1.2306  0.2113  1.5241
14296SOL    HW245781   1.500   8.590   8.926 -0.6736  1.2728  1.8270
14297SOL     OW45782   5.356   1.728   7.942  0.0777 -0.1803 -0.0832
14297SOL    HW145783   5.363   1.710   8.036 -0.5815  0.5975  0.1264
14297SOL    HW245784   5.438   1.695   7.905 -0.4452 -2.2522  0.4767
14298SOL     OW45785   1.888   2.686   3.428 -0.2199 -0.1015 -0.3021
14298SOL    HW145786   1.813   2.646   3.383 -0.0664 -0.9608  0.1856
14298SOL    HW245787   1.903   2.768   3.380 -1.3044 -0.0344 -0.5740
14299SOL     OW45788   6.962   0.673   1.251 -0.2506 -0.0764 -0.5003
14299SOL    HW145789   6.892   0.626   1.206  0.1890 -0.2057 -1.0660
14299SOL    HW245790   7.043   0.634   1.217  0.1039 -0.7598  1.0304
14300SOL     OW45791   5.801   5.191   4.172  0.3719 -0.8789  0.3039
14300SOL    HW145792   5.865   5.121   4.180 -0.1058 -1.2417  1.1723
14300SOL    HW245793   5.851   5.272   4.183  0.4989 -1.2021  2.5941
14301SOL     OW45794   8.078   5.968   6.367 -0.1255  0.4830  0.3434
14301SOL    HW145795   8.012   5.913   6.409 -0.6474 -0.6127 -1.7851
14301SOL    HW245796   8.046   6.058   6.379 -1.5941  0.0227  0.0609
14302SOL     OW45797   7.680   5.839   2.365  0.2527  0.3145  0.1816
14302SOL    HW145798   7.698   5.872   2.277  0.8646  0.4321  0.3472
14302SOL    HW245799   7.712   5.748   2.363  1.7135  0.7824  0.7309
14303SOL     OW45800   1.268   0.612   8.449  0.0185 -0.1271 -0.2826
14303SOL    HW145801   1.266   0.521   8.422 -0.3029  0.1587 -1.2413
14303SOL    HW245802   1.362   0.631   8.461  0.4070  0.3525 -3.4029
14304SOL     OW45803   8.262   7.605   3.933  0.3635 -0.0795 -0.2026
14304SOL    HW145804   8.251   7.578   3.842  0.3225  1.4368 -0.6732
14304SOL    HW245805   8.343   7.655   3.934 -0.4871  1.3569  0.2267
14305SOL     OW45806   0.564   8.602   6.205 -0.4161  0.1814  0.1215
14305SOL    HW145807   0.476   8.566   6.202 -1.0844  1.6985  0.7182
14305SOL    HW245808   0.619   8.528   6.232 -1.2671 -1.1422 -1.5898
14306SOL     OW45809   0.353   6.003   3.648  0.2355  0.0018 -0.4076
14306SOL    HW145810   0.317   5.954   3.722  1.5007 -3.8484 -2.1029
14306SOL    HW245811   0.426   6.052   3.686 -0.5759 -0.0141  1.2785
14307SOL     OW45812   5.877   1.702   8.074  0.0758  0.2164  0.4114
14307SOL    HW145813   5.910   1.660   8.153  0.4179 -0.8183 -0.2596
14307SOL    HW245814   5.940   1.678   8.006  0.2138  1.7388 -0.0275
14308SOL     OW45815   8.713   6.620   4.709  0.2566  0.5834 -0.3418
14308SOL    HW145816   8.639   6.664   4.666 -0.8670  1.3477  2.1477
14308SOL    HW245817   8.679   6.533   4.730  0.9714  0.0343 -1.3984
14309SOL     OW45818   3.903   6.902   8.157  0.1994 -0.0687  0.3204
14309SOL    HW145819   3.987   6.949   8.158 -1.0941  2.4988 -1.4717
14309SOL    HW245820   3.849   6.948   8.221  0.0693 -1.6238  1.3661
14310SOL     OW45821   5.353   8.282   0.102  0.6295 -0.3095 -0.0367
14310SOL    HW145822   5.442   8.245   0.098  1.0953  0.7713  0.1806
14310SOL    HW245823   5.333   8.286   0.195  0.6797  0.2058 -0.0456
14311SOL     OW45824   2.449   4.033   3.703  0.5148 -0.1673  0.0457
14311SOL    HW145825   2.428   3.940   3.695  3.1522 -0.7834 -0.8436
14311SOL    HW245826   2.504   4.038   3.782  0.3948  0.6352  0.0835
14312SOL     OW45827   2.707   5.702   2.345  0.1130  0.3831  0.6872
14312SOL    HW145828   2.795   5.725   2.316  0.4879 -1.8547 -0.1732
14312SOL    HW245829   2.720   5.649   2.423 -0.2367 -1.7532 -0.5980
14313SOL     OW45830   6.989   3.322   1.147  0.0977  0.5927 -0.6212
14313SOL    HW145831   6.991   3.298   1.054 -1.2699 -0.4716 -0.4046
14313SOL    HW245832   6.897   3.342   1.165  0.0613 -0.6873  0.8297
14314SOL     OW45833   8.016   1.354   8.836 -0.1771 -0.3687 -0.0846
14314SOL    HW145834   8.009   1.428   8.896  0.6959 -1.4079  1.3571
14314SOL    HW245835   8.059   1.286   8.887  2.1243 -0.7739 -2.3388
14315SOL     OW45836   1.230   2.378   8.643 -0.6353  0.2546  0.7495
14315SOL    HW145837   1.156   2.407   8.589  1.3298  1.1022 -1.6458
14315SOL    HW245838   1.275   2.458   8.669  1.6268 -0.2857 -1.1743
14316SOL     OW45839   4.299   8.154   5.890 -0.2493 -0.1811 -0.3502
14316SOL    HW145840   4.210   8.160   5.924 -0.5273 -0.2877 -1.0441
14316SOL    HW245841   4.339   8.238   5.911 -1.0885  0.5611 -1.6249
14317SOL     OW45842   1.737   1.937   2.915 -0.7182 -0.2581 -0.0765
14317SOL    HW145843   1.791   2.016   2.917  0.3892 -0.9689  2.3622
14317SOL    HW245844   1.771   1.886   2.841  1.8295 -0.5147  1.1582
14318SOL     OW45845   2.977   3.118   3.217  0.5834  0.0243  0.2976
14318SOL    HW145846   3.034   3.186   3.254  0.8237 -0.2808  0.4927
14318SOL    HW245847   3.035   3.065   3.162  0.0277  1.1146 -1.4139
14319SOL     OW45848   0.500   3.503   3.967 -0.2571 -0.3817 -0.2044
14319SOL    HW145849   0.434   3.436   3.986  0.0280 -0.3687  0.8955
14319SOL    HW245850   0.455   3.586   3.985 -0.2398 -0.3295 -0.4015
14320SOL     OW45851   3.204   8.925   3.945  0.7422 -0.0211  0.2764
14320SOL    HW145852   3.296   8.918   3.918  0.4275  0.9609 -1.1373
14320SOL    HW245853   3.157   8.863   3.889  0.0911  2.0038 -1.5665
14321SOL     OW45854   3.911   5.164   6.260 -0.3196 -0.3269  0.0139
14321SOL    HW145855   3.955   5.131   6.338  1.2644  1.1563 -0.1821
14321SOL    HW245856   3.868   5.244   6.289 -0.1411 -0.0331 -0.5287
14322SOL     OW45857   8.394   6.158   3.442 -0.3818  0.4614  0.2494
14322SOL    HW145858   8.320   6.178   3.498 -1.8056  0.1876 -1.4505
14322SOL    HW245859   8.376   6.070   3.409 -0.2077  1.0607 -1.5448
14323SOL     OW45860   2.508   8.751   4.573  0.1975  0.0770 -0.1094
14323SOL    HW145861   2.501   8.798   4.490  0.4734 -0.8670 -0.6912
14323SOL    HW245862   2.466   8.808   4.637  0.6543  1.1692 -0.7498
14324SOL     OW45863   2.297   2.278   7.925 -0.0747 -0.7300 -0.4805
14324SOL    HW145864   2.368   2.261   7.988 -0.7074 -0.8070  0.2260
14324SOL    HW245865   2.337   2.262   7.840  1.0631  0.2560 -0.1708
14325SOL     OW45866   2.795   0.783   6.279 -0.7670 -0.0967 -0.3499
14325SOL    HW145867   2.745   0.725   6.336 -0.2571 -0.9526 -0.7558
14325SOL    HW245868   2.841   0.842   6.339 -1.3517 -0.0470  0.0622
14326SOL     OW45869   6.808   5.978   1.575 -0.8758 -0.0118  0.1602
14326SOL    HW145870   6.894   6.004   1.542 -0.8652 -0.1982  0.0422
14326SOL    HW245871   6.777   6.056   1.622 -0.1311 -0.3321  1.2208
14327SOL     OW45872   6.375   3.230   1.219 -0.3680  0.4601  0.2186
14327SOL    HW145873   6.296   3.194   1.260 -0.3979 -0.3937 -0.5523
14327SOL    HW245874   6.419   3.154   1.181  0.5727  0.9938  0.2006
14328SOL     OW45875   7.899   1.166   6.437 -0.0439 -0.0023  0.5737
14328SOL    HW145876   7.846   1.233   6.481  2.1149  2.0616  0.1739
14328SOL    HW245877   7.969   1.214   6.394  0.9704 -2.4488 -0.7002
14329SOL     OW45878   1.932   6.119   0.170  0.6939 -0.2553  0.6609
14329SOL    HW145879   2.023   6.090   0.160  1.3141  0.7210  2.7697
14329SOL    HW245880   1.909   6.095   0.260 -0.8275  0.3544  0.4694
14330SOL     OW45881   7.713   7.714   3.006  0.3424 -0.1295 -0.3111
14330SOL    HW145882   7.784   7.693   3.067  0.5065 -0.4012 -0.5940
14330SOL    HW245883   7.756   7.762   2.935  0.0964  0.4775 -0.0539
14331SOL     OW45884   0.278   0.445   3.026 -0.3593 -0.0689 -0.4578
14331SOL    HW145885   0.254   0.537   3.038  1.1135  0.2084  0.8337
14331SOL    HW245886   0.262   0.405   3.112 -0.3396 -0.8446 -0.8113
14332SOL     OW45887   6.333   0.993   3.201 -0.5013  0.0139  0.4192
14332SOL    HW145888   6.331   1.057   3.272 -1.6601 -0.3187  0.7093
14332SOL    HW245889   6.319   1.044   3.121  0.6391  0.3678  0.4412
14333SOL     OW45890   3.116   6.681   6.958  0.7632  0.8898 -0.0741
14333SOL    HW145891   3.110   6.753   7.020 -0.5724  1.4876 -0.8514
14333SOL    HW245892   3.058   6.706   6.886  1.3703 -0.3132 -1.0247
14334SOL     OW45893   2.126   3.402   6.394 -0.5146  0.5340  0.0538
14334SOL    HW145894   2.107   3.310   6.375  0.7375 -0.0209  1.3559
14334SOL    HW245895   2.055   3.430   6.453  0.5203 -0.4037  1.8094
14335SOL     OW45896   6.153   8.244   4.147  0.1510 -0.1859  0.1821
14335SOL    HW145897   6.087   8.193   4.100  0.5504 -1.6173  1.0855
14335SOL    HW245898   6.113   8.264   4.232 -0.7399  2.7708 -0.8303
14336SOL     OW45899   1.999   0.679   1.195  0.3248 -0.4384 -0.1845
14336SOL    HW145900   2.012   0.584   1.203  2.2881 -0.1623  0.5074
14336SOL    HW245901   1.908   0.689   1.167 -0.0533 -2.5023  0.1712
14337SOL     OW45902   0.363   0.461   2.740  0.1633  0.2067  0.3872
14337SOL    HW145903   0.316   0.445   2.822  0.5589 -1.7042  0.2961
14337SOL    HW245904   0.439   0.512   2.765  0.3913 -0.5451  1.2592
14338SOL     OW45905   0.727   2.898   3.254  0.2899  0.1530 -0.3035
14338SOL    HW145906   0.695   2.930   3.170  0.0839 -1.5370 -0.9178
14338SOL    HW245907   0.649   2.891   3.308  0.1196 -0.6117 -0.6346
14339SOL     OW45908   7.810   7.410   6.879  0.6159  0.5982  0.0774
14339SOL    HW145909   7.886   7.434   6.931  1.6836  0.6582 -1.4642
14339SOL    HW245910   7.740   7.399   6.943  1.8790  0.6560  1.5160
14340SOL     OW45911   7.027   9.085   4.472 -0.3280  0.3971 -0.9697
14340SOL    HW145912   7.117   9.079   4.505 -0.0983  0.6422 -1.5429
14340SOL    HW245913   7.011   9.000   4.431  0.3423  1.0196 -2.5953
14341SOL     OW45914   2.400   4.222   1.808  0.5333  0.1899 -0.0436
14341SOL    HW145915   2.344   4.145   1.804  0.7005  0.1131 -1.0845
14341SOL    HW245916   2.489   4.188   1.805  0.6093  0.4154 -0.4320
14342SOL     OW45917   8.281   1.363   0.865 -0.3289 -0.2796  0.9653
14342SOL    HW145918   8.202   1.399   0.827  0.0120 -1.9343 -1.5117
14342SOL    HW245919   8.339   1.438   0.878 -1.4371  0.6413  0.6896
14343SOL     OW45920   6.086   5.563   3.330  0.1382 -0.2889  0.1833
14343SOL    HW145921   5.997   5.577   3.364 -0.0168 -2.8063  1.0224
14343SOL    HW245922   6.073   5.511   3.251  0.8505  0.2417 -0.2945
14344SOL     OW45923   0.335   8.377   1.808  0.0036  0.5443  0.3309
14344SOL    HW145924   0.256   8.323   1.803  1.3395 -1.4434 -0.3665
14344SOL    HW245925   0.392   8.341   1.740  0.8566  3.0745 -0.3855
14345SOL     OW45926   5.551   3.147   0.162  0.6207 -0.2024  0.3574
14345SOL    HW145927   5.505   3.221   0.121  1.0475  0.7259  1.4784
14345SOL    HW245928   5.548   3.077   0.097 -0.8675  0.3999 -0.2609
14346SOL     OW45929   3.917   1.473   2.939 -0.4714 -0.1035 -0.0576
14346SOL    HW145930   3.930   1.392   2.988 -1.0518  0.9265  1.9021
14346SOL    HW245931   3.867   1.447   2.862 -0.6124 -1.6020  0.5169
14347SOL     OW45932   3.977   0.038   3.698  0.4480  0.2662 -0.5413
14347SOL    HW145933   4.011   0.022   3.786  0.7404  2.1264 -0.2741
14347SOL    HW245934   3.974  -0.048   3.657  1.6730 -0.4504  0.8024
14348SOL     OW45935   3.423   0.691   5.830 -0.2401  0.4891  0.2485
14348SOL    HW145936   3.429   0.638   5.910 -0.1679  0.6196  0.3314
14348SOL    HW245937   3.353   0.754   5.849 -1.6362 -0.7454 -0.5449
14349SOL     OW45938   4.574   0.393   4.316 -0.0387 -0.4490 -0.3096
14349SOL    HW145939   4.586   0.419   4.407  1.9562  0.2707 -0.7118
14349SOL    HW245940   4.628   0.455   4.266 -1.0712 -0.8260 -1.9913
14350SOL     OW45941   1.696   3.687   1.840 -0.7750  0.3302  0.5339
14350SOL    HW145942   1.725   3.700   1.750 -1.5543  0.3914  0.2828
14350SOL    HW245943   1.669   3.774   1.870 -2.9519 -0.0834 -0.0617
14351SOL     OW45944   8.815   0.171   5.868 -0.6693  0.2814  0.4513
14351SOL    HW145945   8.733   0.126   5.890 -2.4384  2.3791 -1.3760
14351SOL    HW245946   8.852   0.195   5.953 -2.6879  0.4741  1.3483
14352SOL     OW45947   4.631   1.801   6.179  0.2838  0.7048  0.8713
14352SOL    HW145948   4.705   1.783   6.237 -0.1856  0.3324  1.3639
14352SOL    HW245949   4.667   1.786   6.091  1.0712  1.5426  1.0308
14353SOL     OW45950   5.516   3.549   6.777  0.2980 -0.2182 -0.3259
14353SOL    HW145951   5.497   3.595   6.696 -0.4798 -0.0509 -0.0541
14353SOL    HW245952   5.578   3.606   6.823  0.5620 -0.2065 -0.6985
14354SOL     OW45953   1.651   8.483   6.169  0.1566  0.3719 -0.0991
14354SOL    HW145954   1.677   8.512   6.257  0.5975 -2.7504  0.9136
14354SOL    HW245955   1.556   8.476   6.174  0.3357 -4.4515  1.9834
14355SOL     OW45956   6.900   1.444   4.901  0.5192  0.8263 -0.0592
14355SOL    HW145957   6.808   1.470   4.912  0.3507  1.1464 -1.9863
14355SOL    HW245958   6.896   1.358   4.860  1.0423  1.4856 -1.5619
14356SOL     OW45959   3.912   6.214   7.167 -0.1548  0.3446 -0.0065
14356SOL    HW145960   4.004   6.186   7.170 -0.5733 -1.1297 -0.1601
14356SOL    HW245961   3.908   6.289   7.226  1.4709  1.4879 -1.2490
14357SOL     OW45962   1.934   8.955   6.289  0.0697 -0.3203 -0.4661
14357SOL    HW145963   1.927   9.041   6.330 -2.7351  0.1176 -1.6572
14357SOL    HW245964   2.004   8.911   6.338 -0.1949  1.6766  1.9089
14358SOL     OW45965   0.937   6.948   6.206 -0.3609  0.2634  0.2142
14358SOL    HW145966   0.936   6.938   6.301 -0.0470  2.4845  0.5075
14358SOL    HW245967   0.994   7.023   6.190 -1.2478  0.6095 -1.6570
14359SOL     OW45968   8.445   6.863   5.079 -0.1055 -0.1671  0.5188
14359SOL    HW145969   8.442   6.925   5.153  1.7199 -0.2034  0.6514
14359SOL    HW245970   8.517   6.804   5.100  0.5456 -0.0959 -1.3624
14360SOL     OW45971   8.631   5.467   6.953  0.0513  0.0192  0.3080
14360SOL    HW145972   8.717   5.508   6.958 -0.3294  1.1912 -1.6505
14360SOL    HW245973   8.605   5.477   6.861 -2.0970 -0.4719  0.8008
14361SOL     OW45974   1.311   4.969   2.039 -0.8003  0.0524  0.2316
14361SOL    HW145975   1.287   5.029   1.969  0.3466  0.0451 -0.2006
14361SOL    HW245976   1.230   4.923   2.062 -1.9650  2.4996  1.3348
14362SOL     OW45977   4.443   1.888   8.522 -0.0392  0.1314  0.1517
14362SOL    HW145978   4.459   1.796   8.498 -0.4778 -0.2560  1.2464
14362SOL    HW245979   4.475   1.895   8.612 -1.0860  0.7301  0.4940
14363SOL     OW45980   1.634   7.407   6.108  0.0514  0.3751 -0.3308
14363SOL    HW145981   1.718   7.453   6.105  0.8057 -0.9651 -0.7242
14363SOL    HW245982   1.625   7.368   6.021 -1.3390  1.0959 -0.5325
14364SOL     OW45983   8.761   6.675   1.139  0.2956 -0.3211  0.2028
14364SOL    HW145984   8.667   6.659   1.147 -0.1126  0.0526 -2.7203
14364SOL    HW245985   8.770   6.720   1.055  2.9962  0.6332  0.9224
14365SOL     OW45986   4.334   0.412   8.566  0.1185  0.0568  0.1543
14365SOL    HW145987   4.265   0.350   8.590 -0.8290  0.8689 -0.4225
14365SOL    HW245988   4.353   0.460   8.647  1.0420 -1.1203  0.6741
14366SOL     OW45989   6.719   2.061   6.727 -0.3496  0.0889  0.1557
14366SOL    HW145990   6.689   2.022   6.809  0.5629 -1.8900 -0.3670
14366SOL    HW245991   6.693   2.152   6.732 -1.7034 -0.3415  1.9587
14367SOL     OW45992   5.385   6.569   5.370 -0.5266  0.1497 -0.1819
14367SOL    HW145993   5.406   6.646   5.423  0.8670 -1.0029  1.0327
14367SOL    HW245994   5.378   6.603   5.281  1.8714  1.4514  0.0272
14368SOL     OW45995   3.037   2.448   7.131  0.6797  0.3619 -0.5309
14368SOL    HW145996   3.028   2.512   7.202  1.2865 -0.0916 -0.0336
14368SOL    HW245997   3.128   2.458   7.103  0.3845  0.6985 -1.4113
14369SOL     OW45998   2.154   3.202   3.132  0.0422 -0.1368 -0.0273
14369SOL    HW145999   2.185   3.197   3.222 -2.8853 -0.7999  1.0476
14369SOL    HW246000   2.065   3.168   3.135 -0.1701 -0.1827 -3.2017
14370SOL     OW46001   4.745   9.092   3.234  0.1258  0.5077 -0.2452
14370SOL    HW146002   4.749   9.077   3.140  0.7887  0.8033 -0.2683
14370SOL    HW246003   4.700   9.015   3.268  0.2816  0.1833 -0.7590
14371SOL     OW46004   6.917   6.964   1.872  0.0237 -0.5400 -0.3481
14371SOL    HW146005   6.960   6.894   1.824 -1.0560 -0.3091 -1.6936
14371SOL    HW246006   6.967   7.043   1.849  1.6241 -0.8904  1.6479
14372SOL     OW46007   2.743   6.466   3.871 -0.5138  0.3136  0.2801
14372SOL    HW146008   2.705   6.492   3.787  0.0917 -0.1109 -0.1366
14372SOL    HW246009   2.708   6.379   3.888 -0.3487  0.2488  0.2873
14373SOL     OW46010   2.512   6.337   6.965 -0.3508 -0.6525  0.1766
14373SOL    HW146011   2.591   6.287   6.943 -0.0024 -0.6258  1.3045
14373SOL    HW246012   2.528   6.424   6.928  0.4258 -0.4669  0.9395
14374SOL     OW46013   7.632   0.417   5.768 -0.4127 -0.5383  0.3656
14374SOL    HW146014   7.611   0.386   5.681 -0.9938  2.8774 -0.8843
14374SOL    HW246015   7.668   0.341   5.814 -3.4240 -3.4054 -1.5981
14375SOL     OW46016   1.887   4.713   5.079 -0.2184 -0.6010 -0.2398
14375SOL    HW146017   1.855   4.761   5.155 -2.4716 -1.7035 -0.4313
14375SOL    HW246018   1.934   4.779   5.027 -0.4278  0.6267  1.0707
14376SOL     OW46019   9.263   1.594   1.817  0.3088  0.1783 -0.4236
14376SOL    HW146020   9.353   1.572   1.795 -0.1506 -1.3145 -0.9064
14376SOL    HW246021   9.263   1.604   1.912  0.7290 -1.1392 -0.2687
14377SOL     OW46022   6.130   7.028   7.248  0.3073 -0.1669 -0.2131
14377SOL    HW146023   6.161   6.962   7.187  1.2412 -0.1508  0.2251
14377SOL    HW246024   6.042   7.049   7.218  0.6920 -0.2652 -1.4609
14378SOL     OW46025   8.880   7.747   0.405  0.0140 -0.1877 -0.3566
14378SOL    HW146026   8.915   7.780   0.323  1.4948 -0.2699  0.2139
14378SOL    HW246027   8.876   7.652   0.393  1.4382 -0.3265  0.0795
14379SOL     OW46028   7.708   9.017   3.517 -0.4757  0.0354  0.1081
14379SOL    HW146029   7.768   9.069   3.570 -0.9245  0.2078  0.4526
14379SOL    HW246030   7.629   9.070   3.510 -0.3752  0.0735 -0.8522
14380SOL     OW46031   6.824   8.766   3.829  0.2483  0.8416  0.0243
14380SOL    HW146032   6.741   8.743   3.871 -0.4508 -1.0141 -2.1446
14380SOL    HW246033   6.865   8.682   3.808  1.1862  1.6568 -1.6767
14381SOL     OW46034   8.307   6.436   4.147  0.0911 -0.6994 -0.1388
14381SOL    HW146035   8.403   6.437   4.153  0.0637 -0.4214  0.3224
14381SOL    HW246036   8.280   6.521   4.180 -0.3776 -1.2766  1.0413
14382SOL     OW46037   6.504   0.754   8.420  0.2892  0.2451 -0.5563
14382SOL    HW146038   6.586   0.729   8.464 -0.4455  0.2389  0.8797
14382SOL    HW246039   6.493   0.846   8.442  0.0806  0.3365 -1.0374
14383SOL     OW46040   8.684   7.749   7.859 -0.2901 -0.1390 -0.0876
14383SOL    HW146041   8.721   7.815   7.917 -2.0788 -1.0336  2.2582
14383SOL    HW246042   8.720   7.666   7.891 -1.3985 -0.6596 -0.1523
14384SOL     OW46043   2.300   5.463   3.319 -0.5764 -0.5769  0.5606
14384SOL    HW146044   2.341   5.400   3.378  0.9907  1.3857  1.7015
14384SOL    HW246045   2.222   5.418   3.287  0.1257 -2.8367  1.7796
14385SOL     OW46046   2.471   3.557   1.705  0.3080 -0.2943  0.1506
14385SOL    HW146047   2.472   3.496   1.779 -2.5001  0.2157  0.7154
14385SOL    HW246048   2.508   3.638   1.739 -1.4022  0.0864  1.2183
14386SOL     OW46049   6.270   3.966   3.158  0.6299  0.0853  0.0555
14386SOL    HW146050   6.360   3.934   3.165  0.0537 -1.5571  0.6033
14386SOL    HW246051   6.241   3.934   3.072 -0.4437 -2.4052  1.2247
14387SOL     OW46052   2.093   3.848   4.910  0.3986  0.2053  0.1404
14387SOL    HW146053   2.131   3.891   4.833  2.5567 -1.2537  0.2938
14387SOL    HW246054   2.045   3.773   4.874 -1.7813  1.5760  0.0143
14388SOL     OW46055   7.264   3.895   4.613  0.0140  0.4792  0.0530
14388SOL    HW146056   7.351   3.861   4.593  0.3980  1.3674  0.1281
14388SOL    HW246057   7.207   3.855   4.548  0.4342 -0.3206  0.1696
14389SOL     OW46058   2.382   2.313   3.877 -0.1110 -0.1715 -0.5261
14389SOL    HW146059   2.288   2.330   3.872 -0.4892 -1.5631  0.8382
14389SOL    HW246060   2.422   2.379   3.821 -1.9410  0.0236 -1.6796
14390SOL     OW46061   2.079   4.865   3.130  0.7522 -0.3665 -0.2199
14390SOL    HW146062   2.027   4.826   3.059  1.9437 -0.0750 -1.2837
14390SOL    HW246063   2.138   4.795   3.158  0.4325 -0.4131  0.3573
14391SOL     OW46064   0.791   0.577   6.781  0.7577  0.0510 -0.4153
14391SOL    HW146065   0.859   0.519   6.815 -0.0489 -0.8976 -0.3743
14391SOL    HW246066   0.710   0.549   6.825  0.0574  0.1246 -1.5998
14392SOL     OW46067   4.682   5.360   7.382  0.8343  0.0279 -0.1844
14392SOL    HW146068   4.762   5.307   7.376  1.7395  1.3320 -0.1106
14392SOL    HW246069   4.692   5.409   7.464  0.4188  0.9331 -0.6632
14393SOL     OW46070   5.269   4.132   6.615  0.5801  0.0239  0.4397
14393SOL    HW146071   5.216   4.100   6.688 -1.5060 -1.0143 -1.4253
14393SOL    HW246072   5.354   4.089   6.627 -0.4482 -1.9616  1.0246
14394SOL     OW46073   6.734   6.704   1.719 -0.9834 -0.4015 -0.2435
14394SOL    HW146074   6.685   6.741   1.645 -0.8446  2.9651  1.1537
14394SOL    HW246075   6.683   6.729   1.796 -0.0605 -2.0069  0.9500
14395SOL     OW46076   3.131   4.364   5.003 -0.0762 -0.3404 -0.4775
14395SOL    HW146077   3.204   4.333   5.057 -0.2031 -0.2670 -0.2586
14395SOL    HW246078   3.111   4.291   4.945  2.0049  0.5933 -2.5387
14396SOL     OW46079   6.244   4.219   1.239  0.4614  0.1499  0.0602
14396SOL    HW146080   6.224   4.146   1.297 -1.1596  0.5807  0.1036
14396SOL    HW246081   6.339   4.225   1.238  0.6559 -2.1617 -0.1959
14397SOL     OW46082   7.277   1.654   7.171 -0.0091 -0.0560  0.0425
14397SOL    HW146083   7.231   1.632   7.090 -0.9252 -0.1273  0.5581
14397SOL    HW246084   7.318   1.739   7.154 -1.9362  0.9555  0.1477
14398SOL     OW46085   7.264   7.366   5.010 -0.0169 -0.1895 -0.2530
14398SOL    HW146086   7.187   7.405   5.051  1.5040  2.3230  0.4707
14398SOL    HW246087   7.275   7.282   5.055 -1.6850 -0.1187  0.3676
14399SOL     OW46088   5.046   5.318   6.115  0.6539 -0.5880 -0.3900
14399SOL    HW146089   4.966   5.369   6.101  0.1346 -0.9177  1.2045
14399SOL    HW246090   5.116   5.382   6.114  0.0376  0.1596  1.3350
14400SOL     OW46091   8.613   0.435   8.039 -0.3851 -0.0028  0.9842
14400SOL    HW146092   8.596   0.507   7.978 -1.5868 -1.0136  0.0687
14400SOL    HW246093   8.653   0.367   7.986  1.9447  0.3945  2.1064
14401SOL     OW46094   4.343   8.942   1.768 -0.2707 -0.5302  0.2793
14401SOL    HW146095   4.397   8.950   1.690 -0.3005  0.5284  0.3402
14401SOL    HW246096   4.332   8.848   1.781  0.5410 -0.7391 -0.4274
14402SOL     OW46097   4.227   5.794   5.321  0.1677 -0.0411 -0.3345
14402SOL    HW146098   4.272   5.757   5.397  1.7001  0.0178 -1.1758
14402SOL    HW246099   4.189   5.718   5.276 -2.2088  0.0573  1.3200
14403SOL     OW46100   5.290   7.178   4.417 -0.0620  0.5369  0.1894
14403SOL    HW146101   5.209   7.134   4.389  0.1882  0.4860 -0.4477
14403SOL    HW246102   5.351   7.166   4.345  0.1655  1.5393  0.2037
14404SOL     OW46103   0.722   5.139   0.312 -0.7596 -0.2383 -0.3452
14404SOL    HW146104   0.803   5.187   0.296 -0.5628 -0.3987  0.1567
14404SOL    HW246105   0.691   5.173   0.396  0.1193 -1.9771  0.7331
14405SOL     OW46106   3.226   6.538   1.248  0.1225  0.3252  0.0766
14405SOL    HW146107   3.222   6.632   1.263  2.5405  0.7978 -1.6410
14405SOL    HW246108   3.206   6.528   1.154  0.2434 -0.8350  0.1565
14406SOL     OW46109   2.568   5.996   4.764 -0.2465  0.1627  0.1187
14406SOL    HW146110   2.661   5.975   4.771  0.2452  1.2589 -2.3238
14406SOL    HW246111   2.524   5.922   4.805  1.6693 -0.5444  1.0288
14407SOL     OW46112   3.926   4.349   2.812 -0.0254 -0.4922 -0.6845
14407SOL    HW146113   3.880   4.410   2.754 -0.4447 -0.5165 -0.3820
14407SOL    HW246114   3.978   4.295   2.753 -0.4068 -0.4822 -1.0380
14408SOL     OW46115   5.517   2.231   7.691  0.3302 -0.2702  0.2331
14408SOL    HW146116   5.463   2.154   7.706  0.7715 -0.4548  0.9287
14408SOL    HW246117   5.460   2.292   7.644  0.2915 -1.3883 -1.2527
14409SOL     OW46118   6.315   0.814   9.185  0.9040  0.3805  0.0849
14409SOL    HW146119   6.228   0.775   9.171  1.6891 -1.0137 -1.0791
14409SOL    HW246120   6.314   0.893   9.131  0.5379  0.0996 -0.3293
14410SOL     OW46121   4.930   6.391   5.399  0.1866 -0.0761 -0.1263
14410SOL    HW146122   4.963   6.471   5.442  0.5723  0.0255 -0.5979
14410SOL    HW246123   4.838   6.410   5.381  0.1111  0.0140  0.3383
14411SOL     OW46124   3.957   0.368   8.586  0.2321 -0.1980 -0.7904
14411SOL    HW146125   3.876   0.318   8.594  0.2560 -0.0401  0.9296
14411SOL    HW246126   4.026   0.307   8.612  0.2782  0.6128  1.1717
14412SOL     OW46127   1.893   3.304   5.282 -0.3352  0.5302  0.2015
14412SOL    HW146128   1.962   3.324   5.345 -0.9633 -0.3925  1.2203
14412SOL    HW246129   1.886   3.383   5.228  1.3307  0.7222  0.2240
14413SOL     OW46130   7.648   1.316   1.222  0.5850  0.3936 -0.3538
14413SOL    HW146131   7.636   1.382   1.291 -3.2090  1.6777 -1.9934
14413SOL    HW246132   7.590   1.245   1.246  3.1300 -1.6117  0.3142
14414SOL     OW46133   6.629   6.512   5.082  0.2197  0.1665 -0.1972
14414SOL    HW146134   6.658   6.425   5.107 -0.7005  0.5518  2.6274
14414SOL    HW246135   6.560   6.497   5.017 -0.2813 -1.2451  0.6311
14415SOL     OW46136   6.952   3.419   0.431 -0.1938 -0.0188  0.1021
14415SOL    HW146137   6.865   3.453   0.453 -0.1763  0.5863 -0.7309
14415SOL    HW246138   6.935   3.355   0.361  0.2901  2.4329 -2.4170
14416SOL     OW46139   0.984   7.008   2.991  0.2106 -0.3266 -0.1349
14416SOL    HW146140   1.020   7.045   2.910 -1.1177  0.0931 -0.5642
14416SOL    HW246141   0.895   7.043   2.995 -0.4959 -2.0982  0.3737
14417SOL     OW46142   0.230   5.205   4.599 -0.1504  0.0683 -0.5021
14417SOL    HW146143   0.256   5.286   4.644 -1.2000  0.2058 -0.1195
14417SOL    HW246144   0.231   5.228   4.506 -2.8995  1.3274 -0.3264
14418SOL     OW46145   8.411   9.077   4.459 -0.0235  0.1653 -0.5724
14418SOL    HW146146   8.315   9.083   4.450 -0.3742  0.1692  2.2372
14418SOL    HW246147   8.426   8.986   4.487  0.2419  1.1221  2.9637
14419SOL     OW46148   3.316   8.892   8.612  0.5881  0.0057  0.5111
14419SOL    HW146149   3.408   8.870   8.617  0.4814 -0.3963  0.7185
14419SOL    HW246150   3.283   8.880   8.701  0.2992 -0.0217  0.4036
14420SOL     OW46151   2.950   1.434   2.931  0.1213  0.2341  0.4151
14420SOL    HW146152   3.039   1.471   2.933  0.7287 -1.1821  1.8820
14420SOL    HW246153   2.893   1.508   2.953  0.8120  1.3740 -1.3869
14421SOL     OW46154   3.348   0.325   7.741 -0.1974 -0.2685  0.1923
14421SOL    HW146155   3.420   0.297   7.685 -0.7474  0.9635 -1.1888
14421SOL    HW246156   3.273   0.336   7.682 -1.1458 -0.1219  1.3629
14422SOL     OW46157   8.286   1.547   4.590 -0.2388  0.1664  0.0432
14422SOL    HW146158   8.195   1.571   4.607 -0.3869 -1.7674  2.3324
14422SOL    HW246159   8.333   1.631   4.588 -1.8154  1.0865  0.2828
14423SOL     OW46160   8.108   1.703   4.363  0.4042 -0.5200  0.0708
14423SOL    HW146161   8.148   1.772   4.414  1.3322 -1.1716  0.2428
14423SOL    HW246162   8.181   1.657   4.322 -0.0398 -2.4209  1.2806
14424SOL     OW46163   9.171   3.472   8.414 -0.1873  0.2108 -0.1371
14424SOL    HW146164   9.175   3.564   8.387  0.0544 -0.0235 -0.8953
14424SOL    HW246165   9.113   3.431   8.351 -0.6416 -0.0702  0.4629
14425SOL     OW46166   1.373   3.226   3.890  0.4846  0.2895 -0.4115
14425SOL    HW146167   1.420   3.309   3.884  0.5846  0.2294 -0.4633
14425SOL    HW246168   1.325   3.221   3.807  0.2729  0.4182 -0.2999
14426SOL     OW46169   0.151   7.353   5.004 -0.0339 -0.5069  0.7158
14426SOL    HW146170   0.123   7.420   5.066 -0.6908  0.4889 -0.6112
14426SOL    HW246171   0.138   7.270   5.051  0.8300  0.2719  2.3919
14427SOL     OW46172   2.730   7.775   6.219  0.9046 -0.2868  0.4275
14427SOL    HW146173   2.691   7.850   6.173  0.2265 -0.8833 -0.0042
14427SOL    HW246174   2.824   7.785   6.205  0.7236 -0.5212 -1.2660
14428SOL     OW46175   2.106   5.046   4.625  0.2778 -0.5121  0.5492
14428SOL    HW146176   2.166   5.082   4.690 -1.4582  3.0229  0.4548
14428SOL    HW246177   2.155   5.047   4.543  1.0122 -0.5112  0.9846
14429SOL     OW46178   7.046   5.997   1.019 -0.4698 -0.0472 -0.1362
14429SOL    HW146179   7.027   5.999   1.113 -0.0876  0.7610 -0.0695
14429SOL    HW246180   7.091   5.914   1.005  1.6176  0.8416  0.8475
14430SOL     OW46181   3.790   6.503   0.918  0.4169 -0.2491  0.2291
14430SOL    HW146182   3.727   6.572   0.937 -0.2220 -0.5711 -0.6798
14430SOL    HW246183   3.739   6.422   0.916  0.6565 -0.4044 -1.4489
14431SOL     OW46184   6.647   3.246   5.773 -0.5460 -0.3546  0.3363
14431SOL    HW146185   6.644   3.151   5.772  0.6061 -0.4095  0.0239
14431SOL    HW246186   6.659   3.269   5.865 -2.2202 -0.4199  0.6057
14432SOL     OW46187   8.975   7.426   5.859 -0.0721  0.1264  0.0428
14432SOL    HW146188   9.048   7.372   5.830  0.6002  0.2987  1.3390
14432SOL    HW246189   8.956   7.483   5.785  0.5146 -0.5252 -0.6259
14433SOL     OW46190   0.859   2.813   1.010 -0.3288 -0.5243  0.5842
14433SOL    HW146191   0.808   2.793   1.089  0.4304  1.6766  1.7293
14433SOL    HW246192   0.875   2.907   1.015  1.9288 -0.7396 -0.8865
14434SOL     OW46193   5.142   3.356   6.141  0.7785  0.0113 -0.0591
14434SOL    HW146194   5.130   3.326   6.232 -1.3553  0.1966 -0.2116
14434SOL    HW246195   5.083   3.301   6.090  1.8535  0.0058 -1.3397
14435SOL     OW46196   7.855   2.646   4.296 -0.1744 -0.0701 -0.0412
14435SOL    HW146197   7.794   2.717   4.314  0.3993  0.3586  0.2563
14435SOL    HW246198   7.861   2.599   4.380  1.3373  1.0225  0.5148
14436SOL     OW46199   8.594   0.505   4.191  0.3644  0.2720 -0.0124
14436SOL    HW146200   8.576   0.536   4.102 -2.1942 -0.8745  0.0495
14436SOL    HW246201   8.567   0.414   4.191  0.5960  0.1706  1.8947
14437SOL     OW46202   1.450   2.683   4.148  0.2009 -0.1461 -0.0485
14437SOL    HW146203   1.398   2.678   4.228  0.7151 -0.7495  0.2568
14437SOL    HW246204   1.386   2.677   4.077 -0.3908  1.5880  0.2817
14438SOL     OW46205   6.933   4.508   7.392 -0.0361  0.4275 -0.2527
14438SOL    HW146206   6.932   4.577   7.458  2.4771 -0.0553  0.4233
14438SOL    HW246207   6.880   4.437   7.429 -1.5345  1.4467 -0.3725
14439SOL     OW46208   3.544   5.572   1.386  0.2027  0.3855  0.7978
14439SOL    HW146209   3.473   5.522   1.345  1.0202 -1.2448  1.2882
14439SOL    HW246210   3.503   5.654   1.414 -1.1570  0.0582 -0.1613
14440SOL     OW46211   7.070   6.357   8.934 -0.1890  0.0997 -0.0663
14440SOL    HW146212   7.070   6.266   8.904 -0.4281 -0.2475  0.9568
14440SOL    HW246213   7.126   6.403   8.871 -0.3833 -0.6706 -0.8208
14441SOL     OW46214   8.879   2.374   5.432  0.7161 -0.0351  0.5442
14441SOL    HW146215   8.801   2.328   5.401  0.3285  1.3500 -0.6413
14441SOL    HW246216   8.845   2.447   5.483  1.3038 -0.5469  1.6997
14442SOL     OW46217   2.500   4.982   0.064 -0.2726 -0.1002  0.2567
14442SOL    HW146218   2.555   4.921   0.113 -0.5121  0.5587  1.3798
14442SOL    HW246219   2.426   4.999   0.122 -0.1229  1.3861  0.0434
14443SOL     OW46220   3.034   3.727   7.673 -0.0008  0.2137  0.1836
14443SOL    HW146221   3.043   3.811   7.627  0.2141  0.9602  1.5431
14443SOL    HW246222   3.124   3.695   7.683 -0.0582 -0.0214 -0.0412
14444SOL     OW46223   4.261   2.079   0.503  0.2971 -0.4833  0.3118
14444SOL    HW146224   4.199   2.131   0.453 -2.5375 -2.8739  1.0553
14444SOL    HW246225   4.294   2.014   0.441 -0.0919 -0.9356  0.5762
14445SOL     OW46226   4.865   4.670   4.448  0.4209  0.0149  0.4252
14445SOL    HW146227   4.861   4.688   4.541  0.5394  0.1363  0.4072
14445SOL    HW246228   4.957   4.648   4.431  1.0364  2.6530 -0.1438
14446SOL     OW46229   2.058   6.144   6.864 -0.0923  0.2191  0.7405
14446SOL    HW146230   2.006   6.064   6.868 -0.1671  0.0523 -2.0036
14446SOL    HW246231   2.123   6.134   6.934 -1.0374 -1.5305  1.4125
14447SOL     OW46232   7.672   0.495   3.876  0.8334 -0.0123 -0.1551
14447SOL    HW146233   7.753   0.445   3.867  0.6155 -0.5727  0.9081
14447SOL    HW246234   7.623   0.474   3.796  0.5009 -1.9739  0.5202
14448SOL     OW46235   3.176   5.592   8.643 -0.2548 -0.2889  0.0670
14448SOL    HW146236   3.145   5.515   8.596 -0.5906 -1.6751  2.3865
14448SOL    HW246237   3.096   5.642   8.660  0.1216  1.4951 -2.7672
14449SOL     OW46238   7.346   2.116   3.246 -0.2066 -0.4754  0.0012
14449SOL    HW146239   7.429   2.109   3.293 -0.1393  0.5046  0.0408
14449SOL    HW246240   7.302   2.033   3.264  0.9476 -1.2107 -0.3973
14450SOL     OW46241   1.028   1.723   7.083 -0.6965  0.0118 -0.1607
14450SOL    HW146242   1.109   1.688   7.119 -2.0306 -2.3115  0.8120
14450SOL    HW246243   1.042   1.817   7.077  0.8327  0.1292  3.3409
14451SOL     OW46244   4.649   0.124   0.396 -0.0044  0.8312  0.2966
14451SOL    HW146245   4.649   0.218   0.418  1.6330  0.4454  2.1760
14451SOL    HW246246   4.697   0.119   0.313  0.3629  1.6091  0.4530
14452SOL     OW46247   3.562   1.400   7.455  0.4223  0.5434  0.2292
14452SOL    HW146248   3.619   1.323   7.463  0.6691  0.7158  0.1112
14452SOL    HW246249   3.583   1.436   7.369  0.2364  0.6888  0.2464
14453SOL     OW46250   7.888   1.439   6.838  0.1284 -0.3697  0.2473
14453SOL    HW146251   7.975   1.438   6.799  1.0589 -1.6502  2.2122
14453SOL    HW246252   7.852   1.351   6.819 -1.6810  0.7849 -2.3492
14454SOL     OW46253   4.744   8.158   4.532 -0.4957  0.2709  0.2516
14454SOL    HW146254   4.780   8.178   4.445  0.8408  2.0163  1.1353
14454SOL    HW246255   4.683   8.087   4.517  0.0847  0.1801 -2.0479
14455SOL     OW46256   3.597   8.865   7.203  0.5946  0.6383 -0.6644
14455SOL    HW146257   3.512   8.849   7.162  1.0212 -1.9316 -0.6702
14455SOL    HW246258   3.655   8.887   7.130  0.5631 -0.4377 -1.0240
14456SOL     OW46259   5.345   6.324   1.214 -0.4965  0.5409  0.1205
14456SOL    HW146260   5.402   6.247   1.209 -0.0845  0.8978 -1.1040
14456SOL    HW246261   5.405   6.397   1.231 -0.4388  1.0349 -1.9605
14457SOL     OW46262   6.996   0.180   7.318 -0.1256  0.4911  0.4964
14457SOL    HW146263   6.957   0.232   7.248 -0.5738 -0.2887  0.1593
14457SOL    HW246264   7.042   0.244   7.373  0.5049  1.0840 -0.6767
14458SOL     OW46265   0.241   6.770   5.211  0.3005 -0.0111 -0.5281
14458SOL    HW146266   0.314   6.826   5.239 -2.1125  1.9975  2.4352
14458SOL    HW246267   0.218   6.802   5.124  2.0577  0.1915 -0.9626
14459SOL     OW46268   9.029   4.239   0.543  0.0670  0.1655  0.2488
14459SOL    HW146269   9.098   4.306   0.537  0.0655  0.0795 -1.0353
14459SOL    HW246270   8.948   4.287   0.529  0.1191 -0.1750 -1.4716
14460SOL     OW46271   1.655   5.687   2.651 -0.0046 -0.1327  0.1165
14460SOL    HW146272   1.564   5.680   2.680  0.3860 -1.4090  1.1044
14460SOL    HW246273   1.649   5.705   2.557 -1.2972 -2.5481 -0.3212
14461SOL     OW46274   8.401   1.781   7.309  0.0278  0.5025 -0.6099
14461SOL    HW146275   8.477   1.838   7.299  0.4513  0.0716  0.1859
14461SOL    HW246276   8.358   1.812   7.389 -0.4214  0.4854 -0.8391
14462SOL     OW46277   2.558   0.709   3.380 -0.3614  0.5065  0.1096
14462SOL    HW146278   2.493   0.663   3.434 -1.4447 -0.4790 -1.8856
14462SOL    HW246279   2.530   0.801   3.382 -1.7921  0.1291 -0.5801
14463SOL     OW46280   7.690   1.769   2.730 -0.2751 -0.1235 -0.2145
14463SOL    HW146281   7.657   1.712   2.799 -1.6449  0.0064 -0.7472
14463SOL    HW246282   7.647   1.853   2.744 -1.2995 -0.3577 -1.7591
14464SOL     OW46283   1.617   3.786   7.871 -0.1255 -0.1833 -0.0144
14464SOL    HW146284   1.577   3.766   7.786 -0.6233  0.3053  0.0946
14464SOL    HW246285   1.710   3.794   7.852 -0.3457  0.9275 -0.7163
14465SOL     OW46286   0.957   8.906   4.915  0.0067 -0.2229 -0.0023
14465SOL    HW146287   0.883   8.894   4.855  0.5532  1.2491 -1.0069
14465SOL    HW246288   0.989   8.817   4.930 -1.6098 -0.8420  0.0214
14466SOL     OW46289   8.827   0.856   1.991  0.2231  0.3429  0.3619
14466SOL    HW146290   8.909   0.843   2.040  0.3642  0.2250  0.0948
14466SOL    HW246291   8.852   0.916   1.920  0.5501 -1.2540 -0.9240
14467SOL     OW46292   4.723   7.276   8.420  0.0762 -0.0767 -0.0019
14467SOL    HW146293   4.794   7.269   8.357  0.5234 -0.6006  0.5431
14467SOL    HW246294   4.646   7.243   8.374  0.3449 -0.2091 -0.3547
14468SOL     OW46295   0.343   4.007   7.168  0.2381  0.6964 -0.3315
14468SOL    HW146296   0.304   3.944   7.107  0.1332 -0.1490  0.5824
14468SOL    HW246297   0.298   4.089   7.149 -0.6827  0.1575 -0.5452
14469SOL     OW46298   1.743   0.617   2.290 -0.4141  0.1196 -0.1022
14469SOL    HW146299   1.782   0.558   2.355 -1.5743  0.3494  0.8273
14469SOL    HW246300   1.649   0.606   2.301 -0.6440  1.5344 -0.4844
14470SOL     OW46301   8.417   0.399   1.682  0.0692  0.2786 -0.0930
14470SOL    HW146302   8.350   0.467   1.685 -1.3160 -1.0301 -0.0460
14470SOL    HW246303   8.433   0.384   1.589  0.2686  0.5683 -0.1048
14471SOL     OW46304   7.714   7.318   4.909  0.2436  0.0831 -0.2177
14471SOL    HW146305   7.701   7.231   4.947 -2.4085  0.7096  0.5365
14471SOL    HW246306   7.725   7.302   4.815  0.7022 -1.0968  0.0171
14472SOL     OW46307   3.210   3.180   2.502  0.3389  0.0255  0.2924
14472SOL    HW146308   3.228   3.273   2.487  2.1541 -0.5260 -1.4196
14472SOL    HW246309   3.136   3.160   2.446 -0.2818  0.4853  0.9257
14473SOL     OW46310   0.308   0.468   4.820 -0.5880  0.1475  0.3567
14473SOL    HW146311   0.333   0.467   4.912 -0.1383  0.0747  0.2366
14473SOL    HW246312   0.232   0.410   4.815  0.0135 -0.6776  0.5153
14474SOL     OW46313   1.303   8.468   7.336 -0.6880  0.1617 -0.3149
14474SOL    HW146314   1.238   8.409   7.299 -1.3743 -0.3189  1.5183
14474SOL    HW246315   1.351   8.501   7.261 -1.3441 -1.4789 -1.5236
14475SOL     OW46316   4.857   7.415   1.352  0.0993  0.1176 -0.0473
14475SOL    HW146317   4.913   7.473   1.300  0.5793 -1.3799 -1.2788
14475SOL    HW246318   4.847   7.460   1.436  1.2658  1.4881 -0.5982
14476SOL     OW46319   1.219   2.554   1.239 -0.3270  0.0903 -0.2281
14476SOL    HW146320   1.251   2.573   1.327  0.1431  0.7260 -0.5237
14476SOL    HW246321   1.235   2.635   1.190 -0.2564 -0.3748 -0.9885
14477SOL     OW46322   1.469   9.082   5.499  0.0046  0.6105 -0.3136
14477SOL    HW146323   1.562   9.068   5.487 -0.0002  0.9929 -0.7678
14477SOL    HW246324   1.460   9.107   5.591  0.6033  2.7459 -0.7911
14478SOL     OW46325   3.285   8.028   5.707  0.0513 -0.2981 -0.0857
14478SOL    HW146326   3.241   8.100   5.661  0.4954 -0.1828 -0.3354
14478SOL    HW246327   3.365   8.068   5.742 -0.2356 -0.4023  0.7198
14479SOL     OW46328   3.627   5.609   1.902 -0.6884  0.0917 -0.3201
14479SOL    HW146329   3.635   5.579   1.993  0.0422  3.3858  0.8301
14479SOL    HW246330   3.540   5.579   1.875 -0.9419 -0.9437  1.4496
14480SOL     OW46331   4.358   1.496   5.501  0.0779  0.4534 -0.4047
14480SOL    HW146332   4.326   1.424   5.448  0.9763  0.6236 -1.2113
14480SOL    HW246333   4.344   1.468   5.592  1.2594 -1.1605 -0.6649
14481SOL     OW46334   1.699   4.332   3.957  0.3727 -0.2039 -0.0145
14481SOL    HW146335   1.690   4.253   3.904  0.6086 -0.2965  0.0839
14481SOL    HW246336   1.783   4.370   3.930  0.8904 -0.6823  0.8590
14482SOL     OW46337   6.185   8.180   9.224 -0.2532 -0.2060 -0.2778
14482SOL    HW146338   6.168   8.126   9.147  0.6275  0.5804 -1.0491
14482SOL    HW246339   6.230   8.121   9.285 -0.6566 -0.7421 -0.4880
14483SOL     OW46340   2.156   2.055   1.540 -0.1262 -0.1624  0.0543
14483SOL    HW146341   2.102   1.978   1.558 -1.8836  1.6119  3.3972
14483SOL    HW246342   2.102   2.110   1.483 -1.4616  0.9764  2.2577
14484SOL     OW46343   7.136   4.473   4.485  0.5577  0.6050  0.6374
14484SOL    HW146344   7.182   4.395   4.453 -2.2358 -0.4295 -1.2182
14484SOL    HW246345   7.206   4.534   4.508  2.8424 -1.6204  0.0750
14485SOL     OW46346   7.042   8.817   0.103  0.0168  0.1368  0.2556
14485SOL    HW146347   7.095   8.803   0.024  0.0965  0.7179  0.1980
14485SOL    HW246348   6.956   8.842   0.070 -0.1254 -0.2297  0.3513
14486SOL     OW46349   5.228   6.848   7.248 -0.5878  0.3715 -0.0553
14486SOL    HW146350   5.300   6.895   7.292  0.3708 -0.9247 -0.1926
14486SOL    HW246351   5.240   6.757   7.273 -1.2447 -0.1022 -1.3648
14487SOL     OW46352   3.114   8.099   1.080  0.7303 -0.1771 -0.3899
14487SOL    HW146353   3.063   8.175   1.051 -0.0194 -0.7748 -0.6826
14487SOL    HW246354   3.069   8.067   1.158  1.9577  0.6020  0.6771
14488SOL     OW46355   8.101   5.408   1.621  0.2837  0.1394 -0.1240
14488SOL    HW146356   8.110   5.327   1.570 -0.4910 -0.9067  1.3070
14488SOL    HW246357   8.026   5.392   1.678  0.5000  1.6431  0.6390
14489SOL     OW46358   8.333   5.857   7.109 -0.0800 -0.3205  0.2863
14489SOL    HW146359   8.292   5.790   7.054  0.1696 -0.0667 -0.2135
14489SOL    HW246360   8.295   5.940   7.078  1.6791  0.0565 -1.0206
14490SOL     OW46361   6.589   6.076   7.673 -0.4769  0.3314 -0.6217
14490SOL    HW146362   6.582   6.151   7.732 -0.9525 -1.0115  1.1213
14490SOL    HW246363   6.500   6.065   7.638 -1.9780 -2.6509  3.4459
14491SOL     OW46364   1.072   2.321   6.413  0.5999  0.1561  0.3578
14491SOL    HW146365   1.018   2.310   6.491 -1.6218  0.2526 -1.0731
14491SOL    HW246366   1.155   2.357   6.446 -0.1108 -0.1672  2.6748
14492SOL     OW46367   3.289   6.556   7.368  0.5800  0.9269  0.5167
14492SOL    HW146368   3.371   6.588   7.330 -0.8477  0.2346 -3.7446
14492SOL    HW246369   3.239   6.522   7.293 -2.7373 -0.7156  3.1548
14493SOL     OW46370   9.248   8.576   6.156 -0.0051 -0.1217 -0.0249
14493SOL    HW146371   9.254   8.524   6.076 -1.3059  2.7497 -2.1492
14493SOL    HW246372   9.326   8.631   6.156  1.8324 -2.4334  2.6767
14494SOL     OW46373   6.856   7.470   1.493  0.1776  0.5682 -0.2372
14494SOL    HW146374   6.785   7.418   1.456  0.3661  0.1500 -0.0188
14494SOL    HW246375   6.827   7.561   1.484 -1.3945  0.3530  1.8529
14495SOL     OW46376   2.866   2.650   0.350 -0.1346 -0.5114 -0.3977
14495SOL    HW146377   2.847   2.727   0.404 -3.5425 -1.4257 -0.0459
14495SOL    HW246378   2.952   2.668   0.312 -0.5774  3.2419 -0.0179
14496SOL     OW46379   8.111   7.550   6.145  0.4491  0.0851 -0.1919
14496SOL    HW146380   8.016   7.562   6.151  0.4315 -0.3954  0.6602
14496SOL    HW246381   8.141   7.548   6.236  1.1956 -0.3841 -0.4372
14497SOL     OW46382   1.727   5.825   6.291 -0.1488  0.3358  0.4919
14497SOL    HW146383   1.760   5.910   6.319 -1.0154  0.7580  0.2730
14497SOL    HW246384   1.632   5.836   6.290 -0.3056 -0.8187  1.0420
14498SOL     OW46385   7.880   3.031   8.848 -0.2859  0.1977 -0.0616
14498SOL    HW146386   7.875   2.944   8.808  2.4250 -0.0282 -0.0493
14498SOL    HW246387   7.916   3.088   8.780 -0.1601  0.8688  0.5514
14499SOL     OW46388   4.630   6.386   5.025 -0.2099 -0.8504  0.7685
14499SOL    HW146389   4.595   6.318   4.968  0.3448  0.2115 -0.8863
14499SOL    HW246390   4.721   6.360   5.041 -0.1487 -0.7625  0.5609
14500SOL     OW46391   6.150   5.138   8.350 -0.7462 -0.1376  0.1460
14500SOL    HW146392   6.198   5.083   8.411 -0.3067 -0.8801 -0.8327
14500SOL    HW246393   6.106   5.076   8.291  0.3618  0.5036 -1.4465
14501SOL     OW46394   6.352   5.439   3.325  0.5947 -0.2747  0.1970
14501SOL    HW146395   6.376   5.384   3.400  0.2879 -0.1919  0.3571
14501SOL    HW246396   6.273   5.486   3.353  0.2436 -0.5414 -0.3199
14502SOL     OW46397   7.626   6.595   5.804 -0.2582 -0.1400 -0.0501
14502SOL    HW146398   7.596   6.520   5.753 -1.0907 -1.2116  1.9085
14502SOL    HW246399   7.584   6.584   5.890  0.5764  1.9138  0.6809
14503SOL     OW46400   0.568   8.195   8.323  0.1561 -0.3771 -0.1479
14503SOL    HW146401   0.621   8.265   8.285  0.7454 -0.4676  0.4868
14503SOL    HW246402   0.574   8.209   8.418 -3.7125  1.6832  0.0278
14504SOL     OW46403   5.481   0.935   4.704 -0.0536  0.1974  0.3063
14504SOL    HW146404   5.465   1.016   4.655  0.7783 -0.1930 -0.6431
14504SOL    HW246405   5.438   0.867   4.652 -0.6613  0.0018  1.0454
14505SOL     OW46406   0.014   0.620   6.585  0.4534  0.3937 -0.2442
14505SOL    HW146407   0.033   0.630   6.679  1.1217  1.6868 -0.5027
14505SOL    HW246408  -0.058   0.557   6.583 -0.6259  1.4927  1.2409
14506SOL     OW46409   2.867   8.647   8.462  0.1280  0.0385 -0.0789
14506SOL    HW146410   2.875   8.640   8.367 -1.3900 -0.5513 -0.1934
14506SOL    HW246411   2.954   8.674   8.492  0.4192  1.0297 -1.7021
14507SOL     OW46412   5.426   1.926   6.994  0.0304  0.3102 -0.3608
14507SOL    HW146413   5.467   1.987   7.056 -2.7297  1.6317  0.3135
14507SOL    HW246414   5.447   1.962   6.908 -1.3338  2.2028  0.0224
14508SOL     OW46415   5.996   2.674   8.085 -0.2656  0.0396 -0.1056
14508SOL    HW146416   5.972   2.636   8.001 -2.8895  0.4855  0.3497
14508SOL    HW246417   5.976   2.767   8.077  2.8816  0.8221 -0.0966
14509SOL     OW46418   5.167   5.722   5.585  0.0030 -0.0210 -0.2618
14509SOL    HW146419   5.143   5.762   5.668  1.2996 -1.5388  0.9079
14509SOL    HW246420   5.087   5.678   5.555 -0.4115  0.3594  0.2826
14510SOL     OW46421   5.869   5.907   0.135 -0.5791 -0.4513 -0.3929
14510SOL    HW146422   5.800   5.916   0.069 -1.8167  0.5380  0.9513
14510SOL    HW246423   5.821   5.888   0.216  0.6242  1.1632  0.7734
14511SOL     OW46424   0.436   2.398   0.303  0.2542 -0.0859 -0.2685
14511SOL    HW146425   0.396   2.468   0.355  0.2478 -0.3972  0.1592
14511SOL    HW246426   0.361   2.344   0.274  0.2640  0.0451 -0.5369
14512SOL     OW46427   4.843   8.219   6.678  0.5139  0.2519  0.3357
14512SOL    HW146428   4.837   8.232   6.772 -1.0862 -0.3904  0.3519
14512SOL    HW246429   4.936   8.202   6.662  0.8055  0.3685  1.7822
14513SOL     OW46430   5.867   7.396   4.652  0.7377  0.1146 -0.3308
14513SOL    HW146431   5.928   7.328   4.622  2.4326  1.1137  0.7456
14513SOL    HW246432   5.838   7.365   4.738 -0.6765 -0.5673 -1.0139
14514SOL     OW46433   7.630   5.086   1.291 -0.0298 -0.1299  0.0895
14514SOL    HW146434   7.566   5.111   1.224 -0.3656 -1.3586 -0.0702
14514SOL    HW246435   7.598   5.125   1.372 -0.9296 -0.6453 -0.0121
14515SOL     OW46436   2.119   4.349   5.272 -0.0764  0.4527  0.1631
14515SOL    HW146437   2.158   4.386   5.193 -0.6974  0.9106  0.0688
14515SOL    HW246438   2.025   4.351   5.257 -0.2006  0.4510  0.8780
14516SOL     OW46439   7.653   3.730   0.714 -0.0204 -0.2950 -0.0334
14516SOL    HW146440   7.728   3.676   0.736 -0.0750  0.4156  2.1435
14516SOL    HW246441   7.688   3.819   0.708 -0.4951 -0.1192 -0.2664
14517SOL     OW46442   6.716   2.249   6.393  0.6070  0.2942 -0.1803
14517SOL    HW146443   6.686   2.158   6.393  1.0297  0.0900  2.2485
14517SOL    HW246444   6.640   2.299   6.425  0.1600  0.9395 -2.1005
14518SOL     OW46445   1.690   0.860   7.412  0.4513 -0.2321  0.2844
14518SOL    HW146446   1.692   0.780   7.359  2.6288  0.4833 -0.8329
14518SOL    HW246447   1.634   0.920   7.363 -2.5273 -1.4619  1.9132
14519SOL     OW46448   2.422   8.185   5.623 -0.0264 -0.3366  0.1865
14519SOL    HW146449   2.375   8.226   5.551  1.9254  0.5797 -0.6218
14519SOL    HW246450   2.456   8.259   5.674 -0.7058 -0.9740  1.6239
14520SOL     OW46451   7.742   4.564   1.613 -0.6872  0.3245 -0.5478
14520SOL    HW146452   7.672   4.510   1.649 -1.3166  1.3833 -0.1413
14520SOL    HW246453   7.757   4.631   1.679  1.6392 -0.6068 -0.0170
14521SOL     OW46454   1.334   9.088   1.703 -0.0586 -0.0688 -0.3155
14521SOL    HW146455   1.402   9.127   1.648 -0.1994  2.0317  0.9162
14521SOL    HW246456   1.265   9.062   1.641  0.3074  1.1192 -1.2520
14522SOL     OW46457   3.284   6.555   8.628 -0.0844  0.3214 -0.1885
14522SOL    HW146458   3.214   6.587   8.571 -1.0098  0.3136  0.9086
14522SOL    HW246459   3.255   6.467   8.654 -0.1811  0.6992  1.0634
14523SOL     OW46460   2.679   3.057   4.455 -0.2773  0.0634  0.8137
14523SOL    HW146461   2.723   3.058   4.541  1.5090 -2.6663  0.0656
14523SOL    HW246462   2.749   3.071   4.392 -1.0276 -0.9639 -0.3001
14524SOL     OW46463   0.943   3.340   1.008 -0.0131 -0.2157  0.5310
14524SOL    HW146464   0.896   3.352   0.926  0.9488  0.5907  0.0733
14524SOL    HW246465   0.959   3.245   1.012  1.8859 -0.0583 -1.3855
14525SOL     OW46466   2.540   0.429   6.293 -0.5143  0.2946  0.4746
14525SOL    HW146467   2.547   0.383   6.209 -0.7591  0.2980  0.4535
14525SOL    HW246468   2.507   0.515   6.270  0.7671  0.7981  0.4106
14526SOL     OW46469   1.910   2.324   7.986  0.6618  0.0208  0.0322
14526SOL    HW146470   1.938   2.329   8.078  0.4619  1.0154  0.0565
14526SOL    HW246471   1.975   2.268   7.945  1.5827  0.6990  0.5032
14527SOL     OW46472   4.444   5.654   3.335  0.0587  0.0384  0.1010
14527SOL    HW146473   4.400   5.587   3.283 -1.7645  0.2733  1.2391
14527SOL    HW246474   4.405   5.736   3.304 -0.5366  0.2336  1.3287
14528SOL     OW46475   8.052   0.361   7.457 -0.0362  0.4595 -0.0694
14528SOL    HW146476   8.113   0.420   7.412  0.3768  0.6261  0.6958
14528SOL    HW246477   8.032   0.293   7.393  1.1963  0.2403 -0.2326
14529SOL     OW46478   2.477   5.237   3.048 -0.1125 -0.4490 -0.0450
14529SOL    HW146479   2.433   5.257   2.966  1.3279 -0.8958 -0.9522
14529SOL    HW246480   2.411   5.190   3.100 -0.8236 -0.7533 -1.2061
14530SOL     OW46481   1.680   7.411   5.313 -0.1699  0.2571 -0.2210
14530SOL    HW146482   1.713   7.359   5.387 -0.0539  0.7807  0.1007
14530SOL    HW246483   1.663   7.346   5.245  0.5452 -0.1437 -0.0381
14531SOL     OW46484   7.569   9.255   0.207  0.2381 -0.3622 -0.3842
14531SOL    HW146485   7.642   9.203   0.241 -0.5282 -0.7901  0.6649
14531SOL    HW246486   7.579   9.341   0.248  0.3764 -0.2931 -0.5605
14532SOL     OW46487   6.877   4.710   7.569 -0.6961 -0.4201 -0.1692
14532SOL    HW146488   6.797   4.720   7.621 -0.0633  1.0400  0.5980
14532SOL    HW246489   6.888   4.795   7.525 -0.5798 -1.2335 -1.7911
14533SOL     OW46490   3.157   5.903   8.356  0.1074 -0.3303  0.2131
14533SOL    HW146491   3.083   5.843   8.359 -0.0809 -0.1263 -0.2610
14533SOL    HW246492   3.117   5.990   8.350  0.3126  0.1000  3.5643
14534SOL     OW46493   2.822   2.582   9.079 -0.2170 -0.3367 -0.2122
14534SOL    HW146494   2.811   2.534   8.997 -2.4548  0.5024 -0.4542
14534SOL    HW246495   2.761   2.655   9.073  1.4950  1.2874  1.0974
14535SOL     OW46496   0.423   5.672   2.319  0.1339 -0.2115 -0.0801
14535SOL    HW146497   0.411   5.636   2.407  1.8437  0.4393  0.4610
14535SOL    HW246498   0.491   5.617   2.280 -0.3823 -0.2878 -0.8916
14536SOL     OW46499   9.156   1.013   7.198  0.0646  0.2984 -0.3188
14536SOL    HW146500   9.084   0.984   7.143 -0.1663 -0.6064  0.4501
14536SOL    HW246501   9.234   1.000   7.144 -0.2875  0.7496 -0.9443
14537SOL     OW46502   1.371   0.067   1.276 -0.1052 -0.0304 -0.4393
14537SOL    HW146503   1.297   0.012   1.302  0.1648  0.2211  0.9291
14537SOL    HW246504   1.391   0.040   1.187 -1.1316 -0.8869 -0.4223
14538SOL     OW46505   2.548   0.822   0.674 -0.2938  0.4178 -0.5265
14538SOL    HW146506   2.559   0.744   0.620  1.1634  0.4401 -0.2964
14538SOL    HW246507   2.471   0.803   0.729  0.8833 -1.4898  0.5726
14539SOL     OW46508   8.136   9.151   0.353 -0.0724 -0.3720  0.2563
14539SOL    HW146509   8.127   9.244   0.374  0.4176  0.2280 -1.9308
14539SOL    HW246510   8.049   9.114   0.368 -0.9117  0.9667 -1.0185
14540SOL     OW46511   7.685   2.394   7.236 -0.2851 -0.0225  0.2294
14540SOL    HW146512   7.756   2.360   7.291 -0.1271  1.3898  0.9493
14540SOL    HW246513   7.615   2.328   7.243  0.7934 -1.2622 -0.2164
14541SOL     OW46514   2.454   7.657   1.837 -0.1158  0.1269 -0.2510
14541SOL    HW146515   2.503   7.684   1.759 -0.3278  0.6423 -0.2083
14541SOL    HW246516   2.379   7.609   1.802 -1.2373  1.9724 -0.4732
14542SOL     OW46517   4.856   6.449   2.389  0.8193  0.1194  0.0218
14542SOL    HW146518   4.888   6.397   2.462 -0.6477  0.5210  1.0001
14542SOL    HW246519   4.917   6.522   2.382  0.2959  0.7620  1.7006
14543SOL     OW46520   8.770   1.970   5.976 -0.1720 -0.5712  0.3990
14543SOL    HW146521   8.736   2.015   5.898  1.2639  0.4652  0.3288
14543SOL    HW246522   8.724   2.011   6.049  1.3834  1.3414  0.3638
14544SOL     OW46523   0.980   1.628   4.328 -0.4378  0.1649  0.0489
14544SOL    HW146524   1.054   1.626   4.268 -0.6018 -1.1665 -0.1351
14544SOL    HW246525   0.955   1.721   4.333  0.5709  0.4864 -0.6928
14545SOL     OW46526   5.486   8.716   6.319 -0.6300 -0.1774 -0.0576
14545SOL    HW146527   5.545   8.640   6.320 -0.1805  0.1510 -0.9583
14545SOL    HW246528   5.512   8.766   6.242 -0.1973  1.4704  1.1112
14546SOL     OW46529   6.378   4.538   2.998 -0.7098  0.1754 -0.0849
14546SOL    HW146530   6.365   4.614   2.941  0.5814  0.0814 -0.5346
14546SOL    HW246531   6.301   4.483   2.983 -1.2832  1.0313 -0.3279
14547SOL     OW46532   1.773   1.353   3.503  0.4331 -0.0456  0.3552
14547SOL    HW146533   1.831   1.415   3.457  0.1769 -0.4955 -0.5964
14547SOL    HW246534   1.686   1.392   3.496  0.2151 -0.6724 -0.5570
14548SOL     OW46535   5.225   4.201   5.856 -0.2696 -0.1820 -0.0152
14548SOL    HW146536   5.257   4.273   5.802 -0.4608 -0.1007 -0.0185
14548SOL    HW246537   5.258   4.219   5.944 -1.5936  0.7248  0.3228
14549SOL     OW46538   6.936   5.849   2.760 -0.5163 -0.1487 -0.2605
14549SOL    HW146539   6.954   5.869   2.669  1.5541 -1.0002 -0.0915
14549SOL    HW246540   6.945   5.753   2.766  0.9017  0.0265  1.0861
14550SOL     OW46541   4.599   4.808   2.999  0.0727 -0.1038 -0.1961
14550SOL    HW146542   4.626   4.722   2.967  2.9175  0.7121 -0.3135
14550SOL    HW246543   4.531   4.837   2.938  0.4263 -1.4800 -1.2800
14551SOL     OW46544   7.607   1.140   4.435 -0.3009 -0.2821 -0.0714
14551SOL    HW146545   7.594   1.213   4.375  2.6999  1.0841  0.7827
14551SOL    HW246546   7.626   1.065   4.378 -0.5875  0.2408 -0.8690
14552SOL     OW46547   2.406   0.271   3.189  0.1309 -0.5264  0.0168
14552SOL    HW146548   2.437   0.352   3.229  0.3243 -0.7491  0.3219
14552SOL    HW246549   2.333   0.298   3.134  1.4250  0.1471 -1.4468
14553SOL     OW46550   4.080   3.165   6.299 -0.2582  0.3259  0.1434
14553SOL    HW146551   4.150   3.186   6.361  0.8842  0.8930 -1.2670
14553SOL    HW246552   4.054   3.076   6.322 -0.6065  0.8743  2.0689
14554SOL     OW46553   2.682   8.651   3.738 -0.0078 -0.0752 -0.1627
14554SOL    HW146554   2.720   8.682   3.655 -0.1586  0.1514 -0.1491
14554SOL    HW246555   2.748   8.672   3.804  1.1609 -2.3601 -0.5075
14555SOL     OW46556   3.069   4.648   7.278 -0.1217  0.0800  0.5666
14555SOL    HW146557   3.148   4.595   7.275 -1.1441 -1.5152 -0.6496
14555SOL    HW246558   3.064   4.689   7.191 -1.5946 -1.4595 -0.1458
14556SOL     OW46559   2.751   2.632   1.903  0.4325  0.5704 -0.0453
14556SOL    HW146560   2.756   2.537   1.902  1.1313  0.5857 -1.3405
14556SOL    HW246561   2.706   2.654   1.984 -0.3948 -0.8878 -0.0899
14557SOL     OW46562   2.740   3.266   6.166 -0.1666  0.1783 -0.6412
14557SOL    HW146563   2.665   3.207   6.163 -0.0730 -0.0745  1.1223
14557SOL    HW246564   2.711   3.338   6.222  0.8413  0.1375 -0.0438
14558SOL     OW46565   9.118   1.348   3.614  0.3312  0.6059  0.0682
14558SOL    HW146566   9.198   1.295   3.609 -0.6250 -1.1177  1.8487
14558SOL    HW246567   9.126   1.409   3.540  1.7914 -1.6042 -1.7598
14559SOL     OW46568   5.837   1.781   6.476  0.0735 -0.1126 -0.2585
14559SOL    HW146569   5.784   1.860   6.468 -0.9997 -0.7831  0.0448
14559SOL    HW246570   5.887   1.793   6.557 -0.1445  0.2117 -0.1733
14560SOL     OW46571   6.921   7.955   9.065  0.0869 -0.1706 -0.2894
14560SOL    HW146572   6.996   8.005   9.098  1.8417 -3.3407  0.9910
14560SOL    HW246573   6.941   7.940   8.972  0.8929 -0.6591 -0.0487
14561SOL     OW46574   1.217   8.135   0.891  0.1717 -0.0974 -0.0316
14561SOL    HW146575   1.136   8.185   0.884  0.1095  0.2171  2.1253
14561SOL    HW246576   1.192   8.055   0.939  1.0391 -0.1671  0.3275
14562SOL     OW46577   1.813   8.625   8.527  0.4843  0.7341  0.0177
14562SOL    HW146578   1.894   8.588   8.563 -0.3480 -0.8147  0.3801
14562SOL    HW246579   1.836   8.715   8.505  2.9509 -0.2761 -1.9886
14563SOL     OW46580   0.270   6.839   5.775 -0.0331  0.6214 -0.5286
14563SOL    HW146581   0.352   6.869   5.814  0.4785  0.9490 -1.8167
14563SOL    HW246582   0.257   6.896   5.699 -1.7541  0.9579 -0.0328
14564SOL     OW46583   7.185   3.587   5.047  0.2452 -0.0240 -0.3509
14564SOL    HW146584   7.213   3.505   5.005 -0.1350 -0.9157  1.0481
14564SOL    HW246585   7.090   3.578   5.056  0.1354  0.8048 -0.6525
14565SOL     OW46586   3.849   3.239   7.677  0.1017 -0.1668 -0.1454
14565SOL    HW146587   3.942   3.242   7.700 -0.0419 -0.6359  0.5093
14565SOL    HW246588   3.818   3.156   7.713 -0.3834 -0.4034 -1.0904
14566SOL     OW46589   0.880   7.051   0.603  0.0139 -0.1699 -0.0016
14566SOL    HW146590   0.789   7.044   0.632 -0.8296  0.1857 -2.3288
14566SOL    HW246591   0.876   7.036   0.508  2.1682  1.4142 -0.4124
14567SOL     OW46592   3.039   0.495   4.360 -0.4338  0.0356  0.2749
14567SOL    HW146593   2.965   0.435   4.370 -1.8835  1.8502  0.8661
14567SOL    HW246594   3.036   0.522   4.268  1.0422 -1.7461 -0.3538
14568SOL     OW46595   6.192   6.439   2.296 -0.1143  0.0886 -0.0222
14568SOL    HW146596   6.213   6.394   2.214 -0.5467  2.1630 -1.3484
14568SOL    HW246597   6.132   6.380   2.341 -0.8588 -0.5579 -1.7809
14569SOL     OW46598   0.153   1.595   3.811  0.1210 -0.0168  0.4456
14569SOL    HW146599   0.085   1.579   3.877 -1.5252 -0.0039 -1.1621
14569SOL    HW246600   0.123   1.674   3.765  2.5207  1.4618  1.2288
14570SOL     OW46601   2.868   6.258   5.894 -0.2942 -0.2541  1.1326
14570SOL    HW146602   2.836   6.344   5.870 -1.0408 -1.0370 -0.8721
14570SOL    HW246603   2.898   6.219   5.812  0.4271 -1.7498  2.0489
14571SOL     OW46604   1.136   4.444   9.018  0.0565  0.3078 -0.0521
14571SOL    HW146605   1.059   4.457   8.962  1.5001 -0.2213 -2.3122
14571SOL    HW246606   1.126   4.357   9.054 -0.2951  0.1288 -0.5702
14572SOL     OW46607   7.522   2.598   3.297 -0.4784  0.1696 -0.2950
14572SOL    HW146608   7.467   2.559   3.365  0.9295 -2.3069 -0.4251
14572SOL    HW246609   7.564   2.522   3.255  1.9904  1.8427 -1.0612
14573SOL     OW46610   5.908   7.848   7.153 -0.4994 -0.8501  0.0032
14573SOL    HW146611   5.864   7.903   7.088  0.3870 -0.7444 -0.5251
14573SOL    HW246612   5.876   7.880   7.237  0.2146  0.6931 -0.2672
14574SOL     OW46613   2.232   7.441   6.114 -0.3068 -0.1170  0.1364
14574SOL    HW146614   2.306   7.421   6.058  0.2785  1.8284  0.1311
14574SOL    HW246615   2.247   7.531   6.142 -1.7287 -0.2930  1.6297
14575SOL     OW46616   1.415   2.248   8.811  0.0782  0.1370  0.2805
14575SOL    HW146617   1.384   2.169   8.855  0.8930 -0.9718 -1.0757
14575SOL    HW246618   1.335   2.291   8.780 -0.3528 -0.2843  0.7931
14576SOL     OW46619   2.286   9.045   5.658 -0.1957 -0.3575  0.0215
14576SOL    HW146620   2.323   8.959   5.638  0.6425  0.2101 -0.9637
14576SOL    HW246621   2.313   9.100   5.584  1.8830  1.5118  2.0119
14577SOL     OW46622   8.407   8.028   6.943  0.7725  0.3084 -0.5193
14577SOL    HW146623   8.355   8.060   7.016  0.8359 -0.7935  0.0245
14577SOL    HW246624   8.478   8.091   6.935  1.0922  0.1395  0.7579
14578SOL     OW46625   5.617   2.600   8.302  0.3998  0.2078  0.2220
14578SOL    HW146626   5.704   2.571   8.274 -0.1862  0.8353 -2.6482
14578SOL    HW246627   5.559   2.528   8.280 -0.0956  0.6877 -0.0820
14579SOL     OW46628   3.045   4.179   2.569  0.3440 -0.2401 -0.2747
14579SOL    HW146629   3.121   4.132   2.603 -0.0564 -0.4786  0.2969
14579SOL    HW246630   3.081   4.238   2.503  1.2647  0.7629  1.0489
14580SOL     OW46631   4.445   7.163   0.744 -0.0533  0.5829  0.2773
14580SOL    HW146632   4.391   7.129   0.673 -1.3496  1.9837  0.5080
14580SOL    HW246633   4.416   7.254   0.753  0.2636  0.5282  2.3941
14581SOL     OW46634   0.048   3.459   1.124 -0.1050 -0.0376 -0.3547
14581SOL    HW146635   0.003   3.541   1.142  3.1867  2.0142 -0.4766
14581SOL    HW246636   0.017   3.432   1.038 -1.0936  1.2242 -0.4209
14582SOL     OW46637   5.933   3.961   2.864 -0.0152 -0.3327 -0.0269
14582SOL    HW146638   5.889   3.977   2.780  0.1958  0.3837 -0.0045
14582SOL    HW246639   5.915   4.039   2.915  1.4412  0.0597 -0.0762
14583SOL     OW46640   9.082   6.545   4.331  0.0747  0.1979 -0.3663
14583SOL    HW146641   9.040   6.600   4.398 -0.8246  0.2545 -0.9579
14583SOL    HW246642   9.150   6.498   4.378  0.4364  1.3353  0.2930
14584SOL     OW46643   2.573   8.765   3.229 -0.5575  0.1728  0.2021
14584SOL    HW146644   2.505   8.801   3.286  1.3739  3.3095  0.8059
14584SOL    HW246645   2.619   8.702   3.283 -1.7177 -0.4961  0.4433
14585SOL     OW46646   6.272   6.648   7.282 -0.8023 -0.1188 -0.2058
14585SOL    HW146647   6.282   6.735   7.321 -1.1886 -0.0393 -0.2846
14585SOL    HW246648   6.350   6.600   7.311  0.5399  0.9126 -1.9014
14586SOL     OW46649   4.027   3.847   3.930 -0.3888  0.7218 -0.3025
14586SOL    HW146650   3.951   3.789   3.934 -0.2471  0.4772 -0.9836
14586SOL    HW246651   3.990   3.935   3.931 -0.6611  0.6083 -0.2560
14587SOL     OW46652   4.081   3.505   7.555 -0.5030 -0.2829  0.2160
14587SOL    HW146653   4.011   3.568   7.572 -0.7111 -0.6446  0.7132
14587SOL    HW246654   4.044   3.447   7.488 -0.4819 -0.1573  0.0943
14588SOL     OW46655   6.289   2.261   6.782  0.2063 -0.5483 -0.0494
14588SOL    HW146656   6.254   2.349   6.795  0.8663 -0.3648  0.5543
14588SOL    HW246657   6.376   2.264   6.820 -0.1901 -1.7931  1.0280
14589SOL     OW46658   1.600   2.487   5.182  0.0781 -0.0481  0.3495
14589SOL    HW146659   1.629   2.565   5.229 -0.3608 -0.2534  0.9717
14589SOL    HW246660   1.505   2.492   5.183  0.0346 -0.7819  0.7388
14590SOL     OW46661   6.568   2.414   8.171 -0.0581  0.6123  0.0905
14590SOL    HW146662   6.487   2.460   8.151  0.2430  0.9307 -0.3878
14590SOL    HW246663   6.563   2.333   8.120 -0.5315  0.1509  0.8385
14591SOL     OW46664   5.843   8.573   0.896  0.3480 -0.1648  0.1916
14591SOL    HW146665   5.822   8.554   0.805 -0.9102  0.5355  0.3179
14591SOL    HW246666   5.880   8.661   0.895 -1.0490  0.4626  0.4946
14592SOL     OW46667   8.628   9.208   7.829  0.4151  0.2520 -0.3881
14592SOL    HW146668   8.628   9.138   7.895  1.0650  0.4658 -0.1585
14592SOL    HW246669   8.672   9.170   7.753 -0.3452  0.0017 -0.7190
14593SOL     OW46670   8.464   0.386   1.072 -0.4514  0.8705 -0.3439
14593SOL    HW146671   8.397   0.326   1.103  0.8488 -1.3540 -1.5402
14593SOL    HW246672   8.480   0.445   1.146  0.0192 -1.9135  1.9522
14594SOL     OW46673   1.944   0.575   3.677  0.3497  0.0606  0.4482
14594SOL    HW146674   1.866   0.617   3.712  0.1294  0.5379 -0.6080
14594SOL    HW246675   1.930   0.571   3.583  0.8453 -1.4104  0.4131
14595SOL     OW46676   1.327   6.490   7.678  0.3271  0.0689  0.8499
14595SOL    HW146677   1.385   6.429   7.633 -3.1494 -1.8369 -1.5295
14595SOL    HW246678   1.285   6.437   7.746 -2.3784 -0.2378 -0.9257
14596SOL     OW46679   7.060   6.618   5.072  0.3385  0.4792 -0.1256
14596SOL    HW146680   7.106   6.673   5.009 -0.2091  0.9223 -0.1473
14596SOL    HW246681   7.019   6.550   5.017 -1.2571  1.6302 -0.4401
14597SOL     OW46682   6.208   6.656   2.109  0.1184  0.2731 -0.1208
14597SOL    HW146683   6.212   6.729   2.171  0.7744 -0.7066  1.0110
14597SOL    HW246684   6.209   6.578   2.163  1.9893 -0.6543 -1.3953
14598SOL     OW46685   1.059   4.188   8.214 -0.2413  0.3277 -0.5425
14598SOL    HW146686   1.125   4.119   8.219  0.5075  1.0864  2.5877
14598SOL    HW246687   0.980   4.148   8.250 -0.8539  0.1381 -2.0248
14599SOL     OW46688   4.072   7.282   3.253  0.0486  0.2561  0.1006
14599SOL    HW146689   4.058   7.356   3.312  1.2901  1.5244 -1.0843
14599SOL    HW246690   3.984   7.251   3.231 -0.4384 -0.5751  2.9061
14600SOL     OW46691   8.439   8.655   5.318  0.0763  0.0568  0.1096
14600SOL    HW146692   8.511   8.595   5.298 -0.3915 -0.4748  0.0127
14600SOL    HW246693   8.360   8.605   5.301 -0.3280  0.9108 -0.6322
14601SOL     OW46694   1.527   4.178   7.708 -0.3688 -0.2278  0.1440
14601SOL    HW146695   1.578   4.162   7.787 -0.9979 -1.3871  0.3302
14601SOL    HW246696   1.532   4.273   7.695  1.1585 -0.2183  0.5988
14602SOL     OW46697   6.569   6.114   3.442  0.7473 -0.0884 -0.3610
14602SOL    HW146698   6.632   6.044   3.460  1.6597  0.7866 -0.0123
14602SOL    HW246699   6.530   6.090   3.358  0.3487 -1.4816  0.1917
14603SOL     OW46700   4.981   7.597   1.915  0.1628 -0.3553 -0.4349
14603SOL    HW146701   5.046   7.668   1.910 -0.0155 -0.1964 -0.5273
14603SOL    HW246702   4.939   7.611   2.000  1.3006 -1.3878  0.3335
14604SOL     OW46703   6.827   7.181   3.896 -0.5595  0.0560  0.0374
14604SOL    HW146704   6.736   7.211   3.889 -0.3166  1.0419  0.9920
14604SOL    HW246705   6.865   7.234   3.965  0.7617 -0.3430 -0.3579
14605SOL     OW46706   9.023   7.924   3.702  0.2479 -0.1159  0.2421
14605SOL    HW146707   9.085   7.865   3.744 -1.8469 -1.6546  1.3463
14605SOL    HW246708   8.985   7.873   3.631 -0.9657  0.1702  0.6583
14606SOL     OW46709   3.962   6.155   0.979 -0.1480 -0.3388 -0.3623
14606SOL    HW146710   3.914   6.083   0.938 -0.2462 -0.1333 -0.6113
14606SOL    HW246711   3.994   6.207   0.905  1.1255 -0.8960 -0.2308
14607SOL     OW46712   8.735   3.349   1.732  0.1758  0.3522 -0.3545
14607SOL    HW146713   8.747   3.424   1.791 -0.8571 -0.9660  1.6482
14607SOL    HW246714   8.796   3.283   1.764  0.8129  0.1759 -1.8697
14608SOL     OW46715   6.899   5.245   8.881  0.2787 -0.3028 -0.2616
14608SOL    HW146716   6.874   5.291   8.961  1.5341 -0.0469 -0.0107
14608SOL    HW246717   6.989   5.217   8.895  0.1953 -1.1051 -1.2063
14609SOL     OW46718   1.901   4.911   6.112 -0.2572 -0.1777 -0.1282
14609SOL    HW146719   1.910   4.978   6.045 -0.3427  1.1301  1.1321
14609SOL    HW246720   1.810   4.919   6.142 -0.9602 -2.3379 -1.4384
14610SOL     OW46721   1.282   1.854   1.795 -0.6890 -0.0275 -0.2128
14610SOL    HW146722   1.279   1.936   1.844  0.1963  0.0149 -0.2011
14610SOL    HW246723   1.354   1.866   1.733 -1.6761 -0.1522 -1.4064
14611SOL     OW46724   4.708   7.517   0.284 -0.3564  0.0000 -0.1364
14611SOL    HW146725   4.614   7.498   0.285 -0.4793  0.5937  0.8352
14611SOL    HW246726   4.746   7.452   0.343 -0.2501  0.2188  0.0370
14612SOL     OW46727   7.841   6.607   5.091 -0.4306  0.0180  0.4884
14612SOL    HW146728   7.918   6.576   5.139 -0.2851  1.4289  1.2152
14612SOL    HW246729   7.857   6.581   5.000  1.4648  1.2604  0.4157
14613SOL     OW46730   3.683   1.886   6.033  0.1695  0.2720 -0.5081
14613SOL    HW146731   3.620   1.902   5.962  0.8407  1.9231 -0.7695
14613SOL    HW246732   3.753   1.836   5.992 -1.0571 -1.8687 -0.1423
14614SOL     OW46733   5.468   8.221   1.035  0.1329 -0.7622 -0.2037
14614SOL    HW146734   5.496   8.224   1.126 -1.2482  1.1659  0.2157
14614SOL    HW246735   5.442   8.311   1.014  1.2220 -0.9368 -2.7942
14615SOL     OW46736   3.504   2.759   6.876 -0.5257  0.2570 -0.5136
14615SOL    HW146737   3.424   2.804   6.905 -1.1636 -0.7768 -0.5985
14615SOL    HW246738   3.550   2.824   6.823 -1.0087  1.0704  0.0400
14616SOL     OW46739   5.462   3.194   6.445  0.0615 -0.5110  0.1746
14616SOL    HW146740   5.462   3.279   6.400  0.6763 -1.1437 -1.0796
14616SOL    HW246741   5.370   3.169   6.448  0.0172 -0.5746 -1.0214
14617SOL     OW46742   7.863   7.821   7.422  0.0385  0.0510 -0.5351
14617SOL    HW146743   7.886   7.746   7.367 -0.0875 -1.2012  1.0479
14617SOL    HW246744   7.769   7.809   7.439 -0.0613  0.7837 -0.5752
14618SOL     OW46745   4.977   3.001   2.113  0.0849  0.2671 -0.0254
14618SOL    HW146746   5.009   3.063   2.178  0.9827  0.8542 -0.9997
14618SOL    HW246747   5.051   2.985   2.055 -0.4242 -0.9601 -0.3817
14619SOL     OW46748   4.756   3.536   7.955  0.2586  0.6545 -0.6076
14619SOL    HW146749   4.715   3.546   8.041 -2.4232 -2.3523 -1.3620
14619SOL    HW246750   4.700   3.585   7.896  1.1584  1.3231 -0.9396
14620SOL     OW46751   4.266   3.478   3.956 -0.4078  0.3348  0.4034
14620SOL    HW146752   4.340   3.422   3.977  0.5831  1.1844 -0.7151
14620SOL    HW246753   4.225   3.436   3.880 -1.8324 -0.7793  1.7225
14621SOL     OW46754   8.098   0.124   6.079 -0.0520  0.9191  0.6266
14621SOL    HW146755   8.118   0.062   6.009  0.5383  0.3715  1.2688
14621SOL    HW246756   8.007   0.150   6.062 -0.2011  0.1357  0.1571
14622SOL     OW46757   3.987   8.570   0.044 -0.3063  0.4102 -0.4398
14622SOL    HW146758   4.035   8.648   0.070 -0.7658  0.9212 -1.1022
14622SOL    HW246759   3.916   8.602  -0.011 -0.1627 -0.5159 -1.1995
14623SOL     OW46760   7.172   0.820   1.829 -0.0158  0.2568  0.6438
14623SOL    HW146761   7.240   0.856   1.886  2.7237 -2.9618 -0.3206
14623SOL    HW246762   7.101   0.797   1.889  0.8886  1.1073  2.0964
14624SOL     OW46763   1.706   0.225   7.450 -0.1436  0.2725  0.2201
14624SOL    HW146764   1.649   0.269   7.386 -0.9478 -1.1885 -0.1005
14624SOL    HW246765   1.790   0.270   7.441  0.4688 -1.1944 -3.4406
14625SOL     OW46766   1.477   3.083   7.797 -0.0756 -0.0895  0.3553
14625SOL    HW146767   1.554   3.057   7.747 -0.2917 -2.6369  1.2059
14625SOL    HW246768   1.511   3.105   7.884 -0.4212 -3.4768  1.4603
14626SOL     OW46769   2.443   0.257   0.464 -0.4368  0.2060  0.3788
14626SOL    HW146770   2.367   0.305   0.431 -2.3155 -1.7826  1.4905
14626SOL    HW246771   2.434   0.169   0.425  0.9286 -0.2796  1.0906
14627SOL     OW46772   6.797   7.836   7.192  0.4324 -0.4446  0.3638
14627SOL    HW146773   6.801   7.911   7.132 -0.5395  0.1454  1.0167
14627SOL    HW246774   6.879   7.789   7.176 -0.3259 -1.0210 -2.3294
14628SOL     OW46775   8.379   6.325   3.201 -0.0385  0.1007  0.5373
14628SOL    HW146776   8.397   6.271   3.278 -0.6396 -0.0874  0.5466
14628SOL    HW246777   8.352   6.409   3.237 -0.9754 -0.1950  0.5464
14629SOL     OW46778   8.380   8.522   9.103  0.1082  0.2585 -0.1457
14629SOL    HW146779   8.301   8.480   9.138  0.6607 -0.1720  0.6353
14629SOL    HW246780   8.452   8.475   9.145  0.7578  1.8480  0.6160
14630SOL     OW46781   2.703   6.212   8.790 -0.5558  0.2888 -0.1773
14630SOL    HW146782   2.691   6.146   8.858 -0.7370 -0.0077 -0.4936
14630SOL    HW246783   2.623   6.207   8.738 -1.2153  1.7610  0.6456
14631SOL     OW46784   3.560   4.283   5.784  0.0533  0.5954 -0.2116
14631SOL    HW146785   3.612   4.235   5.719  0.5741  0.8930 -0.0260
14631SOL    HW246786   3.534   4.218   5.848 -1.2428  0.1219 -1.1965
14632SOL     OW46787   0.760   5.807   8.054 -0.0520 -0.0786 -0.0580
14632SOL    HW146788   0.698   5.830   8.124  0.7215 -0.8008  0.8849
14632SOL    HW246789   0.816   5.885   8.046  0.7155 -0.4845  1.0969
14633SOL     OW46790   0.030   7.579   4.787  0.3351 -0.0711  0.1307
14633SOL    HW146791   0.009   7.502   4.839 -1.4079  0.1689 -0.1481
14633SOL    HW246792   0.067   7.544   4.705 -0.3987 -0.6253  0.0228
14634SOL     OW46793   0.976   9.022   5.387  0.6454  0.1963 -0.2248
14634SOL    HW146794   0.996   9.057   5.474  0.8029  2.0856 -0.9879
14634SOL    HW246795   0.880   9.021   5.383  0.6279  1.5048 -0.5389
14635SOL     OW46796   7.322   3.230   6.432 -0.4651 -0.4707 -0.2964
14635SOL    HW146797   7.300   3.192   6.346  0.1315 -0.7263 -0.3465
14635SOL    HW246798   7.382   3.302   6.411  0.0306 -0.8112 -0.0741
14636SOL     OW46799   4.603   5.059   4.465  0.5295 -0.0336 -0.0155
14636SOL    HW146800   4.628   4.984   4.411  0.1047  0.5446 -1.0487
14636SOL    HW246801   4.522   5.092   4.425  0.4057  0.6353  0.7535
14637SOL     OW46802   8.536   0.224   3.040  0.1210  0.1930  0.3731
14637SOL    HW146803   8.610   0.265   3.085  0.5801  0.3683 -0.5042
14637SOL    HW246804   8.525   0.276   2.960  1.1941 -1.7714 -1.1607
14638SOL     OW46805   3.735   3.956   6.023 -0.3210 -0.6328  0.3673
14638SOL    HW146806   3.675   3.935   5.952 -0.8686 -0.0109  0.6390
14638SOL    HW246807   3.687   3.934   6.103 -0.8129  1.3246  0.6534
14639SOL     OW46808   8.302   8.201   0.789 -0.1699 -0.3715 -0.1845
14639SOL    HW146809   8.316   8.227   0.698 -0.7595 -0.6056 -0.3462
14639SOL    HW246810   8.369   8.249   0.838 -2.0652  2.7033 -0.2838
14640SOL     OW46811   9.076   3.229   2.237  0.6852  0.3548 -0.7179
14640SOL    HW146812   9.000   3.199   2.286  0.8954  2.1007  0.7784
14640SOL    HW246813   9.040   3.267   2.157  0.2225 -1.0872 -1.2292
14641SOL     OW46814   0.598   4.455   8.986  0.5780 -0.3622  0.3402
14641SOL    HW146815   0.545   4.380   9.013  0.4830  0.3746  2.3995
14641SOL    HW246816   0.543   4.503   8.924 -0.1870 -0.8892  0.6016
14642SOL     OW46817   1.192   4.755   0.521  0.3895 -0.2704  0.1843
14642SOL    HW146818   1.224   4.793   0.439  1.0133 -0.1549  0.4743
14642SOL    HW246819   1.197   4.827   0.584 -2.5945  0.4423 -0.2321
14643SOL     OW46820   7.768   6.708   2.784 -0.2202 -0.4602  0.0944
14643SOL    HW146821   7.723   6.697   2.867  1.1559 -3.7047  0.5823
14643SOL    HW246822   7.823   6.785   2.797 -1.6224  0.3843  1.3599
14644SOL     OW46823   3.172   5.027   8.504  0.6325  0.0820  0.1669
14644SOL    HW146824   3.236   5.068   8.446 -1.1036  0.4497 -1.6136
14644SOL    HW246825   3.115   5.099   8.531  1.0522 -0.1961  1.8924
14645SOL     OW46826   3.951   5.660   0.488  0.4332 -0.5788 -0.6723
14645SOL    HW146827   3.943   5.691   0.397 -1.0489  1.4996  0.0767
14645SOL    HW246828   3.951   5.740   0.540  3.4947 -1.5851  1.1279
14646SOL     OW46829   6.234   6.083   2.897 -0.0920 -0.0839 -0.6531
14646SOL    HW146830   6.329   6.088   2.885  0.0664  0.7328  0.7633
14646SOL    HW246831   6.206   6.174   2.908 -0.6712 -0.4714  1.3689
14647SOL     OW46832   3.700   2.292   8.081 -0.1508 -0.5677  0.1140
14647SOL    HW146833   3.776   2.349   8.068 -0.9279  0.9617  1.8975
14647SOL    HW246834   3.734   2.219   8.132  0.1478  0.1123  0.9092
14648SOL     OW46835   2.753   4.512   0.201  0.1666  0.3554 -0.2417
14648SOL    HW146836   2.825   4.573   0.187  0.1127  0.0747 -1.9029
14648SOL    HW246837   2.759   4.490   0.294  2.1422  0.4409 -0.2950
14649SOL     OW46838   0.973   5.341   3.780  0.0592  0.7139  0.2669
14649SOL    HW146839   0.923   5.261   3.791  0.7207  0.6360  4.1894
14649SOL    HW246840   0.909   5.411   3.795  0.1069  0.8109  0.0217
14650SOL     OW46841   2.572   3.130   5.866  0.3158 -0.1389 -0.0624
14650SOL    HW146842   2.524   3.121   5.948  0.3609 -2.2544 -0.2127
14650SOL    HW246843   2.516   3.183   5.810  0.8417  2.4413  1.7051
14651SOL     OW46844   7.685   3.223   1.730  0.3660 -0.3683  0.5456
14651SOL    HW146845   7.770   3.252   1.764 -0.1313 -0.4213  1.8871
14651SOL    HW246846   7.644   3.304   1.698  0.4064 -0.1229  1.0882
14652SOL     OW46847   4.219   3.064   0.242  0.0770  0.2655 -0.2698
14652SOL    HW146848   4.136   3.088   0.283  0.6394  1.4582  0.2142
14652SOL    HW246849   4.208   3.088   0.150 -0.0106  0.7218 -0.1424
14653SOL     OW46850   8.065   2.364   2.652  0.4226  0.3815 -0.0603
14653SOL    HW146851   8.054   2.446   2.604  0.0775  0.4263  0.0929
14653SOL    HW246852   8.131   2.316   2.602  2.1846  1.6146  0.9950
14654SOL     OW46853   5.539   6.378   5.672  0.2242 -0.4954  0.4694
14654SOL    HW146854   5.628   6.345   5.671 -0.1766 -1.6589 -0.5937
14654SOL    HW246855   5.498   6.337   5.595 -0.3996  2.3261 -0.8184
14655SOL     OW46856   7.428   7.347   5.544 -0.5103  0.1636 -0.0314
14655SOL    HW146857   7.373   7.269   5.550  1.1012 -1.2090 -1.9633
14655SOL    HW246858   7.373   7.412   5.500 -1.0315 -0.7623 -0.7780
14656SOL     OW46859   2.872   6.378   6.763  0.4367 -0.1596  0.3771
14656SOL    HW146860   2.830   6.463   6.746 -1.1157 -0.8583  0.5361
14656SOL    HW246861   2.809   6.313   6.732  2.1100 -1.2726 -0.8847
14657SOL     OW46862   0.096   0.430   8.513 -0.3553  0.1057  0.4498
14657SOL    HW146863   0.181   0.472   8.514 -0.1391 -0.2310 -1.0195
14657SOL    HW246864   0.113   0.339   8.539 -0.2959  0.0943  0.3714
14658SOL     OW46865   5.831   2.613   1.121  0.2162 -0.0732  0.2443
14658SOL    HW146866   5.800   2.617   1.211  0.6990 -2.2314  0.5577
14658SOL    HW246867   5.850   2.520   1.106  0.3847  0.2746 -2.0035
14659SOL     OW46868   3.253   2.878   6.633 -0.2596 -0.0128  0.4059
14659SOL    HW146869   3.226   2.899   6.722  0.0617 -0.6788  0.6605
14659SOL    HW246870   3.278   2.786   6.636 -0.0876  0.0041 -0.3359
14660SOL     OW46871   0.079   4.358   7.691  0.4636  0.0887 -0.6961
14660SOL    HW146872   0.165   4.326   7.718  1.2151  1.2788 -1.5874
14660SOL    HW246873   0.019   4.286   7.713  1.8179 -1.1913 -1.0294
14661SOL     OW46874   6.908   8.018   8.366 -0.1214 -0.1547 -0.3810
14661SOL    HW146875   6.956   7.948   8.323 -1.0872 -0.5099 -0.9180
14661SOL    HW246876   6.959   8.039   8.444  0.1894 -1.4453 -0.2287
14662SOL     OW46877   4.185   2.296   4.711  0.3515 -0.1639  0.0386
14662SOL    HW146878   4.116   2.233   4.691 -0.0235 -0.6721  2.5308
14662SOL    HW246879   4.215   2.271   4.799 -0.1519  3.3988  1.3910
14663SOL     OW46880   7.315   0.350   2.086  0.2250 -0.3593 -0.0273
14663SOL    HW146881   7.377   0.404   2.038  1.9504 -3.0830 -1.1237
14663SOL    HW246882   7.358   0.265   2.094 -2.6970 -1.9261  0.6453
14664SOL     OW46883   3.280   5.084   2.062 -0.0918 -0.6988 -0.1194
14664SOL    HW146884   3.311   4.999   2.094 -0.3939 -0.7783 -0.0349
14664SOL    HW246885   3.196   5.097   2.106  1.0550  0.7701  1.8202
14665SOL     OW46886   1.383   6.855   1.474 -0.2812 -0.4660  0.0261
14665SOL    HW146887   1.310   6.905   1.438  1.3953  1.7162 -0.5646
14665SOL    HW246888   1.451   6.860   1.407  0.5300 -2.2310  0.6547
14666SOL     OW46889   7.526   8.014   7.450  0.0058  0.1826  0.6775
14666SOL    HW146890   7.529   8.089   7.509 -2.3761 -0.7256  2.0878
14666SOL    HW246891   7.439   8.018   7.411 -0.4068 -2.1044  1.2170
14667SOL     OW46892   6.852   3.854   6.696  0.3459 -0.2807  0.2754
14667SOL    HW146893   6.860   3.876   6.603  0.3858 -1.9596 -0.1406
14667SOL    HW246894   6.864   3.759   6.699  0.2661 -0.2524  1.9939
14668SOL     OW46895   8.024   2.496   1.351 -0.0682 -0.2900  0.2439
14668SOL    HW146896   7.997   2.582   1.383 -1.5035 -0.2738 -0.8750
14668SOL    HW246897   8.117   2.504   1.334 -0.0407  0.8243  0.8356
14669SOL     OW46898   5.865   1.366   7.419 -0.1828  0.1525  0.0095
14669SOL    HW146899   5.810   1.437   7.388 -0.0437  0.7529  1.0841
14669SOL    HW246900   5.835   1.349   7.509  1.1650  0.3011  0.5145
14670SOL     OW46901   7.940   1.179   2.190 -0.3347  0.4415 -0.1116
14670SOL    HW146902   7.860   1.228   2.206  0.1447  1.6689 -1.2815
14670SOL    HW246903   8.009   1.245   2.182  0.6453 -0.5272 -0.0196
14671SOL     OW46904   3.019   6.802   0.182 -0.2139 -0.4292 -0.2727
14671SOL    HW146905   3.055   6.767   0.263 -0.8357  1.0267  0.6588
14671SOL    HW246906   3.096   6.821   0.128  0.3328  0.6797  0.8587
14672SOL     OW46907   6.607   7.980   1.052 -0.6552  0.2704  0.5468
14672SOL    HW146908   6.604   7.902   0.997  0.4425 -0.8066  1.9315
14672SOL    HW246909   6.664   7.956   1.125 -0.8015  2.1640  1.3539
14673SOL     OW46910   5.751   4.388   0.604  0.3744 -0.3655 -0.4281
14673SOL    HW146911   5.732   4.295   0.589  1.3042 -0.7706  0.6551
14673SOL    HW246912   5.847   4.391   0.609  0.3298  0.5772 -0.0477
14674SOL     OW46913   3.320   8.616   7.793 -0.1144 -0.0954  0.3822
14674SOL    HW146914   3.269   8.625   7.873 -1.1570 -2.3243  0.0310
14674SOL    HW246915   3.259   8.638   7.723  0.4550  0.6764  0.1105
14675SOL     OW46916   6.285   3.871   3.430  0.5628 -0.5980  0.3152
14675SOL    HW146917   6.239   3.791   3.401 -0.2592  0.0218 -0.1267
14675SOL    HW246918   6.276   3.931   3.356  0.7164  0.0963  0.8566
14676SOL     OW46919   7.670   2.953   1.740 -0.3398 -0.1951  0.2917
14676SOL    HW146920   7.684   3.047   1.732 -0.5031 -0.1513  0.5147
14676SOL    HW246921   7.652   2.939   1.833  0.8906 -0.6142  0.4827
14677SOL     OW46922   4.247   0.010   2.733 -0.3665  0.1403  0.0758
14677SOL    HW146923   4.301   0.084   2.759  0.3717 -0.3518 -0.0115
14677SOL    HW246924   4.237  -0.042   2.812 -2.0960  1.0408  0.4994
14678SOL     OW46925   4.411   3.306   8.197  0.3848  0.3588  0.0131
14678SOL    HW146926   4.402   3.360   8.276  0.1113 -0.2118  0.3784
14678SOL    HW246927   4.443   3.222   8.229  1.8606  0.6245 -0.6701
14679SOL     OW46928   8.489   2.317   3.835 -0.0773  0.3122 -0.1504
14679SOL    HW146929   8.577   2.296   3.866 -0.2262  0.3406  0.2915
14679SOL    HW246930   8.479   2.267   3.754  0.0637 -0.2704  0.1921
14680SOL     OW46931   3.288   2.393   2.518  0.0323  0.3456  0.7910
14680SOL    HW146932   3.266   2.473   2.565 -0.8336  1.1669 -0.8867
14680SOL    HW246933   3.217   2.332   2.540 -0.6408  0.8925  0.2326
14681SOL     OW46934   2.903   6.069   2.067  0.3521  0.7983 -0.0361
14681SOL    HW146935   2.885   6.147   2.015 -0.1880  1.2992  0.8682
14681SOL    HW246936   2.821   6.019   2.065  0.6030  0.3939 -0.3697
14682SOL     OW46937   7.479   2.877   6.668 -0.3873  0.6816  0.1457
14682SOL    HW146938   7.550   2.934   6.637  0.5800 -0.5358  0.0081
14682SOL    HW246939   7.400   2.930   6.660  0.3889  1.7872 -0.5473
14683SOL     OW46940   8.822   5.105   4.728  0.1699 -0.1689 -0.1696
14683SOL    HW146941   8.733   5.070   4.726 -0.0353  0.3495 -0.6816
14683SOL    HW246942   8.812   5.196   4.699  0.8696 -0.1207 -0.2782
14684SOL     OW46943   2.915   8.603   4.862 -0.0985 -0.3555  0.1691
14684SOL    HW146944   2.976   8.673   4.840 -0.7408  0.9286  2.1846
14684SOL    HW246945   2.828   8.644   4.854 -0.4469 -0.5656  2.3015
14685SOL     OW46946   1.040   9.082   3.693  0.2795  0.2495  0.7046
14685SOL    HW146947   1.134   9.096   3.706  0.2133  0.4684  0.9536
14685SOL    HW246948   1.034   9.003   3.639  0.6461  0.8133 -0.1860
14686SOL     OW46949   8.320   6.628   2.837  0.2536 -0.2654 -0.4647
14686SOL    HW146950   8.247   6.596   2.784  0.4049 -2.1156  0.3941
14686SOL    HW246951   8.279   6.659   2.918  0.2976 -0.0025 -0.5410
14687SOL     OW46952   3.098   4.530   9.139 -0.1536 -0.1077  0.0015
14687SOL    HW146953   3.182   4.560   9.105 -0.5071  2.3261  1.0463
14687SOL    HW246954   3.107   4.537   9.235 -1.2205 -0.7467  0.1658
14688SOL     OW46955   6.261   7.006   2.135  0.2634 -0.3407 -0.0104
14688SOL    HW146956   6.172   6.972   2.124  0.1678  0.0024 -0.3040
14688SOL    HW246957   6.274   7.007   2.230 -0.8310  1.5887  0.1839
14689SOL     OW46958   2.968   3.580   3.452  0.1075  0.0597  0.1207
14689SOL    HW146959   3.047   3.527   3.463 -0.1272  0.0188  1.8589
14689SOL    HW246960   2.919   3.568   3.533 -2.1283 -0.5934 -1.2137
14690SOL     OW46961   6.129   7.410   5.288  0.1291  0.0865 -0.0634
14690SOL    HW146962   6.181   7.447   5.217  1.0656  0.9594  1.0312
14690SOL    HW246963   6.166   7.322   5.301  0.8436  0.4127  0.1954
14691SOL     OW46964   2.307   7.677   1.553  0.1272 -0.1870  0.1779
14691SOL    HW146965   2.218   7.708   1.571 -0.1654 -1.2054  0.5694
14691SOL    HW246966   2.363   7.752   1.573 -0.5927  0.2435  0.6278
14692SOL     OW46967   2.399   1.760   7.783 -0.0105 -0.6476  0.4621
14692SOL    HW146968   2.339   1.699   7.826 -0.5498 -0.5681 -0.1723
14692SOL    HW246969   2.485   1.739   7.820 -0.2946 -1.3400  0.7398
14693SOL     OW46970   6.579   1.467   8.083 -0.1060 -0.1973 -0.2943
14693SOL    HW146971   6.615   1.460   7.994 -1.4423  0.3493 -0.9120
14693SOL    HW246972   6.594   1.380   8.121 -1.1852 -1.0841 -1.7388
14694SOL     OW46973   2.862   2.543   0.657  0.2376  0.5139  0.3766
14694SOL    HW146974   2.936   2.543   0.596 -0.3199  1.3094 -0.3312
14694SOL    HW246975   2.835   2.452   0.662  0.7626  0.3301  0.0106
14695SOL     OW46976   8.237   3.051   7.836 -0.0917  0.7710  0.2669
14695SOL    HW146977   8.170   3.009   7.890 -2.4508  2.0133 -1.4986
14695SOL    HW246978   8.236   3.002   7.754  0.3616  1.4903 -0.1813
14696SOL     OW46979   8.516   1.517   9.152  0.3423 -0.2185  0.2245
14696SOL    HW146980   8.563   1.519   9.068 -0.9576  0.9288 -0.5219
14696SOL    HW246981   8.581   1.546   9.216  0.8671  0.6757 -0.6736
14697SOL     OW46982   7.925   0.382   9.228  0.4883 -0.0057 -0.0826
14697SOL    HW146983   8.001   0.370   9.172 -0.1759 -3.7700 -0.4255
14697SOL    HW246984   7.939   0.322   9.302 -0.6696  1.6492  1.5810
14698SOL     OW46985   7.314   1.316   6.987 -0.3162 -0.5947  0.0162
14698SOL    HW146986   7.323   1.228   6.952 -0.7252 -1.2279  1.4039
14698SOL    HW246987   7.231   1.314   7.035  0.8088 -0.2252  2.1031
14699SOL     OW46988   1.369   1.574   9.035  0.1277 -0.3701  0.5994
14699SOL    HW146989   1.337   1.564   8.945 -0.6882 -1.5049  1.0012
14699SOL    HW246990   1.454   1.617   9.025 -0.9750  1.7179 -0.5523
14700SOL     OW46991   7.623   2.924   5.790 -0.4742  0.1723  0.1352
14700SOL    HW146992   7.619   2.902   5.697  0.2950 -0.9303  0.3366
14700SOL    HW246993   7.537   2.901   5.824  0.2359 -2.6444  0.3071
14701SOL     OW46994   4.370   6.465   5.980 -0.2631 -0.8823  0.2047
14701SOL    HW146995   4.441   6.423   6.028  1.7924 -1.7298 -3.2607
14701SOL    HW246996   4.341   6.399   5.917 -0.9329  0.9620 -1.5355
14702SOL     OW46997   4.425   7.208   6.751  0.2665  0.3103 -0.3639
14702SOL    HW146998   4.383   7.160   6.822  0.2905  0.7559 -0.0488
14702SOL    HW246999   4.390   7.297   6.757  1.5768  0.8176  0.1776
14703SOL     OW47000   8.979   1.611   6.672  0.4076  0.1004  0.4940
14703SOL    HW147001   8.898   1.600   6.721  0.9352 -0.2013  1.3375
14703SOL    HW247002   9.039   1.653   6.734  1.3174 -0.9550  0.3778
14704SOL     OW47003   3.180   4.462   1.688  0.1539  0.1520 -0.5523
14704SOL    HW147004   3.208   4.514   1.763 -0.4420  0.2154 -0.3626
14704SOL    HW247005   3.130   4.522   1.634  0.2298  0.0017 -0.7917
14705SOL     OW47006   6.566   8.749   6.172 -0.3975 -0.3071  0.0679
14705SOL    HW147007   6.540   8.758   6.264 -0.3995 -2.2201  0.3005
14705SOL    HW247008   6.645   8.695   6.175  0.7066  1.1572 -0.9682
14706SOL     OW47009   1.587   8.359   3.099  0.5710 -0.1897 -0.2176
14706SOL    HW147010   1.576   8.268   3.127 -1.5568 -0.0856 -0.5633
14706SOL    HW247011   1.594   8.355   3.004  0.2856  0.0274 -0.2483
14707SOL     OW47012   6.158   1.642   2.872  0.5278 -0.4872 -0.7083
14707SOL    HW147013   6.221   1.578   2.902  1.3283  0.5787 -0.0487
14707SOL    HW247014   6.158   1.634   2.777  0.4574 -1.5861 -0.6250
14708SOL     OW47015   7.318   3.022   7.499  0.3994 -0.3840  0.0366
14708SOL    HW147016   7.311   3.001   7.592  0.3660  0.0731  0.1406
14708SOL    HW247017   7.357   2.944   7.460  0.6910 -0.4652  0.4809
14709SOL     OW47018   2.615   8.416   0.079 -0.3273  0.1693 -0.1329
14709SOL    HW147019   2.640   8.377  -0.005 -0.3666 -0.0698 -0.0337
14709SOL    HW247020   2.698   8.435   0.123 -0.2196  2.1887 -1.0740
14710SOL     OW47021   1.304   4.663   3.139 -0.2200 -0.1718  0.5045
14710SOL    HW147022   1.237   4.686   3.203 -0.6929  0.4655 -0.2032
14710SOL    HW247023   1.255   4.638   3.061  0.3440 -1.1626  0.4552
14711SOL     OW47024   6.061   5.567   8.735 -0.6763 -0.1969 -0.2138
14711SOL    HW147025   6.050   5.573   8.640 -1.4161 -0.2149 -0.1407
14711SOL    HW247026   5.975   5.538   8.767 -0.6344  0.4259  0.5105
14712SOL     OW47027   3.934   4.798   1.900  0.3839 -0.4224  0.4911
14712SOL    HW147028   3.964   4.838   1.982 -0.1764  0.5471  0.2390
14712SOL    HW247029   3.847   4.764   1.920  0.6920 -1.1677  0.5900
14713SOL     OW47030   0.739   1.536   0.637  0.1815 -0.3488 -0.5427
14713SOL    HW147031   0.775   1.613   0.594  0.0137 -0.8698 -1.6447
14713SOL    HW247032   0.680   1.498   0.572 -1.0628 -0.4505  0.6029
14714SOL     OW47033   8.203   7.885   0.337 -0.1038 -0.1687 -0.0183
14714SOL    HW147034   8.223   7.918   0.249  0.9170 -0.2325  0.1749
14714SOL    HW247035   8.111   7.860   0.333 -0.6285  1.6858 -0.4928
14715SOL     OW47036   3.578   8.695   5.935  0.0977  0.3802  0.5271
14715SOL    HW147037   3.537   8.732   5.857  1.3326  0.5649 -0.0727
14715SOL    HW247038   3.629   8.621   5.902  0.8967  0.6571  1.0923
14716SOL     OW47039   7.770   3.051   7.505  0.2124 -0.0457  0.4768
14716SOL    HW147040   7.703   3.098   7.555 -1.9441 -1.6660 -0.7206
14716SOL    HW247041   7.721   2.990   7.450  2.6466 -0.5628 -1.2994
14717SOL     OW47042   3.205   7.194   8.318 -0.0382  0.5592 -0.4520
14717SOL    HW147043   3.258   7.228   8.390 -0.0344  1.2668 -0.7721
14717SOL    HW247044   3.205   7.099   8.330 -2.3552  0.7482  2.0953
14718SOL     OW47045   7.443   6.283   9.139  0.3370 -0.6425 -0.1041
14718SOL    HW147046   7.447   6.324   9.053 -0.4689  2.8500  1.3301
14718SOL    HW247047   7.533   6.258   9.158  1.5571  3.1181 -0.0916
14719SOL     OW47048   3.805   0.895   1.092 -0.7175  0.0810  0.1733
14719SOL    HW147049   3.837   0.980   1.062 -0.7774  0.1728  0.3690
14719SOL    HW247050   3.711   0.899   1.076 -0.8945  0.5037  1.2717
14720SOL     OW47051   4.945   8.721   5.178  0.9019  0.4750  0.1375
14720SOL    HW147052   5.022   8.767   5.147 -0.6386  2.1297 -1.4566
14720SOL    HW247053   4.937   8.745   5.270  1.4663  1.4787 -0.0721
14721SOL     OW47054   3.062   0.455   2.640 -0.0912  0.2858  0.5694
14721SOL    HW147055   3.149   0.477   2.608  0.3083 -0.7739  0.9158
14721SOL    HW247056   3.066   0.473   2.734  0.5164 -1.9920  1.0294
14722SOL     OW47057   1.416   7.987   8.723  0.3267  0.7817  0.0305
14722SOL    HW147058   1.412   7.896   8.753  0.0867  0.2669 -1.4648
14722SOL    HW247059   1.343   7.994   8.662  0.8463  1.7525 -0.4841
14723SOL     OW47060   1.172   8.154   1.670 -0.2034  0.0447  0.4058
14723SOL    HW147061   1.242   8.199   1.717  1.9469  0.1035 -2.5991
14723SOL    HW247062   1.149   8.212   1.598 -1.7076 -1.0407 -0.0489
14724SOL     OW47063   9.133   7.067   5.442  0.3415 -0.3909  0.7381
14724SOL    HW147064   9.155   6.989   5.493  0.6691 -1.3132 -0.7407
14724SOL    HW247065   9.165   7.048   5.354 -2.2761  0.1276 -0.4229
14725SOL     OW47066   3.634   2.281   5.504 -0.1611 -0.5533 -0.4627
14725SOL    HW147067   3.645   2.276   5.409  0.8842 -0.6210 -0.3559
14725SOL    HW247068   3.643   2.191   5.534  2.5874 -0.2350 -0.0435
14726SOL     OW47069   8.506   3.878   0.763 -0.1750  0.1503  0.1575
14726SOL    HW147070   8.577   3.942   0.755  0.5786 -0.5518  1.0203
14726SOL    HW247071   8.498   3.862   0.857  1.6283 -3.1324 -0.0962
14727SOL     OW47072   8.355   5.460   4.119  0.6008 -0.0702  0.2629
14727SOL    HW147073   8.339   5.495   4.031 -0.3082 -0.5248  0.2436
14727SOL    HW247074   8.298   5.383   4.126  2.5688 -1.6097  0.2853
14728SOL     OW47075   5.154   7.420   0.647 -0.4214  0.2207  0.0546
14728SOL    HW147076   5.216   7.469   0.701  0.3278  0.1586 -0.7261
14728SOL    HW247077   5.109   7.487   0.596 -1.4927  0.3241  1.0952
14729SOL     OW47078   8.226   5.627   1.465 -0.4442  0.1094  0.4514
14729SOL    HW147079   8.190   5.564   1.526 -0.2878  1.0997  1.6078
14729SOL    HW247080   8.202   5.594   1.378 -1.8932 -0.5777  1.0986
14730SOL     OW47081   5.217   8.584   5.207  0.3901 -0.1363  0.0857
14730SOL    HW147082   5.162   8.598   5.130 -2.4113 -1.2246  1.7184
14730SOL    HW247083   5.269   8.664   5.214 -0.7955  0.8841 -1.7626
14731SOL     OW47084   4.248   8.049   9.141  0.0543 -0.2540  0.4480
14731SOL    HW147085   4.234   7.955   9.148 -1.0553 -0.0905  0.6664
14731SOL    HW247086   4.181   8.087   9.198  0.2771  0.6750  0.1092
14732SOL     OW47087   4.236   0.789   7.308 -0.2233 -0.2895 -0.4657
14732SOL    HW147088   4.290   0.785   7.229  1.9485 -0.2766  0.9349
14732SOL    HW247089   4.252   0.877   7.344  0.3804 -0.9593  0.9853
14733SOL     OW47090   0.876   2.751   2.189 -0.3989  0.2948  0.5320
14733SOL    HW147091   0.935   2.788   2.123 -0.6792 -0.2555 -0.0384
14733SOL    HW247092   0.846   2.669   2.151 -3.0885  1.4565 -0.0601
14734SOL     OW47093   2.644   7.574   1.067  0.5902  0.2301 -0.0464
14734SOL    HW147094   2.629   7.662   1.033  1.2533 -0.2321 -1.6200
14734SOL    HW247095   2.637   7.584   1.162 -1.1661  1.6134 -0.2586
14735SOL     OW47096   1.164   2.965   0.771  0.0782 -0.4779  0.3899
14735SOL    HW147097   1.104   2.891   0.765 -1.3907  0.7269 -0.7551
14735SOL    HW247098   1.172   2.997   0.681  0.4853  0.8689  0.8746
14736SOL     OW47099   8.632   4.069   0.488  0.2723 -0.3783 -0.3389
14736SOL    HW147100   8.647   4.039   0.578 -1.4410  0.2570  0.2027
14736SOL    HW247101   8.675   4.155   0.485 -1.8429  0.8188  0.7737
14737SOL     OW47102   1.665   5.565   7.474 -0.0410 -0.4414  0.2039
14737SOL    HW147103   1.696   5.580   7.385 -0.9453  2.7864  0.2700
14737SOL    HW247104   1.740   5.584   7.529  0.2271 -1.3645  0.1578
14738SOL     OW47105   6.247   4.962   5.980  0.0345  0.3896  0.3337
14738SOL    HW147106   6.281   4.998   5.898 -0.4525 -0.8747 -0.4559
14738SOL    HW247107   6.234   5.038   6.036  1.2676  1.1969 -0.4166
14739SOL     OW47108   0.817   5.059   5.041  0.5504  0.1307 -0.0497
14739SOL    HW147109   0.843   5.032   4.952 -0.5908  0.2894 -0.4414
14739SOL    HW247110   0.743   5.002   5.062  0.7536  0.1649  0.7681
14740SOL     OW47111   2.324   6.371   5.658  0.3069 -0.5385  0.2116
14740SOL    HW147112   2.286   6.437   5.599 -1.3246 -1.9097 -0.3540
14740SOL    HW247113   2.356   6.422   5.733 -0.8312  0.9218 -0.2292
14741SOL     OW47114   1.131   7.463   4.290 -0.0715  0.3137  0.1707
14741SOL    HW147115   1.223   7.470   4.268  0.0674  0.2693  0.7136
14741SOL    HW247116   1.084   7.486   4.209  0.3930 -2.4008 -0.9618
14742SOL     OW47117   9.218   1.243   7.349 -0.1126 -0.0407  0.1316
14742SOL    HW147118   9.142   1.297   7.327 -1.7987 -2.0402  0.7380
14742SOL    HW247119   9.202   1.160   7.304  2.6488  0.0650 -1.1980
14743SOL     OW47120   5.420   6.175   0.355  0.1440  0.4059  0.3051
14743SOL    HW147121   5.413   6.173   0.450 -2.4695  1.0121  0.1960
14743SOL    HW247122   5.455   6.261   0.335 -0.5108  0.7691  0.6933
14744SOL     OW47123   5.365   8.434   5.374 -0.0403 -0.1060 -0.0921
14744SOL    HW147124   5.317   8.481   5.306 -0.1717  0.9128  0.6711
14744SOL    HW247125   5.388   8.502   5.438  0.0265 -1.0383  0.9038
14745SOL     OW47126   3.763   0.376   2.023  0.2782 -0.0996 -0.2868
14745SOL    HW147127   3.692   0.370   1.959 -0.8496  1.9106  0.6768
14745SOL    HW247128   3.809   0.292   2.016 -0.6876 -0.5011 -2.6676
14746SOL     OW47129   4.718   4.400   4.341 -0.3418  0.1100  0.0386
14746SOL    HW147130   4.787   4.345   4.380 -0.4202 -0.3479 -0.4559
14746SOL    HW247131   4.753   4.489   4.345  1.3683 -0.3547 -2.4387
14747SOL     OW47132   4.462   2.091   6.687 -0.1752 -0.0042 -0.3637
14747SOL    HW147133   4.499   2.098   6.599 -1.0045  1.7861 -0.6225
14747SOL    HW247134   4.437   2.181   6.710 -0.4214 -0.5027  1.5157
14748SOL     OW47135   2.507   7.537   3.411 -0.5165  0.0987  0.4642
14748SOL    HW147136   2.562   7.465   3.440  0.8578  0.4980 -1.0377
14748SOL    HW247137   2.556   7.616   3.432 -1.1972  0.5297  0.4739
14749SOL     OW47138   4.951   4.324   8.481 -0.2512  0.0744 -0.1645
14749SOL    HW147139   5.009   4.364   8.416  1.3990  0.1406  1.2930
14749SOL    HW247140   4.933   4.394   8.544  0.5900 -0.7407  1.0260
14750SOL     OW47141   1.077   8.841   3.566  0.0944 -0.1008 -0.5979
14750SOL    HW147142   1.163   8.822   3.528 -0.0852  1.0524 -1.6573
14750SOL    HW247143   1.048   8.757   3.601 -0.3383 -1.7627 -4.3686
14751SOL     OW47144   7.391   4.759   8.719  0.8037  0.0305  1.1089
14751SOL    HW147145   7.305   4.801   8.729  0.1535 -1.0729  0.3821
14751SOL    HW247146   7.431   4.804   8.644  0.6273  0.1725  1.0981
14752SOL     OW47147   9.133   6.626   1.775  0.4164 -0.2333  0.6568
14752SOL    HW147148   9.184   6.675   1.840  0.7653 -0.9365  0.9184
14752SOL    HW247149   9.045   6.663   1.782  0.3525 -0.5618  1.8083
14753SOL     OW47150   0.342   2.343   8.619 -0.1284  0.5537  0.3716
14753SOL    HW147151   0.312   2.265   8.668 -1.1250  0.2119 -0.7280
14753SOL    HW247152   0.263   2.395   8.608  0.1564  0.7998 -0.5503
14754SOL     OW47153   6.806   4.528   5.700 -0.0775  0.3857 -0.3373
14754SOL    HW147154   6.801   4.595   5.631 -1.2638  0.9923  0.2991
14754SOL    HW247155   6.900   4.513   5.712  0.1575 -0.5223 -2.8021
14755SOL     OW47156   6.713   4.333   2.191  0.6949  0.4461  0.0670
14755SOL    HW147157   6.779   4.344   2.260  1.5335 -0.0743 -0.6310
14755SOL    HW247158   6.661   4.413   2.195  0.1875  0.0922  1.8500
14756SOL     OW47159   5.246   8.321   1.830  0.2802 -0.3127 -0.1577
14756SOL    HW147160   5.305   8.250   1.854 -0.0167 -0.5657 -0.1599
14756SOL    HW247161   5.266   8.339   1.738  0.2238 -0.5244 -0.2112
14757SOL     OW47162   1.541   8.827   1.070 -0.2537 -0.3206  0.1653
14757SOL    HW147163   1.569   8.783   1.151 -2.4879 -1.3918  0.4273
14757SOL    HW247164   1.597   8.789   1.002 -0.3916 -1.7102  0.7863
14758SOL     OW47165   2.443   7.927   1.849  0.0033  0.2139 -0.2776
14758SOL    HW147166   2.436   7.838   1.884 -1.8779  1.2068  2.1994
14758SOL    HW247167   2.413   7.920   1.759  2.5635 -2.0604 -1.1018
14759SOL     OW47168   6.729   7.578   6.190  0.1764 -0.0076 -0.0147
14759SOL    HW147169   6.713   7.496   6.143 -0.3221  0.3095 -0.4019
14759SOL    HW247170   6.752   7.550   6.279 -2.9101 -0.5188  0.7375
14760SOL     OW47171   3.927   9.077   4.921 -0.5390  0.1247  0.4677
14760SOL    HW147172   3.973   9.156   4.949 -1.1961  1.0213 -0.8672
14760SOL    HW247173   3.992   9.027   4.872 -0.2689  0.0825  0.8626
14761SOL     OW47174   4.806   0.601   4.419 -0.0539 -0.2883 -0.4029
14761SOL    HW147175   4.847   0.548   4.351  0.4539  0.6677 -0.8533
14761SOL    HW247176   4.876   0.657   4.452 -0.8322  0.9359 -0.7594
14762SOL     OW47177   4.216   0.435   2.396  0.1479  0.1867 -0.6015
14762SOL    HW147178   4.299   0.475   2.369 -0.4554  0.3175 -2.3681
14762SOL    HW247179   4.228   0.342   2.378 -0.5835  0.3871 -2.3464
14763SOL     OW47180   6.680   8.887   1.525 -0.2087  0.0698  0.1593
14763SOL    HW147181   6.626   8.844   1.460 -0.7123  0.9703 -0.0245
14763SOL    HW247182   6.622   8.950   1.568  0.2683 -0.0908  1.0659
14764SOL     OW47183   0.709   7.569   7.552  0.6515  0.2373 -0.2808
14764SOL    HW147184   0.695   7.618   7.471  0.7167 -0.5964 -0.8193
14764SOL    HW247185   0.649   7.494   7.544  0.5586  0.2241  0.5099
14765SOL     OW47186   8.768   1.997   1.820  0.2781 -0.0399  0.4549
14765SOL    HW147187   8.795   2.088   1.804  0.7807 -0.4144 -0.9757
14765SOL    HW247188   8.836   1.961   1.877  0.2193  0.3913  0.8047
14766SOL     OW47189   5.024   4.046   1.922  0.7361  0.0921  0.0990
14766SOL    HW147190   5.044   3.964   1.968 -0.8119 -0.6624 -0.4898
14766SOL    HW247191   5.035   4.114   1.988 -0.7119 -0.8895  1.4337
14767SOL     OW47192   5.244   2.959   0.523 -0.3049 -0.3294  0.1683
14767SOL    HW147193   5.195   3.039   0.505  0.6826 -0.0869 -1.6975
14767SOL    HW247194   5.328   2.988   0.557 -0.5176 -0.6511  0.9940
14768SOL     OW47195   5.592   7.114   0.272  0.2248 -0.6049 -0.3308
14768SOL    HW147196   5.610   7.167   0.194 -2.0897 -0.0868 -0.6045
14768SOL    HW247197   5.501   7.134   0.294  0.1669 -2.3139  1.2963
14769SOL     OW47198   1.701   6.887   0.472 -0.2946  0.3525 -0.1042
14769SOL    HW147199   1.669   6.850   0.390  0.7903  0.0193 -0.3884
14769SOL    HW247200   1.796   6.875   0.469 -0.2168  0.4927  1.1192
14770SOL     OW47201   2.184   8.839   7.352 -0.2388 -0.3973  0.3038
14770SOL    HW147202   2.265   8.891   7.349 -0.2613 -0.3109  1.0408
14770SOL    HW247203   2.209   8.755   7.312  0.3506 -0.5417  0.9585
14771SOL     OW47204   7.339   1.344   5.329 -0.4246 -0.3191 -0.3653
14771SOL    HW147205   7.270   1.343   5.395  0.6511 -2.2279  0.8415
14771SOL    HW247206   7.377   1.432   5.335 -0.2145 -0.4956  1.7806
14772SOL     OW47207   9.079   4.167   8.188  0.1162  0.0866  0.3907
14772SOL    HW147208   9.139   4.229   8.146 -0.7702  1.0587  0.5180
14772SOL    HW247209   9.036   4.123   8.115  0.4578 -0.0977  0.2967
14773SOL     OW47210   3.279   6.124   6.279 -0.4923 -0.2527 -0.9168
14773SOL    HW147211   3.225   6.145   6.203 -1.2569 -3.4833 -1.3937
14773SOL    HW247212   3.226   6.064   6.330  1.2332 -0.5986  0.5578
14774SOL     OW47213   7.063   4.574   8.835  0.1505 -0.0680 -0.6035
14774SOL    HW147214   7.040   4.526   8.914  0.3925  0.4210 -0.2324
14774SOL    HW247215   7.055   4.666   8.859  0.6060  0.0894 -1.0340
14775SOL     OW47216   7.744   2.448   2.643  0.3022  0.1144 -0.0132
14775SOL    HW147217   7.831   2.486   2.633  0.0737  0.4445 -0.8423
14775SOL    HW247218   7.696   2.476   2.565 -0.3525 -0.5990  0.1149
14776SOL     OW47219   4.527   7.155   8.299 -0.5729  0.1916 -0.5152
14776SOL    HW147220   4.480   7.088   8.348 -0.5899 -0.7189 -1.7295
14776SOL    HW247221   4.583   7.106   8.239  2.6050  1.2020  1.4064
14777SOL     OW47222   5.561   1.173   4.207 -0.3249 -0.4230 -0.4777
14777SOL    HW147223   5.616   1.212   4.274  0.4486 -1.9765 -0.1625
14777SOL    HW247224   5.486   1.232   4.199 -0.4474 -0.2108  1.7597
14778SOL     OW47225   7.755   4.306   3.542  0.5118 -0.8628  0.6626
14778SOL    HW147226   7.798   4.388   3.565  0.5534 -0.6401 -0.1727
14778SOL    HW247227   7.673   4.307   3.591  1.0253 -0.8530  1.5320
14779SOL     OW47228   5.482   2.431   4.534 -0.1574  0.0810  0.4036
14779SOL    HW147229   5.552   2.412   4.472 -0.2507 -0.4220  0.4514
14779SOL    HW247230   5.496   2.370   4.607 -0.6654 -0.0533  0.3962
14780SOL     OW47231   4.500   3.047   3.274  0.1731  0.2243 -0.2908
14780SOL    HW147232   4.578   2.999   3.245 -0.1756 -0.8683  0.5457
14780SOL    HW247233   4.454   2.986   3.332 -1.6562  0.6013 -1.2812
14781SOL     OW47234   6.975   2.355   3.407  0.2248  0.4058 -0.3145
14781SOL    HW147235   6.918   2.413   3.357  1.0395  0.3676 -1.3053
14781SOL    HW247236   7.041   2.326   3.345  1.6549  0.8718  0.9138
14782SOL     OW47237   6.076   7.930   1.197 -0.6615  0.0151 -0.5734
14782SOL    HW147238   6.161   7.953   1.160 -0.2591  0.6619  0.6950
14782SOL    HW247239   6.029   8.014   1.202 -1.4182 -0.3457 -1.3369
14783SOL     OW47240   3.584   1.368   9.094  0.0372  0.3951 -0.1400
14783SOL    HW147241   3.525   1.429   9.139 -0.2447 -0.4526  0.6641
14783SOL    HW247242   3.540   1.283   9.101 -0.6227  0.3887 -3.0698
14784SOL     OW47243   1.163   2.274   7.041 -0.3448  0.8410  0.6647
14784SOL    HW147244   1.172   2.287   6.947  1.2587  2.2833  0.9573
14784SOL    HW247245   1.187   2.182   7.055  0.2049  0.8311 -0.2519
14785SOL     OW47246   3.521   4.439   1.357 -0.5124 -0.1132 -0.2108
14785SOL    HW147247   3.610   4.470   1.374 -0.9425  0.9250  0.2291
14785SOL    HW247248   3.470   4.468   1.433 -1.5091  0.5240 -1.0886
14786SOL     OW47249   3.462   9.193   0.422 -0.5309  0.1303 -0.7112
14786SOL    HW147250   3.519   9.188   0.346 -1.4758  1.8647 -1.6069
14786SOL    HW247251   3.387   9.245   0.393 -0.3300  2.0023  1.7374
14787SOL     OW47252   4.922   2.753   6.052 -0.2309  0.5152  0.1774
14787SOL    HW147253   5.013   2.776   6.038 -0.6334  1.4511 -1.1755
14787SOL    HW247254   4.922   2.658   6.063  0.8673  0.4546 -0.2753
14788SOL     OW47255   3.784   2.935   5.122 -0.0769  0.0250 -0.3733
14788SOL    HW147256   3.750   2.960   5.036  1.0488 -0.9083 -1.1235
14788SOL    HW247257   3.707   2.909   5.172 -0.8860  1.7119 -0.6779
14789SOL     OW47258   2.807   5.847   0.595  0.4977 -0.5115 -0.1111
14789SOL    HW147259   2.784   5.915   0.530  2.5995 -0.5148 -0.9297
14789SOL    HW247260   2.770   5.767   0.559  0.2251 -0.2355 -0.4641
14790SOL     OW47261   4.943   0.792   8.415 -0.1366  0.0589 -0.0588
14790SOL    HW147262   4.973   0.786   8.324  0.0265  0.6990 -0.0530
14790SOL    HW247263   4.848   0.778   8.410 -0.9433  4.4703 -0.9572
14791SOL     OW47264   8.342   2.491   3.084 -1.3598  0.0394  0.0138
14791SOL    HW147265   8.305   2.492   3.173  0.3975  1.1116  0.7952
14791SOL    HW247266   8.318   2.576   3.047 -1.1244  0.0546 -0.1065
14792SOL     OW47267   4.066   8.704   6.660  0.2384 -0.1850  0.7747
14792SOL    HW147268   4.152   8.662   6.656  0.2993  0.0004 -2.0617
14792SOL    HW247269   4.006   8.633   6.686  0.6952 -1.5262 -1.5189
14793SOL     OW47270   2.505   1.412   3.067 -0.1621  0.2135 -0.1516
14793SOL    HW147271   2.417   1.398   3.101 -0.1422 -1.1785 -0.6108
14793SOL    HW247272   2.560   1.419   3.146 -0.3093 -1.6257  0.1495
14794SOL     OW47273   5.647   3.367   2.337  0.3340  0.1179  0.0410
14794SOL    HW147274   5.598   3.346   2.416  0.5217 -0.8007 -0.0739
14794SOL    HW247275   5.595   3.435   2.294  0.4748  0.9683  1.1743
14795SOL     OW47276   6.563   1.355   6.278  0.1677 -0.0305 -0.5064
14795SOL    HW147277   6.618   1.278   6.293  1.0563  0.6459 -0.2517
14795SOL    HW247278   6.517   1.335   6.197 -0.8071 -1.5073  0.3482
14796SOL     OW47279   9.103   8.570   3.170  0.1701  0.0998 -0.1672
14796SOL    HW147280   9.021   8.526   3.147  0.0764 -0.6363  1.4694
14796SOL    HW247281   9.144   8.513   3.234  1.8762  0.5852 -0.7824
14797SOL     OW47282   8.428   4.749   5.058 -0.4277  0.3616 -0.1063
14797SOL    HW147283   8.369   4.674   5.050  0.4263 -0.5521  1.6030
14797SOL    HW247284   8.446   4.775   4.968 -0.1799 -1.9640 -0.7868
14798SOL     OW47285   2.429   6.775   7.425  0.3254  0.0148  0.4828
14798SOL    HW147286   2.435   6.870   7.437 -1.2776  0.3364 -0.8939
14798SOL    HW247287   2.484   6.739   7.494  0.4741  1.9311  1.4391
14799SOL     OW47288   2.947   1.114   1.468  0.2187 -0.0000  0.9221
14799SOL    HW147289   2.949   1.208   1.485  0.6157  0.0166  0.7910
14799SOL    HW247290   2.957   1.074   1.555 -0.6149  0.0744  1.0562
14800SOL     OW47291   4.286   0.264   7.950  0.1481  0.1768  0.0818
14800SOL    HW147292   4.321   0.175   7.956 -0.2839  0.0509  0.7704
14800SOL    HW247293   4.362   0.320   7.963  0.2060 -0.0956  0.9932
14801SOL     OW47294   2.985   6.430   8.460  0.2398  0.2396  0.7480
14801SOL    HW147295   2.913   6.457   8.404  1.5692  0.1102 -1.0901
14801SOL    HW247296   3.040   6.508   8.468  1.4311 -0.4551 -0.3560
14802SOL     OW47297   7.066   8.752   4.765  0.1893  0.2276  0.0643
14802SOL    HW147298   7.011   8.760   4.687  0.4798  0.3745 -0.1290
14802SOL    HW247299   7.148   8.796   4.741  0.2486  0.3538  0.4826
14803SOL     OW47300   3.371   6.790   2.311  0.3823 -0.1738  0.0886
14803SOL    HW147301   3.309   6.800   2.384  0.7511  1.0616  0.2536
14803SOL    HW247302   3.349   6.705   2.273  0.1712 -0.8537  1.6394
14804SOL     OW47303   8.824   3.563   2.567  0.2906 -0.6437  0.3823
14804SOL    HW147304   8.839   3.604   2.652  0.5140  1.6626 -0.6853
14804SOL    HW247305   8.765   3.490   2.585 -1.4546  1.0916  2.2333
14805SOL     OW47306   4.073   4.488   0.227 -0.2837 -0.1679  0.2747
14805SOL    HW147307   4.037   4.577   0.224  0.4645  0.2170  1.7259
14805SOL    HW247308   4.027   4.446   0.300 -0.9482 -1.1309 -0.6808
14806SOL     OW47309   6.369   7.427   3.570  0.4473  0.7072  0.4183
14806SOL    HW147310   6.289   7.477   3.555  0.6015  0.5449 -1.0389
14806SOL    HW247311   6.343   7.359   3.633 -0.5896  0.6029 -0.0966
14807SOL     OW47312   4.338   0.432   4.200  0.3028  0.1349  0.0946
14807SOL    HW147313   4.319   0.524   4.218  0.7532  0.4390 -0.8997
14807SOL    HW247314   4.407   0.409   4.262  1.0088  0.8205 -0.4069
14808SOL     OW47315   6.872   8.300   5.826  0.6091  0.0749  0.1222
14808SOL    HW147316   6.844   8.309   5.917 -1.1848  0.7260 -0.4355
14808SOL    HW247317   6.794   8.322   5.775  1.6659  0.0792 -1.5843
14809SOL     OW47318   6.053   3.479   5.171  0.0203 -0.2167 -0.0099
14809SOL    HW147319   5.959   3.495   5.158  0.0366 -0.2487 -0.1651
14809SOL    HW247320   6.059   3.448   5.261 -0.0106  0.6562  0.3064
14810SOL     OW47321   0.624   8.488   9.179 -0.3662 -0.1582  0.3358
14810SOL    HW147322   0.680   8.563   9.161 -1.0070 -0.0028 -1.1578
14810SOL    HW247323   0.628   8.477   9.274  1.6331  0.2666  0.3405
14811SOL     OW47324   7.182   6.417   8.043  0.1247 -0.1167 -0.2016
14811SOL    HW147325   7.228   6.494   8.009 -1.8342  0.9693 -0.5252
14811SOL    HW247326   7.109   6.404   7.983 -1.8952  0.2328  2.0427
14812SOL     OW47327   8.630   2.637   5.206  0.2382  0.0285  0.0118
14812SOL    HW147328   8.647   2.585   5.285  0.7577 -0.8289 -0.6450
14812SOL    HW247329   8.710   2.686   5.191  0.6349 -0.8227 -0.7209
14813SOL     OW47330   9.016   3.284   7.011 -0.5835  0.2418  0.1101
14813SOL    HW147331   9.031   3.246   7.098  0.2656 -1.2718 -0.6525
14813SOL    HW247332   9.028   3.378   7.024  0.0084  0.0034  1.5364
14814SOL     OW47333   3.296   4.392   0.910 -0.0705  0.5728 -0.1965
14814SOL    HW147334   3.355   4.464   0.887  0.0132  0.7981  0.7105
14814SOL    HW247335   3.286   4.398   1.005 -2.6884  1.3902 -0.4514
14815SOL     OW47336   5.043   2.289   4.368  0.4317  0.2424  0.2801
14815SOL    HW147337   5.019   2.375   4.334  1.8729 -0.3209 -2.4697
14815SOL    HW247338   4.964   2.257   4.410 -0.7012  2.1472 -0.2706
14816SOL     OW47339   3.713   3.207   8.442 -0.0148 -0.5532 -0.1730
14816SOL    HW147340   3.781   3.157   8.398 -0.3345  0.2438 -1.6340
14816SOL    HW247341   3.641   3.145   8.455  0.7684 -1.2576  0.9035
14817SOL     OW47342   2.426   2.354   6.886  0.0056 -0.5090 -0.2860
14817SOL    HW147343   2.370   2.352   6.964  0.7742 -0.8568  0.2634
14817SOL    HW247344   2.490   2.284   6.900  2.6795  1.9723  0.6783
14818SOL     OW47345   6.357   2.001   7.264 -0.0381  0.1202  0.1430
14818SOL    HW147346   6.405   1.972   7.341 -0.8269  0.7203  0.8832
14818SOL    HW247347   6.267   1.970   7.279 -0.4635  1.2693  0.0491
14819SOL     OW47348   5.503   0.151   6.619  0.2770  0.3685  0.1094
14819SOL    HW147349   5.431   0.172   6.559 -0.0808 -0.8886  0.0652
14819SOL    HW247350   5.483   0.062   6.649  0.5590  0.8819  1.9212
14820SOL     OW47351   3.570   8.893   2.852  0.0992  0.0988  0.0793
14820SOL    HW147352   3.479   8.921   2.859 -0.1923 -0.9187  0.5217
14820SOL    HW247353   3.593   8.865   2.941 -0.1789 -2.6472 -0.6106
14821SOL     OW47354   4.071   7.029   1.514  0.0050 -0.1443  0.2170
14821SOL    HW147355   4.013   7.105   1.510  1.9208  1.3894  0.4213
14821SOL    HW247356   4.023   6.960   1.469 -0.8771  1.7971 -1.9924
14822SOL     OW47357   4.639   5.128   5.637 -0.1538  0.2139  0.1807
14822SOL    HW147358   4.666   5.040   5.663  0.9457  0.3992 -0.2848
14822SOL    HW247359   4.572   5.152   5.701  0.7300 -0.2986  1.3394
14823SOL     OW47360   2.397   1.953   3.769 -0.6368  0.3414  0.6742
14823SOL    HW147361   2.436   1.875   3.809  1.2881  1.7518  1.7134
14823SOL    HW247362   2.347   1.994   3.840 -1.0776  0.4209  0.3220
14824SOL     OW47363   5.108   0.169   8.421 -0.1264 -0.8878  0.4095
14824SOL    HW147364   5.119   0.220   8.502  0.7959 -1.7328  0.8263
14824SOL    HW247365   5.178   0.105   8.423 -0.5268 -1.3810 -0.7297
14825SOL     OW47366   5.714   4.404   3.298 -0.3258  0.1112  0.0688
14825SOL    HW147367   5.746   4.468   3.235  0.4832 -0.4839 -0.1544
14825SOL    HW247368   5.792   4.353   3.322 -1.0165 -1.0712 -0.1113
14826SOL     OW47369   3.816   8.150   8.273  0.1266  0.2483  0.0382
14826SOL    HW147370   3.908   8.179   8.271 -0.0261  0.6993 -0.5334
14826SOL    HW247371   3.816   8.078   8.336  1.1148 -0.5387 -0.8127
14827SOL     OW47372   1.964   1.771   6.290  0.0256  0.3240  0.2703
14827SOL    HW147373   1.980   1.703   6.355 -1.6332 -0.3056  0.0588
14827SOL    HW247374   1.984   1.853   6.335 -0.5194 -0.1420  1.3757
14828SOL     OW47375   4.916   0.250   1.937 -0.1364  0.0615 -0.0097
14828SOL    HW147376   4.959   0.200   2.007 -2.3902 -0.2390  1.2658
14828SOL    HW247377   4.910   0.190   1.864  0.8404 -0.1542  0.0800
14829SOL     OW47378   2.007   1.142   6.304 -0.5754 -0.0130 -0.0945
14829SOL    HW147379   2.078   1.151   6.368 -0.9727  1.8575  0.1301
14829SOL    HW247380   2.033   1.068   6.250  0.3907 -0.8468  1.4363
14830SOL     OW47381   7.404   4.882   7.001 -0.0857  0.0562 -0.2525
14830SOL    HW147382   7.478   4.829   7.029  1.4262  2.2772  0.1829
14830SOL    HW247383   7.343   4.819   6.962  1.7027 -1.9336 -0.0226
14831SOL     OW47384   7.726   4.982   5.906  0.6098 -0.1757 -0.0082
14831SOL    HW147385   7.706   5.056   5.963 -3.0440  0.1021 -1.4186
14831SOL    HW247386   7.775   5.020   5.833  1.1246  0.3081  0.5761
14832SOL     OW47387   5.186   4.598   5.884 -0.1243  0.0819  0.1081
14832SOL    HW147388   5.134   4.576   5.807 -0.4146 -0.1684  0.3769
14832SOL    HW247389   5.122   4.626   5.949  0.1300  0.3952  0.2284
14833SOL     OW47390   8.197   0.481   6.477 -0.2067 -0.3427  0.4651
14833SOL    HW147391   8.167   0.571   6.486 -0.0720 -0.3479  0.9947
14833SOL    HW247392   8.130   0.439   6.422  0.4927  0.4427 -1.0457
14834SOL     OW47393   4.688   1.310   8.126  0.0753  0.2153 -0.0832
14834SOL    HW147394   4.693   1.372   8.052 -0.7006  1.4947  0.8994
14834SOL    HW247395   4.613   1.255   8.107  0.0278  0.3771 -0.3660
14835SOL     OW47396   6.531   6.176   7.151 -0.4225 -0.2084  0.0386
14835SOL    HW147397   6.550   6.092   7.107 -2.1098 -0.1479 -0.8929
14835SOL    HW247398   6.438   6.190   7.135 -0.7071  0.7120  2.2009
14836SOL     OW47399   4.572   0.162   7.497  0.5049 -0.0029 -0.0637
14836SOL    HW147400   4.612   0.194   7.578  3.0831  0.1567 -1.3271
14836SOL    HW247401   4.561   0.067   7.511  1.7185 -0.1152  0.1663
14837SOL     OW47402   4.870   6.288   0.811  0.4686  0.1693 -0.0478
14837SOL    HW147403   4.776   6.291   0.831 -0.0403 -4.3462 -0.6657
14837SOL    HW247404   4.912   6.326   0.888 -1.8048  0.5106  1.1236
14838SOL     OW47405   6.364   5.821   8.850  0.0367 -0.0423 -0.2883
14838SOL    HW147406   6.362   5.879   8.773 -1.8309  0.7273  0.2903
14838SOL    HW247407   6.434   5.855   8.904 -1.4063  2.1316  0.3221
14839SOL     OW47408   8.754   8.166   6.719  0.6082  0.2854 -0.2041
14839SOL    HW147409   8.709   8.095   6.675  2.0660  0.3606 -1.9256
14839SOL    HW247410   8.688   8.234   6.729 -0.4375 -0.7569  0.1894
14840SOL     OW47411   4.962   5.383   2.998  0.2474  0.0974 -0.2383
14840SOL    HW147412   4.896   5.328   2.955  1.9879 -1.6659 -0.8132
14840SOL    HW247413   5.017   5.415   2.926  0.6298  0.7136  0.3155
14841SOL     OW47414   7.227   1.863   0.117 -0.0990 -0.0116 -0.0711
14841SOL    HW147415   7.290   1.895   0.181 -0.6011 -0.3080  0.5828
14841SOL    HW247416   7.275   1.860   0.035  0.0480  2.2657 -0.1463
14842SOL     OW47417   6.402   7.804   8.957  0.1556 -0.5190 -0.9576
14842SOL    HW147418   6.340   7.810   8.884 -0.3183  0.2497 -0.5164
14842SOL    HW247419   6.348   7.777   9.031  0.4791 -0.4939 -0.7139
14843SOL     OW47420   6.264   9.171   3.734  0.6800 -0.1461 -0.2158
14843SOL    HW147421   6.200   9.242   3.725  0.9622 -0.0102 -1.1883
14843SOL    HW247422   6.313   9.194   3.813 -0.6263 -0.3884  0.7014
14844SOL     OW47423   2.563   3.988   0.334 -0.3934  0.2993  0.4656
14844SOL    HW147424   2.468   3.978   0.338 -0.6831  2.1719 -0.3526
14844SOL    HW247425   2.586   4.038   0.412 -0.0699 -0.1599  0.6693
14845SOL     OW47426   0.892   6.757   2.623  0.0425 -0.3213 -0.1858
14845SOL    HW147427   0.897   6.842   2.578 -1.7728 -1.0149 -1.8218
14845SOL    HW247428   0.980   6.721   2.615  0.4069  0.6800 -0.9644
14846SOL     OW47429   0.631   4.430   9.258 -0.0105 -0.1479 -0.3260
14846SOL    HW147430   0.604   4.449   9.168 -0.7745 -0.4643 -0.1764
14846SOL    HW247431   0.683   4.350   9.251  0.2310  0.0271 -0.5302
14847SOL     OW47432   3.864   3.132   8.020 -0.5416  0.3670 -0.4884
14847SOL    HW147433   3.937   3.103   7.966  0.6967  0.3180  1.1278
14847SOL    HW247434   3.886   3.102   8.108 -1.9978  1.2727  0.2216
14848SOL     OW47435   3.771   3.163   8.750  0.1878 -0.0762  0.3053
14848SOL    HW147436   3.702   3.197   8.693 -0.4019  0.2754  1.2072
14848SOL    HW247437   3.789   3.075   8.716 -0.8323 -0.2380  0.1504
14849SOL     OW47438   5.910   0.322   4.404  0.1325  0.2493 -0.0678
14849SOL    HW147439   5.985   0.381   4.412  1.8156 -1.9000  1.3761
14849SOL    HW247440   5.914   0.290   4.314  0.2811  0.9752 -0.3255
14850SOL     OW47441   5.726   4.662   8.828  0.0091 -0.1983 -0.9776
14850SOL    HW147442   5.787   4.598   8.863 -2.8066 -2.3466  0.4019
14850SOL    HW247443   5.715   4.726   8.898  0.2139 -0.1457 -0.9937
14851SOL     OW47444   1.638   8.993   7.526  0.3863  0.0517  0.0337
14851SOL    HW147445   1.723   9.015   7.565  1.1887  0.6267 -1.8861
14851SOL    HW247446   1.606   9.077   7.492 -1.3871 -0.0023  1.4755
14852SOL     OW47447   3.372   8.803   6.115 -0.5134 -0.5955 -0.0085
14852SOL    HW147448   3.455   8.768   6.084 -0.5241  1.3797 -2.5856
14852SOL    HW247449   3.392   8.843   6.199  1.3545  0.4561 -0.8962
14853SOL     OW47450   4.913   1.459   2.379  0.0524 -0.0983  0.0031
14853SOL    HW147451   4.882   1.545   2.352 -2.9405 -0.7061  1.0857
14853SOL    HW247452   4.879   1.399   2.312 -0.2031 -0.7082  0.6666
14854SOL     OW47453   1.897   4.328   1.037  0.0717 -0.1933  0.4417
14854SOL    HW147454   1.859   4.288   0.958 -0.5272 -0.4548  0.8541
14854SOL    HW247455   1.823   4.336   1.097 -0.0358  2.3755  0.0678
14855SOL     OW47456   8.122   7.094   6.775  0.2047 -0.0322 -0.3828
14855SOL    HW147457   8.108   7.170   6.832 -1.5111 -0.5297 -0.0918
14855SOL    HW247458   8.197   7.119   6.720  1.3159  0.8387  1.4284
14856SOL     OW47459   8.364   3.975   9.038 -0.6481  0.4328 -0.0625
14856SOL    HW147460   8.323   4.028   9.106 -0.0873  1.3547 -0.4179
14856SOL    HW247461   8.294   3.956   8.977 -0.8279  0.9037 -0.0102
14857SOL     OW47462   8.386   8.153   7.912  0.1519 -0.5587  0.2527
14857SOL    HW147463   8.396   8.177   8.004 -0.4090 -0.9319  0.4221
14857SOL    HW247464   8.397   8.235   7.864 -0.1937 -0.2404  0.7034
14858SOL     OW47465   0.334   7.609   4.667 -0.2930 -0.1048  0.1656
14858SOL    HW147466   0.283   7.532   4.690  0.1267 -0.3279  0.3549
14858SOL    HW247467   0.269   7.673   4.638 -0.5915 -0.7477 -0.6360
14859SOL     OW47468   0.447   5.200   4.290  0.4188 -0.1839  0.0672
14859SOL    HW147469   0.446   5.295   4.302  2.0987 -0.3062  1.5430
14859SOL    HW247470   0.359   5.172   4.314  0.8022  0.7044  2.9261
14860SOL     OW47471   0.657   8.403   3.937  0.2689 -0.0118  0.2513
14860SOL    HW147472   0.712   8.480   3.948  0.5570 -0.2758  0.6700
14860SOL    HW247473   0.715   8.336   3.902  0.2165 -0.2929  0.7002
14861SOL     OW47474   6.272   5.573   2.325  0.3293 -0.2491 -0.5299
14861SOL    HW147475   6.318   5.553   2.244  4.6390  0.7236  1.3803
14861SOL    HW247476   6.283   5.495   2.379  0.8951  0.4463  0.4019
14862SOL     OW47477   5.632   6.351   0.033 -0.4898 -0.5406 -0.5015
14862SOL    HW147478   5.561   6.293   0.006 -0.7860  0.0310 -0.9735
14862SOL    HW247479   5.592   6.438   0.035 -0.1446 -0.3913  0.5327
14863SOL     OW47480   2.008   1.230   2.378  0.7161  0.6684 -0.0617
14863SOL    HW147481   1.966   1.196   2.299  2.9395 -0.9762 -0.6325
14863SOL    HW247482   1.943   1.219   2.447  0.3056 -2.2493 -0.7840
14864SOL     OW47483   2.829   6.974   6.893  0.0486  0.5048 -0.4330
14864SOL    HW147484   2.887   7.036   6.937 -0.2884 -0.8930  2.1994
14864SOL    HW247485   2.741   7.000   6.917 -0.1631 -0.1290 -0.4856
14865SOL     OW47486   0.543   4.255   4.330 -0.2283 -0.5089  0.2066
14865SOL    HW147487   0.554   4.346   4.305  0.3138 -0.7451 -0.4201
14865SOL    HW247488   0.505   4.213   4.253 -1.3362 -0.6442  0.7934
14866SOL     OW47489   2.921   6.641   6.543  0.3810 -0.0452 -0.1116
14866SOL    HW147490   2.906   6.639   6.637 -3.4016 -0.9176 -0.5596
14866SOL    HW247491   2.912   6.733   6.519  0.1969  0.0304  0.2460
14867SOL     OW47492   4.188   0.219   1.932 -0.2507  0.6351  0.3731
14867SOL    HW147493   4.171   0.313   1.945 -2.0501  0.6468 -1.4032
14867SOL    HW247494   4.128   0.176   1.993 -0.3059  0.6424  0.3240
14868SOL     OW47495   2.910   0.985   2.086 -0.9172 -0.0850  0.0526
14868SOL    HW147496   2.895   1.075   2.114 -1.0506 -0.5460  1.5537
14868SOL    HW247497   2.921   0.936   2.167  5.0627 -0.5396 -0.5820
14869SOL     OW47498   3.339   2.501   3.622  0.3095 -0.0655 -0.4415
14869SOL    HW147499   3.313   2.481   3.712  0.7558  1.5844  0.0972
14869SOL    HW247500   3.330   2.418   3.575  0.7030 -1.1244  1.2660
14870SOL     OW47501   2.143   0.422   7.077  0.2182 -0.3910 -0.2700
14870SOL    HW147502   2.143   0.383   7.164 -1.7826  0.3322  0.1075
14870SOL    HW247503   2.089   0.363   7.024 -0.6982  0.4749 -0.3378
14871SOL     OW47504   1.517   3.334   1.412 -0.3007 -0.1964  0.4272
14871SOL    HW147505   1.609   3.350   1.433 -0.3730 -0.6201  1.0946
14871SOL    HW247506   1.518   3.303   1.321  0.3754 -1.5521  0.8581
14872SOL     OW47507   5.230   4.426   4.717 -0.3966  0.4140  0.2616
14872SOL    HW147508   5.221   4.332   4.704  0.5478  0.6337 -2.7191
14872SOL    HW247509   5.208   4.440   4.809  0.5753 -2.8401  1.1094
14873SOL     OW47510   4.031   4.977   0.540  0.4564  0.0096 -0.6553
14873SOL    HW147511   4.022   4.912   0.610 -0.0949  1.6131  0.8298
14873SOL    HW247512   4.101   4.942   0.484 -0.1649 -2.0894 -0.2125
14874SOL     OW47513   4.573   4.315   6.139  0.7131 -0.1988 -0.3143
14874SOL    HW147514   4.614   4.262   6.207  0.8758 -0.3659 -0.5373
14874SOL    HW247515   4.642   4.326   6.073  0.8130  0.6294 -0.0866
14875SOL     OW47516   9.193   3.466   4.558 -0.0076  0.2409 -0.2152
14875SOL    HW147517   9.248   3.398   4.599 -2.2431 -1.3893  0.2806
14875SOL    HW247518   9.166   3.427   4.475 -0.9948  0.6901 -0.1147
14876SOL     OW47519   7.140   2.130   6.812 -0.0674  0.5444 -0.5425
14876SOL    HW147520   7.061   2.130   6.867 -1.2270 -0.9524 -2.1073
14876SOL    HW247521   7.137   2.215   6.768 -1.0846  0.3336 -0.9204
14877SOL     OW47522   6.717   2.611   8.473  0.0810 -0.4331 -0.7723
14877SOL    HW147523   6.715   2.622   8.568 -0.2630 -1.4621 -0.6541
14877SOL    HW247524   6.625   2.604   8.448  0.1978 -0.8220 -1.0973
14878SOL     OW47525   6.778   2.828   2.226 -0.2131 -0.0941 -0.1285
14878SOL    HW147526   6.787   2.761   2.294  1.8096 -0.5074 -0.7257
14878SOL    HW247527   6.709   2.794   2.168 -0.0417 -1.0844  0.2258
14879SOL     OW47528   0.142   1.321   6.350  0.2999  0.5457  0.1462
14879SOL    HW147529   0.226   1.350   6.313  1.6785 -1.0643  1.7768
14879SOL    HW247530   0.125   1.383   6.421  0.5477  0.3766  0.3527
14880SOL     OW47531   2.582   6.424   3.627  0.2128 -0.3467  0.2169
14880SOL    HW147532   2.616   6.377   3.551  0.6653  1.2684 -0.6345
14880SOL    HW247533   2.583   6.360   3.698  1.4140 -1.4186 -0.7290
14881SOL     OW47534   7.125   0.858   0.648 -0.0009 -0.0760 -0.2565
14881SOL    HW147535   7.158   0.909   0.573  0.0384 -1.2190 -1.0461
14881SOL    HW247536   7.194   0.794   0.665 -0.0952  0.0626  0.6542
14882SOL     OW47537   4.947   5.357   0.589  0.0186 -0.1857  0.1734
14882SOL    HW147538   4.901   5.428   0.543  1.3576  0.3762 -0.3477
14882SOL    HW247539   4.923   5.278   0.541 -2.2512 -0.2861  1.3237
14883SOL     OW47540   7.915   2.149   5.701  0.0390  0.3209  0.8263
14883SOL    HW147541   7.897   2.237   5.732  1.6136  0.6246  0.9275
14883SOL    HW247542   7.958   2.106   5.775 -1.3753 -0.8004  1.0507
14884SOL     OW47543   3.746   3.641   7.183 -0.5956  0.3639  0.1788
14884SOL    HW147544   3.821   3.582   7.177 -0.8316 -0.0059  0.8215
14884SOL    HW247545   3.704   3.636   7.097  0.0230  0.4522 -0.1307
14885SOL     OW47546   4.923   3.030   6.904  0.4184 -0.3997 -0.5475
14885SOL    HW147547   4.902   2.943   6.938 -0.5572  0.6071  1.6132
14885SOL    HW247548   4.838   3.065   6.875  0.6576  0.1668 -0.5733
14886SOL     OW47549   0.093   8.719   1.434 -0.5012 -0.1079  0.3307
14886SOL    HW147550   0.080   8.635   1.478 -2.0259  0.1614  0.4380
14886SOL    HW247551   0.033   8.718   1.360  0.0933  0.5490 -0.1821
14887SOL     OW47552   8.893   2.915   5.631  0.4439  0.1314  0.4018
14887SOL    HW147553   8.970   2.903   5.575  1.0237  1.6923  0.8194
14887SOL    HW247554   8.864   2.826   5.651  1.1733 -0.4716 -1.0672
14888SOL     OW47555   8.416   7.620   7.712 -0.3756  0.0800  1.0434
14888SOL    HW147556   8.394   7.714   7.710 -0.8105 -0.0154  1.2570
14888SOL    HW247557   8.491   7.615   7.773 -0.4543  0.2673  1.1591
14889SOL     OW47558   6.581   6.437   5.473  0.0843 -0.5218 -0.9176
14889SOL    HW147559   6.544   6.463   5.389  0.8269 -0.3413 -1.2039
14889SOL    HW247560   6.522   6.473   5.539  0.4951  0.9617 -1.3237
14890SOL     OW47561   3.596   3.457   0.864 -0.9045  0.4191 -0.3115
14890SOL    HW147562   3.556   3.382   0.908  2.1062 -0.1039  1.8426
14890SOL    HW247563   3.576   3.531   0.921  0.2827  0.3215  0.2584
14891SOL     OW47564   4.503   6.029   2.986  0.2771 -0.5236 -0.2359
14891SOL    HW147565   4.493   6.122   3.006 -0.9203 -0.9403  1.3450
14891SOL    HW247566   4.507   6.025   2.890  0.7568  1.1687 -0.3181
14892SOL     OW47567   3.247   5.374   2.044  0.0477  0.5875 -0.0739
14892SOL    HW147568   3.321   5.401   2.099  1.7673 -1.4811 -1.1997
14892SOL    HW247569   3.254   5.278   2.041 -1.6977  0.4551 -1.5934
14893SOL     OW47570   2.754   1.190   2.621 -0.0470  0.2375  0.1985
14893SOL    HW147571   2.827   1.251   2.615 -0.7926  1.0210 -1.3931
14893SOL    HW247572   2.694   1.231   2.683  0.4727 -0.0213  0.8936
14894SOL     OW47573   5.484   3.487   1.403 -0.6064  0.2185  0.2228
14894SOL    HW147574   5.427   3.411   1.395  1.1995 -1.0313 -2.2421
14894SOL    HW247575   5.569   3.451   1.428 -0.1286  1.6715  0.8099
14895SOL     OW47576   5.709   2.130   0.875  0.0380  0.5582 -0.5025
14895SOL    HW147577   5.727   2.037   0.888 -0.1878  0.7624  1.6280
14895SOL    HW247578   5.635   2.132   0.813 -2.0783 -0.8849  1.7769
14896SOL     OW47579   2.173   8.145   4.024  0.1419 -0.0260  0.4141
14896SOL    HW147580   2.093   8.146   3.972  1.0382  0.2791 -1.0040
14896SOL    HW247581   2.175   8.231   4.066  0.2786  0.3992 -0.4415
14897SOL     OW47582   0.311   8.911   5.634  0.1752  0.1009  0.4620
14897SOL    HW147583   0.265   8.995   5.633 -1.6418 -0.8404 -0.4693
14897SOL    HW247584   0.263   8.858   5.698 -0.3712 -1.0413 -0.8407
14898SOL     OW47585   1.861   2.452   2.421  0.1348 -0.3128  0.3909
14898SOL    HW147586   1.852   2.496   2.336 -0.0838 -0.5345  0.2982
14898SOL    HW247587   1.783   2.479   2.470 -0.9261 -1.9879 -0.2974
14899SOL     OW47588   9.152   9.193   9.079 -0.3237 -0.4441 -0.0467
14899SOL    HW147589   9.180   9.196   9.170 -0.5585  1.0552  0.0068
14899SOL    HW247590   9.057   9.194   9.083 -0.4169  2.7542 -0.2661
14900SOL     OW47591   3.183   7.935   7.670  0.0981 -0.1487 -0.1105
14900SOL    HW147592   3.216   8.024   7.680 -2.7241  1.2485 -1.7520
14900SOL    HW247593   3.179   7.921   7.576 -1.7524 -1.0251  0.0462
14901SOL     OW47594   5.611   3.693   3.825  0.1279 -0.2644 -0.1496
14901SOL    HW147595   5.617   3.617   3.768  0.3784 -0.5607  0.2629
14901SOL    HW247596   5.532   3.678   3.877  0.8253 -0.8461  0.7729
14902SOL     OW47597   6.830   6.593   1.139 -0.4177  0.4290  0.7252
14902SOL    HW147598   6.867   6.510   1.111 -2.1677  0.6216 -2.7485
14902SOL    HW247599   6.900   6.657   1.123 -0.5756  0.1780 -1.2170
14903SOL     OW47600   5.998   4.982   7.158 -0.0287 -0.4402 -0.2816
14903SOL    HW147601   6.061   4.960   7.226  0.0756  0.8425  0.0651
14903SOL    HW247602   6.025   4.931   7.082  1.6173  0.2931 -0.2235
14904SOL     OW47603   6.055   1.122   3.119  0.0120 -0.6548  0.6121
14904SOL    HW147604   5.997   1.062   3.166 -0.9516 -0.8501 -0.7584
14904SOL    HW247605   6.018   1.208   3.135 -0.5569 -0.7586 -0.0793
14905SOL     OW47606   0.586   0.498   4.469 -0.0405 -0.1635  0.3305
14905SOL    HW147607   0.560   0.588   4.491  0.2094  0.2250 -0.8942
14905SOL    HW247608   0.677   0.506   4.442  0.4027 -1.0168  1.5293
14906SOL     OW47609   4.438   8.757   0.176 -0.2688  0.0601  0.1235
14906SOL    HW147610   4.431   8.752   0.271  0.4445 -1.1632  0.1382
14906SOL    HW247611   4.531   8.773   0.159 -0.4018  0.3474 -0.3707
14907SOL     OW47612   2.239   7.410   0.863 -0.1132 -0.0360  0.1078
14907SOL    HW147613   2.271   7.473   0.798 -1.2977 -0.4593 -0.9224
14907SOL    HW247614   2.150   7.440   0.883  0.7862  1.0665  2.8520
14908SOL     OW47615   2.629   0.215   2.801 -0.3300 -0.1360  0.0369
14908SOL    HW147616   2.665   0.259   2.878 -2.1018 -2.0135  2.0617
14908SOL    HW247617   2.553   0.269   2.776 -1.1104 -0.7188  1.0713
14909SOL     OW47618   3.361   0.564   0.498  0.2364  0.1409 -0.6996
14909SOL    HW147619   3.311   0.625   0.552  0.0450 -0.6884  0.0883
14909SOL    HW247620   3.328   0.577   0.409 -1.0751 -0.0731 -0.2673
14910SOL     OW47621   8.154   7.291   1.479 -0.2167  0.1136  0.5495
14910SOL    HW147622   8.190   7.281   1.567 -0.0647 -0.6040  0.4186
14910SOL    HW247623   8.230   7.291   1.422 -0.2240  1.9555  0.5062
14911SOL     OW47624   3.408   1.241   1.715  0.0654 -0.1549  0.2048
14911SOL    HW147625   3.392   1.181   1.642 -0.6217  0.6388 -0.3198
14911SOL    HW247626   3.383   1.327   1.681 -0.4179  0.2113  1.4281
14912SOL     OW47627   8.313   3.548   1.021  0.2171  0.8038  0.1928
14912SOL    HW147628   8.279   3.574   0.936 -0.3670  1.3617  0.5932
14912SOL    HW247629   8.248   3.579   1.084  0.8013  0.6885  0.8661
14913SOL     OW47630   5.991   0.566   3.797  0.1679  0.0066  0.3073
14913SOL    HW147631   5.944   0.619   3.732  0.8597 -1.1882 -1.2421
14913SOL    HW247632   6.072   0.541   3.752  1.0542 -0.2014  1.9482
14914SOL     OW47633   6.493   1.923   8.528 -0.2174  0.4906  0.4897
14914SOL    HW147634   6.493   2.019   8.526  1.0169  0.5022 -1.3568
14914SOL    HW247635   6.479   1.897   8.437 -1.6958 -1.1317  1.1337
14915SOL     OW47636   3.460   6.721   7.237  0.5864  0.1307  0.1420
14915SOL    HW147637   3.522   6.795   7.245  1.5270 -0.7016  0.8764
14915SOL    HW247638   3.426   6.728   7.148 -0.5143  2.3347  0.6453
14916SOL     OW47639   7.168   4.746   5.817 -0.8189  0.6143  0.5388
14916SOL    HW147640   7.152   4.660   5.776 -1.0138  0.2570  1.3503
14916SOL    HW247641   7.214   4.796   5.750 -0.7802 -0.0995  0.0221
14917SOL     OW47642   8.551   7.112   4.814 -0.0599  0.2305  0.1967
14917SOL    HW147643   8.573   7.120   4.907  1.7237 -0.1525 -0.1568
14917SOL    HW247644   8.498   7.032   4.809 -1.9184  1.3258  1.1159
14918SOL     OW47645   6.993   4.407   3.053 -0.4594 -0.2823 -0.4917
14918SOL    HW147646   7.066   4.460   3.087 -2.5695  2.4458  0.1283
14918SOL    HW247647   6.940   4.387   3.130 -1.1890 -0.8658 -1.1295
14919SOL     OW47648   5.718   4.773   6.331  0.0202  0.6770  0.6170
14919SOL    HW147649   5.659   4.743   6.263  1.4982 -0.3871 -0.2473
14919SOL    HW247650   5.760   4.851   6.294  1.2339 -0.2187  0.0275
14920SOL     OW47651   7.023   6.362   8.281 -0.1783  0.2062 -0.2841
14920SOL    HW147652   7.104   6.384   8.236  0.5111 -2.2517 -0.3765
14920SOL    HW247653   6.972   6.313   8.217 -1.4622  1.0971  0.0068
14921SOL     OW47654   8.549   5.276   2.621  0.5706 -0.2819 -0.3874
14921SOL    HW147655   8.591   5.211   2.564  1.3091  0.4262 -0.6707
14921SOL    HW247656   8.561   5.241   2.709  2.2570  0.1394 -0.4130
14922SOL     OW47657   0.024   3.647   0.272  0.4903 -0.3964  0.3685
14922SOL    HW147658   0.045   3.728   0.320  0.5456 -0.7172  0.8978
14922SOL    HW247659   0.108   3.613   0.243  0.3406  0.7565 -1.5910
14923SOL     OW47660   0.763   2.020   8.144  0.0127  0.6961 -0.0576
14923SOL    HW147661   0.833   2.069   8.101  0.2622  0.6511  0.3002
14923SOL    HW247662   0.697   2.087   8.166 -0.6438  0.5731 -1.5218
14924SOL     OW47663   5.958   2.730   8.722  0.5929  1.0296  0.4290
14924SOL    HW147664   5.961   2.728   8.627 -2.2796  1.6213  0.2116
14924SOL    HW247665   5.961   2.638   8.749 -0.5426  0.7169 -0.4180
14925SOL     OW47666   6.964   6.397   7.034 -0.3056  0.4071 -0.7637
14925SOL    HW147667   6.893   6.448   7.073  0.3999 -0.0903  1.3175
14925SOL    HW247668   7.014   6.461   6.984  0.3150  1.7740  1.4487
14926SOL     OW47669   0.448   7.249   1.415  0.4546  0.0430 -0.0993
14926SOL    HW147670   0.527   7.208   1.450  0.8668  0.9976  0.1335
14926SOL    HW247671   0.462   7.343   1.429 -0.6048  0.2448 -0.2997
14927SOL     OW47672   9.224   0.500   3.798 -0.0005  0.0375  0.4161
14927SOL    HW147673   9.250   0.408   3.797  2.6395  0.6686  2.0097
14927SOL    HW247674   9.215   0.523   3.890 -0.7328  1.3530  0.0526
14928SOL     OW47675   5.736   6.751   0.944  0.2809  0.3500  0.3492
14928SOL    HW147676   5.662   6.795   0.902  0.9678  0.3237 -0.9566
14928SOL    HW247677   5.788   6.716   0.871  2.0372  1.0981  1.1671
14929SOL     OW47678   7.748   5.783   1.140 -0.1993  0.7849 -0.4992
14929SOL    HW147679   7.752   5.843   1.066  1.5945  0.7624 -0.4634
14929SOL    HW247680   7.838   5.754   1.152 -0.6062  0.0949  1.1259
14930SOL     OW47681   7.142   2.927   6.293 -0.3014  0.7744  0.2824
14930SOL    HW147682   7.066   2.981   6.312 -1.0780  0.2806 -1.2371
14930SOL    HW247683   7.119   2.840   6.325 -1.4112  0.0592 -2.2427
14931SOL     OW47684   2.540   6.441   8.514  0.0436 -0.2593  0.0804
14931SOL    HW147685   2.556   6.349   8.493 -0.3469 -0.2760 -0.1616
14931SOL    HW247686   2.600   6.489   8.456 -0.3915 -0.3353 -0.4432
14932SOL     OW47687   8.650   6.990   5.539 -0.6626  0.0155 -0.3246
14932SOL    HW147688   8.595   6.932   5.591  1.3288 -1.8280 -0.1588
14932SOL    HW247689   8.640   7.076   5.580 -4.2535  0.0970 -1.0164
14933SOL     OW47690   8.609   5.847   5.226 -0.1523 -0.3799 -0.7191
14933SOL    HW147691   8.665   5.778   5.261 -0.6493 -0.8353 -0.8090
14933SOL    HW247692   8.629   5.851   5.133 -1.4035 -1.6577 -1.0737
14934SOL     OW47693   7.583   2.861   7.804  0.5610  0.6479  0.9477
14934SOL    HW147694   7.511   2.798   7.804 -1.4113  2.7565 -0.0577
14934SOL    HW247695   7.570   2.912   7.885 -0.0650  2.0185  0.0235
14935SOL     OW47696   5.184   4.185   3.655  0.4770  0.8062 -0.1392
14935SOL    HW147697   5.194   4.274   3.687 -0.1343  0.8815 -0.1342
14935SOL    HW247698   5.249   4.175   3.586  1.1577  0.9592  0.4760
14936SOL     OW47699   6.668   1.243   1.571  0.3515 -0.0135 -0.1287
14936SOL    HW147700   6.728   1.205   1.507 -0.7059  0.1914 -1.2812
14936SOL    HW247701   6.710   1.229   1.656  1.1115 -1.5664 -0.7446
14937SOL     OW47702   8.068   2.331   0.699  0.3704 -0.1691 -0.4489
14937SOL    HW147703   8.020   2.389   0.640 -1.7722  1.1896  2.3389
14937SOL    HW247704   8.129   2.389   0.744  0.7618 -0.7982 -0.1611
14938SOL     OW47705   6.344   3.715   2.539  0.0571 -0.0632  0.2536
14938SOL    HW147706   6.420   3.689   2.590 -0.4673  0.9014  1.5992
14938SOL    HW247707   6.275   3.654   2.565 -0.7117  1.5256  2.1460
14939SOL     OW47708   1.109   2.489   0.631 -0.0061  0.3868  0.0223
14939SOL    HW147709   1.177   2.533   0.580 -0.3833  0.6370 -0.2720
14939SOL    HW247710   1.030   2.541   0.616 -0.3788 -0.1862 -0.0461
14940SOL     OW47711   7.147   9.176   6.369  0.2918  0.2036  0.0178
14940SOL    HW147712   7.140   9.271   6.379 -4.0275  0.1619 -0.5057
14940SOL    HW247713   7.132   9.141   6.456  0.9537 -0.0291  0.0437
14941SOL     OW47714   1.747   8.989   6.916  0.0398 -0.1656  0.2518
14941SOL    HW147715   1.787   8.918   6.966 -0.4697 -1.4955 -1.1783
14941SOL    HW247716   1.677   9.022   6.972 -1.8300 -2.9351 -0.2920
14942SOL     OW47717   1.254   0.459   8.085  0.4777  0.1467  0.2532
14942SOL    HW147718   1.164   0.492   8.092  0.6185  1.1875 -1.9466
14942SOL    HW247719   1.307   0.538   8.077  1.2696 -0.4985 -1.1543
14943SOL     OW47720   3.567   6.248   3.288  0.0817  0.2059 -0.2045
14943SOL    HW147721   3.625   6.174   3.266 -1.0293 -0.7121 -0.1535
14943SOL    HW247722   3.584   6.313   3.221  1.5209  0.1645  0.0823
14944SOL     OW47723   8.320   0.830   4.304 -0.8213 -0.5367 -0.7048
14944SOL    HW147724   8.325   0.770   4.378 -1.5540  1.6571  1.2258
14944SOL    HW247725   8.239   0.805   4.259 -1.8885 -0.1700  0.9045
14945SOL     OW47726   7.310   4.979   1.308 -0.1213 -0.1096 -0.2566
14945SOL    HW147727   7.368   4.997   1.233 -1.2527 -1.0268 -1.4056
14945SOL    HW247728   7.224   5.007   1.278 -0.4606  0.2519  1.0268
14946SOL     OW47729   1.964   4.132   0.776  0.1703 -0.2533 -0.1032
14946SOL    HW147730   2.020   4.062   0.744 -0.7645 -1.0505 -0.0487
14946SOL    HW247731   1.886   4.127   0.721  0.2171  0.9620 -0.3071
14947SOL     OW47732   7.096   5.834   3.023  0.6430 -0.4046 -0.4187
14947SOL    HW147733   7.055   5.877   2.948  1.5977 -0.4907 -1.0183
14947SOL    HW247734   7.118   5.746   2.991 -0.8809 -1.2070  0.6490
14948SOL     OW47735   0.349   5.530   1.471  0.1535  0.1649  0.1461
14948SOL    HW147736   0.317   5.536   1.381  2.0868  0.6800 -0.5515
14948SOL    HW247737   0.277   5.488   1.519 -0.9387 -0.0874 -1.6107
14949SOL     OW47738   0.676   7.559   6.152 -0.3473 -0.3859  0.1011
14949SOL    HW147739   0.732   7.481   6.148 -2.0149 -1.6386  0.0076
14949SOL    HW247740   0.606   7.535   6.213 -0.0212  1.6926  1.4088
14950SOL     OW47741   5.901   2.510   7.887 -0.3140  0.2454  0.0301
14950SOL    HW147742   5.815   2.478   7.915  0.6106 -1.8703  0.6490
14950SOL    HW247743   5.954   2.430   7.876  1.8570  1.5212  0.6354
14951SOL     OW47744   4.154   1.519   2.567  0.0714  0.2415  0.3707
14951SOL    HW147745   4.207   1.483   2.495  0.9437  0.4907  0.8702
14951SOL    HW247746   4.088   1.453   2.583  2.7494 -2.1749  2.5651
14952SOL     OW47747   7.353   5.335   3.903 -0.3030  0.1845  0.0062
14952SOL    HW147748   7.302   5.277   3.959 -1.1251  0.1995 -0.7091
14952SOL    HW247749   7.288   5.394   3.865  0.4483  1.2208  0.2836
14953SOL     OW47750   8.100   4.780   1.414 -0.1768  0.1531 -0.0267
14953SOL    HW147751   8.031   4.830   1.371  0.3708  0.3846 -0.6451
14953SOL    HW247752   8.078   4.784   1.507 -2.3200 -1.7662 -0.3686
14954SOL     OW47753   4.288   3.663   4.936  0.1822  0.3337  0.3036
14954SOL    HW147754   4.247   3.659   5.023 -1.0011 -2.7949 -0.2670
14954SOL    HW247755   4.348   3.588   4.935  0.0250  0.2007 -1.6556
14955SOL     OW47756   3.235   7.599   5.529  0.1079 -0.2296  0.0841
14955SOL    HW147757   3.282   7.538   5.473  0.0559 -0.5412  0.3743
14955SOL    HW247758   3.156   7.620   5.481  0.6317  0.4480 -0.4933
14956SOL     OW47759   2.359   6.503   0.222  0.2239 -0.1121  0.0820
14956SOL    HW147760   2.393   6.544   0.301  0.9888  2.8336 -1.6387
14956SOL    HW247761   2.407   6.420   0.215  0.1641 -0.4216  2.6080
14957SOL     OW47762   7.991   7.245   2.143 -0.2060  0.2758 -0.1297
14957SOL    HW147763   7.980   7.276   2.053 -1.0165 -1.2907 -0.6067
14957SOL    HW247764   8.009   7.324   2.193  0.3843  1.1748 -1.6773
14958SOL     OW47765   7.472   0.508   6.843 -0.3938  0.2703 -0.3274
14958SOL    HW147766   7.488   0.600   6.822  0.4526 -0.0597 -1.2695
14958SOL    HW247767   7.480   0.503   6.938  0.4123  1.0248 -0.3379
14959SOL     OW47768   8.526   1.471   2.102 -0.2251  0.4095  0.0920
14959SOL    HW147769   8.584   1.417   2.047  0.1737 -1.4070  2.1367
14959SOL    HW247770   8.461   1.506   2.042  0.4654 -1.0752 -1.6119
14960SOL     OW47771   5.743   6.694   7.487  0.0606 -0.1013 -0.4525
14960SOL    HW147772   5.716   6.757   7.420  1.1597  1.5402  0.5755
14960SOL    HW247773   5.829   6.664   7.457  0.0319 -0.2609 -0.3721
14961SOL     OW47774   6.317   7.978   0.756  0.0761  0.1125 -0.2072
14961SOL    HW147775   6.315   7.886   0.729 -1.2587  1.0585 -3.8739
14961SOL    HW247776   6.226   8.005   0.756  0.3313  1.2421  2.0276
14962SOL     OW47777   9.238   9.229   0.101  0.7512  0.1578  0.4358
14962SOL    HW147778   9.323   9.273   0.100  0.6977  0.4409  2.7162
14962SOL    HW247779   9.258   9.137   0.118  0.5871  0.5562  3.1922
14963SOL     OW47780   7.695   3.992   2.092  0.1849  0.2911 -0.2421
14963SOL    HW147781   7.618   3.952   2.053  0.9348 -1.6700  0.1593
14963SOL    HW247782   7.765   3.978   2.028  0.4882  0.9109 -0.0546
14964SOL     OW47783   4.702   4.629   6.382  0.1663  0.2688  0.2848
14964SOL    HW147784   4.614   4.633   6.346 -0.1504  0.0345  1.0190
14964SOL    HW247785   4.756   4.597   6.309 -0.7957 -2.2001  0.5656
14965SOL     OW47786   2.639   9.122   5.613  0.3627 -0.4170 -0.2182
14965SOL    HW147787   2.699   9.084   5.677  1.6857  0.5236 -0.8659
14965SOL    HW247788   2.641   9.216   5.631 -2.0195 -0.4461  0.6379
14966SOL     OW47789   5.694   0.470   0.652  0.5544  0.3436 -0.0827
14966SOL    HW147790   5.742   0.510   0.725  0.8580 -0.3024  0.0791
14966SOL    HW247791   5.738   0.386   0.638 -1.1186 -0.7094  0.7158
14967SOL     OW47792   2.416   7.940   4.317  1.0124  0.1394 -0.6793
14967SOL    HW147793   2.405   8.035   4.318  0.5068  0.0812  0.4290
14967SOL    HW247794   2.377   7.910   4.399 -1.3263 -1.3027 -2.2020
14968SOL     OW47795   1.263   6.883   5.926  0.2051  0.1124 -0.0456
14968SOL    HW147796   1.198   6.952   5.919 -0.8228 -0.9144 -0.9664
14968SOL    HW247797   1.324   6.901   5.855  0.7649  0.8682  0.5996
14969SOL     OW47798   5.600   6.875   0.156 -0.4290  0.4640 -0.1229
14969SOL    HW147799   5.610   6.944   0.221  0.4570  0.3980 -0.1762
14969SOL    HW247800   5.673   6.816   0.172 -0.0916  0.5428 -1.2878
14970SOL     OW47801   7.231   2.039   4.648 -0.1154  0.4314  0.6454
14970SOL    HW147802   7.228   1.981   4.572  0.1532 -0.2309  1.1263
14970SOL    HW247803   7.182   1.991   4.716  0.9471  0.3100  1.3458
14971SOL     OW47804   0.948   4.912   3.741  0.2171 -0.1209 -0.7130
14971SOL    HW147805   1.002   4.922   3.663 -0.8362 -1.3140 -1.6387
14971SOL    HW247806   0.904   4.996   3.752  1.7093  0.6559 -0.3159
14972SOL     OW47807   3.735   3.963   9.059 -0.4590 -0.2998  0.3321
14972SOL    HW147808   3.738   4.059   9.049  0.7408 -0.3787 -0.3847
14972SOL    HW247809   3.647   3.938   9.031 -0.1125  0.4161 -1.5301
14973SOL     OW47810   8.370   1.289   2.227  0.3158  1.0861  0.0529
14973SOL    HW147811   8.418   1.207   2.239 -1.1215  0.4192  1.6785
14973SOL    HW247812   8.430   1.345   2.178  0.6959 -1.4790 -2.6810
14974SOL     OW47813   5.650   5.365   6.433 -0.6055 -0.0446  1.0960
14974SOL    HW147814   5.705   5.405   6.366 -1.6394  5.2178  2.9289
14974SOL    HW247815   5.701   5.372   6.514 -0.9852 -2.5526  1.6532
14975SOL     OW47816   5.231   1.204   6.239 -0.4737 -0.1300  0.4334
14975SOL    HW147817   5.172   1.160   6.300  0.3124 -0.2953  1.0900
14975SOL    HW247818   5.173   1.258   6.185 -1.4128 -1.5132 -0.0213
14976SOL     OW47819   5.117   4.545   2.068 -0.1159 -0.2964  0.0172
14976SOL    HW147820   5.035   4.591   2.085  0.9109  1.1414  1.4055
14976SOL    HW247821   5.152   4.585   1.988 -1.0098 -1.3288 -0.9226
14977SOL     OW47822   3.236   7.155   5.814 -0.1130  0.6047 -0.6817
14977SOL    HW147823   3.307   7.215   5.791 -0.2786  1.3720  0.6865
14977SOL    HW247824   3.204   7.187   5.898 -0.1608 -1.4753  0.1391
14978SOL     OW47825   6.881   7.074   9.081  0.1423  0.5665 -0.2249
14978SOL    HW147826   6.887   7.022   9.001 -0.2703 -0.0975  0.1654
14978SOL    HW247827   6.939   7.148   9.066  1.1117 -0.2490 -0.6091
14979SOL     OW47828   3.178   5.879   1.292  0.2317  0.2501 -0.4603
14979SOL    HW147829   3.106   5.852   1.234 -0.0838  1.3142 -0.5861
14979SOL    HW247830   3.144   5.863   1.380  0.5689 -1.0139 -0.5339
14980SOL     OW47831   5.632   0.194   4.252  0.6123  0.0601  0.2421
14980SOL    HW147832   5.635   0.099   4.238 -0.8355  0.2175 -1.5375
14980SOL    HW247833   5.706   0.228   4.202 -0.3531  0.0407 -1.2408
14981SOL     OW47834   4.522   9.115   5.109  0.6376 -1.0324 -0.6491
14981SOL    HW147835   4.427   9.130   5.102  0.2862 -2.2644  0.9312
14981SOL    HW247836   4.556   9.140   5.023 -1.0304  0.0156 -1.0583
14982SOL     OW47837   8.219   2.523   0.802 -0.0480 -0.5578  0.0451
14982SOL    HW147838   8.289   2.557   0.858  0.0063  0.6042 -0.7073
14982SOL    HW247839   8.145   2.581   0.819  0.7037  1.5072 -2.9191
14983SOL     OW47840   7.125   6.619   0.300  0.4084 -0.1512 -0.5856
14983SOL    HW147841   7.115   6.606   0.394  2.2485  0.9052 -0.1761
14983SOL    HW247842   7.196   6.560   0.275  0.2956 -0.0302 -1.2082
14984SOL     OW47843   8.033   2.678   7.670 -0.0191  0.3483 -0.2054
14984SOL    HW147844   7.980   2.703   7.746  0.4489  0.2781  0.1496
14984SOL    HW247845   7.981   2.610   7.626 -0.0380 -0.0204  0.3738
14985SOL     OW47846   7.280   0.891   1.132  0.3075 -0.4553  0.4844
14985SOL    HW147847   7.308   0.816   1.184 -0.7257 -0.9250  0.3987
14985SOL    HW247848   7.203   0.859   1.084 -0.1432  0.6469  0.4410
14986SOL     OW47849   3.463   0.650   6.331 -0.0775  0.2355 -0.0835
14986SOL    HW147850   3.371   0.676   6.344 -0.9012 -2.0040 -0.9958
14986SOL    HW247851   3.511   0.701   6.396 -1.8965  1.7897  0.1483
14987SOL     OW47852   4.764   8.927   2.222  0.6206  0.0365 -0.9867
14987SOL    HW147853   4.688   8.929   2.280  0.3189  2.7298 -1.3570
14987SOL    HW247854   4.746   8.855   2.161 -0.8978 -0.3276 -0.1502
14988SOL     OW47855   8.251   8.559   8.635  0.0470 -0.5482 -0.3097
14988SOL    HW147856   8.288   8.476   8.606  1.8368 -0.0727  0.4991
14988SOL    HW247857   8.326   8.610   8.664 -0.9008  1.6909 -1.5578
14989SOL     OW47858   9.052   7.196   6.900  0.2732  0.0583 -0.0609
14989SOL    HW147859   8.964   7.227   6.921  0.2055  0.1116 -0.4092
14989SOL    HW247860   9.052   7.190   6.804  0.2428 -1.1556  0.0047
14990SOL     OW47861   1.050   8.688   5.329  0.8383 -0.2096 -0.1367
14990SOL    HW147862   1.023   8.767   5.282  0.4976 -0.2631 -0.0331
14990SOL    HW247863   1.078   8.628   5.260  1.2373  0.0496 -0.2080
14991SOL     OW47864   1.950   6.641   3.254 -0.0730 -0.4868 -0.1405
14991SOL    HW147865   1.929   6.589   3.331 -0.8299 -1.0386 -0.7072
14991SOL    HW247866   1.975   6.727   3.289 -0.5134 -0.6983  0.7059
14992SOL     OW47867   4.729   1.362   4.224 -0.1871 -0.4054 -0.1287
14992SOL    HW147868   4.669   1.290   4.204 -0.3041 -0.3716  0.0964
14992SOL    HW247869   4.691   1.437   4.177  1.6892 -1.1621 -3.0972
14993SOL     OW47870   9.160   7.891   8.090 -0.2231 -0.1094 -0.6532
14993SOL    HW147871   9.247   7.853   8.080 -0.4440 -1.4466  1.6829
14993SOL    HW247872   9.163   7.973   8.040  3.0848  0.9605  0.9887
14994SOL     OW47873   4.067   7.800   9.055  0.9652 -0.4329  0.2821
14994SOL    HW147874   4.077   7.709   9.027 -0.6080  0.1385 -2.5112
14994SOL    HW247875   4.078   7.851   8.975  1.1751  1.8220  1.6575
14995SOL     OW47876   3.574   8.115   7.349 -0.5138 -0.0243 -0.2579
14995SOL    HW147877   3.485   8.150   7.350 -0.3213  0.4651  0.0932
14995SOL    HW247878   3.631   8.192   7.348 -0.0908 -0.3205  0.3228
14996SOL     OW47879   8.245   3.022   5.742  0.2362 -0.1188  0.5802
14996SOL    HW147880   8.218   3.007   5.833 -1.0986  1.8536  0.5798
14996SOL    HW247881   8.268   3.115   5.739  1.9748 -0.5382 -0.7265
14997SOL     OW47882   1.953   3.818   4.327 -0.2237  0.3936 -0.7130
14997SOL    HW147883   1.922   3.822   4.418  0.8993  1.6194 -0.3554
14997SOL    HW247884   1.959   3.909   4.299  1.3004  0.1337 -1.3525
14998SOL     OW47885   8.540   6.740   6.767  0.9714 -0.0338  0.3664
14998SOL    HW147886   8.628   6.776   6.777  1.1346  0.2890 -1.7270
14998SOL    HW247887   8.509   6.777   6.685 -1.0855 -0.2587  0.9915
14999SOL     OW47888   7.794   0.345   2.341 -0.2237 -0.6702 -0.3880
14999SOL    HW147889   7.777   0.439   2.337 -2.0453 -0.9906 -0.8787
14999SOL    HW247890   7.712   0.307   2.372  0.7376 -2.0508  0.5904
15000SOL     OW47891   3.771   5.661   3.203 -0.0654  0.0288  0.3793
15000SOL    HW147892   3.710   5.694   3.138 -1.1673  0.2254  1.4858
15000SOL    HW247893   3.815   5.739   3.237  0.3050 -0.0497  0.0984
15001SOL     OW47894   3.674   5.872   2.851 -0.2887  0.4828  0.4371
15001SOL    HW147895   3.660   5.911   2.764  1.1789  0.2805  0.0882
15001SOL    HW247896   3.619   5.924   2.909 -0.4295  1.3551 -0.4380
15002SOL     OW47897   2.406   1.704   9.239 -0.4729  0.8198 -0.6413
15002SOL    HW147898   2.437   1.793   9.219 -2.7585  1.2961 -2.5083
15002SOL    HW247899   2.339   1.717   9.306 -0.9186  0.5223 -1.0303
15003SOL     OW47900   6.168   4.538   6.675 -0.1565 -0.4405 -0.3166
15003SOL    HW147901   6.194   4.606   6.612  0.5214 -0.5355 -0.1400
15003SOL    HW247902   6.075   4.554   6.689  0.0771  0.7280  0.0473
15004SOL     OW47903   0.798   0.106   6.515  0.4469 -0.2968 -0.0732
15004SOL    HW147904   0.731   0.060   6.464  0.7948 -0.5938 -0.2684
15004SOL    HW247905   0.868   0.042   6.526  0.3141 -0.2958  0.9213
15005SOL     OW47906   3.003   5.711   5.190 -0.6759  0.1159  0.2192
15005SOL    HW147907   3.037   5.723   5.102 -1.8583 -3.0651 -0.7916
15005SOL    HW247908   3.052   5.637   5.226 -1.5353  0.1291  1.5085
15006SOL     OW47909   1.666   2.303   3.169  0.0141  0.2221 -0.0485
15006SOL    HW147910   1.601   2.252   3.218 -1.6058  1.6775 -0.5672
15006SOL    HW247911   1.656   2.273   3.079  1.6253 -1.0678  0.1580
15007SOL     OW47912   5.880   0.906   6.875 -0.3490  0.2997 -0.3050
15007SOL    HW147913   5.934   0.984   6.862 -0.0306 -0.0438 -1.1667
15007SOL    HW247914   5.871   0.898   6.969  3.1736 -0.9923  0.0870
15008SOL     OW47915   1.601   2.031   8.454  0.5066  0.3433  0.2013
15008SOL    HW147916   1.571   1.998   8.539  0.3421 -1.6407 -0.5728
15008SOL    HW247917   1.521   2.059   8.410  0.1709 -1.5064 -0.4439
15009SOL     OW47918   6.857   4.964   8.280  0.1796  0.0505  0.1420
15009SOL    HW147919   6.814   5.046   8.258 -0.3285 -0.4475 -0.8086
15009SOL    HW247920   6.911   4.944   8.203 -0.4355 -0.9765 -0.0363
15010SOL     OW47921   7.426   5.793   0.253  0.0209 -0.2479  0.0704
15010SOL    HW147922   7.450   5.704   0.226  2.3087 -0.4183  2.2390
15010SOL    HW247923   7.508   5.831   0.285 -1.4836  1.4716  2.2090
15011SOL     OW47924   4.716   6.905   2.704 -0.0211  0.0641 -0.4794
15011SOL    HW147925   4.624   6.927   2.690  0.6855  2.7881 -1.3947
15011SOL    HW247926   4.733   6.836   2.639 -1.2097  0.0801 -0.8496
15012SOL     OW47927   3.782   7.596   8.132 -0.1761 -0.3886  0.2805
15012SOL    HW147928   3.875   7.608   8.110 -0.5478 -1.6820 -2.4313
15012SOL    HW247929   3.751   7.530   8.070 -2.8445 -0.2786  1.3662
15013SOL     OW47930   5.464   5.448   3.687 -0.2585  0.0742 -0.4276
15013SOL    HW147931   5.466   5.376   3.750  0.4000 -0.9042 -1.5176
15013SOL    HW247932   5.377   5.444   3.648 -0.0910 -0.4062 -0.7664
15014SOL     OW47933   5.483   7.603   1.544  0.0789  0.3263 -0.5487
15014SOL    HW147934   5.511   7.516   1.572 -1.4289 -0.0877 -0.2757
15014SOL    HW247935   5.509   7.661   1.615 -1.1168 -0.2869  0.4107
15015SOL     OW47936   1.316   8.448   5.069 -0.1512  0.4684  0.1284
15015SOL    HW147937   1.356   8.418   4.987 -0.3469  0.1501  0.1486
15015SOL    HW247938   1.315   8.371   5.125 -0.7349  0.4938  0.1521
15016SOL     OW47939   5.436   4.013   6.222  0.0662  0.0302 -0.0456
15016SOL    HW147940   5.446   3.945   6.289 -1.8834 -0.1877  0.0798
15016SOL    HW247941   5.498   3.988   6.154 -0.5346 -1.8804  0.0289
15017SOL     OW47942   5.590   0.988   0.013 -0.3454 -0.4508 -0.1015
15017SOL    HW147943   5.517   0.935   0.045  0.0930  0.1317  2.0042
15017SOL    HW247944   5.665   0.959   0.065  0.2843  0.9874 -0.1691
15018SOL     OW47945   5.310   8.020   9.104 -0.6741 -0.2993 -0.5792
15018SOL    HW147946   5.366   7.992   9.177  0.0025  0.6234 -0.7280
15018SOL    HW247947   5.300   7.941   9.051 -0.4408 -0.7614  0.0407
15019SOL     OW47948   0.020   6.989   4.390 -0.4379  0.1145 -0.2271
15019SOL    HW147949   0.098   7.044   4.374 -1.3139  1.0659 -1.4110
15019SOL    HW247950   0.052   6.920   4.449  0.9175  1.3824  0.6181
15020SOL     OW47951   9.224   7.012   7.043 -0.4705  0.5732 -0.5184
15020SOL    HW147952   9.231   6.941   6.980  0.1885 -1.1254  1.3549
15020SOL    HW247953   9.189   7.086   6.993  1.5108 -0.1583 -3.2272
15021SOL     OW47954   3.181   5.199   3.296  0.3835  0.2054  0.0470
15021SOL    HW147955   3.261   5.230   3.254  0.1703  0.1379 -0.4148
15021SOL    HW247956   3.212   5.144   3.369  0.7557  0.9866  0.4827
15022SOL     OW47957   5.804   0.279   3.749  0.1711  0.2108 -0.2136
15022SOL    HW147958   5.803   0.373   3.731 -0.6794  0.0136 -1.2433
15022SOL    HW247959   5.712   0.256   3.763  0.5100 -0.1858  1.6575
15023SOL     OW47960   6.981   2.212   3.895 -0.1405 -0.7440  0.0128
15023SOL    HW147961   7.044   2.194   3.964  0.0991 -0.3242 -0.0896
15023SOL    HW247962   6.994   2.142   3.831  0.1734 -0.7018  0.0287
15024SOL     OW47963   1.633   0.198   0.063 -0.5458  0.4383  0.7072
15024SOL    HW147964   1.581   0.248   0.125 -0.2191  1.7306 -0.0353
15024SOL    HW247965   1.602   0.226  -0.023 -0.1552 -0.4215  0.2721
15025SOL     OW47966   5.029   0.934   8.947 -0.0048  0.0821  0.3678
15025SOL    HW147967   4.937   0.929   8.921 -0.2917  1.2271  1.1167
15025SOL    HW247968   5.076   0.898   8.872 -0.9062  1.8279 -1.1236
15026SOL     OW47969   7.327   1.109   0.076  0.6518 -0.0715 -0.0970
15026SOL    HW147970   7.360   1.022   0.051  0.3631  0.1717 -1.4088
15026SOL    HW247971   7.319   1.156  -0.007  2.7379  1.9357  0.7066
15027SOL     OW47972   5.096   7.157   0.726 -0.1369 -0.2766  0.3508
15027SOL    HW147973   5.117   7.247   0.701 -0.1552 -0.0488  1.1247
15027SOL    HW247974   5.002   7.156   0.739 -0.6056 -1.1127 -2.3567
15028SOL     OW47975   3.097   5.364   8.511  1.0958 -0.5334  0.1360
15028SOL    HW147976   3.125   5.364   8.420  1.1188  0.8616  0.1064
15028SOL    HW247977   3.005   5.339   8.509 -0.5513  4.4280 -0.9674
15029SOL     OW47978   1.622   9.098   7.973  0.1849  0.3422  0.4224
15029SOL    HW147979   1.599   9.190   7.976  0.3835  0.3860  0.6553
15029SOL    HW247980   1.556   9.058   7.916 -0.1812  0.5453  0.7014
15030SOL     OW47981   7.006   4.870   1.749  0.0923 -0.1707  0.3545
15030SOL    HW147982   7.096   4.837   1.751  0.5212  0.9463  2.2713
15030SOL    HW247983   6.963   4.826   1.822 -0.7106 -0.1026 -0.0683
15031SOL     OW47984   1.280   7.128   8.050  0.5111  0.3982  0.2134
15031SOL    HW147985   1.355   7.168   8.007  0.6525  1.2133  1.1766
15031SOL    HW247986   1.211   7.194   8.044 -0.6034 -0.8746 -1.8871
15032SOL     OW47987   3.690   4.667   1.035  0.5519 -0.1375  0.2311
15032SOL    HW147988   3.728   4.605   1.097 -1.8982  0.7944  2.8660
15032SOL    HW247989   3.704   4.753   1.075 -1.7479  0.4309 -0.0388
15033SOL     OW47990   8.075   2.174   1.683  0.6571 -0.1766 -0.1393
15033SOL    HW147991   8.030   2.185   1.600  3.2580  0.2908 -1.5943
15033SOL    HW247992   8.060   2.256   1.730 -0.6522 -0.3619 -0.1903
15034SOL     OW47993   7.092   0.430   9.233 -0.2402  0.1780 -0.1693
15034SOL    HW147994   7.128   0.447   9.320  0.0279 -0.6473 -0.1080
15034SOL    HW247995   7.031   0.357   9.246  1.2934 -1.3351 -0.9718
15035SOL     OW47996   7.686   0.259   7.928 -0.4714 -0.7916 -0.0894
15035SOL    HW147997   7.740   0.197   7.977  2.3609  1.5763  0.0919
15035SOL    HW247998   7.724   0.259   7.840 -2.3269 -1.3989 -0.9265
15036SOL     OW47999   8.940   2.204   3.054  0.2652 -0.6000 -0.6014
15036SOL    HW148000   8.905   2.203   2.965 -1.6680 -1.1541  0.1118
15036SOL    HW248001   8.964   2.296   3.069 -0.7084 -0.2342 -1.2131
15037SOL     OW48002   3.513   2.875   5.414 -0.4358 -0.1024  0.0089
15037SOL    HW148003   3.446   2.938   5.389  0.5065  1.1289  0.4708
15037SOL    HW248004   3.534   2.829   5.333 -1.2774  0.0254 -0.2954
15038SOL     OW48005   0.646   3.564   2.994 -0.1575  0.9410  0.0524
15038SOL    HW148006   0.734   3.539   2.966 -0.7951 -0.0410 -1.2152
15038SOL    HW248007   0.616   3.490   3.047 -0.0278  1.5277  0.9661
15039SOL     OW48008   7.389   3.451   3.716 -0.2007  0.1501  0.1386
15039SOL    HW148009   7.340   3.475   3.637 -0.5784 -1.0833 -0.0187
15039SOL    HW248010   7.478   3.481   3.698 -0.8340  2.3683  0.4070
15040SOL     OW48011   1.296   6.078   6.400  0.9207 -0.1279  0.4079
15040SOL    HW148012   1.244   6.097   6.322  2.1029 -0.8613 -0.5866
15040SOL    HW248013   1.334   6.163   6.425 -0.7220  0.4240  1.1695
15041SOL     OW48014   2.431   7.883   1.192 -0.5496  0.1317 -0.3623
15041SOL    HW148015   2.520   7.919   1.194 -0.6160  0.2747 -0.0514
15041SOL    HW248016   2.388   7.919   1.269 -0.8836  0.0722 -0.5184
15042SOL     OW48017   2.824   5.537   3.042 -0.3292  0.5419  0.0782
15042SOL    HW148018   2.882   5.494   3.105  0.4358 -0.0933 -1.0119
15042SOL    HW248019   2.767   5.467   3.010 -1.8248  1.1810  1.2074
15043SOL     OW48020   3.458   1.035   4.100  0.2550 -0.3627  0.3684
15043SOL    HW148021   3.413   1.069   4.177 -3.2400 -2.3908 -0.5171
15043SOL    HW248022   3.432   1.094   4.029 -1.1124 -1.4846 -0.1264
15044SOL     OW48023   4.418   0.027   7.959  0.0993 -0.5547 -0.0177
15044SOL    HW148024   4.500  -0.022   7.950 -0.7822 -1.8888 -1.1305
15044SOL    HW248025   4.376  -0.011   8.036  1.0348  0.9712  1.3108
15045SOL     OW48026   2.350   7.313   4.890  0.2033 -0.4127 -0.1518
15045SOL    HW148027   2.315   7.343   4.806 -0.1076 -2.4682 -0.8021
15045SOL    HW248028   2.429   7.265   4.867  1.5872  1.1846  1.0124
15046SOL     OW48029   4.333   9.254   3.716  0.3021  0.4330 -0.0871
15046SOL    HW148030   4.349   9.256   3.810 -1.4549  1.9133  0.2537
15046SOL    HW248031   4.414   9.285   3.677  1.1074 -0.3406  0.9085
15047SOL     OW48032   2.040   2.680   0.841  0.2772  0.0237  0.5522
15047SOL    HW148033   2.135   2.687   0.845  0.3019  0.2091 -0.2061
15047SOL    HW248034   2.021   2.594   0.877  0.8451 -0.5778 -0.5190
15048SOL     OW48035   6.771   8.242   4.661  0.2215 -0.3740 -0.6677
15048SOL    HW148036   6.789   8.334   4.677  2.7883 -0.7143 -1.2123
15048SOL    HW248037   6.722   8.213   4.738  0.9228  1.0330  0.3426
15049SOL     OW48038   0.134   4.797   2.044  0.8057 -0.1024  0.6395
15049SOL    HW148039   0.159   4.889   2.053 -0.7714  0.3604  0.5800
15049SOL    HW248040   0.039   4.797   2.058  0.9507 -1.8960  1.9497
15050SOL     OW48041   4.397   4.957   6.000  0.2608 -0.2648 -0.1004
15050SOL    HW148042   4.396   4.959   6.096 -0.3417 -0.1268 -0.1051
15050SOL    HW248043   4.442   4.875   5.978  0.9149 -0.0190  0.2919
15051SOL     OW48044   6.815   4.685   0.276  0.7068  0.2451  0.1516
15051SOL    HW148045   6.746   4.751   0.283  0.3018 -0.0360 -0.9277
15051SOL    HW248046   6.871   4.700   0.352 -0.7340  0.2637  1.2449
15052SOL     OW48047   8.175   5.230   5.625  0.2188 -0.0307  0.1456
15052SOL    HW148048   8.271   5.226   5.620  0.3113  1.6613 -0.4184
15052SOL    HW248049   8.145   5.151   5.581  1.3424 -1.1803  1.3666
15053SOL     OW48050   3.418   0.314   9.152  0.2369 -0.3175 -0.1729
15053SOL    HW148051   3.420   0.403   9.117  2.9052  0.6657  2.1675
15053SOL    HW248052   3.324   0.296   9.164 -0.3774  2.3761 -0.2377
15054SOL     OW48053   0.687   7.714   5.004  0.0139 -0.0419  0.2736
15054SOL    HW148054   0.599   7.694   4.972 -0.4527 -0.3730  1.6963
15054SOL    HW248055   0.701   7.653   5.076  1.6250 -0.3398 -0.2652
15055SOL     OW48056   7.983   2.089   1.053  0.3200  0.5295 -0.5915
15055SOL    HW148057   8.026   2.141   1.121  1.2468 -0.1993 -0.6162
15055SOL    HW248058   7.943   2.016   1.100  0.3086  0.4402 -0.7399
15056SOL     OW48059   4.590   8.265   5.897  0.2652  0.1473  0.3011
15056SOL    HW148060   4.572   8.247   5.805  1.0024  0.0358  0.1691
15056SOL    HW248061   4.664   8.326   5.896  2.0596 -1.8713  0.8073
15057SOL     OW48062   6.091   8.193   6.110 -0.0001  0.3697  0.6526
15057SOL    HW148063   6.131   8.273   6.144  0.0989  0.6373 -0.0650
15057SOL    HW248064   6.018   8.175   6.170 -1.6576  2.4501 -0.5767
15058SOL     OW48065   4.941   3.835   1.741 -0.4839 -0.4018  0.0087
15058SOL    HW148066   4.941   3.861   1.649 -1.6653  2.1592  0.6393
15058SOL    HW248067   4.997   3.898   1.784  0.0139 -1.5355  1.0983
15059SOL     OW48068   7.054   8.806   8.225  0.1130 -0.4796  0.2998
15059SOL    HW148069   7.034   8.860   8.149  0.5259 -0.3287  0.2932
15059SOL    HW248070   7.091   8.867   8.289  0.5736 -0.7436  0.2957
15060SOL     OW48071   0.156   7.575   7.027 -0.5388  0.2048  0.3557
15060SOL    HW148072   0.180   7.573   6.935 -1.5866  1.4492  0.0303
15060SOL    HW248073   0.060   7.577   7.027 -0.5657 -0.1077  1.4857
15061SOL     OW48074   3.606   3.170   6.008 -0.1465  0.4089 -0.3997
15061SOL    HW148075   3.514   3.183   6.029 -0.0599  1.3826 -0.5685
15061SOL    HW248076   3.650   3.165   6.092 -0.7577 -4.0333 -0.0677
15062SOL     OW48077   5.803   2.472   6.044 -0.0400  0.1936  0.0450
15062SOL    HW148078   5.799   2.430   6.129  1.7718  0.7938  0.4630
15062SOL    HW248079   5.769   2.407   5.983 -3.1126  0.3948  1.3676
15063SOL     OW48080   5.385   7.527   0.812 -0.1670  0.2092  0.1457
15063SOL    HW148081   5.441   7.490   0.744  2.6442  0.7700  1.9512
15063SOL    HW248082   5.439   7.597   0.851 -1.2637 -0.5982  3.4239
15064SOL     OW48083   5.162   4.535   2.350  0.3121  0.2049  0.0106
15064SOL    HW148084   5.222   4.563   2.281  0.1328  0.7111  0.0566
15064SOL    HW248085   5.089   4.494   2.303  1.0110 -1.0726 -0.0185
15065SOL     OW48086   2.568   9.016   8.789 -0.2974 -0.0292 -0.1116
15065SOL    HW148087   2.592   8.961   8.863  1.8883  1.9288  0.7419
15065SOL    HW248088   2.486   9.058   8.816 -0.5289 -0.7597  0.3558
15066SOL     OW48089   5.628   7.214   1.940  0.1867  0.7720 -0.2236
15066SOL    HW148090   5.718   7.226   1.908  1.1253  0.9416  2.2135
15066SOL    HW248091   5.596   7.303   1.954  0.0755  0.6952  0.0108
15067SOL     OW48092   2.621   8.590   8.667  0.8694  0.0778  0.1812
15067SOL    HW148093   2.531   8.582   8.638  0.9237 -0.4718  0.1537
15067SOL    HW248094   2.670   8.529   8.611  1.2013  0.1320  0.4101
15068SOL     OW48095   9.144   8.705   7.158  0.1466 -0.0228 -0.1821
15068SOL    HW148096   9.189   8.635   7.110  0.0472  0.6216 -1.2478
15068SOL    HW248097   9.213   8.747   7.208  0.2040 -0.8895  0.4892
15069SOL     OW48098   8.992   3.443   0.761  0.0916 -0.3732  0.7581
15069SOL    HW148099   8.984   3.420   0.853  0.1642 -0.7266  0.6784
15069SOL    HW248100   9.019   3.534   0.761 -1.2132  0.0363  1.0717
15070SOL     OW48101   1.256   1.868   3.995 -0.2401  0.0935 -0.2574
15070SOL    HW148102   1.325   1.832   3.939 -0.7050 -0.4567 -0.4782
15070SOL    HW248103   1.262   1.963   3.982  1.7735  0.2238  1.2234
15071SOL     OW48104   0.642   2.516   7.663 -0.0118  0.1038 -0.5218
15071SOL    HW148105   0.685   2.559   7.589  2.1051 -1.1362 -0.0892
15071SOL    HW248106   0.624   2.427   7.632 -0.2287 -0.0621  0.0570
15072SOL     OW48107   2.084   7.580   9.216  0.0652 -0.0790 -0.3613
15072SOL    HW148108   2.003   7.568   9.166 -0.3289  0.4236  0.1486
15072SOL    HW248109   2.144   7.514   9.180 -0.5581 -0.4425 -0.7575
15073SOL     OW48110   8.753   4.136   3.674 -0.4200 -0.2247 -0.0281
15073SOL    HW148111   8.749   4.053   3.626 -0.3268  0.0641 -0.5496
15073SOL    HW248112   8.663   4.169   3.671 -0.1053  0.6211 -1.5324
15074SOL     OW48113   2.210   0.730   1.983 -0.2784 -0.0801 -0.5670
15074SOL    HW148114   2.150   0.662   1.951 -0.7756  0.6851 -1.3067
15074SOL    HW248115   2.178   0.751   2.070  0.7893 -1.8435  0.3078
15075SOL     OW48116   4.969   3.660   8.548 -0.2208  0.3605  0.2819
15075SOL    HW148117   5.016   3.721   8.605  1.8739 -0.3535 -0.5664
15075SOL    HW248118   5.019   3.578   8.554 -1.2164 -0.3690 -0.8998
15076SOL     OW48119   2.394   5.884   9.242 -0.5928 -0.3417  0.0847
15076SOL    HW148120   2.422   5.922   9.325 -0.9496  0.9450 -0.3562
15076SOL    HW248121   2.461   5.818   9.222  0.0687  0.0711  0.8709
15077SOL     OW48122   4.411   5.014   3.706 -0.1223 -0.3893  0.3976
15077SOL    HW148123   4.357   4.943   3.674 -0.1654 -1.3465  2.4598
15077SOL    HW248124   4.501   4.984   3.691 -0.1028  0.3121 -1.1297
15078SOL     OW48125   7.049   0.662   6.356 -0.5535  0.0502 -0.4584
15078SOL    HW148126   6.983   0.678   6.289 -1.3695 -1.9068 -0.1826
15078SOL    HW248127   7.121   0.721   6.333 -2.4237  2.4112 -0.6503
15079SOL     OW48128   7.746   9.217   2.926 -0.3573 -0.0944  0.0333
15079SOL    HW148129   7.691   9.263   2.862 -2.0109 -0.9307  0.7901
15079SOL    HW248130   7.695   9.218   3.006  0.3375 -1.7250  0.5349
15080SOL     OW48131   4.626   1.782   5.708 -0.3447 -0.3438 -0.1432
15080SOL    HW148132   4.678   1.826   5.774 -0.1639 -0.7238 -0.0295
15080SOL    HW248133   4.535   1.790   5.739 -0.3334  0.1260 -0.2314
15081SOL     OW48134   0.917   1.069   1.438  1.0378  0.3469  0.1722
15081SOL    HW148135   1.002   1.078   1.481  0.0283  1.6230  2.0211
15081SOL    HW248136   0.872   1.000   1.487  1.1760 -0.7118 -1.1402
15082SOL     OW48137   8.454   3.215   7.810 -0.1350  0.1297 -0.2238
15082SOL    HW148138   8.364   3.185   7.821 -0.1608 -0.6817 -2.1645
15082SOL    HW248139   8.497   3.144   7.761  1.2985  0.9055 -0.1499
15083SOL     OW48140   9.229   5.070   1.348  0.1765 -0.0232  0.2995
15083SOL    HW148141   9.263   5.060   1.437  0.0195 -0.9599  0.2588
15083SOL    HW248142   9.291   5.022   1.293  0.1362  0.3424 -0.0752
15084SOL     OW48143   5.380   2.125   0.085 -0.2789 -0.1010 -0.6061
15084SOL    HW148144   5.391   2.061   0.155  0.1170  0.3925 -0.2139
15084SOL    HW248145   5.300   2.172   0.107  0.4031  0.7583  0.0836
15085SOL     OW48146   6.868   5.701   1.630 -0.3943 -0.0329 -0.1640
15085SOL    HW148147   6.960   5.729   1.622 -0.6549  0.9166  0.0476
15085SOL    HW248148   6.820   5.782   1.647 -0.8629 -0.9079  3.2570
15086SOL     OW48149   3.229   3.543   5.850  0.0864 -0.2733  0.6291
15086SOL    HW148150   3.165   3.611   5.832  0.2921 -0.0486  0.7338
15086SOL    HW248151   3.297   3.556   5.784  0.2833 -0.1726  0.8485
15087SOL     OW48152   8.359   4.752   0.349  0.4521 -0.4023  0.3768
15087SOL    HW148153   8.323   4.750   0.261 -0.2042  0.0108  0.6295
15087SOL    HW248154   8.450   4.780   0.338  0.4991 -0.7776 -0.2020
15088SOL     OW48155   6.820   8.039   6.655 -0.3487  0.1877  0.2849
15088SOL    HW148156   6.880   8.104   6.620  0.4706 -0.3780  0.6074
15088SOL    HW248157   6.741   8.088   6.677 -0.6362  0.6722 -1.6768
15089SOL     OW48158   6.188   2.168   4.343 -0.6839  0.1645 -0.4312
15089SOL    HW148159   6.164   2.214   4.423 -1.6378 -0.9115 -0.0642
15089SOL    HW248160   6.195   2.076   4.370 -0.5228 -0.1437 -1.4873
15090SOL     OW48161   6.894   9.252   7.489  0.3096 -0.0088  0.4529
15090SOL    HW148162   6.920   9.311   7.417 -0.6935 -0.8037 -0.5974
15090SOL    HW248163   6.930   9.294   7.568  2.9323  0.0301 -0.6381
15091SOL     OW48164   4.521   8.712   5.336 -0.0069 -0.3902  0.2619
15091SOL    HW148165   4.573   8.730   5.258  0.6560 -0.0160  0.7828
15091SOL    HW248166   4.568   8.755   5.407 -1.5425  0.8355  0.6055
15092SOL     OW48167   6.521   0.484   5.669  0.3649 -0.6536 -0.8448
15092SOL    HW148168   6.511   0.389   5.673 -0.3956 -0.5584 -0.3594
15092SOL    HW248169   6.555   0.500   5.581  2.6614 -1.5365 -0.1976
15093SOL     OW48170   1.720   1.663   3.882  0.0543 -0.1025 -0.2121
15093SOL    HW148171   1.734   1.588   3.939 -3.0148 -0.6583 -0.0382
15093SOL    HW248172   1.746   1.739   3.936 -2.4965 -0.6233  1.9381
15094SOL     OW48173   7.359   1.794   0.828 -0.2538  1.0320  0.9525
15094SOL    HW148174   7.290   1.854   0.799 -0.2535  0.2618 -0.7324
15094SOL    HW248175   7.327   1.707   0.806  0.9292  0.6090  0.8077
15095SOL     OW48176   6.489   3.496   4.159 -0.4585  0.2510 -0.1194
15095SOL    HW148177   6.409   3.543   4.136  0.6475  1.9828 -0.7403
15095SOL    HW248178   6.529   3.550   4.227 -1.2778 -2.2358  2.5224
15096SOL     OW48179   4.158   7.688   0.816  0.1031  0.4123 -0.5114
15096SOL    HW148180   4.228   7.703   0.753  1.2181  2.0779  0.9987
15096SOL    HW248181   4.178   7.603   0.855  0.6901  0.4064 -0.8176
15097SOL     OW48182   6.500   2.169   0.220  0.0462 -0.2965  0.1954
15097SOL    HW148183   6.524   2.111   0.293 -0.5002 -1.6109 -0.6247
15097SOL    HW248184   6.583   2.185   0.175 -0.0802 -2.5357 -1.0090
15098SOL     OW48185   5.186   5.435   7.731 -0.5380  0.2638 -0.8443
15098SOL    HW148186   5.230   5.383   7.663 -0.2995  0.9417 -1.2245
15098SOL    HW248187   5.246   5.432   7.805 -1.3846 -1.5460 -0.1777
15099SOL     OW48188   5.578   8.654   1.093 -0.6864 -0.3680 -0.0933
15099SOL    HW148189   5.659   8.680   1.049 -1.6695  0.9564 -1.2057
15099SOL    HW248190   5.548   8.733   1.138 -0.2613 -1.4157  2.1870
15100SOL     OW48191   8.035   7.944   7.587  0.3871 -0.1112  0.2956
15100SOL    HW148192   7.985   7.893   7.524  0.6683  0.2509 -0.2194
15100SOL    HW248193   7.974   8.013   7.615  1.5024  2.2578 -2.6459
15101SOL     OW48194   8.249   2.393   3.573 -0.0534 -0.6140 -0.3895
15101SOL    HW148195   8.250   2.300   3.547  1.7280 -0.8955  0.4966
15101SOL    HW248196   8.221   2.392   3.664 -1.5952 -0.0901 -0.8285
15102SOL     OW48197   8.878   2.615   1.251  0.3399 -0.5911  0.5013
15102SOL    HW148198   8.937   2.635   1.178 -0.9508  1.5633 -0.0406
15102SOL    HW248199   8.931   2.631   1.329  0.7904  0.3501  0.0255
15103SOL     OW48200   6.919   6.576   3.568 -0.5322 -0.5339  0.3506
15103SOL    HW148201   6.835   6.530   3.563 -0.6408 -0.5750  1.9544
15103SOL    HW248202   6.953   6.574   3.479 -1.8329 -1.2753 -0.1568
15104SOL     OW48203   0.714   3.363   5.672 -0.1279  0.0322  0.3924
15104SOL    HW148204   0.740   3.355   5.764  1.2037  1.2793  0.1580
15104SOL    HW248205   0.758   3.442   5.642 -0.4458 -0.4307 -1.3643
15105SOL     OW48206   7.981   5.563   4.965  0.3440 -0.3472 -0.3328
15105SOL    HW148207   8.010   5.514   4.888 -0.9083 -1.3838 -0.1944
15105SOL    HW248208   7.993   5.503   5.038 -0.3950 -0.1389 -0.0267
15106SOL     OW48209   8.178   2.329   7.018 -0.4455 -0.0038 -0.3107
15106SOL    HW148210   8.109   2.265   6.999  1.2083 -1.4911 -1.6847
15106SOL    HW248211   8.214   2.352   6.932  2.0558 -0.8463  0.4235
15107SOL     OW48212   0.358   5.184   3.287  0.1300  0.1471 -0.3099
15107SOL    HW148213   0.342   5.090   3.285  1.1583 -0.0610  0.5853
15107SOL    HW248214   0.310   5.214   3.364 -0.9112  0.5126 -1.0806
15108SOL     OW48215   9.077   3.522   0.177 -0.1279 -0.2660  0.1315
15108SOL    HW148216   9.114   3.434   0.182  0.9877  0.1106 -0.9063
15108SOL    HW248217   9.140   3.577   0.224 -0.3930  0.0953  0.0715
15109SOL     OW48218   7.437   3.669   5.221  0.2072  0.3084 -0.1592
15109SOL    HW148219   7.489   3.655   5.142 -0.3331  1.7221 -0.8088
15109SOL    HW248220   7.368   3.604   5.216  0.1187  0.4434 -0.9194
15110SOL     OW48221   3.210   2.737   5.244 -0.0576 -0.0107  0.4232
15110SOL    HW148222   3.291   2.735   5.192  0.8303  1.2617  1.6562
15110SOL    HW248223   3.224   2.670   5.311 -0.2442 -0.1304  0.3421
15111SOL     OW48224   4.507   6.129   0.214  0.0618  0.3111 -0.4652
15111SOL    HW148225   4.466   6.192   0.272 -1.1976 -0.6331 -0.2924
15111SOL    HW248226   4.474   6.151   0.127 -0.5860 -0.2464 -0.3700
15112SOL     OW48227   5.262   4.108   0.756 -0.3296 -0.1090  0.3346
15112SOL    HW148228   5.240   4.160   0.833 -0.5638 -1.8160  1.4929
15112SOL    HW248229   5.337   4.152   0.717  0.2465  0.4276  1.9552
15113SOL     OW48230   4.402   3.339   2.675  0.4189  0.0286 -0.2995
15113SOL    HW148231   4.337   3.290   2.625  0.3447 -1.2136  0.9421
15113SOL    HW248232   4.485   3.292   2.660  0.6792  0.5200 -0.4258
15114SOL     OW48233   9.010   4.812   4.319 -0.3105 -0.2999  0.1834
15114SOL    HW148234   9.033   4.751   4.248  0.0584 -0.6414  0.5850
15114SOL    HW248235   9.072   4.790   4.389  1.5136  2.1524 -0.5093
15115SOL     OW48236   2.839   1.894   3.566  0.6722 -0.1228  1.1981
15115SOL    HW148237   2.831   1.798   3.566  1.0060 -0.1722  0.0101
15115SOL    HW248238   2.893   1.914   3.642  1.5419 -0.9884  0.8315
15116SOL     OW48239   7.698   1.050   5.697  0.1951 -0.1241  0.8745
15116SOL    HW148240   7.693   1.133   5.745 -1.8616 -0.2012  0.8767
15116SOL    HW248241   7.745   0.991   5.757  2.5953  1.2269  0.4755
15117SOL     OW48242   0.308   1.581   0.241 -0.5438  0.0754 -0.2505
15117SOL    HW148243   0.394   1.545   0.262  0.1531  1.1443 -1.2125
15117SOL    HW248244   0.247   1.525   0.290  0.6605 -0.8453  0.2592
15118SOL     OW48245   3.077   4.704   7.784 -0.2709 -0.6849 -0.6066
15118SOL    HW148246   3.034   4.755   7.715 -2.1115 -0.6548  0.5136
15118SOL    HW248247   3.170   4.707   7.760 -0.2088  3.2488 -0.5871
15119SOL     OW48248   7.539   7.002   6.592  0.3177  0.4887  0.2725
15119SOL    HW148249   7.565   6.973   6.680 -0.3534  2.8812  1.3384
15119SOL    HW248250   7.468   6.943   6.567  1.3022 -0.9666  0.8072
15120SOL     OW48251   3.298   4.532   6.376 -0.1083 -0.5975 -0.4876
15120SOL    HW148252   3.358   4.604   6.357  0.1616 -0.8548 -0.5986
15120SOL    HW248253   3.227   4.543   6.312  0.3221 -0.8947 -1.0187
15121SOL     OW48254   3.419   7.579   1.307  0.7616  0.4401  0.1609
15121SOL    HW148255   3.338   7.629   1.315  0.1538 -0.5525  0.3460
15121SOL    HW248256   3.483   7.642   1.273  0.6025  1.9463  2.4242
15122SOL     OW48257   0.664   5.917   3.505 -0.6990 -0.6067 -0.7509
15122SOL    HW148258   0.750   5.959   3.508 -1.5815  1.3200 -0.8464
15122SOL    HW248259   0.607   5.976   3.553 -1.7998 -2.3641  0.2163
15123SOL     OW48260   4.585   1.885   3.961  0.2502 -1.0784  0.0909
15123SOL    HW148261   4.676   1.900   3.936  0.5660 -0.7083  1.3910
15123SOL    HW248262   4.587   1.879   4.056 -1.4014  1.3212  0.3606
15124SOL     OW48263   0.660   8.624   4.591 -0.1088  0.5807 -0.0929
15124SOL    HW148264   0.719   8.595   4.521  0.0727  1.1654 -0.1847
15124SOL    HW248265   0.705   8.600   4.672 -0.6630 -0.7986 -0.1562
15125SOL     OW48266   3.306   9.024   2.501 -0.0705 -0.8885  0.4892
15125SOL    HW148267   3.345   8.940   2.524  1.8149 -1.2347 -3.2621
15125SOL    HW248268   3.227   9.002   2.452  0.3085 -0.4985 -0.3160
15126SOL     OW48269   0.031   4.575   7.551  0.2632 -0.2940 -0.2583
15126SOL    HW148270   0.117   4.618   7.552 -0.1915  0.9253 -3.1081
15126SOL    HW248271   0.043   4.497   7.604  2.0748  1.6396  2.4662
15127SOL     OW48272   8.173   5.922   4.599 -0.6099  0.3699 -0.5419
15127SOL    HW148273   8.244   5.873   4.640  0.4633  0.5777 -2.0570
15127SOL    HW248274   8.093   5.879   4.629  0.1255  0.1962  1.2856
15128SOL     OW48275   0.213   8.013   3.475  0.3070  0.1556  0.6243
15128SOL    HW148276   0.166   8.086   3.514  0.6947  1.2991 -0.9124
15128SOL    HW248277   0.146   7.948   3.455 -0.4267  1.1608 -0.2427
15129SOL     OW48278   4.938   0.209   4.483 -0.1826 -0.2370 -0.0595
15129SOL    HW148279   5.024   0.214   4.441 -1.3300  0.5478 -2.5101
15129SOL    HW248280   4.953   0.241   4.572  2.1344 -0.5827 -0.2649
15130SOL     OW48281   3.940   2.131   1.833 -0.5181 -0.1631  0.1774
15130SOL    HW148282   3.930   2.113   1.927 -1.0938  1.0052  0.3638
15130SOL    HW248283   3.859   2.098   1.794 -0.4461 -0.3017  0.1440
15131SOL     OW48284   7.064   8.495   2.253  0.1618  0.0648  0.0960
15131SOL    HW148285   7.038   8.414   2.297 -0.6340 -0.0446 -0.5411
15131SOL    HW248286   7.023   8.564   2.304  1.5249  0.1523  1.1330
15132SOL     OW48287   1.324   6.679   4.937 -0.1428 -0.1652 -0.4896
15132SOL    HW148288   1.390   6.745   4.960  0.9539 -1.4572  0.2106
15132SOL    HW248289   1.295   6.704   4.849  0.7701  0.8273 -0.5316
15133SOL     OW48290   0.014   2.828   8.154  0.5569 -0.4718 -0.2426
15133SOL    HW148291   0.051   2.917   8.158 -1.7709  0.7498 -2.6622
15133SOL    HW248292   0.028   2.800   8.063 -1.2933 -1.3605 -0.2922
15134SOL     OW48293   6.035   5.554   0.836  0.0547  0.2047 -0.1753
15134SOL    HW148294   5.944   5.562   0.805  0.1171 -0.4423 -0.5567
15134SOL    HW248295   6.085   5.609   0.776  0.1618 -0.9707 -1.2008
15135SOL     OW48296   1.898   4.493   7.748  0.3538 -0.2850 -0.3198
15135SOL    HW148297   1.973   4.434   7.738  0.3242 -0.4671  0.4952
15135SOL    HW248298   1.887   4.503   7.842  0.0756  0.6826 -0.4442
15136SOL     OW48299   3.644   1.823   2.142 -0.6177  0.9174  0.3880
15136SOL    HW148300   3.553   1.803   2.165 -0.9504 -0.4653 -1.7566
15136SOL    HW248301   3.695   1.751   2.179 -0.7256  0.4661 -0.3138
15137SOL     OW48302   2.565   3.391   8.830 -0.3091  0.6648 -0.0452
15137SOL    HW148303   2.602   3.440   8.757  3.0259  0.2735  1.2074
15137SOL    HW248304   2.597   3.302   8.818 -0.3083  0.4330  1.4979
15138SOL     OW48305   1.081   1.472   5.859  0.3650  1.0834 -0.4112
15138SOL    HW148306   1.100   1.477   5.953  0.2769  0.0934 -0.3292
15138SOL    HW248307   1.162   1.440   5.820  0.1423  0.6944 -0.5626
15139SOL     OW48308   7.284   6.895   8.436 -0.5303  0.1609  0.2189
15139SOL    HW148309   7.277   6.820   8.376  1.1153  0.4429 -0.3754
15139SOL    HW248310   7.208   6.886   8.494 -0.4522 -1.9069  0.0961
15140SOL     OW48311   4.963   2.233   7.691 -0.1594 -0.5977  0.3316
15140SOL    HW148312   4.960   2.241   7.595  0.7990  1.5134  0.4241
15140SOL    HW248313   5.043   2.184   7.708  1.1684  1.3557  0.0758
15141SOL     OW48314   6.976   5.383   4.846 -0.3290 -0.4949  0.0949
15141SOL    HW148315   6.905   5.446   4.838 -0.3488 -0.2305  1.8915
15141SOL    HW248316   7.050   5.426   4.802 -0.6436  0.2949  0.3083
15142SOL     OW48317   6.021   4.501   0.078  0.4290  0.0902  0.1437
15142SOL    HW148318   5.988   4.590   0.061 -0.9281 -0.5795 -0.9555
15142SOL    HW248319   5.951   4.459   0.127  0.6215 -0.6674 -0.2241
15143SOL     OW48320   3.692   7.755   7.198  0.6566 -0.0596  1.2244
15143SOL    HW148321   3.601   7.728   7.214 -0.1069  1.5229 -0.1682
15143SOL    HW248322   3.686   7.821   7.128  2.8326  0.4647  1.4580
15144SOL     OW48323   3.560   8.343   0.273  0.1246 -0.5963  0.5643
15144SOL    HW148324   3.491   8.278   0.259  0.9515 -1.7178  1.4938
15144SOL    HW248325   3.585   8.333   0.365  1.1674  0.1520  0.3900
15145SOL     OW48326   6.107   8.335   4.823  0.1084 -0.0167  0.2599
15145SOL    HW148327   6.130   8.424   4.850 -0.8309 -0.3682  2.5392
15145SOL    HW248328   6.155   8.279   4.883  1.4759 -1.1379 -1.8034
15146SOL     OW48329   3.412   3.508   3.992 -0.5972 -0.0708  0.1897
15146SOL    HW148330   3.445   3.419   3.980 -0.0079  0.2435 -0.6101
15146SOL    HW248331   3.456   3.539   4.071  0.0591 -0.1017 -0.1576
15147SOL     OW48332   6.397   6.889   8.253 -0.0827 -0.2336 -0.5582
15147SOL    HW148333   6.351   6.846   8.325  0.7175  1.5672  1.1290
15147SOL    HW248334   6.335   6.953   8.220  0.1195  0.0789 -0.3415
15148SOL     OW48335   4.458   7.141   1.322 -0.7311 -0.4566 -0.0806
15148SOL    HW148336   4.524   7.197   1.281 -0.4177 -1.0055 -0.3371
15148SOL    HW248337   4.486   7.133   1.413 -0.4285 -0.7116 -0.1952
15149SOL     OW48338   1.659   7.639   5.154 -0.1564  0.1142 -0.1667
15149SOL    HW148339   1.630   7.590   5.077  1.4923 -0.0305 -0.7424
15149SOL    HW248340   1.657   7.575   5.225  0.3443 -0.3411 -0.5522
15150SOL     OW48341   4.628   7.907   4.756  0.2587 -0.6923  0.2474
15150SOL    HW148342   4.536   7.899   4.733 -0.1338 -0.1767  1.5525
15150SOL    HW248343   4.671   7.936   4.675 -0.8753  0.0005 -0.1231
15151SOL     OW48344   4.101   3.755   1.836  0.0182 -0.0142  0.1533
15151SOL    HW148345   4.098   3.685   1.771 -0.6705  0.4891 -0.3752
15151SOL    HW248346   4.182   3.739   1.885  0.2154 -0.7745 -0.4006
15152SOL     OW48347   8.925   6.848   1.302  0.3006 -0.0492  0.2767
15152SOL    HW148348   8.857   6.825   1.239  0.4443 -0.0666  0.1260
15152SOL    HW248349   8.880   6.900   1.368  0.4273  1.2059 -0.6009
15153SOL     OW48350   2.237   2.741   9.242 -0.1174 -0.7204  0.1538
15153SOL    HW148351   2.266   2.665   9.192  1.1200  0.0014 -0.2450
15153SOL    HW248352   2.154   2.766   9.201  0.8752 -0.1217 -1.5945
15154SOL     OW48353   5.800   3.010   4.974 -0.3132 -0.2540  0.2274
15154SOL    HW148354   5.717   3.046   5.007 -1.3968 -0.9151 -1.6421
15154SOL    HW248355   5.799   2.919   5.004 -0.4166 -0.3524 -0.0786
15155SOL     OW48356   4.392   3.403   5.365  0.1475 -0.7564  0.0026
15155SOL    HW148357   4.444   3.362   5.434  2.3882  0.3058 -0.9382
15155SOL    HW248358   4.388   3.495   5.390 -1.6828 -0.8649  0.2365
15156SOL     OW48359   7.993   3.658   5.086 -0.3052 -0.5998 -0.1976
15156SOL    HW148360   8.009   3.699   5.001  0.2038 -0.1871  0.0922
15156SOL    HW248361   7.962   3.570   5.065 -3.3850  0.5067 -0.8972
15157SOL     OW48362   6.431   2.977   0.407 -0.0402 -0.4916 -0.1958
15157SOL    HW148363   6.339   2.987   0.383  0.3074 -0.8224 -1.7850
15157SOL    HW248364   6.434   2.998   0.500 -1.3434  1.7658 -0.5825
15158SOL     OW48365   1.154   8.304   7.166 -0.3577  0.2406 -0.0781
15158SOL    HW148366   1.128   8.252   7.242 -0.5006  0.0091 -0.2806
15158SOL    HW248367   1.194   8.240   7.106 -0.1896  0.4305 -0.1701
15159SOL     OW48368   0.844   4.427   3.733 -0.2217 -0.8134  0.2479
15159SOL    HW148369   0.796   4.483   3.794  1.6138  0.4083  0.6562
15159SOL    HW248370   0.879   4.357   3.788  0.9687 -0.0179  0.5355
15160SOL     OW48371   0.659   1.274   6.284 -0.2728 -0.1911  0.5636
15160SOL    HW148372   0.698   1.219   6.216 -1.3102 -0.8600  0.4953
15160SOL    HW248373   0.692   1.362   6.265 -0.0882 -0.4669 -0.4582
15161SOL     OW48374   8.758   4.444   1.191  0.3548  0.7407 -0.0829
15161SOL    HW148375   8.681   4.497   1.171  1.2612  1.6303 -1.3880
15161SOL    HW248376   8.730   4.354   1.177 -0.7116  0.9844  0.4110
15162SOL     OW48377   2.410   4.791   4.185  0.0572 -0.5757  0.2735
15162SOL    HW148378   2.384   4.817   4.096 -0.5472  0.8018  0.8233
15162SOL    HW248379   2.485   4.848   4.205  0.4037 -1.1173  0.5358
15163SOL     OW48380   1.368   3.150   1.852  0.0418  0.2702 -0.3215
15163SOL    HW148381   1.452   3.130   1.894 -0.1990 -0.8974 -0.3468
15163SOL    HW248382   1.347   3.070   1.803 -0.4776  1.0160 -1.3256
15164SOL     OW48383   1.272   7.516   2.564  0.3209  0.1248 -0.2012
15164SOL    HW148384   1.359   7.545   2.537  1.0059 -0.1404  1.6211
15164SOL    HW248385   1.276   7.509   2.659 -1.0377 -1.9392 -0.2186
15165SOL     OW48386   4.129   7.938   0.734  0.1482  0.4281  0.4584
15165SOL    HW148387   4.106   7.854   0.774 -0.4182  0.6460  0.5962
15165SOL    HW248388   4.155   7.993   0.808  1.9603 -0.0648  0.2354
15166SOL     OW48389   6.212   3.323   8.564 -0.3187  0.7058 -0.0790
15166SOL    HW148390   6.301   3.309   8.596 -0.2631  2.0933  0.4451
15166SOL    HW248391   6.187   3.239   8.525  2.3230  1.1322 -3.0728
15167SOL     OW48392   2.473   5.112   1.341  0.3450 -0.2182  0.0916
15167SOL    HW148393   2.399   5.127   1.400  1.2745  0.4806  1.1139
15167SOL    HW248394   2.435   5.117   1.253 -0.9296 -0.5170  0.6000
15168SOL     OW48395   8.986   3.990   2.935 -0.5754  1.4655  0.3276
15168SOL    HW148396   8.989   4.073   2.888  1.1497  1.4684  0.3590
15168SOL    HW248397   9.031   4.008   3.018  1.2299  0.1811 -0.2946
15169SOL     OW48398   9.239   8.916   0.893 -0.3172  0.3050  0.2088
15169SOL    HW148399   9.227   8.995   0.946  0.0295  1.6993 -1.6704
15169SOL    HW248400   9.333   8.910   0.879 -0.3214 -0.5845  0.5278
15170SOL     OW48401   0.210   2.167   4.366  0.6422 -0.1668  0.0493
15170SOL    HW148402   0.226   2.073   4.360  0.7615 -0.1621  0.3054
15170SOL    HW248403   0.145   2.176   4.436 -1.3822 -0.2837 -1.7029
15171SOL     OW48404   5.783   7.301   2.991 -0.2466  0.4697  0.1372
15171SOL    HW148405   5.818   7.345   2.913  2.0497  0.3091  0.9931
15171SOL    HW248406   5.767   7.211   2.963 -1.4518  0.9049 -0.6573
15172SOL     OW48407   2.493   6.275   2.374 -0.0359  0.1874  0.9031
15172SOL    HW148408   2.410   6.231   2.354  1.2692 -1.0119 -2.7281
15172SOL    HW248409   2.480   6.364   2.341  0.5874 -0.5106 -1.4414
15173SOL     OW48410   3.619   7.692   2.778  0.5110 -0.2006  0.2322
15173SOL    HW148411   3.610   7.632   2.852 -1.6911  0.5341  0.6330
15173SOL    HW248412   3.587   7.642   2.703 -0.4331  0.1304  0.4004
15174SOL     OW48413   1.165   5.133   4.442 -0.2074 -0.0239  0.9123
15174SOL    HW148414   1.148   5.227   4.457  1.5271  0.4246  0.2508
15174SOL    HW248415   1.217   5.106   4.518 -0.0545 -0.2716  0.7174
15175SOL     OW48416   8.836   4.399   4.526 -0.4311  0.2286 -0.3584
15175SOL    HW148417   8.764   4.435   4.578  0.2653 -0.6753  1.2900
15175SOL    HW248418   8.837   4.452   4.446 -1.5433  1.6476  0.5339
15176SOL     OW48419   1.714   1.861   8.876  0.1983  0.5166 -0.4922
15176SOL    HW148420   1.652   1.862   8.803 -0.8861  0.7664  0.3965
15176SOL    HW248421   1.708   1.949   8.913  0.7510  0.3988 -0.1121
15177SOL     OW48422   7.757   0.129   6.778  0.2150 -0.3592 -0.4314
15177SOL    HW148423   7.763   0.202   6.717  3.4133 -1.8156 -2.0880
15177SOL    HW248424   7.835   0.138   6.833 -0.6935 -1.1582  1.0421
15178SOL     OW48425   1.538   3.406   9.079 -0.1087  0.0348  0.0569
15178SOL    HW148426   1.508   3.318   9.101 -3.4342  1.1233  0.5835
15178SOL    HW248427   1.514   3.417   8.987 -0.5572  0.6612  0.2427
15179SOL     OW48428   7.180   1.598   0.729 -0.0035 -0.2838  0.5088
15179SOL    HW148429   7.154   1.651   0.654  1.1141 -0.1299  0.2148
15179SOL    HW248430   7.185   1.508   0.695 -1.6050 -0.5538  0.9348
15180SOL     OW48431   6.836   6.001   0.571 -0.1539  0.1505  0.2939
15180SOL    HW148432   6.775   5.973   0.502 -0.5196 -1.5229  1.2493
15180SOL    HW248433   6.812   6.092   0.588 -0.9798  0.1681 -0.8223
15181SOL     OW48434   7.419   7.933   5.639 -0.1549 -0.7565  0.0414
15181SOL    HW148435   7.468   7.956   5.559  1.1524 -1.2844  0.6716
15181SOL    HW248436   7.451   7.995   5.705 -4.8373  3.2542 -0.8614
15182SOL     OW48437   8.499   6.567   5.902 -0.2528 -0.1677  0.0071
15182SOL    HW148438   8.485   6.661   5.889 -1.3129 -0.1058  1.3827
15182SOL    HW248439   8.486   6.553   5.996  3.5212 -1.1154  0.5528
15183SOL     OW48440   8.381   8.451   7.334  0.3419  0.3021  0.2456
15183SOL    HW148441   8.353   8.375   7.385 -0.0753  0.0739 -0.3228
15183SOL    HW248442   8.301   8.499   7.317  0.3668 -0.0124 -0.8318
15184SOL     OW48443   8.942   1.150   8.072  0.1755  0.2749  0.4813
15184SOL    HW148444   9.020   1.106   8.038  1.3370  1.3406  1.6143
15184SOL    HW248445   8.906   1.090   8.137  0.4256  0.0297  0.3930
15185SOL     OW48446   3.043   2.464   5.489 -0.3870  0.0592 -0.2458
15185SOL    HW148447   3.111   2.531   5.490  0.4588 -0.7700  1.5111
15185SOL    HW248448   2.977   2.498   5.428  1.3607  1.0918 -1.6671
15186SOL     OW48449   8.308   2.148   2.841 -0.3538 -0.0360 -0.5132
15186SOL    HW148450   8.286   2.057   2.822 -0.6569 -0.7548  2.7687
15186SOL    HW248451   8.400   2.146   2.867  0.7996  1.3021 -3.8670
15187SOL     OW48452   3.947   5.649   4.906  0.3515  0.1552 -0.3589
15187SOL    HW148453   4.011   5.579   4.892 -0.7049 -0.6788 -1.2785
15187SOL    HW248454   3.925   5.644   4.999  0.5760 -0.4941 -0.3333
15188SOL     OW48455   5.676   7.873   1.252 -0.0475 -0.0262 -0.5002
15188SOL    HW148456   5.724   7.811   1.307  1.8520  0.8871 -1.0674
15188SOL    HW248457   5.738   7.944   1.236 -1.3615  0.8554 -1.8811
15189SOL     OW48458   0.745   8.347   6.625  0.1721 -0.1666  0.0931
15189SOL    HW148459   0.812   8.352   6.694  0.1754  0.3068  0.0591
15189SOL    HW248460   0.682   8.284   6.658  0.0308  0.2612  0.6599
15190SOL     OW48461   1.007   7.973   1.426 -0.3863  0.4433 -0.0361
15190SOL    HW148462   1.027   8.066   1.417  0.2583  0.3043 -0.1032
15190SOL    HW248463   1.064   7.943   1.497 -2.0397  0.5152  1.3954
15191SOL     OW48464   3.505   7.017   2.313  0.5406  0.5970 -0.0756
15191SOL    HW148465   3.537   7.014   2.223 -2.7300 -0.2350 -1.3696
15191SOL    HW248466   3.456   6.935   2.324  1.6444  0.1997  2.8565
15192SOL     OW48467   2.542   0.052   7.543 -0.4043  0.0928 -0.4486
15192SOL    HW148468   2.632   0.047   7.510  0.1213  0.5329  0.8691
15192SOL    HW248469   2.490   0.007   7.476  0.8811 -0.8379 -0.8679
15193SOL     OW48470   2.568   5.640   1.912 -0.0049  0.4184 -0.3954
15193SOL    HW148471   2.549   5.593   1.993  1.5678  0.6990  0.1728
15193SOL    HW248472   2.496   5.703   1.903 -0.7607 -0.3307  0.1973
15194SOL     OW48473   8.611   8.088   1.098  0.3142  0.0739 -0.4144
15194SOL    HW148474   8.605   8.047   1.184  0.0299  2.4042  0.7530
15194SOL    HW248475   8.627   8.015   1.038 -2.1851 -1.9989  1.2082
15195SOL     OW48476   6.488   7.066   5.820  0.4567 -0.1401 -1.2629
15195SOL    HW148477   6.526   7.153   5.809 -0.9181  1.0766  2.1292
15195SOL    HW248478   6.395   7.079   5.802 -0.0034 -0.4828  0.6413
15196SOL     OW48479   3.653   9.065   1.132 -0.3680  0.0710  0.1046
15196SOL    HW148480   3.665   9.054   1.226 -0.0945  0.2224  0.0916
15196SOL    HW248481   3.721   9.129   1.107 -0.5080  0.1135 -0.1745
15197SOL     OW48482   9.099   4.682   2.267 -0.0396  0.0760  0.5517
15197SOL    HW148483   9.161   4.610   2.273  0.9262  0.7348 -1.0216
15197SOL    HW248484   9.121   4.740   2.340  0.8928  0.0673  0.2827
15198SOL     OW48485   7.385   0.974   1.941 -0.2965  0.0354 -0.1347
15198SOL    HW148486   7.334   1.053   1.926  0.0117  0.9142  2.8690
15198SOL    HW248487   7.476   1.002   1.935 -0.1849 -0.0153  1.1962
15199SOL     OW48488   1.083   2.812   8.636  0.5006 -0.1820 -0.3700
15199SOL    HW148489   1.032   2.794   8.715  1.2992 -2.5631 -0.3326
15199SOL    HW248490   1.023   2.794   8.564  0.9169 -1.9431 -0.3124
15200SOL     OW48491   7.478   6.447   0.454  0.1337  0.2013  0.7527
15200SOL    HW148492   7.532   6.388   0.400 -0.3771  1.7874 -1.6337
15200SOL    HW248493   7.539   6.486   0.516  0.4008 -3.1465  2.8426
15201SOL     OW48494   6.725   2.572   1.107  0.0294  0.4969  0.2143
15201SOL    HW148495   6.809   2.596   1.146 -0.0802 -0.5299  1.0965
15201SOL    HW248496   6.661   2.591   1.175 -0.0708 -2.1729  0.9391
15202SOL     OW48497   0.766   2.501   8.663 -0.0336  0.5026 -0.5664
15202SOL    HW148498   0.768   2.411   8.695  1.1143  0.6188 -0.2729
15202SOL    HW248499   0.674   2.517   8.643 -0.0895 -1.2151 -2.0182
15203SOL     OW48500   5.703   5.127   4.966  0.7021  0.1683  0.5095
15203SOL    HW148501   5.665   5.044   4.935 -1.8289  2.3217 -2.7850
15203SOL    HW248502   5.646   5.155   5.037  2.0819 -1.1710  2.2565
15204SOL     OW48503   7.954   8.429   7.202 -0.4286 -0.1476  0.9337
15204SOL    HW148504   7.980   8.518   7.221 -0.4152 -0.2588  1.4373
15204SOL    HW248505   7.892   8.437   7.129  0.6076  0.1543  0.0619
15205SOL     OW48506   0.016   3.603   8.091 -0.2545  0.3738 -0.4785
15205SOL    HW148507  -0.013   3.513   8.077  2.2427 -0.1784 -2.9406
15205SOL    HW248508   0.111   3.601   8.078  0.2078  3.0309  1.4965
15206SOL     OW48509   5.365   9.050   6.432 -0.0225 -0.1363  0.2725
15206SOL    HW148510   5.336   9.106   6.359 -0.9063  0.2825  0.9279
15206SOL    HW248511   5.457   9.031   6.413 -0.0690  0.4872 -0.6241
15207SOL     OW48512   7.136   0.733   9.128 -0.0272 -0.7383  0.0588
15207SOL    HW148513   7.129   0.638   9.132  0.7604 -0.8665 -1.2536
15207SOL    HW248514   7.046   0.764   9.137 -0.2247 -1.5657  1.1059
15208SOL     OW48515   5.816   3.165   4.722  0.2861  0.0635 -0.2485
15208SOL    HW148516   5.880   3.194   4.787  1.4454 -1.4761 -0.6522
15208SOL    HW248517   5.759   3.104   4.770  0.1165  0.1824 -0.2947
15209SOL     OW48518   7.052   8.514   8.854  0.4313 -0.0060  0.5732
15209SOL    HW148519   7.058   8.452   8.927 -1.2288  1.0516  1.6720
15209SOL    HW248520   6.986   8.477   8.796 -0.2026  0.4767  0.9802
15210SOL     OW48521   6.832   8.713   5.706 -0.8258 -0.0647  0.4604
15210SOL    HW148522   6.801   8.791   5.660  1.1629 -0.7442 -2.2532
15210SOL    HW248523   6.783   8.641   5.666  0.5989 -0.6209 -0.3384
15211SOL     OW48524   5.622   7.782   8.492  0.0208 -0.0945 -0.3779
15211SOL    HW148525   5.605   7.793   8.398  1.3662 -1.8540 -0.8831
15211SOL    HW248526   5.711   7.814   8.504 -0.4132  0.8691  0.5083
15212SOL     OW48527   2.986   3.482   4.486 -0.3308 -0.6351  0.2065
15212SOL    HW148528   2.980   3.572   4.453 -0.9014 -0.4966  0.6667
15212SOL    HW248529   3.069   3.449   4.452  0.1110  0.2251  0.4323
15213SOL     OW48530   3.143   9.065   1.609  0.1158  0.4203 -0.6793
15213SOL    HW148531   3.187   9.127   1.551 -0.0599  0.5549 -0.6701
15213SOL    HW248532   3.050   9.089   1.604  0.2227  1.1753  0.5395
15214SOL     OW48533   6.872   0.487   0.807 -0.5570  0.3371 -0.0544
15214SOL    HW148534   6.928   0.424   0.762 -0.8382  0.8454 -1.1533
15214SOL    HW248535   6.879   0.567   0.755  0.3463  1.4556  1.7007
15215SOL     OW48536   3.514   2.335   6.294 -0.6363  0.2466  0.3207
15215SOL    HW148537   3.582   2.282   6.336 -0.1815  1.6027  1.3804
15215SOL    HW248538   3.498   2.291   6.210  0.6354 -0.8228  0.5984
15216SOL     OW48539   5.273   2.701   0.471 -0.0942  0.3810 -0.5427
15216SOL    HW148540   5.190   2.655   0.463 -0.5969  0.7550  1.7234
15216SOL    HW248541   5.249   2.792   0.490  0.8299  0.5753 -0.2283
15217SOL     OW48542   3.230   2.567   7.609  0.1356 -0.2682 -0.4672
15217SOL    HW148543   3.285   2.510   7.555  1.0674 -0.0819  0.2588
15217SOL    HW248544   3.270   2.653   7.600 -0.6079  0.0632 -0.6673
15218SOL     OW48545   0.510   1.408   0.096 -0.1158 -0.1263  0.2009
15218SOL    HW148546   0.433   1.352   0.096  0.2505 -0.6460  0.1053
15218SOL    HW248547   0.517   1.440   0.006  0.4695 -1.0727 -0.1072
15219SOL     OW48548   8.542   3.718   4.546 -0.4113  0.4450 -0.1089
15219SOL    HW148549   8.627   3.759   4.563 -0.9468  1.3734  0.3776
15219SOL    HW248550   8.526   3.664   4.623 -0.3255  0.3745 -0.1399
15220SOL     OW48551   7.747   6.100   8.188 -0.2372  0.2707  0.1787
15220SOL    HW148552   7.797   6.181   8.195 -0.4499  0.3208  1.2676
15220SOL    HW248553   7.669   6.123   8.137  0.6496  0.2697 -1.2322
15221SOL     OW48554   1.007   7.791   0.496  0.5279  0.5742 -0.0658
15221SOL    HW148555   1.006   7.753   0.583  0.6853 -1.6392 -0.9731
15221SOL    HW248556   1.089   7.840   0.491  0.6478  0.4817  0.9075
15222SOL     OW48557   6.980   2.367   1.428  0.2181 -0.2327 -0.2182
15222SOL    HW148558   7.025   2.447   1.454  0.7624  0.1422 -2.1389
15222SOL    HW248559   7.051   2.308   1.400 -0.1646 -1.4554  1.2546
15223SOL     OW48560   5.193   8.192   2.593 -0.2863 -0.3196  0.0659
15223SOL    HW148561   5.207   8.165   2.684 -0.7601 -1.8336 -0.2846
15223SOL    HW248562   5.280   8.187   2.553  0.1895  1.6853  0.7292
15224SOL     OW48563   2.938   6.001   0.354 -0.3261  0.2379  0.1010
15224SOL    HW148564   2.927   5.910   0.326  0.3710  0.0122  0.5392
15224SOL    HW248565   2.893   6.052   0.286  0.9576 -0.3104 -1.2136
15225SOL     OW48566   5.253   7.622   1.785  0.1761  0.1017 -0.2212
15225SOL    HW148567   5.327   7.678   1.760  1.5660 -1.5259  0.0983
15225SOL    HW248568   5.187   7.639   1.717  1.5523  0.2272 -1.5793
15226SOL     OW48569   0.749   2.729   5.766 -0.4181  0.0012 -0.3031
15226SOL    HW148570   0.817   2.667   5.742  1.1040  1.6170 -0.3318
15226SOL    HW248571   0.667   2.685   5.743  0.6023 -1.8983 -0.4734
15227SOL     OW48572   8.195   3.477   7.186  0.9863 -0.5381  0.4152
15227SOL    HW148573   8.152   3.563   7.189 -0.8787 -1.4077  0.3513
15227SOL    HW248574   8.282   3.492   7.222  0.2522  1.1298  1.6191
15228SOL     OW48575   8.090   1.335   1.409  0.3547 -0.3380  0.4485
15228SOL    HW148576   8.066   1.348   1.318 -3.5822  1.5072  1.5297
15228SOL    HW248577   8.029   1.268   1.441  1.5574 -0.8497  1.8217
15229SOL     OW48578   0.709   9.174   6.209 -0.3482  0.0000  0.6111
15229SOL    HW148579   0.782   9.190   6.149 -0.4937 -0.3475  0.3384
15229SOL    HW248580   0.697   9.079   6.208  0.0982 -0.0752  1.7291
15230SOL     OW48581   1.495   4.699   5.838 -0.3339 -0.0048 -0.2023
15230SOL    HW148582   1.555   4.625   5.824  0.5801  0.5019  0.8081
15230SOL    HW248583   1.423   4.661   5.889 -0.2822 -0.3835 -0.4083
15231SOL     OW48584   5.984   0.625   6.249 -0.2149  0.3031  0.2600
15231SOL    HW148585   5.995   0.716   6.224  0.5915  0.3127  0.6319
15231SOL    HW248586   5.975   0.627   6.345  2.2967 -0.1837  0.5850
15232SOL     OW48587   1.256   9.237   3.731  0.4125  0.1467 -0.2461
15232SOL    HW148588   1.273   9.295   3.806  1.6947 -1.2559  0.6005
15232SOL    HW248589   1.241   9.297   3.657  0.3310  1.5479  0.8616
15233SOL     OW48590   7.057   8.794   8.570 -0.3185 -0.5967 -0.5853
15233SOL    HW148591   6.988   8.860   8.567 -0.1813 -0.4346 -0.1957
15233SOL    HW248592   7.017   8.715   8.534 -0.7788 -0.5717 -0.1244
15234SOL     OW48593   4.077   3.452   4.850 -0.5563  0.2340  0.2865
15234SOL    HW148594   4.146   3.518   4.839 -1.1134  0.5614 -1.4947
15234SOL    HW248595   4.123   3.375   4.885  0.0040  1.6933  3.0486
15235SOL     OW48596   0.407   5.249   1.792  0.6075  0.2327 -0.4003
15235SOL    HW148597   0.488   5.249   1.842  0.7425  0.7066 -0.6157
15235SOL    HW248598   0.374   5.339   1.799  0.2734  0.1285 -0.5884
15236SOL     OW48599   8.427   2.978   4.472  0.0407 -0.2253  0.4590
15236SOL    HW148600   8.498   2.918   4.495  1.0197  0.3965 -0.8767
15236SOL    HW248601   8.469   3.048   4.423 -1.5084  0.1497 -0.3833
15237SOL     OW48602   7.820   5.502   1.549  0.2916  0.2164  0.0916
15237SOL    HW148603   7.873   5.476   1.474 -1.1217 -2.1428 -0.2115
15237SOL    HW248604   7.845   5.442   1.619 -0.1817  0.7442  0.7344
15238SOL     OW48605   0.233   6.479   5.297  0.0406  0.1303  0.5349
15238SOL    HW148606   0.252   6.572   5.287 -1.0733  0.2251 -1.3714
15238SOL    HW248607   0.303   6.435   5.249  0.4203 -0.0237  1.2135
15239SOL     OW48608   0.127   8.997   1.489 -0.2378 -0.9099  0.5217
15239SOL    HW148609   0.123   8.901   1.484  2.2214 -1.1780  2.0439
15239SOL    HW248610   0.107   9.018   1.580  0.1426 -0.0711  0.4228
15240SOL     OW48611   2.075   5.645   2.718  0.0068 -0.7996  0.1079
15240SOL    HW148612   2.129   5.642   2.796 -0.9754 -1.8638  0.7785
15240SOL    HW248613   2.085   5.734   2.684 -0.3545  0.0019  2.0213
15241SOL     OW48614   3.839   3.655   5.352  0.4697 -0.7317  0.4233
15241SOL    HW148615   3.781   3.627   5.282  0.5781 -0.9236  0.4076
15241SOL    HW248616   3.905   3.710   5.309  1.6496 -2.3648  0.0279
15242SOL     OW48617   6.712   8.807   7.865  0.3322  0.1764  0.2321
15242SOL    HW148618   6.664   8.890   7.866  0.5782  0.3221 -0.0729
15242SOL    HW248619   6.794   8.827   7.819  0.8758  0.0311  1.1265
15243SOL     OW48620   2.245   5.316   3.857 -0.0991  0.2749  0.5148
15243SOL    HW148621   2.193   5.236   3.848 -0.9935  0.9753 -0.8698
15243SOL    HW248622   2.231   5.343   3.947 -3.2311  1.0976 -0.0903
15244SOL     OW48623   4.775   9.152   1.865 -0.1664  0.2461  0.2330
15244SOL    HW148624   4.827   9.133   1.787 -0.8577 -0.1296 -0.1501
15244SOL    HW248625   4.688   9.173   1.831 -0.8456 -1.2565  0.9516
15245SOL     OW48626   5.879   6.176   3.257 -0.2619 -0.0477 -0.5656
15245SOL    HW148627   5.888   6.139   3.169  2.3577 -1.3874  0.1582
15245SOL    HW248628   5.946   6.244   3.262 -1.3762  1.0581 -0.0400
15246SOL     OW48629   3.375   2.769   4.152  0.2986 -0.3007 -0.0215
15246SOL    HW148630   3.437   2.722   4.097  0.6011  0.7487 -0.5932
15246SOL    HW248631   3.312   2.702   4.179  0.6001 -0.9941 -0.9838
15247SOL     OW48632   6.915   4.018   2.320  0.0848  0.3660 -0.4755
15247SOL    HW148633   6.846   3.970   2.274  0.8036  1.0127 -2.3306
15247SOL    HW248634   6.868   4.082   2.374 -0.8064 -0.7421  0.1033
15248SOL     OW48635   5.167   3.637   0.324  0.1802 -0.0670 -0.0775
15248SOL    HW148636   5.263   3.640   0.321  0.3108 -0.8285  1.8488
15248SOL    HW248637   5.144   3.560   0.272  0.7216 -0.5439  0.3626
15249SOL     OW48638   1.370   4.780   5.259  0.6414  0.3405  0.2994
15249SOL    HW148639   1.443   4.728   5.293  0.4712 -1.0028 -1.2648
15249SOL    HW248640   1.305   4.780   5.329  0.6978 -1.5028  0.3967
15250SOL     OW48641   1.729   1.008   2.836  0.2990 -0.5038 -0.7631
15250SOL    HW148642   1.772   1.093   2.834 -0.0816 -0.3097 -0.8960
15250SOL    HW248643   1.649   1.021   2.784 -0.0892 -0.7619 -0.2355
15251SOL     OW48644   0.776   1.257   7.272  0.8407 -0.1478 -0.3670
15251SOL    HW148645   0.842   1.189   7.258  1.0714  0.1790 -0.8918
15251SOL    HW248646   0.785   1.280   7.365  1.0646 -0.5210 -0.2949
15252SOL     OW48647   4.400   4.185   5.907 -0.3794 -0.6064  0.8815
15252SOL    HW148648   4.463   4.236   5.958 -0.8550 -0.0386  0.9154
15252SOL    HW248649   4.332   4.161   5.969  0.5420 -2.5683  1.2139
15253SOL     OW48650   1.879   5.898   9.254 -0.3441  0.3847  0.3438
15253SOL    HW148651   1.889   5.991   9.274  0.1750  0.3434  0.2813
15253SOL    HW248652   1.813   5.895   9.185  1.5262  0.9100 -1.5441
15254SOL     OW48653   7.321   2.820   7.077 -0.7566  0.1474  0.8690
15254SOL    HW148654   7.366   2.749   7.031 -0.2631 -0.1036  1.7286
15254SOL    HW248655   7.283   2.873   7.007  0.3343  0.0016  0.1433
15255SOL     OW48656   7.334   4.683   1.372  0.0214  0.6298  1.4040
15255SOL    HW148657   7.329   4.779   1.369  1.4916  0.7153 -0.8423
15255SOL    HW248658   7.416   4.664   1.416 -0.5197  0.3611  2.3197
15256SOL     OW48659   8.569   2.980   7.665  0.1430  0.4245 -0.0681
15256SOL    HW148660   8.664   2.970   7.674  0.3049  1.4210 -0.5462
15256SOL    HW248661   8.539   2.895   7.632  1.1473  0.7658 -1.9680
15257SOL     OW48662   2.591   1.253   7.275  0.7022 -0.0657 -0.2217
15257SOL    HW148663   2.572   1.264   7.182 -0.0475 -1.3906 -0.2543
15257SOL    HW248664   2.535   1.181   7.303 -1.3613  2.1439  1.9520
15258SOL     OW48665   7.429   1.341   8.734 -0.2409  0.4997  0.0223
15258SOL    HW148666   7.465   1.407   8.675 -0.9620  1.2730  0.4320
15258SOL    HW248667   7.438   1.380   8.821 -0.3940 -0.0730  0.2971
15259SOL     OW48668   1.948   0.339   2.871 -0.1446 -0.3128  0.8606
15259SOL    HW148669   1.886   0.408   2.893  0.3421  0.3167  0.3128
15259SOL    HW248670   1.895   0.271   2.829 -0.4573  0.2505  0.3291
15260SOL     OW48671   1.943   5.493   6.502  0.0141 -0.0530 -0.0198
15260SOL    HW148672   1.946   5.487   6.597  0.0093 -2.3740 -0.1078
15260SOL    HW248673   1.849   5.495   6.481 -0.0737 -1.8200 -0.0007
15261SOL     OW48674   3.624   2.344   9.232  0.3851  0.1526 -0.3116
15261SOL    HW148675   3.673   2.285   9.288 -0.2591 -0.2650 -0.1751
15261SOL    HW248676   3.561   2.288   9.187 -1.1815  0.8881  0.8386
15262SOL     OW48677   5.130   3.376   1.475  0.3639 -0.3975  0.5180
15262SOL    HW148678   5.053   3.325   1.449 -0.4932  1.6396 -1.2006
15262SOL    HW248679   5.204   3.332   1.432 -0.5048  0.4411 -1.9475
15263SOL     OW48680   7.844   4.022   4.640  0.0110 -0.1306  0.1877
15263SOL    HW148681   7.855   3.927   4.647 -0.4639 -0.2354 -0.4267
15263SOL    HW248682   7.841   4.039   4.546 -1.2748  0.3306  0.2932
15264SOL     OW48683   2.385   1.455   6.684 -0.0813 -0.3702 -0.4564
15264SOL    HW148684   2.476   1.445   6.657  0.0546 -0.7442  0.1279
15264SOL    HW248685   2.365   1.374   6.731  0.3219  1.0757  2.4150
15265SOL     OW48686   3.009   3.609   0.273  0.5428 -0.7281  0.2967
15265SOL    HW148687   3.019   3.618   0.367  0.5829  0.4525  0.1878
15265SOL    HW248688   2.944   3.675   0.249 -0.8291 -2.1947 -0.2736
15266SOL     OW48689   5.486   6.088   5.220 -0.3025  0.2202  0.1053
15266SOL    HW148690   5.404   6.054   5.184 -0.3822  0.4605  0.0542
15266SOL    HW248691   5.458   6.148   5.289 -0.1355 -0.6944  0.9922
15267SOL     OW48692   6.481   3.715   7.134  0.5478 -0.2070  0.1992
15267SOL    HW148693   6.544   3.775   7.175 -0.9597  0.6168  1.3984
15267SOL    HW248694   6.426   3.684   7.206 -0.4289 -0.8967 -0.8135
15268SOL     OW48695   2.059   1.137   6.824  0.2157 -0.0892 -0.2929
15268SOL    HW148696   2.081   1.075   6.893 -0.0086 -2.2708 -2.0492
15268SOL    HW248697   1.976   1.175   6.851  1.1788  0.7660  1.6269
15269SOL     OW48698   7.214   5.157   1.034 -0.2226 -0.5765 -0.4634
15269SOL    HW148699   7.145   5.217   1.004 -0.7879 -0.7803  0.3984
15269SOL    HW248700   7.171   5.101   1.099  1.0769  0.1482  1.0840
15270SOL     OW48701   6.021   7.142   3.974 -0.0405 -0.5959 -0.3424
15270SOL    HW148702   6.072   7.140   4.055 -1.2529  1.9394  0.6002
15270SOL    HW248703   6.068   7.084   3.914  2.1243 -0.8304  1.4617
15271SOL     OW48704   8.459   3.587   7.243 -0.2025 -0.3503 -0.0337
15271SOL    HW148705   8.493   3.634   7.166 -0.7611  3.0099  1.5771
15271SOL    HW248706   8.536   3.545   7.281  0.8834  1.2758 -0.3033
15272SOL     OW48707   8.841   1.533   4.104  0.3270 -0.3254  0.4699
15272SOL    HW148708   8.771   1.481   4.063  1.2553 -0.6740 -0.7225
15272SOL    HW248709   8.874   1.477   4.175 -0.0371 -0.5119  0.4954
15273SOL     OW48710   2.290   0.446   0.286  0.3062 -0.0495  0.5896
15273SOL    HW148711   2.304   0.539   0.301 -0.6550  0.0722  0.7839
15273SOL    HW248712   2.333   0.428   0.202 -0.8009  0.8975 -0.2018
15274SOL     OW48713   5.524   8.897   0.062 -0.2394  0.1275  0.1092
15274SOL    HW148714   5.507   8.912   0.155  1.3892  0.7301  0.3556
15274SOL    HW248715   5.607   8.942   0.046 -0.1992 -0.4618 -1.5058
15275SOL     OW48716   2.115   8.543   0.415 -0.2875  0.3840 -0.2668
15275SOL    HW148717   2.203   8.578   0.405 -1.3320  3.0925 -0.9179
15275SOL    HW248718   2.118   8.458   0.372  2.2700 -0.1398  0.7946
15276SOL     OW48719   5.714   8.283   9.065 -0.1050  0.2958 -0.5925
15276SOL    HW148720   5.772   8.247   9.133  0.4563  0.1670 -1.1223
15276SOL    HW248721   5.638   8.225   9.066  1.2925 -1.7479 -2.2409
15277SOL     OW48722   1.736   4.299   0.336  0.1490 -0.0166 -0.6478
15277SOL    HW148723   1.764   4.225   0.282  0.4317 -0.7931  0.5203
15277SOL    HW248724   1.644   4.311   0.315 -0.2059 -1.4520 -0.0368
15278SOL     OW48725   3.556   7.609   5.946 -0.2708 -0.0252  0.4955
15278SOL    HW148726   3.572   7.698   5.914 -0.6316 -0.2361 -0.2902
15278SOL    HW248727   3.617   7.554   5.897 -0.9760 -0.3793 -0.0043
15279SOL     OW48728   0.870   4.564   4.817 -0.0332 -0.2631 -0.2804
15279SOL    HW148729   0.942   4.624   4.837  0.3903 -1.1113  0.8826
15279SOL    HW248730   0.827   4.602   4.741  0.5475  1.2198  0.0951
15280SOL     OW48731   1.956   0.082   4.436  0.2684  0.0003 -0.3348
15280SOL    HW148732   2.047   0.108   4.452 -0.2206  0.5183  2.0897
15280SOL    HW248733   1.946  -0.001   4.483 -1.0173  1.0176  1.3132
15281SOL     OW48734   0.924   4.631   3.538  0.1934  0.2523  0.4999
15281SOL    HW148735   0.976   4.694   3.588 -0.1759 -0.2343  1.5375
15281SOL    HW248736   0.878   4.580   3.605  0.3229 -0.9810 -0.3219
15282SOL     OW48737   4.648   3.967   2.866 -0.4533  0.6453  0.0918
15282SOL    HW148738   4.602   3.915   2.800  0.8287 -0.0479 -0.2977
15282SOL    HW248739   4.622   3.927   2.949 -0.8292  0.4937 -0.0922
15283SOL     OW48740   9.195   5.877   3.335  0.0148 -0.7308 -0.3506
15283SOL    HW148741   9.131   5.835   3.277 -3.3188 -0.3085  2.6319
15283SOL    HW248742   9.214   5.811   3.401  2.1255 -0.5380 -0.7068
15284SOL     OW48743   1.420   2.018   1.570  0.0638 -0.2030  0.3179
15284SOL    HW148744   1.497   2.060   1.531 -0.0733  0.8330  1.1262
15284SOL    HW248745   1.423   1.928   1.538  0.3085  0.4229 -1.5611
15285SOL     OW48746   1.102   2.209   3.175  0.2645 -0.0232  0.7485
15285SOL    HW148747   1.169   2.142   3.190 -1.8948 -2.2114  1.1512
15285SOL    HW248748   1.114   2.233   3.083  0.9982 -1.0754  0.5444
15286SOL     OW48749   7.124   4.809   6.108  0.1816  0.1442  0.0180
15286SOL    HW148750   7.187   4.858   6.161  0.4473 -2.3004  2.1482
15286SOL    HW248751   7.175   4.779   6.033  1.5335 -1.4164  1.4833
15287SOL     OW48752   4.311   5.491   0.244  0.2815 -0.2401  0.4880
15287SOL    HW148753   4.340   5.578   0.271 -2.2077  0.7570  0.1909
15287SOL    HW248754   4.271   5.454   0.323 -0.2221 -0.4036  0.1570
15288SOL     OW48755   9.066   8.688   0.163  0.2953 -0.4401 -0.0894
15288SOL    HW148756   9.120   8.664   0.239  2.4041 -1.8295 -1.8858
15288SOL    HW248757   9.052   8.605   0.117 -3.3002 -0.1048  0.1204
15289SOL     OW48758   4.940   7.767   0.782 -0.4527 -0.0801  0.3071
15289SOL    HW148759   4.871   7.800   0.725 -1.7734 -0.2936  1.7092
15289SOL    HW248760   4.942   7.673   0.766 -0.7289 -0.1207  0.5037
15290SOL     OW48761   6.895   3.691   8.831 -0.1013  0.1908 -0.2099
15290SOL    HW148762   6.873   3.713   8.921 -1.2398 -2.2193  0.1847
15290SOL    HW248763   6.982   3.728   8.817 -0.0820  0.9627  1.7195
15291SOL     OW48764   4.542   0.943   0.668 -0.6007  0.5984  0.1317
15291SOL    HW148765   4.624   0.992   0.678  0.4062 -1.1017  0.6721
15291SOL    HW248766   4.503   0.978   0.588  0.9942  0.9894 -0.5231
15292SOL     OW48767   0.220   4.542   0.805 -0.3150 -0.3991 -0.1705
15292SOL    HW148768   0.190   4.632   0.819 -0.8108 -0.6932  0.7474
15292SOL    HW248769   0.264   4.518   0.887  0.1768 -0.8529 -0.5630
15293SOL     OW48770   4.779   1.372   4.889  0.2574  0.0478 -0.1806
15293SOL    HW148771   4.695   1.340   4.922  0.0496 -0.9978 -1.6418
15293SOL    HW248772   4.831   1.293   4.875  1.9129  0.7237  1.6932
15294SOL     OW48773   3.038   3.468   4.183 -0.4144 -0.8144  0.2187
15294SOL    HW148774   3.068   3.391   4.134  0.8577  0.4900 -1.1647
15294SOL    HW248775   3.091   3.469   4.262  0.6330 -0.5686 -0.4692
15295SOL     OW48776   6.478   7.553   0.820  0.4729 -0.2954  0.6926
15295SOL    HW148777   6.545   7.518   0.761  0.5569 -0.0211  0.6218
15295SOL    HW248778   6.527   7.576   0.899  0.2750 -1.1738  1.0858
15296SOL     OW48779   6.695   9.033   0.261 -0.5960 -0.2827 -0.1409
15296SOL    HW148780   6.730   9.096   0.324 -3.4290  1.7185 -0.3424
15296SOL    HW248781   6.671   8.957   0.314  3.2043 -1.5622  0.0538
15297SOL     OW48782   5.424   2.863   3.663  0.7816 -0.5259  0.4407
15297SOL    HW148783   5.472   2.781   3.670 -0.5635 -1.6056 -1.8182
15297SOL    HW248784   5.383   2.875   3.748  0.7306 -2.4086  0.7250
15298SOL     OW48785   8.669   8.829   5.590  0.6152  0.0192 -0.8196
15298SOL    HW148786   8.645   8.840   5.498  0.5109 -1.2564 -0.9569
15298SOL    HW248787   8.764   8.834   5.591  0.6147  0.0700 -0.9846
15299SOL     OW48788   9.154   1.299   2.025  0.4297  0.0865 -0.2902
15299SOL    HW148789   9.145   1.383   2.069 -0.3207 -0.0820 -0.1000
15299SOL    HW248790   9.196   1.319   1.941  0.7345  0.5737 -0.0206
15300SOL     OW48791   7.325   2.114   5.057  0.5659  0.1869 -0.2582
15300SOL    HW148792   7.326   2.208   5.077  0.0645  0.4634 -1.4392
15300SOL    HW248793   7.232   2.092   5.051  0.5896 -0.8973  2.0874
15301SOL     OW48794   2.587   8.270   4.629 -0.2835  0.1039  0.2791
15301SOL    HW148795   2.643   8.250   4.554 -0.5971  2.4205 -0.6662
15301SOL    HW248796   2.498   8.270   4.593 -0.4855  0.6918  0.7470
15302SOL     OW48797   1.475   0.663   2.284 -0.1989 -0.2656  0.1495
15302SOL    HW148798   1.451   0.580   2.244  1.0107 -0.6359  0.1630
15302SOL    HW248799   1.440   0.729   2.224  1.0225 -0.8037 -1.1986
15303SOL     OW48800   7.010   3.487   9.021 -0.0734  0.2425 -0.5392
15303SOL    HW148801   7.067   3.550   9.064 -0.5434  1.6425 -1.8526
15303SOL    HW248802   6.922   3.523   9.032 -0.3672 -0.2628 -1.1432
15304SOL     OW48803   9.193   0.877   8.845 -0.2918 -0.1679 -0.5503
15304SOL    HW148804   9.155   0.947   8.792 -0.1193  1.0831  0.8873
15304SOL    HW248805   9.271   0.917   8.885 -2.0900  0.1440  3.1359
15305SOL     OW48806   6.253   7.421   3.283 -0.0710  0.1745  0.3239
15305SOL    HW148807   6.239   7.328   3.301  1.0888  0.3964  2.8375
15305SOL    HW248808   6.335   7.442   3.329 -0.0461  2.3366 -0.5917
15306SOL     OW48809   0.812   4.218   2.197  0.2785 -0.0737 -0.6776
15306SOL    HW148810   0.723   4.254   2.204  0.0278 -0.7054 -0.5566
15306SOL    HW248811   0.817   4.153   2.267  1.4588  1.2297  0.4983
15307SOL     OW48812   8.025   0.804   6.208 -0.5079  0.2231 -0.1444
15307SOL    HW148813   8.086   0.815   6.135 -1.1553  1.0827 -0.5704
15307SOL    HW248814   8.015   0.892   6.244 -1.2951  0.0507  0.0776
15308SOL     OW48815   6.884   0.393   3.796  0.5218  0.0775 -0.0327
15308SOL    HW148816   6.916   0.371   3.883 -1.5404  0.2012  0.8035
15308SOL    HW248817   6.836   0.475   3.808 -1.1168 -0.7004 -0.9394
15309SOL     OW48818   0.551   1.300   5.311 -0.2667 -0.5740 -0.3574
15309SOL    HW148819   0.491   1.307   5.385 -1.7310 -0.5651 -1.4904
15309SOL    HW248820   0.632   1.267   5.349 -0.7601  0.0532  1.3405
15310SOL     OW48821   5.969   0.563   2.540  0.3527 -0.0370 -0.1160
15310SOL    HW148822   6.032   0.627   2.507  0.1593 -0.3911 -1.2102
15310SOL    HW248823   5.891   0.614   2.561  0.5829  0.2333  0.0888
15311SOL     OW48824   5.133   0.837   3.525 -0.6350 -0.3292  0.2718
15311SOL    HW148825   5.105   0.769   3.587 -1.0325 -1.0446 -0.6791
15311SOL    HW248826   5.053   0.884   3.502 -0.3623  0.4947  0.9245
15312SOL     OW48827   0.385   2.454   1.579  0.3600  0.0769  0.4662
15312SOL    HW148828   0.360   2.541   1.610  0.2017  0.2193 -0.0400
15312SOL    HW248829   0.322   2.435   1.509  0.9265 -0.0773 -0.0095
15313SOL     OW48830   0.137   6.932   4.002 -0.1200  0.2264 -0.3528
15313SOL    HW148831   0.188   6.882   3.937 -0.3657 -1.2620  0.5519
15313SOL    HW248832   0.163   6.895   4.086 -2.3248 -0.2719  0.1832
15314SOL     OW48833   3.667   0.415   6.153  0.2650 -0.4201 -0.1877
15314SOL    HW148834   3.684   0.432   6.246  0.4561  0.9276 -0.4518
15314SOL    HW248835   3.667   0.319   6.146  0.2576 -0.5424  1.1929
15315SOL     OW48836   3.949   2.520   4.416  0.2171 -0.5178  0.0618
15315SOL    HW148837   3.994   2.602   4.437 -3.4760  1.7628 -0.1909
15315SOL    HW248838   4.013   2.470   4.366  2.0155  3.0753 -1.5710
15316SOL     OW48839   8.919   2.260   7.653  0.3650  0.3744  0.5392
15316SOL    HW148840   8.826   2.282   7.657  0.1361 -0.5576  0.6345
15316SOL    HW248841   8.934   2.202   7.728  0.6702 -0.6944 -0.3069
15317SOL     OW48842   7.214   2.398   4.993  0.2616  0.1444 -0.1489
15317SOL    HW148843   7.295   2.409   4.943  0.3183 -0.0625 -0.1036
15317SOL    HW248844   7.206   2.478   5.045  1.7276 -0.8416  1.7186
15318SOL     OW48845   8.783   2.780   4.754 -0.1960  0.4906  0.1657
15318SOL    HW148846   8.771   2.870   4.785  1.7801  0.5528  0.9640
15318SOL    HW248847   8.870   2.781   4.714 -0.0418 -1.1032  0.4106
15319SOL     OW48848   2.114   0.193   2.281 -0.7052  0.5302  0.2489
15319SOL    HW148849   2.024   0.222   2.267 -0.5835  1.0898  0.5946
15319SOL    HW248850   2.109   0.139   2.361 -1.1797 -1.6334 -1.1482
15320SOL     OW48851   6.602   3.251   0.176 -0.0363  0.1936 -0.2060
15320SOL    HW148852   6.536   3.320   0.174  0.5679  0.8568  1.3522
15320SOL    HW248853   6.685   3.297   0.192  0.5285 -0.7999 -0.1735
15321SOL     OW48854   4.939   4.340   2.356 -0.1043 -0.1319  0.0474
15321SOL    HW148855   4.881   4.400   2.402  0.0873  0.7895 -0.8600
15321SOL    HW248856   4.895   4.323   2.272  0.2069 -0.6447 -0.0159
15322SOL     OW48857   0.091   0.847   4.053 -0.4315  0.1498  0.3736
15322SOL    HW148858   0.105   0.752   4.059  0.3045  0.2243 -0.0940
15322SOL    HW248859   0.012   0.856   4.000 -0.6191 -0.2056  0.5863
15323SOL     OW48860   7.686   9.058   5.142 -0.3078  0.1905 -0.4830
15323SOL    HW148861   7.738   9.121   5.093  1.6050  1.2515  2.6210
15323SOL    HW248862   7.629   9.017   5.077  0.6798  2.7853 -3.1618
15324SOL     OW48863   3.288   8.194   2.118 -0.2462 -0.3207 -0.4343
15324SOL    HW148864   3.324   8.106   2.127 -0.9600 -0.4499  1.9970
15324SOL    HW248865   3.200   8.187   2.157 -0.7637  1.2083 -1.2613
15325SOL     OW48866   6.649   1.531   4.911 -0.2362 -0.8489 -0.8640
15325SOL    HW148867   6.654   1.571   4.824 -1.1598  2.3617  0.3998
15325SOL    HW248868   6.558   1.546   4.939  0.0230 -1.8830  0.6264
15326SOL     OW48869   4.250   8.009   0.511 -0.0257  0.0297 -0.0979
15326SOL    HW148870   4.266   8.097   0.544  0.7618 -0.2287  0.2233
15326SOL    HW248871   4.209   7.963   0.584 -2.2040  0.6304 -0.8502
15327SOL     OW48872   4.331   0.709   4.019 -0.1380  0.6047 -0.4049
15327SOL    HW148873   4.306   0.637   3.961 -1.4252  0.9522 -0.3155
15327SOL    HW248874   4.403   0.675   4.070 -0.2902 -0.3937 -0.8360
15328SOL     OW48875   1.678   0.176   0.736 -0.1945 -0.4345 -0.4695
15328SOL    HW148876   1.762   0.201   0.697 -0.4475  1.4257  0.0823
15328SOL    HW248877   1.692   0.087   0.770  1.4733 -0.2413 -0.5898
15329SOL     OW48878   0.562   3.265   9.221 -0.6022  0.5668  0.1609
15329SOL    HW148879   0.633   3.207   9.246 -0.4814  0.6830  0.0844
15329SOL    HW248880   0.604   3.337   9.175 -0.9512 -0.5001 -1.9445
15330SOL     OW48881   8.647   2.636   7.260 -0.8416  0.3218  0.2209
15330SOL    HW148882   8.562   2.631   7.305  0.9491 -1.5659  3.8164
15330SOL    HW248883   8.701   2.571   7.305  2.4372  1.1685 -2.1816
15331SOL     OW48884   8.427   2.832   5.731 -0.0174  0.2978 -0.4568
15331SOL    HW148885   8.367   2.905   5.746  1.7369  1.9554 -0.9674
15331SOL    HW248886   8.499   2.871   5.682  2.0775 -1.2779  1.1748
15332SOL     OW48887   1.732   5.469   3.784 -0.5400  0.4433  0.4035
15332SOL    HW148888   1.642   5.476   3.752 -0.3755  3.3687  0.3536
15332SOL    HW248889   1.780   5.428   3.712 -1.6576 -0.4233  0.1202
15333SOL     OW48890   2.032   8.825   2.936  0.2900  0.3041  0.0774
15333SOL    HW148891   1.994   8.748   2.980  0.5533 -0.7902 -1.5285
15333SOL    HW248892   1.996   8.900   2.984  1.2582 -0.8099  2.7164
15334SOL     OW48893   0.088   6.406   4.743  0.0573  0.0559  0.1725
15334SOL    HW148894   0.160   6.468   4.746 -0.2059  0.3448  1.5086
15334SOL    HW248895   0.010   6.460   4.757 -0.5895 -0.0779 -2.3679
15335SOL     OW48896   7.792   5.954   8.417  0.5748 -0.1137  0.2255
15335SOL    HW148897   7.731   5.992   8.479 -0.3525 -1.8213  0.4350
15335SOL    HW248898   7.761   5.983   8.331  1.6243  1.9267  0.4936
15336SOL     OW48899   0.120   5.414   5.887 -0.0776 -0.7276 -0.5667
15336SOL    HW148900   0.175   5.366   5.949  0.3338 -0.9274 -1.0800
15336SOL    HW248901   0.050   5.452   5.941  1.2499  0.6016  0.2996
15337SOL     OW48902   2.019   9.254   8.648  0.8461 -0.0907  0.4978
15337SOL    HW148903   1.975   9.211   8.575 -1.4908  0.6509  1.3751
15337SOL    HW248904   2.025   9.185   8.715  1.2768 -0.2579  0.2928
15338SOL     OW48905   2.785   3.849   5.304 -0.1220  0.4165  0.1405
15338SOL    HW148906   2.689   3.857   5.308 -0.0969  0.2240  1.6802
15338SOL    HW248907   2.802   3.812   5.217 -1.3269  1.8581 -0.7845
15339SOL     OW48908   7.125   6.995   3.181 -0.2055  0.3112  0.0574
15339SOL    HW148909   7.042   6.951   3.197 -0.6058  0.1641 -2.1225
15339SOL    HW248910   7.191   6.940   3.223 -0.8441 -1.6516 -1.3610
15340SOL     OW48911   2.893   3.123   4.281 -0.3519  0.0074 -0.3289
15340SOL    HW148912   2.890   3.175   4.201  2.2000  0.3618 -0.2800
15340SOL    HW248913   2.972   3.069   4.272  1.1950  1.4724  2.7059
15341SOL     OW48914   5.983   2.338   1.456 -0.0124 -0.3153  0.1539
15341SOL    HW148915   5.917   2.359   1.522 -0.0599  0.2109 -0.0551
15341SOL    HW248916   5.935   2.292   1.387 -0.2318  0.3859 -0.1642
15342SOL     OW48917   6.055   8.932   0.384 -0.0243 -0.5455 -0.0240
15342SOL    HW148918   6.054   8.995   0.313  0.0358 -0.7706 -0.2255
15342SOL    HW248919   6.002   8.859   0.353  1.7146 -1.5857 -0.7066
15343SOL     OW48920   7.426   4.815   0.128  0.1016  0.0912 -0.2108
15343SOL    HW148921   7.457   4.877   0.063  0.0413 -0.2762 -0.5913
15343SOL    HW248922   7.505   4.784   0.171  0.1072  0.7327  0.2669
15344SOL     OW48923   5.920   4.742   0.103  0.4180 -0.2164  0.6626
15344SOL    HW148924   5.964   4.773   0.181 -0.8359  2.7204  0.3594
15344SOL    HW248925   5.957   4.795   0.032 -1.1428 -0.0716 -0.0921
15345SOL     OW48926   2.100   2.357   0.392 -0.0123  0.0631 -0.4163
15345SOL    HW148927   2.032   2.415   0.428 -0.7860 -1.0060 -0.0990
15345SOL    HW248928   2.070   2.337   0.304 -0.5223 -1.0185 -0.0125
15346SOL     OW48929   0.824   2.484   7.138 -0.4336 -0.1421 -0.1302
15346SOL    HW148930   0.785   2.435   7.065  0.3465 -0.9710 -0.0179
15346SOL    HW248931   0.885   2.421   7.178 -0.8198  0.3185  1.2072
15347SOL     OW48932   4.131   0.281   0.774 -0.4035  0.0129  0.1682
15347SOL    HW148933   4.069   0.280   0.701 -2.1205  0.4800  1.5456
15347SOL    HW248934   4.134   0.372   0.803  0.2533 -0.1590  0.6817
15348SOL     OW48935   3.385   7.505   4.316 -0.5668 -0.1136 -0.5452
15348SOL    HW148936   3.344   7.421   4.294 -2.6922  0.9882 -1.0440
15348SOL    HW248937   3.328   7.543   4.382  1.3654  0.2006  1.0430
15349SOL     OW48938   0.800   7.980   4.497 -0.2872 -0.3347 -0.1850
15349SOL    HW148939   0.827   7.895   4.462  1.1738  0.5215 -1.2781
15349SOL    HW248940   0.715   7.997   4.457 -0.7643 -1.4241  0.3261
15350SOL     OW48941   2.947   2.402   0.130 -0.5242  0.4805 -0.1362
15350SOL    HW148942   2.959   2.324   0.075  0.9877 -1.1008  2.2351
15350SOL    HW248943   2.996   2.471   0.084 -0.1388 -0.4955 -1.2693
15351SOL     OW48944   5.992   2.150   0.609  0.2805  0.0773 -0.0835
15351SOL    HW148945   6.044   2.195   0.541  0.3619 -1.4520 -1.0882
15351SOL    HW248946   5.931   2.216   0.640  1.5809  1.3964 -0.2038
15352SOL     OW48947   7.399   4.938   2.381 -0.3405 -0.5119 -0.2728
15352SOL    HW148948   7.430   5.025   2.358 -1.4710 -0.4013 -1.4639
15352SOL    HW248949   7.459   4.878   2.335  1.6459 -0.4755  2.0734
15353SOL     OW48950   3.359   7.785   4.233 -0.0899  0.9951  0.1313
15353SOL    HW148951   3.325   7.701   4.202 -0.9622  0.6257  1.9415
15353SOL    HW248952   3.440   7.762   4.278  0.7594  1.4286 -1.1084
15354SOL     OW48953   0.616   2.029   1.128 -0.0402 -0.0892 -0.2514
15354SOL    HW148954   0.628   2.027   1.033  1.8017  0.0202 -0.0510
15354SOL    HW248955   0.576   2.114   1.146  0.2752  0.1863 -0.8539
15355SOL     OW48956   1.568   8.589   1.859  0.0149  0.3168  0.4160
15355SOL    HW148957   1.588   8.669   1.908  0.8905 -0.5165  1.4990
15355SOL    HW248958   1.473   8.590   1.849  0.1642  2.6936 -1.8048
15356SOL     OW48959   3.939   0.669   6.869 -0.1588  0.5352 -0.4594
15356SOL    HW148960   3.864   0.691   6.814 -1.9128  1.6622  2.1631
15356SOL    HW248961   3.989   0.750   6.876  0.2433  0.3077 -0.6568
15357SOL     OW48962   8.356   4.717   4.421 -0.0349  0.0090 -0.1845
15357SOL    HW148963   8.450   4.726   4.437  0.5670 -2.2499 -2.0570
15357SOL    HW248964   8.347   4.643   4.362 -3.0418  0.0519  0.0180
15358SOL     OW48965   8.582   2.309   1.297 -0.6938 -0.2315 -0.4691
15358SOL    HW148966   8.509   2.364   1.327 -0.4887 -0.4459  0.4493
15358SOL    HW248967   8.603   2.254   1.373  2.0697  1.5179  0.1738
15359SOL     OW48968   6.497   4.743   3.934 -0.3240  0.3699 -0.1694
15359SOL    HW148969   6.519   4.802   4.006  0.5285 -0.7121  0.4848
15359SOL    HW248970   6.575   4.744   3.878 -0.0308 -0.6106  0.1942
15360SOL     OW48971   7.009   0.953   0.934  0.0849  0.2372  0.3271
15360SOL    HW148972   6.996   1.009   0.857 -1.5820  1.5155  1.4671
15360SOL    HW248973   6.951   0.990   1.000  0.8186 -1.3692  1.9370
15361SOL     OW48974   5.305   6.532   3.750 -0.7128  0.1405  0.3338
15361SOL    HW148975   5.333   6.618   3.720  2.6238 -0.6062  0.9484
15361SOL    HW248976   5.364   6.511   3.823 -0.1287 -3.3968 -0.9646
15362SOL     OW48977   0.736   1.089   3.290 -0.4717 -0.2635  0.1081
15362SOL    HW148978   0.829   1.078   3.274 -0.4893  0.7733 -0.8363
15362SOL    HW248979   0.731   1.151   3.363 -0.4254 -0.1361  0.0026
15363SOL     OW48980   8.134   1.716   1.207  0.6188 -0.4391 -0.1257
15363SOL    HW148981   8.194   1.784   1.238  0.3688 -0.3575  0.1878
15363SOL    HW248982   8.086   1.690   1.285 -1.4809  1.2071 -0.7662
15364SOL     OW48983   5.907   0.178   1.771 -0.5389 -0.2867  0.4294
15364SOL    HW148984   5.941   0.247   1.828 -1.8623  1.2732 -0.5902
15364SOL    HW248985   5.925   0.097   1.819  1.1301  0.7225  1.6386
15365SOL     OW48986   1.751   4.507   2.199 -0.3249  0.1097 -0.6679
15365SOL    HW148987   1.795   4.424   2.218  0.2816  0.7023  0.6232
15365SOL    HW248988   1.705   4.491   2.116  1.5540 -0.8344 -1.5969
15366SOL     OW48989   7.477   2.102   1.073  0.3879 -0.5743  0.4228
15366SOL    HW148990   7.538   2.167   1.107 -2.1249  2.1499  0.0224
15366SOL    HW248991   7.518   2.071   0.992  1.7249  0.3596  0.7098
15367SOL     OW48992   1.003   3.215   5.936  0.2764 -0.5655  0.5510
15367SOL    HW148993   0.939   3.149   5.910 -0.0148  0.2594 -0.9411
15367SOL    HW248994   1.078   3.165   5.968 -0.6286 -1.5719  1.1524
15368SOL     OW48995   4.413   5.207   3.890 -0.4856  0.0015 -0.3611
15368SOL    HW148996   4.440   5.133   3.835  1.9042 -0.0337  0.7241
15368SOL    HW248997   4.319   5.214   3.876 -0.3449 -1.4793 -2.6178
15369SOL     OW48998   2.838   8.250   7.649 -0.3540  0.2028  0.2287
15369SOL    HW148999   2.743   8.258   7.652 -0.5020 -1.6050  1.3095
15369SOL    HW249000   2.854   8.157   7.635  1.2626  0.7539 -2.2558
15370SOL     OW49001   1.114   6.953   1.651  0.4330  0.5220  0.3162
15370SOL    HW149002   1.198   6.927   1.690  0.3371 -0.5405 -0.1385
15370SOL    HW249003   1.128   6.944   1.557 -0.3948 -0.3763  0.2611
15371SOL     OW49004   2.031   4.704   1.882 -0.3675 -0.0889 -0.7073
15371SOL    HW149005   2.038   4.690   1.976 -1.1420 -1.3067 -0.7999
15371SOL    HW249006   1.938   4.722   1.868 -0.4036 -0.6991 -1.3115
15372SOL     OW49007   8.516   8.025   4.426 -0.5864 -0.4266 -0.1183
15372SOL    HW149008   8.505   8.024   4.331  0.6345 -0.3887 -0.2754
15372SOL    HW249009   8.502   7.934   4.452 -1.0780 -0.4082 -0.3109
15373SOL     OW49010   8.957   2.890   0.660 -0.1854 -0.1831  0.4917
15373SOL    HW149011   9.053   2.895   0.665 -0.1444  0.1309 -0.3820
15373SOL    HW249012   8.936   2.803   0.694  0.2982  0.2494  1.9622
15374SOL     OW49013   6.754   6.292   2.000 -0.2049  0.2002  0.2924
15374SOL    HW149014   6.804   6.364   1.962  0.6532 -0.2968  0.4595
15374SOL    HW249015   6.684   6.336   2.049  0.4541  0.9300  0.6090
15375SOL     OW49016   5.854   4.190   3.043 -0.3025  1.0494 -0.0058
15375SOL    HW149017   5.797   4.150   3.109  0.0707  1.1676  0.3934
15375SOL    HW249018   5.794   4.224   2.977 -0.6325 -2.2210 -1.6157
15376SOL     OW49019   7.244   3.677   6.836 -0.3368  0.2039 -0.0284
15376SOL    HW149020   7.266   3.586   6.856 -2.7483 -0.7538 -1.2236
15376SOL    HW249021   7.214   3.674   6.745 -1.0052  2.0841  0.1034
15377SOL     OW49022   6.109   7.337   1.892  0.1967  0.5425 -0.6351
15377SOL    HW149023   6.121   7.382   1.808 -1.0300  0.5754 -0.8146
15377SOL    HW249024   6.198   7.317   1.922  0.7196  1.9872 -1.1498
15378SOL     OW49025   5.703   0.019   5.437  0.1425 -1.1205 -0.3944
15378SOL    HW149026   5.790  -0.003   5.403 -0.4523  0.1395 -3.0160
15378SOL    HW249027   5.651   0.036   5.359 -3.1522 -3.9818  0.9419
15379SOL     OW49028   8.819   1.618   6.287  0.4365  0.1173  0.0205
15379SOL    HW149029   8.809   1.652   6.198  1.1310  1.5676  0.4551
15379SOL    HW249030   8.744   1.560   6.299  0.4916 -0.3479 -1.6001
15380SOL     OW49031   8.067   1.185   0.313  0.4574 -0.1050  0.1964
15380SOL    HW149032   8.113   1.152   0.235  0.6377 -1.3874  0.8189
15380SOL    HW249033   8.108   1.270   0.329  0.6123  0.0613 -0.9397
15381SOL     OW49034   6.603   4.164   9.160  0.4638 -0.4344  0.3819
15381SOL    HW149035   6.679   4.139   9.212  0.0628 -1.9105  0.3054
15381SOL    HW249036   6.542   4.091   9.170 -0.0202 -0.3180 -1.3927
15382SOL     OW49037   0.544   1.194   8.701  0.1982 -0.0948  0.1099
15382SOL    HW149038   0.550   1.178   8.607 -2.6177  0.0453 -0.1837
15382SOL    HW249039   0.487   1.124   8.733 -0.6470  1.1014  1.3005
15383SOL     OW49040   0.724   3.922   5.128 -0.5909  0.2266 -0.1435
15383SOL    HW149041   0.713   4.016   5.111  1.8124  0.5633 -0.1093
15383SOL    HW249042   0.736   3.884   5.041  2.0404  0.5428  0.0020
15384SOL     OW49043   8.119   3.860   1.422  0.1922  0.5624  0.1149
15384SOL    HW149044   8.084   3.890   1.506 -0.9914  0.7469 -0.4211
15384SOL    HW249045   8.144   3.769   1.437 -1.7951 -0.0119  0.2028
15385SOL     OW49046   4.962   7.599   1.222 -0.5495  0.6470 -0.3090
15385SOL    HW149047   4.942   7.612   1.130  0.1908  1.4675 -0.3676
15385SOL    HW249048   5.050   7.636   1.233 -0.3252 -0.1047  0.5636
15386SOL     OW49049   8.627   1.192   2.245 -0.0323 -0.2697 -0.4956
15386SOL    HW149050   8.660   1.164   2.331  1.1653  0.5284 -0.6654
15386SOL    HW249051   8.649   1.121   2.186  0.2719 -0.2770 -0.3747
15387SOL     OW49052   7.396   2.107   5.883 -0.5042  0.0271  0.2155
15387SOL    HW149053   7.481   2.148   5.867 -0.5414  0.0424  0.0519
15387SOL    HW249054   7.334   2.180   5.882 -0.4169  0.1281  1.2073
15388SOL     OW49055   2.472   4.535   5.426 -0.2620 -0.4063 -0.0415
15388SOL    HW149056   2.420   4.513   5.349 -1.4419 -0.6152  0.7885
15388SOL    HW249057   2.411   4.578   5.485  0.6633 -0.0982  0.7276
15389SOL     OW49058   1.743   5.537   0.529 -0.7529 -0.3784 -0.3627
15389SOL    HW149059   1.671   5.600   0.524  0.7359  1.3485 -1.0443
15389SOL    HW249060   1.776   5.545   0.619 -0.2470  0.2106 -0.5940
15390SOL     OW49061   4.725   7.330   0.111 -0.7899 -0.1257 -0.0488
15390SOL    HW149062   4.809   7.294   0.084 -1.1608 -0.8647 -0.2441
15390SOL    HW249063   4.746   7.417   0.145  0.1312 -0.5462  0.4935
15391SOL     OW49064   3.715   9.215   8.600  0.6071  0.2521  0.0880
15391SOL    HW149065   3.692   9.183   8.688 -0.4256  2.9881  0.9363
15391SOL    HW249066   3.771   9.147   8.563 -0.7887 -2.0787  1.9526
15392SOL     OW49067   1.012   5.415   5.474  0.2949  0.0967 -0.1239
15392SOL    HW149068   0.942   5.461   5.521  1.6356  2.6321 -0.4744
15392SOL    HW249069   1.008   5.325   5.508 -2.9247  0.1873  0.0337
15393SOL     OW49070   5.701   7.976   0.629 -0.6726 -0.8262 -0.0717
15393SOL    HW149071   5.649   7.903   0.662 -0.6787 -0.7172  0.1660
15393SOL    HW249072   5.643   8.052   0.635 -0.1454 -0.4943  1.2424
15394SOL     OW49073   6.990   7.174   6.256 -0.3321 -0.7145 -0.8359
15394SOL    HW149074   7.054   7.227   6.304 -0.3747 -1.9755  0.6646
15394SOL    HW249075   6.938   7.239   6.206 -1.4327  0.8856  2.1415
15395SOL     OW49076   3.378   1.551   6.761 -0.0259 -0.2092  0.0205
15395SOL    HW149077   3.472   1.565   6.750 -0.0228 -0.9833 -1.1491
15395SOL    HW249078   3.353   1.608   6.834  1.0792  1.0820 -0.5652
15396SOL     OW49079   8.545   8.074   4.934  0.1445  0.3935 -0.5760
15396SOL    HW149080   8.566   8.091   5.025 -0.0645  2.0612 -0.8119
15396SOL    HW249081   8.479   8.004   4.938  0.1628  0.4205  0.5389
15397SOL     OW49082   8.113   8.651   0.916 -0.1766  0.1858  0.1781
15397SOL    HW149083   8.174   8.710   0.874  0.4203 -0.3543  0.2710
15397SOL    HW249084   8.101   8.580   0.853 -0.5055  0.1556  0.2704
15398SOL     OW49085   1.952   8.461   2.614 -0.1232 -0.3434 -0.4286
15398SOL    HW149086   1.913   8.494   2.694 -0.5834  0.0571 -0.8112
15398SOL    HW249087   1.944   8.533   2.552  0.6823 -0.4691 -0.6891
15399SOL     OW49088   4.328   5.232   7.464 -0.0655  0.0488  0.1673
15399SOL    HW149089   4.391   5.199   7.529  0.7954  0.3496 -0.4855
15399SOL    HW249090   4.279   5.300   7.510  1.0852  0.8266  0.2998
15400SOL     OW49091   1.113   6.936   4.367 -0.1404  0.1297 -0.4440
15400SOL    HW149092   1.184   6.988   4.404 -0.9872  0.1607  1.2029
15400SOL    HW249093   1.041   6.998   4.355 -0.0410  0.0277 -1.7894
15401SOL     OW49094   2.331   1.398   5.974 -0.0808  0.1350 -0.9628
15401SOL    HW149095   2.342   1.489   5.949  1.2874  0.3508  0.2818
15401SOL    HW249096   2.379   1.389   6.056  1.0809 -2.0502 -1.7878
15402SOL     OW49097   7.969   8.043   4.401  0.0184  0.1428  0.2624
15402SOL    HW149098   7.949   7.983   4.329  2.5401  0.6169 -0.9418
15402SOL    HW249099   7.926   8.125   4.376  0.2980  0.1006 -0.3984
15403SOL     OW49100   1.636   3.715   3.228  0.1756  0.3423 -0.1652
15403SOL    HW149101   1.610   3.744   3.141  1.5361 -3.7129 -2.1640
15403SOL    HW249102   1.562   3.662   3.259  0.1163  0.9318  0.7554
15404SOL     OW49103   6.840   3.782   1.475  0.3158  0.5059  0.3520
15404SOL    HW149104   6.850   3.744   1.563 -1.2635 -2.4907 -0.6403
15404SOL    HW249105   6.761   3.836   1.482 -1.3858 -1.8154  0.2506
15405SOL     OW49106   1.685   0.126   3.914 -0.2351 -0.2537  0.1617
15405SOL    HW149107   1.708   0.195   3.851 -0.1852 -0.5356 -0.1271
15405SOL    HW249108   1.692   0.169   4.000  2.0504 -0.4990  0.1563
15406SOL     OW49109   8.259   1.523   1.500  0.8437  0.5379 -0.2816
15406SOL    HW149110   8.195   1.456   1.478  0.8246  0.4368  0.0717
15406SOL    HW249111   8.317   1.527   1.424  0.7036  0.2879 -0.4016
15407SOL     OW49112   0.819   3.590   7.862 -0.0384 -0.0724  0.3342
15407SOL    HW149113   0.902   3.610   7.818  0.4527  0.2800  1.3997
15407SOL    HW249114   0.842   3.578   7.954 -0.9281 -1.5882  0.4027
15408SOL     OW49115   2.838   0.820   2.294  0.1174  0.2470  0.6401
15408SOL    HW149116   2.862   0.869   2.373 -0.6367  1.0857  0.3720
15408SOL    HW249117   2.865   0.731   2.312  0.3374  0.5105  1.6876
15409SOL     OW49118   7.283   8.637   2.161 -0.3396  0.0351 -0.0447
15409SOL    HW149119   7.208   8.584   2.186  1.1013 -1.2658  1.7761
15409SOL    HW249120   7.308   8.682   2.241  0.9387  0.2936 -0.5646
15410SOL     OW49121   7.431   4.920   5.182 -0.2489 -0.2085  0.2460
15410SOL    HW149122   7.408   4.827   5.183  1.7195 -0.7432  1.5323
15410SOL    HW249123   7.393   4.953   5.101 -1.3155 -2.0314 -0.0594
15411SOL     OW49124   4.267   4.107   6.151  0.2860  0.0119 -0.7648
15411SOL    HW149125   4.276   4.156   6.233 -0.8513 -0.0837 -0.5746
15411SOL    HW249126   4.214   4.031   6.175  1.5737 -1.0531 -1.1706
15412SOL     OW49127   8.436   4.429   9.034 -0.1371  0.4221 -0.1357
15412SOL    HW149128   8.460   4.472   8.952 -1.0805  0.4260 -0.4156
15412SOL    HW249129   8.349   4.462   9.055 -0.8181 -1.1686 -0.2636
15413SOL     OW49130   8.714   5.344   2.864 -0.0885 -0.2697 -0.0134
15413SOL    HW149131   8.788   5.304   2.818 -1.4254 -2.1656 -0.6388
15413SOL    HW249132   8.733   5.438   2.863  0.6464 -0.3574 -3.1725
15414SOL     OW49133   7.997   3.642   0.388  0.0564 -0.8305 -0.3639
15414SOL    HW149134   8.020   3.565   0.440  1.3303 -0.0074  0.3542
15414SOL    HW249135   8.081   3.673   0.353 -0.4979 -0.0798 -1.0792
15415SOL     OW49136   8.661   2.851   5.972 -0.5325 -0.0245  0.2373
15415SOL    HW149137   8.603   2.873   5.899 -1.1653  0.4960  0.8760
15415SOL    HW249138   8.737   2.908   5.960 -0.3415 -0.3965 -0.3608
15416SOL     OW49139   0.448   8.131   4.126  0.2974  0.2537 -0.3989
15416SOL    HW149140   0.392   8.186   4.181  0.4485  0.7887 -0.7708
15416SOL    HW249141   0.442   8.171   4.039 -1.7153 -1.8721 -1.3353
15417SOL     OW49142   8.358   0.772   8.219  0.1510  0.2504  0.0559
15417SOL    HW149143   8.359   0.707   8.148 -0.8897  0.6820 -0.3741
15417SOL    HW249144   8.407   0.731   8.290  0.3174 -0.6174 -0.5431
15418SOL     OW49145   1.277   6.034   4.738  0.2218 -0.2931  0.6959
15418SOL    HW149146   1.315   6.027   4.651 -0.1667 -0.7108  0.5551
15418SOL    HW249147   1.271   5.944   4.769 -0.3354 -0.2116  0.8447
15419SOL     OW49148   1.568   5.564   1.700 -0.0111 -0.0821  0.0201
15419SOL    HW149149   1.585   5.615   1.779  0.9541 -0.4069  0.0470
15419SOL    HW249150   1.473   5.556   1.695 -0.0472 -1.0077  1.7547
15420SOL     OW49151   9.263   0.447   6.987 -0.4758  0.2891 -0.0314
15420SOL    HW149152   9.248   0.470   7.079  0.2294 -1.6857  0.6391
15420SOL    HW249153   9.273   0.530   6.942 -0.2921  1.2894  1.7847
15421SOL     OW49154   4.911   7.439   8.562 -0.5091 -0.3509  0.1230
15421SOL    HW149155   4.898   7.532   8.579  0.6285 -0.4743  2.0503
15421SOL    HW249156   4.823   7.402   8.564 -0.9734  0.6633 -0.6111
15422SOL     OW49157   7.217   3.090   0.170  0.1149 -0.2585 -0.8184
15422SOL    HW149158   7.132   3.055   0.197 -0.2248 -0.9320 -2.6455
15422SOL    HW249159   7.253   3.024   0.112  1.9071  0.0435 -0.1130
15423SOL     OW49160   3.564   0.954   8.451  0.0668 -0.3131  0.2427
15423SOL    HW149161   3.581   0.890   8.521 -1.9366  0.3164  1.3880
15423SOL    HW249162   3.474   0.936   8.423  0.0347  0.9511 -0.5548
15424SOL     OW49163   0.279   5.704   5.559  0.3311  0.1229  0.2185
15424SOL    HW149164   0.230   5.622   5.569 -0.4147  0.6231  0.8309
15424SOL    HW249165   0.233   5.766   5.616  1.8820  0.5274  1.0889
15425SOL     OW49166   2.435   6.584   2.422  0.1929 -0.4023  0.0314
15425SOL    HW149167   2.476   6.624   2.498  1.5932  0.8306 -1.2853
15425SOL    HW249168   2.363   6.643   2.399 -2.5883 -2.6000  2.3816
15426SOL     OW49169   8.764   4.752   2.001  0.6098  0.2984  0.5264
15426SOL    HW149170   8.766   4.835   1.953  2.0559  0.3505  0.6434
15426SOL    HW249171   8.684   4.757   2.054 -0.8669  0.3719 -1.5808
15427SOL     OW49172   2.558   7.119   1.748  0.2970  0.0083 -0.2930
15427SOL    HW149173   2.605   7.083   1.822 -0.0192  0.5157  0.1678
15427SOL    HW249174   2.485   7.058   1.734 -0.0240  0.2567  0.2453
15428SOL     OW49175   1.719   6.703   8.132  0.2646  0.3508  0.4830
15428SOL    HW149176   1.669   6.739   8.205  0.6287  2.3899 -0.1957
15428SOL    HW249177   1.653   6.668   8.072 -0.2922  1.7761  0.2244
15429SOL     OW49178   1.874   4.976   4.504  0.8518  0.8369 -0.0469
15429SOL    HW149179   1.816   4.954   4.577  1.0192  0.0798 -0.1328
15429SOL    HW249180   1.957   5.001   4.545  1.5264 -1.2871  0.0172
15430SOL     OW49181   8.997   1.882   3.649  0.0158  0.4999 -0.3431
15430SOL    HW149182   8.976   1.882   3.556 -0.1064  2.1182 -0.3426
15430SOL    HW249183   8.913   1.862   3.692 -0.1401  0.6949 -0.5540
15431SOL     OW49184   4.468   5.973   7.049 -0.4634 -0.3767  0.0166
15431SOL    HW149185   4.555   5.941   7.028 -1.0229 -0.0857 -3.3488
15431SOL    HW249186   4.411   5.931   6.984 -2.0881  2.7676 -0.8022
15432SOL     OW49187   6.314   7.858   5.668 -0.3784  0.3087 -0.1913
15432SOL    HW149188   6.229   7.886   5.636 -0.0797 -1.3869 -2.7655
15432SOL    HW249189   6.299   7.833   5.759 -2.1882  1.7351 -0.0526
15433SOL     OW49190   3.589   6.045   8.168 -0.0443 -0.4543 -0.0690
15433SOL    HW149191   3.547   6.123   8.133 -0.1944 -1.4665 -2.2867
15433SOL    HW249192   3.680   6.071   8.181 -0.2036  0.2291 -0.3001
15434SOL     OW49193   5.888   6.820   6.018  0.8546  0.2856 -0.7785
15434SOL    HW149194   5.814   6.768   6.048  1.5673  0.6357  1.8477
15434SOL    HW249195   5.906   6.788   5.930 -0.9141 -1.4327 -0.5865
15435SOL     OW49196   1.042   0.485   3.638  0.3935 -0.2820  0.2048
15435SOL    HW149197   1.126   0.502   3.595  0.5935 -0.0570  0.6827
15435SOL    HW249198   1.059   0.409   3.694  0.0981 -0.6567 -0.2042
15436SOL     OW49199   5.612   0.441   0.404 -0.3761 -0.5688 -0.2565
15436SOL    HW149200   5.638   0.476   0.490 -0.6896 -0.3935 -0.2289
15436SOL    HW249201   5.518   0.458   0.400  0.0367  1.7745 -1.7104
15437SOL     OW49202   6.032   6.413   3.204  0.4408  0.1392 -0.3948
15437SOL    HW149203   6.092   6.461   3.261 -0.8990 -1.6255  2.8192
15437SOL    HW249204   5.979   6.481   3.162  1.6342  1.5642  0.3119
15438SOL     OW49205   9.015   4.452   7.742  0.2167  0.0932 -0.6268
15438SOL    HW149206   9.045   4.361   7.742 -0.5439 -0.2069 -2.6736
15438SOL    HW249207   9.048   4.488   7.660 -0.4321  1.3281 -0.3617
15439SOL     OW49208   6.396   6.428   6.995 -0.2386  0.3961 -0.7559
15439SOL    HW149209   6.318   6.482   7.000  0.8798  2.2164 -1.9218
15439SOL    HW249210   6.468   6.487   7.016  0.8125 -1.4841  1.4413
15440SOL     OW49211   7.164   4.961   6.359 -0.1469 -0.5851 -0.6464
15440SOL    HW149212   7.127   5.035   6.312  0.0806  0.0239  0.0984
15440SOL    HW249213   7.089   4.913   6.393 -0.2900 -0.4441 -0.7651
15441SOL     OW49214   7.635   5.011   6.346  0.7011 -0.0354 -0.1870
15441SOL    HW149215   7.658   5.049   6.430  0.6071  0.3272 -0.3239
15441SOL    HW249216   7.705   4.948   6.328  0.7387 -0.0878  0.1439
15442SOL     OW49217   4.588   6.611   8.699  0.0465 -0.1136  0.1346
15442SOL    HW149218   4.592   6.516   8.706 -0.8835 -0.3470 -1.7501
15442SOL    HW249219   4.579   6.642   8.789 -1.4633 -1.9267  0.6717
15443SOL     OW49220   9.120   7.445   6.630  0.1635  0.2491 -0.6479
15443SOL    HW149221   9.210   7.479   6.634  0.7182 -1.2282  0.1906
15443SOL    HW249222   9.097   7.451   6.538  0.5294  2.0470 -0.6748
15444SOL     OW49223   7.922   3.100   2.952  0.3138 -0.2151 -0.4632
15444SOL    HW149224   8.012   3.068   2.950 -0.2745 -1.8658 -1.8610
15444SOL    HW249225   7.877   3.044   3.015  0.1256  0.2425 -0.1825
15445SOL     OW49226   6.315   7.716   3.366 -0.1269  0.3413 -0.6922
15445SOL    HW149227   6.267   7.685   3.442  2.7307  0.7908  1.4679
15445SOL    HW249228   6.390   7.763   3.403  1.9937 -0.3291 -3.7818
15446SOL     OW49229   2.300   2.422   8.713 -0.0187 -0.1444  0.2389
15446SOL    HW149230   2.331   2.333   8.726  0.5912  0.0114 -0.1280
15446SOL    HW249231   2.347   2.454   8.637  0.5266  0.8332  0.9595
15447SOL     OW49232   3.164   5.021   0.959  0.2945 -0.3004 -0.2717
15447SOL    HW149233   3.113   4.960   0.906  0.4478 -1.1550  0.5322
15447SOL    HW249234   3.125   5.014   1.047  1.7711 -0.9821  0.3656
15448SOL     OW49235   9.096   3.343   6.319  0.3385  0.2861 -0.1101
15448SOL    HW149236   9.181   3.387   6.318  0.7768 -0.5389 -1.4406
15448SOL    HW249237   9.118   3.251   6.333 -0.5616  0.4027  2.7386
15449SOL     OW49238   3.684   7.797   0.048  0.6868  0.3703 -0.3866
15449SOL    HW149239   3.770   7.756   0.035 -0.0482 -0.5319 -3.1293
15449SOL    HW249240   3.693   7.885   0.014  0.5151  0.2347 -0.7929
15450SOL     OW49241   6.950   4.677   1.537 -0.1819 -0.1404 -0.7827
15450SOL    HW149242   6.948   4.739   1.610  3.2075  1.2590 -1.7060
15450SOL    HW249243   7.034   4.632   1.545 -1.0849 -2.2182 -2.0976
15451SOL     OW49244   4.024   5.926   1.678 -0.6226  0.2160  0.1583
15451SOL    HW149245   3.936   5.895   1.657 -0.8506  1.6208 -1.0409
15451SOL    HW249246   4.074   5.845   1.693 -1.6327 -0.6791 -1.0878
15452SOL     OW49247   2.041   1.413   1.519  0.2619  0.3595  0.1749
15452SOL    HW149248   2.016   1.328   1.557  0.2124  1.0537  1.7689
15452SOL    HW249249   2.116   1.392   1.463  0.5238 -0.6828  0.8753
15453SOL     OW49250   2.220   3.500   0.629 -0.3403  0.0691  0.0897
15453SOL    HW149251   2.285   3.565   0.658  0.5829 -0.8635  0.1584
15453SOL    HW249252   2.145   3.515   0.686  0.7748 -0.5128  1.8006
15454SOL     OW49253   2.263   2.728   0.444  0.2226 -0.4714 -0.4088
15454SOL    HW149254   2.291   2.656   0.499  0.6190  0.2913  0.4081
15454SOL    HW249255   2.175   2.749   0.475  1.2659  1.4146  1.5170
15455SOL     OW49256   7.838   8.778   4.203 -0.1025  0.7202 -0.0405
15455SOL    HW149257   7.832   8.858   4.253  0.8907  0.7485  0.0638
15455SOL    HW249258   7.748   8.750   4.189 -0.4058  0.9967  1.2908
15456SOL     OW49259   7.563   2.627   6.128 -0.1841  0.0018 -0.1369
15456SOL    HW149260   7.583   2.721   6.134  0.3105 -0.0109 -1.2439
15456SOL    HW249261   7.478   2.617   6.171  0.1435  0.8215  0.7113
15457SOL     OW49262   3.503   0.140   3.350  0.7647  0.0750  0.2696
15457SOL    HW149263   3.496   0.152   3.255  0.4490  0.9171  0.3974
15457SOL    HW249264   3.566   0.068   3.360 -0.0316 -0.7695 -0.6044
15458SOL     OW49265   1.549   6.444   1.461 -0.2072  0.1307  0.5983
15458SOL    HW149266   1.614   6.503   1.498  0.5547 -0.5888  0.4330
15458SOL    HW249267   1.551   6.461   1.367 -0.8420  0.6735  0.6761
15459SOL     OW49268   4.888   8.082   8.912 -0.3871  0.1626  0.9509
15459SOL    HW149269   4.946   8.123   8.848 -3.3868  0.6373 -1.6727
15459SOL    HW249270   4.810   8.137   8.913 -2.4122 -2.5283  1.2960
15460SOL     OW49271   2.030   0.840   8.870  0.1141  0.4053 -0.0588
15460SOL    HW149272   1.940   0.809   8.867 -0.6372  2.1841  1.5829
15460SOL    HW249273   2.028   0.925   8.824  1.0202  0.3274 -0.2638
15461SOL     OW49274   2.137   5.384   6.358 -0.1970  0.6838  0.2930
15461SOL    HW149275   2.059   5.413   6.405  0.7097  0.1591  2.2235
15461SOL    HW249276   2.196   5.352   6.427  0.7555 -1.2275 -1.3198
15462SOL     OW49277   5.032   3.475   7.100 -0.2610  0.2781 -0.5716
15462SOL    HW149278   5.106   3.534   7.082  0.1529 -0.3339 -0.9036
15462SOL    HW249279   5.017   3.484   7.194  0.5485  0.0503 -0.4114
15463SOL     OW49280   1.441   8.007   1.012  0.1074  0.2868 -0.4847
15463SOL    HW149281   1.405   7.956   1.085 -0.0198 -0.5448 -1.1110
15463SOL    HW249282   1.365   8.052   0.975 -0.0905 -0.4831 -1.0315
15464SOL     OW49283   9.189   2.266   2.723  0.5005 -0.9350 -0.2797
15464SOL    HW149284   9.163   2.174   2.730  0.6591 -0.9714 -0.1691
15464SOL    HW249285   9.241   2.270   2.642 -1.1095 -0.5655 -1.3468
15465SOL     OW49286   1.883   4.072   4.148 -0.1710 -0.3920  0.1959
15465SOL    HW149287   1.788   4.060   4.156 -0.0863 -1.0367  0.3211
15465SOL    HW249288   1.903   4.052   4.057 -0.2120  0.1913  0.0547
15466SOL     OW49289   3.178   5.344   2.387  0.2746 -0.0600  0.5615
15466SOL    HW149290   3.208   5.435   2.377  0.0840 -0.0290  0.2649
15466SOL    HW249291   3.125   5.327   2.309  2.4572 -1.2785 -0.7653
15467SOL     OW49292   1.908   1.544   2.971  0.5136 -0.2110  0.0658
15467SOL    HW149293   1.995   1.571   2.942  0.2797  2.0710  1.3018
15467SOL    HW249294   1.894   1.459   2.929  3.0689 -0.3473 -0.6389
15468SOL     OW49295   3.147   0.247   8.447 -0.1620  1.0960 -0.0318
15468SOL    HW149296   3.237   0.270   8.424 -0.3281  0.5342 -1.2926
15468SOL    HW249297   3.155   0.200   8.530  0.6385  1.5258  0.1484
15469SOL     OW49298   4.643   8.923   3.421 -0.4932  0.1072  0.2815
15469SOL    HW149299   4.566   8.970   3.453 -1.8364 -1.8786  0.1613
15469SOL    HW249300   4.616   8.831   3.418  1.0748 -0.3802 -2.1341
15470SOL     OW49301   6.401   3.371   5.734  0.1446  0.4427 -0.7130
15470SOL    HW149302   6.414   3.464   5.713  0.4968  0.7610  0.7460
15470SOL    HW249303   6.487   3.341   5.762  0.1819 -0.5271 -1.8183
15471SOL     OW49304   1.923   4.105   7.077  0.3665  0.5827 -0.1297
15471SOL    HW149305   1.871   4.093   7.157 -0.5329  2.0441 -0.4548
15471SOL    HW249306   1.888   4.040   7.016 -0.7958  1.2346 -0.1888
15472SOL     OW49307   7.929   7.113   9.028  0.1347 -0.0560  0.1102
15472SOL    HW149308   7.882   7.033   9.054 -0.3541  0.1996  0.0102
15472SOL    HW249309   7.990   7.129   9.100 -0.5105  0.0812  0.6312
15473SOL     OW49310   7.973   0.128   4.989 -0.5142  0.2383  0.0223
15473SOL    HW149311   7.998   0.083   4.908 -0.6527  0.8900 -0.3898
15473SOL    HW249312   8.056   0.143   5.034 -0.4013  0.1678 -0.1604
15474SOL     OW49313   0.450   2.016   7.918 -0.2323  0.4247  0.5231
15474SOL    HW149314   0.521   2.043   7.859 -1.0600 -1.2159 -1.3435
15474SOL    HW249315   0.397   2.095   7.929  0.0277  0.8182 -0.8385
15475SOL     OW49316   4.732   2.280   8.753 -0.2312  0.2451  0.3506
15475SOL    HW149317   4.767   2.208   8.700 -2.6930 -2.0279  1.5880
15475SOL    HW249318   4.766   2.264   8.841 -1.9578 -0.3441  0.9521
15476SOL     OW49319   5.882   4.567   6.688 -0.4139 -0.1938  0.0748
15476SOL    HW149320   5.820   4.497   6.666 -0.4697 -0.5616  1.3198
15476SOL    HW249321   5.852   4.643   6.638 -0.4408 -1.0070 -1.1843
15477SOL     OW49322   1.411   8.429   3.451  0.1347 -0.4772  0.0821
15477SOL    HW149323   1.334   8.468   3.410 -1.1460  1.0303  3.4888
15477SOL    HW249324   1.393   8.335   3.452 -0.8587 -0.3042 -0.6692
15478SOL     OW49325   4.146   5.517   3.603 -0.1256  0.3100 -0.1998
15478SOL    HW149326   4.203   5.452   3.563  1.3093  0.8707  0.8842
15478SOL    HW249327   4.123   5.576   3.531  0.3160 -0.1621 -0.7356
15479SOL     OW49328   3.327   2.571   7.881  0.4110 -0.0908  0.3061
15479SOL    HW149329   3.417   2.556   7.908  0.2282  0.6155  1.3527
15479SOL    HW249330   3.334   2.621   7.800  0.9715  1.2507  1.1616
15480SOL     OW49331   4.741   1.794   1.736  0.4913 -0.2857 -0.5522
15480SOL    HW149332   4.789   1.759   1.660 -0.5928  0.2815 -1.5411
15480SOL    HW249333   4.750   1.727   1.803 -0.5216 -1.9912 -1.9913
15481SOL     OW49334   5.890   7.563   8.163  0.2191 -0.4204 -0.1044
15481SOL    HW149335   5.957   7.495   8.163 -0.0504 -0.6970 -0.5108
15481SOL    HW249336   5.918   7.625   8.230  0.4293 -0.9729  0.3306
15482SOL     OW49337   1.317   8.465   2.089 -0.3351 -0.1105  0.8895
15482SOL    HW149338   1.404   8.440   2.121 -0.4078 -0.1660  1.0414
15482SOL    HW249339   1.285   8.386   2.045 -0.1914 -0.0005  0.5869
15483SOL     OW49340   6.038   8.063   3.681 -0.1388 -0.0279 -0.0014
15483SOL    HW149341   6.027   8.043   3.774  1.3179  0.5794  0.3204
15483SOL    HW249342   5.971   8.128   3.663 -0.0362  0.3013  0.7788
15484SOL     OW49343   3.210   7.893   0.703 -0.0756 -0.8751 -0.2538
15484SOL    HW149344   3.231   7.813   0.654 -0.1017 -1.1363  0.1530
15484SOL    HW249345   3.212   7.963   0.637 -1.4392 -1.3996 -0.9007
15485SOL     OW49346   7.960   8.791   6.353  1.0888  0.4036 -0.0104
15485SOL    HW149347   8.025   8.853   6.320  1.0763  1.5613  1.9821
15485SOL    HW249348   7.904   8.843   6.410 -0.4968 -0.9560 -0.2600
15486SOL     OW49349   4.214   6.339   5.753 -0.1427 -0.3878  0.1419
15486SOL    HW149350   4.216   6.262   5.810 -1.1935 -1.0165 -0.6061
15486SOL    HW249351   4.120   6.357   5.741  0.0203 -0.4748 -1.5913
15487SOL     OW49352   5.917   1.694   6.091 -0.1832 -0.0040  0.1511
15487SOL    HW149353   5.890   1.738   6.010 -1.7168 -1.7896 -0.3883
15487SOL    HW249354   5.973   1.622   6.061 -0.2277 -0.2823  0.7313
15488SOL     OW49355   1.896   1.743   1.842 -0.0612  0.6281 -0.3023
15488SOL    HW149356   1.815   1.787   1.869  0.2461 -0.7861  3.5379
15488SOL    HW249357   1.962   1.777   1.902  1.2833 -1.2234 -0.6536
15489SOL     OW49358   0.829   5.534   2.384  0.6318  0.1669  0.0099
15489SOL    HW149359   0.769   5.468   2.419 -1.4448  0.4468 -2.7005
15489SOL    HW249360   0.858   5.583   2.460 -0.3665 -1.7727  1.7332
15490SOL     OW49361   4.218   7.946   8.096 -0.2589 -0.1314 -0.1028
15490SOL    HW149362   4.306   7.980   8.116  0.3601 -1.1304 -1.0224
15490SOL    HW249363   4.196   7.984   8.011 -0.7041  0.0739  0.1002
15491SOL     OW49364   3.691   2.836   7.094 -0.4173 -0.6355 -0.2241
15491SOL    HW149365   3.664   2.767   7.155 -0.7357 -1.9405 -1.7719
15491SOL    HW249366   3.628   2.830   7.022 -0.7635  1.6450 -0.1745
15492SOL     OW49367   3.568   8.592   7.559  0.0775 -0.0661 -0.0617
15492SOL    HW149368   3.613   8.586   7.475  0.9163 -0.1143  0.3750
15492SOL    HW249369   3.493   8.650   7.542  0.3973  0.1605 -0.7691
15493SOL     OW49370   6.659   2.917   7.954  0.6140 -0.5386  0.4321
15493SOL    HW149371   6.589   2.874   7.905 -0.1860  0.1158  0.9887
15493SOL    HW249372   6.620   2.942   8.037  1.0356  1.2740  0.1352
15494SOL     OW49373   2.379   1.570   2.282  0.1953 -0.6215  0.4409
15494SOL    HW149374   2.300   1.615   2.312  0.7892  0.9505 -0.2688
15494SOL    HW249375   2.384   1.492   2.337 -1.0104  0.0409  1.5416
15495SOL     OW49376   8.519   0.708   2.861  0.4466  0.5762  0.2507
15495SOL    HW149377   8.506   0.614   2.852  1.0226  0.5010  0.1386
15495SOL    HW249378   8.611   0.722   2.838  0.5245  1.0906  0.8328
15496SOL     OW49379   2.871   4.940   8.880 -0.0184 -0.2196  0.0983
15496SOL    HW149380   2.964   4.918   8.893  0.1783 -0.0737 -0.9462
15496SOL    HW249381   2.825   4.888   8.946  0.8584  0.2341  1.0934
15497SOL     OW49382   7.523   4.636   7.104 -0.2036  0.3461 -0.3452
15497SOL    HW149383   7.480   4.557   7.137 -0.1648 -0.3660 -1.9195
15497SOL    HW249384   7.595   4.603   7.050  1.3317  1.5069  0.9046
15498SOL     OW49385   8.787   8.324   5.009 -0.0368  0.5940  0.4506
15498SOL    HW149386   8.810   8.368   4.927 -0.9658 -0.5514 -0.4646
15498SOL    HW249387   8.794   8.231   4.989 -1.4108  0.2730  1.3323
15499SOL     OW49388   2.216   2.860   3.320 -0.0624  0.5351  0.0450
15499SOL    HW149389   2.125   2.832   3.307 -0.1638  0.7508  0.2871
15499SOL    HW249390   2.255   2.856   3.232 -0.3440  0.5791 -0.0839
15500SOL     OW49391   7.996   7.330   5.782 -0.2220 -0.6987 -0.9823
15500SOL    HW149392   7.908   7.337   5.820  0.2523 -0.7456  0.1538
15500SOL    HW249393   8.037   7.259   5.830  1.4357  1.1827  0.5600
15501SOL     OW49394   4.030   8.388   3.706 -0.2643 -0.1677 -0.1877
15501SOL    HW149395   4.074   8.436   3.637 -0.8494 -3.2966 -2.9899
15501SOL    HW249396   3.967   8.332   3.661 -1.1977 -1.9126  2.9478
15502SOL     OW49397   4.661   4.172   7.443  0.0541 -0.0129 -0.1510
15502SOL    HW149398   4.568   4.150   7.449  0.2872 -0.8758  0.8887
15502SOL    HW249399   4.671   4.250   7.497  0.3903 -1.7130  2.4498
15503SOL     OW49400   5.217   1.138   5.719 -0.0624 -0.0493 -0.1539
15503SOL    HW149401   5.278   1.146   5.792 -0.2726 -0.3858  0.0596
15503SOL    HW249402   5.142   1.191   5.743  0.2603  0.6054 -0.5479
15504SOL     OW49403   3.484   1.942   0.312  0.0617  0.4677  0.3714
15504SOL    HW149404   3.512   1.853   0.333  1.3102  0.7659  0.0741
15504SOL    HW249405   3.401   1.931   0.265 -0.6046 -0.4298  1.7108
15505SOL     OW49406   3.442   7.878   4.004 -0.5709  0.2787 -0.0209
15505SOL    HW149407   3.399   7.877   4.089 -1.7747 -0.1741 -0.6026
15505SOL    HW249408   3.448   7.786   3.979  0.4592  0.3580 -0.1054
15506SOL     OW49409   6.818   5.108   2.756  0.2522  0.2818 -0.0426
15506SOL    HW149410   6.829   5.022   2.796  0.1960  0.7884  1.1264
15506SOL    HW249411   6.724   5.123   2.754  0.2657  0.3589 -0.1303
15507SOL     OW49412   2.903   4.716   8.628 -0.2605  0.3423 -0.1212
15507SOL    HW149413   2.881   4.763   8.548 -0.5621  1.4354  0.5732
15507SOL    HW249414   2.988   4.752   8.654  0.3348 -0.7562 -0.4891
15508SOL     OW49415   1.014   6.303   6.033  0.1805  0.3541  0.8124
15508SOL    HW149416   1.035   6.334   5.945 -0.8424  1.0367  0.7934
15508SOL    HW249417   0.920   6.285   6.030  0.2642 -0.2526  1.5806
15509SOL     OW49418   0.569   8.914   1.056 -0.3396 -0.3689  0.1734
15509SOL    HW149419   0.525   8.973   1.117  0.1096  1.1120 -0.8836
15509SOL    HW249420   0.533   8.828   1.076 -2.5725  0.5471  0.3925
15510SOL     OW49421   0.264   0.287   3.249  0.5034 -0.2610 -0.4710
15510SOL    HW149422   0.212   0.209   3.269  2.1169 -1.0763  0.7944
15510SOL    HW249423   0.350   0.270   3.289  1.1061  1.9109 -0.6937
15511SOL     OW49424   1.862   0.312   1.591 -0.5259  0.5968 -0.4228
15511SOL    HW149425   1.799   0.377   1.623 -0.4242  1.1735 -1.3720
15511SOL    HW249426   1.825   0.282   1.508 -1.4646 -1.8587  0.7823
15512SOL     OW49427   1.584   2.155   2.285  0.3336  0.3572  0.5877
15512SOL    HW149428   1.629   2.070   2.276 -0.5804  0.0326 -1.4986
15512SOL    HW249429   1.653   2.215   2.313  1.0901 -0.9664  1.7373
15513SOL     OW49430   1.442   7.272   6.263 -0.3700  0.5193  0.0976
15513SOL    HW149431   1.359   7.266   6.215 -0.3513 -0.2770  0.1458
15513SOL    HW249432   1.509   7.278   6.195 -0.2974 -1.2013 -0.0241
15514SOL     OW49433   5.979   4.996   8.639 -0.1884  0.2666 -0.0685
15514SOL    HW149434   5.975   5.092   8.628  0.2214  0.1712 -1.2746
15514SOL    HW249435   6.063   4.972   8.599 -0.9264 -0.7371 -1.0845
15515SOL     OW49436   4.072   3.833   2.298  0.1582 -0.3990  0.2622
15515SOL    HW149437   4.018   3.824   2.220  0.4010 -2.1255  0.2600
15515SOL    HW249438   4.036   3.769   2.360 -1.4089  2.3510  2.4485
15516SOL     OW49439   7.875   4.532   5.428  0.0718  0.2454 -0.2015
15516SOL    HW149440   7.874   4.521   5.333 -0.2321 -0.3177 -0.1343
15516SOL    HW249441   7.966   4.517   5.453  0.4022  1.5865 -0.5360
15517SOL     OW49442   0.564   5.897   2.034 -0.5751  0.4642 -0.0433
15517SOL    HW149443   0.580   5.973   1.979  0.5211 -0.4055 -0.9640
15517SOL    HW249444   0.511   5.839   1.980 -1.0347  0.3726  0.4922
15518SOL     OW49445   5.323   5.579   6.257 -0.4640 -0.5037  0.5219
15518SOL    HW149446   5.228   5.581   6.268 -0.3963  0.0845  1.0795
15518SOL    HW249447   5.341   5.645   6.190 -0.3278  0.4886  1.5087
15519SOL     OW49448   5.744   3.757   7.232  0.2880 -0.0858 -0.1265
15519SOL    HW149449   5.834   3.726   7.244 -1.0900 -5.7521 -1.5067
15519SOL    HW249450   5.714   3.778   7.321  2.1388 -0.9427  0.7666
15520SOL     OW49451   8.100   1.329   8.337  0.3041  0.4131  0.2879
15520SOL    HW149452   8.169   1.333   8.272 -1.2270  0.1958 -1.4465
15520SOL    HW249453   8.101   1.415   8.379  3.1699 -0.3762  2.0792
15521SOL     OW49454   2.780   5.813   4.797  0.0453 -0.1793 -0.6299
15521SOL    HW149455   2.839   5.795   4.725  0.2835  0.7912 -0.6905
15521SOL    HW249456   2.699   5.767   4.774 -0.1976  0.8655 -1.9756
15522SOL     OW49457   4.098   7.638   8.549  0.3374  0.0838 -0.0233
15522SOL    HW149458   4.171   7.595   8.505  0.2538  0.5048 -0.5975
15522SOL    HW249459   4.089   7.592   8.632 -0.0256 -1.2944 -0.7956
15523SOL     OW49460   6.577   6.281   5.728  0.5104  0.2011  0.5865
15523SOL    HW149461   6.512   6.265   5.659 -0.1150 -1.3009  1.4787
15523SOL    HW249462   6.606   6.371   5.713 -0.8708  0.4902 -0.5858
15524SOL     OW49463   4.830   2.243   4.526 -0.0237 -0.1435  0.4897
15524SOL    HW149464   4.764   2.183   4.560  0.2927  0.5918  2.4967
15524SOL    HW249465   4.780   2.322   4.503  0.0699  0.2892  1.6941
15525SOL     OW49466   8.496   1.777   5.680 -0.1365 -0.3130 -0.5122
15525SOL    HW149467   8.504   1.856   5.734  0.6722 -1.2648  0.8302
15525SOL    HW249468   8.527   1.804   5.593 -1.8508  1.3619 -0.6700
15526SOL     OW49469   8.514   9.092   8.974 -0.2257 -0.0388 -0.3874
15526SOL    HW149470   8.480   9.173   9.012 -1.7643 -0.4214 -0.9111
15526SOL    HW249471   8.496   9.100   8.881  1.2594 -0.2149 -0.7185
15527SOL     OW49472   1.244   2.549   2.537  0.0260 -0.0342 -0.7898
15527SOL    HW149473   1.330   2.508   2.547  1.0096  2.2023  0.5202
15527SOL    HW249474   1.200   2.495   2.470  2.1604 -1.6219 -1.0304
15528SOL     OW49475   0.682   0.919   8.119  0.2246 -0.2965  0.4744
15528SOL    HW149476   0.743   0.916   8.046 -0.0403 -1.5679  0.2812
15528SOL    HW249477   0.734   0.894   8.195  0.5963  1.4138  0.8260
15529SOL     OW49478   4.165   6.246   8.057 -0.1285  0.3847  0.2856
15529SOL    HW149479   4.177   6.165   8.107  0.6769  0.5551  0.3913
15529SOL    HW249480   4.181   6.220   7.966 -2.1043 -0.0332  0.0273
15530SOL     OW49481   7.226   6.431   3.652  0.1481 -0.3887 -0.7703
15530SOL    HW149482   7.245   6.399   3.740 -1.8691 -0.9079 -0.4698
15530SOL    HW249483   7.234   6.527   3.659  0.3058 -0.4447 -0.0918
15531SOL     OW49484   8.218   0.976   5.425  0.3389 -1.1864 -0.3834
15531SOL    HW149485   8.238   1.050   5.483 -0.2047 -1.2704 -0.0782
15531SOL    HW249486   8.158   1.012   5.360 -0.2562 -1.4452  0.0084
15532SOL     OW49487   8.575   6.416   4.125 -0.3902 -0.1732  0.0803
15532SOL    HW149488   8.611   6.446   4.208 -0.1238 -0.2255 -0.0113
15532SOL    HW249489   8.603   6.324   4.119  0.0641 -0.0179 -0.3117
15533SOL     OW49490   8.137   9.026   7.700 -0.6205 -0.0202  0.0729
15533SOL    HW149491   8.216   9.063   7.661 -0.6267  0.6170  0.6382
15533SOL    HW249492   8.169   8.955   7.755 -0.5072 -0.2025 -0.2259
15534SOL     OW49493   9.044   7.582   4.206 -0.7089 -0.5384 -0.3082
15534SOL    HW149494   8.977   7.523   4.240 -1.1573  0.1745  0.0731
15534SOL    HW249495   9.082   7.622   4.284 -0.0012 -0.7532 -0.5339
15535SOL     OW49496   2.888   7.958   7.613 -0.2498 -0.3041 -0.5541
15535SOL    HW149497   2.978   7.948   7.644  0.4540  0.8824 -2.0747
15535SOL    HW249498   2.844   7.879   7.642  1.3395 -1.0263  0.0248
15536SOL     OW49499   5.970   2.265   4.187  0.5495  0.3215  0.3520
15536SOL    HW149500   6.040   2.319   4.151  1.5794 -1.6319 -0.7559
15536SOL    HW249501   6.006   2.230   4.269  0.7508 -0.3547 -0.0119
15537SOL     OW49502   4.566   6.448   8.976  0.2663 -0.1717  0.2545
15537SOL    HW149503   4.573   6.542   8.960 -0.5214 -0.0232  0.6798
15537SOL    HW249504   4.528   6.442   9.064 -0.7721 -0.8558 -0.2150
15538SOL     OW49505   1.147   8.077   7.669  0.1591  0.7086 -0.6654
15538SOL    HW149506   1.212   8.017   7.704 -0.1997  0.5901 -0.1963
15538SOL    HW249507   1.177   8.096   7.580  0.2849 -0.1563 -0.8117
15539SOL     OW49508   6.536   1.956   6.526 -0.3818  0.0911 -0.2274
15539SOL    HW149509   6.564   1.989   6.612  0.4889 -0.3663 -0.3243
15539SOL    HW249510   6.593   1.881   6.510 -1.8600 -1.0604 -0.3220
15540SOL     OW49511   7.771   1.340   4.809  0.4247  0.0979  0.3066
15540SOL    HW149512   7.826   1.272   4.849 -1.0177 -1.3278 -0.0066
15540SOL    HW249513   7.771   1.412   4.872  1.8122 -0.2779  0.7657
15541SOL     OW49514   6.393   5.941   8.007 -0.2430 -0.1849 -0.0200
15541SOL    HW149515   6.384   5.849   7.983  2.6457 -0.5629  0.0716
15541SOL    HW249516   6.345   5.989   7.939 -1.0493 -1.6866 -0.5533
15542SOL     OW49517   4.984   5.738   6.905  0.0495 -0.2862  0.2722
15542SOL    HW149518   5.067   5.707   6.941 -0.7648 -1.7401  0.9809
15542SOL    HW249519   4.918   5.705   6.966 -1.0805  0.4972 -0.4960
15543SOL     OW49520   8.443   2.047   4.067  0.5701  0.0745 -0.0870
15543SOL    HW149521   8.431   2.096   4.148 -0.3326 -2.8648  1.7518
15543SOL    HW249522   8.533   2.016   4.070  0.3916 -0.4468  0.0821
15544SOL     OW49523   7.251   6.843   2.394 -0.5775 -0.5716 -0.1659
15544SOL    HW149524   7.234   6.826   2.302 -0.3621 -0.7052 -0.1817
15544SOL    HW249525   7.234   6.937   2.405 -0.5011 -0.5336 -0.3650
15545SOL     OW49526   0.627   2.390   0.555  0.4468 -0.6084 -0.6764
15545SOL    HW149527   0.645   2.311   0.606 -0.6640 -1.0460 -0.9293
15545SOL    HW249528   0.569   2.361   0.485 -2.4259  0.8848  0.8816
15546SOL     OW49529   7.191   1.220   7.662  0.4772 -0.3096 -0.1698
15546SOL    HW149530   7.228   1.284   7.601  0.3814  1.2268  1.3115
15546SOL    HW249531   7.260   1.207   7.728  0.5738 -1.9174 -0.5521
15547SOL     OW49532   8.984   1.792   0.164 -0.5003 -0.2903 -0.3485
15547SOL    HW149533   9.000   1.709   0.210  0.1139  0.4708  0.8517
15547SOL    HW249534   9.038   1.786   0.085  1.3463 -0.1197  0.8489
15548SOL     OW49535   3.856   8.555   8.774 -0.0035 -0.0503 -0.5481
15548SOL    HW149536   3.898   8.641   8.774 -0.2235  0.0583 -0.6814
15548SOL    HW249537   3.915   8.499   8.723  0.2443 -0.0350 -0.2873
15549SOL     OW49538   4.198   6.484   5.478  0.0071  0.1413 -0.0082
15549SOL    HW149539   4.178   6.577   5.481  0.8864  0.3833 -1.1320
15549SOL    HW249540   4.219   6.461   5.568 -0.2886  1.0069  0.2909
15550SOL     OW49541   3.231   3.920   0.098  0.0588 -0.1992  0.3574
15550SOL    HW149542   3.279   3.998   0.128  0.2811 -0.1575 -0.0957
15550SOL    HW249543   3.210   3.939   0.007  0.2593 -0.7392  0.1967
15551SOL     OW49544   0.304   3.727   4.560 -0.4010  0.0758 -0.0270
15551SOL    HW149545   0.286   3.721   4.654  0.3328 -0.6056  0.0757
15551SOL    HW249546   0.262   3.650   4.522  1.4251 -1.0175  0.0884
15552SOL     OW49547   6.435   1.382   1.276  0.0778  0.5056  0.0095
15552SOL    HW149548   6.448   1.424   1.361 -1.2248  2.0491 -0.5034
15552SOL    HW249549   6.492   1.305   1.278 -0.3118  0.2075  2.4667
15553SOL     OW49550   7.359   0.675   7.120 -0.6520  0.7033 -0.6143
15553SOL    HW149551   7.329   0.766   7.127 -1.6050  0.4814 -1.4333
15553SOL    HW249552   7.279   0.624   7.132 -0.4536  0.0432 -1.9064
15554SOL     OW49553   3.118   2.908   3.602  0.1251 -0.6564  0.1539
15554SOL    HW149554   3.122   2.923   3.697  1.2830 -1.2979  0.2264
15554SOL    HW249555   3.171   2.978   3.564  1.8383 -1.8617  0.1925
15555SOL     OW49556   1.407   3.107   3.576  0.0863 -0.3601 -0.3912
15555SOL    HW149557   1.337   3.046   3.553 -1.2356  0.2980  1.6114
15555SOL    HW249558   1.363   3.191   3.590  1.3965  0.2724  0.1249
15556SOL     OW49559   7.581   6.891   4.891 -0.6189  0.6053 -0.1233
15556SOL    HW149560   7.558   6.866   4.980 -0.0480  1.0209  0.1479
15556SOL    HW249561   7.592   6.808   4.845  0.0442  0.3586  0.4520
15557SOL     OW49562   1.702   0.547   4.705 -0.1294  0.1153 -0.5609
15557SOL    HW149563   1.635   0.523   4.769 -0.4213  0.5852 -0.6843
15557SOL    HW249564   1.769   0.479   4.713 -0.9053 -0.6954 -0.8590
15558SOL     OW49565   1.039   6.801   3.143 -0.6988 -0.1257  0.0811
15558SOL    HW149566   1.012   6.822   3.233  0.2174 -1.4483  0.6837
15558SOL    HW249567   1.019   6.881   3.094 -2.1305  0.2898  1.2453
15559SOL     OW49568   1.518   1.306   4.132 -0.2336 -0.1300 -0.3260
15559SOL    HW149569   1.433   1.293   4.174 -0.0761 -1.4146 -0.3675
15559SOL    HW249570   1.518   1.244   4.059 -0.0813  1.3223 -1.6047
15560SOL     OW49571   6.499   2.526   1.873 -0.2085 -0.3165 -0.3145
15560SOL    HW149572   6.491   2.555   1.964  2.1055  0.9240 -0.4358
15560SOL    HW249573   6.431   2.459   1.864 -0.9914  0.0289  2.0946
15561SOL     OW49574   7.522   8.966   4.694  0.4150 -0.2473  0.0830
15561SOL    HW149575   7.609   9.005   4.696  0.6289 -0.5710 -1.6375
15561SOL    HW249576   7.534   8.881   4.652 -0.6464 -0.5209  0.2895
15562SOL     OW49577   5.522   5.168   1.650  0.0079 -0.3465  0.3403
15562SOL    HW149578   5.543   5.173   1.743  0.4628  0.8747  0.1856
15562SOL    HW249579   5.453   5.233   1.637 -0.9750 -1.4129  0.0509
15563SOL     OW49580   2.673   5.268   6.143  0.0825 -0.2698  0.1565
15563SOL    HW149581   2.732   5.198   6.172  0.7965  0.8293  1.5081
15563SOL    HW249582   2.725   5.348   6.152 -0.3101  0.3576 -2.4984
15564SOL     OW49583   3.007   5.405   3.245  0.1475  0.6624  0.5535
15564SOL    HW149584   3.063   5.330   3.263 -0.6808 -0.1092  0.0382
15564SOL    HW249585   3.058   5.481   3.273  1.6697  0.0515 -0.4303
15565SOL     OW49586   7.931   0.109   2.271 -0.6465  0.4040 -0.0031
15565SOL    HW149587   7.873   0.184   2.255  0.9222  1.6948  0.0491
15565SOL    HW249588   7.970   0.128   2.357 -0.0827 -0.3884 -0.0747
15566SOL     OW49589   2.432   1.797   1.136  0.0635  0.2831 -0.4805
15566SOL    HW149590   2.400   1.885   1.153 -2.9228 -0.5808 -1.1503
15566SOL    HW249591   2.402   1.746   1.211  0.7126 -0.4315 -0.6897
15567SOL     OW49592   8.190   8.981   1.234  0.4216 -0.0049  0.5228
15567SOL    HW149593   8.095   8.977   1.219  0.3608 -0.4835  1.0131
15567SOL    HW249594   8.228   8.932   1.161  0.1960 -1.2186  1.1944
15568SOL     OW49595   5.029   4.171   9.022  0.0946  0.0561  0.2071
15568SOL    HW149596   5.051   4.151   8.931  0.5312  0.4221  0.2298
15568SOL    HW249597   5.055   4.263   9.033  1.0300 -0.2948  1.0047
15569SOL     OW49598   8.791   6.275   5.344  0.2184  0.2590 -0.4103
15569SOL    HW149599   8.706   6.232   5.340 -0.6439  1.8332  0.2102
15569SOL    HW249600   8.804   6.297   5.436  1.1549  0.3190 -0.5389
15570SOL     OW49601   8.022   3.996   6.817  0.5498 -0.0150  0.2715
15570SOL    HW149602   8.035   3.998   6.722 -0.5002 -1.7965  0.0522
15570SOL    HW249603   7.959   4.066   6.834 -1.1140 -1.2338 -0.6893
15571SOL     OW49604   0.221   2.109   4.733  0.0108  0.7465  0.3593
15571SOL    HW149605   0.210   2.187   4.787 -1.6774  0.2338  0.8154
15571SOL    HW249606   0.141   2.106   4.679  0.7193  0.1183 -0.6923
15572SOL     OW49607   7.828   0.535   1.918  0.2680  0.0578  0.0720
15572SOL    HW149608   7.923   0.547   1.913  0.0960  1.3846 -0.5357
15572SOL    HW249609   7.810   0.461   1.860  0.9042 -0.0071 -0.0471
15573SOL     OW49610   1.261   7.692   0.257  0.8346 -0.0349  0.6228
15573SOL    HW149611   1.240   7.599   0.258  0.0607  0.1282  0.3184
15573SOL    HW249612   1.326   7.701   0.187 -0.7438 -0.0251 -0.9019
15574SOL     OW49613   5.596   0.160   4.920 -0.2844 -0.0037  0.1571
15574SOL    HW149614   5.509   0.132   4.890  0.1426 -1.6300  0.3250
15574SOL    HW249615   5.610   0.245   4.878 -2.6610  1.1564  1.4967
15575SOL     OW49616   5.091   5.080   0.528  0.4186  0.1458 -0.4593
15575SOL    HW149617   5.061   5.064   0.617 -1.2881 -0.7661 -1.1507
15575SOL    HW249618   5.186   5.073   0.533  0.4428  1.1590  1.4650
15576SOL     OW49619   3.218   7.248   4.880  0.4396  0.2655 -0.3159
15576SOL    HW149620   3.219   7.341   4.855 -2.5236  0.4251 -0.2008
15576SOL    HW249621   3.162   7.245   4.958  0.0144 -1.6702 -0.6366
15577SOL     OW49622   4.359   0.453   6.269  0.0808  0.2559 -0.0825
15577SOL    HW149623   4.425   0.523   6.271 -0.2848  0.6443 -1.0600
15577SOL    HW249624   4.386   0.397   6.197  1.7167 -2.0134  2.0977
15578SOL     OW49625   7.036   6.930   7.619 -0.2918  0.6550 -0.0620
15578SOL    HW149626   7.055   7.019   7.649 -1.9400  0.8556  0.5294
15578SOL    HW249627   7.014   6.882   7.699  0.0365 -0.1416 -0.4382
15579SOL     OW49628   0.102   1.081   8.461  0.0301  0.6447  0.3266
15579SOL    HW149629   0.140   1.163   8.493  2.0371  0.2810 -0.9124
15579SOL    HW249630   0.157   1.012   8.500 -0.8058 -0.0579  0.3046
15580SOL     OW49631   1.130   3.338   7.988 -0.3231 -0.2855  0.2025
15580SOL    HW149632   1.147   3.318   7.896 -0.6743  1.1344 -0.1919
15580SOL    HW249633   1.126   3.253   8.030 -1.4290 -1.0285 -1.3168
15581SOL     OW49634   1.312   6.895   5.510 -0.2464  0.1348  0.2038
15581SOL    HW149635   1.222   6.878   5.481 -0.0990 -0.9367  0.3297
15581SOL    HW249636   1.341   6.812   5.547  0.3472  0.8387  1.3847
15582SOL     OW49637   1.777   5.741   0.802 -0.4760  0.2188 -0.1266
15582SOL    HW149638   1.682   5.749   0.815 -0.8370  0.1263 -2.2765
15582SOL    HW249639   1.793   5.647   0.800 -0.8914  0.1284 -2.6963
15583SOL     OW49640   2.072   8.865   1.865  0.1981 -0.8874 -0.6676
15583SOL    HW149641   2.007   8.846   1.798 -0.7655 -0.2724  0.0677
15583SOL    HW249642   2.122   8.783   1.873 -1.2505 -1.7911 -0.4126
15584SOL     OW49643   7.306   8.446   1.394 -0.1628  0.7652  0.1040
15584SOL    HW149644   7.234   8.501   1.426 -0.3917  1.8319 -2.0380
15584SOL    HW249645   7.264   8.363   1.371  0.1824 -0.4485  3.3485
15585SOL     OW49646   2.217   5.246   0.301  0.0125  0.6376 -0.8076
15585SOL    HW149647   2.174   5.188   0.364  0.0617 -0.1126 -1.4458
15585SOL    HW249648   2.207   5.334   0.338 -3.2667  0.6964 -1.5288
15586SOL     OW49649   2.756   4.194   2.543  0.2886  0.3626 -0.1603
15586SOL    HW149650   2.844   4.230   2.551 -0.5752  2.5611 -0.0975
15586SOL    HW249651   2.719   4.236   2.465 -0.7575 -0.4219 -0.1136
15587SOL     OW49652   2.781   1.786   6.937 -0.3537 -0.1646  0.3978
15587SOL    HW149653   2.829   1.730   6.876 -2.5298 -2.0104  0.2663
15587SOL    HW249654   2.796   1.875   6.905 -0.3035 -0.9860 -2.0059
15588SOL     OW49655   4.283   6.930   2.726 -0.2000  1.0612  0.5034
15588SOL    HW149656   4.219   6.994   2.757  0.0452  1.1588  0.8101
15588SOL    HW249657   4.242   6.891   2.649 -0.3704  1.5550  0.3409
15589SOL     OW49658   2.695   7.635   5.199 -0.0377 -0.0553  0.0206
15589SOL    HW149659   2.617   7.615   5.251  0.9378 -1.4754  0.9915
15589SOL    HW249660   2.687   7.729   5.180 -1.2413  0.1449  1.3348
15590SOL     OW49661   2.177   1.711   1.272  0.2839 -0.4656 -0.0346
15590SOL    HW149662   2.120   1.644   1.234 -0.1955 -0.2400  0.2647
15590SOL    HW249663   2.121   1.788   1.280  0.6684 -0.2023  0.1586
15591SOL     OW49664   6.207   4.348   1.964 -0.6104 -0.7023 -0.3236
15591SOL    HW149665   6.165   4.411   2.023 -0.3098 -1.4355  0.6976
15591SOL    HW249666   6.246   4.283   2.022  0.8264 -0.7485 -1.3027
15592SOL     OW49667   1.252   2.839   0.311  0.6918  0.5887 -0.3761
15592SOL    HW149668   1.304   2.850   0.390 -2.3249  1.8375  1.6247
15592SOL    HW249669   1.223   2.747   0.315  0.8825  0.5329 -0.2546
15593SOL     OW49670   2.116   9.036   2.540  0.1217  0.2515 -0.0519
15593SOL    HW149671   2.152   8.985   2.468 -2.2363 -0.8542 -0.5577
15593SOL    HW249672   2.114   8.975   2.614  0.5218  0.7144  0.3462
15594SOL     OW49673   1.715   3.972   0.558 -0.4051 -0.1079 -0.1607
15594SOL    HW149674   1.656   3.986   0.632 -0.4382 -0.1486 -0.1791
15594SOL    HW249675   1.787   3.920   0.595  1.4790  2.9048  0.7644
15595SOL     OW49676   4.625   8.534   7.829 -0.0061  0.8883 -0.6174
15595SOL    HW149677   4.613   8.618   7.874  1.2555  1.5781 -1.5031
15595SOL    HW249678   4.720   8.525   7.820 -0.0817 -0.9652  0.0219
15596SOL     OW49679   0.107   3.227   3.896 -0.4903  0.4041  0.4790
15596SOL    HW149680   0.013   3.207   3.891 -0.6505  1.3578 -0.9290
15596SOL    HW249681   0.115   3.285   3.972 -1.0865  0.4879  0.4832
15597SOL     OW49682   2.561   1.780   8.845 -0.2652 -0.5951  0.7821
15597SOL    HW149683   2.466   1.782   8.832 -0.5717  2.3316  2.4062
15597SOL    HW249684   2.598   1.782   8.757 -1.7249 -1.0794  0.1327
15598SOL     OW49685   7.923   2.268   1.443 -0.2375  0.2596 -0.2460
15598SOL    HW149686   7.860   2.273   1.515  0.5061 -0.2131  0.4601
15598SOL    HW249687   7.953   2.357   1.431 -0.6105  0.3952 -0.1967
15599SOL     OW49688   4.048   1.005   6.646 -0.0936 -0.3660  0.4000
15599SOL    HW149689   4.139   1.029   6.626 -0.5893 -0.1223 -1.8130
15599SOL    HW249690   3.998   1.086   6.632 -0.9477 -1.0781 -0.8486
15600SOL     OW49691   8.487   0.222   8.194 -0.6988 -0.6670 -0.0851
15600SOL    HW149692   8.519   0.292   8.137 -0.8630 -0.1848  0.4083
15600SOL    HW249693   8.548   0.150   8.180 -0.0413 -0.1355  0.0253
15601SOL     OW49694   3.096   7.697   8.864  0.1570 -0.2354 -0.1026
15601SOL    HW149695   3.128   7.615   8.828 -0.0723 -0.4910  0.2648
15601SOL    HW249696   3.170   7.757   8.857  0.2957 -0.4469 -0.4533
15602SOL     OW49697   1.893   4.811   2.172 -0.3234 -0.0360  0.0424
15602SOL    HW149698   1.988   4.801   2.160 -0.4980 -0.6082 -0.9740
15602SOL    HW249699   1.865   4.863   2.096 -0.9916 -0.8596 -0.2783
15603SOL     OW49700   4.105   7.434   4.511 -0.1979 -0.3925 -0.3223
15603SOL    HW149701   4.184   7.407   4.464 -1.3998 -1.7018 -1.7025
15603SOL    HW249702   4.123   7.411   4.602  1.0056 -0.6950 -0.6198
15604SOL     OW49703   7.997   4.653   2.459  0.1694  0.5725 -0.2353
15604SOL    HW149704   8.061   4.583   2.468 -1.4595 -1.2691 -1.7896
15604SOL    HW249705   7.956   4.636   2.373 -1.9227  1.9956  0.4077
15605SOL     OW49706   3.523   8.544   5.367  0.1417  0.2368 -0.0470
15605SOL    HW149707   3.451   8.591   5.409  0.3115 -0.1460  0.6708
15605SOL    HW249708   3.591   8.611   5.355  0.3825  0.1926  0.9730
15606SOL     OW49709   6.607   0.586   4.093 -0.6190 -0.0836  0.0038
15606SOL    HW149710   6.607   0.495   4.120 -0.6468 -0.5683 -1.5526
15606SOL    HW249711   6.640   0.634   4.170  0.7651 -1.5457  0.3681
15607SOL     OW49712   6.186   1.542   0.106  0.0299 -0.3179 -0.1369
15607SOL    HW149713   6.096   1.560   0.079  0.1976  1.7112  0.4569
15607SOL    HW249714   6.224   1.493   0.033 -0.7048  1.4316 -1.7917
15608SOL     OW49715   2.876   3.247   0.474 -0.0725 -0.0828  0.1396
15608SOL    HW149716   2.786   3.214   0.474  0.2733 -1.1157 -1.1397
15608SOL    HW249717   2.910   3.222   0.388  0.8996  1.8038 -0.0826
15609SOL     OW49718   7.604   2.107   3.966  0.3218  0.0469  0.3188
15609SOL    HW149719   7.680   2.056   3.991 -0.6215 -0.7042  1.7868
15609SOL    HW249720   7.606   2.183   4.024  1.5005  1.5739 -1.5879
15610SOL     OW49721   9.263   3.525   4.885  0.3166  0.2431 -0.2784
15610SOL    HW149722   9.239   3.434   4.901  1.1710 -0.0991 -0.8356
15610SOL    HW249723   9.190   3.576   4.919  0.9001 -0.5221  2.3536
15611SOL     OW49724   1.259   2.577   7.603  0.1519  0.4684  0.0758
15611SOL    HW149725   1.171   2.614   7.603 -0.7150 -1.3811 -1.4316
15611SOL    HW249726   1.307   2.628   7.667 -1.5390  2.6546 -0.2731
15612SOL     OW49727   6.122   4.964   0.359 -1.0080  0.1428  0.3966
15612SOL    HW149728   6.082   4.878   0.368  1.9581 -1.3831 -0.0218
15612SOL    HW249729   6.202   4.960   0.412 -0.5728  2.5259  0.0645
15613SOL     OW49730   1.825   5.028   0.079  0.4054 -1.2219 -0.1661
15613SOL    HW149731   1.833   4.944   0.035 -0.0264 -0.5987 -1.5079
15613SOL    HW249732   1.853   5.092   0.013 -3.1248  0.0031 -0.6937
15614SOL     OW49733   3.365   8.387   3.379  0.2210 -0.0651 -0.2019
15614SOL    HW149734   3.413   8.459   3.419 -0.4528  0.1162  0.2916
15614SOL    HW249735   3.289   8.428   3.339 -0.6488 -0.5980  0.8610
15615SOL     OW49736   4.177   1.663   7.252 -0.5233  0.6293 -0.1355
15615SOL    HW149737   4.179   1.571   7.225  4.2036 -0.0275  1.5466
15615SOL    HW249738   4.157   1.661   7.346  0.5456  1.1835  0.1221
15616SOL     OW49739   5.381   4.720   7.560 -0.4310 -0.3791  0.1210
15616SOL    HW149740   5.342   4.797   7.602 -0.3626 -0.6081  0.6064
15616SOL    HW249741   5.417   4.753   7.478  0.7771  0.3657  0.9388
15617SOL     OW49742   1.460   2.622   0.139 -0.2208 -0.0350 -0.1470
15617SOL    HW149743   1.485   2.690   0.076 -0.6387  0.8134  0.5798
15617SOL    HW249744   1.375   2.650   0.173  0.9773  0.7828  2.4540
15618SOL     OW49745   0.645   5.211   1.911 -0.0859  0.6336 -0.0521
15618SOL    HW149746   0.634   5.149   1.982 -0.1427 -0.3733 -0.9186
15618SOL    HW249747   0.739   5.228   1.907 -0.0549  0.4838  0.0837
15619SOL     OW49748   4.235   6.649   3.662  0.4587 -0.2157 -0.6821
15619SOL    HW149749   4.271   6.733   3.633  3.1934 -1.1810 -0.3076
15619SOL    HW249750   4.190   6.615   3.585 -0.2681  1.3233 -0.9878
15620SOL     OW49751   0.675   0.322   0.556  0.4128  0.1439 -0.9142
15620SOL    HW149752   0.766   0.305   0.581 -0.3069 -1.2303  1.0989
15620SOL    HW249753   0.664   0.276   0.473  1.0964 -1.2960 -0.2530
15621SOL     OW49754   8.747   1.235   6.310 -0.1579  0.3928 -0.5567
15621SOL    HW149755   8.803   1.224   6.387  1.9529  1.0429 -1.9012
15621SOL    HW249756   8.694   1.312   6.330  0.5124  0.6834  0.1782
15622SOL     OW49757   7.726   8.778   0.641 -0.1646 -0.4489  0.1978
15622SOL    HW149758   7.693   8.708   0.586  0.2950  0.2387 -0.9851
15622SOL    HW249759   7.684   8.857   0.607  1.9726  0.3316 -0.7995
15623SOL     OW49760   2.671   4.529   7.818 -0.1594  0.2530  0.1870
15623SOL    HW149761   2.607   4.492   7.879 -0.2503  0.0538 -0.0267
15623SOL    HW249762   2.678   4.621   7.843 -0.9887  0.4283 -0.1640
15624SOL     OW49763   9.136   2.298   3.786  0.3344  0.4494  0.1676
15624SOL    HW149764   9.086   2.328   3.710  1.4617 -0.6173 -1.0252
15624SOL    HW249765   9.070   2.285   3.854 -0.9615 -0.3878 -1.1929
15625SOL     OW49766   5.606   2.301   8.668 -0.3459 -0.0808 -0.0965
15625SOL    HW149767   5.586   2.392   8.691 -0.8273 -0.1983 -0.0360
15625SOL    HW249768   5.685   2.307   8.615  1.8601  0.0598  2.9330
15626SOL     OW49769   3.029   2.030   3.414  0.4335 -0.7008  0.6753
15626SOL    HW149770   2.955   1.991   3.367  0.1511 -0.8899  1.2740
15626SOL    HW249771   3.094   1.960   3.418  0.4002 -0.7314  0.6893
15627SOL     OW49772   5.352   8.709   7.732  0.2847 -0.2386  0.2654
15627SOL    HW149773   5.315   8.621   7.745  0.3997 -0.6700 -1.9477
15627SOL    HW249774   5.417   8.697   7.662  1.6246  1.2983  1.1822
15628SOL     OW49775   7.064   3.608   7.791 -0.4591 -0.1118  0.0656
15628SOL    HW149776   7.101   3.683   7.744 -1.4935  1.4393  1.6103
15628SOL    HW249777   7.065   3.537   7.727  2.6339  0.5365 -0.7923
15629SOL     OW49778   8.811   7.663   1.047 -0.0938 -0.7428  0.4408
15629SOL    HW149779   8.723   7.686   1.076 -0.0579  1.5582 -1.0104
15629SOL    HW249780   8.802   7.578   1.005 -1.3532 -1.1138  1.4091
15630SOL     OW49781   7.875   7.843   6.348 -0.1098  0.4892  0.0468
15630SOL    HW149782   7.798   7.881   6.390 -0.5882  0.5401 -0.8637
15630SOL    HW249783   7.897   7.904   6.278  1.0266  0.6990  0.5625
15631SOL     OW49784   5.088   5.983   0.521  0.4115 -0.4256 -0.1778
15631SOL    HW149785   5.054   6.067   0.553  2.2186  0.6292 -0.8479
15631SOL    HW249786   5.179   5.981   0.550  0.7521 -1.5905 -1.2213
15632SOL     OW49787   4.414   5.458   7.321 -0.1098  0.1827 -0.6825
15632SOL    HW149788   4.344   5.428   7.379  0.1812  1.5856  0.4396
15632SOL    HW249789   4.494   5.422   7.360 -0.1455 -1.3714 -1.9321
15633SOL     OW49790   4.441   5.367   2.790 -0.4703 -0.5737 -0.2328
15633SOL    HW149791   4.411   5.290   2.741  1.1217 -0.5609 -1.3106
15633SOL    HW249792   4.411   5.441   2.738 -1.5610 -0.4577  0.5383
15634SOL     OW49793   5.244   8.613   1.502  0.2299  0.2201 -0.1413
15634SOL    HW149794   5.308   8.684   1.508  0.0556  0.4327 -0.7401
15634SOL    HW249795   5.295   8.534   1.521  0.1478  0.6069  1.8879
15635SOL     OW49796   5.550   8.624   3.483 -0.1838  0.2277 -0.3191
15635SOL    HW149797   5.611   8.662   3.547  0.3474  2.1737 -1.8993
15635SOL    HW249798   5.602   8.560   3.435 -0.3518 -0.6001  0.5585
15636SOL     OW49799   5.157   7.689   8.610  0.4915  0.7470  0.3561
15636SOL    HW149800   5.137   7.655   8.523  0.1081  1.7618  0.0397
15636SOL    HW249801   5.253   7.697   8.611  0.4755  1.0049 -0.0741
15637SOL     OW49802   4.006   8.390   4.190  0.3261 -0.0137  0.4205
15637SOL    HW149803   4.020   8.481   4.167  1.5062 -0.5648 -1.2697
15637SOL    HW249804   4.094   8.355   4.204  0.0022 -1.2122 -0.3832
15638SOL     OW49805   2.645   6.772   4.067 -0.1557 -0.8457 -0.0728
15638SOL    HW149806   2.618   6.792   3.977 -1.4067 -2.0114  0.0076
15638SOL    HW249807   2.739   6.755   4.060 -0.0331  0.1057 -0.9611
15639SOL     OW49808   1.016   7.361   5.462 -0.1658 -0.1680 -0.5706
15639SOL    HW149809   0.973   7.381   5.545  0.4332  0.3944 -0.3810
15639SOL    HW249810   1.078   7.433   5.450  0.3377 -0.6814 -1.0951
15640SOL     OW49811   2.697   6.626   5.685 -0.0417 -1.0354  0.1473
15640SOL    HW149812   2.714   6.601   5.594 -0.3467  1.2673 -0.6067
15640SOL    HW249813   2.773   6.593   5.733  1.0079 -0.7853 -1.2649
15641SOL     OW49814   2.782   3.971   3.763 -0.1432  0.1123  0.2250
15641SOL    HW149815   2.870   3.989   3.796 -0.0447 -0.3634  0.2392
15641SOL    HW249816   2.724   3.998   3.833 -0.0230  0.7101  0.0960
15642SOL     OW49817   1.456   8.151   2.267 -0.2369 -0.0899 -0.2680
15642SOL    HW149818   1.440   8.107   2.184  1.8371 -0.8466 -0.3168
15642SOL    HW249819   1.414   8.095   2.333 -1.0963  0.0383 -0.6848
15643SOL     OW49820   4.019   6.080   6.053  0.7654  0.1930 -0.3571
15643SOL    HW149821   4.025   5.992   6.089 -2.2068  0.3962  0.9184
15643SOL    HW249822   4.046   6.070   5.962 -0.1791 -2.2268 -0.4599
15644SOL     OW49823   5.759   4.915   7.321 -0.5622  0.1743  0.4319
15644SOL    HW149824   5.776   4.966   7.399 -0.1454  2.0998 -0.8424
15644SOL    HW249825   5.843   4.915   7.274 -0.6644 -1.3632  0.1777
15645SOL     OW49826   9.095   9.054   4.169  0.1269  0.0485  0.7252
15645SOL    HW149827   9.041   9.026   4.095 -0.3792  0.1749  1.0425
15645SOL    HW249828   9.105   8.976   4.223 -0.0216  0.1099  0.8406
15646SOL     OW49829   0.745   0.921   6.915 -0.0920 -0.4302  0.7376
15646SOL    HW149830   0.740   1.017   6.912 -3.9030 -0.2973  3.5802
15646SOL    HW249831   0.695   0.891   6.840 -0.0972 -0.1555  0.6316
15647SOL     OW49832   8.035   3.394   0.485 -0.0670 -0.1969 -0.0149
15647SOL    HW149833   7.956   3.362   0.442  0.4579 -1.0179 -0.3978
15647SOL    HW249834   8.106   3.350   0.440  0.6191  0.5579  0.3084
15648SOL     OW49835   4.287   6.225   5.115 -0.2926 -0.4041 -0.1914
15648SOL    HW149836   4.366   6.201   5.066 -0.4380 -1.3362  0.0128
15648SOL    HW249837   4.223   6.247   5.048  0.0182 -0.0485 -0.3727
15649SOL     OW49838   6.570   1.747   1.631  0.0727 -0.3423 -1.0151
15649SOL    HW149839   6.616   1.800   1.567  2.2936 -3.1980 -2.0000
15649SOL    HW249840   6.557   1.662   1.587  0.7426 -2.0880  1.8956
15650SOL     OW49841   7.768   5.193   0.212 -0.2688 -0.3445 -0.3046
15650SOL    HW149842   7.727   5.191   0.126 -2.1959  0.6031  0.5436
15650SOL    HW249843   7.813   5.278   0.215  1.0363 -0.9791 -0.8680
15651SOL     OW49844   5.368   7.185   2.248 -0.2903  0.0267  0.1255
15651SOL    HW149845   5.452   7.161   2.208  0.4892  0.0695  1.6769
15651SOL    HW249846   5.317   7.222   2.176  0.3364 -1.6471 -1.2538
15652SOL     OW49847   5.290   4.174   7.618 -0.1387  0.0877 -0.0336
15652SOL    HW149848   5.226   4.109   7.590  0.3681 -0.8683  0.9327
15652SOL    HW249849   5.372   4.147   7.577  0.1906 -0.2158  0.8058
15653SOL     OW49850   6.807   6.220   4.350 -0.3844  0.0391  0.1084
15653SOL    HW149851   6.805   6.202   4.444 -0.8809 -0.3862  0.0228
15653SOL    HW249852   6.892   6.263   4.335 -0.7598  1.1084  0.9227
15654SOL     OW49853   6.474   7.962   7.505  0.5242 -0.3546 -0.4175
15654SOL    HW149854   6.475   8.049   7.465 -0.1702 -1.2617 -2.5635
15654SOL    HW249855   6.551   7.961   7.562  1.8831  0.9407 -2.0909
15655SOL     OW49856   4.252   2.429   7.577  0.3708 -0.3436  0.1366
15655SOL    HW149857   4.229   2.338   7.593  0.0911 -0.5820 -1.5397
15655SOL    HW249858   4.179   2.479   7.613 -0.1944 -0.8534 -0.2946
15656SOL     OW49859   2.626   3.761   5.718  0.4907 -0.2828  0.2154
15656SOL    HW149860   2.570   3.737   5.644  1.2479 -1.1697 -0.0902
15656SOL    HW249861   2.675   3.838   5.687 -1.3705  1.2712  0.9123
15657SOL     OW49862   3.802   2.937   8.580  0.4953  0.4767 -0.0790
15657SOL    HW149863   3.855   2.864   8.611 -0.7286 -0.9146 -1.1209
15657SOL    HW249864   3.865   2.996   8.539  1.5165  0.0655  0.8550
15658SOL     OW49865   3.922   4.718   7.683  0.1088  0.1900  0.0732
15658SOL    HW149866   4.013   4.739   7.705  0.7011  1.4565 -3.1289
15658SOL    HW249867   3.928   4.669   7.602 -2.0967  0.4011 -0.2634
15659SOL     OW49868   1.965   6.058   7.521  0.4230  0.1026 -0.0700
15659SOL    HW149869   1.899   6.096   7.463 -0.4549  0.6859  1.2712
15659SOL    HW249870   2.034   6.124   7.526  1.0692 -0.4401 -1.3432
15660SOL     OW49871   8.527   5.636   3.596 -0.0697  0.2791 -0.5001
15660SOL    HW149872   8.553   5.630   3.504  1.6582  1.0169 -0.0997
15660SOL    HW249873   8.597   5.686   3.637 -0.1611 -1.1285  1.4893
15661SOL     OW49874   8.672   0.674   0.838 -0.6233  0.3950  0.6855
15661SOL    HW149875   8.599   0.612   0.829 -0.0321 -0.1406 -0.8242
15661SOL    HW249876   8.741   0.623   0.881 -0.2014  0.0460 -0.3867
15662SOL     OW49877   1.243   7.306   5.136  0.8316 -0.0169 -0.8064
15662SOL    HW149878   1.176   7.323   5.070 -1.7218  3.3035  2.2441
15662SOL    HW249879   1.221   7.220   5.171  0.1950 -0.3598 -1.9936
15663SOL     OW49880   6.317   1.046   5.907 -0.6828  0.3157  0.6720
15663SOL    HW149881   6.384   1.071   5.843  0.0509 -2.3224  0.3249
15663SOL    HW249882   6.240   1.096   5.880  0.1175  0.6518 -1.1692
15664SOL     OW49883   0.871   7.089   6.716 -0.5987 -0.1190 -0.1590
15664SOL    HW149884   0.927   7.094   6.794 -1.2963 -1.5145  0.4719
15664SOL    HW249885   0.818   7.169   6.719  0.5475  0.6597 -0.1418
15665SOL     OW49886   3.935   8.307   2.407  0.4083  0.4989 -0.4111
15665SOL    HW149887   3.880   8.351   2.472 -0.2792  0.1939 -0.7763
15665SOL    HW249888   3.873   8.265   2.348  1.0355 -1.2477  0.1056
15666SOL     OW49889   6.473   1.209   7.255  0.1719 -0.0611 -0.5614
15666SOL    HW149890   6.452   1.295   7.220 -0.0580 -0.0165 -0.3185
15666SOL    HW249891   6.452   1.148   7.184  0.1746  0.0711 -0.6734
15667SOL     OW49892   6.517   6.754   3.906 -0.4495  0.6286  0.0314
15667SOL    HW149893   6.579   6.696   3.862 -1.0565  0.3932 -0.5127
15667SOL    HW249894   6.456   6.782   3.838 -2.1147 -0.6579  0.9143
15668SOL     OW49895   1.872   4.953   3.963 -0.6815  0.0189 -0.4418
15668SOL    HW149896   1.904   4.876   4.009 -0.4063 -0.8035 -1.9386
15668SOL    HW249897   1.779   4.938   3.952 -0.5103 -0.4584 -1.3444
15669SOL     OW49898   7.536   6.334   4.060  0.0388  0.7974 -0.3885
15669SOL    HW149899   7.540   6.428   4.078  1.1359  0.8668 -0.9012
15669SOL    HW249900   7.563   6.325   3.969 -1.7538  0.1126 -0.8960
15670SOL     OW49901   1.320   8.928   8.084 -0.3167  0.0143  0.1633
15670SOL    HW149902   1.386   8.896   8.146 -1.5413 -0.5027  1.2619
15670SOL    HW249903   1.370   8.957   8.008  1.3136  1.2715  1.6300
15671SOL     OW49904   7.893   2.571   7.471  0.2876 -0.3666 -0.1428
15671SOL    HW149905   7.925   2.643   7.417  0.7869 -0.4503  0.0371
15671SOL    HW249906   7.903   2.493   7.416 -1.1257 -0.1966 -0.6931
15672SOL     OW49907   6.276   3.932   3.679  0.2977  0.0050 -0.5147
15672SOL    HW149908   6.360   3.952   3.721  0.2106  0.0955 -0.3804
15672SOL    HW249909   6.298   3.915   3.588  0.5342 -0.5615 -0.3534
15673SOL     OW49910   0.786   7.657   2.978 -0.0939 -0.3177 -0.2248
15673SOL    HW149911   0.836   7.723   2.930 -0.2539 -0.0699 -0.0583
15673SOL    HW249912   0.728   7.708   3.035 -2.5811 -0.4755 -2.4158
15674SOL     OW49913   2.799   1.455   0.156 -0.2749  0.4003  0.1049
15674SOL    HW149914   2.750   1.374   0.170 -1.2870  0.8480 -0.7387
15674SOL    HW249915   2.743   1.508   0.099  2.1762 -0.0020 -2.9294
15675SOL     OW49916   3.807   1.410   1.445  0.2778 -0.3808  0.1105
15675SOL    HW149917   3.791   1.423   1.538 -0.5729  0.7825 -0.1790
15675SOL    HW249918   3.900   1.430   1.433  0.4715 -0.8559  0.7469
15676SOL     OW49919   1.992   2.301   3.479  0.1326 -0.0699 -0.3727
15676SOL    HW149920   1.956   2.343   3.557 -0.3247  0.4459 -0.8561
15676SOL    HW249921   1.997   2.208   3.502 -0.5866 -0.0103  0.0411
15677SOL     OW49922   0.824   3.784   2.012  0.6297  0.4150 -0.3815
15677SOL    HW149923   0.815   3.860   1.953  1.8961 -0.3726 -1.6677
15677SOL    HW249924   0.849   3.822   2.096  1.4142  1.4412 -1.0429
15678SOL     OW49925   2.724   9.114   8.063  0.0653  0.1808 -0.0660
15678SOL    HW149926   2.664   9.094   7.991  0.5523 -0.0893 -0.4023
15678SOL    HW249927   2.793   9.168   8.023 -0.3227  1.0937  0.4666
15679SOL     OW49928   2.800   2.756   0.784  0.1857  0.2463  0.1923
15679SOL    HW149929   2.809   2.817   0.710 -0.9392  0.7801  0.4693
15679SOL    HW249930   2.802   2.669   0.743  0.1009  0.5171 -0.4036
15680SOL     OW49931   8.317   6.548   6.736  0.0902 -0.1597  0.3351
15680SOL    HW149932   8.378   6.488   6.694  1.4296  0.7976  0.8616
15680SOL    HW249933   8.357   6.634   6.728 -0.6275  0.3414  1.6970
15681SOL     OW49934   8.545   7.211   5.795  0.6158  0.1526 -0.2900
15681SOL    HW149935   8.614   7.172   5.850  0.5772  0.2504 -0.1707
15681SOL    HW249936   8.530   7.298   5.834 -0.4206 -0.3272  0.4145
15682SOL     OW49937   1.369   2.720   0.539  0.0014 -0.2518 -0.0555
15682SOL    HW149938   1.389   2.742   0.630  1.6629  0.1444 -0.4792
15682SOL    HW249939   1.453   2.689   0.504 -0.8168 -1.1833 -1.2304
15683SOL     OW49940   0.090   8.057   7.729  0.4451 -0.3837  0.0945
15683SOL    HW149941   0.031   8.093   7.795  1.1091  0.3183  0.3264
15683SOL    HW249942   0.132   7.982   7.772  0.1615 -0.5255  0.1269
15684SOL     OW49943   8.219   0.391   8.306  0.4739 -0.2413  0.6304
15684SOL    HW149944   8.308   0.426   8.295  1.1056 -1.3953  1.7847
15684SOL    HW249945   8.232   0.297   8.320 -0.8371 -0.2675  1.9006
15685SOL     OW49946   8.341   5.734   7.372 -0.5533 -0.5516 -0.6728
15685SOL    HW149947   8.267   5.772   7.420  0.2776  1.7399 -1.0814
15685SOL    HW249948   8.367   5.803   7.310  0.1911 -2.3563 -2.4576
15686SOL     OW49949   0.467   7.524   8.304 -0.3005 -0.1683  0.3948
15686SOL    HW149950   0.432   7.561   8.386 -3.3280  0.7089 -1.1473
15686SOL    HW249951   0.426   7.438   8.297  1.6976 -1.2011  0.8117
15687SOL     OW49952   0.255   7.674   1.044 -0.2035 -0.4803  0.1334
15687SOL    HW149953   0.249   7.731   1.121 -0.5475 -0.5076  0.1247
15687SOL    HW249954   0.349   7.665   1.029 -0.1399 -0.2695  0.3991
15688SOL     OW49955   5.939   3.454   3.883 -0.2373  0.2344 -0.1930
15688SOL    HW149956   5.857   3.416   3.850 -1.0344  1.2574  0.5686
15688SOL    HW249957   5.991   3.378   3.910 -0.5927 -0.4795 -1.3900
15689SOL     OW49958   7.595   4.418   8.895  0.2247  0.3220 -0.3456
15689SOL    HW149959   7.613   4.462   8.811 -0.4639 -0.2435 -0.7969
15689SOL    HW249960   7.504   4.439   8.914 -0.1488 -0.9979 -0.6283
15690SOL     OW49961   6.861   4.404   2.393  0.3272  0.4539  0.0467
15690SOL    HW149962   6.957   4.405   2.389  0.3223  0.6587 -0.0399
15690SOL    HW249963   6.841   4.442   2.479  0.2855  2.2340 -0.7107
15691SOL     OW49964   0.149   3.366   3.092 -0.1998 -0.1324 -0.1275
15691SOL    HW149965   0.088   3.418   3.040 -0.4669 -0.2211  0.0933
15691SOL    HW249966   0.201   3.430   3.141 -1.7466 -0.0872  1.5399
15692SOL     OW49967   8.374   0.394   5.194 -0.9840 -0.6165 -0.6680
15692SOL    HW149968   8.370   0.331   5.266  1.1598  1.8494  1.8455
15692SOL    HW249969   8.454   0.372   5.147 -0.2182  0.1835  0.2291
15693SOL     OW49970   0.106   7.715   4.273 -0.4239 -0.1802 -0.5603
15693SOL    HW149971   0.100   7.724   4.178  0.0211  1.2444 -0.4727
15693SOL    HW249972   0.156   7.635   4.287  0.8968  0.4348 -1.5631
15694SOL     OW49973   1.158   7.707   3.627  0.2641  0.6809 -0.1394
15694SOL    HW149974   1.202   7.784   3.663  1.5580  1.0440 -2.3236
15694SOL    HW249975   1.177   7.637   3.690  0.4752  1.7377  1.0206
15695SOL     OW49976   1.288   3.707   3.085 -0.4424  0.2139 -0.5922
15695SOL    HW149977   1.248   3.779   3.133  2.3142  0.8256  1.0524
15695SOL    HW249978   1.258   3.718   2.995 -2.4447  1.6015  0.1766
15696SOL     OW49979   2.816   4.803   1.484  0.0358  0.2860  0.3145
15696SOL    HW149980   2.896   4.814   1.536 -0.1194  1.7546  0.2708
15696SOL    HW249981   2.847   4.794   1.394  0.1430  1.2728  0.2469
15697SOL     OW49982   7.321   9.153   4.934  0.3425 -0.0211 -0.3306
15697SOL    HW149983   7.293   9.203   5.010 -1.2464 -1.6733  0.2376
15697SOL    HW249984   7.406   9.116   4.959  0.1947  0.0861  0.3347
15698SOL     OW49985   7.988   2.885   8.265  0.9924 -0.3601 -1.0093
15698SOL    HW149986   8.006   2.802   8.309  0.6186  0.8597  1.5886
15698SOL    HW249987   7.898   2.875   8.232  0.5242 -0.5805  0.2980
15699SOL     OW49988   3.921   3.903   5.618 -0.4618  0.5469  0.2280
15699SOL    HW149989   3.974   3.951   5.682  0.8179 -0.3321 -0.1161
15699SOL    HW249990   3.857   3.967   5.587  0.9907  1.9602 -0.0016
15700SOL     OW49991   7.624   1.010   7.033  0.0462  0.2468 -0.5047
15700SOL    HW149992   7.545   1.064   7.045 -1.0326 -1.5344  1.0349
15700SOL    HW249993   7.671   1.019   7.116  0.0835 -0.7818 -0.4055
15701SOL     OW49994   4.336   4.309   1.742  0.2936 -0.1327 -0.6618
15701SOL    HW149995   4.267   4.258   1.700  0.1389  0.1389 -0.7407
15701SOL    HW249996   4.364   4.371   1.674  1.0701 -0.6726 -0.8525
15702SOL     OW49997   7.329   5.805   4.326 -0.1069 -0.8936 -0.1777
15702SOL    HW149998   7.277   5.758   4.392 -2.6118  0.1334 -1.3127
15702SOL    HW249999   7.407   5.833   4.373 -1.3140 -1.1107  2.0832
15703SOL     OW50000   3.003   2.650   5.090 -0.3884  0.2955 -0.3059
15703SOL    HW150001   3.017   2.654   4.995  1.2551 -1.5797 -0.2037
15703SOL    HW250002   3.070   2.707   5.127  1.0242 -1.3753 -0.1912
15704SOL     OW50003   6.012   2.032   0.850  0.2051 -0.4902  0.1712
15704SOL    HW150004   6.101   2.047   0.883 -0.3277  1.6454  0.7644
15704SOL    HW250005   6.010   2.077   0.766 -0.2684 -0.6960  0.0689
15705SOL     OW50006   3.298   3.341   6.239  0.8677 -0.2425  0.2078
15705SOL    HW150007   3.303   3.432   6.209  1.2995 -0.1141  0.6493
15705SOL    HW250008   3.206   3.328   6.262  0.7011 -0.0809 -0.3493
15706SOL     OW50009   1.924   6.444   0.292  0.2348 -0.1787 -0.4311
15706SOL    HW150010   1.929   6.499   0.214  0.2850  0.0986 -0.2339
15706SOL    HW250011   1.987   6.375   0.278  1.2069  0.6100 -0.0572
15707SOL     OW50012   2.240   0.787   0.074  0.0898 -0.1397 -0.5798
15707SOL    HW150013   2.175   0.789   0.004  0.4832 -0.2574 -0.9559
15707SOL    HW250014   2.191   0.811   0.153 -0.0263  1.6467 -1.1489
15708SOL     OW50015   6.632   3.554   4.433  0.2479  0.1224 -0.2584
15708SOL    HW150016   6.696   3.624   4.425  0.1378  0.4726  1.5601
15708SOL    HW250017   6.684   3.474   4.445  0.3506  0.0917 -0.8721
15709SOL     OW50018   6.111   0.588   7.522 -0.0976 -0.0685  0.2696
15709SOL    HW150019   6.066   0.585   7.606 -1.4973 -0.1212 -0.4573
15709SOL    HW250020   6.061   0.529   7.465  1.3167 -0.6912 -0.3775
15710SOL     OW50021   6.161   9.193   6.632  0.3063 -0.0581 -0.1106
15710SOL    HW150022   6.229   9.188   6.699  0.3697  0.3080 -0.1443
15710SOL    HW250023   6.154   9.104   6.598  1.3669  0.0573 -0.6928
15711SOL     OW50024   8.732   0.645   3.707 -0.1909  0.2030  0.2222
15711SOL    HW150025   8.826   0.627   3.698 -0.1703 -0.3578  1.4541
15711SOL    HW250026   8.690   0.560   3.692 -0.4576  0.2878  0.4990
15712SOL     OW50027   6.967   4.122   6.523 -0.1812 -0.1701  0.0729
15712SOL    HW150028   6.992   4.212   6.505 -1.1716 -0.2724 -2.0567
15712SOL    HW250029   6.891   4.129   6.580  1.0405  0.2386  1.7464
15713SOL     OW50030   6.288   3.017   1.986 -0.6516 -0.4951 -0.2349
15713SOL    HW150031   6.285   3.084   1.918  0.1197  1.2099  1.3168
15713SOL    HW250032   6.229   3.049   2.055  0.4959 -0.8909  0.9749
15714SOL     OW50033   8.423   7.767   7.984  0.4543  0.1469 -0.0918
15714SOL    HW150034   8.387   7.809   7.906  1.3336  0.7048 -0.2040
15714SOL    HW250035   8.509   7.735   7.957 -0.6465 -2.9109 -0.4006
15715SOL     OW50036   4.582   7.451   5.500  0.1150 -0.1656 -0.1646
15715SOL    HW150037   4.510   7.484   5.445 -0.6187 -0.2610  0.7042
15715SOL    HW250038   4.655   7.441   5.440  0.1978  2.4139 -0.6316
15716SOL     OW50039   8.717   5.795   2.976  0.1816 -0.4903  0.7746
15716SOL    HW150040   8.679   5.793   3.064 -0.6103 -0.6810  0.4336
15716SOL    HW250041   8.776   5.871   2.978 -1.2794  0.6895  0.8944
15717SOL     OW50042   2.369   5.845   1.971 -0.0662 -0.4836  0.3707
15717SOL    HW150043   2.321   5.762   1.966 -0.6633 -0.2308  1.4392
15717SOL    HW250044   2.408   5.844   2.059  0.0806  0.2818  0.3175
15718SOL     OW50045   3.047   3.565   5.209 -1.2620 -0.4690  0.4279
15718SOL    HW150046   3.096   3.596   5.286 -1.6522 -0.1306  0.5433
15718SOL    HW250047   3.041   3.642   5.153 -1.9034 -0.4370  0.5405
15719SOL     OW50048   1.810   8.858   8.825 -0.0307 -0.3379  0.0787
15719SOL    HW150049   1.853   8.776   8.848  0.3581 -0.4616 -1.0582
15719SOL    HW250050   1.839   8.877   8.736  0.6975  1.5630  0.6698
15720SOL     OW50051   7.533   2.842   3.211 -0.5921 -0.3188 -0.2926
15720SOL    HW150052   7.564   2.820   3.124  0.9318  1.0801 -0.1368
15720SOL    HW250053   7.536   2.759   3.259  0.3278 -0.7488 -1.0651
15721SOL     OW50054   1.909   7.556   2.027  0.3210  0.0132  0.4584
15721SOL    HW150055   1.996   7.578   2.060  1.2284 -1.9892 -0.4417
15721SOL    HW250056   1.926   7.511   1.944 -1.5673 -0.5979  0.3665
15722SOL     OW50057   4.902   0.362   8.076  0.0699 -0.1513 -0.2544
15722SOL    HW150058   4.864   0.402   7.997  1.0832  0.7280 -0.3270
15722SOL    HW250059   4.842   0.291   8.099 -1.8498  1.4700 -0.0707
15723SOL     OW50060   5.395   8.229   7.714 -0.4287  0.6769 -0.3272
15723SOL    HW150061   5.418   8.240   7.621  1.2444 -0.1789 -0.0484
15723SOL    HW250062   5.364   8.138   7.720 -0.9970  0.8788 -0.1143
15724SOL     OW50063   1.916   1.642   9.224  0.1264 -0.1135  0.3635
15724SOL    HW150064   1.955   1.615   9.140  3.2661  0.6813  1.4341
15724SOL    HW250065   1.901   1.560   9.271 -0.1010 -0.4786 -0.3324
15725SOL     OW50066   4.680   6.741   6.764  0.4251  0.2041  0.6082
15725SOL    HW150067   4.756   6.788   6.800  1.2380 -0.1032 -0.6309
15725SOL    HW250068   4.692   6.651   6.793 -0.2851  0.4373  1.6620
15726SOL     OW50069   6.215   2.774   8.851  0.3255 -0.4277 -0.4069
15726SOL    HW150070   6.298   2.726   8.854 -0.2824 -1.4461  1.5066
15726SOL    HW250071   6.165   2.731   8.781  1.1389 -0.2044 -1.1499
15727SOL     OW50072   2.047   4.450   8.697  0.0921 -0.1239  0.1546
15727SOL    HW150073   2.095   4.531   8.680  0.7748 -0.8280 -1.4465
15727SOL    HW250074   2.044   4.444   8.793  1.8627  0.7390  0.3008
15728SOL     OW50075   8.935   8.321   3.080  0.1601 -0.3374 -0.2181
15728SOL    HW150076   8.944   8.338   3.174 -1.4388 -0.4851 -0.0140
15728SOL    HW250077   8.908   8.230   3.075  0.5074 -0.4082 -0.8515
15729SOL     OW50078   4.235   5.091   0.889 -0.1217 -0.6843  0.0350
15729SOL    HW150079   4.189   5.174   0.874  0.4053 -0.1768  1.0862
15729SOL    HW250080   4.218   5.070   0.981 -0.8884 -2.1708 -0.4136
15730SOL     OW50081   1.625   4.443   5.782  0.1334 -0.4842 -0.3008
15730SOL    HW150082   1.687   4.369   5.786  0.1337 -0.5724 -1.6090
15730SOL    HW250083   1.539   4.402   5.776 -0.0427 -0.3588  1.0230
15731SOL     OW50084   8.538   0.956   2.638 -0.0896 -0.8326  0.4697
15731SOL    HW150085   8.530   0.876   2.587 -1.8744  0.5215 -1.5576
15731SOL    HW250086   8.503   1.025   2.581 -0.7048  1.0548  2.9300
15732SOL     OW50087   1.733   2.378   1.331  0.2460 -0.1972  0.0801
15732SOL    HW150088   1.696   2.298   1.294 -0.0931 -0.3183  0.6621
15732SOL    HW250089   1.682   2.449   1.292  1.4537 -0.1534 -1.5150
15733SOL     OW50090   0.089   4.410   3.565  0.2050 -0.2088  0.7076
15733SOL    HW150091  -0.007   4.414   3.561  0.1982 -0.3385  0.7215
15733SOL    HW250092   0.109   4.317   3.555  0.4939  0.0922 -2.5295
15734SOL     OW50093   1.582   1.112   3.580 -0.0440  0.2756  0.1880
15734SOL    HW150094   1.657   1.129   3.637  0.5120 -0.0424 -0.4290
15734SOL    HW250095   1.615   1.130   3.492 -1.0582  1.3213  0.0016
15735SOL     OW50096   5.145   6.324   2.382  0.3105 -0.8251  0.1903
15735SOL    HW150097   5.234   6.309   2.415  0.1091 -0.0127  1.1685
15735SOL    HW250098   5.143   6.282   2.296  0.9644 -2.7727  1.0683
15736SOL     OW50099   3.781   0.972   8.902 -0.1096 -0.3033 -0.5822
15736SOL    HW150100   3.719   0.899   8.896 -0.7408  0.1296  0.4590
15736SOL    HW250101   3.814   0.983   8.813 -1.3592 -0.7041 -1.1121
15737SOL     OW50102   4.411   2.733   0.470  0.2191  0.5227  0.6417
15737SOL    HW150103   4.392   2.639   0.463  0.1451  0.6108 -0.7277
15737SOL    HW250104   4.453   2.755   0.387  0.5964  1.6303  1.1056
15738SOL     OW50105   3.207   6.743   2.582  0.1349 -0.1591 -0.0580
15738SOL    HW150106   3.130   6.778   2.627  0.5409 -0.0739  0.5843
15738SOL    HW250107   3.281   6.793   2.617  0.3069  1.0986 -2.0691
15739SOL     OW50108   8.484   7.026   5.291 -0.0255  0.6021 -0.5063
15739SOL    HW150109   8.448   7.115   5.300 -1.5967  0.1000 -1.4059
15739SOL    HW250110   8.493   6.995   5.381  0.9020  1.7778 -0.1581
15740SOL     OW50111   5.409   6.729   6.715  0.3996 -1.0264  0.2289
15740SOL    HW150112   5.404   6.743   6.620  0.9786  3.0261  0.6010
15740SOL    HW250113   5.318   6.728   6.744  0.2438 -1.0052 -0.2409
15741SOL     OW50114   3.591   7.815   8.954  0.6370 -0.1786 -0.6640
15741SOL    HW150115   3.568   7.860   8.873 -2.4695  0.5014  0.4308
15741SOL    HW250116   3.612   7.886   9.015  2.2837 -0.6492 -0.6424
15742SOL     OW50117   2.292   7.199   0.216  0.1508  0.6729  0.8701
15742SOL    HW150118   2.293   7.284   0.171  2.4206  0.3754  0.2276
15742SOL    HW250119   2.200   7.178   0.226 -0.4583  2.0682 -1.1969
15743SOL     OW50120   5.934   3.417   8.093  0.2385  0.3818 -0.3206
15743SOL    HW150121   5.867   3.442   8.158  0.6849 -1.1844  0.8274
15743SOL    HW250122   6.017   3.443   8.133  0.5396 -0.8477 -0.1062
15744SOL     OW50123   6.865   4.912   4.920 -0.0677  0.4228 -0.6414
15744SOL    HW150124   6.835   4.873   5.002  1.0865 -0.1235 -0.4581
15744SOL    HW250125   6.862   5.006   4.935 -1.8849  0.4222 -0.7262
15745SOL     OW50126   6.619   1.200   4.410 -0.3178 -0.3478  0.1055
15745SOL    HW150127   6.643   1.277   4.462  0.1308  1.0414 -2.0523
15745SOL    HW250128   6.622   1.128   4.473  3.3652  0.6730  1.3877
15746SOL     OW50129   4.162   6.511   4.581  0.2503  0.0836 -0.0542
15746SOL    HW150130   4.226   6.578   4.556  0.0308  0.6271  0.7610
15746SOL    HW250131   4.107   6.555   4.647 -0.8320 -0.4370 -0.5826
15747SOL     OW50132   0.578   8.105   3.275  0.5540 -0.0343  0.2492
15747SOL    HW150133   0.568   8.045   3.202  0.7417 -0.0598  0.2438
15747SOL    HW250134   0.489   8.133   3.296  0.5274  0.2204 -0.1935
15748SOL     OW50135   8.192   2.966   3.421  0.2041  0.1536 -0.0892
15748SOL    HW150136   8.192   2.874   3.447  0.3916 -0.0092 -0.6611
15748SOL    HW250137   8.214   3.014   3.501 -0.0868 -0.2841  0.2544
15749SOL     OW50138   8.796   7.116   3.847  0.3455  0.0520 -0.2180
15749SOL    HW150139   8.730   7.080   3.905  1.2611 -3.2884 -1.0409
15749SOL    HW250140   8.753   7.124   3.762  0.0081  1.5174  0.0643
15750SOL     OW50141   6.276   3.921   7.832  0.2699  0.1379 -0.1064
15750SOL    HW150142   6.369   3.904   7.848  0.3687 -0.6712 -1.3847
15750SOL    HW250143   6.256   3.998   7.885  1.6864  0.3761  0.1220
15751SOL     OW50144   5.989   2.651   8.442 -0.1902  0.2284  0.3574
15751SOL    HW150145   6.050   2.695   8.382  1.3010 -1.0283  0.8831
15751SOL    HW250146   5.955   2.578   8.391  0.5615 -0.4430  0.7980
15752SOL     OW50147   0.519   7.584   2.867  0.3112  0.6860 -0.0136
15752SOL    HW150148   0.615   7.588   2.873  0.2744 -0.3377  2.5598
15752SOL    HW250149   0.502   7.500   2.824  0.6109 -0.2291  1.5677
15753SOL     OW50150   4.173   2.990   7.734 -0.6884 -0.2162  0.4418
15753SOL    HW150151   4.173   3.080   7.700  0.7243 -0.6504 -0.8347
15753SOL    HW250152   4.186   3.000   7.828 -0.8633  0.9377  0.3615
15754SOL     OW50153   0.539   7.706   3.449  0.0349  0.1388  0.0627
15754SOL    HW150154   0.500   7.621   3.432 -1.5865  0.9868 -0.7388
15754SOL    HW250155   0.584   7.696   3.533  0.5910 -1.7131 -0.4265
15755SOL     OW50156   2.064   0.192   9.225 -0.3453  0.1329 -0.6114
15755SOL    HW150157   2.013   0.270   9.250 -0.8802 -0.4167  0.0567
15755SOL    HW250158   2.150   0.206   9.264 -0.6890  0.0288  0.2102
15756SOL     OW50159   7.975   0.540   2.914 -0.0861 -0.4660  0.1230
15756SOL    HW150160   7.899   0.589   2.881  1.2678  0.6283 -1.5464
15756SOL    HW250161   8.025   0.604   2.964  0.3637 -0.8317  0.1477
15757SOL     OW50162   4.738   2.262   5.343  0.2273 -0.3430 -0.0600
15757SOL    HW150163   4.761   2.283   5.253  0.4740 -0.5383 -0.0448
15757SOL    HW250164   4.727   2.167   5.344 -0.9908 -0.2251 -0.1559
15758SOL     OW50165   4.822   5.250   4.455 -0.3148 -0.5174  0.1108
15758SOL    HW150166   4.750   5.188   4.442 -0.8990  0.4552 -1.4657
15758SOL    HW250167   4.881   5.235   4.380  0.0292  0.1677  0.2319
15759SOL     OW50168   1.889   1.053   5.964  0.1379 -0.7855 -0.5477
15759SOL    HW150169   1.934   1.136   5.974 -0.1173 -0.7882  0.8111
15759SOL    HW250170   1.923   1.017   5.882  0.4707  0.5046 -1.0016
15760SOL     OW50171   0.583   3.874   6.345 -0.1554  0.5639  0.0787
15760SOL    HW150172   0.509   3.830   6.387  0.1098 -0.2633 -0.3094
15760SOL    HW250173   0.544   3.916   6.268 -0.0890 -0.6149 -0.6256
15761SOL     OW50174   4.869   0.085   5.510  0.3240 -0.4766 -0.3280
15761SOL    HW150175   4.864   0.010   5.569  0.3883  0.0434  0.3496
15761SOL    HW250176   4.924   0.055   5.438  1.6081 -0.6097  0.6744
15762SOL     OW50177   0.074   8.707   4.730  0.2945  0.1493  0.1661
15762SOL    HW150178   0.089   8.754   4.812  1.3992  0.1782 -0.0324
15762SOL    HW250179  -0.012   8.737   4.701  0.4377  1.0993  0.6769
15763SOL     OW50180   0.615   4.069   8.967 -0.0680 -0.2578 -0.1682
15763SOL    HW150181   0.668   4.074   9.046  1.2271 -2.7138 -0.7653
15763SOL    HW250182   0.541   4.128   8.983  0.3887 -0.3275  2.6538
15764SOL     OW50183   5.914   0.953   8.306 -0.1406 -0.5643  0.2478
15764SOL    HW150184   5.871   1.023   8.257 -0.9222  0.3513  2.1515
15764SOL    HW250185   5.851   0.881   8.306 -0.8304  0.0240  1.2672
15765SOL     OW50186   0.986   7.211   0.077 -0.0139 -0.1765  0.5288
15765SOL    HW150187   0.893   7.208   0.057  0.1412  1.7570 -0.7262
15765SOL    HW250188   0.995   7.281   0.142  0.5352 -0.4635  0.7690
15766SOL     OW50189   8.664   0.197   5.267 -0.1037 -0.2272 -0.0419
15766SOL    HW150190   8.702   0.175   5.182  0.3881  1.2337 -0.2260
15766SOL    HW250191   8.722   0.264   5.302 -0.6621 -0.3668  1.1745
15767SOL     OW50192   0.790   0.765   5.301 -0.3257 -0.4903  0.3055
15767SOL    HW150193   0.852   0.697   5.271  0.2242  0.7040 -1.4588
15767SOL    HW250194   0.723   0.717   5.348  0.6948 -2.1253  0.1812
15768SOL     OW50195   8.176   8.933   3.324 -0.3123  0.1864 -0.6216
15768SOL    HW150196   8.123   8.860   3.292 -2.1130  0.9667  0.4286
15768SOL    HW250197   8.135   9.011   3.287  2.0389  0.7000 -2.3567
15769SOL     OW50198   0.015   3.878   3.381 -0.2173  0.3724 -0.9991
15769SOL    HW150199   0.045   3.906   3.294  0.3472  1.1068 -0.5920
15769SOL    HW250200  -0.064   3.828   3.365 -0.3248  0.8135 -1.9139
15770SOL     OW50201   3.704   2.490   8.585  0.2705  0.0697  0.0195
15770SOL    HW150202   3.701   2.400   8.552 -1.1778  0.4669 -0.9854
15770SOL    HW250203   3.760   2.484   8.663 -0.5480 -1.8801  0.5200
15771SOL     OW50204   3.939   1.408   8.729 -0.4491  0.1762 -0.3042
15771SOL    HW150205   4.004   1.403   8.799 -1.4482 -0.5874  0.6046
15771SOL    HW250206   3.862   1.364   8.765 -1.1355  0.1596 -1.7278
15772SOL     OW50207   3.863   4.669   4.854  0.0811 -0.5252 -0.4148
15772SOL    HW150208   3.913   4.588   4.864 -1.8361 -1.6172  0.8416
15772SOL    HW250209   3.807   4.653   4.778 -1.7756 -1.2803  1.0219
15773SOL     OW50210   1.146   1.149   8.632  0.5006  0.0738 -0.0033
15773SOL    HW150211   1.050   1.146   8.637  0.4787  0.8332  0.1541
15773SOL    HW250212   1.174   1.058   8.646 -0.1462  0.0253  1.0372
15774SOL     OW50213   8.970   8.588   5.527  0.5216 -0.0277  0.3714
15774SOL    HW150214   8.950   8.611   5.436  1.9977 -0.0298  0.0196
15774SOL    HW250215   8.934   8.500   5.537 -0.2680  0.2394  0.0212
15775SOL     OW50216   5.414   0.106   7.533 -0.2738  0.0145  0.2477
15775SOL    HW150217   5.396   0.027   7.585  2.7825  0.3995  2.1213
15775SOL    HW250218   5.391   0.178   7.591  0.5797  0.4636  0.0431
15776SOL     OW50219   1.658   7.037   4.002  0.2528 -0.4185  0.3440
15776SOL    HW150220   1.650   6.942   4.009 -0.1169 -0.4354 -0.2625
15776SOL    HW250221   1.750   7.054   4.020  0.4667 -0.9567 -0.1953
15777SOL     OW50222   3.495   0.989   4.399  0.5064  0.1865 -0.3517
15777SOL    HW150223   3.573   1.035   4.367 -0.8521  2.1711 -0.9565
15777SOL    HW250224   3.518   0.896   4.391  2.6918  0.6894 -0.7552
15778SOL     OW50225   3.825   6.102   6.945  0.2749 -0.0927 -0.6401
15778SOL    HW150226   3.731   6.099   6.962  0.5130 -1.8020  0.6617
15778SOL    HW250227   3.861   6.153   7.017  0.2679  1.6176 -1.7914
15779SOL     OW50228   0.992   0.640   1.833 -0.0083  0.3219  0.2610
15779SOL    HW150229   1.074   0.642   1.884  0.3111 -0.6489 -0.1890
15779SOL    HW250230   0.928   0.685   1.889  0.2354 -1.0667  1.7286
15780SOL     OW50231   2.781   6.983   4.934  0.2544  0.4730 -0.6840
15780SOL    HW150232   2.824   7.066   4.919  0.6136  0.0850 -1.9346
15780SOL    HW250233   2.824   6.922   4.874 -0.3966 -0.4788 -0.2175
15781SOL     OW50234   6.984   4.751   6.946 -0.1803  0.4527 -0.0893
15781SOL    HW150235   6.896   4.784   6.927  0.1324  2.3955  1.4968
15781SOL    HW250236   6.970   4.661   6.975 -1.6052  0.6354 -0.1349
15782SOL     OW50237   3.063   2.550   6.002 -0.0483  1.1678 -0.3760
15782SOL    HW150238   3.133   2.508   6.052 -0.7053  0.5215  0.0204
15782SOL    HW250239   3.108   2.592   5.928  0.5703 -0.9618 -1.2953
15783SOL     OW50240   3.152   1.221   2.643 -0.1665 -0.5558 -0.5322
15783SOL    HW150241   3.221   1.266   2.594  0.8757  0.1733  1.5186
15783SOL    HW250242   3.077   1.281   2.642  0.7364  0.6571  0.9604
15784SOL     OW50243   6.541   7.833   8.603 -0.3454 -0.0821  0.3694
15784SOL    HW150244   6.609   7.900   8.614 -0.0750 -0.0767 -1.1733
15784SOL    HW250245   6.484   7.867   8.535 -1.3891 -0.5215  0.9931
15785SOL     OW50246   7.685   2.477   7.601 -0.1197  0.1332  0.1524
15785SOL    HW150247   7.663   2.397   7.554 -0.4649 -0.0637  0.6381
15785SOL    HW250248   7.759   2.513   7.553 -0.2296 -0.2531 -0.3220
15786SOL     OW50249   2.027   2.917   1.406 -0.6549 -0.4713  0.1090
15786SOL    HW150250   1.956   2.921   1.469 -0.0115 -1.8083  0.9766
15786SOL    HW250251   1.992   2.867   1.332 -0.8510 -0.4486  0.1877
15787SOL     OW50252   5.154   8.492   0.607  0.2201  0.2575 -0.1930
15787SOL    HW150253   5.215   8.432   0.562  1.3097  2.5195 -1.9949
15787SOL    HW250254   5.187   8.497   0.697  0.8421 -0.8845 -0.3392
15788SOL     OW50255   1.302   3.347   3.646  0.0623 -0.2366 -0.0926
15788SOL    HW150256   1.208   3.349   3.632 -0.3232 -0.9202  1.9961
15788SOL    HW250257   1.333   3.431   3.613 -1.3519  0.1861 -0.3969
15789SOL     OW50258   3.693   1.170   7.511 -0.3330 -0.2146  0.4406
15789SOL    HW150259   3.745   1.090   7.504  0.0315 -0.1437  1.9401
15789SOL    HW250260   3.705   1.198   7.602  0.1928  1.9846 -0.2427
15790SOL     OW50261   1.398   2.826   7.233  0.4794 -0.2188 -0.3277
15790SOL    HW150262   1.436   2.742   7.258  0.2707 -0.1831  0.1165
15790SOL    HW250263   1.408   2.881   7.311  1.4234  0.4554 -0.8983
15791SOL     OW50264   4.250   7.639   5.704 -0.5244 -0.2712 -0.1866
15791SOL    HW150265   4.165   7.660   5.666  0.2170  0.4670 -1.4965
15791SOL    HW250266   4.272   7.553   5.668 -1.7953 -1.6869  2.1315
15792SOL     OW50267   0.985   1.104   3.168 -0.7090  0.5782  0.5980
15792SOL    HW150268   1.080   1.110   3.181 -0.6562  1.0252  0.0013
15792SOL    HW250269   0.963   1.182   3.118 -1.1542 -0.3320 -0.6546
15793SOL     OW50270   3.577   0.040   8.055  0.6268 -0.1193  0.1655
15793SOL    HW150271   3.488   0.010   8.037  0.1271  0.5710  1.4026
15793SOL    HW250272   3.608   0.074   7.971  0.1600 -1.3878 -0.5590
15794SOL     OW50273   7.216   7.566   4.754  0.4057  0.4036  0.0240
15794SOL    HW150274   7.149   7.549   4.820  0.1250 -2.1479 -0.8020
15794SOL    HW250275   7.294   7.522   4.787  1.0002  1.3054 -0.1528
15795SOL     OW50276   3.470   6.315   6.081 -0.4013  0.3146  0.2841
15795SOL    HW150277   3.543   6.258   6.059 -0.4939 -0.4803  1.9022
15795SOL    HW250278   3.509   6.387   6.131 -0.3530  1.4646 -1.3384
15796SOL     OW50279   7.347   1.524   5.918  0.1986  0.1325 -0.0857
15796SOL    HW150280   7.324   1.447   5.970  0.1860 -0.7199 -1.3176
15796SOL    HW250281   7.315   1.598   5.970 -1.6517 -0.8003  0.1751
15797SOL     OW50282   5.834   7.882   9.259  0.2211  0.6362  0.2828
15797SOL    HW150283   5.777   7.819   9.305  0.8610 -0.3650 -0.2484
15797SOL    HW250284   5.821   7.861   9.166  1.0067  0.7912  0.1369
15798SOL     OW50285   6.510   2.283   5.410 -0.1586 -0.2759 -0.2241
15798SOL    HW150286   6.534   2.307   5.499  0.3163 -1.5410  0.0129
15798SOL    HW250287   6.446   2.349   5.383  1.2866  1.4142  0.2527
15799SOL     OW50288   8.172   1.865   2.053  0.4992 -0.2757 -0.1761
15799SOL    HW150289   8.266   1.851   2.042  0.4655 -0.5624 -0.1009
15799SOL    HW250290   8.164   1.913   2.136  0.6587  0.7555 -0.7437
15800SOL     OW50291   5.649   7.697   3.282  0.4425  0.3655  0.2931
15800SOL    HW150292   5.707   7.622   3.267 -0.8901 -0.2660 -2.1676
15800SOL    HW250293   5.644   7.741   3.197 -0.5981  1.9501  1.1304
15801SOL     OW50294   8.281   0.141   7.479 -0.0567 -0.4333  0.3782
15801SOL    HW150295   8.365   0.097   7.467 -0.0118 -0.2791  0.1120
15801SOL    HW250296   8.252   0.162   7.390  0.8357  1.7656  0.5451
15802SOL     OW50297   9.184   2.479   1.464 -0.0072  0.8442  0.1016
15802SOL    HW150298   9.156   2.444   1.380  0.4922  0.0739  0.2530
15802SOL    HW250299   9.110   2.532   1.494 -0.3539  0.7688 -0.6144
15803SOL     OW50300   1.674   3.251   3.532 -0.5040 -0.3884 -0.3414
15803SOL    HW150301   1.626   3.178   3.570  1.2024 -1.3288  0.1017
15803SOL    HW250302   1.612   3.323   3.531 -1.7429 -1.4071  0.6848
15804SOL     OW50303   8.959   3.594   0.471  0.4487 -0.5197  0.1809
15804SOL    HW150304   8.933   3.514   0.423 -1.6506 -0.0542  0.4324
15804SOL    HW250305   8.885   3.611   0.529 -0.2618  2.8807 -1.4926
15805SOL     OW50306   4.048   2.524   0.353 -0.0450 -0.2110 -0.0159
15805SOL    HW150307   4.007   2.607   0.378  0.8608  0.2020  0.1331
15805SOL    HW250308   4.106   2.546   0.281  0.7618 -0.5698  0.5058
15806SOL     OW50309   6.849   0.983   1.540  0.3403 -0.1044 -0.4446
15806SOL    HW150310   6.928   1.027   1.510  1.4244 -0.5296  1.6235
15806SOL    HW250311   6.855   0.895   1.501  0.4650  0.1156 -0.9341
15807SOL     OW50312   2.561   3.065   6.292 -0.4120 -0.4610  0.3463
15807SOL    HW150313   2.531   3.109   6.371  0.4627  1.0801 -0.1335
15807SOL    HW250314   2.481   3.049   6.241 -0.8192 -0.0768  0.8549
15808SOL     OW50315   6.811   3.323   1.722  0.0485  0.2891 -0.2426
15808SOL    HW150316   6.815   3.354   1.631  0.6547 -1.8613 -1.0158
15808SOL    HW250317   6.900   3.295   1.741 -0.1421  0.4532  0.9332
15809SOL     OW50318   1.167   5.058   0.227  0.0448  0.0507 -0.2330
15809SOL    HW150319   1.103   5.035   0.295  0.2105 -1.1403 -0.4448
15809SOL    HW250320   1.217   5.130   0.264  0.5054 -0.9474  1.1749
15810SOL     OW50321   5.573   9.120   7.130 -0.6161  0.7240  0.5903
15810SOL    HW150322   5.540   9.210   7.129 -0.7364  0.6792 -0.6405
15810SOL    HW250323   5.589   9.099   7.038  0.5940 -0.0880  0.9651
15811SOL     OW50324   8.194   1.272   6.870 -0.3377  0.2447 -0.3472
15811SOL    HW150325   8.234   1.267   6.784 -0.6351 -0.3509 -0.4574
15811SOL    HW250326   8.113   1.221   6.862 -0.6166  0.6059  0.1413
15812SOL     OW50327   3.472   0.723   4.315  0.1167  0.4386 -0.1708
15812SOL    HW150328   3.410   0.727   4.243 -0.0329  0.0028 -0.0703
15812SOL    HW250329   3.499   0.631   4.318  1.8988  0.8648 -1.1699
15813SOL     OW50330   3.644   0.968   2.309 -0.3216 -0.5199  0.3215
15813SOL    HW150331   3.624   0.885   2.353  0.2167 -0.1769  1.2342
15813SOL    HW250332   3.739   0.976   2.313 -0.3228 -0.1210 -0.2550
15814SOL     OW50333   6.710   1.473   7.863 -0.4989 -0.0522 -0.1761
15814SOL    HW150334   6.695   1.382   7.839  0.2345  0.2254 -1.7918
15814SOL    HW250335   6.802   1.489   7.843 -0.1361  0.5897  1.7388
15815SOL     OW50336   7.570   8.028   0.550 -0.0491 -0.5838 -0.2024
15815SOL    HW150337   7.546   7.987   0.633  0.8143  0.2563  0.4797
15815SOL    HW250338   7.618   8.107   0.575  2.5388 -1.6520 -1.4721
15816SOL     OW50339   2.955   3.952   7.140 -0.1151 -0.5799 -0.0863
15816SOL    HW150340   2.975   3.986   7.052  1.3213 -1.1046  0.0097
15816SOL    HW250341   2.977   4.024   7.199 -2.6625  0.3892 -0.2029
15817SOL     OW50342   7.341   4.038   5.339 -0.3395 -0.4858  0.6189
15817SOL    HW150343   7.407   3.986   5.293  1.8237  2.1447  0.5248
15817SOL    HW250344   7.262   4.027   5.287  0.7394 -1.5107 -0.9214
15818SOL     OW50345   7.489   0.465   7.635  0.0058 -0.5346  0.3528
15818SOL    HW150346   7.558   0.530   7.625  0.8366 -1.3142  0.8002
15818SOL    HW250347   7.467   0.438   7.546  0.0022  0.0048  0.1906
15819SOL     OW50348   4.124   5.099   3.402 -0.4217  0.1058 -0.7670
15819SOL    HW150349   4.198   5.095   3.341  0.8009 -0.0236  0.6679
15819SOL    HW250350   4.061   5.158   3.360  0.8970  0.9576 -1.6113
15820SOL     OW50351   5.532   4.747   6.794 -0.6285 -0.9880 -0.3351
15820SOL    HW150352   5.540   4.662   6.837 -0.3490 -0.8191 -0.0483
15820SOL    HW250353   5.604   4.799   6.830 -0.7762 -0.6406 -0.5349
15821SOL     OW50354   8.975   0.168   3.728 -0.4853 -0.2376  0.4430
15821SOL    HW150355   9.025   0.194   3.805 -0.8604  0.0793  0.5827
15821SOL    HW250356   8.924   0.092   3.756 -1.4410  0.5322  0.8307
15822SOL     OW50357   2.049   5.044   3.557 -0.7417  0.0323 -0.8274
15822SOL    HW150358   2.057   4.960   3.512 -1.8565 -0.1675 -0.6922
15822SOL    HW250359   1.978   5.089   3.511 -1.8013 -0.1073  0.5833
15823SOL     OW50360   0.145   4.741   0.522  0.1065 -0.3394  0.1270
15823SOL    HW150361   0.179   4.820   0.480  2.7232 -0.4194  1.8469
15823SOL    HW250362   0.219   4.680   0.520 -1.2798 -2.1277  0.4326
15824SOL     OW50363   0.791   4.182   4.205 -0.3566 -0.0262 -0.3624
15824SOL    HW150364   0.746   4.263   4.182 -1.7083 -0.5011  0.5135
15824SOL    HW250365   0.732   4.112   4.175  0.2591 -0.6770 -0.0894
15825SOL     OW50366   1.646   0.597   5.426 -0.1263  0.4823 -0.2470
15825SOL    HW150367   1.593   0.668   5.462  0.0783  0.2156  0.6125
15825SOL    HW250368   1.586   0.548   5.370 -0.7238  0.3417  0.4992
15826SOL     OW50369   4.400   7.959   5.536 -0.2132 -0.1907 -0.6844
15826SOL    HW150370   4.474   7.899   5.529  0.3514  0.2510  0.9440
15826SOL    HW250371   4.357   7.956   5.450  0.1105 -2.4741 -0.8136
15827SOL     OW50372   1.437   6.402   0.558 -0.2121  0.0281  0.0364
15827SOL    HW150373   1.459   6.487   0.520  2.0497 -0.6530 -0.2905
15827SOL    HW250374   1.405   6.423   0.646 -0.7952  1.2681 -0.4413
15828SOL     OW50375   7.683   2.064   8.461  0.0622  0.0348 -0.3932
15828SOL    HW150376   7.674   2.014   8.542 -1.3015 -0.2941 -0.7230
15828SOL    HW250377   7.637   2.146   8.478  1.5575  0.8562 -0.1503
15829SOL     OW50378   5.748   6.430   8.200  0.4168 -0.1618  0.3264
15829SOL    HW150379   5.752   6.518   8.161  2.4569  0.5286  1.8829
15829SOL    HW250380   5.771   6.371   8.128  1.3269  0.8169 -0.2235
15830SOL     OW50381   6.156   1.702   3.709 -0.0131  0.1407  0.9475
15830SOL    HW150382   6.190   1.679   3.795 -0.6261 -2.2412  0.6081
15830SOL    HW250383   6.086   1.764   3.726 -0.0780 -0.2537  2.1571
15831SOL     OW50384   8.992   8.062   3.249 -0.1842 -0.2956 -0.1709
15831SOL    HW150385   9.023   7.982   3.206 -0.5111 -0.7479  0.4252
15831SOL    HW250386   8.897   8.052   3.253 -0.1601 -0.2630  0.6596
15832SOL     OW50387   1.944   8.530   6.764 -0.0412  0.1325 -0.6288
15832SOL    HW150388   1.894   8.511   6.844  0.8284  0.7481  0.0888
15832SOL    HW250389   1.880   8.564   6.703 -0.1337  4.0156  1.3134
15833SOL     OW50390   8.964   3.429   9.195 -0.2392 -0.6011  0.1477
15833SOL    HW150391   8.910   3.504   9.172  2.5004  0.2627 -4.7148
15833SOL    HW250392   9.010   3.456   9.275 -0.6123  2.2513 -0.4906
15834SOL     OW50393   6.820   7.497   6.945  0.2007  0.0914  0.1475
15834SOL    HW150394   6.740   7.497   6.998  0.9499  2.7432  1.4423
15834SOL    HW250395   6.882   7.443   6.995 -0.3866 -0.9749 -0.2526
15835SOL     OW50396   7.868   1.017   3.615 -0.1547 -0.3598  0.8150
15835SOL    HW150397   7.825   1.042   3.533  0.4516  0.2814  0.6872
15835SOL    HW250398   7.837   0.928   3.632 -0.3982 -0.4432 -0.0366
15836SOL     OW50399   4.984   6.445   2.620 -0.1316 -1.2218  0.2394
15836SOL    HW150400   5.034   6.437   2.702  0.0442 -0.8594  0.1697
15836SOL    HW250401   5.036   6.395   2.556 -1.0539 -2.8147  0.6827
15837SOL     OW50402   6.070   4.039   1.019  0.0314 -0.8261 -0.6373
15837SOL    HW150403   6.006   4.106   1.045  3.0896  2.1006 -0.0317
15837SOL    HW250404   6.071   3.979   1.093 -1.2795 -0.4062 -0.2356
15838SOL     OW50405   8.438   3.586   8.173 -0.2154 -0.2440  0.2883
15838SOL    HW150406   8.372   3.563   8.107 -1.7392  1.8571  0.9887
15838SOL    HW250407   8.522   3.574   8.128 -1.1477 -0.5495 -1.4464
15839SOL     OW50408   2.731   4.888   6.223  0.5274 -0.5485  0.1700
15839SOL    HW150409   2.641   4.886   6.189  0.5173 -2.7538  0.1541
15839SOL    HW250410   2.785   4.855   6.151  0.8854 -2.4109  1.2204
15840SOL     OW50411   8.702   8.846   0.243 -0.2010  0.4046 -0.3430
15840SOL    HW150412   8.705   8.933   0.281  1.4947  0.2252  0.0367
15840SOL    HW250413   8.727   8.859   0.151  0.3187  0.3067 -0.2212
15841SOL     OW50414   8.950   6.723   6.396  0.3093  0.0729  0.7484
15841SOL    HW150415   8.931   6.630   6.406  1.2303 -0.1196  0.8253
15841SOL    HW250416   8.888   6.753   6.330  0.4593 -0.7589  0.2111
15842SOL     OW50417   5.045   4.182   2.819  0.3441 -0.4888  0.3959
15842SOL    HW150418   5.017   4.108   2.873 -2.3175  1.6651  2.2067
15842SOL    HW250419   4.968   4.202   2.765  1.6021 -0.0520 -1.3196
15843SOL     OW50420   1.241   8.297   6.219 -0.1536  0.3207  0.3220
15843SOL    HW150421   1.155   8.334   6.198  0.4949  1.7369  0.0738
15843SOL    HW250422   1.241   8.212   6.175 -1.1274  0.6509 -0.3603
15844SOL     OW50423   5.920   2.416   1.720  0.0340 -0.2941  0.0886
15844SOL    HW150424   5.993   2.456   1.672 -0.7891  0.6485 -0.4111
15844SOL    HW250425   5.935   2.442   1.811 -0.0457  0.4934 -0.1135
15845SOL     OW50426   7.744   4.135   9.254 -0.1576 -0.3162  0.2607
15845SOL    HW150427   7.684   4.151   9.181 -0.9760  1.8929  1.3153
15845SOL    HW250428   7.734   4.042   9.274 -1.1562 -0.5912 -1.3451
15846SOL     OW50429   3.033   3.741   6.577  0.0617  0.5720 -0.0105
15846SOL    HW150430   3.048   3.756   6.670  0.0962  0.4434  0.0057
15846SOL    HW250431   2.995   3.653   6.573 -0.9180  0.9799 -0.0315
15847SOL     OW50432   3.936   8.715   1.467 -0.2550 -0.2368  0.2689
15847SOL    HW150433   3.950   8.632   1.512 -1.3917 -0.0545  0.9919
15847SOL    HW250434   3.876   8.763   1.523 -0.2396  0.7558 -0.5385
15848SOL     OW50435   3.684   6.233   7.583 -0.2056 -0.2792  0.1446
15848SOL    HW150436   3.748   6.240   7.512  0.7159 -0.2060  0.9555
15848SOL    HW250437   3.669   6.139   7.592 -1.1887 -0.2386 -0.8730
15849SOL     OW50438   6.848   6.806   2.263 -0.5799  0.0924 -0.0202
15849SOL    HW150439   6.793   6.880   2.236 -0.6566 -0.8237 -2.7179
15849SOL    HW250440   6.938   6.836   2.246 -0.4930  0.1728  0.5668
15850SOL     OW50441   5.942   0.616   1.632 -0.7793 -0.1769 -0.5209
15850SOL    HW150442   6.015   0.565   1.597  0.0894  0.5992  0.1137
15850SOL    HW250443   5.961   0.706   1.605 -0.3550  0.3640  1.4757
15851SOL     OW50444   5.031   6.651   5.556  0.3277 -0.0616  0.0502
15851SOL    HW150445   5.060   6.728   5.605 -0.0349 -0.6373  1.1960
15851SOL    HW250446   5.019   6.683   5.466  1.5778  0.8751  0.1942
15852SOL     OW50447   9.182   6.109   3.545  0.1323 -0.5417  0.0210
15852SOL    HW150448   9.238   6.129   3.620 -0.2737 -0.5069  0.3118
15852SOL    HW250449   9.173   6.014   3.545 -1.6038 -0.4116  1.2752
15853SOL     OW50450   4.696   6.157   3.779 -0.2260  0.7962 -0.2101
15853SOL    HW150451   4.630   6.213   3.820 -0.8881  2.1662 -2.9022
15853SOL    HW250452   4.775   6.212   3.778 -1.0385  2.1056 -3.4186
15854SOL     OW50453   3.759   1.610   2.272 -0.2334  0.4904  0.1926
15854SOL    HW150454   3.759   1.653   2.358 -0.9456  0.0874  0.3988
15854SOL    HW250455   3.732   1.520   2.291 -0.1450  0.3353 -0.4253
15855SOL     OW50456   5.894   3.177   6.560 -0.0264 -0.3655  0.6053
15855SOL    HW150457   5.833   3.121   6.512  1.2597 -2.2206  1.0141
15855SOL    HW250458   5.976   3.170   6.512  0.5596 -0.0505  1.5281
15856SOL     OW50459   8.922   0.112   3.067  0.1249  0.9315 -0.1385
15856SOL    HW150460   8.845   0.154   3.028  0.5472  1.5850 -0.2943
15856SOL    HW250461   8.888   0.063   3.141 -0.6634 -0.0900 -1.1346
15857SOL     OW50462   8.828   2.436   6.822 -0.3944 -0.1675  0.4279
15857SOL    HW150463   8.827   2.469   6.912 -2.6768 -0.6339  0.6280
15857SOL    HW250464   8.819   2.341   6.831  0.2146 -0.3003 -0.2836
15858SOL     OW50465   7.216   2.117   2.681 -0.0795  0.1471  0.6340
15858SOL    HW150466   7.287   2.125   2.745  0.8708 -2.2665  0.0052
15858SOL    HW250467   7.234   2.034   2.636 -2.3009  0.3746 -0.8223
15859SOL     OW50468   6.210   2.844   5.299 -0.2716  0.6176 -0.0706
15859SOL    HW150469   6.204   2.898   5.378 -1.8901  1.0501 -0.4534
15859SOL    HW250470   6.159   2.766   5.320 -2.2217  1.5044 -1.2574
15860SOL     OW50471   7.679   6.276   4.985  0.2029 -0.3507  0.1646
15860SOL    HW150472   7.655   6.326   4.907 -0.3969  1.1726  1.2528
15860SOL    HW250473   7.669   6.184   4.960  0.1746  0.1013 -1.5742
15861SOL     OW50474   2.479   5.612   5.915  0.4005 -0.4940  0.0262
15861SOL    HW150475   2.497   5.557   5.992 -0.4659 -2.0221 -0.8078
15861SOL    HW250476   2.386   5.634   5.922  0.4502 -0.1785 -0.3003
15862SOL     OW50477   4.286   3.222   8.648 -0.4353 -0.2623 -0.6485
15862SOL    HW150478   4.336   3.300   8.670  0.3393 -1.0127  0.3411
15862SOL    HW250479   4.203   3.233   8.695  1.6061 -2.3888  4.1204
15863SOL     OW50480   5.122   4.818   4.514 -0.6323 -0.5881 -0.0584
15863SOL    HW150481   5.187   4.886   4.495 -0.5871 -0.1736  1.4269
15863SOL    HW250482   5.039   4.865   4.520 -0.8346 -0.8900 -0.4348
15864SOL     OW50483   1.619   1.656   4.838  0.3069 -0.5986 -0.6423
15864SOL    HW150484   1.568   1.583   4.872  1.4237 -0.7986  0.7216
15864SOL    HW250485   1.567   1.734   4.859  0.3553 -0.8250  0.3614
15865SOL     OW50486   5.089   1.870   8.955  0.0635 -0.4712 -0.3626
15865SOL    HW150487   5.103   1.844   8.864  2.7983 -1.5418  0.2483
15865SOL    HW250488   5.146   1.945   8.968 -0.3863 -0.2541  0.4413
15866SOL     OW50489   2.889   0.954   2.555 -0.5995 -0.2754 -0.2382
15866SOL    HW150490   2.823   1.023   2.561 -1.0858 -0.7141 -0.4410
15866SOL    HW250491   2.959   0.992   2.503 -0.0827  0.6612  1.1098
15867SOL     OW50492   5.239   1.229   1.460 -0.1396  0.0499 -0.0881
15867SOL    HW150493   5.231   1.143   1.501 -0.6373 -0.0539 -0.4037
15867SOL    HW250494   5.270   1.287   1.530  1.7457 -0.7052 -0.2412
15868SOL     OW50495   3.045   5.731   0.261  0.1730 -0.1701 -0.0386
15868SOL    HW150496   3.137   5.718   0.239  0.4000  1.0586  0.1151
15868SOL    HW250497   2.997   5.692   0.188  0.8375  0.2037 -0.6834
15869SOL     OW50498   7.123   0.465   7.948  0.0276  0.5038  0.1412
15869SOL    HW150499   7.081   0.532   7.893 -2.3554  0.7947  2.1816
15869SOL    HW250500   7.155   0.513   8.024  4.1645  0.2667 -1.1534
15870SOL     OW50501   6.819   9.000   0.019 -0.3595 -0.5156 -0.3057
15870SOL    HW150502   6.768   8.984  -0.060 -0.7208  1.2170 -0.4615
15870SOL    HW250503   6.755   9.028   0.084  0.1090 -0.5818  0.1966
15871SOL     OW50504   3.307   6.669   4.449  0.2796  0.1615  0.2266
15871SOL    HW150505   3.304   6.588   4.500  0.7730 -0.4652 -0.7067
15871SOL    HW250506   3.386   6.660   4.395  1.1511  1.9030  1.1316
15872SOL     OW50507   0.549   0.849   5.586  0.1446  0.2440 -0.8495
15872SOL    HW150508   0.520   0.817   5.672  1.8724  0.3325 -0.1831
15872SOL    HW250509   0.613   0.784   5.558  1.2543  1.3685 -1.0155
15873SOL     OW50510   6.662   8.409   1.730  0.4750 -0.0736 -0.0585
15873SOL    HW150511   6.729   8.346   1.704 -0.9394 -0.9390 -1.8349
15873SOL    HW250512   6.610   8.422   1.651 -0.6514  1.5863  0.9088
15874SOL     OW50513   4.650   5.863   6.452 -0.2220 -0.6510  0.0834
15874SOL    HW150514   4.601   5.811   6.516 -1.4078  1.6818  1.1805
15874SOL    HW250515   4.649   5.952   6.487  1.1800  0.2707 -2.0213
15875SOL     OW50516   5.277   6.340   6.818 -0.5094  0.3148  0.2898
15875SOL    HW150517   5.298   6.370   6.730  0.4168  1.4561  0.8715
15875SOL    HW250518   5.216   6.268   6.805 -1.2987  1.2030 -1.2432
15876SOL     OW50519   9.128   4.063   2.305  0.1147  0.2183 -0.2324
15876SOL    HW150520   9.131   4.022   2.219 -0.9740  0.3043 -0.3181
15876SOL    HW250521   9.062   4.013   2.353 -1.4638  1.9985 -0.4354
15877SOL     OW50522   4.139   1.964   0.227 -0.4438 -0.3100 -0.4624
15877SOL    HW150523   4.082   1.945   0.153 -0.2959  0.9508 -0.9172
15877SOL    HW250524   4.169   1.878   0.256 -0.0796 -0.8194 -2.2136
15878SOL     OW50525   2.662   7.743   5.726 -0.4638  0.5199 -0.1641
15878SOL    HW150526   2.673   7.717   5.634  1.3073 -1.1750  0.4606
15878SOL    HW250527   2.609   7.822   5.722 -0.7346  0.2999 -2.6245
15879SOL     OW50528   3.871   0.867   1.347 -0.6852 -0.3178  0.3196
15879SOL    HW150529   3.811   0.914   1.405 -0.8891  0.3963 -0.4380
15879SOL    HW250530   3.846   0.895   1.259 -0.0311 -0.9522 -0.0834
15880SOL     OW50531   3.272   2.292   7.826  0.5261 -0.4737  0.2239
15880SOL    HW150532   3.265   2.383   7.852  1.8328 -0.2094 -0.2607
15880SOL    HW250533   3.357   2.264   7.859  0.1763 -1.4953  0.2965
15881SOL     OW50534   1.609   2.332   4.766 -0.0791  0.3496  0.2255
15881SOL    HW150535   1.691   2.324   4.717 -0.9645 -0.0035 -1.2536
15881SOL    HW250536   1.614   2.263   4.833  0.1292 -0.7707 -0.9146
15882SOL     OW50537   0.662   8.941   4.837  0.5163 -0.1393 -0.0679
15882SOL    HW150538   0.703   9.014   4.881 -0.7258  0.3923  0.2625
15882SOL    HW250539   0.624   8.888   4.907 -0.2667 -0.0368 -0.3936
15883SOL     OW50540   6.545   5.017   2.818 -0.3216  0.4032 -0.1634
15883SOL    HW150541   6.538   5.089   2.881  0.6223  0.9555 -0.6642
15883SOL    HW250542   6.483   4.952   2.849 -1.5533  1.6229  0.0443
15884SOL     OW50543   5.826   8.688   7.149 -1.0992  0.3175 -0.1814
15884SOL    HW150544   5.808   8.736   7.230 -1.4489 -0.0726 -0.0247
15884SOL    HW250545   5.778   8.736   7.082  2.0231  2.8208 -0.8716
15885SOL     OW50546   2.228   4.006   8.166 -0.1594 -0.5414  0.6383
15885SOL    HW150547   2.283   4.037   8.238  0.1812 -1.3930  0.7557
15885SOL    HW250548   2.139   4.011   8.200  0.0043 -1.0160  1.1592
15886SOL     OW50549   7.300   7.377   7.709  0.0513  0.5859  0.3100
15886SOL    HW150550   7.253   7.419   7.637  0.4569  0.3804 -0.0792
15886SOL    HW250551   7.389   7.364   7.675  0.8435  2.3567  1.5524
15887SOL     OW50552   4.999   0.109   3.912  0.4172 -0.2778  0.0880
15887SOL    HW150553   5.000   0.048   3.986  0.2700 -0.5672 -0.1486
15887SOL    HW250554   5.071   0.169   3.929  0.8244 -0.7692  0.1076
15888SOL     OW50555   3.450   2.717   1.807  0.4888  0.2338 -0.0394
15888SOL    HW150556   3.418   2.738   1.719 -0.5028  1.7105  0.6358
15888SOL    HW250557   3.466   2.623   1.804  1.6263  0.4102 -2.1434
15889SOL     OW50558   7.694   0.172   5.908  0.0220  0.2214 -0.2283
15889SOL    HW150559   7.737   0.094   5.873  0.5890  0.0046  0.9242
15889SOL    HW250560   7.603   0.146   5.920 -0.0564  0.1202 -0.9622
15890SOL     OW50561   0.044   6.486   5.957 -0.0654 -0.8821  0.0255
15890SOL    HW150562  -0.005   6.419   5.909 -0.9764 -1.1483  1.2828
15890SOL    HW250563  -0.020   6.524   6.017  0.8170  0.0892  0.3719
15891SOL     OW50564   3.291   3.034   7.362 -0.0275  0.3255 -0.0264
15891SOL    HW150565   3.206   3.078   7.358 -0.0369  0.3906  0.7419
15891SOL    HW250566   3.269   2.941   7.363 -0.0676  0.3312 -0.3161
15892SOL     OW50567   0.834   7.709   5.642  0.1353  0.5273 -0.3080
15892SOL    HW150568   0.763   7.721   5.579 -0.2663  0.1192  0.0603
15892SOL    HW250569   0.910   7.753   5.602 -0.0956  0.2220 -1.1003
15893SOL     OW50570   7.263   5.574   3.519  0.6321  0.2795  0.4201
15893SOL    HW150571   7.170   5.583   3.495  0.4211 -0.6890  0.8127
15893SOL    HW250572   7.310   5.575   3.436  0.2018  0.0876  0.1722
15894SOL     OW50573   2.378   8.441   1.004  0.3334 -0.6706  0.1096
15894SOL    HW150574   2.288   8.444   0.971 -0.1055 -0.9074  1.2559
15894SOL    HW250575   2.370   8.406   1.092  1.2300  1.8425  1.2972
15895SOL     OW50576   4.164   4.936   2.457  0.1808  0.1981 -0.0580
15895SOL    HW150577   4.156   5.031   2.453  0.5284  0.2914  1.1681
15895SOL    HW250578   4.215   4.913   2.379 -0.1521  0.9775 -0.5183
15896SOL     OW50579   3.494   2.928   1.089 -0.6878 -0.5897 -0.5864
15896SOL    HW150580   3.465   2.897   1.175  2.8252  0.7833  1.3363
15896SOL    HW250581   3.583   2.894   1.080 -0.3638  0.6572 -2.9355
15897SOL     OW50582   8.796   7.188   2.226  0.4812  0.6462  0.4435
15897SOL    HW150583   8.845   7.105   2.226  0.1892  0.4239 -1.4726
15897SOL    HW250584   8.863   7.256   2.223  0.7050  0.3925 -0.5068
15898SOL     OW50585   2.954   8.903   7.818  0.2306  0.3328  0.2414
15898SOL    HW150586   2.861   8.929   7.823  0.4942  2.1504 -2.0284
15898SOL    HW250587   2.997   8.957   7.884 -0.3670 -1.2173  1.9960
15899SOL     OW50588   1.813   2.769   6.326 -0.4388  0.0953  0.1318
15899SOL    HW150589   1.870   2.736   6.395 -0.9280 -1.4945 -0.1757
15899SOL    HW250590   1.841   2.859   6.312  2.9021 -0.9694 -0.9059
15900SOL     OW50591   1.152   6.233   2.511  0.4805  0.2526 -0.0193
15900SOL    HW150592   1.227   6.266   2.561 -0.1585 -1.0386  1.9241
15900SOL    HW250593   1.189   6.205   2.428  2.6634 -2.3195  1.6405
15901SOL     OW50594   2.977   4.460   1.412 -0.1093 -0.1994 -0.1838
15901SOL    HW150595   3.058   4.510   1.403  0.5530 -1.2076  0.0529
15901SOL    HW250596   3.004   4.369   1.407 -1.1160 -0.5775  0.8341
15902SOL     OW50597   6.316   5.448   2.009  0.4611  0.5282 -0.4108
15902SOL    HW150598   6.372   5.492   1.945  1.4046  0.2341  0.1937
15902SOL    HW250599   6.255   5.397   1.955 -0.0536  1.8314 -1.0965
15903SOL     OW50600   3.833   6.183   8.114  0.0991 -0.0423 -0.3601
15903SOL    HW150601   3.802   6.202   8.026  0.0583  0.5271 -0.2307
15903SOL    HW250602   3.928   6.177   8.107  0.1567  0.7400 -0.3176
15904SOL     OW50603   1.243   1.092   0.353  0.2769  0.2471 -0.0583
15904SOL    HW150604   1.232   1.011   0.304 -1.0798  0.0414  0.5537
15904SOL    HW250605   1.288   1.151   0.292  0.4694 -0.6626 -0.8140
15905SOL     OW50606   3.863   0.954   5.462 -0.4326 -0.2217  0.0764
15905SOL    HW150607   3.817   1.037   5.453  0.8597  0.5075 -0.0152
15905SOL    HW250608   3.904   0.940   5.376  2.7630  1.1696  1.2525
15906SOL     OW50609   6.063   3.326   4.781  0.0855  0.0591 -0.5611
15906SOL    HW150610   6.108   3.354   4.701  0.5626  2.8964  0.6145
15906SOL    HW250611   6.127   3.337   4.851 -0.7477 -1.1114  0.4432
15907SOL     OW50612   7.835   6.461   7.250  0.1048 -0.2127 -0.0094
15907SOL    HW150613   7.871   6.550   7.246 -2.0020  0.6575 -1.4720
15907SOL    HW250614   7.788   6.458   7.333 -0.2562  0.2387 -0.1927
15908SOL     OW50615   0.709   3.561   3.426 -0.1792  0.5637  0.1516
15908SOL    HW150616   0.704   3.476   3.471 -1.2397  0.3520 -0.3264
15908SOL    HW250617   0.766   3.545   3.351 -1.8197 -0.2766 -0.9994
15909SOL     OW50618   4.551   6.832   2.422 -0.2062  0.6234 -0.5025
15909SOL    HW150619   4.646   6.845   2.416 -0.2706  1.2796 -0.2200
15909SOL    HW250620   4.536   6.746   2.383  0.1690  1.7313 -3.3492
15910SOL     OW50621   5.690   6.330   1.475 -0.4811  0.3301 -0.2891
15910SOL    HW150622   5.627   6.383   1.426 -1.3930 -2.2618 -2.1439
15910SOL    HW250623   5.636   6.269   1.525  0.4896 -0.8274 -0.5999
15911SOL     OW50624   1.904   3.826   9.056  1.1298 -0.3997 -0.1191
15911SOL    HW150625   1.870   3.824   9.146  1.9513  0.3573  0.2300
15911SOL    HW250626   1.886   3.915   9.026 -0.8787 -1.1937 -1.4387
15912SOL     OW50627   3.130   3.794   0.812  0.0746 -0.5663 -0.1304
15912SOL    HW150628   3.209   3.748   0.840  0.0090  0.0061  1.0315
15912SOL    HW250629   3.058   3.745   0.853 -0.1955 -1.1015 -1.2037
15913SOL     OW50630   6.875   9.031   3.429  0.3949  0.4420 -0.0965
15913SOL    HW150631   6.907   9.028   3.519 -0.4063 -0.9607  0.1852
15913SOL    HW250632   6.782   9.007   3.436  0.9848 -2.7559 -1.5267
15914SOL     OW50633   2.559   1.792   1.454 -0.1645  0.6152 -0.0321
15914SOL    HW150634   2.563   1.887   1.444 -0.3821  0.5194 -1.0993
15914SOL    HW250635   2.468   1.770   1.437 -0.1504  0.2284  0.3774
15915SOL     OW50636   5.144   8.176   4.956 -0.1220 -0.5171 -0.1353
15915SOL    HW150637   5.077   8.242   4.974  0.3916 -0.3998  1.4777
15915SOL    HW250638   5.201   8.216   4.890 -0.7832 -0.0458 -0.4351
15916SOL     OW50639   0.446   7.086   5.928 -0.5941 -0.4448 -0.2753
15916SOL    HW150640   0.355   7.116   5.919 -0.1686  1.3780  1.0289
15916SOL    HW250641   0.498   7.155   5.887  0.2169 -1.8240 -1.6923
15917SOL     OW50642   8.409   0.709   8.912  0.3378 -0.0375 -0.4480
15917SOL    HW150643   8.492   0.730   8.955  0.3550  1.0969 -1.0019
15917SOL    HW250644   8.372   0.794   8.888 -0.4196 -0.5785 -1.2710
15918SOL     OW50645   6.911   5.094   2.295 -0.2454  0.5481  0.3449
15918SOL    HW150646   7.003   5.068   2.308 -0.5843 -0.5178  0.6990
15918SOL    HW250647   6.886   5.053   2.212  0.1024  2.3230 -0.6937
15919SOL     OW50648   3.197   3.991   7.718  0.4271  0.4209 -0.7504
15919SOL    HW150649   3.122   4.037   7.681  0.0516  1.4421  1.1595
15919SOL    HW250650   3.246   4.058   7.765  0.9657 -0.7427  0.4228
15920SOL     OW50651   4.668   1.637   1.280 -0.6327  0.4090 -0.1631
15920SOL    HW150652   4.687   1.704   1.214 -0.7496 -0.0275 -0.6414
15920SOL    HW250653   4.574   1.644   1.295 -0.5159  0.8924  0.3825
15921SOL     OW50654   2.084   0.735   2.236  0.8070 -0.0047 -0.1868
15921SOL    HW150655   2.112   0.776   2.318  0.8267  1.5825 -0.9625
15921SOL    HW250656   2.112   0.644   2.245  2.2902  0.5073  0.8864
15922SOL     OW50657   2.132   0.224   8.559 -0.6086 -0.1400 -0.4135
15922SOL    HW150658   2.129   0.219   8.464 -1.3763  1.3966 -0.4982
15922SOL    HW250659   2.106   0.137   8.589  1.9460 -1.3895 -1.5720
15923SOL     OW50660   2.658   4.331   9.160  0.6132  0.8455 -0.0771
15923SOL    HW150661   2.750   4.342   9.187  0.1886  1.6389  1.1686
15923SOL    HW250662   2.628   4.254   9.208  0.8399  0.0719 -1.1402
15924SOL     OW50663   8.504   0.862   9.198  0.2850  0.1718  0.3459
15924SOL    HW150664   8.596   0.842   9.215  0.4585  1.2037  0.6423
15924SOL    HW250665   8.455   0.801   9.254  0.7341 -1.5284 -1.0222
15925SOL     OW50666   1.162   0.143   7.084  0.1908 -0.5135  0.4288
15925SOL    HW150667   1.222   0.070   7.096 -2.2590 -2.6596  0.4928
15925SOL    HW250668   1.075   0.105   7.096 -1.4184  1.7259 -2.5751
15926SOL     OW50669   2.735   7.115   3.660 -0.1341 -0.1975 -0.2628
15926SOL    HW150670   2.829   7.105   3.679 -0.3484 -1.4052  0.2487
15926SOL    HW250671   2.715   7.045   3.598 -0.1249  1.8131 -2.6836
15927SOL     OW50672   3.284   1.641   8.542  0.0777 -0.0320  0.0586
15927SOL    HW150673   3.264   1.702   8.613  0.5412  0.4034 -0.1724
15927SOL    HW250674   3.227   1.566   8.557  0.4668 -0.1321  1.1245
15928SOL     OW50675   7.639   4.344   3.892 -0.3681  0.3558 -0.1580
15928SOL    HW150676   7.724   4.364   3.931 -0.0199 -0.6902 -0.3606
15928SOL    HW250677   7.595   4.289   3.957 -0.0633 -0.8146 -0.9266
15929SOL     OW50678   2.232   4.897   9.132 -0.0017 -0.3333  0.2429
15929SOL    HW150679   2.255   4.972   9.187  0.2623 -0.8598  0.8588
15929SOL    HW250680   2.316   4.855   9.113 -0.0781 -0.0955 -0.6628
15930SOL     OW50681   7.627   1.732   0.362 -0.0060 -0.3547  0.4848
15930SOL    HW150682   7.718   1.739   0.390 -0.1680  2.4993  0.5506
15930SOL    HW250683   7.577   1.732   0.444 -0.1438 -0.6614  0.4041
15931SOL     OW50684   5.918   1.341   1.711  0.2966  0.2221  0.1489
15931SOL    HW150685   5.895   1.251   1.688  1.4630  0.1935 -1.0372
15931SOL    HW250686   5.871   1.394   1.646  0.3420  0.4182  0.2756
15932SOL     OW50687   2.451   6.070   7.202  0.5135 -0.2524  0.6319
15932SOL    HW150688   2.396   6.013   7.254  0.4581  0.2059  1.0835
15932SOL    HW250689   2.524   6.015   7.173  1.2494 -0.1973  2.2934
15933SOL     OW50690   0.257   7.922   0.202 -0.0352 -0.3522  0.3738
15933SOL    HW150691   0.351   7.914   0.184  0.0002 -1.9402  1.1431
15933SOL    HW250692   0.216   7.871   0.132 -0.3195  0.0563  0.2398
15934SOL     OW50693   4.650   0.538   7.534  0.5208  0.1567  0.3303
15934SOL    HW150694   4.699   0.523   7.615  1.1066 -1.2631 -0.2714
15934SOL    HW250695   4.563   0.564   7.564  0.5919 -0.7998  1.4346
15935SOL     OW50696   5.254   8.520   7.447 -0.0219  0.1058  0.0041
15935SOL    HW150697   5.349   8.506   7.454 -0.0223  0.5242  1.0280
15935SOL    HW250698   5.219   8.492   7.532 -0.9870 -1.2462 -0.7961
15936SOL     OW50699   0.957   6.981   5.092 -0.1467 -0.1984  0.9002
15936SOL    HW150700   1.019   7.016   5.157 -0.6710  0.1337  1.2265
15936SOL    HW250701   0.871   6.989   5.134 -0.4200 -0.6028  0.4259
15937SOL     OW50702   2.834   7.035   0.459  0.1140 -0.0628 -0.0650
15937SOL    HW150703   2.757   6.979   0.463  0.6844 -0.9100 -0.5498
15937SOL    HW250704   2.855   7.041   0.366  1.0021 -0.3798  0.1037
15938SOL     OW50705   1.053   6.606   0.047  0.5112  0.4721  0.3171
15938SOL    HW150706   1.029   6.670  -0.019  0.2095 -1.1093 -1.1767
15938SOL    HW250707   1.148   6.614   0.056  0.2780  2.4098  1.5997
15939SOL     OW50708   0.075   2.552   1.879  0.1040 -0.0033  0.1346
15939SOL    HW150709   0.079   2.635   1.832 -0.4399 -0.2592 -0.3737
15939SOL    HW250710   0.024   2.571   1.957  1.6147  0.5964  1.0139
15940SOL     OW50711   2.958   5.565   4.903  0.8761 -0.6471 -0.2591
15940SOL    HW150712   2.957   5.660   4.890  0.5943 -0.9132 -2.6746
15940SOL    HW250713   3.049   5.544   4.922  1.2571 -0.0197 -1.2949
15941SOL     OW50714   5.098   1.442   6.931 -0.1030  0.4243  0.0716
15941SOL    HW150715   5.171   1.501   6.952  0.3644  0.0920 -0.5570
15941SOL    HW250716   5.079   1.460   6.838 -1.0529  0.7446  0.3206
15942SOL     OW50717   4.339   4.945   5.335 -0.3065 -0.7148 -0.0853
15942SOL    HW150718   4.425   4.917   5.302 -0.0553 -0.5705  0.4338
15942SOL    HW250719   4.291   4.971   5.257  0.2403 -0.4835 -0.3511
15943SOL     OW50720   4.326   7.993   4.714  0.2264 -0.5721 -0.4197
15943SOL    HW150721   4.298   7.935   4.643 -0.9297 -0.2770 -0.2356
15943SOL    HW250722   4.259   8.062   4.715  1.2840  0.4907 -0.3050
15944SOL     OW50723   2.369   6.558   9.019  0.5436  0.5544  0.8989
15944SOL    HW150724   2.308   6.523   9.084  1.2291  1.4054  2.0253
15944SOL    HW250725   2.338   6.522   8.935  0.5414 -1.8299  1.8343
15945SOL     OW50726   2.126   3.297   5.869 -0.1616  0.0917 -0.7007
15945SOL    HW150727   2.098   3.219   5.916 -0.0238  0.5109  0.0935
15945SOL    HW250728   2.079   3.369   5.912 -0.0789  0.4775 -1.2457
15946SOL     OW50729   4.237   9.019   0.377 -0.0658  0.4196 -0.2545
15946SOL    HW150730   4.332   9.017   0.389 -0.2907  1.1652  2.2290
15946SOL    HW250731   4.217   9.110   0.360 -0.3087  0.1780 -1.3075
15947SOL     OW50732   8.893   8.219   5.320  0.4550 -0.0402 -0.1458
15947SOL    HW150733   8.973   8.185   5.281  1.1234 -0.1078  1.2252
15947SOL    HW250734   8.839   8.246   5.245  1.1407 -1.3246 -1.1440
15948SOL     OW50735   1.327   2.563   5.219 -0.1156 -0.5028  0.2385
15948SOL    HW150736   1.316   2.529   5.308 -0.7097 -2.0025 -0.3818
15948SOL    HW250737   1.251   2.620   5.206  1.2402  1.7680  1.5250
15949SOL     OW50738   8.569   1.423   4.738 -0.5985  0.8255 -0.0547
15949SOL    HW150739   8.510   1.447   4.666  0.9456 -0.3020 -1.7721
15949SOL    HW250740   8.596   1.507   4.775  0.4617  1.5792 -2.4001
15950SOL     OW50741   4.986   8.284   6.221  0.4887 -0.6248 -0.2292
15950SOL    HW150742   5.014   8.353   6.280  1.5720  0.1318 -1.5584
15950SOL    HW250743   4.891   8.284   6.227  0.3889  1.6568 -0.8970
15951SOL     OW50744   2.761   9.030   3.743  0.1232 -0.0664  0.2590
15951SOL    HW150745   2.808   9.017   3.661  1.8663 -0.2804  1.2320
15951SOL    HW250746   2.789   8.957   3.799 -0.8238  0.2125  1.1297
15952SOL     OW50747   8.249   5.524   4.559  0.0618 -0.2940 -0.0803
15952SOL    HW150748   8.337   5.499   4.589  1.2011  2.4625 -0.8512
15952SOL    HW250749   8.220   5.590   4.622 -0.5929  0.3027 -0.9765
15953SOL     OW50750   0.544   7.324   3.199 -0.2600  0.7929 -0.1479
15953SOL    HW150751   0.526   7.245   3.147 -0.3447  0.0356  1.0028
15953SOL    HW250752   0.616   7.300   3.256 -0.7116  1.3274  0.6820
15954SOL     OW50753   4.260   8.714   2.122  0.8431  0.0723 -0.6707
15954SOL    HW150754   4.228   8.712   2.212  0.0950  0.2366 -0.9262
15954SOL    HW250755   4.303   8.629   2.110 -2.1700 -1.5032 -1.2439
15955SOL     OW50756   5.958   6.326   3.805  0.0519 -0.1166 -0.2583
15955SOL    HW150757   6.050   6.334   3.778  0.1458 -0.3201 -0.0039
15955SOL    HW250758   5.917   6.276   3.735  0.0480  0.3066 -0.5616
15956SOL     OW50759   3.515   4.461   8.052  0.4699 -0.1235 -0.0297
15956SOL    HW150760   3.484   4.528   8.112  0.0042  1.6704 -2.1125
15956SOL    HW250761   3.595   4.498   8.015  2.4627 -2.5056  1.5993
15957SOL     OW50762   3.573   2.210   5.219  0.5329 -0.1365  0.1789
15957SOL    HW150763   3.642   2.178   5.161  0.6372 -0.5777  0.5437
15957SOL    HW250764   3.539   2.131   5.262  0.3214  0.1633  0.5673
15958SOL     OW50765   0.859   0.149   3.631 -0.0956  0.7997  0.1902
15958SOL    HW150766   0.883   0.162   3.539 -1.1230  0.3668 -0.1426
15958SOL    HW250767   0.848   0.055   3.639 -2.6135  1.0184  0.0730
15959SOL     OW50768   8.108   6.436   5.117 -0.1595  0.2017 -0.1730
15959SOL    HW150769   8.179   6.497   5.138  1.4875 -1.4611 -0.6325
15959SOL    HW250770   8.063   6.421   5.200 -0.7351  2.1228 -0.0801
15960SOL     OW50771   6.715   7.477   7.439 -0.0282  0.4985  0.1445
15960SOL    HW150772   6.686   7.538   7.371 -1.9175  0.1414  0.5689
15960SOL    HW250773   6.647   7.482   7.506  1.5087  0.4066  1.7606
15961SOL     OW50774   8.617   1.115   8.849  0.3151  0.1885 -0.9094
15961SOL    HW150775   8.567   1.064   8.785  1.4822  0.3363 -1.9905
15961SOL    HW250776   8.693   1.060   8.869 -0.2113 -0.0170  0.6637
15962SOL     OW50777   6.412   3.974   0.831 -0.1437 -0.2070  0.2734
15962SOL    HW150778   6.475   3.905   0.853 -0.9625 -0.5421  1.7280
15962SOL    HW250779   6.453   4.055   0.860  1.1093  0.0519 -2.0460
15963SOL     OW50780   1.987   4.020   3.620 -0.1492 -0.4435  0.3531
15963SOL    HW150781   1.971   3.927   3.605 -0.0269 -0.1840 -1.6184
15963SOL    HW250782   2.000   4.057   3.533 -0.4954  1.4909  1.0695
15964SOL     OW50783   5.193   2.537   2.109 -0.0119 -0.2954 -0.1813
15964SOL    HW150784   5.225   2.447   2.106  3.4397  0.7863 -1.5672
15964SOL    HW250785   5.243   2.577   2.181 -1.2694  0.6266  0.2087
15965SOL     OW50786   3.589   6.698   0.902 -0.3821  0.1829  0.0963
15965SOL    HW150787   3.583   6.766   0.969 -3.5556  1.1971 -1.0358
15965SOL    HW250788   3.614   6.744   0.822 -0.9004 -0.2717 -0.3381
15966SOL     OW50789   6.416   8.109   5.321 -0.9771  0.2924  0.0898
15966SOL    HW150790   6.339   8.073   5.276 -1.5385  2.2054 -0.5859
15966SOL    HW250791   6.464   8.032   5.351 -1.3693 -1.0591 -2.4469
15967SOL     OW50792   4.827   8.229   1.690  0.1063 -0.1004 -0.6922
15967SOL    HW150793   4.786   8.306   1.729 -1.5507 -0.7967 -0.9891
15967SOL    HW250794   4.901   8.210   1.748 -1.3217 -0.1466  1.2071
15968SOL     OW50795   2.021   2.385   0.728 -0.0189 -0.1395  0.1805
15968SOL    HW150796   1.963   2.427   0.665 -1.1895 -1.7733  0.1111
15968SOL    HW250797   1.963   2.352   0.796  0.9491 -0.8382  0.6945
15969SOL     OW50798   8.473   0.799   6.959  0.4835 -0.1410  0.7032
15969SOL    HW150799   8.495   0.874   7.015  1.2967  1.0021 -1.0708
15969SOL    HW250800   8.399   0.828   6.906  0.3966 -0.8219  0.4348
15970SOL     OW50801   7.116   3.957   2.070 -0.8006  0.4590  0.3999
15970SOL    HW150802   7.034   4.005   2.084 -0.7334  0.7306 -0.0721
15970SOL    HW250803   7.096   3.896   1.998 -0.4371  0.9383 -0.1215
15971SOL     OW50804   5.428   1.552   3.058  0.0279 -0.3821  0.0008
15971SOL    HW150805   5.435   1.522   3.149  0.5899  0.5257  0.2708
15971SOL    HW250806   5.436   1.472   3.006 -0.6016 -0.9494  0.7540
15972SOL     OW50807   4.759   8.855   9.061  0.2106  0.5397  0.3114
15972SOL    HW150808   4.668   8.829   9.044  0.0086  0.5206  1.3880
15972SOL    HW250809   4.761   8.949   9.043 -0.1886  0.6698  0.9119
15973SOL     OW50810   7.053   6.656   5.684  0.6685  0.4791  0.1487
15973SOL    HW150811   6.986   6.593   5.656  1.0679  0.5126 -0.9216
15973SOL    HW250812   7.036   6.734   5.631  1.0235  0.7971  0.4986
15974SOL     OW50813   5.869   7.247   1.791 -0.1942  0.4843 -0.4289
15974SOL    HW150814   5.877   7.189   1.715  1.3789  0.3768 -0.2087
15974SOL    HW250815   5.954   7.291   1.797  0.3187 -0.6496  2.1867
15975SOL     OW50816   7.044   7.694   1.029 -0.5390  0.5013  0.2072
15975SOL    HW150817   7.029   7.735   0.944  0.8465  0.6213 -0.0063
15975SOL    HW250818   7.063   7.602   1.008 -0.3536  0.4965  0.3924
15976SOL     OW50819   7.680   5.180   3.312 -0.5045 -0.9801  0.2703
15976SOL    HW150820   7.587   5.169   3.331 -1.4182  2.0413 -1.6566
15976SOL    HW250821   7.685   5.177   3.216  1.4851 -1.5291  0.3592
15977SOL     OW50822   9.203   8.248   2.999  0.3478 -0.0098 -0.2948
15977SOL    HW150823   9.256   8.205   3.066  2.0834  2.6687  0.2154
15977SOL    HW250824   9.131   8.288   3.047  0.4708  0.2059 -0.2839
15978SOL     OW50825   4.432   3.765   0.785 -0.0342 -0.2839  0.0341
15978SOL    HW150826   4.364   3.833   0.785 -0.8106 -1.0446 -0.8329
15978SOL    HW250827   4.429   3.727   0.698  0.2751 -1.5597  0.5566
15979SOL     OW50828   4.134   2.995   8.004  0.4592  0.6770  0.2085
15979SOL    HW150829   4.083   2.927   8.047 -1.1618  2.0092  0.4742
15979SOL    HW250830   4.161   3.053   8.074  1.2313  0.7177 -0.1068
15980SOL     OW50831   7.766   3.243   7.296 -0.1726  0.7851 -0.3537
15980SOL    HW150832   7.708   3.241   7.220 -0.8004 -0.1467  0.1299
15980SOL    HW250833   7.746   3.163   7.344  3.4181 -1.0794 -1.5676
15981SOL     OW50834   0.354   1.314   4.949 -0.8499 -0.3831  0.0520
15981SOL    HW150835   0.307   1.351   5.025 -0.6435 -1.5026  0.7508
15981SOL    HW250836   0.446   1.324   4.971 -0.6952  1.5785 -1.2096
15982SOL     OW50837   3.610   3.410   6.718 -0.0873  0.0744  0.8800
15982SOL    HW150838   3.540   3.345   6.717 -1.0449  1.0650  1.0995
15982SOL    HW250839   3.564   3.494   6.719  1.1096  0.7449  1.5142
15983SOL     OW50840   5.317   2.993   8.458 -0.1536  0.0203  0.1499
15983SOL    HW150841   5.401   3.028   8.488  0.2537 -2.6960  2.5731
15983SOL    HW250842   5.336   2.903   8.432 -2.4563 -1.1007  2.0177
15984SOL     OW50843   1.136   0.439   1.473 -0.3908 -0.3491 -0.5982
15984SOL    HW150844   1.117   0.369   1.410  0.4000 -1.1195 -0.0070
15984SOL    HW250845   1.141   0.518   1.420  1.5545 -1.1625 -1.7292
15985SOL     OW50846   5.332   7.022   3.782  0.0485  0.2869  0.7867
15985SOL    HW150847   5.417   7.015   3.825  0.0425  2.9747  1.4288
15985SOL    HW250848   5.273   6.968   3.836  0.4329  2.0955  3.1700
15986SOL     OW50849   3.642   1.411   6.422  0.1530  0.0994 -0.0448
15986SOL    HW150850   3.675   1.489   6.376 -1.6289  0.8060 -0.2040
15986SOL    HW250851   3.547   1.415   6.411 -0.1441 -0.9945  1.6887
15987SOL     OW50852   1.118   3.540   8.845  0.5683 -0.5340 -0.0278
15987SOL    HW150853   1.175   3.464   8.842 -1.2980 -2.0362  0.3770
15987SOL    HW250854   1.093   3.548   8.937  1.6008  1.3081  0.1462
15988SOL     OW50855   2.044   2.624   2.294  0.3170 -0.9827 -0.3644
15988SOL    HW150856   2.131   2.584   2.283  0.8716 -0.1681  0.7825
15988SOL    HW250857   2.008   2.581   2.371 -0.0358 -0.8559 -0.4573
15989SOL     OW50858   3.178   2.967   1.192 -0.1844  0.1316 -0.4266
15989SOL    HW150859   3.242   2.947   1.260 -2.3592  1.2108  2.1324
15989SOL    HW250860   3.198   3.057   1.166  0.6120 -0.2606 -1.2180
15990SOL     OW50861   0.786   7.357   4.632 -0.2603  0.1512  0.3097
15990SOL    HW150862   0.780   7.452   4.640  1.1798  0.3047 -0.2148
15990SOL    HW250863   0.834   7.343   4.551  0.0806 -1.0190  0.7010
15991SOL     OW50864   3.488   7.809   6.422  0.8477  0.0539  0.0218
15991SOL    HW150865   3.528   7.734   6.467 -0.9234 -1.5740 -0.9410
15991SOL    HW250866   3.462   7.774   6.336 -0.7391  1.5703 -0.1659
15992SOL     OW50867   1.181   4.758   2.158  0.1541 -0.5300  0.2287
15992SOL    HW150868   1.088   4.755   2.177  0.1815  0.1730  0.4762
15992SOL    HW250869   1.207   4.666   2.151 -0.3419 -0.7563  1.2358
15993SOL     OW50870   9.113   4.847   2.058  0.1963 -0.2667  0.2503
15993SOL    HW150871   9.053   4.920   2.073  0.6190  0.1243  0.0293
15993SOL    HW250872   9.092   4.785   2.128 -0.8276 -0.3753 -0.1332
15994SOL     OW50873   0.709   8.992   0.581 -0.7660 -0.3944  0.5792
15994SOL    HW150874   0.756   9.062   0.535 -2.1966  0.2254  0.0042
15994SOL    HW250875   0.674   9.035   0.660  1.8448 -1.4942  2.4819
15995SOL     OW50876   5.735   8.772   6.897  0.6839 -0.0653  0.3582
15995SOL    HW150877   5.798   8.838   6.868  0.8189 -1.1127 -2.0083
15995SOL    HW250878   5.700   8.736   6.815 -2.1527 -0.3425  1.5799
15996SOL     OW50879   4.311   2.319   0.649 -0.4169 -0.1723 -0.1519
15996SOL    HW150880   4.333   2.234   0.611  0.6539 -0.0787  0.2161
15996SOL    HW250881   4.339   2.313   0.740 -1.8317  0.0247  0.3290
15997SOL     OW50882   1.957   6.872   1.249  0.0843  0.7335  0.6846
15997SOL    HW150883   1.995   6.931   1.184  1.5854  0.8576  1.6333
15997SOL    HW250884   2.031   6.821   1.281 -1.2991 -2.6242 -0.9772
15998SOL     OW50885   4.215   3.268   6.512 -0.5218 -0.0848  0.4370
15998SOL    HW150886   4.281   3.302   6.574  0.7754 -0.1333 -0.8587
15998SOL    HW250887   4.147   3.335   6.511  0.8201  1.3359 -0.2301
15999SOL     OW50888   2.710   8.281   6.792 -0.0666  0.2806  0.6015
15999SOL    HW150889   2.734   8.198   6.834 -1.6158  0.2770  1.5428
15999SOL    HW250890   2.623   8.301   6.826 -0.8123  1.0023 -1.5731
16000SOL     OW50891   7.734   3.418   4.239 -0.4036 -0.1066  0.2593
16000SOL    HW150892   7.641   3.424   4.216 -0.3655  0.4358  0.2357
16000SOL    HW250893   7.779   3.403   4.156 -0.5680 -1.5851  0.4109
16001SOL     OW50894   0.482   8.401   7.624 -0.6439 -0.0891  0.2538
16001SOL    HW150895   0.517   8.482   7.588  0.0373 -0.9792 -1.2051
16001SOL    HW250896   0.449   8.425   7.711  0.2802  1.5578  0.1902
16002SOL     OW50897   0.566   5.782   8.498  0.2921  0.4375 -0.2069
16002SOL    HW150898   0.630   5.714   8.519  0.4923  0.7510  0.2169
16002SOL    HW250899   0.533   5.811   8.583 -0.0090  0.6606 -0.3980
16003SOL     OW50900   1.513   4.677   6.405 -0.0487 -0.4879 -0.2558
16003SOL    HW150901   1.531   4.600   6.351 -0.2853 -0.5626 -0.2328
16003SOL    HW250902   1.482   4.641   6.488 -0.3485 -0.3673 -0.3146
16004SOL     OW50903   8.525   0.628   7.846  0.4808  0.0224 -0.2277
16004SOL    HW150904   8.550   0.718   7.868 -0.9218  0.4099 -0.1771
16004SOL    HW250905   8.478   0.636   7.764  0.4716 -0.6944 -0.2932
16005SOL     OW50906   1.201   0.584   1.978 -0.2410  0.0613 -0.1599
16005SOL    HW150907   1.240   0.497   1.976 -1.2961 -0.5760  2.4273
16005SOL    HW250908   1.262   0.636   2.031 -0.9737  0.0825  0.6943
16006SOL     OW50909   2.412   8.223   4.308 -0.0419  0.4508  0.0324
16006SOL    HW150910   2.375   8.274   4.380  1.7806  0.3385  1.1035
16006SOL    HW250911   2.398   8.278   4.231  0.2328  1.7656  0.8838
16007SOL     OW50912   0.915   4.442   5.271 -0.2230  0.1966 -0.1999
16007SOL    HW150913   0.856   4.452   5.345  0.8032 -1.7221  0.9409
16007SOL    HW250914   0.870   4.486   5.198 -2.1588  0.4040  1.0618
16008SOL     OW50915   2.069   5.254   3.218 -0.5221  0.1979  0.3284
16008SOL    HW150916   2.007   5.254   3.291 -0.5819 -1.0840  0.3020
16008SOL    HW250917   2.022   5.298   3.147 -0.7974  0.6694  0.7977
16009SOL     OW50918   0.934   5.984   3.473 -0.0620 -0.5992 -0.1361
16009SOL    HW150919   0.970   6.029   3.550 -1.9424 -0.6131  0.8050
16009SOL    HW250920   1.003   5.990   3.407  1.1711  0.3880  1.1897
16010SOL     OW50921   5.485   3.105   3.583 -0.1827 -0.3498  0.0715
16010SOL    HW150922   5.460   3.012   3.581 -1.2964 -0.0458 -0.5507
16010SOL    HW250923   5.574   3.104   3.618 -0.4817 -1.5878  0.8675
16011SOL     OW50924   5.511   7.350   6.128  0.2579  0.3979 -0.0648
16011SOL    HW150925   5.523   7.255   6.135  0.1709  0.4604  1.3501
16011SOL    HW250926   5.448   7.362   6.057 -0.3054 -0.6528  0.2379
16012SOL     OW50927   2.074   7.472   1.474  0.2335  0.2502  0.5812
16012SOL    HW150928   2.081   7.379   1.496 -0.8648  0.5134  2.1741
16012SOL    HW250929   2.148   7.513   1.519  0.5998  0.2021  0.0426
16013SOL     OW50930   1.076   8.398   0.478 -0.4353  0.1405 -0.3487
16013SOL    HW150931   1.077   8.422   0.385 -0.2378 -0.2416 -0.4431
16013SOL    HW250932   1.149   8.338   0.489  0.5541  1.4179  0.3935
16014SOL     OW50933   6.609   0.174   2.242 -0.0214 -0.1489  0.6157
16014SOL    HW150934   6.562   0.139   2.167  1.3577  0.1786 -0.4402
16014SOL    HW250935   6.659   0.100   2.276  0.3234 -0.0027  0.4311
16015SOL     OW50936   2.384   3.721   0.649 -0.0965 -0.3132  0.4513
16015SOL    HW150937   2.443   3.736   0.574 -0.3899  1.5406  0.5275
16015SOL    HW250938   2.442   3.694   0.720  0.7654  1.5952  0.5588
16016SOL     OW50939   4.553   6.840   0.482 -0.4747  0.4784 -0.2834
16016SOL    HW150940   4.633   6.887   0.457 -0.2074  0.2255  0.0770
16016SOL    HW250941   4.531   6.875   0.569 -0.2863 -0.0384 -0.0205
16017SOL     OW50942   6.694   3.747   2.424  0.4129 -0.3689  0.1621
16017SOL    HW150943   6.778   3.737   2.469  0.0358 -0.3732  0.8767
16017SOL    HW250944   6.638   3.680   2.462 -0.2880  0.4433  0.5979
16018SOL     OW50945   4.209   6.758   4.061  0.3292  0.1485  0.2113
16018SOL    HW150946   4.150   6.816   4.108 -1.1317 -2.1776  1.4761
16018SOL    HW250947   4.294   6.773   4.102 -0.1219  1.0031  0.8718
16019SOL     OW50948   1.392   3.208   6.376 -0.1302  0.0631  0.1063
16019SOL    HW150949   1.324   3.265   6.413  0.1192 -1.2417  2.8543
16019SOL    HW250950   1.358   3.119   6.389 -0.2508 -0.5565 -3.5109
16020SOL     OW50951   0.658   1.863   1.877  0.2445 -0.2924  0.1347
16020SOL    HW150952   0.673   1.901   1.964 -0.3747 -1.1352  0.6374
16020SOL    HW250953   0.596   1.792   1.894  0.4991 -0.7779 -0.9362
16021SOL     OW50954   6.614   4.569   2.256  0.2248 -0.1292 -0.1809
16021SOL    HW150955   6.621   4.591   2.349 -1.6435  0.3844 -0.1258
16021SOL    HW250956   6.610   4.653   2.211  0.1681 -0.3712 -0.6387
16022SOL     OW50957   2.682   1.425   4.896  0.4823 -0.2067 -0.6327
16022SOL    HW150958   2.675   1.335   4.929  0.9287  0.4818  1.5089
16022SOL    HW250959   2.750   1.422   4.829  0.7439 -1.3995 -0.3255
16023SOL     OW50960   7.077   2.665   6.387 -0.2596  0.7998  0.4851
16023SOL    HW150961   7.126   2.662   6.469  1.3515 -1.5315 -0.4411
16023SOL    HW250962   7.029   2.582   6.385  0.4939  0.3516 -1.2846
16024SOL     OW50963   3.274   8.845   1.685  0.0440  0.5005 -0.4772
16024SOL    HW150964   3.322   8.901   1.746 -0.6536 -0.5640  1.1209
16024SOL    HW250965   3.213   8.904   1.641 -0.2606  1.1034  0.7301
16025SOL     OW50966   7.563   1.216   6.095 -0.1934 -0.2244  0.2176
16025SOL    HW150967   7.513   1.295   6.114 -0.8682 -0.9194  1.4264
16025SOL    HW250968   7.582   1.178   6.181  0.3991 -1.2103 -0.3328
16026SOL     OW50969   2.103   5.598   1.257 -0.3103  0.3012  0.5203
16026SOL    HW150970   2.048   5.532   1.299  0.1931 -0.6656 -0.3038
16026SOL    HW250971   2.067   5.682   1.288  0.3724 -0.3373  3.2737
16027SOL     OW50972   5.287   0.966   5.531  0.3519 -0.3538  0.1146
16027SOL    HW150973   5.255   1.030   5.594  0.1625 -2.0118  1.8123
16027SOL    HW250974   5.381   0.981   5.526  0.2166  0.4870 -0.0556
16028SOL     OW50975   0.337   2.842   4.683 -0.2331  0.3150 -0.2241
16028SOL    HW150976   0.315   2.922   4.635  1.4635  0.7817 -0.2883
16028SOL    HW250977   0.402   2.869   4.747  1.0676 -1.1756 -0.8518
16029SOL     OW50978   2.264   6.208   7.046  0.4994 -0.0920  0.7030
16029SOL    HW150979   2.325   6.151   7.093  2.3124  1.0492 -0.1189
16029SOL    HW250980   2.321   6.262   6.990 -1.1912  1.8078  0.7047
16030SOL     OW50981   3.405   5.284   1.399 -0.2966 -0.8207  0.5781
16030SOL    HW150982   3.492   5.246   1.384 -0.3015 -0.7270  0.2973
16030SOL    HW250983   3.366   5.289   1.311  1.4732  4.1139 -0.2968
16031SOL     OW50984   9.084   0.140   3.986 -0.4423 -0.0100  0.4382
16031SOL    HW150985   9.132   0.140   4.068  1.2781  0.7830 -0.5199
16031SOL    HW250986   8.995   0.113   4.010 -0.5099  2.0170  2.8407
16032SOL     OW50987   4.652   3.455   3.446  0.1004  0.0995 -0.3971
16032SOL    HW150988   4.556   3.456   3.446  0.0976  0.6148 -1.5275
16032SOL    HW250989   4.677   3.499   3.365  1.3235  2.0619  0.9571
16033SOL     OW50990   5.794   8.395   7.197  0.1746 -0.4180 -0.0873
16033SOL    HW150991   5.725   8.328   7.195 -0.2854  0.0682 -1.7921
16033SOL    HW250992   5.747   8.476   7.214  0.6918 -0.4189  1.5796
16034SOL     OW50993   1.206   7.706   3.941 -0.4864  0.5245 -0.4183
16034SOL    HW150994   1.278   7.673   3.888 -0.8858  0.1363 -0.7294
16034SOL    HW250995   1.239   7.787   3.980  0.0093  0.5045 -0.7947
16035SOL     OW50996   5.309   5.480   2.486 -0.4510 -0.8056 -0.9060
16035SOL    HW150997   5.307   5.429   2.567  0.0568 -1.7194 -1.4523
16035SOL    HW250998   5.226   5.458   2.443 -2.5326  2.5007  0.9855
16036SOL     OW50999   1.119   4.621   2.476 -0.1926 -0.2274 -0.3488
16036SOL    HW151000   1.203   4.665   2.463  0.5555 -1.5114 -0.0445
16036SOL    HW251001   1.075   4.674   2.542  0.7998 -0.0564  0.2101
16037SOL     OW51002   6.710   5.769   4.573 -0.0057 -0.1886  0.0010
16037SOL    HW151003   6.764   5.847   4.584  0.7724 -0.9654  1.9807
16037SOL    HW251004   6.620   5.800   4.585  0.0625  0.7883 -1.6111
16038SOL     OW51005   8.407   9.107   7.084  0.1215 -0.3106 -0.6794
16038SOL    HW151006   8.376   9.077   7.170 -0.6882  1.8572 -0.1435
16038SOL    HW251007   8.465   9.181   7.104  0.2942 -0.0726 -1.9812
16039SOL     OW51008   0.531   5.805   2.789  0.3286  0.2320 -0.5094
16039SOL    HW151009   0.501   5.781   2.702  0.9112  0.0947 -0.6766
16039SOL    HW251010   0.451   5.813   2.841 -0.0174  0.2719 -1.0430
16040SOL     OW51011   9.157   2.823   0.357 -0.2595 -0.7464  0.0746
16040SOL    HW151012   9.155   2.919   0.351 -1.7128 -0.8038 -0.7596
16040SOL    HW251013   9.217   2.805   0.430  0.1674  0.7788  0.1467
16041SOL     OW51014   5.834   4.011   4.907  0.3309 -0.3372  0.7305
16041SOL    HW151015   5.900   3.947   4.933  1.5439  0.8204  0.5551
16041SOL    HW251016   5.790   4.035   4.988  1.8617  0.7775  1.2601
16042SOL     OW51017   3.790   8.693   5.196 -0.3109  0.2419  0.2642
16042SOL    HW151018   3.778   8.768   5.253  0.6430  0.0428  0.7479
16042SOL    HW251019   3.775   8.727   5.108 -0.0574  0.9622  0.4939
16043SOL     OW51020   5.919   8.625   5.048 -0.0366  0.8691  0.5355
16043SOL    HW151021   5.941   8.652   5.137 -0.7851 -0.5890  1.2075
16043SOL    HW251022   5.996   8.577   5.017 -0.0335  0.8057  0.6430
16044SOL     OW51023   2.493   0.279   7.300  0.2703 -0.2464 -0.1140
16044SOL    HW151024   2.493   0.308   7.209  0.2253  0.0219 -0.0325
16044SOL    HW251025   2.570   0.224   7.309  1.5774  1.5638  0.2484
16045SOL     OW51026   2.884   6.333   1.959  0.6113 -0.3279 -0.5506
16045SOL    HW151027   2.830   6.411   1.968 -0.6469 -0.7862 -3.1832
16045SOL    HW251028   2.973   6.365   1.953  0.1990  0.8308 -0.6511
16046SOL     OW51029   7.613   2.905   4.007 -0.0649 -0.0114  0.0361
16046SOL    HW151030   7.536   2.857   4.039  0.8606 -1.4207  0.2615
16046SOL    HW251031   7.644   2.853   3.933  1.3118 -0.1165  0.6488
16047SOL     OW51032   6.035   7.923   5.509  0.3860 -0.0882  0.4385
16047SOL    HW151033   5.992   8.003   5.480  0.7982  0.3723  1.0541
16047SOL    HW251034   5.987   7.852   5.466 -1.1316  0.3881  1.2660
16048SOL     OW51035   8.169   4.472   0.272 -0.0684 -0.2377 -0.4012
16048SOL    HW151036   8.235   4.532   0.306  0.3727  0.0362 -1.6721
16048SOL    HW251037   8.220   4.405   0.225 -0.6822  0.1581 -1.6698
16049SOL     OW51038   6.233   2.358   4.782 -0.1887 -0.5072  0.6690
16049SOL    HW151039   6.194   2.322   4.862 -0.3736 -1.7787  0.0348
16049SOL    HW251040   6.245   2.451   4.801  0.2139 -0.8676  2.3480
16050SOL     OW51041   0.946   7.641   1.442 -0.0298  0.4361  0.8316
16050SOL    HW151042   0.918   7.668   1.529  1.4813  0.2893  1.3994
16050SOL    HW251043   0.994   7.716   1.408 -1.9468  1.1027 -0.5709
16051SOL     OW51044   7.494   8.650   6.423 -0.2220 -0.0286  0.0698
16051SOL    HW151045   7.493   8.707   6.500 -0.1107  1.4935 -0.9924
16051SOL    HW251046   7.428   8.584   6.441 -1.3163  1.2156  0.8335
16052SOL     OW51047   0.188   5.628   3.310  0.2606 -0.1130  0.2008
16052SOL    HW151048   0.253   5.578   3.261 -1.0042 -1.2008 -0.4371
16052SOL    HW251049   0.186   5.713   3.266 -0.5345 -0.9193 -1.4184
16053SOL     OW51050   1.467   8.708   0.679  0.2703 -0.1303 -0.1882
16053SOL    HW151051   1.477   8.621   0.640 -2.0166 -0.1655 -0.8837
16053SOL    HW251052   1.551   8.726   0.721  0.6727 -2.8397  0.3257
16054SOL     OW51053   4.992   6.974   0.005  0.2697 -0.4128 -0.0801
16054SOL    HW151054   5.067   6.969   0.063 -0.5826  2.2710  1.4099
16054SOL    HW251055   4.921   6.931   0.053 -0.3238  1.4168  0.7648
16055SOL     OW51056   5.972   6.696   4.057 -0.3287 -0.4237 -0.1620
16055SOL    HW151057   6.053   6.739   4.028 -0.5948  0.2570  0.0822
16055SOL    HW251058   5.997   6.604   4.069 -0.3528 -0.9026 -3.1443
16056SOL     OW51059   4.752   1.978   5.242  0.2938 -0.0276  1.0159
16056SOL    HW151060   4.737   1.898   5.294  1.4811 -0.1836  1.1287
16056SOL    HW251061   4.703   1.962   5.161  0.7641 -1.0046  0.9065
16057SOL     OW51062   7.870   5.090   5.215 -0.5070 -0.0508  0.1741
16057SOL    HW151063   7.778   5.118   5.211 -0.1666  0.9900 -2.4422
16057SOL    HW251064   7.877   5.042   5.298 -3.3450  0.0136  0.5548
16058SOL     OW51065   6.053   4.451   4.556 -0.0560 -0.6548 -0.4487
16058SOL    HW151066   6.125   4.503   4.591  0.1671 -1.8819  1.0091
16058SOL    HW251067   6.010   4.415   4.633 -0.3289 -2.4412 -1.3918
16059SOL     OW51068   3.992   7.232   6.126  0.4746  0.1245  0.2126
16059SOL    HW151069   4.037   7.317   6.132  0.5120  0.2032 -0.9104
16059SOL    HW251070   4.013   7.201   6.038  0.1507 -0.8826  0.4836
16060SOL     OW51071   7.804   9.040   4.676  0.4397 -0.0076 -0.5111
16060SOL    HW151072   7.841   8.954   4.658  1.4637  0.3919 -0.3831
16060SOL    HW251073   7.804   9.085   4.591  1.2841  0.3711 -0.3242
16061SOL     OW51074   8.332   1.203   1.824  0.0494 -0.3776  0.2370
16061SOL    HW151075   8.242   1.229   1.845  0.1542  0.8641 -0.7329
16061SOL    HW251076   8.375   1.285   1.799  0.6802 -1.3335 -2.0325
16062SOL     OW51077   2.261   6.530   2.921  0.1645  0.2010 -0.0607
16062SOL    HW151078   2.250   6.465   2.851  1.2001 -0.5735  0.4726
16062SOL    HW251079   2.353   6.524   2.945  0.0508  1.1832  0.6832
16063SOL     OW51080   8.254   5.355   1.856  0.3215 -0.0288  0.4212
16063SOL    HW151081   8.294   5.270   1.835 -1.3109 -0.9636  0.8784
16063SOL    HW251082   8.223   5.388   1.772  0.7234 -0.0175  0.2767
16064SOL     OW51083   0.214   2.509   8.049  0.3633 -0.0746 -0.3523
16064SOL    HW151084   0.170   2.448   8.109  1.7121 -0.2634  0.4833
16064SOL    HW251085   0.269   2.563   8.106  3.1649 -1.4939 -1.5531
16065SOL     OW51086   8.348   7.517   8.891 -0.2384 -0.4240  0.2943
16065SOL    HW151087   8.435   7.478   8.904 -0.2690 -0.3885  0.6062
16065SOL    HW251088   8.290   7.465   8.946  0.0648  1.3666  2.4367
16066SOL     OW51089   1.391   3.424   4.386 -0.0563 -0.2290  0.0356
16066SOL    HW151090   1.408   3.504   4.337 -0.4635  0.2659  0.6983
16066SOL    HW251091   1.406   3.447   4.478  2.5187 -1.6081  0.0781
16067SOL     OW51092   2.222   0.840   7.301 -0.0352  0.4331  0.3664
16067SOL    HW151093   2.306   0.797   7.288  0.5094  1.7337 -0.6451
16067SOL    HW251094   2.158   0.768   7.298  1.0873 -0.7304  2.3836
16068SOL     OW51095   1.163   0.840   7.234 -0.0698  0.2045 -0.7455
16068SOL    HW151096   1.132   0.819   7.146  0.9062 -2.2699 -0.5650
16068SOL    HW251097   1.202   0.759   7.267  2.1261  1.7896  0.9180
16069SOL     OW51098   7.043   1.180   4.706 -0.5773 -0.0173 -0.0252
16069SOL    HW151099   7.120   1.125   4.718 -0.8178 -0.0685  1.4533
16069SOL    HW251100   7.051   1.215   4.617 -0.7785 -2.9889 -1.3190
16070SOL     OW51101   3.167   5.646   0.784 -0.4859 -0.1810 -0.4507
16070SOL    HW151102   3.152   5.684   0.697 -1.1003  1.5689  0.3671
16070SOL    HW251103   3.238   5.698   0.821 -0.1069 -1.0252  0.0321
16071SOL     OW51104   3.020   7.693   6.715  0.4121 -0.2929  0.1451
16071SOL    HW151105   3.049   7.737   6.795 -1.2671  3.1380 -0.9432
16071SOL    HW251106   3.085   7.718   6.649  0.7063 -1.4721 -0.0363
16072SOL     OW51107   1.100   1.516   7.375 -0.3473  0.6553 -0.1391
16072SOL    HW151108   1.065   1.510   7.286  1.0174  0.8429 -0.7149
16072SOL    HW251109   1.022   1.516   7.431 -1.3016  1.7189 -1.3856
16073SOL     OW51110   0.311   9.157   9.136 -0.0380 -0.4750 -0.0318
16073SOL    HW151111   0.377   9.222   9.110 -1.5497  0.7863 -0.8801
16073SOL    HW251112   0.347   9.116   9.215  1.0448  1.2573  0.4173
16074SOL     OW51113   7.491   3.386   6.306 -0.0255 -0.3037 -0.0362
16074SOL    HW151114   7.432   3.446   6.261 -1.7964 -1.3425  0.7671
16074SOL    HW251115   7.573   3.434   6.316 -0.5200  0.9630 -1.7787
16075SOL     OW51116   4.590   5.564   2.478  0.5913 -0.0030 -0.8912
16075SOL    HW151117   4.644   5.631   2.435  2.2220  0.6432  1.9096
16075SOL    HW251118   4.643   5.535   2.552 -0.4655 -3.7974 -1.4255
16076SOL     OW51119   6.689   2.810   0.581  0.2723  0.5685 -0.0059
16076SOL    HW151120   6.669   2.728   0.536 -1.2636  0.4797  0.7849
16076SOL    HW251121   6.715   2.870   0.511 -1.4532  0.2467 -0.9744
16077SOL     OW51122   1.281   8.202   2.653  0.4056 -0.4720  0.1482
16077SOL    HW151123   1.224   8.136   2.613 -1.0067 -0.4102  1.9730
16077SOL    HW251124   1.297   8.265   2.582 -2.3412 -0.1461 -0.2949
16078SOL     OW51125   2.322   8.843   8.648 -0.2480 -0.0700  0.5339
16078SOL    HW151126   2.352   8.873   8.562  2.8111 -1.1959  1.0941
16078SOL    HW251127   2.356   8.907   8.710 -0.5972 -0.4155  1.0937
16079SOL     OW51128   5.992   5.131   2.687 -0.4311 -0.3208  0.0481
16079SOL    HW151129   5.950   5.211   2.653 -1.1803 -0.7901 -0.1457
16079SOL    HW251130   6.020   5.154   2.775  0.9915  0.7288 -0.6265
16080SOL     OW51131   5.522   3.058   7.059  0.4385 -0.1207 -0.6222
16080SOL    HW151132   5.523   3.138   7.005  0.5717  0.2836 -0.0309
16080SOL    HW251133   5.609   3.056   7.099  0.5066 -0.6799 -0.7979
16081SOL     OW51134   4.055   7.645   4.750 -0.2903 -0.3038  0.5065
16081SOL    HW151135   3.987   7.711   4.765 -1.2748 -1.0651 -0.4322
16081SOL    HW251136   4.006   7.562   4.746  0.5160 -0.7172 -1.5891
16082SOL     OW51137   6.418   4.031   2.388 -0.2284  0.5959 -0.8158
16082SOL    HW151138   6.345   4.008   2.445 -0.8941  1.1816 -1.4092
16082SOL    HW251139   6.389   4.111   2.343  1.7101  2.2892  0.7340
16083SOL     OW51140   3.171   3.026   4.264 -0.1239  0.0051 -0.2561
16083SOL    HW151141   3.262   3.051   4.281 -0.1134 -0.4811  0.4648
16083SOL    HW251142   3.159   2.944   4.313 -0.9585  0.0837 -0.3118
16084SOL     OW51143   0.859   3.098   3.466 -0.1410  0.2882 -0.0260
16084SOL    HW151144   0.889   3.029   3.525  1.3009  0.6935 -0.2401
16084SOL    HW251145   0.868   3.061   3.379 -0.1964  0.4408 -0.0969
16085SOL     OW51146   6.606   3.150   5.118  0.4101  0.1528 -0.3770
16085SOL    HW151147   6.680   3.113   5.069  1.4582 -0.3596  1.5011
16085SOL    HW251148   6.528   3.110   5.077  1.2949 -1.1027 -0.9143
16086SOL     OW51149   1.182   4.517   0.110  0.0764  0.1713 -0.3852
16086SOL    HW151150   1.188   4.588   0.046  1.7780  0.5410  0.1322
16086SOL    HW251151   1.196   4.559   0.194 -1.1656 -0.4614  0.1515
16087SOL     OW51152   5.118   1.471   2.637  0.5202  0.1199  0.2667
16087SOL    HW151153   5.096   1.478   2.730  0.0686  0.5950  0.1324
16087SOL    HW251154   5.070   1.543   2.595 -0.8680 -1.2382 -0.6045
16088SOL     OW51155   7.140   7.675   7.792 -0.1792 -0.8011  0.3239
16088SOL    HW151156   7.084   7.639   7.723 -1.8848  1.8980  0.1635
16088SOL    HW251157   7.208   7.722   7.746 -2.2588  2.4323  0.2696
16089SOL     OW51158   5.183   9.248   5.340  0.2758 -0.5660  0.4499
16089SOL    HW151159   5.143   9.219   5.258  0.2361 -0.3166  0.3776
16089SOL    HW251160   5.182   9.344   5.334 -2.4852 -0.4067  2.0677
16090SOL     OW51161   5.735   6.737   2.840  0.4336 -0.1900  0.2050
16090SOL    HW151162   5.655   6.684   2.840 -0.7072  1.4483 -0.3904
16090SOL    HW251163   5.796   6.690   2.783 -0.8925 -0.4006 -1.0883
16091SOL     OW51164   2.063   0.925   0.338 -0.5719 -0.3203 -0.0236
16091SOL    HW151165   2.015   0.844   0.317 -1.5806 -0.2860  1.8456
16091SOL    HW251166   1.994   0.988   0.360  0.2609  0.2366  1.0946
16092SOL     OW51167   8.246   3.834   6.985 -0.0084  0.3618  0.5420
16092SOL    HW151168   8.166   3.877   6.952 -0.2738 -1.8478 -2.1056
16092SOL    HW251169   8.231   3.824   7.079 -1.5293  2.5630  0.6303
16093SOL     OW51170   0.851   9.255   9.144  0.2833  0.1693 -0.0269
16093SOL    HW151171   0.767   9.253   9.191  0.1744  0.0076 -0.2234
16093SOL    HW251172   0.872   9.348   9.136 -0.5081  0.2825 -1.0661
16094SOL     OW51173   4.456   7.880   2.472  0.3407  0.2447 -0.2130
16094SOL    HW151174   4.503   7.887   2.389  1.5734 -1.9755  0.2042
16094SOL    HW251175   4.510   7.927   2.535  1.3058 -1.0948 -0.0124
16095SOL     OW51176   5.755   2.681   5.438 -0.1201 -0.2961  0.3068
16095SOL    HW151177   5.776   2.773   5.420  0.4969  0.0377  2.4437
16095SOL    HW251178   5.828   2.632   5.401  0.2845  0.2051  0.4290
16096SOL     OW51179   3.256   6.541   4.160 -0.7880  0.2554 -0.4846
16096SOL    HW151180   3.345   6.526   4.127  0.3364  0.2740  2.2976
16096SOL    HW251181   3.204   6.474   4.117  0.7091 -0.2709 -1.5900
16097SOL     OW51182   8.377   7.490   0.412 -0.1750 -0.2936  0.3269
16097SOL    HW151183   8.379   7.577   0.451  0.2217 -0.5866  0.9756
16097SOL    HW251184   8.455   7.486   0.358  0.3057 -0.5766  1.0348
16098SOL     OW51185   1.791   6.160   2.062  0.2750 -0.6167  0.5610
16098SOL    HW151186   1.739   6.140   2.140 -1.0563 -2.2373 -0.6614
16098SOL    HW251187   1.766   6.092   1.999  0.8963  0.9575 -1.4690
16099SOL     OW51188   2.240   1.306   7.965 -0.0693 -0.3879 -0.3045
16099SOL    HW151189   2.150   1.280   7.985  0.1584 -0.6599  0.3896
16099SOL    HW251190   2.292   1.270   8.037  0.4156  0.9691  0.0600
16100SOL     OW51191   8.869   5.700   5.174  0.4740  0.4818  0.7403
16100SOL    HW151192   8.950   5.739   5.142 -0.5283  1.4649 -0.7409
16100SOL    HW251193   8.887   5.606   5.179  1.2351  0.4829 -1.1552
16101SOL     OW51194   0.429   8.762   9.198  0.2583  0.2046  0.5526
16101SOL    HW151195   0.509   8.755   9.145  0.2294 -3.2118  0.7020
16101SOL    HW251196   0.415   8.673   9.230 -2.4208  1.1750  2.3657
16102SOL     OW51197   1.200   5.691   4.317 -1.2555  0.3283 -0.0928
16102SOL    HW151198   1.291   5.673   4.292 -1.4455 -2.6547  1.0314
16102SOL    HW251199   1.192   5.656   4.406 -3.5595  0.3356 -0.2492
16103SOL     OW51200   5.403   0.036   2.529  0.3091 -0.4178  0.0480
16103SOL    HW151201   5.427  -0.012   2.450  1.8868  0.0215  0.2291
16103SOL    HW251202   5.466   0.007   2.595  1.5672  2.1176  0.0757
16104SOL     OW51203   1.776   1.651   6.479 -0.1577 -0.7193 -0.4106
16104SOL    HW151204   1.773   1.556   6.493 -0.1220 -0.5609  0.7352
16104SOL    HW251205   1.827   1.684   6.553 -0.4112  0.2321 -0.6548
16105SOL     OW51206   1.289   0.164   0.415  0.5355  0.5997 -0.0030
16105SOL    HW151207   1.272   0.070   0.430 -0.6751  1.0909  2.2244
16105SOL    HW251208   1.237   0.185   0.338 -0.5520 -0.2368  0.4659
16106SOL     OW51209   1.840   0.547   6.551 -0.6339  0.1306 -0.2183
16106SOL    HW151210   1.870   0.563   6.462 -1.3780 -2.4545 -1.0376
16106SOL    HW251211   1.766   0.487   6.540 -0.2065 -0.9254  2.1678
16107SOL     OW51212   6.296   4.803   8.819 -0.1581 -0.2176  0.0438
16107SOL    HW151213   6.387   4.778   8.801  0.0777  1.0473 -0.6326
16107SOL    HW251214   6.300   4.896   8.839 -1.3012 -0.1586  0.0722
16108SOL     OW51215   1.989   6.640   6.505  0.4522  0.2383 -0.1702
16108SOL    HW151216   1.974   6.590   6.586  3.1648  0.1763  0.3906
16108SOL    HW251217   1.965   6.730   6.527  2.0455  0.4008  1.0557
16109SOL     OW51218   8.458   0.523   8.718  0.1263  0.3983  0.2712
16109SOL    HW151219   8.472   0.570   8.800  0.7476  0.1560  0.3164
16109SOL    HW251220   8.439   0.433   8.745  2.8409 -0.3063  0.1501
16110SOL     OW51221   3.514   4.921   6.465  0.2221  0.0838  0.2773
16110SOL    HW151222   3.420   4.929   6.480  0.3275  0.6941  0.6652
16110SOL    HW251223   3.523   4.849   6.403 -0.3535 -1.7198  2.1499
16111SOL     OW51224   8.375   6.051   6.405  0.3513  0.5668  0.2965
16111SOL    HW151225   8.412   5.963   6.399  0.3811  0.5211  1.0970
16111SOL    HW251226   8.287   6.042   6.370  0.8865  0.5602 -1.1019
16112SOL     OW51227   2.043   2.894   2.667  0.2426 -0.0818  0.4444
16112SOL    HW151228   2.130   2.864   2.641 -0.0067 -0.4629  0.0573
16112SOL    HW251229   2.019   2.959   2.601  0.1619 -0.0972  0.4582
16113SOL     OW51230   7.946   8.396   8.569 -0.2665  0.1034 -0.4723
16113SOL    HW151231   7.881   8.456   8.606 -1.7960 -0.6812 -1.7531
16113SOL    HW251232   7.970   8.339   8.642 -0.5445  0.8048  0.1821
16114SOL     OW51233   0.334   0.405   6.891 -0.3726 -0.1764  0.1032
16114SOL    HW151234   0.317   0.427   6.800 -0.2236 -1.6872 -0.3212
16114SOL    HW251235   0.249   0.414   6.935 -1.2363 -2.6747 -0.9123
16115SOL     OW51236   8.323   6.920   6.168  0.1563  0.0163 -0.6488
16115SOL    HW151237   8.286   6.833   6.158 -0.2942  0.0846  0.2507
16115SOL    HW251238   8.269   6.961   6.236  1.7760  0.1726  0.6085
16116SOL     OW51239   7.264   8.500   6.498 -0.4714  0.4417  0.3794
16116SOL    HW151240   7.224   8.495   6.585 -3.8492 -0.7897 -1.0816
16116SOL    HW251241   7.264   8.410   6.467 -1.0381  1.0664 -1.5619
16117SOL     OW51242   1.996   7.850   4.939 -0.2608  0.8393 -0.2110
16117SOL    HW151243   2.066   7.865   5.003 -1.2916 -1.2424  1.5208
16117SOL    HW251244   2.037   7.796   4.872  0.7491  2.7994 -1.2937
16118SOL     OW51245   8.789   7.278   6.491  0.2772 -0.6908 -0.2588
16118SOL    HW151246   8.734   7.292   6.414  0.6742 -1.3085 -0.6586
16118SOL    HW251247   8.851   7.351   6.489  1.4698 -1.6967 -1.5755
16119SOL     OW51248   1.656   4.969   5.114  0.0200  0.0451 -0.1050
16119SOL    HW151249   1.585   5.015   5.160 -0.0480 -1.3520  1.2560
16119SOL    HW251250   1.735   5.013   5.145 -0.0164 -0.9455  1.5033
16120SOL     OW51251   3.623   5.709   6.957 -0.2221 -0.2057 -0.5329
16120SOL    HW151252   3.712   5.741   6.942 -0.8397  0.9524 -2.0759
16120SOL    HW251253   3.598   5.746   7.042  0.5997 -0.1788 -0.2921
16121SOL     OW51254   8.663   0.665   5.417  0.5526 -0.0008 -0.5447
16121SOL    HW151255   8.585   0.683   5.470  0.1276 -0.9632 -0.8094
16121SOL    HW251256   8.700   0.585   5.455  0.6832 -0.2675 -1.2153
16122SOL     OW51257   8.656   1.322   1.930 -0.3988  0.1122  0.4716
16122SOL    HW151258   8.745   1.320   1.964  0.7007 -0.6917 -2.1395
16122SOL    HW251259   8.622   1.235   1.948  1.2197 -1.3505 -2.6692
16123SOL     OW51260   7.475   7.161   0.273  0.0355 -0.0627 -0.3446
16123SOL    HW151261   7.405   7.096   0.281  1.7965 -1.9160  1.3431
16123SOL    HW251262   7.468   7.193   0.183 -1.9594 -1.3257 -0.7182
16124SOL     OW51263   7.506   3.320   5.750  0.4463 -0.3919 -0.2508
16124SOL    HW151264   7.533   3.233   5.723 -2.2134 -1.9510  1.6373
16124SOL    HW251265   7.572   3.348   5.814  1.0726 -1.2147 -0.5298
16125SOL     OW51266   7.293   8.242   6.399  0.3693  0.2652  0.0814
16125SOL    HW151267   7.285   8.193   6.317 -0.1560 -0.5693  0.6177
16125SOL    HW251268   7.299   8.175   6.467 -0.1137  0.9360  0.8108
16126SOL     OW51269   5.900   6.379   6.524 -0.1364  0.1879  0.6172
16126SOL    HW151270   5.940   6.417   6.602  0.1016  0.2346  0.4746
16126SOL    HW251271   5.899   6.285   6.541 -0.8099  0.2579  1.0102
16127SOL     OW51272   6.230   7.398   8.608 -0.1151 -0.3240  0.3135
16127SOL    HW151273   6.272   7.325   8.562 -1.5213 -0.2937 -1.0775
16127SOL    HW251274   6.301   7.461   8.622  0.6346 -0.9359 -0.5976
16128SOL     OW51275   2.910   2.386   8.200 -0.0339 -0.5648  0.8154
16128SOL    HW151276   2.866   2.323   8.258 -1.8337 -0.3792 -0.2506
16128SOL    HW251277   2.899   2.349   8.113 -0.5046  0.8515  0.2418
16129SOL     OW51278   2.538   1.195   2.411 -0.5128 -0.0074 -0.0108
16129SOL    HW151279   2.586   1.178   2.492  1.2092 -1.0310 -1.1872
16129SOL    HW251280   2.594   1.255   2.362  0.1274 -1.9852 -1.8330
16130SOL     OW51281   6.808   6.744   7.868  0.2444 -0.0169  0.2466
16130SOL    HW151282   6.858   6.740   7.949  0.8890  0.5816 -0.1129
16130SOL    HW251283   6.806   6.837   7.846  0.4831 -0.2208 -0.6723
16131SOL     OW51284   4.107   3.190   7.507  0.7596  0.0808 -0.3638
16131SOL    HW151285   4.062   3.241   7.440  1.1063  0.4252 -0.3347
16131SOL    HW251286   4.101   3.243   7.587  2.8914  1.0662 -0.7908
16132SOL     OW51287   8.789   3.019   4.892  0.0637 -0.1500  0.1086
16132SOL    HW151288   8.844   3.077   4.840 -1.1455 -0.3498 -1.4556
16132SOL    HW251289   8.781   3.063   4.977 -0.7987  2.0067 -1.0061
16133SOL     OW51290   7.850   2.164   3.404 -0.0392  0.0481  0.2495
16133SOL    HW151291   7.834   2.242   3.458 -0.6345 -0.0630  0.2466
16133SOL    HW251292   7.886   2.199   3.322 -0.5835  0.3506  0.1334
16134SOL     OW51293   5.952   0.226   5.503 -0.0581  0.2126 -0.7741
16134SOL    HW151294   5.951   0.150   5.446  2.0804 -1.5467  1.3511
16134SOL    HW251295   6.044   0.251   5.510 -0.3626  1.0513  0.9493
16135SOL     OW51296   3.902   0.961   5.183  0.2984 -0.6524 -0.0790
16135SOL    HW151297   3.827   0.905   5.166 -1.7572  2.6478 -3.3857
16135SOL    HW251298   3.977   0.910   5.154 -0.8458 -3.2038  1.1541
16136SOL     OW51299   1.254   0.889   8.642  1.1206  0.4310 -0.0697
16136SOL    HW151300   1.281   0.823   8.578 -1.8155  0.6788 -1.7698
16136SOL    HW251301   1.257   0.843   8.726  0.5511 -1.4493 -1.0227
16137SOL     OW51302   4.198   7.071   8.501 -0.4089  0.6521  0.0290
16137SOL    HW151303   4.209   7.006   8.431 -2.7154 -0.1711  0.3301
16137SOL    HW251304   4.180   7.020   8.579 -1.9466  1.5951  0.3461
16138SOL     OW51305   4.854   0.168   3.019  0.4617  0.0738 -0.0948
16138SOL    HW151306   4.789   0.142   2.953  0.5068  0.2196 -0.1980
16138SOL    HW251307   4.847   0.101   3.087  1.0687 -0.6071 -0.6856
16139SOL     OW51308   7.902   9.224   4.085  0.0931 -0.2227  0.5797
16139SOL    HW151309   7.859   9.307   4.065  0.2100 -0.0398  1.0760
16139SOL    HW251310   7.960   9.208   4.011 -1.4056 -0.8803 -0.4954
16140SOL     OW51311   6.656   5.526   3.768 -0.3062 -0.0475 -0.2875
16140SOL    HW151312   6.563   5.547   3.760 -0.6640 -1.4128  0.0438
16140SOL    HW251313   6.668   5.448   3.714  1.3199  1.7620 -2.8058
16141SOL     OW51314   6.551   7.490   4.230  0.2952 -0.3311 -0.0182
16141SOL    HW151315   6.591   7.574   4.208  2.3049 -1.2328  0.0699
16141SOL    HW251316   6.491   7.511   4.302 -0.4109  1.2613 -1.0131
16142SOL     OW51317   1.122   6.287   1.998 -0.2264 -0.0477 -0.1237
16142SOL    HW151318   1.039   6.293   1.950 -0.1218 -0.0794 -0.3125
16142SOL    HW251319   1.188   6.277   1.929 -0.0454  0.1788  0.0148
16143SOL     OW51320   4.728   4.126   9.073  0.0632 -0.0447 -0.3438
16143SOL    HW151321   4.810   4.103   9.028 -0.9783 -0.9925 -1.8585
16143SOL    HW251322   4.718   4.058   9.139  1.4389  1.1700  1.2028
16144SOL     OW51323   5.116   2.374   5.603 -0.7184 -0.0566 -0.2637
16144SOL    HW151324   5.131   2.468   5.610  2.5254 -0.4981  0.1869
16144SOL    HW251325   5.109   2.358   5.509 -0.9554  0.5699 -0.3587
16145SOL     OW51326   8.482   1.761   0.358  0.2922 -0.3467 -0.0623
16145SOL    HW151327   8.420   1.753   0.285 -0.5345 -0.0504  0.5928
16145SOL    HW251328   8.522   1.674   0.365  0.1666 -0.4568 -0.6778
16146SOL     OW51329   1.087   8.068   5.402 -0.2597  0.3278 -0.2831
16146SOL    HW151330   1.015   8.096   5.457 -1.2145  1.2957 -1.9343
16146SOL    HW251331   1.096   8.137   5.336  3.0420  0.9006  0.5689
16147SOL     OW51332   3.010   6.358   0.747  0.2828  0.0522  0.2973
16147SOL    HW151333   3.020   6.264   0.729 -2.4052 -0.2412  0.0071
16147SOL    HW251334   3.052   6.400   0.672  1.2873 -0.8883  0.2947
16148SOL     OW51335   1.140   2.084   1.936 -0.4603 -0.1184  0.5917
16148SOL    HW151336   1.059   2.135   1.927 -0.7980  0.3901  4.5848
16148SOL    HW251337   1.209   2.150   1.940 -0.3193 -0.2811  0.8774
16149SOL     OW51338   4.991   0.398   8.333  0.5353 -0.6381  0.2564
16149SOL    HW151339   5.030   0.313   8.354 -0.2209 -1.3321 -0.9887
16149SOL    HW251340   4.958   0.387   8.243  0.5381  1.0155  0.0230
16150SOL     OW51341   4.182   3.598   8.970 -0.0948 -0.1594 -0.1901
16150SOL    HW151342   4.198   3.682   9.013  0.9450  0.3831 -1.5750
16150SOL    HW251343   4.162   3.538   9.042 -2.7414  1.6268  0.7276
16151SOL     OW51344   1.798   0.887   5.545  0.2054 -0.1035 -0.5696
16151SOL    HW151345   1.811   0.980   5.565  0.7501 -0.5943  1.5932
16151SOL    HW251346   1.709   0.869   5.577  0.6048 -0.6136  0.2823
16152SOL     OW51347   6.529   1.570   3.811 -0.1358 -0.0539  1.4755
16152SOL    HW151348   6.551   1.493   3.758 -1.9649  0.7588 -0.6227
16152SOL    HW251349   6.603   1.580   3.870  0.8533 -2.5332  0.7853
16153SOL     OW51350   7.612   5.050   8.885 -0.5473 -0.3004 -0.3250
16153SOL    HW151351   7.689   5.071   8.938 -2.1003  0.1499  1.9168
16153SOL    HW251352   7.576   5.135   8.860 -1.0690 -0.4748 -0.1838
16154SOL     OW51353   6.528   3.572   9.139  0.6423  0.0033 -0.2009
16154SOL    HW151354   6.502   3.606   9.225 -0.8893 -1.8348  0.1219
16154SOL    HW251355   6.456   3.598   9.081  1.0655  0.1424 -0.6689
16155SOL     OW51356   9.225   7.961   4.633  0.3911  0.4379  0.1361
16155SOL    HW151357   9.255   8.051   4.648 -1.2103  0.7728  1.7393
16155SOL    HW251358   9.130   7.969   4.620  0.2713 -0.9911 -0.0331
16156SOL     OW51359   0.095   7.386   1.435 -0.3345 -0.0932 -0.8261
16156SOL    HW151360   0.173   7.441   1.425  0.8487 -1.4532  0.4509
16156SOL    HW251361   0.077   7.354   1.346  0.1948  0.6943 -1.2351
16157SOL     OW51362   6.623   4.442   6.222  0.5311 -0.3935  0.3210
16157SOL    HW151363   6.666   4.488   6.151  0.9862 -1.2605  0.0161
16157SOL    HW251364   6.694   4.408   6.277  0.2029 -0.3378  0.7940
16158SOL     OW51365   1.244   8.472   1.019 -0.4847 -0.0481  0.3025
16158SOL    HW151366   1.184   8.513   0.956 -0.4913 -0.4652  0.0382
16158SOL    HW251367   1.311   8.539   1.034 -0.5488  0.0993 -0.0545
16159SOL     OW51368   3.748   5.156   7.791  0.5457 -0.7340 -0.2913
16159SOL    HW151369   3.775   5.082   7.846 -1.3947 -1.2482  0.0568
16159SOL    HW251370   3.743   5.120   7.703 -1.8328 -1.5335  0.0753
16160SOL     OW51371   3.791   1.293   4.766  1.2135 -0.1366 -0.1332
16160SOL    HW151372   3.716   1.261   4.815  0.9383 -1.3044 -1.2447
16160SOL    HW251373   3.861   1.300   4.830  0.5489 -0.4482  0.6419
16161SOL     OW51374   6.916   4.807   4.294  0.2391  0.3345  0.4773
16161SOL    HW151375   6.908   4.713   4.313 -1.7314  0.2751 -0.3987
16161SOL    HW251376   6.834   4.845   4.326 -0.3935  1.2229 -1.9596
16162SOL     OW51377   2.947   3.154   1.409  0.1672  0.0689 -0.1898
16162SOL    HW151378   2.874   3.100   1.442  0.6507 -1.7511 -1.8876
16162SOL    HW251379   3.025   3.111   1.443  0.5133  1.3535  0.6861
16163SOL     OW51380   5.791   3.905   8.905  0.3962  0.0439  0.2352
16163SOL    HW151381   5.781   3.811   8.890  2.9458 -0.1309 -0.9426
16163SOL    HW251382   5.842   3.911   8.986 -1.5362  0.5626  1.4938
16164SOL     OW51383   2.003   6.185   7.879 -0.0283  0.6730  0.7766
16164SOL    HW151384   1.933   6.244   7.906 -0.4707  0.1265  0.8355
16164SOL    HW251385   1.974   6.151   7.794 -0.5986 -0.7577  1.5071
16165SOL     OW51386   2.008   7.744   6.300 -0.2342 -0.4352 -0.6271
16165SOL    HW151387   1.940   7.692   6.257 -1.4964  0.3880  0.3101
16165SOL    HW251388   2.075   7.755   6.233 -0.8775 -1.5147 -1.4901
16166SOL     OW51389   4.918   6.181   2.967  0.0556 -0.2561 -0.1841
16166SOL    HW151390   4.903   6.088   2.953  2.9654 -0.7096 -0.9251
16166SOL    HW251391   4.959   6.186   3.053 -0.4666  0.4153  0.0378
16167SOL     OW51392   8.667   3.179   1.462  0.2753  0.0355 -0.3319
16167SOL    HW151393   8.612   3.241   1.509  0.2699 -1.0163  1.1177
16167SOL    HW251394   8.612   3.145   1.393 -0.0797  0.8208 -0.4438
16168SOL     OW51395   8.514   3.015   4.803  0.1701 -0.0812  0.4001
16168SOL    HW151396   8.453   2.942   4.814  1.1342 -0.6491  2.5026
16168SOL    HW251397   8.595   2.985   4.845  0.5323  2.2670  1.5261
16169SOL     OW51398   4.502   7.932   0.183  0.0337  0.4105 -0.2319
16169SOL    HW151399   4.534   8.005   0.235  0.1687 -1.0925  1.9021
16169SOL    HW251400   4.580   7.895   0.142  0.1122  0.7353 -0.3792
16170SOL     OW51401   4.209   1.991   6.733 -0.1031  0.1255 -0.1942
16170SOL    HW151402   4.287   2.027   6.692 -1.6252  2.5683 -1.1288
16170SOL    HW251403   4.203   1.901   6.700 -0.3361  1.4103 -4.1211
16171SOL     OW51404   6.504   2.458   3.032 -0.2110  0.2673  0.0469
16171SOL    HW151405   6.579   2.458   3.091  1.1387 -2.1132 -1.5147
16171SOL    HW251406   6.437   2.406   3.077  0.4651 -0.7452 -0.1054
16172SOL     OW51407   1.157   1.791   1.423 -0.4316  0.6292 -0.2086
16172SOL    HW151408   1.122   1.823   1.340 -0.5933  1.7070  0.2610
16172SOL    HW251409   1.126   1.854   1.488  1.1122  0.7591  0.4316
16173SOL     OW51410   4.864   7.601   4.230  0.3253 -0.1399  0.0005
16173SOL    HW151411   4.815   7.599   4.311  0.0268 -0.9739 -0.1913
16173SOL    HW251412   4.951   7.633   4.255  0.8157 -2.0884  0.9825
16174SOL     OW51413   0.877   0.917   7.910  0.3303  0.2438  0.2550
16174SOL    HW151414   0.830   0.917   7.826 -0.8592 -0.2470  0.8921
16174SOL    HW251415   0.969   0.920   7.885 -0.0229  2.4894 -1.0212
16175SOL     OW51416   4.178   7.148   5.106 -0.6409  0.0724 -0.7762
16175SOL    HW151417   4.194   7.190   5.190  0.0667 -0.5457 -0.5895
16175SOL    HW251418   4.139   7.063   5.129 -0.2575 -0.1841 -1.0566
16176SOL     OW51419   6.562   1.615   9.019 -0.0163  0.3358 -0.3955
16176SOL    HW151420   6.523   1.674   9.084  0.8335 -0.6031  1.0210
16176SOL    HW251421   6.654   1.608   9.044 -0.2209 -2.1180 -0.0722
16177SOL     OW51422   9.126   1.258   5.172 -0.2333  0.2511  0.2804
16177SOL    HW151423   9.136   1.163   5.182  0.4954  0.2430 -0.4494
16177SOL    HW251424   9.046   1.268   5.120 -0.3757  0.0450  0.4578
16178SOL     OW51425   7.503   7.070   2.784 -0.1280  0.0434  0.2525
16178SOL    HW151426   7.446   7.015   2.838  0.0219  0.5040  0.8859
16178SOL    HW251427   7.518   7.148   2.837  1.4841 -0.2695  0.3125
16179SOL     OW51428   6.130   4.193   7.712  0.1178 -0.2461  0.1476
16179SOL    HW151429   6.102   4.112   7.667  0.7246  0.1322 -0.9539
16179SOL    HW251430   6.196   4.230   7.654  1.2948  0.0311  1.6187
16180SOL     OW51431   8.406   3.975   5.925 -0.2028  0.0519  0.0507
16180SOL    HW151432   8.493   3.939   5.909 -0.5446 -0.4728 -0.7143
16180SOL    HW251433   8.348   3.922   5.869 -1.0622  0.1209  0.8549
16181SOL     OW51434   4.734   3.676   4.594  0.2028  0.4213 -0.5328
16181SOL    HW151435   4.729   3.717   4.681  0.7219  1.0223 -0.7746
16181SOL    HW251436   4.706   3.745   4.534 -0.3541 -0.0584 -0.8360
16182SOL     OW51437   6.390   0.888   7.615 -0.4423 -0.3517  0.0918
16182SOL    HW151438   6.382   0.972   7.569  0.4147  0.2021  0.9053
16182SOL    HW251439   6.341   0.902   7.696  0.2055 -0.4269  0.4983
16183SOL     OW51440   1.393   0.731   1.605  0.0057 -0.6345 -0.4977
16183SOL    HW151441   1.441   0.790   1.548  1.9036 -0.7139  0.9149
16183SOL    HW251442   1.389   0.648   1.557 -0.7280 -0.0091 -1.5532
16184SOL     OW51443   6.857   0.373   5.662  0.0387 -0.1023 -0.4735
16184SOL    HW151444   6.901   0.399   5.581 -0.0100 -0.2680 -0.5539
16184SOL    HW251445   6.792   0.442   5.678 -1.4368 -1.1153 -1.7250
16185SOL     OW51446   0.301   7.464   3.948 -0.3272  0.3525 -0.6637
16185SOL    HW151447   0.279   7.371   3.953  1.4364 -0.0903 -0.4591
16185SOL    HW251448   0.343   7.475   3.863 -0.4831  0.9538 -0.6666
16186SOL     OW51449   0.590   2.224   8.232 -0.0404  0.0853 -0.3659
16186SOL    HW151450   0.639   2.284   8.289 -0.9997  3.1229 -2.5221
16186SOL    HW251451   0.507   2.211   8.277  0.1016  0.5335  0.0316
16187SOL     OW51452   2.397   0.802   3.147  0.2560 -0.4061 -0.1964
16187SOL    HW151453   2.344   0.882   3.149 -0.3413 -0.7570 -1.3558
16187SOL    HW251454   2.487   0.834   3.143 -0.0110  0.2498 -1.6647
16188SOL     OW51455   7.691   6.138   5.537  0.2347  0.2579 -0.0336
16188SOL    HW151456   7.618   6.080   5.518  0.1536  0.2402  0.3214
16188SOL    HW251457   7.690   6.202   5.467 -0.7826  0.9014  0.5446
16189SOL     OW51458   4.324   8.021   1.319  0.2297 -0.3902 -0.1067
16189SOL    HW151459   4.376   8.032   1.239 -0.7252 -2.3889 -1.0641
16189SOL    HW251460   4.341   7.931   1.347  1.0473  0.4447  2.3727
16190SOL     OW51461   7.864   5.783   6.765  0.1797  0.6796  0.5034
16190SOL    HW151462   7.859   5.698   6.721  2.8951  0.2424  0.8416
16190SOL    HW251463   7.904   5.763   6.850  1.5275  2.3349  0.3154
16191SOL     OW51464   3.979   8.075   1.257  0.0496 -0.2130 -0.4242
16191SOL    HW151465   4.023   8.100   1.175  1.1144 -0.8709 -0.0760
16191SOL    HW251466   3.903   8.132   1.261  0.7272  0.7953 -1.2027
16192SOL     OW51467   0.686   1.190   6.954 -0.7208  0.3193 -0.0980
16192SOL    HW151468   0.612   1.222   6.901  1.0590  1.2003 -2.2023
16192SOL    HW251469   0.754   1.257   6.942  1.2391 -1.6012 -0.1954
16193SOL     OW51470   1.441   1.977   6.959  0.2057  0.1605 -0.6852
16193SOL    HW151471   1.520   1.925   6.946  0.6015  0.4588  0.4298
16193SOL    HW251472   1.460   2.060   6.915 -0.1517 -0.3566 -1.8517
16194SOL     OW51473   5.037   0.068   3.386 -0.2277  0.0120 -0.7836
16194SOL    HW151474   5.076   0.128   3.449  0.7266 -2.0587  0.7196
16194SOL    HW251475   5.042   0.114   3.302  0.9102  1.7872  0.1997
16195SOL     OW51476   6.953   8.559   8.497 -0.3139 -0.2828  1.0491
16195SOL    HW151477   6.977   8.467   8.514  1.4253 -0.2481 -0.7508
16195SOL    HW251478   6.901   8.555   8.417  0.8289  0.3519  0.2394
16196SOL     OW51479   0.825   1.397   1.266  0.0992  0.4718 -0.1400
16196SOL    HW151480   0.816   1.471   1.327  2.3894  2.2565 -1.8314
16196SOL    HW251481   0.758   1.335   1.296  0.6691  1.4449  3.8155
16197SOL     OW51482   4.046   4.523   6.428  0.1804  0.1279  0.2295
16197SOL    HW151483   4.067   4.615   6.416  2.2830 -0.4186 -0.7916
16197SOL    HW251484   4.124   4.486   6.469 -1.9392 -0.5970  4.0966
16198SOL     OW51485   1.027   5.383   6.887 -0.3249 -0.1565 -0.1945
16198SOL    HW151486   1.106   5.425   6.922  0.4073 -1.5470 -0.1082
16198SOL    HW251487   1.011   5.310   6.946 -2.7733  1.1192  0.8670
16199SOL     OW51488   5.118   5.485   4.599  0.1805  0.4493  0.1864
16199SOL    HW151489   5.145   5.483   4.507  0.9481  0.6807  0.4007
16199SOL    HW251490   5.025   5.507   4.596  0.2684  0.7436 -0.5205
16200SOL     OW51491   9.082   6.365   7.046  0.0198 -0.3802 -0.2679
16200SOL    HW151492   9.040   6.365   7.132  0.6053  0.7882  0.0340
16200SOL    HW251493   9.010   6.380   6.984  0.0389  3.1145  0.3329
16201SOL     OW51494   6.755   9.211   4.502  0.0487 -0.3158 -0.0619
16201SOL    HW151495   6.781   9.303   4.497  0.5349 -0.5209 -2.0119
16201SOL    HW251496   6.835   9.163   4.481 -0.3742 -1.1758  0.2418
16202SOL     OW51497   4.828   8.596   6.866  0.0369 -0.2942 -0.1018
16202SOL    HW151498   4.820   8.586   6.960 -1.8535 -0.1653 -0.2118
16202SOL    HW251499   4.738   8.606   6.835  0.7531  2.5091 -1.6104
16203SOL     OW51500   8.976   5.501   1.596 -0.2429 -0.1460  0.5171
16203SOL    HW151501   9.020   5.436   1.541  2.1962  0.8334  1.1873
16203SOL    HW251502   8.942   5.566   1.534 -1.0725 -1.0809 -0.0347
16204SOL     OW51503   0.493   4.286   2.185  0.2747  0.6697  0.2595
16204SOL    HW151504   0.491   4.280   2.280  0.5756 -3.4907  0.2035
16204SOL    HW251505   0.403   4.267   2.158  0.8555 -1.6987 -0.2282
16205SOL     OW51506   0.220   1.875   8.349  0.1603 -0.0107  0.4088
16205SOL    HW151507   0.152   1.814   8.377  0.3192 -0.3260  0.1216
16205SOL    HW251508   0.173   1.948   8.310 -0.0204 -1.1516 -1.7192
16206SOL     OW51509   5.507   4.015   4.112 -0.0482  0.3730  0.0586
16206SOL    HW151510   5.460   4.022   4.029  1.3061  1.8134 -0.6507
16206SOL    HW251511   5.598   3.999   4.086  0.3381  0.5065  1.2844
16207SOL     OW51512   7.069   0.016   1.455 -0.0331 -0.3667 -0.0153
16207SOL    HW151513   7.129   0.084   1.422  0.7229 -0.1459  1.6818
16207SOL    HW251514   6.983   0.056   1.449  0.0910 -0.2627 -1.4681
16208SOL     OW51515   2.351   1.834   0.566  0.0808 -0.5301  0.3952
16208SOL    HW151516   2.382   1.903   0.508  0.6611 -0.6852  0.5202
16208SOL    HW251517   2.267   1.807   0.528 -0.5861  0.8258  0.8268
16209SOL     OW51518   2.237   8.287   8.974 -0.6476  0.3300 -0.0852
16209SOL    HW151519   2.280   8.229   8.911  0.0065  1.3779 -0.6286
16209SOL    HW251520   2.217   8.366   8.924 -0.4311  1.0437  0.9308
16210SOL     OW51521   6.398   2.512   2.717  0.0904 -0.2276 -0.4748
16210SOL    HW151522   6.467   2.558   2.764  0.5977 -1.9351  0.5663
16210SOL    HW251523   6.318   2.561   2.736  0.6705  0.4815  0.1780
16211SOL     OW51524   4.222   1.388   0.200  0.4053 -0.3914  0.7252
16211SOL    HW151525   4.234   1.482   0.216  0.3423 -0.0763 -0.9245
16211SOL    HW251526   4.146   1.364   0.253  0.4484  0.4707  1.1935
16212SOL     OW51527   4.727   1.430   0.869 -0.5945  0.1166  0.1699
16212SOL    HW151528   4.806   1.483   0.878 -0.0307 -0.3066 -1.7654
16212SOL    HW251529   4.746   1.349   0.916 -0.0949  0.2595  0.2102
16213SOL     OW51530   5.424   7.729   7.742 -0.0909  0.7162 -0.2945
16213SOL    HW151531   5.481   7.677   7.685 -1.4466  1.1324 -2.1257
16213SOL    HW251532   5.440   7.694   7.830  0.7404 -1.2182 -1.1519
16214SOL     OW51533   5.777   4.783   6.611 -0.1694 -0.1311 -0.0906
16214SOL    HW151534   5.746   4.802   6.522 -0.1507  0.4189  0.0174
16214SOL    HW251535   5.699   4.790   6.666 -0.2197 -0.6722 -0.0902
16215SOL     OW51536   7.903   7.753   1.771  0.3650 -0.0899  0.3272
16215SOL    HW151537   7.829   7.813   1.761 -0.0211 -0.6935 -0.5991
16215SOL    HW251538   7.937   7.741   1.683  0.8727 -0.6839  0.5953
16216SOL     OW51539   1.049   0.606   5.796  0.2656  0.0272  0.1349
16216SOL    HW151540   0.958   0.621   5.823 -0.1738  0.7225 -1.5812
16216SOL    HW251541   1.074   0.525   5.840 -1.3141 -0.3753  0.3564
16217SOL     OW51542   1.467   6.667   4.085  0.7595  0.9542  0.1800
16217SOL    HW151543   1.532   6.642   4.150 -0.6028 -0.2907  1.1253
16217SOL    HW251544   1.395   6.704   4.136 -0.3984 -0.1688 -0.5620
16218SOL     OW51545   7.302   8.829   0.353  0.2660 -0.0277  0.9435
16218SOL    HW151546   7.314   8.759   0.288  1.2428  0.5517  0.4762
16218SOL    HW251547   7.301   8.909   0.301 -0.5791  0.3334  1.4997
16219SOL     OW51548   7.443   5.075   3.414 -0.4759 -0.3659  0.6903
16219SOL    HW151549   7.497   4.998   3.430 -0.3070 -0.0610  1.6450
16219SOL    HW251550   7.460   5.132   3.489  0.9394  1.4819 -0.9075
16220SOL     OW51551   6.014   3.510   5.699  0.0387 -0.4506  0.1308
16220SOL    HW151552   6.085   3.574   5.695 -0.0020 -0.3657  0.7645
16220SOL    HW251553   6.038   3.452   5.772  1.1604 -2.4294 -1.6796
16221SOL     OW51554   2.012   7.961   6.492 -0.2697 -0.0477  0.0409
16221SOL    HW151555   2.100   7.951   6.527 -0.4732 -0.1870  0.5164
16221SOL    HW251556   2.005   7.893   6.425 -0.0106 -0.0235 -0.0114
16222SOL     OW51557   0.991   8.022   0.050 -0.1334 -0.4824 -0.1226
16222SOL    HW151558   1.007   8.035   0.143  2.3887  1.5754 -0.7377
16222SOL    HW251559   1.017   7.931   0.034 -1.1713 -1.0599  1.2226
16223SOL     OW51560   6.914   7.786   6.248  0.6641  0.0631  0.2257
16223SOL    HW151561   6.871   7.745   6.173  1.5920  2.6793 -1.9010
16223SOL    HW251562   6.843   7.823   6.299  0.0891 -0.7072  0.0056
16224SOL     OW51563   0.661   6.182   3.302  0.0379  0.2048 -0.2119
16224SOL    HW151564   0.687   6.104   3.252  0.7308 -0.0133  0.4561
16224SOL    HW251565   0.580   6.211   3.261 -0.1568 -0.7906 -0.5682
16225SOL     OW51566   4.650   5.403   8.463 -0.2357 -0.4902  0.5444
16225SOL    HW151567   4.737   5.409   8.423 -0.0511 -0.6651  0.9175
16225SOL    HW251568   4.650   5.472   8.529 -1.0610  0.7799 -0.7155
16226SOL     OW51569   5.612   6.851   2.531 -0.0312  0.3949  0.5198
16226SOL    HW151570   5.592   6.842   2.624  0.2085 -2.8151  0.3971
16226SOL    HW251571   5.707   6.848   2.526 -0.0651 -1.2364  0.1438
16227SOL     OW51572   9.145   3.927   2.085  0.0224 -0.6633 -0.2683
16227SOL    HW151573   9.196   3.934   2.004  0.3420 -1.0998 -0.1107
16227SOL    HW251574   9.058   3.898   2.058  0.4043 -1.7725 -0.3831
16228SOL     OW51575   9.115   2.403   7.820  0.0688  0.2642 -0.3278
16228SOL    HW151576   9.126   2.318   7.861  0.1224  0.4251 -0.0067
16228SOL    HW251577   9.020   2.414   7.814  0.0225 -0.7804 -2.3902
16229SOL     OW51578   7.178   4.579   2.895 -0.3703 -0.2801  0.3105
16229SOL    HW151579   7.272   4.562   2.900 -0.5700 -1.6288  0.0877
16229SOL    HW251580   7.168   4.639   2.821  0.1934 -1.4237 -0.7323
16230SOL     OW51581   8.271   1.776   0.830  0.2604  0.4212 -0.0848
16230SOL    HW151582   8.184   1.788   0.866  0.2846 -0.2466  0.2176
16230SOL    HW251583   8.282   1.848   0.768 -1.2763 -0.5896 -1.6012
16231SOL     OW51584   2.810   3.634   7.790  0.2511  0.0056  0.3601
16231SOL    HW151585   2.883   3.630   7.728 -0.4259 -2.3607 -0.3854
16231SOL    HW251586   2.733   3.651   7.736 -0.1168 -0.3379  0.7675
16232SOL     OW51587   5.690   7.880   5.210  0.6742 -0.2009  0.3191
16232SOL    HW151588   5.645   7.862   5.127 -1.1055  0.1784  1.1527
16232SOL    HW251589   5.701   7.975   5.211 -0.5298 -0.0523  1.0880
16233SOL     OW51590   8.312   2.687   6.271  0.1006  0.5452 -0.0023
16233SOL    HW151591   8.284   2.624   6.206 -0.0227 -0.1615  0.7187
16233SOL    HW251592   8.292   2.646   6.355 -1.0741  2.0150  0.5007
16234SOL     OW51593   0.933   3.702   3.959 -0.0201  0.0319 -0.2019
16234SOL    HW151594   0.988   3.630   3.990  0.8134  0.6380 -0.2394
16234SOL    HW251595   0.861   3.659   3.914  1.8674 -0.8050 -2.6808
16235SOL     OW51596   3.558   4.795   8.816  0.3360  0.6204  0.2610
16235SOL    HW151597   3.648   4.812   8.788 -0.4437  3.4025 -0.9385
16235SOL    HW251598   3.528   4.879   8.851 -1.8498 -0.1679  0.4352
16236SOL     OW51599   5.503   1.921   8.241  1.0892  0.1478  0.1274
16236SOL    HW151600   5.520   1.850   8.180  1.5474  0.0097  0.4143
16236SOL    HW251601   5.580   1.925   8.297  0.2052 -0.4943  1.4654
16237SOL     OW51602   3.712   7.289   1.764  0.2752  0.4621  0.2956
16237SOL    HW151603   3.639   7.319   1.818 -0.5430  0.1322 -0.6193
16237SOL    HW251604   3.677   7.216   1.714  1.6836 -0.7685  1.0305
16238SOL     OW51605   6.651   4.701   0.039 -0.1689  0.0938  0.1997
16238SOL    HW151606   6.657   4.608   0.015 -1.3883  0.0362  0.0547
16238SOL    HW251607   6.717   4.713   0.107  0.4151 -0.7396 -0.2068
16239SOL     OW51608   2.980   2.418   0.994  0.4252  0.6144  0.7434
16239SOL    HW151609   3.005   2.327   0.981 -1.4405 -0.1674  2.1708
16239SOL    HW251610   2.911   2.415   1.060 -1.0715  2.8810 -0.5786
16240SOL     OW51611   6.540   2.287   0.833 -0.5918  0.2548 -0.1775
16240SOL    HW151612   6.589   2.318   0.757 -0.0687  1.8671  0.7561
16240SOL    HW251613   6.568   2.344   0.904 -0.0083 -2.0811  1.5843
16241SOL     OW51614   7.810   3.800   0.255 -0.4629 -0.5638 -0.1288
16241SOL    HW151615   7.849   3.743   0.322  1.4102  0.4544 -0.2781
16241SOL    HW251616   7.782   3.878   0.303  0.2972 -0.1028 -0.4194
16242SOL     OW51617   2.056   3.162   4.010  1.0052 -0.1182 -0.4653
16242SOL    HW151618   2.016   3.247   3.992 -0.2619 -0.2001  1.5403
16242SOL    HW251619   2.013   3.101   3.950  0.8124  0.4109 -0.8646
16243SOL     OW51620   2.935   3.540   0.869 -0.4740  0.0226  0.3072
16243SOL    HW151621   2.893   3.626   0.871 -4.0780 -1.5357  2.3721
16243SOL    HW251622   2.887   3.492   0.801 -0.3716 -1.1277  1.0191
16244SOL     OW51623   5.217   6.925   2.225 -0.4333 -0.4351 -0.0170
16244SOL    HW151624   5.245   7.015   2.244 -0.7862 -0.3806  0.2594
16244SOL    HW251625   5.275   6.870   2.278  0.2357 -0.4089 -0.7079
16245SOL     OW51626   1.464   2.301   8.094  0.0490 -0.1384 -0.4621
16245SOL    HW151627   1.426   2.384   8.121 -1.1753 -0.7024 -0.3732
16245SOL    HW251628   1.449   2.241   8.167 -0.5939 -0.8746 -1.1693
16246SOL     OW51629   5.089   4.884   0.752  0.1055  0.2368  0.2531
16246SOL    HW151630   5.100   4.856   0.661  0.5289  0.6629  0.1650
16246SOL    HW251631   5.053   4.808   0.797  0.2122 -0.0862 -0.2027
16247SOL     OW51632   8.578   8.203   3.885  0.5486 -0.6257  0.0595
16247SOL    HW151633   8.519   8.276   3.868  1.6323  0.2600 -0.0175
16247SOL    HW251634   8.574   8.150   3.806  0.5719 -0.0569 -0.3301
16248SOL     OW51635   6.497   0.164   0.001  0.8487 -0.2391 -0.1721
16248SOL    HW151636   6.558   0.207   0.060  1.1655  0.8503 -1.2602
16248SOL    HW251637   6.455   0.096   0.055  1.0631  0.7658  1.3155
16249SOL     OW51638   8.296   7.067   0.783  0.2184  0.4346 -0.0012
16249SOL    HW151639   8.358   6.995   0.794  0.3420  0.2750 -1.5360
16249SOL    HW251640   8.216   7.036   0.824  1.0610  0.5531  1.8109
16250SOL     OW51641   5.813   9.165   0.833 -0.0748 -0.2611  0.4911
16250SOL    HW151642   5.726   9.192   0.804  0.4940  0.9680 -0.1090
16250SOL    HW251643   5.841   9.102   0.766 -0.0935  0.1058  0.1338
16251SOL     OW51644   1.642   9.240   0.944 -0.0544  0.9038 -0.2173
16251SOL    HW151645   1.713   9.191   0.987 -0.4393  0.8244  0.3435
16251SOL    HW251646   1.658   9.331   0.971 -1.1283  0.6775  1.3363
16252SOL     OW51647   1.913   4.402   6.216  0.3694  0.2689  0.1298
16252SOL    HW151648   1.893   4.474   6.156  2.4439  0.6382 -0.2119
16252SOL    HW251649   1.970   4.442   6.282  0.4384 -0.7564  0.7117
16253SOL     OW51650   7.244   1.319   2.211  0.5370  0.1258  0.3946
16253SOL    HW151651   7.220   1.308   2.303 -0.5818 -1.0030 -0.0221
16253SOL    HW251652   7.278   1.234   2.184 -0.8866 -0.1128 -0.7342
16254SOL     OW51653   0.690   2.825   1.657  0.2317 -0.1854 -0.5846
16254SOL    HW151654   0.784   2.830   1.642  0.2134  0.3823 -0.5275
16254SOL    HW251655   0.665   2.912   1.686 -0.6299  0.2751 -2.5011
16255SOL     OW51656   5.774   0.580   6.741 -0.0719  0.4631  0.6339
16255SOL    HW151657   5.719   0.512   6.703 -0.7176  1.5426 -0.4406
16255SOL    HW251658   5.799   0.635   6.667  3.3418 -0.5238  0.8849
16256SOL     OW51659   4.556   6.848   1.277 -0.4515 -0.1872  0.1459
16256SOL    HW151660   4.542   6.818   1.187  2.3751  0.8000 -0.7342
16256SOL    HW251661   4.525   6.939   1.277 -1.1200 -0.4080  0.4044
16257SOL     OW51662   1.006   2.466   8.508  0.3553 -0.2020 -0.4898
16257SOL    HW151663   0.961   2.388   8.477 -0.3407 -0.3911  0.9605
16257SOL    HW251664   0.940   2.514   8.558  0.8596  1.1696 -1.0811
16258SOL     OW51665   7.179   3.636   9.239  0.4525 -0.1785  0.0889
16258SOL    HW151666   7.274   3.647   9.241  0.2446  1.8553  0.4008
16258SOL    HW251667   7.160   3.577   9.312  1.5546 -1.7739 -0.8333
16259SOL     OW51668   2.668   5.069   3.996  0.4615  1.1040  0.5169
16259SOL    HW151669   2.588   5.109   3.963  0.8095  1.9666  0.6980
16259SOL    HW251670   2.693   5.006   3.928 -1.3061 -0.4858  1.2277
16260SOL     OW51671   7.843   4.822   0.949  0.4920  0.2020 -0.0197
16260SOL    HW151672   7.862   4.795   0.859  1.5674  1.4035 -0.1800
16260SOL    HW251673   7.884   4.754   1.003  1.6068  0.5133 -0.4370
16261SOL     OW51674   4.395   3.424   3.323  0.7470 -0.2718 -0.1196
16261SOL    HW151675   4.317   3.403   3.375  2.4264 -2.3601  1.7715
16261SOL    HW251676   4.385   3.372   3.244 -0.5536  0.8337 -0.7325
16262SOL     OW51677   5.049   5.640   6.323  0.3900 -0.1959 -0.0658
16262SOL    HW151678   5.007   5.721   6.354  1.6055 -0.2272  1.8088
16262SOL    HW251679   4.987   5.605   6.259 -0.0150  2.3867 -1.2520
16263SOL     OW51680   3.438   3.035   0.693  0.0407 -0.7700  0.0935
16263SOL    HW151681   3.484   2.952   0.677 -0.7065 -1.0892 -0.4556
16263SOL    HW251682   3.479   3.097   0.633  0.7145 -0.6920  0.6242
16264SOL     OW51683   1.769   8.186   6.825  0.4693  0.0978  0.0320
16264SOL    HW151684   1.737   8.187   6.915  2.0870 -0.7266  0.6516
16264SOL    HW251685   1.692   8.205   6.772 -1.8313 -4.5348  1.1931
16265SOL     OW51686   7.216   7.074   9.150 -0.1584 -0.7130 -0.2298
16265SOL    HW151687   7.171   7.028   9.079  0.5141 -1.2866 -0.2924
16265SOL    HW251688   7.145   7.111   9.203 -0.6714  1.1057 -2.0477
16266SOL     OW51689   8.835   0.029   8.773 -0.2262  0.4589  0.3051
16266SOL    HW151690   8.832   0.066   8.685  0.8553 -0.4160 -0.1215
16266SOL    HW251691   8.925   0.040   8.802 -0.8298  1.7997  1.8085
16267SOL     OW51692   2.161   2.357   1.309  0.5429 -0.1897 -0.1783
16267SOL    HW151693   2.119   2.443   1.303  1.5152  0.2372 -1.2208
16267SOL    HW251694   2.108   2.309   1.373 -0.2748  1.0291  0.0977
16268SOL     OW51695   4.839   1.258   1.038  0.3976  0.2142  0.0937
16268SOL    HW151696   4.825   1.165   1.052 -0.2364  0.5189  1.6866
16268SOL    HW251697   4.916   1.279   1.090 -0.2810  0.8272  0.8795
16269SOL     OW51698   0.412   0.965   4.509  0.0095 -0.2678 -0.2879
16269SOL    HW151699   0.473   1.038   4.521  0.2320 -0.3204 -1.0440
16269SOL    HW251700   0.354   0.969   4.585  0.7667 -0.0324  0.2936
16270SOL     OW51701   1.479   7.642   3.221  0.3885  0.7007 -0.6390
16270SOL    HW151702   1.440   7.692   3.293 -0.8509  0.3866 -1.0635
16270SOL    HW251703   1.461   7.551   3.242  1.5418  0.4889 -0.4993
16271SOL     OW51704   7.344   3.805   8.973 -0.2357  0.1733 -0.4128
16271SOL    HW151705   7.326   3.711   8.963  0.4225 -0.0411  0.3009
16271SOL    HW251706   7.367   3.815   9.065  3.6117  0.2816 -1.2124
16272SOL     OW51707   8.538   5.248   5.153 -0.0459  0.6330 -0.2068
16272SOL    HW151708   8.628   5.229   5.180 -0.0824  2.6499  1.6249
16272SOL    HW251709   8.484   5.215   5.225 -0.8518 -0.8971 -1.4622
16273SOL     OW51710   3.795   3.530   3.222  0.6523 -0.2418  0.7509
16273SOL    HW151711   3.738   3.556   3.294 -0.7214  0.3361 -0.4900
16273SOL    HW251712   3.878   3.507   3.264 -0.2741 -0.4617  2.5499
16274SOL     OW51713   0.496   7.620   0.452 -0.3338  0.6064  0.2177
16274SOL    HW151714   0.402   7.601   0.451 -0.5984  1.4776 -3.1942
16274SOL    HW251715   0.536   7.544   0.410  0.2844  1.0207  0.0531
16275SOL     OW51716   1.190   7.401   8.066  0.2040 -0.6570 -0.3835
16275SOL    HW151717   1.123   7.462   8.095 -0.5567 -1.6806  0.0623
16275SOL    HW251718   1.189   7.408   7.970 -1.2752 -1.4079 -0.4426
16276SOL     OW51719   5.784   2.933   1.967 -0.1894 -0.6573 -0.1920
16276SOL    HW151720   5.697   2.895   1.982 -0.2471  0.1007  1.7892
16276SOL    HW251721   5.843   2.874   2.015 -0.0511  0.5696  1.2422
16277SOL     OW51722   3.296   8.586   0.683  0.0818 -0.5164 -0.6611
16277SOL    HW151723   3.311   8.495   0.658  0.8437 -0.3537 -0.8319
16277SOL    HW251724   3.379   8.630   0.664  0.0736 -0.0007  0.4123
16278SOL     OW51725   1.678   8.218   7.066  0.5758 -0.2629  0.2849
16278SOL    HW151726   1.726   8.241   7.146  1.1546 -0.3751 -0.0223
16278SOL    HW251727   1.587   8.214   7.093  0.9474 -2.3923  1.4541
16279SOL     OW51728   0.144   3.100   3.132 -0.5994 -0.5324 -0.2015
16279SOL    HW151729   0.063   3.117   3.181 -0.9725  0.8177 -1.2272
16279SOL    HW251730   0.184   3.186   3.122  0.7843 -1.1306 -0.0758
16280SOL     OW51731   5.924   0.315   0.707 -0.1901 -0.1492  0.0133
16280SOL    HW151732   5.976   0.243   0.742 -0.1943  0.5530  1.5835
16280SOL    HW251733   5.882   0.279   0.629  0.5377 -1.5410  0.2293
16281SOL     OW51734   1.747   3.153   6.041  0.3067  0.3042 -0.3855
16281SOL    HW151735   1.760   3.137   5.947  2.3465  0.0253 -0.0937
16281SOL    HW251736   1.715   3.243   6.046  0.3077  0.3687 -1.3311
16282SOL     OW51737   3.438   4.646   4.247  0.1847  0.0105 -0.0767
16282SOL    HW151738   3.435   4.687   4.160  0.5648 -0.4650 -0.3155
16282SOL    HW251739   3.439   4.552   4.229  0.6079 -0.0858  0.4368
16283SOL     OW51740   1.907   4.660   3.310 -0.1536  0.2025 -0.0065
16283SOL    HW151741   1.818   4.671   3.342 -0.6384  0.2892 -1.3116
16283SOL    HW251742   1.962   4.702   3.376 -1.0527 -0.0339  0.9141
16284SOL     OW51743   7.071   2.960   4.963  0.1290 -0.2259  0.6649
16284SOL    HW151744   7.163   2.987   4.970  0.3505 -0.0546 -1.8942
16284SOL    HW251745   7.075   2.869   4.934 -0.4743  0.1299 -0.5719
16285SOL     OW51746   2.407   3.674   8.426 -0.0729 -0.2430 -0.1683
16285SOL    HW151747   2.350   3.664   8.350  0.3401  0.2370 -0.5420
16285SOL    HW251748   2.495   3.654   8.394  0.1899  0.5473  0.0399
16286SOL     OW51749   4.184   8.941   4.858  0.0087  0.6390 -0.2824
16286SOL    HW151750   4.149   8.945   4.769  0.8280 -0.8283 -0.6976
16286SOL    HW251751   4.239   8.863   4.859 -1.2268 -0.2890  1.9915
16287SOL     OW51752   1.015   8.068   6.308  0.5416  0.0443 -0.2905
16287SOL    HW151753   0.942   8.093   6.251 -0.3438 -0.4315  0.6054
16287SOL    HW251754   1.022   7.973   6.299  1.2933  0.1247 -0.6400
16288SOL     OW51755   6.650   1.211   4.776  0.4539  0.5819 -0.0393
16288SOL    HW151756   6.668   1.266   4.700  0.9397 -1.1693 -1.2584
16288SOL    HW251757   6.572   1.161   4.752  0.0851  0.6119  1.0010
16289SOL     OW51758   3.340   3.641   1.204  0.0001  0.2223 -0.4351
16289SOL    HW151759   3.360   3.559   1.249  0.0583  0.7441  0.5297
16289SOL    HW251760   3.345   3.708   1.273  0.2127  1.0693 -1.2487
16290SOL     OW51761   4.524   0.040   3.504 -0.4188 -0.0966 -0.1451
16290SOL    HW151762   4.615   0.065   3.523 -0.2660 -1.6280  1.4156
16290SOL    HW251763   4.515   0.054   3.410  1.8725 -1.1310 -0.6026
16291SOL     OW51764   4.845   3.985   7.528 -0.4270 -0.0267  0.1592
16291SOL    HW151765   4.797   3.909   7.493 -0.5671  0.0845  0.1045
16291SOL    HW251766   4.808   4.059   7.480 -1.5724  0.2970  1.4829
16292SOL     OW51767   0.740   1.198   0.053  0.5171  0.1735 -0.1849
16292SOL    HW151768   0.730   1.184  -0.041 -0.9106 -1.0691  0.1055
16292SOL    HW251769   0.749   1.293   0.062 -0.9428  0.4892 -1.4790
16293SOL     OW51770   7.754   4.408   5.846 -0.1071 -0.1622 -0.3036
16293SOL    HW151771   7.710   4.355   5.780  0.9945 -0.4073 -0.8753
16293SOL    HW251772   7.699   4.400   5.924 -1.0435 -0.4651 -0.9718
16294SOL     OW51773   9.160   1.631   3.924  0.5394 -0.0048  0.0688
16294SOL    HW151774   9.072   1.616   3.890  0.9107 -0.0761 -0.8873
16294SOL    HW251775   9.175   1.557   3.983  0.5750 -0.8845 -1.0172
16295SOL     OW51776   5.778   0.643   7.437  0.4242 -0.2041 -0.4930
16295SOL    HW151777   5.830   0.564   7.422  0.2140 -0.6123  0.7425
16295SOL    HW251778   5.840   0.715   7.426  0.8388 -0.5878 -0.7312
16296SOL     OW51779   8.866   0.213   1.390 -0.4599  0.0417  0.4990
16296SOL    HW151780   8.874   0.132   1.341  0.8280  0.7820 -0.5582
16296SOL    HW251781   8.830   0.276   1.328  3.1150  1.5460 -0.2701
16297SOL     OW51782   3.043   1.145   8.109 -0.4661  0.5054 -0.0771
16297SOL    HW151783   3.005   1.061   8.131  0.9282 -0.1488 -0.0604
16297SOL    HW251784   3.039   1.149   8.013 -0.0937  0.2027 -0.1057
16298SOL     OW51785   9.120   2.275   6.115 -0.4935  0.5655 -0.5596
16298SOL    HW151786   9.191   2.245   6.172 -0.8063  3.0840  1.3547
16298SOL    HW251787   9.109   2.205   6.051  1.8328 -1.1410  0.7472
16299SOL     OW51788   1.324   5.359   6.598 -0.5741  0.2461 -0.4491
16299SOL    HW151789   1.361   5.446   6.582  0.1393 -0.1206 -0.8308
16299SOL    HW251790   1.248   5.354   6.541  0.3232  0.0168 -1.6625
16300SOL     OW51791   8.279   3.035   3.691 -0.8773  0.1493 -0.1063
16300SOL    HW151792   8.305   2.975   3.762 -1.1448 -1.3791 -1.2418
16300SOL    HW251793   8.327   3.115   3.709  0.5044 -0.8193  0.7858
16301SOL     OW51794   1.935   2.163   7.559  0.0025 -0.0555  0.0893
16301SOL    HW151795   2.007   2.174   7.621 -0.5864  1.8795  0.4703
16301SOL    HW251796   1.866   2.120   7.609 -1.1339  3.0483  1.4019
16302SOL     OW51797   8.672   3.417   3.025  0.1993  0.1743  0.2899
16302SOL    HW151798   8.620   3.341   2.997 -0.7795  1.6203 -2.1289
16302SOL    HW251799   8.752   3.379   3.060  0.2775 -2.0038 -1.9649
16303SOL     OW51800   3.734   6.926   7.681 -0.4018 -0.1374  0.4287
16303SOL    HW151801   3.758   6.938   7.589 -0.4095 -0.5237  0.3775
16303SOL    HW251802   3.638   6.922   7.681 -0.5715  2.3039  0.7317
16304SOL     OW51803   1.006   1.627   0.509  0.6555  0.5748 -0.4736
16304SOL    HW151804   0.979   1.551   0.457  0.7526 -0.0114  0.3065
16304SOL    HW251805   0.977   1.703   0.458  1.4505  0.0513 -1.7755
16305SOL     OW51806   5.305   7.844   5.471 -0.3880  0.5059 -0.0547
16305SOL    HW151807   5.323   7.840   5.377 -1.1873  0.4639 -0.2216
16305SOL    HW251808   5.229   7.902   5.477 -0.3071  0.5443  0.5668
16306SOL     OW51809   6.327   0.505   4.439  0.1707 -0.4331  0.3627
16306SOL    HW151810   6.252   0.459   4.401  0.4277  0.4129 -1.2654
16306SOL    HW251811   6.398   0.441   4.436  0.0284 -0.5764 -0.0259
16307SOL     OW51812   1.744   2.089   6.603  0.2557  0.3534 -0.2320
16307SOL    HW151813   1.706   2.104   6.517  1.6008  2.1191 -0.5917
16307SOL    HW251814   1.829   2.050   6.585 -0.1187 -0.8164  0.4150
16308SOL     OW51815   8.587   3.157   4.378  0.2746 -0.2585 -0.0640
16308SOL    HW151816   8.650   3.093   4.412 -1.4640 -2.9408 -1.5272
16308SOL    HW251817   8.630   3.193   4.301  0.4052 -1.4380 -0.5695
16309SOL     OW51818   0.199   0.110   8.887 -0.1017 -0.0139 -0.6127
16309SOL    HW151819   0.188   0.121   8.981  0.2706  0.1839 -0.5929
16309SOL    HW251820   0.220   0.018   8.875 -0.1896 -0.0473 -0.5077
16310SOL     OW51821   3.530   4.170   8.502 -0.3685 -0.3448  0.0394
16310SOL    HW151822   3.511   4.077   8.489 -0.6767 -0.1565 -1.0057
16310SOL    HW251823   3.504   4.211   8.419  0.8459  0.5154  0.0544
16311SOL     OW51824   5.921   8.261   2.453  0.3735 -0.0345 -0.6667
16311SOL    HW151825   5.988   8.326   2.477  0.4846 -0.8400  1.5150
16311SOL    HW251826   5.838   8.302   2.478  0.4132 -0.5258  0.3399
16312SOL     OW51827   5.870   8.149   0.022  1.1766 -0.1180  0.4721
16312SOL    HW151828   5.962   8.167   0.007  1.3031  0.5276  1.9081
16312SOL    HW251829   5.867   8.054   0.038  1.1674 -0.6723 -2.2653
16313SOL     OW51830   0.134   2.183   6.264  0.0162 -0.0587  0.0760
16313SOL    HW151831   0.061   2.128   6.293  0.3928 -0.1363  0.9109
16313SOL    HW251832   0.181   2.129   6.201 -1.7680  0.7332 -2.0279
16314SOL     OW51833   0.534   8.492   8.660 -0.0362  0.4872 -0.2117
16314SOL    HW151834   0.605   8.516   8.601  0.4736 -0.1604  0.1238
16314SOL    HW251835   0.472   8.564   8.654  0.9364  1.3613 -0.0384
16315SOL     OW51836   7.909   3.486   4.575 -0.2155  0.2966  0.6893
16315SOL    HW151837   7.881   3.394   4.575 -2.0868  0.8230 -0.3991
16315SOL    HW251838   8.004   3.482   4.562 -0.4854 -1.4493 -1.2348
16316SOL     OW51839   2.239   1.110   3.420 -0.1332 -0.2676  0.0132
16316SOL    HW151840   2.151   1.130   3.450 -0.4836 -2.7687  0.9141
16316SOL    HW251841   2.286   1.083   3.499  0.7389 -1.1951 -0.7805
16317SOL     OW51842   4.151   4.474   7.134  0.0915  0.1331 -0.6067
16317SOL    HW151843   4.224   4.536   7.139  0.9300 -0.8378 -0.5408
16317SOL    HW251844   4.150   4.432   7.220  0.5641 -1.0708 -1.1708
16318SOL     OW51845   3.892   3.696   7.628 -0.2187 -0.3355  0.2104
16318SOL    HW151846   3.885   3.643   7.707  0.3903 -0.9348 -0.1239
16318SOL    HW251847   3.804   3.733   7.616 -0.4434 -0.6372  0.8881
16319SOL     OW51848   1.695   1.535   5.117 -0.4002  0.3436 -0.0890
16319SOL    HW151849   1.725   1.455   5.160 -2.8893  0.2043  1.6526
16319SOL    HW251850   1.621   1.506   5.063 -0.2960  1.2332 -0.7132
16320SOL     OW51851   7.896   6.767   6.012  0.4930  0.2195  0.5659
16320SOL    HW151852   7.968   6.785   5.952 -0.0158  1.6987  0.3699
16320SOL    HW251853   7.879   6.673   6.002  1.3083  0.1812 -0.5874
16321SOL     OW51854   5.502   1.431   8.647 -0.0071 -0.2277  0.9852
16321SOL    HW151855   5.420   1.426   8.598  0.2125 -0.8883  0.6737
16321SOL    HW251856   5.488   1.375   8.723  0.3750 -0.8976  0.5827
16322SOL     OW51857   9.233   8.419   5.384 -0.7976  0.4147 -0.2061
16322SOL    HW151858   9.195   8.457   5.464 -1.7639 -2.8098  1.0113
16322SOL    HW251859   9.327   8.435   5.393 -0.4310 -2.3636  3.2733
16323SOL     OW51860   1.957   2.347   1.733  0.3001  0.1685 -0.1572
16323SOL    HW151861   1.962   2.251   1.738  1.1707  0.2624  1.2300
16323SOL    HW251862   1.876   2.369   1.779  0.6430  0.1546  0.4582
16324SOL     OW51863   6.526   8.881   1.980 -0.2380 -0.1911 -0.3855
16324SOL    HW151864   6.473   8.957   1.959  0.8744  0.5979 -0.4652
16324SOL    HW251865   6.518   8.824   1.904  0.1251  0.5530 -0.9921
16325SOL     OW51866   3.307   4.150   4.655 -0.2637 -0.4741  0.5555
16325SOL    HW151867   3.336   4.241   4.648  0.2641 -0.6926 -0.0970
16325SOL    HW251868   3.217   4.151   4.623 -0.6710  0.0252  1.6583
16326SOL     OW51869   8.364   4.062   7.790 -0.1442 -0.4840 -0.2376
16326SOL    HW151870   8.360   4.121   7.865  1.3360 -2.3945  1.4495
16326SOL    HW251871   8.433   4.098   7.735  0.5766 -0.4945  0.6480
16327SOL     OW51872   2.606   6.944   6.366 -0.5542 -0.3642 -0.0282
16327SOL    HW151873   2.618   6.889   6.288 -0.4932 -2.8816  1.6174
16327SOL    HW251874   2.581   6.882   6.435 -2.0648  1.9300  1.6484
16328SOL     OW51875   6.754   5.511   1.121 -0.6600 -0.6261  0.0115
16328SOL    HW151876   6.748   5.416   1.114  0.4870 -0.7417  0.3313
16328SOL    HW251877   6.664   5.541   1.135 -1.2309 -1.5264 -1.5525
16329SOL     OW51878   4.085   5.503   6.952  0.1142 -0.3680  0.1490
16329SOL    HW151879   4.150   5.435   6.939  0.9656  0.1959  1.2486
16329SOL    HW251880   4.119   5.555   7.026 -1.0580  0.5646  0.0676
16330SOL     OW51881   5.831   6.721   8.950 -0.4006 -0.1112  0.2501
16330SOL    HW151882   5.797   6.722   8.860  0.2045  0.6477  0.0196
16330SOL    HW251883   5.809   6.634   8.982 -0.8250 -0.3199 -0.5570
16331SOL     OW51884   6.573   1.004   8.930  0.4094 -0.3348 -0.3388
16331SOL    HW151885   6.506   1.033   8.992 -0.0457 -0.5513 -0.7180
16331SOL    HW251886   6.553   0.912   8.915 -0.1513 -0.0313 -1.6103
16332SOL     OW51887   5.532   4.169   4.735  0.2296  0.3505  0.1967
16332SOL    HW151888   5.520   4.264   4.734  1.2384  0.4845 -0.2900
16332SOL    HW251889   5.526   4.145   4.828  0.0269  0.8935  0.3271
16333SOL     OW51890   6.509   9.094   1.597  0.0809 -0.0670  0.6665
16333SOL    HW151891   6.455   9.064   1.670 -0.4853 -1.1129 -0.1423
16333SOL    HW251892   6.498   9.189   1.596 -0.9917 -0.1701  1.1022
16334SOL     OW51893   6.480   7.491   1.724  0.4949  0.3335 -0.0740
16334SOL    HW151894   6.506   7.552   1.794 -0.5532  0.4676  0.2104
16334SOL    HW251895   6.538   7.415   1.736 -1.1295 -0.6480  2.4079
16335SOL     OW51896   9.087   5.732   5.455  0.4561  0.3373 -0.0193
16335SOL    HW151897   9.120   5.690   5.376  1.0412 -0.3800  0.5972
16335SOL    HW251898   9.043   5.662   5.503 -1.2142  1.0624 -0.3812
16336SOL     OW51899   3.335   4.239   7.111 -0.3069  0.1847  0.1631
16336SOL    HW151900   3.313   4.170   7.175  0.5829  0.7560  1.1168
16336SOL    HW251901   3.371   4.191   7.036  0.5896 -0.3974  0.9309
16337SOL     OW51902   5.394   8.900   4.901  0.5073  0.0803 -0.0828
16337SOL    HW151903   5.367   8.992   4.898  0.0755 -0.0421 -0.0529
16337SOL    HW251904   5.490   8.902   4.901  0.5114  0.5747  1.2653
16338SOL     OW51905   2.739   6.429   6.269 -0.0208  0.4450 -0.3597
16338SOL    HW151906   2.784   6.486   6.332 -1.6970  0.8662  0.5358
16338SOL    HW251907   2.660   6.478   6.246 -0.3827 -0.5612 -1.3228
16339SOL     OW51908   8.729   7.688   1.318 -0.5700  0.3286  0.5128
16339SOL    HW151909   8.798   7.751   1.339  0.1484 -0.5882  0.9325
16339SOL    HW251910   8.651   7.723   1.361 -0.3274  1.2531  0.2215
16340SOL     OW51911   2.468   4.555   4.408 -0.2690  0.4375  0.2229
16340SOL    HW151912   2.558   4.541   4.437  0.1433  0.2186 -1.1038
16340SOL    HW251913   2.472   4.633   4.352 -0.7628 -0.0169 -0.4576
16341SOL     OW51914   5.729   6.770   8.310 -0.1914  0.1972 -0.1101
16341SOL    HW151915   5.753   6.719   8.232 -1.5440 -0.9265  0.1639
16341SOL    HW251916   5.636   6.788   8.299 -0.4590 -0.1903  1.3611
16342SOL     OW51917   8.426   3.337   4.136 -0.7306  0.3649  0.4647
16342SOL    HW151918   8.335   3.353   4.161 -0.6842  0.5505  0.5159
16342SOL    HW251919   8.477   3.376   4.207 -0.6332 -0.9520  1.1538
16343SOL     OW51920   2.598   0.172   6.761  0.3217  0.0610  0.0757
16343SOL    HW151921   2.674   0.204   6.713  1.4407  1.8338  2.7350
16343SOL    HW251922   2.523   0.215   6.720  0.8068 -0.8914 -1.9226
16344SOL     OW51923   3.032   8.963   3.374  0.1037  0.1556  0.0238
16344SOL    HW151924   3.119   8.958   3.414  0.8333  0.2256 -1.5028
16344SOL    HW251925   2.972   8.937   3.444  1.4284 -0.8163  0.8408
16345SOL     OW51926   6.111   0.459   7.829  0.2616 -0.1833  0.0810
16345SOL    HW151927   6.026   0.416   7.817 -0.3645 -0.1988  3.6157
16345SOL    HW251928   6.092   0.553   7.821  0.7373 -0.2310 -2.8279
16346SOL     OW51929   2.476   7.853   7.105  0.5482  0.5050 -0.3045
16346SOL    HW151930   2.447   7.937   7.069 -0.0423  0.0021 -1.0199
16346SOL    HW251931   2.569   7.846   7.080  0.7164  1.1244  0.1206
16347SOL     OW51932   0.668   2.542   3.114 -0.2956 -0.5283 -0.1998
16347SOL    HW151933   0.708   2.615   3.067  1.5820 -1.6162 -0.4111
16347SOL    HW251934   0.738   2.476   3.121 -0.8045 -0.9213  3.0771
16348SOL     OW51935   6.290   8.313   2.480  0.3488  1.0268  0.0163
16348SOL    HW151936   6.310   8.322   2.387 -1.9817 -0.1038 -0.6927
16348SOL    HW251937   6.217   8.373   2.494 -1.3305 -0.9587  0.3032
16349SOL     OW51938   4.443   0.148   2.176  0.2699 -0.6084 -0.2602
16349SOL    HW151939   4.471   0.057   2.184  0.2962 -0.8117 -2.1381
16349SOL    HW251940   4.350   0.142   2.151  0.5610 -0.1940 -1.5306
16350SOL     OW51941   1.464   1.617   6.289 -0.2384 -0.5939  0.0947
16350SOL    HW151942   1.374   1.636   6.261  0.1639  0.2942 -0.6807
16350SOL    HW251943   1.478   1.527   6.262 -1.3605 -1.2300  1.5226
16351SOL     OW51944   1.730   2.773   0.982  1.1891 -0.0989  0.0101
16351SOL    HW151945   1.700   2.722   1.057 -0.3418  1.5593  0.5939
16351SOL    HW251946   1.727   2.712   0.908 -0.3665 -0.9250  0.7157
16352SOL     OW51947   4.381   3.582   1.874  0.0419  0.0595  0.7751
16352SOL    HW151948   4.457   3.535   1.841 -1.4532 -0.7853 -1.8060
16352SOL    HW251949   4.393   3.672   1.841 -1.2794 -0.7026 -2.1118
16353SOL     OW51950   0.460   8.951   3.608  0.2773 -0.5713  0.8374
16353SOL    HW151951   0.480   9.035   3.568 -1.2597 -1.1098 -1.2417
16353SOL    HW251952   0.380   8.967   3.658 -0.6282 -0.9685 -0.4234
16354SOL     OW51953   8.262   2.095   3.871 -0.2398 -0.1081  0.5392
16354SOL    HW151954   8.200   2.154   3.913  0.2373  0.8923 -0.1130
16354SOL    HW251955   8.334   2.087   3.934 -0.6324 -0.5729  0.9311
16355SOL     OW51956   1.200   0.342   0.587  0.6045 -0.1835  0.0915
16355SOL    HW151957   1.236   0.285   0.519 -0.3729 -0.0522 -0.5502
16355SOL    HW251958   1.246   0.316   0.667  1.8930 -0.2308 -0.6353
16356SOL     OW51959   3.364   0.078   0.118  0.1342 -0.1256  0.1624
16356SOL    HW151960   3.359   0.121   0.032 -1.0380  0.3213  0.4394
16356SOL    HW251961   3.445   0.026   0.113  1.1548  1.4419 -0.4735
16357SOL     OW51962   1.601   2.589   2.683  0.1713  0.1873 -0.5467
16357SOL    HW151963   1.691   2.589   2.714 -0.0856 -0.0841  0.2348
16357SOL    HW251964   1.588   2.675   2.644  0.6152  0.4121 -0.2039
16358SOL     OW51965   5.252   2.841   3.898  0.3840 -0.4087 -0.3785
16358SOL    HW151966   5.228   2.748   3.897  0.1043 -0.4546  2.3446
16358SOL    HW251967   5.283   2.857   3.987 -0.7373  2.4047 -0.3768
16359SOL     OW51968   5.229   7.268   2.965 -0.1002  0.1407  0.4104
16359SOL    HW151969   5.298   7.334   2.975  0.1113 -0.2829  2.0745
16359SOL    HW251970   5.237   7.212   3.042 -2.1904 -0.0330  0.5774
16360SOL     OW51971   8.086   8.994   0.951  0.0553 -1.0931 -0.0835
16360SOL    HW151972   8.047   9.047   0.882 -0.1128 -2.4061 -1.0376
16360SOL    HW251973   8.017   8.934   0.977  0.7859 -2.0645 -0.3241
16361SOL     OW51974   8.125   6.666   6.214 -0.0025  0.4680  0.5002
16361SOL    HW151975   8.036   6.683   6.246 -0.3754  0.1287 -0.3269
16361SOL    HW251976   8.112   6.628   6.127  0.9397 -0.0687  0.5873
16362SOL     OW51977   1.500   1.675   3.554  0.1206 -0.4311 -0.7986
16362SOL    HW151978   1.405   1.678   3.567  0.0697 -0.5952 -1.1384
16362SOL    HW251979   1.511   1.635   3.468  0.4817  0.2637 -1.0768
16363SOL     OW51980   6.526   6.763   3.229  0.3026  0.1749  0.0636
16363SOL    HW151981   6.579   6.684   3.247 -0.5607 -0.5349 -0.4309
16363SOL    HW251982   6.589   6.826   3.196  0.6972 -1.0671 -1.7158
16364SOL     OW51983   1.859   7.266   7.071 -0.1575  0.4900 -0.3154
16364SOL    HW151984   1.809   7.317   7.135 -0.2530  1.5555 -1.2069
16364SOL    HW251985   1.801   7.259   6.995 -0.0453 -0.7542 -0.3078
16365SOL     OW51986   8.242   7.762   6.011 -0.2641  0.0242  0.2903
16365SOL    HW151987   8.180   7.727   5.946  0.8793 -0.2532 -0.6771
16365SOL    HW251988   8.247   7.694   6.078 -1.9725  0.5979  1.0782
16366SOL     OW51989   3.407   4.779   2.812  0.1360  0.6987  0.1399
16366SOL    HW151990   3.327   4.739   2.847 -0.3470  2.2258  0.8829
16366SOL    HW251991   3.387   4.794   2.719 -0.3204  0.7659  0.2463
16367SOL     OW51992   0.222   1.561   8.306 -0.2751  0.4838 -0.5423
16367SOL    HW151993   0.155   1.550   8.239  0.4476 -0.1509 -1.1854
16367SOL    HW251994   0.291   1.611   8.262  0.7988 -1.1058 -0.7095
16368SOL     OW51995   7.924   4.047   0.413 -0.3163 -0.0348  0.3259
16368SOL    HW151996   7.912   4.132   0.455 -0.3222 -0.0371  0.3287
16368SOL    HW251997   7.923   3.984   0.485  0.0385 -0.0065  0.3591
16369SOL     OW51998   4.062   5.107   4.839  0.3367  0.0580 -0.3390
16369SOL    HW151999   4.153   5.079   4.835  0.3506  0.1700 -0.8974
16369SOL    HW252000   4.015   5.031   4.873  0.7389  0.2650  0.7303
16370SOL     OW52001   8.471   3.349   0.660 -0.0245 -0.0897 -0.5425
16370SOL    HW152002   8.488   3.427   0.607  1.5443 -0.5110 -0.6932
16370SOL    HW252003   8.509   3.369   0.746 -0.3052 -0.3940 -0.3430
16371SOL     OW52004   5.791   2.558   6.776  0.0071 -0.0679 -0.1691
16371SOL    HW152005   5.835   2.589   6.855  0.3167  0.8763 -0.6986
16371SOL    HW252006   5.716   2.616   6.766  0.8672  0.8815 -1.4476
16372SOL     OW52007   2.514   5.599   6.613 -0.0813 -0.1676  0.4019
16372SOL    HW152008   2.529   5.553   6.695  0.4309  0.6902  0.8062
16372SOL    HW252009   2.512   5.691   6.637  1.5089  0.2203 -0.7185
16373SOL     OW52010   0.357   3.903   3.653  0.1387 -0.3593  0.2551
16373SOL    HW152011   0.439   3.912   3.701  0.7363  2.3059 -1.0842
16373SOL    HW252012   0.293   3.953   3.704 -0.3649 -1.2507  0.5415
16374SOL     OW52013   4.251   4.064   2.764  0.1649 -0.0944 -0.2585
16374SOL    HW152014   4.218   4.151   2.742 -1.2538 -0.6953 -0.6217
16374SOL    HW252015   4.211   4.007   2.699 -0.8639 -1.3484  1.3913
16375SOL     OW52016   8.261   1.375   5.960 -0.1139  0.3075  0.4265
16375SOL    HW152017   8.353   1.353   5.975  0.2110  0.8810 -0.6147
16375SOL    HW252018   8.261   1.422   5.877 -1.2495  1.0608  0.8313
16376SOL     OW52019   7.369   9.055   0.216  0.0549 -0.1623 -0.3540
16376SOL    HW152020   7.414   9.132   0.251 -1.3828 -0.6215  2.9456
16376SOL    HW252021   7.327   9.086   0.136  1.5272  1.7825 -0.4409
16377SOL     OW52022   3.605   8.306   1.028  0.0349  0.2103  0.3061
16377SOL    HW152023   3.614   8.274   0.939  0.2020 -2.3415  1.1574
16377SOL    HW252024   3.513   8.293   1.049  0.1635  0.0178  0.7652
16378SOL     OW52025   0.677   2.622   5.001 -0.0331 -0.1117  0.1248
16378SOL    HW152026   0.679   2.591   5.092  0.7597 -0.3714  0.0274
16378SOL    HW252027   0.644   2.712   5.007 -1.1563 -0.5368  0.5363
16379SOL     OW52028   0.268   0.404   7.389  0.0406  0.4264 -0.6418
16379SOL    HW152029   0.364   0.401   7.380 -0.0575 -0.5803 -1.6032
16379SOL    HW252030   0.242   0.485   7.345  0.4884  0.9097 -0.0153
16380SOL     OW52031   1.984   5.639   1.847  0.9699  0.0421  0.1221
16380SOL    HW152032   2.028   5.581   1.910 -1.6601 -1.1079  1.0702
16380SOL    HW252033   1.971   5.584   1.770  2.5319  0.8817 -0.7888
16381SOL     OW52034   7.692   2.751   3.784 -0.6360 -0.2476  0.3262
16381SOL    HW152035   7.678   2.748   3.690  0.9680  1.2277 -0.0070
16381SOL    HW252036   7.709   2.660   3.809 -1.5691 -0.7251 -0.6885
16382SOL     OW52037   2.109   7.666   6.550  0.1978 -0.3949 -0.0780
16382SOL    HW152038   2.030   7.665   6.604 -0.0882 -1.4978 -0.4898
16382SOL    HW252039   2.078   7.692   6.463  0.2658 -0.8905 -0.2565
16383SOL     OW52040   8.834   9.044   5.972 -0.0782 -0.7856 -0.9265
16383SOL    HW152041   8.906   9.107   5.973 -0.7487 -0.0236 -0.4229
16383SOL    HW252042   8.811   9.032   6.064 -0.9750 -0.5773 -1.1172
16384SOL     OW52043   5.949   0.567   4.745 -0.0342 -0.0125  0.2440
16384SOL    HW152044   6.029   0.529   4.707 -0.8117 -1.3009 -0.1687
16384SOL    HW252045   5.966   0.661   4.745  1.1617 -0.1928 -0.6079
16385SOL     OW52046   7.033   6.058   8.935 -0.3528  0.8147 -0.1830
16385SOL    HW152047   6.988   5.994   8.990  0.5842 -2.2430 -2.6679
16385SOL    HW252048   7.126   6.042   8.949 -0.0918  1.1987 -1.3167
16386SOL     OW52049   6.749   5.664   4.004 -0.2578 -0.0496  0.0584
16386SOL    HW152050   6.711   5.635   4.087  0.6997  2.7811  1.6305
16386SOL    HW252051   6.678   5.653   3.940 -2.1463  0.5960  1.9145
16387SOL     OW52052   7.360   3.135   0.416 -0.6715 -0.0248  0.4277
16387SOL    HW152053   7.412   3.214   0.402  1.9858 -1.6034  0.6490
16387SOL    HW252054   7.309   3.125   0.336  1.1783  0.3637 -0.8656
16388SOL     OW52055   3.453   5.022   1.725 -0.1293 -0.1941  0.3886
16388SOL    HW152056   3.401   5.102   1.734  0.2119 -0.0807  1.6099
16388SOL    HW252057   3.388   4.953   1.711 -0.4109  0.3176 -0.9608
16389SOL     OW52058   1.949   3.987   7.461 -0.0955 -0.4486  0.0325
16389SOL    HW152059   1.878   4.027   7.411  0.4490  0.9166  0.2807
16389SOL    HW252060   1.990   3.925   7.401  1.0446  1.7297 -1.5753
16390SOL     OW52061   6.597   0.929   6.781  0.1300 -0.5092  0.2351
16390SOL    HW152062   6.517   0.877   6.791 -1.0808  1.0282 -0.9911
16390SOL    HW252063   6.652   0.878   6.721 -1.4252 -0.0282 -1.6845
16391SOL     OW52064   4.416   5.716   6.165 -0.2386  0.0691  0.1132
16391SOL    HW152065   4.436   5.696   6.074 -0.0666 -0.4215  0.2549
16391SOL    HW252066   4.361   5.794   6.161 -1.2015 -0.6131 -0.4870
16392SOL     OW52067   7.472   4.627   5.840 -0.1423  0.3439  0.0978
16392SOL    HW152068   7.421   4.548   5.817  0.2816  0.0650  0.1088
16392SOL    HW252069   7.527   4.643   5.763  1.7119 -0.9351  1.0888
16393SOL     OW52070   2.963   2.457   3.117 -0.0746  0.0022  0.4675
16393SOL    HW152071   2.975   2.549   3.142  2.1475  0.0602 -0.5595
16393SOL    HW252072   2.966   2.409   3.200 -0.4864  0.7743  0.9455
16394SOL     OW52073   0.549   7.743   6.019  0.2321  0.4910  0.2091
16394SOL    HW152074   0.465   7.709   6.048 -0.1126 -2.0491 -3.1408
16394SOL    HW252075   0.614   7.694   6.069 -0.3510 -1.8941 -1.2055
16395SOL     OW52076   3.976   1.813   1.536 -0.2142 -0.1069 -0.3057
16395SOL    HW152077   4.011   1.724   1.522  1.1641  0.2940  0.3729
16395SOL    HW252078   3.957   1.817   1.629 -0.9377  0.0949 -0.4577
16396SOL     OW52079   8.177   7.575   1.821 -0.0022 -0.3706  0.0214
16396SOL    HW152080   8.112   7.645   1.830  0.1033 -0.3331  0.5436
16396SOL    HW252081   8.223   7.574   1.905 -0.8686 -1.9115  0.5224
16397SOL     OW52082   0.485   9.158   5.769  0.4051 -0.0138  0.3896
16397SOL    HW152083   0.467   9.215   5.844  0.3016 -0.9799  1.1236
16397SOL    HW252084   0.541   9.210   5.712 -0.5081  1.1815  0.5475
16398SOL     OW52085   0.605   4.394   1.068  0.2496 -0.4014  0.0896
16398SOL    HW152086   0.607   4.342   1.149 -0.1836  0.1980  0.4907
16398SOL    HW252087   0.524   4.367   1.025 -1.2734  1.6484  1.4732
16399SOL     OW52088   6.847   5.644   7.044  0.1604  0.4471  0.3404
16399SOL    HW152089   6.833   5.587   7.120 -0.9865  0.0617 -0.1386
16399SOL    HW252090   6.942   5.655   7.040  0.3076 -0.3266  1.2535
16400SOL     OW52091   7.175   2.644   7.436 -0.4664 -0.6965 -0.3340
16400SOL    HW152092   7.163   2.555   7.469  0.5520 -0.8168 -0.2544
16400SOL    HW252093   7.268   2.650   7.416 -0.5859  0.2425 -0.6760
16401SOL     OW52094   7.402   1.683   2.172 -0.0426  0.6815  0.3596
16401SOL    HW152095   7.379   1.689   2.264 -0.6837  2.6670  0.1129
16401SOL    HW252096   7.401   1.774   2.141  0.6694  0.1073 -1.4787
16402SOL     OW52097   7.049   2.015   0.423  0.6729  0.0542 -0.2836
16402SOL    HW152098   7.003   2.096   0.446  1.9968  1.0255 -0.9564
16402SOL    HW252099   7.022   1.997   0.333  1.5176  0.5631 -0.6399
16403SOL     OW52100   1.873   3.368   3.943  0.1951  0.8322 -0.7258
16403SOL    HW152101   1.822   3.399   3.869 -1.2390 -0.3241 -0.2777
16403SOL    HW252102   1.866   3.437   4.008 -0.5577  0.8327 -0.7944
16404SOL     OW52103   2.328   4.622   5.697  0.4000 -0.2516 -0.0759
16404SOL    HW152104   2.299   4.556   5.760 -0.5466 -0.0864 -0.3202
16404SOL    HW252105   2.357   4.696   5.750  2.7359 -1.3230  0.2517
16405SOL     OW52106   2.882   6.301   2.568  0.1510  0.5988  0.7710
16405SOL    HW152107   2.946   6.244   2.526  0.7586  0.9367  1.2267
16405SOL    HW252108   2.931   6.379   2.593 -0.7629  1.5307 -0.2431
16406SOL     OW52109   6.542   6.670   7.040  0.9827 -0.0063  0.1310
16406SOL    HW152110   6.521   6.747   7.093  0.2659 -0.5821  0.7111
16406SOL    HW252111   6.493   6.682   6.959  0.6099 -0.0081  0.3546
16407SOL     OW52112   6.318   1.745   0.235  0.1183  0.1822  0.0050
16407SOL    HW152113   6.318   1.806   0.161  1.5094  0.9754  0.6162
16407SOL    HW252114   6.283   1.663   0.198  0.8727  0.5169 -1.5658
16408SOL     OW52115   5.612   4.680   2.695  0.0499 -0.2470  0.4134
16408SOL    HW152116   5.634   4.657   2.605  1.6991  2.4863  0.0042
16408SOL    HW252117   5.525   4.643   2.709 -1.2942  1.1521 -3.1279
16409SOL     OW52118   0.896   3.908   5.644 -0.6401 -0.3031  0.1290
16409SOL    HW152119   0.854   3.823   5.654 -0.4326 -0.2952  1.3589
16409SOL    HW252120   0.962   3.895   5.576  1.8945 -2.2301  2.6620
16410SOL     OW52121   6.964   0.965   8.360 -0.2383  0.2696  0.2780
16410SOL    HW152122   7.022   0.945   8.433 -1.3172 -2.3869  0.5222
16410SOL    HW252123   6.957   0.883   8.311 -0.9618  1.4890 -1.8176
16411SOL     OW52124   3.032   2.532   3.916 -0.0370  1.0051  0.1700
16411SOL    HW152125   3.050   2.607   3.859 -2.6912  2.0968  0.6465
16411SOL    HW252126   2.944   2.503   3.891  0.0089 -0.5114  1.5889
16412SOL     OW52127   2.578   8.125   9.012  0.5473 -0.2510  0.1892
16412SOL    HW152128   2.639   8.196   9.031  1.0347 -0.3302 -1.0321
16412SOL    HW252129   2.531   8.152   8.934  0.2752 -0.9826  0.0863
16413SOL     OW52130   2.410   4.037   6.665 -0.8290 -0.1200  0.0465
16413SOL    HW152131   2.327   4.071   6.630 -0.8578  0.7262  0.8769
16413SOL    HW252132   2.433   4.099   6.735  0.1002 -0.7913  0.3529
16414SOL     OW52133   4.822   0.174   4.165  0.2413 -0.1296  0.3057
16414SOL    HW152134   4.850   0.265   4.177  1.9130 -0.2640 -1.9315
16414SOL    HW252135   4.904   0.123   4.168 -0.7108 -1.6932  2.1349
16415SOL     OW52136   7.870   9.187   3.659  0.0916 -0.5030 -0.2868
16415SOL    HW152137   7.952   9.202   3.611  0.0266  0.6033 -0.0651
16415SOL    HW252138   7.898   9.145   3.741  0.3049 -1.2985 -0.7469
16416SOL     OW52139   5.332   6.672   7.597  0.2261  0.3124  0.1373
16416SOL    HW152140   5.406   6.732   7.609 -1.1258  1.6711  2.3321
16416SOL    HW252141   5.351   6.598   7.655  0.2286  0.3128  0.1373
16417SOL     OW52142   9.237   3.965   1.824  0.2538 -0.5323 -0.4271
16417SOL    HW152143   9.191   4.030   1.770  0.0201 -1.0633 -0.8795
16417SOL    HW252144   9.242   3.887   1.768 -0.7885 -1.3862  0.6281
16418SOL     OW52145   3.469   2.340   0.241 -1.3350 -0.7752 -0.7607
16418SOL    HW152146   3.532   2.272   0.215  0.6591  0.9771 -0.8194
16418SOL    HW252147   3.431   2.308   0.323  0.5653 -1.3766 -0.0633
16419SOL     OW52148   7.810   3.720   4.702 -0.3403 -0.1451  0.1708
16419SOL    HW152149   7.834   3.646   4.645 -1.6284 -0.5065  0.0647
16419SOL    HW252150   7.892   3.745   4.744  0.2047 -1.3626 -0.1126
16420SOL     OW52151   4.155   9.187   5.648  0.0101  0.4905 -0.2974
16420SOL    HW152152   4.214   9.124   5.690  2.7556  3.1489  0.1739
16420SOL    HW252153   4.199   9.210   5.566 -0.3712  2.4657 -0.0002
16421SOL     OW52154   4.992   2.291   5.147  0.4769 -0.0371 -0.1086
16421SOL    HW152155   5.039   2.341   5.080  0.4815  0.5125  0.2986
16421SOL    HW252156   5.040   2.309   5.228  0.9020 -1.2747 -0.0676
16422SOL     OW52157   4.818   3.014   4.802 -0.4608 -0.7134  0.5824
16422SOL    HW152158   4.796   2.924   4.777  1.0913 -0.9492 -0.0351
16422SOL    HW252159   4.877   3.005   4.876  1.8906 -0.3611 -1.1468
16423SOL     OW52160   4.899   4.937   3.938  0.1165 -0.1505 -0.3930
16423SOL    HW152161   4.852   4.855   3.932 -0.9042  0.3021  0.9819
16423SOL    HW252162   4.969   4.930   3.873  1.3830 -2.9657  1.1224
16424SOL     OW52163   7.886   3.898   1.944 -0.7625  0.1190  0.1570
16424SOL    HW152164   7.947   3.875   2.014 -1.5885  0.0664  0.8759
16424SOL    HW252165   7.877   3.818   1.893  0.7329  0.4710 -0.7248
16425SOL     OW52166   1.831   7.054   1.462 -0.3504 -0.3342 -0.0607
16425SOL    HW152167   1.747   7.019   1.494 -0.4684 -0.3680 -0.4047
16425SOL    HW252168   1.870   6.981   1.413 -0.0434 -0.3709  0.2347
16426SOL     OW52169   4.373   1.759   2.975 -0.5700  0.4703 -0.4823
16426SOL    HW152170   4.416   1.822   2.916 -0.1577 -0.1614 -0.8669
16426SOL    HW252171   4.341   1.690   2.918 -2.9819  1.3561 -0.3216
16427SOL     OW52172   3.753   7.835   1.815  0.3726  0.2004 -0.3492
16427SOL    HW152173   3.741   7.914   1.868 -0.2992 -0.9347  1.2634
16427SOL    HW252174   3.825   7.788   1.857 -0.3376 -0.8424 -0.2590
16428SOL     OW52175   8.665   3.273   6.569 -0.4581 -0.0219 -0.3782
16428SOL    HW152176   8.649   3.184   6.536 -0.0652  0.0488 -0.7771
16428SOL    HW252177   8.702   3.260   6.656 -0.2806 -0.2570 -0.4869
16429SOL     OW52178   3.391   1.417   3.972  0.0459  0.3574 -0.6456
16429SOL    HW152179   3.347   1.472   4.037 -2.0844 -0.0483 -1.6673
16429SOL    HW252180   3.483   1.419   3.998 -0.8364 -0.9331  3.2637
16430SOL     OW52181   2.581   6.250   3.834  0.4422  0.0176  0.2707
16430SOL    HW152182   2.509   6.247   3.897 -0.2152  1.3514 -0.3791
16430SOL    HW252183   2.597   6.158   3.812 -0.5797 -0.3465  0.9595
16431SOL     OW52184   2.893   8.756   5.270 -0.0455  0.8881  0.5650
16431SOL    HW152185   2.800   8.772   5.252  0.0639  0.2831 -0.6456
16431SOL    HW252186   2.925   8.711   5.191  0.7597 -0.8485  1.8249
16432SOL     OW52187   6.400   5.213   2.171 -0.5853 -0.2804 -0.1432
16432SOL    HW152188   6.494   5.195   2.175 -0.5729 -0.0236  2.2203
16432SOL    HW252189   6.394   5.304   2.142 -0.0909 -0.2539 -0.1731
16433SOL     OW52190   6.157   5.691   8.948 -0.1288  0.4795  0.0833
16433SOL    HW152191   6.140   5.631   8.875 -0.6319 -0.7933  1.2063
16433SOL    HW252192   6.216   5.757   8.912  1.6941 -1.5265 -0.8133
16434SOL     OW52193   7.123   0.450   2.591  0.0738  0.3146 -0.2344
16434SOL    HW152194   7.085   0.368   2.562  0.4130 -0.7066  2.0077
16434SOL    HW252195   7.105   0.453   2.685  0.9038  2.3472 -0.0921
16435SOL     OW52196   1.360   0.864   2.133  0.2396 -0.3168 -0.9682
16435SOL    HW152197   1.364   0.953   2.167  0.3518 -0.3917 -0.7846
16435SOL    HW252198   1.377   0.874   2.039 -1.5480  0.0595 -1.2980
16436SOL     OW52199   3.863   4.203   1.153  0.2362  0.4477  0.1028
16436SOL    HW152200   3.851   4.190   1.247 -2.3556  0.5713 -0.1426
16436SOL    HW252201   3.825   4.124   1.114  1.8583  0.1046 -0.8665
16437SOL     OW52202   7.784   5.715   3.699  0.2056  0.2291 -0.3689
16437SOL    HW152203   7.878   5.728   3.692  0.1413  1.2872  0.4454
16437SOL    HW252204   7.754   5.786   3.756 -0.8523 -1.0485  0.7444
16438SOL     OW52205   9.113   0.022   4.320  0.4363  0.0070  0.3143
16438SOL    HW152206   9.024   0.055   4.330  0.3642  0.2389 -0.9170
16438SOL    HW252207   9.103  -0.060   4.271  1.0256  1.3582 -2.2625
16439SOL     OW52208   3.501   2.968   6.258  0.3538  0.6293 -0.2777
16439SOL    HW152209   3.486   3.007   6.172  3.3103  0.9825 -0.7558
16439SOL    HW252210   3.541   2.883   6.238 -3.6147 -1.7211  0.7789
16440SOL     OW52211   7.899   8.006   0.643  0.0046 -0.0075  0.1021
16440SOL    HW152212   7.868   8.068   0.709  2.6151 -0.4926  1.9350
16440SOL    HW252213   7.832   7.938   0.641 -0.3310  0.2088  2.0086
16441SOL     OW52214   1.812   6.297   1.761  0.2287  0.7221 -0.2090
16441SOL    HW152215   1.740   6.356   1.741 -0.4002 -0.5270 -1.8904
16441SOL    HW252216   1.780   6.244   1.835 -0.1001  0.9818 -0.1638
16442SOL     OW52217   6.727   7.230   8.298  0.7939 -0.5173  0.1190
16442SOL    HW152218   6.692   7.313   8.265 -0.4729 -0.9064  0.4445
16442SOL    HW252219   6.742   7.245   8.391 -1.6454 -1.3081  0.7074
16443SOL     OW52220   5.068   9.187   4.576 -0.0081 -0.1456  0.3388
16443SOL    HW152221   4.975   9.170   4.559  0.3104 -2.2922  0.3956
16443SOL    HW252222   5.112   9.159   4.495  0.6128  0.5960  0.4135
16444SOL     OW52223   5.759   5.645   0.806 -0.4961  0.5997 -0.1114
16444SOL    HW152224   5.696   5.621   0.874 -1.8249  0.9277 -1.1923
16444SOL    HW252225   5.756   5.741   0.803 -0.8887  0.5661 -1.0280
16445SOL     OW52226   3.262   1.468   3.352 -0.0689  0.2393  0.2910
16445SOL    HW152227   3.301   1.422   3.277 -1.4513 -1.6640  0.6773
16445SOL    HW252228   3.310   1.435   3.428 -0.1378  0.5023  0.4500
16446SOL     OW52229   8.835   7.437   1.675 -0.1405  0.0035 -0.2466
16446SOL    HW152230   8.754   7.439   1.725  0.4773 -1.1317  0.8573
16446SOL    HW252231   8.868   7.348   1.686  0.7634  0.1632 -1.4764
16447SOL     OW52232   7.629   8.761   3.634  0.1225 -0.1615 -0.3847
16447SOL    HW152233   7.556   8.796   3.684  0.8776 -0.4579  0.9679
16447SOL    HW252234   7.663   8.836   3.584  0.7153  0.6965  1.2388
16448SOL     OW52235   9.264   7.452   4.509 -0.0376  0.1526 -0.2615
16448SOL    HW152236   9.295   7.405   4.431  1.0250 -2.0204  1.3479
16448SOL    HW252237   9.255   7.384   4.575 -4.2883  1.2922  0.6657
16449SOL     OW52238   4.202   3.942   7.498  0.2936  0.1470 -0.3317
16449SOL    HW152239   4.216   3.947   7.592  0.3329 -1.2780 -0.2418
16449SOL    HW252240   4.249   3.864   7.470 -0.5298 -0.0118 -1.3736
16450SOL     OW52241   6.787   3.602   1.130  0.3157 -0.3494 -0.5060
16450SOL    HW152242   6.766   3.510   1.146 -2.9961  0.0005 -2.0008
16450SOL    HW252243   6.846   3.599   1.054 -0.3496 -1.2575 -1.0185
16451SOL     OW52244   5.802   3.651   8.434  0.1723  0.1292  0.3695
16451SOL    HW152245   5.718   3.663   8.478  0.5885  0.2886  1.1386
16451SOL    HW252246   5.788   3.579   8.373 -0.8319  0.8787 -0.3151
16452SOL     OW52247   3.249   8.495   5.096  0.0145  0.1324 -1.0646
16452SOL    HW152248   3.296   8.538   5.168 -2.1973 -0.9010  1.1493
16452SOL    HW252249   3.217   8.566   5.041  0.4564  1.0505 -0.1656
16453SOL     OW52250   1.943   2.388   3.730  0.3557 -0.1958  0.1608
16453SOL    HW152251   1.882   2.396   3.804  0.3779  0.2287  0.1372
16453SOL    HW252252   2.019   2.342   3.767  1.0842  1.4651  0.8732
16454SOL     OW52253   7.463   7.018   4.639 -0.2960 -0.4305  0.3540
16454SOL    HW152254   7.486   7.088   4.577 -0.4290 -0.4846  0.2427
16454SOL    HW252255   7.547   6.991   4.677 -0.3622  0.6843  1.3631
16455SOL     OW52256   7.141   5.747   0.920  0.0424  0.1607 -0.9152
16455SOL    HW152257   7.207   5.715   0.858  1.7605 -2.0581  1.8497
16455SOL    HW252258   7.082   5.673   0.933 -0.2719  0.5775  0.1436
16456SOL     OW52259   9.130   4.332   8.421 -0.2036  0.0288  0.0401
16456SOL    HW152260   9.077   4.412   8.414  0.2717  0.2055 -2.3068
16456SOL    HW252261   9.124   4.292   8.334  1.6439 -1.1411  0.4145
16457SOL     OW52262   3.053   6.688   8.161  0.3658  0.3766  0.1640
16457SOL    HW152263   3.019   6.688   8.072 -2.3316 -0.8424  1.1023
16457SOL    HW252264   3.079   6.598   8.178 -0.3953  0.3044  1.0285
16458SOL     OW52265   1.871   6.727   2.781  0.5624  0.0693  0.0988
16458SOL    HW152266   1.904   6.815   2.761  0.1895 -0.0322 -1.0133
16458SOL    HW252267   1.928   6.696   2.852  2.0177  0.4187 -0.8618
16459SOL     OW52268   3.737   8.215   1.242  0.0902  0.1189  0.3936
16459SOL    HW152269   3.773   8.297   1.275 -1.0745  0.9976 -0.4604
16459SOL    HW252270   3.692   8.238   1.161 -0.5524 -1.3057  0.3052
16460SOL     OW52271   5.734   0.828   6.133 -0.4429  0.4012 -0.3525
16460SOL    HW152272   5.775   0.909   6.163 -0.7024  0.7916 -1.0387
16460SOL    HW252273   5.792   0.795   6.065  0.0334 -0.3734  0.4157
16461SOL     OW52274   8.522   8.387   1.438  0.0177  0.1291  0.1539
16461SOL    HW152275   8.565   8.442   1.502 -1.2230  1.5927 -0.2069
16461SOL    HW252276   8.550   8.421   1.353  2.3099 -2.3091 -0.2116
16462SOL     OW52277   7.597   7.521   1.285  0.7376 -0.0224 -0.1571
16462SOL    HW152278   7.685   7.541   1.253  0.7402 -0.9786 -0.8024
16462SOL    HW252279   7.604   7.524   1.380  1.7951 -1.3156 -0.1643
16463SOL     OW52280   1.390   4.255   0.054 -0.6965 -0.6273 -0.4111
16463SOL    HW152281   1.423   4.165   0.052 -0.6553 -0.6171 -0.2557
16463SOL    HW252282   1.444   4.298   0.120 -1.2753 -0.7130  0.1329
16464SOL     OW52283   5.035   1.054   2.291  0.1984  0.0617 -0.1022
16464SOL    HW152284   5.055   0.970   2.250  2.7637  0.6910 -0.3293
16464SOL    HW252285   5.010   1.111   2.218 -0.9544 -0.3096 -0.0185
16465SOL     OW52286   1.871   0.143   7.853  0.0029  0.2017  0.3422
16465SOL    HW152287   1.921   0.072   7.813  0.3072 -0.0035  1.0581
16465SOL    HW252288   1.864   0.118   7.945 -0.1690  0.9450  0.5372
16466SOL     OW52289   2.564   6.564   4.229  0.2202  0.1128  0.1431
16466SOL    HW152290   2.659   6.552   4.231  0.1088 -1.0844 -0.7148
16466SOL    HW252291   2.547   6.608   4.145  0.1134  1.5995  0.9029
16467SOL     OW52292   7.127   3.905   9.175 -0.6080  0.1085  0.0564
16467SOL    HW152293   7.163   3.822   9.205 -1.5525 -0.2459  0.2406
16467SOL    HW252294   7.122   3.896   9.080 -0.5466  0.0229  0.0614
16468SOL     OW52295   5.856   6.187   8.098 -0.2749  0.4423  0.1030
16468SOL    HW152296   5.827   6.167   8.186  0.6407 -1.2309  0.0757
16468SOL    HW252297   5.944   6.148   8.092  0.1002  1.3980 -1.2155
16469SOL     OW52298   8.825   0.270   8.440  0.2787 -0.1476  0.0163
16469SOL    HW152299   8.858   0.249   8.352 -1.1022  0.2390 -0.6158
16469SOL    HW252300   8.769   0.347   8.427  0.0972 -0.0535  1.2507
16470SOL     OW52301   9.223   3.547   5.249 -0.4823 -0.6250  0.3459
16470SOL    HW152302   9.309   3.526   5.213 -1.0288  0.5352 -1.8273
16470SOL    HW252303   9.221   3.505   5.335  1.8133 -1.5977 -0.0252
16471SOL     OW52304   0.595   8.777   5.025 -1.0211  0.2873  0.1129
16471SOL    HW152305   0.681   8.734   5.029 -0.8259  0.5874 -0.7014
16471SOL    HW252306   0.535   8.713   5.062 -0.3074  0.4642  1.6505
16472SOL     OW52307   5.530   6.917   0.845 -0.0841 -0.4352 -0.4603
16472SOL    HW152308   5.442   6.953   0.829  0.4587  0.8664 -0.6515
16472SOL    HW252309   5.589   6.981   0.805  0.9552 -1.3252 -0.3769
16473SOL     OW52310   6.259   0.905   1.708 -0.0917  0.1625  0.0100
16473SOL    HW152311   6.243   0.949   1.791 -1.2089  0.8708 -0.5719
16473SOL    HW252312   6.354   0.910   1.696 -0.0611  1.1719  0.6285
16474SOL     OW52313   2.107   5.210   1.221  0.0124 -0.1384 -0.0311
16474SOL    HW152314   2.028   5.247   1.181 -0.2954  0.0423  0.7202
16474SOL    HW252315   2.121   5.263   1.299  1.4286  0.4164 -0.6491
16475SOL     OW52316   1.811   0.310   4.438  0.3635  0.0913  0.1314
16475SOL    HW152317   1.758   0.311   4.518  3.2087 -1.8551  2.2077
16475SOL    HW252318   1.836   0.219   4.426  3.4363  0.9116 -0.5421
16476SOL     OW52319   7.713   0.511   2.591  0.5117 -0.2529  0.2564
16476SOL    HW152320   7.701   0.442   2.656 -1.1807  2.0248  2.5393
16476SOL    HW252321   7.803   0.539   2.601  1.0412 -1.6706 -0.2833
16477SOL     OW52322   2.617   8.765   8.371  0.0768 -0.0680  0.0101
16477SOL    HW152323   2.706   8.787   8.344 -0.0055 -0.0515 -0.2528
16477SOL    HW252324   2.627   8.689   8.428  0.5432  1.5781  2.2702
16478SOL     OW52325   6.916   7.259   7.681  0.4889  0.0043  0.4067
16478SOL    HW152326   6.864   7.331   7.717  0.3396  0.4406 -0.6588
16478SOL    HW252327   6.939   7.287   7.593 -2.2474 -2.5001 -1.3107
16479SOL     OW52328   3.058   2.959   3.855  0.2247  0.2057 -0.1091
16479SOL    HW152329   3.019   2.906   3.924  0.8981 -0.2945 -0.0992
16479SOL    HW252330   3.003   3.037   3.851 -0.7907 -0.4913 -0.1368
16480SOL     OW52331   2.090   5.756   8.803  0.3295 -0.0054 -0.0746
16480SOL    HW152332   2.142   5.790   8.730 -0.1967 -0.8709 -0.8791
16480SOL    HW252333   2.021   5.704   8.761  0.8647 -1.7480  1.0684
16481SOL     OW52334   2.038   6.184   1.073  0.4509  0.8739  0.3547
16481SOL    HW152335   2.089   6.107   1.048  1.6282  1.7694 -0.1140
16481SOL    HW252336   2.102   6.243   1.112 -0.2375  2.0070 -0.1744
16482SOL     OW52337   6.416   7.489   2.003 -0.2862  0.2297  0.2092
16482SOL    HW152338   6.391   7.490   2.095  1.5046  0.0174  0.7397
16482SOL    HW252339   6.398   7.400   1.974 -0.7261  0.2574  0.3922
16483SOL     OW52340   1.501   3.133   9.067 -0.4037 -0.3571 -0.4041
16483SOL    HW152341   1.515   3.097   8.979  1.9229  1.0606 -0.6969
16483SOL    HW252342   1.532   3.064   9.126 -0.5386 -0.7159 -0.7439
16484SOL     OW52343   9.204   6.141   6.657 -0.5411 -0.2646  0.6951
16484SOL    HW152344   9.168   6.067   6.707 -1.1147  0.2828  1.1118
16484SOL    HW252345   9.226   6.206   6.723  0.5183 -0.2818  0.3768
16485SOL     OW52346   6.626   6.102   2.694  0.0876 -0.5427  0.0633
16485SOL    HW152347   6.552   6.045   2.675 -0.6878  0.5751 -0.3569
16485SOL    HW252348   6.670   6.061   2.768  0.4871 -2.5332 -1.2007
16486SOL     OW52349   1.189   7.164   4.542  0.0586  0.4827  0.1275
16486SOL    HW152350   1.206   7.189   4.633 -1.9131  2.1018  0.1403
16486SOL    HW252351   1.161   7.246   4.500 -0.4132 -0.5010 -1.5803
16487SOL     OW52352   1.182   7.794   5.060 -0.4668 -0.1904  0.0910
16487SOL    HW152353   1.144   7.712   5.091 -1.0410 -0.2878 -0.8543
16487SOL    HW252354   1.271   7.771   5.032 -0.1754 -0.2298  1.0019
16488SOL     OW52355   0.192   2.272   7.261  0.0259 -0.6695  0.2529
16488SOL    HW152356   0.161   2.197   7.314 -1.7455  0.9124  1.6197
16488SOL    HW252357   0.251   2.319   7.320 -0.6269  0.1979  0.2207
16489SOL     OW52358   4.442   7.093   0.994  0.0756  0.5025  0.1641
16489SOL    HW152359   4.378   7.022   0.987 -0.2388  0.7342  0.6420
16489SOL    HW252360   4.461   7.118   0.903 -0.1420  0.1027  0.0102
16490SOL     OW52361   0.679   7.768   2.553 -0.3628  0.5048  0.6753
16490SOL    HW152362   0.622   7.693   2.534 -0.7501  0.8110  0.6190
16490SOL    HW252363   0.651   7.836   2.492 -0.6793  1.0287  1.3863
16491SOL     OW52364   4.577   6.545   8.418  0.0865 -0.2515 -0.1928
16491SOL    HW152365   4.488   6.513   8.402  0.5693 -1.4491 -0.6149
16491SOL    HW252366   4.579   6.567   8.511 -0.8017  0.3118 -0.2982
16492SOL     OW52367   7.340   8.294   6.788  0.0633 -0.5104  0.0907
16492SOL    HW152368   7.380   8.367   6.835 -0.6143  0.6800 -1.1116
16492SOL    HW252369   7.254   8.326   6.762 -0.1047 -1.6028 -0.7924
16493SOL     OW52370   5.117   6.579   1.048  0.0225  0.1954 -0.9658
16493SOL    HW152371   5.073   6.622   0.975 -0.2975  0.8819 -0.3722
16493SOL    HW252372   5.210   6.589   1.029  0.0017  2.3065 -0.2129
16494SOL     OW52373   5.002   7.332   1.875  0.8243  0.0032 -0.2328
16494SOL    HW152374   4.933   7.316   1.810  1.4929 -0.5074 -0.8280
16494SOL    HW252375   5.001   7.427   1.888 -0.2751 -0.0355  0.0893
16495SOL     OW52376   8.971   7.668   1.880 -0.3716  0.1915  0.2954
16495SOL    HW152377   8.883   7.640   1.907 -0.8670  3.0412  1.9723
16495SOL    HW252378   9.011   7.702   1.959  1.7309  0.2931 -0.7537
16496SOL     OW52379   8.681   1.860   3.702  0.9632  0.1489 -0.6677
16496SOL    HW152380   8.653   1.834   3.614  0.2956 -0.1951 -0.3617
16496SOL    HW252381   8.673   1.781   3.754 -0.1013  0.6950  0.0451
16497SOL     OW52382   6.611   7.213   0.443  0.0778  0.4880  0.2138
16497SOL    HW152383   6.566   7.131   0.462  0.0933  0.6534  0.9965
16497SOL    HW252384   6.695   7.206   0.488 -0.1848  1.1923  0.8386
16498SOL     OW52385   1.863   5.669   7.665 -1.0048  0.2611 -0.3171
16498SOL    HW152386   1.888   5.581   7.692 -0.4104  0.2414 -0.9217
16498SOL    HW252387   1.938   5.701   7.615 -0.7764  1.5058  0.7668
16499SOL     OW52388   3.421   8.253   4.630  0.0222 -0.5553 -0.0148
16499SOL    HW152389   3.505   8.255   4.585  0.2367  0.4173  0.3903
16499SOL    HW252390   3.440   8.282   4.719 -0.7638 -0.0870  0.0189
16500SOL     OW52391   7.866   4.617   4.486  0.1567 -0.3980  0.6803
16500SOL    HW152392   7.888   4.598   4.395  0.1527  1.5214  0.2444
16500SOL    HW252393   7.908   4.546   4.536  0.2627 -1.4039 -0.7847
16501SOL     OW52394   7.470   2.679   0.280 -0.3265 -0.2067  0.2654
16501SOL    HW152395   7.507   2.617   0.342  1.5220  0.5751  0.0048
16501SOL    HW252396   7.507   2.764   0.305 -0.0961  0.2345 -1.4535
16502SOL     OW52397   0.983   4.214   5.847  0.2215  0.1376  0.1307
16502SOL    HW152398   1.068   4.191   5.884  0.4187 -0.6013 -0.7431
16502SOL    HW252399   1.003   4.254   5.762 -0.3128 -0.8112 -0.4679
16503SOL     OW52400   6.188   9.106   0.063  0.2696 -0.2672 -0.1191
16503SOL    HW152401   6.189   9.174  -0.005 -0.5415  1.1850  1.2612
16503SOL    HW252402   6.111   9.127   0.116  0.3012 -1.9832  0.6469
16504SOL     OW52403   4.972   2.065   1.840  0.0540  0.3650 -0.4259
16504SOL    HW152404   4.931   2.134   1.893 -1.2586 -1.6892  1.3931
16504SOL    HW252405   5.017   2.009   1.904  0.0659 -1.1321 -1.6995
16505SOL     OW52406   5.614   7.837   6.626  0.2178 -0.0124 -0.1694
16505SOL    HW152407   5.553   7.816   6.555  0.6606  1.0484 -0.8850
16505SOL    HW252408   5.699   7.806   6.595  0.1893 -0.7763  0.4892
16506SOL     OW52409   4.887   2.799   6.633  0.0313 -0.1627  0.1884
16506SOL    HW152410   4.850   2.711   6.631 -0.8173  0.1529  0.9544
16506SOL    HW252411   4.811   2.856   6.640  0.6268  0.5359  1.4301
16507SOL     OW52412   4.340   5.285   3.621 -0.2770 -0.2419 -0.0013
16507SOL    HW152413   4.310   5.213   3.678  1.6097  0.0734  1.4973
16507SOL    HW252414   4.429   5.261   3.597 -0.6314  0.2227 -1.9372
16508SOL     OW52415   8.569   4.174   3.956 -0.1323  0.3682  0.0496
16508SOL    HW152416   8.563   4.189   3.862  0.3439 -0.3257 -0.1030
16508SOL    HW252417   8.544   4.082   3.967  0.6064  0.2149  0.4971
16509SOL     OW52418   2.517   7.364   0.942  0.5902  0.3768 -1.0396
16509SOL    HW152419   2.424   7.386   0.941  0.8182  1.9677  1.5612
16509SOL    HW252420   2.560   7.447   0.963  2.2238 -0.9731  1.5825
16510SOL     OW52421   8.146   5.849   6.657  0.1834 -0.1599  0.1965
16510SOL    HW152422   8.158   5.798   6.577  0.4969  0.4205 -0.1322
16510SOL    HW252423   8.052   5.862   6.664  0.1407 -0.3665  0.0163
16511SOL     OW52424   7.636   6.809   3.869 -0.2642 -0.5192 -0.3439
16511SOL    HW152425   7.686   6.817   3.788 -1.2572  0.4126 -0.8981
16511SOL    HW252426   7.681   6.866   3.931 -0.2488 -0.1875 -0.6527
16512SOL     OW52427   3.655   8.720   8.453  0.1021 -0.2343  0.4470
16512SOL    HW152428   3.686   8.791   8.396  0.6546  0.7654  1.9290
16512SOL    HW252429   3.701   8.642   8.422  1.3630  0.5381  0.3241
16513SOL     OW52430   4.152   2.804   3.727 -0.7715 -0.4289 -0.2905
16513SOL    HW152431   4.078   2.772   3.778 -1.0493 -1.3349 -1.2283
16513SOL    HW252432   4.229   2.776   3.776 -1.0309  0.4261  0.6368
16514SOL     OW52433   4.138   2.022   5.591 -0.1430 -0.4425  0.6185
16514SOL    HW152434   4.149   1.926   5.592 -1.9922 -0.6910  1.7907
16514SOL    HW252435   4.117   2.042   5.500  0.6360 -1.0974  0.2816
16515SOL     OW52436   0.140   1.787   5.636 -0.5509 -0.0203 -0.1597
16515SOL    HW152437   0.067   1.725   5.635  0.1704 -0.8948 -0.1687
16515SOL    HW252438   0.130   1.838   5.555 -1.2342 -0.0172 -0.0756
16516SOL     OW52439   5.715   0.084   9.108  0.1790  0.6460  0.4685
16516SOL    HW152440   5.795   0.109   9.154  0.5640  0.9734 -0.3569
16516SOL    HW252441   5.697   0.157   9.049 -1.1660  0.9125  1.1755
16517SOL     OW52442   0.935   0.375   5.544  0.1833  0.3815  0.1205
16517SOL    HW152443   0.992   0.298   5.532 -1.4219 -0.5869 -2.0599
16517SOL    HW252444   0.963   0.413   5.627  2.8233 -1.0197 -0.0146
16518SOL     OW52445   7.410   6.392   4.899  0.1255  0.3741 -0.1350
16518SOL    HW152446   7.438   6.462   4.958  1.5933  0.1075 -0.4812
16518SOL    HW252447   7.491   6.354   4.867 -0.5772 -2.2876  0.9623
16519SOL     OW52448   3.095   7.077   4.567  0.1224 -0.0585 -0.5032
16519SOL    HW152449   3.156   7.030   4.623  1.3924  2.4285  0.3231
16519SOL    HW252450   3.008   7.047   4.596  0.7667  0.3705  2.1168
16520SOL     OW52451   5.275   1.597   8.525  0.1986 -0.5037 -0.1559
16520SOL    HW152452   5.202   1.581   8.584  0.0764  0.2576 -0.0936
16520SOL    HW252453   5.322   1.671   8.565  1.9717 -2.0259  0.7181
16521SOL     OW52454   7.878   7.306   0.942  0.5495  0.6735 -0.3368
16521SOL    HW152455   7.934   7.379   0.916 -0.1481  1.6814  0.8838
16521SOL    HW252456   7.826   7.340   1.015  0.9171 -1.3624  0.9408
16522SOL     OW52457   6.352   6.694   1.835  0.7832  0.1196  0.0420
16522SOL    HW152458   6.288   6.761   1.811 -0.6752 -1.6280 -1.2300
16522SOL    HW252459   6.344   6.686   1.930  1.6401  2.2850  0.3787
16523SOL     OW52460   6.667   8.461   2.680  0.0428 -0.3219 -0.6657
16523SOL    HW152461   6.580   8.499   2.691 -0.3998 -1.7703  1.4516
16523SOL    HW252462   6.651   8.366   2.681  1.5909 -0.5991 -0.8160
16524SOL     OW52463   3.096   1.335   2.319  0.5906  0.0906 -0.3937
16524SOL    HW152464   3.179   1.325   2.365  0.1367 -0.8799  0.2270
16524SOL    HW252465   3.054   1.411   2.361  0.7473  0.0038 -0.0826
16525SOL     OW52466   2.496   6.958   2.545  0.2551 -0.5153  0.2981
16525SOL    HW152467   2.433   6.982   2.477  0.2006 -2.5720 -0.4350
16525SOL    HW252468   2.451   6.891   2.597  1.0572 -0.4475  1.1095
16526SOL     OW52469   8.281   8.091   6.675 -0.1507  0.5451  0.4745
16526SOL    HW152470   8.316   8.076   6.764  1.5626  0.3295 -0.1939
16526SOL    HW252471   8.275   8.003   6.637  0.2362  0.7226 -0.0090
16527SOL     OW52472   2.256   8.616   2.257  0.5773  0.6043  0.6504
16527SOL    HW152473   2.211   8.541   2.295  0.0880 -0.6722 -2.2103
16527SOL    HW252474   2.345   8.610   2.292  0.4876 -1.1944  0.6603
16528SOL     OW52475   0.452   0.890   8.988  0.0385  0.0086 -0.1002
16528SOL    HW152476   0.483   0.800   8.983  0.6907  0.0646  2.1336
16528SOL    HW252477   0.413   0.897   9.075 -0.3273  1.7993 -0.3774
16529SOL     OW52478   8.337   1.873   9.090 -0.0010 -0.4860 -0.5227
16529SOL    HW152479   8.268   1.851   9.152  0.7867 -2.1152 -0.1718
16529SOL    HW252480   8.416   1.834   9.127  1.3112  1.9571 -0.5152
16530SOL     OW52481   4.820   5.942   2.951 -0.6654 -0.1397  0.6857
16530SOL    HW152482   4.829   5.850   2.925  1.6656  0.4162 -0.8768
16530SOL    HW252483   4.754   5.942   3.020  0.9128 -3.3014  2.3844
16531SOL     OW52484   6.597   8.571   3.728  0.3633 -0.2583  0.0043
16531SOL    HW152485   6.683   8.572   3.687  0.1071  2.7050 -0.6969
16531SOL    HW252486   6.543   8.628   3.673 -1.3755 -0.0954  1.7487
16532SOL     OW52487   5.160   8.205   6.504  0.2016 -0.1533 -0.1185
16532SOL    HW152488   5.106   8.253   6.440 -0.9893 -1.0909  0.1365
16532SOL    HW252489   5.241   8.186   6.457 -1.0601 -1.7869 -1.8053
16533SOL     OW52490   8.033   0.723   6.495  0.5850  0.0540  0.1691
16533SOL    HW152491   8.058   0.772   6.416 -1.4358  1.4614  0.3387
16533SOL    HW252492   7.956   0.673   6.469  0.0776  0.2924  1.1686
16534SOL     OW52493   2.821   1.121   5.582 -0.1640  0.2559 -0.3043
16534SOL    HW152494   2.796   1.183   5.513 -0.5951 -1.0148 -1.3122
16534SOL    HW252495   2.917   1.119   5.578 -0.1680  0.5075 -0.5594
16535SOL     OW52496   3.138   9.155   5.957  0.6339  0.0716 -0.4902
16535SOL    HW152497   3.196   9.231   5.967  1.2691 -0.3247 -1.0532
16535SOL    HW252498   3.123   9.149   5.862  0.7248 -0.5997 -0.4660
16536SOL     OW52499   1.919   9.117   4.571  0.9566  0.0993 -0.1768
16536SOL    HW152500   1.983   9.048   4.555  1.2430  0.6943 -1.7150
16536SOL    HW252501   1.836   9.080   4.542  0.6994 -0.3918  1.1077
16537SOL     OW52502   1.302   6.365   9.140  0.5107  0.0107  0.6251
16537SOL    HW152503   1.236   6.356   9.210  2.3704  1.3325  2.6781
16537SOL    HW252504   1.251   6.388   9.063 -1.4569  0.9581  2.0982
16538SOL     OW52505   3.548   6.966   4.406 -0.1945  0.6627 -0.2063
16538SOL    HW152506   3.493   6.947   4.330 -0.0578 -1.4743  0.1674
16538SOL    HW252507   3.488   7.006   4.469 -0.8513  0.2835 -0.5733
16539SOL     OW52508   9.009   0.878   7.990  0.2115 -0.2775 -1.0023
16539SOL    HW152509   8.974   0.909   7.906 -0.9846  0.4890 -0.2474
16539SOL    HW252510   9.101   0.860   7.972 -0.5121 -2.4067 -3.0919
16540SOL     OW52511   4.038   3.484   8.454  0.5908 -0.7030 -0.1606
16540SOL    HW152512   4.077   3.548   8.513  1.8352 -1.1328 -0.4713
16540SOL    HW252513   3.966   3.446   8.503  1.3306 -0.7391  0.9262
16541SOL     OW52514   4.302   5.415   7.862  0.0049  0.5746  0.3563
16541SOL    HW152515   4.253   5.430   7.782  0.8343  1.9857  0.0735
16541SOL    HW252516   4.321   5.321   7.862 -0.5181  0.4575 -0.7893
16542SOL     OW52517   0.811   3.214   2.110 -0.1556 -0.2054 -0.2783
16542SOL    HW152518   0.801   3.165   2.028 -0.9733  0.0274 -0.3286
16542SOL    HW252519   0.734   3.189   2.162  0.0578  0.0892  0.1833
16543SOL     OW52520   6.383   1.888   5.702  0.4618  0.1166  0.1279
16543SOL    HW152521   6.318   1.934   5.650  0.2461 -0.9309 -0.5535
16543SOL    HW252522   6.426   1.957   5.753 -1.0492  0.8403  0.4627
16544SOL     OW52523   2.976   7.932   0.909 -0.0741 -0.2141 -0.2857
16544SOL    HW152524   3.052   7.901   0.859 -0.0103 -0.5072 -0.0098
16544SOL    HW252525   3.006   8.013   0.950 -0.5629  0.8213 -1.8480
16545SOL     OW52526   2.494   1.789   7.021 -0.4728  0.1422  0.2754
16545SOL    HW152527   2.497   1.708   7.071 -2.8734 -2.5602 -3.4489
16545SOL    HW252528   2.568   1.783   6.960 -0.1729  1.2294  0.4982
16546SOL     OW52529   3.583   7.988   5.160 -0.4615  0.2319  0.5854
16546SOL    HW152530   3.516   7.979   5.092 -0.1109 -0.5310  0.3322
16546SOL    HW252531   3.589   8.083   5.175 -0.1208  0.4843 -0.8913
16547SOL     OW52532   7.903   1.708   4.146  0.2257 -0.6333  0.0137
16547SOL    HW152533   7.913   1.648   4.072  0.5046 -1.9562  1.0901
16547SOL    HW252534   7.986   1.704   4.192 -0.3210 -0.6999  1.0236
16548SOL     OW52535   5.063   1.368   1.916 -0.0260 -0.2241  0.4446
16548SOL    HW152536   5.128   1.343   1.982 -0.4553  1.4535  1.5782
16548SOL    HW252537   5.091   1.455   1.887  0.0322 -0.8461 -1.4764
16549SOL     OW52538   1.400   1.112   5.695  0.1444  0.7226  0.4595
16549SOL    HW152539   1.477   1.085   5.744  0.1319  0.6323  0.4293
16549SOL    HW252540   1.326   1.077   5.745  0.1702 -0.6368 -0.3841
16550SOL     OW52541   7.431   7.775   2.364 -0.2025 -0.2871 -0.3189
16550SOL    HW152542   7.345   7.766   2.323 -1.1160  1.9614  0.9117
16550SOL    HW252543   7.464   7.686   2.370 -2.6715 -1.2832 -0.3735
16551SOL     OW52544   8.076   4.000   0.187  0.0464 -0.5066  0.0881
16551SOL    HW152545   8.032   4.028   0.267 -0.7889 -3.2469  0.6921
16551SOL    HW252546   8.024   3.926   0.156  0.4895  0.2977 -2.8951
16552SOL     OW52547   8.736   5.353   3.245 -0.0795  0.0264  0.2199
16552SOL    HW152548   8.641   5.365   3.252  0.1236  0.9758  1.8222
16552SOL    HW252549   8.764   5.329   3.333  1.0712 -1.2079 -0.4367
16553SOL     OW52550   0.110   9.232   5.677 -0.2763 -0.1508  0.0706
16553SOL    HW152551   0.039   9.189   5.631  0.4236 -1.7477  0.4162
16553SOL    HW252552   0.070   9.263   5.759 -0.2974 -2.4839  1.0331
16554SOL     OW52553   2.987   4.819   8.375  0.3760  0.3335 -0.1363
16554SOL    HW152554   3.019   4.803   8.287  3.0231 -0.2548  0.8534
16554SOL    HW252555   3.053   4.875   8.416  0.0587 -0.7024  1.9524
16555SOL     OW52556   0.500   7.625   1.935 -0.1391  0.4108 -0.5420
16555SOL    HW152557   0.478   7.552   1.878  0.4550  0.1589 -0.4556
16555SOL    HW252558   0.595   7.621   1.944 -0.2074  0.5512  0.3323
16556SOL     OW52559   6.327   5.431   4.528  0.2509  0.1329  0.0251
16556SOL    HW152560   6.282   5.376   4.592 -0.7973  2.7215  1.6712
16556SOL    HW252561   6.407   5.458   4.572  0.6768  0.0634 -0.6939
16557SOL     OW52562   8.138   8.372   8.380  0.3341 -0.6031  0.0657
16557SOL    HW152563   8.083   8.382   8.459  0.5806  0.9211  0.0758
16557SOL    HW252564   8.210   8.316   8.408 -0.9748 -2.2999  0.1718
16558SOL     OW52565   6.664   6.033   2.074 -0.0870 -0.0240  0.1181
16558SOL    HW152566   6.658   5.975   1.998 -2.2704  1.5084 -0.9894
16558SOL    HW252567   6.696   6.116   2.038 -0.2237  0.4385  1.0442
16559SOL     OW52568   4.318   8.911   2.628  0.2827  0.2469 -0.0356
16559SOL    HW152569   4.394   8.859   2.601 -1.0607 -1.5380 -0.5463
16559SOL    HW252570   4.315   8.901   2.723 -0.5791 -1.5771 -0.2210
16560SOL     OW52571   1.935   4.660   4.572  0.0062 -0.2433  0.2047
16560SOL    HW152572   2.009   4.681   4.630  0.3155 -0.0166 -0.2612
16560SOL    HW252573   1.875   4.610   4.627  1.1815 -1.7312  0.2310
16561SOL     OW52574   0.004   5.549   3.512  0.4062  0.3571  0.2237
16561SOL    HW152575   0.045   5.597   3.440  0.8307 -0.4598 -0.0889
16561SOL    HW252576   0.036   5.592   3.591  0.9540  0.4516 -0.0445
16562SOL     OW52577   4.859   7.034   9.043 -0.2310  0.8028  0.0342
16562SOL    HW152578   4.918   7.000   9.110  1.2007  2.4690 -0.3015
16562SOL    HW252579   4.772   7.005   9.070  0.3699  0.9533  2.3047
16563SOL     OW52580   5.640   8.478   4.248 -0.2871  0.6628  0.0174
16563SOL    HW152581   5.604   8.554   4.202  0.6781  1.5386  0.6349
16563SOL    HW252582   5.712   8.515   4.300  0.1535 -0.6787  0.3858
16564SOL     OW52583   0.893   0.078   7.123 -0.4256  0.3351  0.2841
16564SOL    HW152584   0.832   0.008   7.144 -1.6244  1.1825 -0.2658
16564SOL    HW252585   0.866   0.109   7.037 -0.1817  1.7285  0.6818
16565SOL     OW52586   8.909   3.441   3.836 -0.3328  0.1189 -0.1012
16565SOL    HW152587   8.963   3.474   3.764  1.2734 -0.2520  0.8926
16565SOL    HW252588   8.903   3.514   3.898  2.4119 -0.9775  1.6408
16566SOL     OW52589   0.728   4.944   0.740 -0.2694 -0.0733  0.4124
16566SOL    HW152590   0.670   4.898   0.679 -0.0096  0.1854 -0.0339
16566SOL    HW252591   0.672   5.007   0.784 -0.6398 -0.8332  1.0619
16567SOL     OW52592   5.257   1.573   4.578 -0.0717  0.1610 -0.2247
16567SOL    HW152593   5.339   1.605   4.616  0.3448 -2.0765  0.9234
16567SOL    HW252594   5.231   1.641   4.516  1.7041  1.7611  0.6959
16568SOL     OW52595   1.963   1.150   3.477  0.3201 -0.2300  0.6418
16568SOL    HW152596   1.881   1.199   3.475 -0.3436 -1.3012 -1.1741
16568SOL    HW252597   1.943   1.070   3.525  0.3436 -0.4051  0.3649
16569SOL     OW52598   7.795   4.052   3.449 -0.0232  0.1776 -0.0699
16569SOL    HW152599   7.760   4.140   3.465  1.2286  0.5960  0.5042
16569SOL    HW252600   7.836   4.057   3.363 -0.8309 -0.1438 -0.4823
16570SOL     OW52601   5.658   1.814   6.203  0.1205 -0.1734  0.2171
16570SOL    HW152602   5.667   1.909   6.193 -0.3420 -0.1935 -0.4783
16570SOL    HW252603   5.739   1.778   6.165  0.0255 -0.0854 -0.0671
16571SOL     OW52604   1.117   0.316   1.699  0.0594  0.0532  0.3031
16571SOL    HW152605   1.154   0.232   1.673  0.0662  0.0800  0.2241
16571SOL    HW252606   1.108   0.364   1.617 -2.0147 -0.6871  0.0510
16572SOL     OW52607   1.657   4.395   1.973  0.1720  0.2989  0.0385
16572SOL    HW152608   1.716   4.347   1.915 -0.8685 -0.4927 -0.4012
16572SOL    HW252609   1.612   4.457   1.915 -2.7068 -2.1919 -0.5976
16573SOL     OW52610   8.774   1.166   1.544  0.4289 -0.1307 -0.4780
16573SOL    HW152611   8.791   1.100   1.476  1.5693 -0.4504  0.1010
16573SOL    HW252612   8.858   1.178   1.587 -0.0506  0.8346  0.2135
16574SOL     OW52613   7.224   8.157   3.262 -0.1192 -0.2488  0.1384
16574SOL    HW152614   7.188   8.182   3.176  0.2813 -0.7899 -0.1926
16574SOL    HW252615   7.294   8.221   3.277  0.0838 -0.4028 -0.1341
16575SOL     OW52616   4.625   9.224   8.658 -0.2824  0.0409  0.4061
16575SOL    HW152617   4.664   9.155   8.711 -1.5199 -1.3653 -0.4444
16575SOL    HW252618   4.629   9.192   8.568 -1.7369  0.6165  0.1018
16576SOL     OW52619   0.271   2.921   6.963  0.8118  0.8625  0.1923
16576SOL    HW152620   0.238   2.990   7.021  0.3650  1.6860 -1.0061
16576SOL    HW252621   0.333   2.871   7.018  1.1280  2.1882  1.0944
16577SOL     OW52622   4.517   1.937   0.016  0.3839 -0.1788 -0.4038
16577SOL    HW152623   4.524   1.843   0.030 -1.7615 -0.3038  0.1629
16577SOL    HW252624   4.528   1.949  -0.078  0.6119 -1.0110 -0.4821
16578SOL     OW52625   2.410   3.555   3.555  0.4330  0.1906  0.6362
16578SOL    HW152626   2.487   3.517   3.598  0.1555 -0.8761  0.2256
16578SOL    HW252627   2.414   3.522   3.465 -0.4051  0.2699  0.5595
16579SOL     OW52628   8.497   1.009   6.691  0.0315 -0.4700  0.4605
16579SOL    HW152629   8.497   0.930   6.744  1.6533 -1.0641 -0.3627
16579SOL    HW252630   8.529   0.981   6.605  0.9214  1.1257  0.2396
16580SOL     OW52631   3.680   5.054   4.247  0.1975 -0.3630 -0.1183
16580SOL    HW152632   3.734   5.062   4.326  0.9496 -2.3379 -0.3887
16580SOL    HW252633   3.592   5.078   4.275  0.6507 -0.0090  1.0454
16581SOL     OW52634   7.606   7.762   7.498 -0.0223 -0.0458  0.3242
16581SOL    HW152635   7.616   7.786   7.590  0.8978 -0.6204  0.3866
16581SOL    HW252636   7.566   7.839   7.458 -1.5481 -0.2192  1.4141
16582SOL     OW52637   0.785   6.980   0.350  0.0830 -0.3544  0.0746
16582SOL    HW152638   0.878   6.998   0.335  0.2051 -0.8748  0.1845
16582SOL    HW252639   0.762   6.918   0.281  0.3250 -1.7841  1.2487
16583SOL     OW52640   6.841   2.103   4.515  0.1566 -0.2538 -0.1730
16583SOL    HW152641   6.925   2.119   4.471 -0.0481  0.9118 -0.1921
16583SOL    HW252642   6.818   2.013   4.492  1.8449 -0.9204  0.5785
16584SOL     OW52643   9.184   6.133   4.381  0.3342  0.3179 -0.1519
16584SOL    HW152644   9.114   6.075   4.351  0.2642  0.7862 -0.9606
16584SOL    HW252645   9.153   6.168   4.464  0.2934 -0.6379  0.2402
16585SOL     OW52646   8.063   0.019   4.771  0.4298  0.3780 -0.0730
16585SOL    HW152647   8.157   0.011   4.754  0.4631  0.5236  0.0381
16585SOL    HW252648   8.022   0.001   4.686  0.4352 -1.9719  0.3588
16586SOL     OW52649   2.111   5.474   1.005 -0.3434 -0.0112  0.1878
16586SOL    HW152650   2.122   5.392   1.054  1.8862  0.7659  1.1052
16586SOL    HW252651   2.112   5.542   1.072 -0.5746  0.8721 -0.6895
16587SOL     OW52652   0.985   4.304   8.516  0.1362  0.3664 -0.2008
16587SOL    HW152653   1.032   4.232   8.558  0.6961  0.6548 -0.3297
16587SOL    HW252654   1.041   4.330   8.443  0.5470  1.7484  0.5769
16588SOL     OW52655   0.708   5.501   5.482  0.7534 -0.3506  0.1265
16588SOL    HW152656   0.651   5.490   5.558  1.1431 -0.6108  0.3863
16588SOL    HW252657   0.691   5.425   5.427 -0.4164  0.4398 -0.6469
16589SOL     OW52658   7.619   8.244   7.571  0.7944  0.1930 -0.2338
16589SOL    HW152659   7.655   8.292   7.496 -1.0891  0.2420 -1.1754
16589SOL    HW252660   7.585   8.312   7.629 -0.0726  0.0901 -0.6054
16590SOL     OW52661   4.483   2.789   7.911  0.4985 -0.1503 -0.0626
16590SOL    HW152662   4.551   2.725   7.932 -0.3204 -1.6268 -1.6721
16590SOL    HW252663   4.403   2.751   7.946  0.2956  1.0324  0.8142
16591SOL     OW52664   3.613   8.264   5.217  0.9886 -0.0719 -0.6314
16591SOL    HW152665   3.561   8.344   5.214 -0.3891 -0.8610  1.0149
16591SOL    HW252666   3.703   8.294   5.205  0.2575  1.3412 -3.4682
16592SOL     OW52667   1.433   3.207   4.207 -0.0248 -0.4533 -0.4575
16592SOL    HW152668   1.474   3.285   4.244  1.1195 -1.1521 -0.2127
16592SOL    HW252669   1.389   3.238   4.128 -1.0893  0.7500  0.5609
16593SOL     OW52670   7.215   1.586   6.197 -0.3107  0.3760 -0.0221
16593SOL    HW152671   7.301   1.544   6.209 -0.0287  0.2857 -1.9497
16593SOL    HW252672   7.187   1.609   6.285  0.9485 -1.0763  0.8116
16594SOL     OW52673   7.822   8.079   9.201 -0.1662 -0.1685 -0.0978
16594SOL    HW152674   7.882   8.147   9.170 -0.2251  0.2036  0.5746
16594SOL    HW252675   7.854   8.058   9.289  0.2164 -1.4531 -0.5315
16595SOL     OW52676   5.737   4.906   5.761 -0.3364  0.1065 -0.6783
16595SOL    HW152677   5.823   4.941   5.785  0.4884 -1.0370 -1.8554
16595SOL    HW252678   5.693   4.980   5.719 -0.8084  1.3516  1.7711
16596SOL     OW52679   7.894   5.328   2.943  0.2948 -0.3024  0.2879
16596SOL    HW152680   7.963   5.269   2.911 -0.9949  0.1334 -3.9537
16596SOL    HW252681   7.937   5.412   2.955  1.1146 -0.8263  1.1749
16597SOL     OW52682   7.517   6.502   3.598 -0.1348  0.2045  0.5091
16597SOL    HW152683   7.556   6.549   3.524 -1.0300  0.1288 -0.0234
16597SOL    HW252684   7.424   6.494   3.575 -0.1707 -1.0006  1.0227
16598SOL     OW52685   0.867   8.929   7.834  0.0650  0.3604 -0.6471
16598SOL    HW152686   0.795   8.866   7.828 -0.4460  1.0364 -1.9389
16598SOL    HW252687   0.930   8.887   7.892  0.6914 -2.3271 -3.0386
16599SOL     OW52688   6.091   4.043   4.763  0.3260 -0.3390  0.2799
16599SOL    HW152689   5.997   4.026   4.763  0.5911 -2.2356 -2.0879
16599SOL    HW252690   6.124   3.992   4.836 -0.5253  0.9304  1.6046
16600SOL     OW52691   4.010   5.227   0.591  0.3731 -0.4601 -0.5314
16600SOL    HW152692   4.051   5.239   0.677  0.0662  0.8553 -0.5587
16600SOL    HW252693   4.025   5.134   0.571  0.1087 -0.8908  1.1056
16601SOL     OW52694   8.697   5.104   3.080 -0.2973 -0.5640 -0.2975
16601SOL    HW152695   8.692   5.192   3.042  1.3429 -0.4516 -0.3414
16601SOL    HW252696   8.704   5.119   3.174 -1.2672 -0.7086 -0.1983
16602SOL     OW52697   3.781   1.714   7.491 -0.3901  0.0981  0.6425
16602SOL    HW152698   3.756   1.680   7.577 -1.0728 -1.8329 -0.2758
16602SOL    HW252699   3.698   1.733   7.448 -0.0456  1.1627  0.4221
16603SOL     OW52700   0.430   8.518   2.336  0.5776 -0.8126 -0.4869
16603SOL    HW152701   0.446   8.532   2.430  1.9618 -2.3500 -0.4514
16603SOL    HW252702   0.337   8.539   2.324  0.7619  1.0202  0.8853
16604SOL     OW52703   0.821   7.971   6.992 -0.0261  0.1630 -0.3821
16604SOL    HW152704   0.862   7.894   6.953 -2.2683 -0.6080 -1.4161
16604SOL    HW252705   0.804   7.946   7.083 -0.1629 -0.3305 -0.5404
16605SOL     OW52706   3.626   8.850   6.325 -0.3215 -0.4289  0.4408
16605SOL    HW152707   3.569   8.916   6.367  0.1109 -0.7283  1.5358
16605SOL    HW252708   3.704   8.899   6.300 -0.8177 -0.1281 -0.5794
16606SOL     OW52709   2.579   4.289   8.280  0.2726 -0.1111 -0.6190
16606SOL    HW152710   2.592   4.316   8.189  0.6593 -0.4834 -0.6778
16606SOL    HW252711   2.608   4.198   8.282 -1.4015 -0.6696 -0.5129
16607SOL     OW52712   4.446   3.987   3.462 -0.1002  0.2831 -0.0926
16607SOL    HW152713   4.540   3.979   3.452  0.1145  0.8655  1.2049
16607SOL    HW252714   4.413   3.898   3.452  0.5171  0.1507 -1.0651
16608SOL     OW52715   0.723   2.249   0.774  0.3315 -0.4104 -0.4233
16608SOL    HW152716   0.807   2.207   0.755 -0.1482 -1.0464 -1.2078
16608SOL    HW252717   0.662   2.176   0.787  0.2905 -0.0078  2.2344
16609SOL     OW52718   8.775   1.442   5.530 -0.1313 -0.5496 -0.8026
16609SOL    HW152719   8.869   1.457   5.534 -0.0164 -1.4408  0.2172
16609SOL    HW252720   8.766   1.355   5.492 -0.6600  0.4280 -3.0985
16610SOL     OW52721   0.952   4.746   0.224 -0.2053 -0.0007 -0.2658
16610SOL    HW152722   0.935   4.717   0.134 -0.7248 -0.2791 -0.0806
16610SOL    HW252723   0.869   4.734   0.270 -0.4996  1.9656 -0.2114
16611SOL     OW52724   1.824   3.848   0.069 -0.0787 -0.1786  0.3981
16611SOL    HW152725   1.828   3.884   0.158 -1.3244  0.8383  0.0590
16611SOL    HW252726   1.777   3.913   0.018  0.2404 -0.9476 -0.9314
16612SOL     OW52727   3.376   7.560   0.624 -0.4057  0.3345  0.2157
16612SOL    HW152728   3.419   7.613   0.691  1.9833  0.4868 -1.3193
16612SOL    HW252729   3.311   7.618   0.585  0.2283  1.1951  0.4296
16613SOL     OW52730   2.824   8.957   5.773 -0.2562  0.0815  0.4915
16613SOL    HW152731   2.877   8.925   5.700  0.6967 -1.3897  1.7505
16613SOL    HW252732   2.820   8.883   5.834 -3.2743  0.3528  0.7563
16614SOL     OW52733   1.251   0.183   8.741 -0.5052 -0.4968  0.4138
16614SOL    HW152734   1.274   0.232   8.819 -1.2036 -0.1817  0.4309
16614SOL    HW252735   1.162   0.152   8.758 -1.0414  0.3947 -0.6423
16615SOL     OW52736   5.640   4.147   3.203  0.3236 -0.2520 -0.0920
16615SOL    HW152737   5.652   4.234   3.240  2.7354 -0.6960  0.3105
16615SOL    HW252738   5.551   4.122   3.228  0.6736  0.8392  2.4753
16616SOL     OW52739   4.381   5.850   1.406  0.2584  0.0710 -0.5319
16616SOL    HW152740   4.407   5.868   1.496  0.2640  0.3314 -0.5838
16616SOL    HW252741   4.291   5.880   1.401 -0.2952 -1.4550 -0.1673
16617SOL     OW52742   8.854   4.317   3.863  0.0673  0.5917  1.1722
16617SOL    HW152743   8.798   4.277   3.797  1.6594  1.0692 -0.5770
16617SOL    HW252744   8.838   4.267   3.943 -0.6293 -1.1874 -0.0242
16618SOL     OW52745   0.922   3.323   7.738  0.1118  0.3460  0.5596
16618SOL    HW152746   0.888   3.413   7.741 -0.0022  0.2821  1.3388
16618SOL    HW252747   0.847   3.269   7.762  0.0929  0.0130 -0.2269
16619SOL     OW52748   8.309   2.100   8.946 -0.7064  0.0386  0.6135
16619SOL    HW152749   8.359   2.075   8.868 -2.9528 -1.2934 -0.5164
16619SOL    HW252750   8.326   2.030   9.009  1.1759  1.1572  1.4452
16620SOL     OW52751   1.085   4.134   2.189 -0.0073  0.7763  0.3056
16620SOL    HW152752   1.166   4.154   2.236  0.3698 -0.1535  0.0598
16620SOL    HW252753   1.096   4.045   2.158  0.5217  1.8829 -3.1256
16621SOL     OW52754   4.472   1.710   3.797  0.3057 -0.0699 -0.1295
16621SOL    HW152755   4.379   1.698   3.816 -0.0526 -0.6523 -2.0712
16621SOL    HW252756   4.496   1.788   3.847 -0.8534 -0.6943  1.5079
16622SOL     OW52757   0.877   9.073   8.578  0.5179 -0.1146 -0.2876
16622SOL    HW152758   0.869   9.038   8.490 -1.3042 -1.0473  0.2057
16622SOL    HW252759   0.798   9.126   8.590 -0.0038 -1.1844  1.2671
16623SOL     OW52760   4.154   4.713   6.214 -0.3253 -0.2702  0.3125
16623SOL    HW152761   4.060   4.709   6.235 -0.0798  1.0873  1.8070
16623SOL    HW252762   4.161   4.664   6.132 -2.3380 -0.4159  0.1602
16624SOL     OW52763   3.840   4.289   0.130  0.4301  0.5121  0.6469
16624SOL    HW152764   3.802   4.368   0.170  0.1666  0.4399  0.5412
16624SOL    HW252765   3.901   4.322   0.064 -1.2365  0.6429 -0.8908
16625SOL     OW52766   7.019   4.161   7.800 -0.0741  0.2227 -0.0814
16625SOL    HW152767   6.962   4.084   7.792 -0.3131  0.3802  0.0845
16625SOL    HW252768   6.983   4.224   7.738  2.5933 -1.2344 -3.4522
16626SOL     OW52769   1.624   1.646   9.019 -0.1551 -0.1958 -0.1734
16626SOL    HW152770   1.651   1.724   8.971 -0.6577 -0.7225 -1.3393
16626SOL    HW252771   1.657   1.660   9.108  0.1753  1.1162 -0.4870
16627SOL     OW52772   6.225   5.735   5.481  0.5161  0.7210 -0.0267
16627SOL    HW152773   6.234   5.830   5.473  3.9169  0.5943  0.7214
16627SOL    HW252774   6.205   5.720   5.574 -1.0949  0.6852 -0.3481
16628SOL     OW52775   0.304   4.950   4.648 -0.7910  0.1119  0.3222
16628SOL    HW152776   0.398   4.954   4.667 -0.8181  0.6512  0.3580
16628SOL    HW252777   0.281   5.039   4.620 -1.3827  0.0957  0.7460
16629SOL     OW52778   4.986   2.695   0.762  0.5097  0.2299  0.1103
16629SOL    HW152779   4.996   2.684   0.667  1.8639  0.6631  0.1808
16629SOL    HW252780   5.072   2.725   0.792  0.1163  0.0529  1.4898
16630SOL     OW52781   0.405   3.781   7.832  0.2352  0.4895 -0.5285
16630SOL    HW152782   0.328   3.813   7.785  0.3259  0.0777 -0.9720
16630SOL    HW252783   0.450   3.860   7.862  0.4664  0.7865 -1.6115
16631SOL     OW52784   6.259   4.954   1.362  0.4725  0.3775 -0.1147
16631SOL    HW152785   6.203   4.936   1.438 -0.5296 -3.6579 -1.5405
16631SOL    HW252786   6.198   4.976   1.292  1.1374  0.8753 -0.5549
16632SOL     OW52787   0.046   4.056   7.194  0.1865 -0.8812 -0.1662
16632SOL    HW152788  -0.017   3.992   7.227 -1.0612  0.1148 -0.4935
16632SOL    HW252789  -0.006   4.137   7.184  1.6713  0.1586  0.1660
16633SOL     OW52790   4.780   4.902   6.114  0.1377 -0.0839  0.5912
16633SOL    HW152791   4.713   4.951   6.163 -0.5259  1.1180 -1.4154
16633SOL    HW252792   4.842   4.969   6.085  0.9638 -0.8880  0.4407
16634SOL     OW52793   3.986   1.869   9.232 -0.2358  0.6107 -0.0942
16634SOL    HW152794   4.039   1.797   9.197 -2.0674 -0.7710 -0.1390
16634SOL    HW252795   3.968   1.924   9.157 -1.6752 -0.7546 -0.8025
16635SOL     OW52796   1.830   1.115   2.197  0.0328 -0.5032  0.4117
16635SOL    HW152797   1.759   1.098   2.259 -0.6133 -0.1496 -0.2138
16635SOL    HW252798   1.845   1.031   2.154  0.5045 -0.7581  1.0552
16636SOL     OW52799   7.601   5.399   3.448  0.1767 -0.1263  0.1831
16636SOL    HW152800   7.648   5.316   3.438  2.0053  0.7469  1.0485
16636SOL    HW252801   7.598   5.413   3.543 -0.5681  0.5488  0.0662
16637SOL     OW52802   4.577   7.940   3.864  0.2074  0.0036 -0.1823
16637SOL    HW152803   4.564   7.848   3.840 -0.4140 -0.2826  1.1614
16637SOL    HW252804   4.495   7.982   3.840  1.0841  0.6136 -2.3943
16638SOL     OW52805   6.303   5.788   9.184  0.1063  0.3474  0.1332
16638SOL    HW152806   6.234   5.749   9.130 -0.4661  1.6734 -0.1289
16638SOL    HW252807   6.339   5.714   9.234  0.8755 -1.0098 -2.2535
16639SOL     OW52808   5.426   4.817   1.593  0.6876  0.4018  0.3903
16639SOL    HW152809   5.468   4.852   1.671  3.1216 -0.1443 -0.5933
16639SOL    HW252810   5.492   4.823   1.524 -0.7353 -0.8276 -1.1904
16640SOL     OW52811   7.187   8.463   7.926 -0.5738  0.4832  0.3637
16640SOL    HW152812   7.281   8.478   7.937 -0.6020  0.3249  0.8655
16640SOL    HW252813   7.150   8.475   8.014 -0.5190 -2.8950  1.0184
16641SOL     OW52814   8.823   7.332   6.980 -0.5246 -0.0552 -0.3651
16641SOL    HW152815   8.778   7.377   7.051 -0.4162  1.4763 -1.2265
16641SOL    HW252816   8.760   7.331   6.908 -0.9492 -2.3310 -0.0576
16642SOL     OW52817   8.659   1.738   1.872 -0.1182 -0.2377  0.5208
16642SOL    HW152818   8.679   1.830   1.859 -5.2073  1.0067 -0.7391
16642SOL    HW252819   8.642   1.704   1.785  0.4214 -2.0967  1.0844
16643SOL     OW52820   5.806   0.214   7.451 -0.6734 -0.3374  0.5262
16643SOL    HW152821   5.715   0.233   7.428 -0.6495 -1.8149 -0.9147
16643SOL    HW252822   5.825   0.131   7.408  1.4021 -0.0114  0.7220
16644SOL     OW52823   4.878   8.630   7.717 -0.3983  0.1545  0.3885
16644SOL    HW152824   4.823   8.702   7.685 -1.3462 -0.4887  0.5470
16644SOL    HW252825   4.968   8.663   7.707 -0.6528  0.2846 -2.1955
16645SOL     OW52826   5.473   5.781   6.102 -0.5078  0.0705  0.3745
16645SOL    HW152827   5.554   5.748   6.064 -1.4213 -1.3798 -0.4055
16645SOL    HW252828   5.462   5.868   6.063  1.2803  0.8604  1.4699
16646SOL     OW52829   2.474   1.711   2.542 -0.4313 -0.4053  0.1242
16646SOL    HW152830   2.427   1.639   2.500 -0.9128 -0.3739  0.5862
16646SOL    HW252831   2.480   1.685   2.634 -1.6063  0.6242  0.5203
16647SOL     OW52832   3.820   4.808   2.647  0.4123 -0.1496 -0.1928
16647SOL    HW152833   3.823   4.900   2.672  0.0726  0.3316 -1.8288
16647SOL    HW252834   3.870   4.803   2.565  0.9810 -1.5423  0.2093
16648SOL     OW52835   8.497   4.699   1.668 -0.1058 -0.0605  0.1308
16648SOL    HW152836   8.576   4.645   1.665 -0.5365 -0.7845  1.2254
16648SOL    HW252837   8.529   4.789   1.662  0.6598 -0.3907 -1.2834
16649SOL     OW52838   3.875   8.406   3.929  0.3090  0.8367  0.3789
16649SOL    HW152839   3.889   8.404   3.834 -1.1340 -0.3386  0.1605
16649SOL    HW252840   3.959   8.378   3.966 -0.2227 -2.7097 -0.7199
16650SOL     OW52841   6.008   5.364   5.158  0.2840 -0.4915  0.3490
16650SOL    HW152842   6.032   5.295   5.219  2.4412 -0.5892 -0.5323
16650SOL    HW252843   6.091   5.397   5.124 -0.7836  0.4814 -1.5159
16651SOL     OW52844   4.726   1.670   0.025 -0.2259  0.0277  0.8606
16651SOL    HW152845   4.777   1.750   0.012 -0.1380 -0.1658 -0.0296
16651SOL    HW252846   4.784   1.613   0.076 -0.0025  0.2469  0.8571
16652SOL     OW52847   7.217   3.513   7.558 -0.4957  0.4787  0.5497
16652SOL    HW152848   7.224   3.437   7.500 -0.3667  2.2465 -1.8980
16652SOL    HW252849   7.292   3.504   7.617  2.2624  0.9436 -2.6078
16653SOL     OW52850   1.636   6.101   3.567 -0.4692 -0.0582  0.0645
16653SOL    HW152851   1.625   6.011   3.535 -1.3297  0.3141 -0.7102
16653SOL    HW252852   1.606   6.156   3.495 -0.3030  0.8561  0.6794
16654SOL     OW52853   3.206   2.303   7.369 -0.5379 -0.1007  0.0319
16654SOL    HW152854   3.219   2.226   7.312  0.3308 -0.1868  0.3309
16654SOL    HW252855   3.136   2.352   7.326 -2.1230 -1.7655  0.5810
16655SOL     OW52856   5.682   0.955   6.541  0.1387 -0.7825 -0.3147
16655SOL    HW152857   5.666   0.913   6.626  0.4393  1.3695  0.8676
16655SOL    HW252858   5.606   0.932   6.488 -0.5601 -1.3245  0.8863
16656SOL     OW52859   0.397   1.288   6.239 -0.2840 -0.9648 -0.2119
16656SOL    HW152860   0.409   1.330   6.154  0.4949 -1.8061 -0.5427
16656SOL    HW252861   0.486   1.275   6.272 -0.4937  3.0687  2.7102
16657SOL     OW52862   6.134   4.990   3.952  0.7208 -0.2828  0.1240
16657SOL    HW152863   6.167   4.919   3.898 -0.2809 -1.4018  0.9058
16657SOL    HW252864   6.206   5.011   4.011  0.9118 -0.9074  0.1225
16658SOL     OW52865   3.843   8.649   3.608  0.0140 -0.5384  0.5327
16658SOL    HW152866   3.922   8.594   3.612 -0.2582 -0.9759 -0.0153
16658SOL    HW252867   3.820   8.651   3.515  0.3994  1.0599  0.4410
16659SOL     OW52868   1.833   8.497   3.812 -0.2079  0.3105  0.0578
16659SOL    HW152869   1.823   8.571   3.752  0.2930  0.2711 -0.0773
16659SOL    HW252870   1.907   8.447   3.777 -0.0398  0.1751  0.5931
16660SOL     OW52871   1.827   8.531   7.087  0.2697 -0.2964 -0.1625
16660SOL    HW152872   1.765   8.516   7.015 -0.0157  2.3809 -0.5960
16660SOL    HW252873   1.773   8.532   7.166  0.0261  0.1768 -0.3299
16661SOL     OW52874   6.057   8.509   2.577  0.1043  0.4521  0.2936
16661SOL    HW152875   6.031   8.506   2.669 -0.1855  1.0812  0.2354
16661SOL    HW252876   6.023   8.592   2.545 -0.1107  0.0756 -0.4781
16662SOL     OW52877   8.393   1.040   9.050 -0.7325  0.0243  0.4598
16662SOL    HW152878   8.442   0.969   9.091 -0.4272  0.6434  1.1609
16662SOL    HW252879   8.459   1.102   9.020 -0.9762 -0.1759 -0.5323
16663SOL     OW52880   0.099   4.921   2.581  0.2499 -0.6870  0.0753
16663SOL    HW152881   0.157   4.996   2.567 -0.9023  0.1105 -0.5980
16663SOL    HW252882   0.029   4.933   2.516 -2.0479 -0.2063  2.4705
16664SOL     OW52883   6.684   1.711   1.881 -0.2274 -0.5070  0.6292
16664SOL    HW152884   6.643   1.712   1.795  1.0288 -0.1272  0.0139
16664SOL    HW252885   6.627   1.767   1.935  0.7212  1.9996 -0.8174
16665SOL     OW52886   6.558   8.883   8.487  0.7917  0.0649  0.1440
16665SOL    HW152887   6.473   8.909   8.453 -0.0595  0.5496  2.4343
16665SOL    HW252888   6.608   8.856   8.410 -0.4658  2.3788 -1.6024
16666SOL     OW52889   4.363   2.756   2.435 -0.3423 -0.5591 -0.7271
16666SOL    HW152890   4.268   2.745   2.428 -0.7529  0.8351  1.5884
16666SOL    HW252891   4.380   2.841   2.394 -0.6287  0.6552  1.4872
16667SOL     OW52892   8.535   3.664   0.582 -0.1655  0.1445  0.3784
16667SOL    HW152893   8.526   3.743   0.636  1.0511  0.5920 -0.0238
16667SOL    HW252894   8.612   3.620   0.618 -0.9839 -1.0127  0.7577
16668SOL     OW52895   7.607   5.666   0.524 -0.1006 -0.0545 -0.0930
16668SOL    HW152896   7.687   5.657   0.576 -0.8273 -1.8718  0.7912
16668SOL    HW252897   7.635   5.649   0.434  0.4948 -0.8187  0.2264
16669SOL     OW52898   2.929   6.154   7.374 -0.0543 -0.1815 -0.7011
16669SOL    HW152899   2.982   6.221   7.418 -1.3569  0.4477 -0.0228
16669SOL    HW252900   2.889   6.105   7.446 -2.7858  1.3032 -1.0581
16670SOL     OW52901   3.694   5.889   4.973  0.2289  0.0097 -0.0771
16670SOL    HW152902   3.674   5.952   4.904 -0.5677  0.7022  0.7554
16670SOL    HW252903   3.775   5.921   5.012  1.1219 -0.8282 -1.1741
16671SOL     OW52904   4.721   6.516   1.846  0.5834 -0.1608 -0.0678
16671SOL    HW152905   4.687   6.435   1.882 -0.1418  0.6106  1.0537
16671SOL    HW252906   4.647   6.577   1.849  0.7082  0.1708 -2.1948
16672SOL     OW52907   4.934   2.472   7.049 -0.5043 -0.2691  0.1827
16672SOL    HW152908   5.025   2.471   7.076 -0.7269  0.4438  1.0176
16672SOL    HW252909   4.889   2.419   7.114 -0.4800 -2.0392 -1.1568
16673SOL     OW52910   2.091   1.564   0.930 -0.6244  0.7817  0.2887
16673SOL    HW152911   2.043   1.575   0.848  1.4507  1.0156 -0.9925
16673SOL    HW252912   2.145   1.643   0.937  1.0254 -0.3061  0.5543
16674SOL     OW52913   0.361   2.682   5.436  0.0945  0.4585  0.3540
16674SOL    HW152914   0.440   2.731   5.457  0.1576  0.4191  0.2128
16674SOL    HW252915   0.293   2.718   5.493  0.0859  0.8643  0.0891
16675SOL     OW52916   4.948   5.784   0.686  0.4510 -0.5478  0.2670
16675SOL    HW152917   4.882   5.742   0.632 -0.5927 -0.3061  1.3172
16675SOL    HW252918   4.981   5.856   0.632 -0.8154 -0.0955  0.0580
16676SOL     OW52919   3.841   9.028   7.829 -0.5729 -1.6880  0.2282
16676SOL    HW152920   3.836   9.115   7.789  0.9758 -0.7219  1.9661
16676SOL    HW252921   3.896   8.978   7.769 -0.5786 -1.1279 -0.2552
16677SOL     OW52922   0.712   1.534   6.176 -0.1479  0.3010 -0.3471
16677SOL    HW152923   0.642   1.507   6.116 -0.1729 -0.5748  0.0581
16677SOL    HW252924   0.685   1.621   6.207 -0.9872  0.0421 -0.3178
16678SOL     OW52925   4.622   2.139   6.454 -0.2063 -0.6457 -0.2468
16678SOL    HW152926   4.682   2.210   6.428 -1.0273  0.8300  1.6610
16678SOL    HW252927   4.594   2.100   6.371  0.8442  0.7870 -1.3309
16679SOL     OW52928   4.367   0.700   5.366 -0.0086 -0.3742 -0.2423
16679SOL    HW152929   4.460   0.705   5.347 -0.0578  0.0702 -0.3780
16679SOL    HW252930   4.362   0.687   5.461  0.1933 -0.6290 -0.2670
16680SOL     OW52931   2.786   7.373   6.755 -0.1690  0.3155  0.0943
16680SOL    HW152932   2.843   7.328   6.818  0.6334  0.1659 -0.7282
16680SOL    HW252933   2.699   7.340   6.775  0.1335 -0.0634  0.8410
16681SOL     OW52934   7.585   5.850   1.454  0.5265  0.4252  0.0454
16681SOL    HW152935   7.642   5.914   1.498  0.3798  0.3267  0.3841
16681SOL    HW252936   7.621   5.842   1.366  0.2176  1.4061 -0.1842
16682SOL     OW52937   7.752   3.562   5.733  0.2260 -0.1274  0.6927
16682SOL    HW152938   7.745   3.484   5.789 -2.5993  0.0920  0.7676
16682SOL    HW252939   7.747   3.529   5.644 -0.8072 -0.0661  0.7208
16683SOL     OW52940   5.816   7.091   7.438  0.2638 -0.1244 -0.1025
16683SOL    HW152941   5.828   7.097   7.343  1.3760  2.4357  0.1259
16683SOL    HW252942   5.753   7.160   7.459  2.3032  1.4542  1.2831
16684SOL     OW52943   1.644   3.478   3.839  0.5078 -0.5477  0.2819
16684SOL    HW152944   1.600   3.516   3.914 -0.1375 -0.8347  0.0607
16684SOL    HW252945   1.677   3.553   3.789 -1.8484 -0.1681 -0.8240
16685SOL     OW52946   5.612   8.341   1.918  0.2690  0.3742  0.0883
16685SOL    HW152947   5.649   8.315   2.003  1.2938  0.8547 -0.1912
16685SOL    HW252948   5.534   8.287   1.908 -0.3436  0.8855  1.7133
16686SOL     OW52949   5.273   7.029   6.578 -0.0520  0.0380  0.2475
16686SOL    HW152950   5.218   7.093   6.623  0.0693  0.0742  0.3449
16686SOL    HW252951   5.350   7.021   6.634  1.1519  1.7756 -1.0603
16687SOL     OW52952   0.547   4.017   4.889  0.5398 -0.1971  1.3243
16687SOL    HW152953   0.514   3.997   4.801  1.0930 -0.1362  1.1032
16687SOL    HW252954   0.472   4.057   4.934  0.9111  1.9361  0.1413
16688SOL     OW52955   2.109   7.531   4.464  0.8408 -0.1982 -0.4848
16688SOL    HW152956   2.180   7.479   4.504  0.5141  0.0016  0.3923
16688SOL    HW252957   2.153   7.588   4.402  1.6484  0.8686  1.0034
16689SOL     OW52958   5.666   8.719   1.680 -0.6626  1.1161 -0.1903
16689SOL    HW152959   5.761   8.706   1.688 -0.7940  1.1857  4.0397
16689SOL    HW252960   5.656   8.814   1.674 -0.4427  1.1224 -0.4401
16690SOL     OW52961   2.901   5.238   1.136  0.2397 -0.8748 -0.0069
16690SOL    HW152962   2.854   5.315   1.169  0.3373 -1.1057  0.6981
16690SOL    HW252963   2.993   5.260   1.146  0.2794 -0.7833 -0.5354
16691SOL     OW52964   8.396   8.980   4.144 -0.1376 -0.5733  0.2523
16691SOL    HW152965   8.384   8.889   4.171 -0.5668 -0.7418 -0.4785
16691SOL    HW252966   8.434   8.973   4.056 -2.4811 -0.0742 -0.8569
16692SOL     OW52967   3.190   2.690   2.165 -0.2754  0.2562  0.5061
16692SOL    HW152968   3.117   2.633   2.144  0.1507 -0.3638  0.6891
16692SOL    HW252969   3.197   2.748   2.089  1.0302 -1.7467 -1.0145
16693SOL     OW52970   2.455   1.952   6.076  0.1647  0.3605 -0.3392
16693SOL    HW152971   2.409   2.012   6.136  1.8439  1.4642 -0.0852
16693SOL    HW252972   2.403   1.955   5.996 -1.2479  0.0831  0.5105
16694SOL     OW52973   5.554   2.493   2.907  0.0602  0.3194 -0.1100
16694SOL    HW152974   5.625   2.428   2.907 -0.4690 -0.2660 -0.3541
16694SOL    HW252975   5.577   2.554   2.977  2.8135  2.3494 -2.5131
16695SOL     OW52976   1.417   6.247   5.353 -0.1648  0.2425  0.6779
16695SOL    HW152977   1.325   6.226   5.371 -0.4182 -0.2916 -1.0628
16695SOL    HW252978   1.464   6.219   5.432 -1.3077 -0.9072  0.9814
16696SOL     OW52979   6.735   2.433   3.701  0.0396  0.1766  0.2937
16696SOL    HW152980   6.718   2.407   3.610  1.4002 -0.6964  0.2561
16696SOL    HW252981   6.661   2.489   3.724 -0.8818 -0.4466 -1.0024
16697SOL     OW52982   4.849   4.833   5.187  0.3583 -0.1229 -0.2181
16697SOL    HW152983   4.928   4.865   5.230  0.8977  0.6481 -1.7207
16697SOL    HW252984   4.814   4.909   5.140 -0.8113 -0.6682 -0.2799
16698SOL     OW52985   5.758   4.144   7.714  0.2414  0.5739 -0.0301
16698SOL    HW152986   5.707   4.110   7.788  1.9710 -1.4844  0.3049
16698SOL    HW252987   5.834   4.186   7.755  0.3476  0.9575 -0.6131
16699SOL     OW52988   5.122   1.575   8.810 -0.0831  0.6796  0.0571
16699SOL    HW152989   5.084   1.488   8.816  0.5974  0.2813 -1.1838
16699SOL    HW252990   5.206   1.569   8.855  0.2723  0.4911 -0.6093
16700SOL     OW52991   1.604   3.877   3.455  0.5201  0.5381 -0.1308
16700SOL    HW152992   1.634   3.809   3.395  0.8364  1.1352 -0.6598
16700SOL    HW252993   1.621   3.959   3.409 -1.2311  0.9362 -0.1351
16701SOL     OW52994   2.151   0.907   1.148  0.3836 -0.1957 -0.2083
16701SOL    HW152995   2.102   0.831   1.181  1.1933 -0.9717 -0.7312
16701SOL    HW252996   2.120   0.981   1.200 -0.1104 -0.9617  0.6057
16702SOL     OW52997   0.170   9.170   6.993 -0.6103  0.0759  0.0262
16702SOL    HW152998   0.131   9.161   7.080 -1.9260  0.2996 -0.5019
16702SOL    HW252999   0.127   9.102   6.941 -0.7039  0.6882 -0.7190
16703SOL     OW53000   0.111   0.494   8.983  0.0873  0.3131 -0.1683
16703SOL    HW153001   0.048   0.434   8.943  0.4442 -0.2711  0.1347
16703SOL    HW253002   0.161   0.529   8.910  0.0927 -0.0018 -0.3161
16704SOL     OW53003   1.380   6.215   2.872 -0.3811  0.0788  0.8020
16704SOL    HW153004   1.474   6.218   2.891  0.0430 -1.7783 -0.7155
16704SOL    HW253005   1.338   6.217   2.959  1.1267 -0.6258  1.5865
16705SOL     OW53006   2.234   3.439   1.594  0.0149 -0.3915 -0.4087
16705SOL    HW153007   2.324   3.465   1.616 -0.6790  1.4791  0.4020
16705SOL    HW253008   2.242   3.397   1.508  1.2329  3.4006 -2.3633
16706SOL     OW53009   3.232   3.466   0.912  0.1896  0.0109 -0.1360
16706SOL    HW153010   3.236   3.380   0.953  2.6801  0.1370  0.0550
16706SOL    HW253011   3.142   3.474   0.881 -0.1091 -2.6629 -0.1861
16707SOL     OW53012   0.718   5.754   5.281  0.5591  0.0628  0.1287
16707SOL    HW153013   0.718   5.714   5.368  0.9110 -0.2911 -0.0292
16707SOL    HW253014   0.683   5.685   5.224  0.4972  0.2316 -0.0372
16708SOL     OW53015   6.964   1.719   3.059  0.5913  0.4296  0.2294
16708SOL    HW153016   7.018   1.735   3.137 -1.1770 -2.0865  2.1625
16708SOL    HW253017   6.878   1.755   3.083 -1.3468 -4.3871  1.6654
16709SOL     OW53018   2.978   8.032   6.881 -0.7177  0.4142  0.2453
16709SOL    HW153019   2.979   8.008   6.788  0.4616 -0.1474  0.3813
16709SOL    HW253020   3.045   7.976   6.921 -1.4969  0.3423  1.5197
16710SOL     OW53021   4.505   2.490   7.812  0.9110 -0.1149 -0.0352
16710SOL    HW153022   4.600   2.494   7.818  0.8384  1.2712  0.5517
16710SOL    HW253023   4.485   2.529   7.727  0.8671 -0.4226 -0.1663
16711SOL     OW53024   6.265   6.287   1.784 -0.0000  0.4838 -0.8790
16711SOL    HW153025   6.250   6.381   1.774  0.9051  0.8110  0.5555
16711SOL    HW253026   6.331   6.267   1.718 -2.6835  0.0566 -3.6706
16712SOL     OW53027   2.107   1.385   6.657  0.0412 -0.1539  0.1637
16712SOL    HW153028   2.060   1.404   6.738  0.0651 -0.3776  0.2300
16712SOL    HW253029   2.167   1.458   6.646 -1.4172  0.9635 -0.7445
16713SOL     OW53030   2.686   8.159   4.049 -0.3513 -0.2021 -0.7559
16713SOL    HW153031   2.626   8.151   4.124  1.6085 -0.5406  0.8741
16713SOL    HW253032   2.744   8.232   4.074 -0.5637  0.6719 -2.6628
16714SOL     OW53033   1.124   2.731   5.200  0.0713  0.5327  0.6007
16714SOL    HW153034   1.118   2.825   5.219  0.5542  0.5864  0.5023
16714SOL    HW253035   1.074   2.721   5.119  0.8090  0.8752  0.0903
16715SOL     OW53036   6.098   0.377   2.681  0.1777  0.4761 -0.0071
16715SOL    HW153037   6.053   0.418   2.607 -1.4438  0.1916  0.7720
16715SOL    HW253038   6.103   0.446   2.747  2.3266  0.9721 -0.5924
16716SOL     OW53039   8.095   6.930   7.148 -0.5781 -0.0443 -0.2781
16716SOL    HW153040   8.065   7.021   7.145 -0.8872 -0.1630 -0.8664
16716SOL    HW253041   8.176   6.933   7.200 -1.3230  0.3559  0.8966
16717SOL     OW53042   6.593   6.054   6.644  0.4897 -0.0603  0.0903
16717SOL    HW153043   6.576   5.990   6.713  0.5633  0.0501  0.2122
16717SOL    HW253044   6.659   6.112   6.681 -0.5982  0.9358  0.5195
16718SOL     OW53045   5.625   8.258   1.321  0.3794  0.4940  0.0086
16718SOL    HW153046   5.617   8.185   1.382 -0.7205  0.0819 -0.5969
16718SOL    HW253047   5.689   8.316   1.362  0.1150 -0.0504  1.2535
16719SOL     OW53048   3.053   1.942   7.371 -0.6364 -0.1534 -0.1849
16719SOL    HW153049   2.980   2.003   7.362 -0.5072  0.1155  0.5059
16719SOL    HW253050   3.129   1.991   7.341 -0.4415  0.2337  0.9068
16720SOL     OW53051   8.094   7.126   5.973 -0.3262  0.1264 -0.2876
16720SOL    HW153052   8.079   7.040   5.933 -0.0966 -0.7240  1.3506
16720SOL    HW253053   8.024   7.135   6.038  0.3335  0.6293  0.3829
16721SOL     OW53054   8.273   3.807   3.197  0.0051  0.4482  0.1971
16721SOL    HW153055   8.239   3.739   3.138 -0.6652  0.3868  0.6375
16721SOL    HW253056   8.234   3.888   3.165 -1.5014  0.2377  1.3565
16722SOL     OW53057   9.240   4.770   8.561  0.7437  0.3218 -0.1847
16722SOL    HW153058   9.223   4.689   8.512 -0.1392  1.0877 -1.2025
16722SOL    HW253059   9.179   4.834   8.523 -0.2849  0.8678  2.1876
16723SOL     OW53060   1.284   8.509   8.084  0.6677 -0.3524  0.0090
16723SOL    HW153061   1.321   8.530   8.170 -2.4276  0.1661  1.3323
16723SOL    HW253062   1.249   8.421   8.094  1.1042 -0.6708 -1.0708
16724SOL     OW53063   4.302   1.147   3.306 -0.0342 -0.0425 -0.6117
16724SOL    HW153064   4.369   1.169   3.241 -2.2676  0.4282 -2.9226
16724SOL    HW253065   4.327   1.195   3.384  1.8588  0.7704 -1.6578
16725SOL     OW53066   7.366   5.533   0.542 -0.0141  0.0064 -0.1335
16725SOL    HW153067   7.298   5.595   0.515  0.8788  0.3806 -1.6381
16725SOL    HW253068   7.443   5.586   0.557 -0.2248 -0.2879  2.5598
16726SOL     OW53069   1.008   0.850   3.287  0.3546 -0.1380  0.1684
16726SOL    HW153070   1.028   0.830   3.379  0.8610 -1.0702 -0.1342
16726SOL    HW253071   1.045   0.938   3.273  3.2128 -1.2483 -0.0031
16727SOL     OW53072   3.816   6.338   8.804  0.0754 -0.2909  0.0816
16727SOL    HW153073   3.849   6.377   8.723 -2.2939  0.1601 -0.7244
16727SOL    HW253074   3.800   6.246   8.782 -0.8629 -0.0963 -0.0575
16728SOL     OW53075   4.534   4.932   2.313 -0.9005 -0.0234 -0.3880
16728SOL    HW153076   4.627   4.912   2.309 -0.7719 -0.0829  1.7352
16728SOL    HW253077   4.530   5.027   2.327 -1.0490 -0.2326  1.2153
16729SOL     OW53078   2.818   7.688   7.661  0.0704 -0.1851  0.5702
16729SOL    HW153079   2.747   7.703   7.723 -0.7424 -0.1160 -0.3516
16729SOL    HW253080   2.774   7.666   7.579  1.1190 -2.3967  0.5214
16730SOL     OW53081   6.641   3.160   0.696  0.4997  0.1676 -0.1040
16730SOL    HW153082   6.590   3.081   0.680 -1.1860  1.3362 -0.7738
16730SOL    HW253083   6.614   3.220   0.627  0.3477  1.9781  1.4561
16731SOL     OW53084   0.118   2.135   6.812 -0.2523  0.1732  0.4500
16731SOL    HW153085   0.024   2.126   6.820 -0.4736  2.1870  0.7474
16731SOL    HW253086   0.130   2.197   6.740  0.8936 -0.6607 -0.1178
16732SOL     OW53087   0.721   3.447   1.130 -0.3401 -0.2509 -0.0705
16732SOL    HW153088   0.788   3.393   1.087 -0.7560 -1.9837  1.3486
16732SOL    HW253089   0.654   3.460   1.062  1.1508  1.1467 -1.3782
16733SOL     OW53090   4.058   0.401   6.288 -0.0585 -0.5461 -0.3542
16733SOL    HW153091   4.052   0.360   6.375  1.6098 -1.8934 -0.8097
16733SOL    HW253092   4.152   0.420   6.278 -0.0890 -1.2252 -2.1899
16734SOL     OW53093   5.334   4.331   8.317 -0.0130 -0.8920 -0.2578
16734SOL    HW153094   5.325   4.250   8.267  2.3273 -0.8728 -0.8281
16734SOL    HW253095   5.278   4.394   8.272 -1.5773 -2.0541 -0.0193
16735SOL     OW53096   6.938   5.269   0.464 -0.1164  0.5402  0.4911
16735SOL    HW153097   7.028   5.303   0.471  0.3630 -0.6301  0.2330
16735SOL    HW253098   6.903   5.275   0.553  0.5863  0.0299  0.8100
16736SOL     OW53099   7.692   1.713   3.870 -0.0867 -0.3546 -0.0031
16736SOL    HW153100   7.724   1.799   3.895 -2.0363  0.3050  0.3808
16736SOL    HW253101   7.717   1.656   3.943  1.9356 -0.3508 -0.6291
16737SOL     OW53102   7.624   6.448   2.865  0.0768 -0.4047 -0.1059
16737SOL    HW153103   7.612   6.484   2.777  0.1908 -2.8307 -1.2160
16737SOL    HW253104   7.537   6.419   2.891 -0.4855  2.6334  1.7953
16738SOL     OW53105   0.285   7.575   1.414 -0.5293  0.0534  0.0040
16738SOL    HW153106   0.350   7.593   1.347  0.3546  0.2794  0.9028
16738SOL    HW253107   0.305   7.637   1.485 -0.7535 -0.8893  0.9225
16739SOL     OW53108   6.420   2.989   4.300  0.0335 -0.5224 -0.3884
16739SOL    HW153109   6.378   3.068   4.336  1.3546 -0.6103  1.4752
16739SOL    HW253110   6.347   2.933   4.273 -1.1140 -0.4728  2.3107
16740SOL     OW53111   5.815   2.059   6.068  0.4039 -0.1348 -0.1170
16740SOL    HW153112   5.848   2.003   5.998  1.0969  1.1395 -0.8448
16740SOL    HW253113   5.741   2.105   6.030  0.0732 -0.2623  0.3581
16741SOL     OW53114   6.282   6.411   8.904  0.2225 -0.0730 -0.2783
16741SOL    HW153115   6.297   6.355   8.827  0.9934  0.4221 -0.5035
16741SOL    HW253116   6.241   6.353   8.968  1.3532 -1.0162 -0.3621
16742SOL     OW53117   0.758   7.977   1.318 -0.5159  0.1437 -1.1991
16742SOL    HW153118   0.708   7.912   1.367 -1.5516  2.1708  0.6633
16742SOL    HW253119   0.842   7.982   1.364 -0.1223 -0.4115 -1.8393
16743SOL     OW53120   6.168   4.367   2.946 -0.6211  0.5114  0.1390
16743SOL    HW153121   6.206   4.283   2.920 -1.9598 -0.7479  1.9543
16743SOL    HW253122   6.091   4.376   2.891  0.0528  1.0638 -0.7364
16744SOL     OW53123   6.949   4.910   0.929  0.1677  0.3683 -0.3731
16744SOL    HW153124   6.967   4.924   0.836 -0.5971  0.4145 -0.5201
16744SOL    HW253125   6.854   4.903   0.934  0.2684 -0.8331  0.2458
16745SOL     OW53126   8.181   3.798   5.839  0.1183  0.5610  0.0308
16745SOL    HW153127   8.229   3.716   5.844 -0.6961 -0.2234 -2.9390
16745SOL    HW253128   8.089   3.772   5.839 -0.1535  1.1951 -2.5579
16746SOL     OW53129   1.660   7.205   7.652  0.1000 -0.1816  0.1777
16746SOL    HW153130   1.701   7.262   7.717  0.7009 -0.4882  0.0719
16746SOL    HW253131   1.733   7.161   7.609 -0.3309 -0.5623 -0.1758
16747SOL     OW53132   7.480   2.092   0.074  0.0661  0.3313  0.0933
16747SOL    HW153133   7.458   2.061   0.162 -2.8229 -1.0240 -0.9471
16747SOL    HW253134   7.404   2.145   0.048  0.3985 -0.0854 -1.8982
16748SOL     OW53135   2.591   3.909   4.306 -0.5438  0.6483 -0.1702
16748SOL    HW153136   2.683   3.932   4.321 -0.8474  1.1776  1.0178
16748SOL    HW253137   2.543   3.960   4.372 -1.5559 -0.7601  0.2098
16749SOL     OW53138   7.615   3.132   5.561  0.7086  0.6370  0.1670
16749SOL    HW153139   7.583   3.043   5.550 -0.5504  1.0660  0.2096
16749SOL    HW253140   7.710   3.124   5.559  0.6004 -0.5129 -1.3050
16750SOL     OW53141   4.459   0.974   2.026 -0.2011 -0.6881 -0.0402
16750SOL    HW153142   4.370   1.005   2.039  0.2652  1.5918 -1.7119
16750SOL    HW253143   4.452   0.911   1.953 -0.5842 -1.5089  0.6870
16751SOL     OW53144   5.639   1.070   8.456  0.2838 -0.0548 -0.4895
16751SOL    HW153145   5.624   1.026   8.372 -1.3076 -0.5196 -0.0062
16751SOL    HW253146   5.578   1.027   8.516  0.8246  0.8127  0.7183
16752SOL     OW53147   3.402   0.606   3.206  0.4711  0.2544 -0.3335
16752SOL    HW153148   3.334   0.546   3.236  0.4611  0.2480 -0.3686
16752SOL    HW253149   3.363   0.693   3.215  0.1436  0.2069 -1.1458
16753SOL     OW53150   6.061   1.828   6.737  0.2574 -0.5571  0.3899
16753SOL    HW153151   6.106   1.753   6.698 -1.2081 -1.2454 -0.0225
16753SOL    HW253152   6.118   1.902   6.717  1.4299 -1.4494  0.2803
16754SOL     OW53153   5.709   7.287   9.062  0.1723  0.2182  0.3434
16754SOL    HW153154   5.677   7.208   9.018 -1.2911  0.5145  0.8361
16754SOL    HW253155   5.717   7.352   8.992  1.6717 -0.4095 -0.1185
16755SOL     OW53156   8.748   4.614   1.624 -0.0050  0.2081  0.0306
16755SOL    HW153157   8.811   4.602   1.553  0.0781  0.6635  0.0224
16755SOL    HW253158   8.763   4.704   1.654  0.0942 -0.0513  0.7582
16756SOL     OW53159   5.151   3.874   6.379  0.0310  0.3483  0.4763
16756SOL    HW153160   5.091   3.936   6.337 -0.2769 -0.6060 -0.5424
16756SOL    HW253161   5.167   3.808   6.312  1.8820  0.3330  0.8906
16757SOL     OW53162   3.116   7.318   6.305  0.0865 -0.2584  0.0579
16757SOL    HW153163   3.184   7.280   6.360 -0.0556 -0.5573  0.0294
16757SOL    HW253164   3.052   7.354   6.367  0.9753  1.3441  0.1044
16758SOL     OW53165   1.206   0.074   6.727 -0.6062  0.0173 -0.1474
16758SOL    HW153166   1.135   0.034   6.778  0.3891 -0.7169  0.7029
16758SOL    HW253167   1.168   0.088   6.640 -1.5672 -1.0694  0.0709
16759SOL     OW53168   5.355   7.454   7.468 -0.0340  0.0821 -0.1117
16759SOL    HW153169   5.284   7.435   7.406 -0.6952  1.0400  0.3224
16759SOL    HW253170   5.324   7.417   7.551  0.9412 -1.3798 -0.3665
16760SOL     OW53171   6.894   1.594   8.673  0.8447 -0.0581  0.3495
16760SOL    HW153172   6.955   1.666   8.686  2.0510 -0.7635 -1.1344
16760SOL    HW253173   6.814   1.637   8.641  1.7534  0.6038 -1.1292
16761SOL     OW53174   4.987   2.707   8.802  0.1410 -0.2406 -0.2345
16761SOL    HW153175   4.996   2.612   8.799  0.1994 -0.2372 -0.1744
16761SOL    HW253176   4.896   2.724   8.779 -0.6286 -0.4519  2.3886
16762SOL     OW53177   0.102   1.964   2.922  0.2445  0.2619 -0.3528
16762SOL    HW153178   0.176   1.996   2.870  0.1320  0.6457 -0.2796
16762SOL    HW253179   0.028   2.017   2.894  0.3741  1.1296  0.8479
16763SOL     OW53180   4.425   0.202   2.847 -0.6536 -0.0954 -0.2050
16763SOL    HW153181   4.446   0.272   2.908  0.5933  2.3606 -3.2111
16763SOL    HW253182   4.510   0.169   2.817 -1.2200 -2.2285  0.3098
16764SOL     OW53183   5.111   2.909   6.717  0.6711  0.1812  0.2197
16764SOL    HW153184   5.061   2.933   6.795  0.5646 -0.7739  0.4552
16764SOL    HW253185   5.055   2.845   6.672  0.3240  1.3951 -1.1217
16765SOL     OW53186   0.169   7.826   5.111  0.1568 -0.1508  0.5775
16765SOL    HW153187   0.112   7.761   5.153  0.3057 -0.3816  0.4240
16765SOL    HW253188   0.123   7.851   5.031 -0.4683  0.8182  1.2170
16766SOL     OW53189   8.775   0.835   9.208  0.3611  0.0983 -0.1469
16766SOL    HW153190   8.786   0.768   9.275 -1.2065 -1.3992 -1.3058
16766SOL    HW253191   8.780   0.788   9.125 -0.7504  1.4094 -1.0100
16767SOL     OW53192   6.349   2.671   1.136  0.4344  0.3087 -0.1210
16767SOL    HW153193   6.279   2.622   1.177 -0.8609  0.4918 -1.9959
16767SOL    HW253194   6.305   2.729   1.074  2.2208  0.5625 -1.2226
16768SOL     OW53195   3.022   0.503   6.253  0.2640  0.6410 -0.1239
16768SOL    HW153196   3.071   0.436   6.300  0.9746  1.1020 -0.1886
16768SOL    HW253197   2.936   0.505   6.295 -0.5945 -1.8749 -1.5296
16769SOL     OW53198   1.146   0.974   6.629  0.8488  0.5448  0.1820
16769SOL    HW153199   1.147   0.885   6.665  0.2544  1.2203  1.9638
16769SOL    HW253200   1.226   1.015   6.664  2.2758  0.1389 -2.3338
16770SOL     OW53201   4.120   4.128   4.773 -0.2838 -0.1031 -0.5792
16770SOL    HW153202   4.115   4.177   4.855 -1.6244  0.4003 -0.9261
16770SOL    HW253203   4.128   4.036   4.800 -1.0429  0.0277  0.1365
16771SOL     OW53204   6.067   1.873   3.305  0.4806  0.2526 -0.1443
16771SOL    HW153205   6.077   1.963   3.337 -1.6279  0.7088 -0.6002
16771SOL    HW253206   6.098   1.875   3.215  1.3331  0.2819  0.1452
16772SOL     OW53207   9.057   3.455   2.752 -0.2749  0.7600  0.4773
16772SOL    HW153208   9.093   3.370   2.724  2.0582  1.6114  0.6417
16772SOL    HW253209   9.025   3.495   2.672  1.1190  0.8037 -0.0938
16773SOL     OW53210   3.080   4.867   1.323  0.3314  0.4190  0.2955
16773SOL    HW153211   3.130   4.935   1.370 -1.2410  1.5296  0.4215
16773SOL    HW253212   3.018   4.915   1.269  0.5839 -0.9068 -1.2621
16774SOL     OW53213   7.047   1.627   4.760 -0.1900 -0.4719 -0.5440
16774SOL    HW153214   7.069   1.550   4.708  0.2900 -0.2344 -0.7006
16774SOL    HW253215   7.004   1.592   4.838 -1.3617 -0.8071 -1.3088
16775SOL     OW53216   2.175   6.322   6.247 -0.6889 -0.1826  0.3386
16775SOL    HW153217   2.238   6.264   6.292 -0.3073 -0.7533 -0.8941
16775SOL    HW253218   2.116   6.262   6.203  0.4158  0.3113 -1.9461
16776SOL     OW53219   7.994   2.669   0.836 -0.1146  0.1584  0.2312
16776SOL    HW153220   7.972   2.745   0.783 -1.7892 -0.3227  0.1973
16776SOL    HW253221   7.914   2.618   0.840  0.6977 -1.1083  1.1006
16777SOL     OW53222   2.310   0.130   8.773  0.0411  0.1576  0.2296
16777SOL    HW153223   2.238   0.185   8.741 -0.9667 -0.3691  1.5262
16777SOL    HW253224   2.284   0.105   8.861  1.3128 -0.9596  0.3171
16778SOL     OW53225   1.418   7.159   1.724 -0.2440 -0.0054  0.3368
16778SOL    HW153226   1.483   7.220   1.689 -0.1302  0.0834  0.7033
16778SOL    HW253227   1.358   7.144   1.651  1.5016 -1.9602 -0.8223
16779SOL     OW53228   7.531   5.070   4.151  0.2366 -0.3478 -0.4352
16779SOL    HW153229   7.512   5.036   4.238 -0.2662  1.0079  0.0182
16779SOL    HW253230   7.620   5.041   4.133  1.4338  1.6528  1.7437
16780SOL     OW53231   2.694   2.087   7.551  0.1807 -0.1325  0.0145
16780SOL    HW153232   2.698   1.992   7.560  0.6248  0.0265  2.2126
16780SOL    HW253233   2.754   2.107   7.479  1.6222 -1.4089  0.8080
16781SOL     OW53234   7.593   2.622   4.463  0.3158  0.1591  0.1661
16781SOL    HW153235   7.556   2.707   4.438  4.0421  2.6180  2.1380
16781SOL    HW253236   7.584   2.619   4.558  1.8329 -0.8160  0.3035
16782SOL     OW53237   3.474   1.762   3.117 -0.1117 -0.1145  0.5055
16782SOL    HW153238   3.484   1.716   3.201 -0.2530 -0.9979  0.0518
16782SOL    HW253239   3.560   1.801   3.101 -0.0470 -0.0400  0.9972
16783SOL     OW53240   0.519   2.113   8.886  0.0394  0.1721 -0.1167
16783SOL    HW153241   0.431   2.147   8.900 -0.1803 -0.5451  0.2893
16783SOL    HW253242   0.506   2.026   8.848  0.5550 -0.1392  0.3937
16784SOL     OW53243   4.244   3.425   7.091 -0.3930 -0.1453  0.1079
16784SOL    HW153244   4.237   3.506   7.042 -0.2596  0.4218  1.0142
16784SOL    HW253245   4.154   3.395   7.101 -0.6116  0.8027  1.2463
16785SOL     OW53246   6.299   0.188   3.595 -0.0834  0.1219  0.1514
16785SOL    HW153247   6.235   0.236   3.543 -0.0767  0.8858  0.8188
16785SOL    HW253248   6.363   0.255   3.621 -0.3953 -0.1195  1.6103
16786SOL     OW53249   2.053   6.550   3.972 -0.1618  0.2630  0.0210
16786SOL    HW153250   2.148   6.551   3.984 -0.0214  0.2862 -1.0488
16786SOL    HW253251   2.032   6.636   3.935 -0.5145 -0.0047 -0.4043
16787SOL     OW53252   3.804   7.552   5.345 -0.0271 -0.3943  0.3696
16787SOL    HW153253   3.790   7.643   5.372  1.4793 -0.3221  0.9787
16787SOL    HW253254   3.741   7.539   5.274  0.4053  1.4304 -0.4145
16788SOL     OW53255   4.659   5.465   0.769  0.6029 -0.6441 -0.0771
16788SOL    HW153256   4.714   5.405   0.719 -0.1394 -2.0842  0.7360
16788SOL    HW253257   4.569   5.435   0.752  0.3324 -1.2741  2.1346
16789SOL     OW53258   4.872   0.915   7.701 -0.1325 -0.0691 -0.0392
16789SOL    HW153259   4.872   0.875   7.788  2.0741 -0.4361 -0.1470
16789SOL    HW253260   4.811   0.988   7.708  0.5580  0.3720  2.0574
16790SOL     OW53261   8.460   3.884   5.395 -0.3161  0.0892 -0.3088
16790SOL    HW153262   8.514   3.807   5.379  0.5684  0.8992 -1.3717
16790SOL    HW253263   8.370   3.854   5.378 -0.0327 -0.8022 -0.2923
16791SOL     OW53264   0.461   6.200   7.465  0.2424  0.5314 -1.1286
16791SOL    HW153265   0.482   6.108   7.483  0.1674  0.7787  0.3279
16791SOL    HW253266   0.408   6.197   7.385 -2.2377 -1.0096  0.4392
16792SOL     OW53267   4.096   3.234   1.226 -0.3361 -0.3021 -0.1765
16792SOL    HW153268   4.173   3.266   1.272 -1.2515 -1.8046  2.6185
16792SOL    HW253269   4.128   3.163   1.171  0.4842  0.1269 -0.2591
16793SOL     OW53270   5.001   8.119   4.127  0.0781 -0.3591  0.0486
16793SOL    HW153271   5.014   8.212   4.112  2.6458 -0.5865  0.3592
16793SOL    HW253272   4.912   8.102   4.099 -0.9300  2.4160  1.2189
16794SOL     OW53273   2.081   4.065   3.345 -0.0521 -0.7311  0.2409
16794SOL    HW153274   2.051   4.066   3.254 -0.7615 -1.5713  0.4574
16794SOL    HW253275   2.155   4.005   3.346  0.9960  0.5083 -0.0779
16795SOL     OW53276   4.466   7.493   5.932 -0.4264 -0.1373 -0.6953
16795SOL    HW153277   4.556   7.459   5.939  0.3969  2.1593  1.5123
16795SOL    HW253278   4.417   7.445   5.999 -0.1617  0.3773 -0.1146
16796SOL     OW53279   4.771   2.860   8.334 -0.3185  0.5769 -0.1963
16796SOL    HW153280   4.730   2.884   8.251 -3.2797  1.3733  1.3301
16796SOL    HW253281   4.777   2.764   8.332 -2.6910  0.3698 -0.4408
16797SOL     OW53282   8.705   1.857   5.483  0.0961 -0.0740  0.4782
16797SOL    HW153283   8.704   1.894   5.394 -0.3455 -1.3477 -0.0756
16797SOL    HW253284   8.690   1.764   5.470  0.3871 -0.3386  1.8856
16798SOL     OW53285   2.572   2.025   7.178 -0.2326  0.4124  0.3845
16798SOL    HW153286   2.569   2.088   7.106 -0.2157 -0.4422 -0.3820
16798SOL    HW253287   2.601   1.943   7.137  2.5360  0.5582  1.8128
16799SOL     OW53288   7.061   7.597   3.097 -0.2804  0.0691  0.2311
16799SOL    HW153289   7.032   7.610   3.187 -1.3858  1.0417 -0.2514
16799SOL    HW253290   7.007   7.656   3.045 -0.0487 -0.8926 -1.1482
16800SOL     OW53291   1.788   0.170   1.362  0.9646  0.8578 -0.1776
16800SOL    HW153292   1.836   0.121   1.296 -0.8632 -1.5469  0.1481
16800SOL    HW253293   1.781   0.110   1.437 -2.9178  0.7351 -0.4156
16801SOL     OW53294   2.831   8.529   0.288 -0.3376 -0.4484 -0.2503
16801SOL    HW153295   2.795   8.610   0.251 -0.0336  0.6577  1.7659
16801SOL    HW253296   2.840   8.547   0.381  0.0595 -2.7178  0.1988
16802SOL     OW53297   5.538   5.550   1.512 -0.2688 -0.3222  0.2248
16802SOL    HW153298   5.621   5.573   1.472 -0.6967 -0.8066 -0.9814
16802SOL    HW253299   5.497   5.489   1.450 -1.9354  0.6193  0.3435
16803SOL     OW53300   0.827   5.576   1.069  0.1061 -0.4356  0.3048
16803SOL    HW153301   0.869   5.603   0.987  1.6652 -0.9175  0.9066
16803SOL    HW253302   0.751   5.633   1.077  0.9692  0.9033 -0.5579
16804SOL     OW53303   8.104   6.377   3.900 -0.0418 -0.3555 -0.1602
16804SOL    HW153304   8.084   6.303   3.843 -0.4476  1.6584 -2.8810
16804SOL    HW253305   8.200   6.376   3.908  0.1868  0.1131 -2.2228
16805SOL     OW53306   6.582   4.605   1.218  0.3056  0.8715 -0.2680
16805SOL    HW153307   6.587   4.597   1.123 -3.4463 -0.3916 -0.5036
16805SOL    HW253308   6.495   4.640   1.236  0.4888  0.1365  2.7145
16806SOL     OW53309   4.046   1.078   3.323 -0.0291  0.3167  0.5490
16806SOL    HW153310   4.134   1.109   3.345  0.6761 -0.8816 -0.4268
16806SOL    HW253311   4.041   0.991   3.361 -0.5480  0.1128  0.0257
16807SOL     OW53312   8.576   3.938   8.736  0.2334 -0.0929  0.7605
16807SOL    HW153313   8.561   4.005   8.802 -1.7162  1.6761 -1.3008
16807SOL    HW253314   8.652   3.968   8.687  1.3609 -1.1429  1.7789
16808SOL     OW53315   6.715   3.392   6.299  0.5786  0.8164  0.0506
16808SOL    HW153316   6.703   3.475   6.344  1.7770  0.4075  1.2123
16808SOL    HW253317   6.667   3.328   6.352  1.9188  0.3465  0.7701
16809SOL     OW53318   0.895   0.611   1.478 -0.2906  0.0187 -0.3426
16809SOL    HW153319   0.925   0.628   1.389  0.1679 -2.0046 -0.6309
16809SOL    HW253320   0.971   0.571   1.521 -1.0187 -0.5280  0.4589
16810SOL     OW53321   2.004   5.233   7.086 -0.0230  0.0758  0.3649
16810SOL    HW153322   2.009   5.202   7.177 -0.1673 -0.7388  0.0994
16810SOL    HW253323   1.972   5.158   7.036  2.2050 -0.2331 -0.7322
16811SOL     OW53324   6.087   0.134   3.097  0.4312  0.3859 -0.2854
16811SOL    HW153325   6.180   0.114   3.107  0.3531 -1.0910 -2.0787
16811SOL    HW253326   6.079   0.166   3.007 -0.6508  1.5503  0.2029
16812SOL     OW53327   7.508   0.355   6.230  0.0993 -0.3137 -0.1069
16812SOL    HW153328   7.422   0.394   6.245  1.5309  2.1708  2.7364
16812SOL    HW253329   7.563   0.429   6.204  2.0293 -1.1866  1.2649
16813SOL     OW53330   2.187   5.490   0.392  0.3329  0.3326 -0.0175
16813SOL    HW153331   2.117   5.555   0.399  0.1060  0.1372 -0.4742
16813SOL    HW253332   2.259   5.529   0.441  0.7261  1.6399 -1.5340
16814SOL     OW53333   2.901   4.422   8.072 -0.8024 -0.2479 -0.1210
16814SOL    HW153334   2.837   4.384   8.012  0.8868 -3.6573  0.0238
16814SOL    HW253335   2.874   4.391   8.158 -0.3390  0.4098  0.2686
16815SOL     OW53336   2.956   3.857   2.443  0.4444  0.2208 -0.3529
16815SOL    HW153337   2.886   3.873   2.506 -0.4296 -0.1403 -1.2162
16815SOL    HW253338   2.978   3.764   2.455  2.4134  0.8362  1.5202
16816SOL     OW53339   6.426   0.694   8.041  0.1519  0.0426 -0.3006
16816SOL    HW153340   6.409   0.640   8.118 -0.3430  0.0071 -0.4348
16816SOL    HW253341   6.466   0.774   8.077 -2.5802  1.2457  0.3210
16817SOL     OW53342   7.549   4.006   4.434  0.4300 -0.1117 -0.0883
16817SOL    HW153343   7.525   4.012   4.342  0.1765  0.7874  0.0208
16817SOL    HW253344   7.542   3.913   4.456  0.3884 -0.3128 -0.9415
16818SOL     OW53345   0.946   1.634   3.480  0.9158 -0.0763  0.4486
16818SOL    HW153346   0.916   1.565   3.539  0.5499 -1.9028 -1.7198
16818SOL    HW253347   0.871   1.693   3.471  0.1326 -1.1262 -0.0511
16819SOL     OW53348   3.122   5.270   3.853 -0.3839 -0.6242  0.1120
16819SOL    HW153349   3.160   5.354   3.827 -3.2142  0.5216 -0.7611
16819SOL    HW253350   3.037   5.293   3.891 -0.7027 -3.0415  1.0358
16820SOL     OW53351   6.850   6.028   2.541  0.5292 -0.1669  0.4468
16820SOL    HW153352   6.817   5.970   2.472  0.7947 -2.0585  1.8349
16820SOL    HW253353   6.775   6.041   2.599  0.4788  0.9281  0.1698
16821SOL     OW53354   8.906   8.852   7.678 -0.1335 -0.3543 -0.2979
16821SOL    HW153355   8.947   8.805   7.606 -0.3585  1.4509 -1.6632
16821SOL    HW253356   8.972   8.916   7.705  0.7973 -2.3229  2.5899
16822SOL     OW53357   2.707   1.740   5.481 -0.5052  0.0429  0.1352
16822SOL    HW153358   2.686   1.672   5.546  0.9630 -0.8909 -0.3056
16822SOL    HW253359   2.727   1.818   5.533 -2.1392  0.1459  0.6549
16823SOL     OW53360   0.005   2.585   6.972 -0.5713  0.0209  0.0232
16823SOL    HW153361  -0.002   2.594   7.068 -0.1365  1.9194 -0.0951
16823SOL    HW253362   0.071   2.517   6.960 -1.6820 -1.3250  1.0438
16824SOL     OW53363   5.966   5.208   0.917  0.1886  0.3624  0.3002
16824SOL    HW153364   5.962   5.121   0.878 -0.0393  0.1866  0.7111
16824SOL    HW253365   6.053   5.241   0.893  0.4021 -0.1057  0.4109
16825SOL     OW53366   2.048   7.857   7.823 -0.3122 -0.2439 -0.0108
16825SOL    HW153367   2.000   7.792   7.874 -1.7557  0.3962 -0.5039
16825SOL    HW253368   2.083   7.808   7.748 -2.1352 -0.3437 -0.8564
16826SOL     OW53369   1.331   0.703   3.607  0.1740  0.0201 -0.1786
16826SOL    HW153370   1.417   0.744   3.610  0.3490 -0.3978  1.2134
16826SOL    HW253371   1.348   0.613   3.579 -0.0317  0.4084 -1.6407
16827SOL     OW53372   2.794   8.018   3.854 -0.0841 -0.0687  0.4394
16827SOL    HW153373   2.793   8.077   3.779  4.4151  0.2277  0.3736
16827SOL    HW253374   2.764   8.071   3.927 -0.1606  1.0010 -0.3500
16828SOL     OW53375   4.428   2.568   3.264  0.0467  0.0710 -0.4312
16828SOL    HW153376   4.435   2.650   3.313  0.1313 -0.6322  0.7941
16828SOL    HW253377   4.403   2.503   3.330  1.2787 -1.1347 -1.0943
16829SOL     OW53378   5.634   3.212   0.611 -0.1878 -0.5379 -0.0154
16829SOL    HW153379   5.540   3.228   0.619 -0.5179 -2.2967 -0.0427
16829SOL    HW253380   5.657   3.252   0.527 -0.0676  3.2496  1.6109
16830SOL     OW53381   5.910   1.770   4.113 -0.1368 -0.1912  0.4748
16830SOL    HW153382   5.816   1.772   4.130 -0.3242  0.4615 -0.5404
16830SOL    HW253383   5.925   1.684   4.074 -0.8285  0.6970 -1.9173
16831SOL     OW53384   0.548   8.285   5.731  0.2239  0.4846 -0.4804
16831SOL    HW153385   0.481   8.327   5.785  0.0529  0.2216 -0.4888
16831SOL    HW253386   0.500   8.227   5.673  0.6072 -2.0772  1.5528
16832SOL     OW53387   1.098   5.959   2.557  0.0288 -0.6025 -0.2498
16832SOL    HW153388   1.177   5.931   2.510  1.3510 -0.2625  1.6401
16832SOL    HW253389   1.109   6.053   2.568 -0.8700 -0.4784 -0.3300
16833SOL     OW53390   6.135   0.745   6.921 -0.8612  0.2829 -0.2187
16833SOL    HW153391   6.075   0.670   6.914  0.0849 -0.3562 -2.1632
16833SOL    HW253392   6.077   0.821   6.923 -1.7973 -0.3630 -1.1754
16834SOL     OW53393   6.354   9.052   8.734 -0.3287  0.2214  0.0339
16834SOL    HW153394   6.318   9.057   8.823 -0.7090 -0.5235 -0.0677
16834SOL    HW253395   6.407   8.972   8.735 -0.3096  0.2263 -0.4033
16835SOL     OW53396   8.531   0.017   0.172 -0.0393  0.0052  0.0256
16835SOL    HW153397   8.477  -0.031   0.234  0.0258  1.3431  1.1725
16835SOL    HW253398   8.603   0.052   0.225  0.5164  0.4229 -0.9755
16836SOL     OW53399   5.017   4.970   6.329 -0.0619 -0.0063  0.0929
16836SOL    HW153400   5.092   4.926   6.289  0.1434 -0.4353  0.9404
16836SOL    HW253401   5.042   5.062   6.334  0.4014 -0.1476  0.3604
16837SOL     OW53402   7.785   6.545   7.504  0.2522 -0.3059 -0.0375
16837SOL    HW153403   7.777   6.477   7.571 -0.4408  0.3565  0.5752
16837SOL    HW253404   7.846   6.609   7.541 -1.3666  0.8821  0.7120
16838SOL     OW53405   4.967   0.405   4.972 -0.2915 -0.1790  0.5859
16838SOL    HW153406   4.885   0.371   5.007  0.0828 -1.3376  0.3601
16838SOL    HW253407   4.951   0.499   4.962 -1.5945 -0.3903  0.5160
16839SOL     OW53408   2.699   5.261   3.499  0.6930 -0.2573  0.1134
16839SOL    HW153409   2.665   5.177   3.470 -0.1141  0.0521  0.1452
16839SOL    HW253410   2.685   5.320   3.424  0.8195 -0.0391  0.2592
16840SOL     OW53411   3.829   7.131   3.779 -0.2347  0.5656  0.2264
16840SOL    HW153412   3.851   7.134   3.872  2.1331  0.1553 -0.2567
16840SOL    HW253413   3.842   7.040   3.754 -1.3435  0.5684 -0.4214
16841SOL     OW53414   1.240   1.675   7.563 -0.8368  0.4336 -0.8666
16841SOL    HW153415   1.189   1.636   7.492  0.7935 -0.4830 -1.5861
16841SOL    HW253416   1.299   1.736   7.520 -1.1657  1.3459 -0.0678
16842SOL     OW53417   6.628   3.481   3.322  0.1186  0.1636 -0.1148
16842SOL    HW153418   6.627   3.447   3.412  0.2468 -1.7481 -0.7927
16842SOL    HW253419   6.577   3.417   3.272  1.0567  0.5550 -1.6193
16843SOL     OW53420   4.057   4.838   0.790  0.2231  0.0414  0.5917
16843SOL    HW153421   4.105   4.757   0.775  1.1027  0.8532 -1.2092
16843SOL    HW253422   4.124   4.900   0.820 -0.5560 -0.0127  2.6461
16844SOL     OW53423   0.557   3.088   4.517 -0.2477 -0.3424 -0.6396
16844SOL    HW153424   0.468   3.058   4.533  0.3246 -2.0242 -0.4271
16844SOL    HW253425   0.594   3.025   4.455  0.9476  0.0270 -0.3452
16845SOL     OW53426   1.387   4.755   0.949 -0.4410  0.3999  0.2534
16845SOL    HW153427   1.379   4.804   0.867 -0.6277  0.2190  0.1641
16845SOL    HW253428   1.464   4.700   0.936 -1.1103 -0.4418 -0.2252
16846SOL     OW53429   2.901   8.410   3.538  0.0284 -0.2535 -0.1429
16846SOL    HW153430   2.980   8.377   3.580 -0.4729 -0.8834  0.3357
16846SOL    HW253431   2.829   8.375   3.591 -0.5403  1.7400  0.4712
16847SOL     OW53432   5.268   8.594   8.105  0.0728 -0.1762  0.3968
16847SOL    HW153433   5.322   8.622   8.179  1.0571  1.3549 -0.8349
16847SOL    HW253434   5.332   8.565   8.039 -0.5272  1.5898 -1.0641
16848SOL     OW53435   5.855   4.272   4.638 -0.3482 -0.2465 -0.2779
16848SOL    HW153436   5.789   4.312   4.582 -0.4701 -0.0954 -0.0279
16848SOL    HW253437   5.842   4.178   4.628 -1.5766 -0.2296  0.9010
16849SOL     OW53438   5.732   0.994   0.723  0.2686  0.1746 -0.1467
16849SOL    HW153439   5.715   0.901   0.739  0.6488  0.0809 -0.2615
16849SOL    HW253440   5.734   1.034   0.809 -1.0856  0.2967 -0.1575
16850SOL     OW53441   6.920   8.929   7.074  0.4462  0.0089 -0.1488
16850SOL    HW153442   6.962   8.871   7.138 -2.9536 -1.4911  0.9346
16850SOL    HW253443   6.882   8.999   7.127  0.8477  0.8771 -0.9924
16851SOL     OW53444   0.730   8.965   6.709 -0.2383 -0.5750 -0.0047
16851SOL    HW153445   0.807   8.941   6.759  0.4939 -1.2080 -1.3702
16851SOL    HW253446   0.718   8.894   6.646 -1.0231  0.2369 -0.8198
16852SOL     OW53447   4.570   8.034   3.288  0.0976 -0.1780 -0.7978
16852SOL    HW153448   4.485   8.056   3.251 -0.3160  0.2852  0.4069
16852SOL    HW253449   4.552   8.010   3.379  1.2847  0.2245 -0.4327
16853SOL     OW53450   3.907   1.222   6.565  0.0631 -0.1029  0.1987
16853SOL    HW153451   3.943   1.309   6.586 -0.7337  0.4190 -0.5235
16853SOL    HW253452   3.813   1.231   6.581  0.3277 -1.9190  3.6978
16854SOL     OW53453   8.330   0.675   1.430  0.2521 -0.5708  0.6278
16854SOL    HW153454   8.273   0.717   1.367  1.6782 -1.3177 -1.2667
16854SOL    HW253455   8.356   0.745   1.490 -1.6115  0.0284  0.7774
16855SOL     OW53456   5.731   3.525   5.466  0.4281 -0.5080 -0.4724
16855SOL    HW153457   5.719   3.612   5.429  2.2117  0.0075  0.0622
16855SOL    HW253458   5.691   3.529   5.552  0.1952 -0.3248 -0.5892
16856SOL     OW53459   6.568   8.680   5.305 -0.2742  0.1521 -0.1415
16856SOL    HW153460   6.564   8.641   5.217 -1.3755 -0.7644  0.3060
16856SOL    HW253461   6.542   8.771   5.291  0.3041  0.2221 -0.8726
16857SOL     OW53462   5.214   0.143   0.036  0.4871 -0.0321 -0.4392
16857SOL    HW153463   5.251   0.229   0.016  0.2220  0.3643  0.7095
16857SOL    HW253464   5.180   0.112  -0.048  3.4433 -0.4727 -1.6108
16858SOL     OW53465   4.690   2.445   2.001  0.6111  0.2516  0.0694
16858SOL    HW153466   4.676   2.540   2.008  0.6786  0.3657 -1.2020
16858SOL    HW253467   4.607   2.407   2.029  0.7748  0.6545  1.1628
16859SOL     OW53468   0.722   8.804   5.658  0.2592 -0.0034  0.3553
16859SOL    HW153469   0.801   8.818   5.711  0.6833 -2.3250  0.4178
16859SOL    HW253470   0.709   8.888   5.613  0.7850  1.5566  2.8881
16860SOL     OW53471   7.180   5.815   7.798  0.1074 -0.3169  0.0939
16860SOL    HW153472   7.270   5.799   7.769  0.7029  1.0800  1.0720
16860SOL    HW253473   7.141   5.728   7.804  1.4279 -0.9575 -0.2385
16861SOL     OW53474   9.243   0.173   0.397 -0.6955  0.1719  0.4381
16861SOL    HW153475   9.202   0.172   0.484 -0.5220 -1.0700  0.5153
16861SOL    HW253476   9.187   0.116   0.344 -0.2305  0.1316 -0.0089
16862SOL     OW53477   7.204   7.114   3.459  0.4145 -0.2662  0.7224
16862SOL    HW153478   7.193   7.200   3.419  0.9984 -0.8914 -0.8864
16862SOL    HW253479   7.299   7.106   3.473  0.4923 -1.0202 -0.1078
16863SOL     OW53480   3.278   3.946   4.377 -0.0121 -0.1681  0.1983
16863SOL    HW153481   3.281   4.040   4.360  1.2417 -0.3255 -0.6453
16863SOL    HW253482   3.369   3.922   4.395 -0.1622 -1.3538 -0.4840
16864SOL     OW53483   7.085   6.959   8.157 -0.2444  0.4514  0.2383
16864SOL    HW153484   7.054   7.015   8.228  0.4934  0.0908  0.8577
16864SOL    HW253485   7.005   6.932   8.111 -0.5750  2.7584 -0.6842
16865SOL     OW53486   8.511   8.937   6.672 -0.4770  0.0658 -0.0068
16865SOL    HW153487   8.451   8.891   6.612 -0.8421  0.0560  0.3579
16865SOL    HW253488   8.486   8.906   6.759 -0.2172  0.3812  0.1820
16866SOL     OW53489   1.826   7.421   3.712  0.5102  0.2137 -0.5482
16866SOL    HW153490   1.856   7.493   3.767  2.4093  0.0494 -1.2816
16866SOL    HW253491   1.731   7.422   3.719  0.5689  2.0640  0.3502
16867SOL     OW53492   4.033   5.451   7.382 -0.1755  0.5291 -0.0514
16867SOL    HW153493   4.038   5.516   7.452 -0.2661  0.1539  0.3115
16867SOL    HW253494   3.947   5.466   7.341 -0.3835  0.3564  0.3150
16868SOL     OW53495   1.252   0.306   6.866  0.1922  0.4147  0.1151
16868SOL    HW153496   1.231   0.230   6.812 -2.2877  1.7396 -0.9567
16868SOL    HW253497   1.235   0.278   6.956  0.0297 -0.5065 -0.1984
16869SOL     OW53498   7.230   7.279   2.591  0.0841  0.2949 -0.1967
16869SOL    HW153499   7.209   7.196   2.634  0.2623  0.1575 -0.3698
16869SOL    HW253500   7.179   7.277   2.510  2.2348 -0.9692 -1.6360
16870SOL     OW53501   5.107   2.825   4.889 -0.0885  0.2443  0.4106
16870SOL    HW153502   5.183   2.882   4.878  1.9232 -2.4171 -0.6833
16870SOL    HW253503   5.120   2.785   4.975 -0.0241 -0.4637  0.0816
16871SOL     OW53504   8.397   0.455   7.301 -0.1625  0.2305  0.0762
16871SOL    HW153505   8.434   0.503   7.227 -3.4084  1.5360 -0.8703
16871SOL    HW253506   8.419   0.509   7.377  0.7564  0.4018 -0.2949
16872SOL     OW53507   1.401   8.994   7.825 -0.1878  0.0016  0.1847
16872SOL    HW153508   1.415   8.915   7.772  2.7087 -0.1704  1.0131
16872SOL    HW253509   1.333   9.042   7.778 -1.2131 -2.3877 -0.9948
16873SOL     OW53510   7.892   8.122   8.339 -0.8426  0.2428  0.0403
16873SOL    HW153511   7.926   8.118   8.250 -2.0003  1.9197 -0.5338
16873SOL    HW253512   7.798   8.110   8.329 -1.0426  0.9513  0.9671
16874SOL     OW53513   2.633   7.212   8.322 -0.3184 -0.1113 -0.1152
16874SOL    HW153514   2.665   7.143   8.380 -0.7609 -0.3025 -0.0940
16874SOL    HW253515   2.543   7.228   8.351 -0.4349  0.0159 -0.5378
16875SOL     OW53516   3.463   6.410   8.869  0.1305  0.4007 -0.4140
16875SOL    HW153517   3.522   6.463   8.814 -0.3070 -1.2173 -2.5769
16875SOL    HW253518   3.429   6.343   8.809  0.3101 -2.0612  2.0606
16876SOL     OW53519   1.550   8.519   1.004  0.0513  0.7904  0.1589
16876SOL    HW153520   1.601   8.571   0.942 -0.0156  0.6076 -0.0477
16876SOL    HW253521   1.575   8.429   0.987 -1.5983  0.5253 -1.1294
16877SOL     OW53522   4.098   0.979   8.559 -0.3099 -0.2537  0.4159
16877SOL    HW153523   4.162   0.912   8.584 -0.0707 -0.6013 -1.0655
16877SOL    HW253524   4.120   1.000   8.469  0.2976  2.6186  1.1270
16878SOL     OW53525   7.560   0.490   7.882  0.4711 -0.2639 -0.1300
16878SOL    HW153526   7.504   0.471   7.806 -1.1549 -0.4904  1.0785
16878SOL    HW253527   7.607   0.407   7.898 -0.2290 -0.6494 -0.0432
16879SOL     OW53528   4.605   5.847   7.288 -0.7770 -0.1414  0.3389
16879SOL    HW153529   4.680   5.874   7.234 -0.1204  1.7562  2.0735
16879SOL    HW253530   4.573   5.767   7.246  0.0084  0.9168 -2.5193
16880SOL     OW53531   2.350   4.257   9.256  0.0969  0.3914 -0.5635
16880SOL    HW153532   2.298   4.225   9.329 -0.2545 -2.0262 -1.7733
16880SOL    HW253533   2.438   4.223   9.272  0.1659  0.3784 -0.9625
16881SOL     OW53534   4.686   3.793   0.429  0.1675 -0.4630 -0.7439
16881SOL    HW153535   4.780   3.813   0.434  0.0270 -0.0837  1.5808
16881SOL    HW253536   4.643   3.872   0.461 -0.8695 -1.1301 -0.4363
16882SOL     OW53537   2.256   6.935   7.111 -0.3730 -0.3415  0.3971
16882SOL    HW153538   2.215   6.852   7.134 -2.3186 -0.0325 -1.6618
16882SOL    HW253539   2.186   6.987   7.070  1.0424  1.9048  0.6323
16883SOL     OW53540   7.108   4.685   3.870  0.1974  0.4234 -0.6471
16883SOL    HW153541   7.058   4.665   3.791 -0.2021 -0.8746 -0.0893
16883SOL    HW253542   7.181   4.739   3.840  1.7725 -2.4540 -2.4325
16884SOL     OW53543   9.210   3.973   4.266  0.0266  0.2648 -0.3035
16884SOL    HW153544   9.199   3.889   4.312  1.4812 -0.4839 -1.2345
16884SOL    HW253545   9.292   4.009   4.301  0.0201  0.7289 -0.7569
16885SOL     OW53546   4.301   0.786   1.200  0.4102 -0.1050 -0.4853
16885SOL    HW153547   4.392   0.759   1.194  1.1898  1.6521  1.9296
16885SOL    HW253548   4.277   0.812   1.112  2.0395 -1.0984 -1.2668
16886SOL     OW53549   4.061   8.731   7.170  0.1454 -0.6451 -0.0430
16886SOL    HW153550   3.995   8.778   7.118 -0.2462  0.9974  1.8094
16886SOL    HW253551   4.142   8.740   7.120 -0.2719  0.6452 -0.5445
16887SOL     OW53552   8.312   7.777   8.740 -0.0900  0.0144  0.1611
16887SOL    HW153553   8.225   7.816   8.740  0.0686  0.3869 -0.3002
16887SOL    HW253554   8.302   7.693   8.784 -0.8439 -0.3073 -0.6072
16888SOL     OW53555   1.037   2.524   6.046 -0.7270 -0.0365 -0.1509
16888SOL    HW153556   1.024   2.615   6.019 -1.2363 -0.4457 -1.3953
16888SOL    HW253557   1.016   2.473   5.967 -0.5358 -1.2331  0.5481
16889SOL     OW53558   2.543   6.187   8.406 -0.0438 -0.1625 -0.4332
16889SOL    HW153559   2.522   6.151   8.319  0.5039 -0.3880 -0.4819
16889SOL    HW253560   2.472   6.157   8.462 -0.9164  0.7788 -0.9903
16890SOL     OW53561   7.079   5.220   1.581 -0.3021  0.2940  0.6049
16890SOL    HW153562   7.018   5.214   1.654 -1.3368 -0.2779 -0.2854
16890SOL    HW253563   7.025   5.244   1.506  0.6479  0.2860 -0.1013
16891SOL     OW53564   8.671   6.146   4.101 -0.5095 -0.0599  0.1134
16891SOL    HW153565   8.638   6.058   4.118 -0.7777 -0.1934 -1.0014
16891SOL    HW253566   8.716   6.171   4.182 -1.7619 -0.5940  1.0034
16892SOL     OW53567   0.132   8.211   1.745 -0.2817  0.6417  0.2496
16892SOL    HW153568   0.099   8.221   1.655 -0.3717  0.1277  0.2223
16892SOL    HW253569   0.058   8.173   1.793 -0.5814  1.8570  0.7812
16893SOL     OW53570   8.605   2.697   2.688 -0.1094  0.0921  0.2405
16893SOL    HW153571   8.668   2.708   2.617  0.4699 -1.1295  0.5489
16893SOL    HW253572   8.530   2.654   2.647 -0.1902  0.2955  0.1698
16894SOL     OW53573   1.897   3.298   1.178  0.7769 -0.0996 -0.8290
16894SOL    HW153574   1.904   3.255   1.264 -0.5599  0.6366 -0.3110
16894SOL    HW253575   1.922   3.388   1.194 -0.0652  0.1876 -1.0615
16895SOL     OW53576   5.159   6.531   1.940  0.2043 -0.3085  0.2201
16895SOL    HW153577   5.201   6.617   1.934  0.1985 -0.1862  1.6143
16895SOL    HW253578   5.068   6.550   1.961 -0.0150 -0.6387 -0.4116
16896SOL     OW53579   6.983   5.001   3.825 -0.0723 -0.2964 -0.4017
16896SOL    HW153580   7.060   5.057   3.814  0.8437 -1.5085 -0.2907
16896SOL    HW253581   6.978   4.951   3.744  0.3029 -1.4750  0.2889
16897SOL     OW53582   2.250   1.887   5.187 -0.0900  0.4956  0.1467
16897SOL    HW153583   2.245   1.794   5.210 -1.0676  0.7920  1.2203
16897SOL    HW253584   2.160   1.918   5.193  0.3115  1.6605  0.4106
16898SOL     OW53585   0.666   7.324   8.281  0.1349 -0.1737 -0.3250
16898SOL    HW153586   0.702   7.309   8.368 -2.1076 -1.7228  0.4020
16898SOL    HW253587   0.630   7.413   8.285  0.1981 -0.1721  0.2488
16899SOL     OW53588   8.061   8.578   6.878 -0.6196  0.0833 -0.4605
16899SOL    HW153589   7.981   8.534   6.909 -0.5646  0.6319  0.4957
16899SOL    HW253590   8.057   8.665   6.918  0.3165  0.2142 -0.6373
16900SOL     OW53591   6.850   0.702   2.672 -0.8566 -0.0193 -0.0968
16900SOL    HW153592   6.945   0.694   2.677 -0.6954 -0.5018 -2.5776
16900SOL    HW253593   6.817   0.616   2.700 -0.5132 -0.2066 -0.2692
16901SOL     OW53594   7.300   6.431   0.240 -0.5018 -0.0213 -0.4863
16901SOL    HW153595   7.268   6.346   0.212 -1.5878  0.2329 -0.0693
16901SOL    HW253596   7.353   6.412   0.318  1.2288 -0.5493 -1.7394
16902SOL     OW53597   6.099   2.682   7.330  0.4669 -0.1912  0.3837
16902SOL    HW153598   6.194   2.675   7.343  0.6710 -0.9166 -1.1999
16902SOL    HW253599   6.077   2.770   7.360  1.7859  0.2715  0.0647
16903SOL     OW53600   6.370   8.237   0.829  0.8289  0.0630  0.5891
16903SOL    HW153601   6.296   8.277   0.782  1.8441  0.1205 -1.0533
16903SOL    HW253602   6.366   8.144   0.807  1.7770  0.2175 -0.3156
16904SOL     OW53603   0.410   3.429   3.595 -0.3291 -0.3710  0.3205
16904SOL    HW153604   0.495   3.467   3.573  0.0562 -0.9087  0.8589
16904SOL    HW253605   0.354   3.505   3.611 -0.1550 -0.0025 -0.7543
16905SOL     OW53606   6.444   5.823   3.718 -0.2157  0.2331  0.1649
16905SOL    HW153607   6.354   5.841   3.745  0.2551  0.6295  1.5549
16905SOL    HW253608   6.436   5.783   3.631 -1.6275  1.9054 -0.5355
16906SOL     OW53609   8.904   3.728   9.253 -0.4490  0.5107  0.0432
16906SOL    HW153610   8.833   3.711   9.315  0.6025 -0.1462  1.1117
16906SOL    HW253611   8.860   3.753   9.172 -1.8959 -0.2955  0.5508
16907SOL     OW53612   1.290   2.966   6.462 -0.0879 -0.2719 -0.2377
16907SOL    HW153613   1.222   2.924   6.515 -0.7342 -1.1171 -1.7059
16907SOL    HW253614   1.347   2.895   6.434 -0.5803 -0.0616 -1.8574
16908SOL     OW53615   7.888   6.334   3.697 -0.3078  0.2654 -0.2205
16908SOL    HW153616   7.833   6.285   3.635 -0.1327 -0.3161  0.0712
16908SOL    HW253617   7.849   6.421   3.700 -1.3069 -0.1693  0.0743
16909SOL     OW53618   6.305   1.757   5.957 -0.1262  0.3137  0.3150
16909SOL    HW153619   6.343   1.842   5.932 -2.0691  1.5662  1.3427
16909SOL    HW253620   6.268   1.772   6.043  0.2871 -1.9037  0.9329
16910SOL     OW53621   5.625   0.578   6.178  0.8294 -0.4646 -0.2798
16910SOL    HW153622   5.535   0.610   6.166 -0.0118 -2.7719 -0.5509
16910SOL    HW253623   5.680   0.650   6.147 -0.9322  0.7829 -0.6517
16911SOL     OW53624   8.094   0.150   0.431 -0.2697  0.3771 -0.1583
16911SOL    HW153625   8.021   0.204   0.463 -0.4233 -1.3287  2.7266
16911SOL    HW253626   8.172   0.194   0.464 -0.2201  0.2398 -0.0947
16912SOL     OW53627   6.770   2.065   0.907 -0.3984 -0.1312  0.2557
16912SOL    HW153628   6.794   2.150   0.945  1.0994  0.3674 -1.6779
16912SOL    HW253629   6.684   2.079   0.870 -0.4497  0.3380  0.5365
16913SOL     OW53630   8.794   0.239   2.485 -0.0337 -0.2268 -0.3574
16913SOL    HW153631   8.731   0.201   2.423 -0.3191 -0.5117  0.0953
16913SOL    HW253632   8.845   0.164   2.515 -0.2880 -0.1837  0.1917
16914SOL     OW53633   7.378   1.960   2.094 -0.0199  1.1552  0.3218
16914SOL    HW153634   7.306   2.018   2.118 -0.3798  1.4742 -1.3986
16914SOL    HW253635   7.439   2.015   2.045  1.2175  0.7913  1.3886
16915SOL     OW53636   4.383   3.666   5.439  0.4325  0.0448 -0.3454
16915SOL    HW153637   4.387   3.643   5.532  0.7384 -1.2894 -0.6563
16915SOL    HW253638   4.295   3.702   5.427 -0.2427 -1.3696  0.1332
16916SOL     OW53639   6.379   7.451   0.524 -0.0359 -0.3621  0.3973
16916SOL    HW153640   6.302   7.461   0.467  0.3458 -1.3271 -0.3217
16916SOL    HW253641   6.354   7.385   0.588  0.6557 -1.7739 -0.7338
16917SOL     OW53642   2.527   6.578   4.761 -0.1565 -0.3194  1.0821
16917SOL    HW153643   2.556   6.534   4.841  0.0063 -0.8005  0.7626
16917SOL    HW253644   2.521   6.671   4.786  1.2506 -0.2574  1.2752
16918SOL     OW53645   4.810   4.541   3.577 -0.0984  0.0945  0.5534
16918SOL    HW153646   4.870   4.476   3.539  1.8603  0.4316  2.7836
16918SOL    HW253647   4.839   4.624   3.542 -2.1525 -0.0578 -1.7427
16919SOL     OW53648   3.213   3.131   4.983 -0.4275  0.0775  0.6224
16919SOL    HW153649   3.132   3.115   5.032 -1.1248  0.2078 -0.4479
16919SOL    HW253650   3.219   3.226   4.977 -1.2027  0.0585 -0.8735
16920SOL     OW53651   4.010   8.245   5.432  0.6807 -0.2510  0.0507
16920SOL    HW153652   3.923   8.209   5.449  0.2535  0.2923 -0.9248
16920SOL    HW253653   4.070   8.186   5.479 -0.1931 -0.6793  0.6553
16921SOL     OW53654   4.648   2.953   8.084  0.3670 -0.1914 -0.3825
16921SOL    HW153655   4.573   2.977   8.138 -0.1295  1.3083 -1.6694
16921SOL    HW253656   4.625   2.867   8.047 -0.8868  0.3994 -1.0176
16922SOL     OW53657   3.398   4.219   3.485 -0.6145 -0.1652  0.5905
16922SOL    HW153658   3.412   4.312   3.504  0.0776 -0.1391  0.0127
16922SOL    HW253659   3.335   4.190   3.551  0.6007  0.2617  2.0041
16923SOL     OW53660   3.173   5.025   3.753  0.1684  0.5233  0.0325
16923SOL    HW153661   3.185   5.117   3.779 -1.9287  1.1825 -1.1474
16923SOL    HW253662   3.222   4.976   3.819  0.4408  2.4287  1.3512
16924SOL     OW53663   3.567   6.676   3.289  0.3507 -0.0204  0.1354
16924SOL    HW153664   3.610   6.759   3.266 -0.8213  0.5751  0.0020
16924SOL    HW253665   3.637   6.623   3.329  1.3205  0.6941 -0.5651
16925SOL     OW53666   2.671   3.496   6.315  0.1565 -0.2874 -0.4199
16925SOL    HW153667   2.649   3.588   6.300 -0.8981 -0.6213 -1.0066
16925SOL    HW253668   2.613   3.469   6.386 -1.7443 -1.2919 -2.2584
16926SOL     OW53669   3.388   4.677   8.604  0.0821  0.4160 -0.5211
16926SOL    HW153670   3.437   4.717   8.676 -0.4946 -0.6804  0.5423
16926SOL    HW253671   3.364   4.590   8.638  0.1291 -0.2858 -2.2030
16927SOL     OW53672   4.007   2.776   2.076 -0.0091  0.3191 -0.2630
16927SOL    HW153673   4.067   2.837   2.119  0.1664  0.5676 -0.8487
16927SOL    HW253674   3.928   2.778   2.131  0.2703  0.4974  0.1386
16928SOL     OW53675   5.420   2.011   1.330 -0.0800 -0.1953 -0.2457
16928SOL    HW153676   5.362   1.937   1.316 -1.5915  1.0869 -1.0650
16928SOL    HW253677   5.442   2.042   1.242 -1.5466  1.8428  0.0232
16929SOL     OW53678   2.973   8.977   0.801 -0.3223 -0.6515 -0.7139
16929SOL    HW153679   2.978   8.884   0.823 -0.3885 -0.6331 -0.6187
16929SOL    HW253680   2.989   8.980   0.706  1.9995 -0.5439 -0.3744
16930SOL     OW53681   7.105   3.121   3.269 -0.0372  0.2103  0.1555
16930SOL    HW153682   7.016   3.142   3.239  0.0708 -0.4022 -0.6237
16930SOL    HW253683   7.091   3.077   3.353 -0.4627  0.2798  0.1268
16931SOL     OW53684   1.821   0.826   4.677 -0.7980 -0.3566 -0.4299
16931SOL    HW153685   1.764   0.866   4.742  0.0409  2.2220 -1.1724
16931SOL    HW253686   1.803   0.732   4.684 -1.8826 -0.0369  2.3800
16932SOL     OW53687   0.300   4.119   4.970  0.1268 -0.0703  0.2118
16932SOL    HW153688   0.295   4.157   5.058  0.8624 -0.5412  0.4647
16932SOL    HW253689   0.216   4.075   4.958  0.2577 -0.5253  0.9250
16933SOL     OW53690   4.049   2.292   7.869 -0.3499 -0.3680  0.1122
16933SOL    HW153691   3.999   2.215   7.843 -1.4765  0.7292 -1.0982
16933SOL    HW253692   4.129   2.288   7.816 -0.9835 -0.0667 -0.9015
16934SOL     OW53693   6.417   4.593   7.414  0.0656  0.0354 -0.1630
16934SOL    HW153694   6.385   4.582   7.325 -0.6736 -0.1363  0.1173
16934SOL    HW253695   6.380   4.676   7.443  1.8295  1.0306 -0.6511
16935SOL     OW53696   0.250   6.347   2.952 -0.7791 -0.4448  0.3645
16935SOL    HW153697   0.179   6.371   3.011 -0.1396  0.1415  0.9049
16935SOL    HW253698   0.288   6.431   2.925 -0.5702 -0.7380 -0.2703
16936SOL     OW53699   8.506   2.210   3.570  0.0270  0.3291  0.8607
16936SOL    HW153700   8.424   2.172   3.539  0.2580 -0.1974  0.8927
16936SOL    HW253701   8.540   2.258   3.495  0.2555 -0.3977  0.4874
16937SOL     OW53702   8.688   1.657   1.475  0.5012 -0.0956 -0.7165
16937SOL    HW153703   8.678   1.577   1.526 -0.1831  0.0175 -0.6620
16937SOL    HW253704   8.712   1.628   1.387 -1.5486 -0.4622 -1.1829
16938SOL     OW53705   6.226   7.219   6.937  0.1308  0.2826 -0.6501
16938SOL    HW153706   6.251   7.296   6.988  1.8567  0.4291 -1.6627
16938SOL    HW253707   6.303   7.162   6.938  0.0253  0.0223 -2.5797
16939SOL     OW53708   6.105   2.175   3.847 -0.7867  0.3156 -0.0035
16939SOL    HW153709   6.098   2.119   3.923  1.7407 -0.5536 -0.3135
16939SOL    HW253710   6.116   2.115   3.773 -0.5685  1.1685 -0.6923
16940SOL     OW53711   5.200   0.281   3.511  0.1543 -0.0350 -0.6098
16940SOL    HW153712   5.134   0.350   3.505  0.1130 -0.1693 -1.8879
16940SOL    HW253713   5.182   0.238   3.595 -0.6805  0.6307 -0.4370
16941SOL     OW53714   6.631   2.978   3.502 -0.0854  0.0838 -0.7931
16941SOL    HW153715   6.612   2.927   3.581 -0.0273  1.6073  0.2339
16941SOL    HW253716   6.664   2.913   3.439 -0.5225 -1.2202  0.2801
16942SOL     OW53717   5.789   4.261   6.012 -0.3965 -0.1181 -0.0515
16942SOL    HW153718   5.839   4.293   6.088  1.6278  1.1663 -1.7808
16942SOL    HW253719   5.845   4.194   5.973 -1.1516 -0.3773 -0.7155
16943SOL     OW53720   5.501   6.823   3.331 -0.4184 -0.0742  0.6774
16943SOL    HW153721   5.576   6.870   3.295 -1.5059 -0.2162 -2.0643
16943SOL    HW253722   5.502   6.844   3.424  2.7255  0.2804  0.6991
16944SOL     OW53723   3.651   6.752   2.407  0.7137  0.0006 -0.5085
16944SOL    HW153724   3.651   6.659   2.385 -0.8883  0.2198 -1.5939
16944SOL    HW253725   3.667   6.796   2.323 -1.9270  0.7768 -0.6767
16945SOL     OW53726   3.784   1.769   0.894  0.2868 -0.4143 -0.0654
16945SOL    HW153727   3.842   1.709   0.846 -1.9141 -0.9225 -2.2657
16945SOL    HW253728   3.780   1.732   0.982  1.5467 -1.6035 -0.4662
16946SOL     OW53729   7.263   3.336   1.615  0.3209 -0.2205  0.3762
16946SOL    HW153730   7.323   3.324   1.541 -0.4208 -0.8210 -0.1497
16946SOL    HW253731   7.319   3.360   1.688  1.0853  0.3035 -0.3589
16947SOL     OW53732   6.568   1.598   2.167 -0.5059 -0.3405 -0.0414
16947SOL    HW153733   6.599   1.508   2.180 -0.2119 -0.3686 -0.8847
16947SOL    HW253734   6.634   1.652   2.211 -0.7784 -0.5314  0.6275
16948SOL     OW53735   6.227   4.809   7.793  0.0473 -0.1776  0.2735
16948SOL    HW153736   6.207   4.762   7.875 -1.6360  0.1123  0.0600
16948SOL    HW253737   6.167   4.771   7.729 -0.3453  1.2751 -0.2474
16949SOL     OW53738   4.910   2.847   2.668 -0.2904 -0.3210  0.5480
16949SOL    HW153739   4.930   2.754   2.678  2.6189  0.2798  0.9868
16949SOL    HW253740   4.975   2.880   2.606 -1.5146  1.3713  0.0803
16950SOL     OW53741   3.569   8.496   6.134  0.1972 -0.1178 -0.3885
16950SOL    HW153742   3.508   8.535   6.197  0.6561  0.1477 -0.1047
16950SOL    HW253743   3.584   8.566   6.070  1.0769  0.2172  0.1590
16951SOL     OW53744   8.336   1.315   8.190  0.4561 -0.5012 -0.0464
16951SOL    HW153745   8.426   1.295   8.163 -0.3154 -1.4735 -2.1348
16951SOL    HW253746   8.289   1.232   8.181 -0.8945  0.2349 -0.0978
16952SOL     OW53747   9.008   0.676   7.760  0.2336  0.1495 -0.2787
16952SOL    HW153748   8.958   0.726   7.696 -0.4537 -1.1923 -0.8266
16952SOL    HW253749   8.968   0.589   7.759  0.5101 -0.0420  1.6364
16953SOL     OW53750   7.965   9.003   4.938 -0.5146 -0.3819  0.2445
16953SOL    HW153751   7.947   9.010   4.844  2.7472  1.7573 -0.3858
16953SOL    HW253752   7.915   9.074   4.978 -0.4326 -0.0862 -0.1728
16954SOL     OW53753   7.493   7.569   8.378  0.3125 -0.0880 -0.1683
16954SOL    HW153754   7.440   7.600   8.451  0.3468 -0.6261  0.0910
16954SOL    HW253755   7.485   7.473   8.381 -3.4082 -0.1261 -3.5653
16955SOL     OW53756   2.894   0.967   4.312  0.7194 -0.3733 -0.5448
16955SOL    HW153757   2.891   0.920   4.395  0.2523 -1.2885 -1.0640
16955SOL    HW253758   2.836   1.042   4.325  1.2030 -0.1222  0.1855
16956SOL     OW53759   7.430   6.000   7.572  0.3377  0.1270  0.2461
16956SOL    HW153760   7.520   5.968   7.561  0.6996  1.2640 -0.2895
16956SOL    HW253761   7.439   6.096   7.570 -0.9233  0.2507 -0.1339
16957SOL     OW53762   6.050   5.094   5.052  0.0883  0.1083  0.4985
16957SOL    HW153763   5.999   5.157   5.000 -0.8425  0.1301  1.4093
16957SOL    HW253764   5.986   5.030   5.081  0.8679 -0.7374  0.3804
16958SOL     OW53765   1.843   4.308   5.194  0.7581 -0.3006  0.5548
16958SOL    HW153766   1.753   4.295   5.223 -0.3203  2.6027 -1.1233
16958SOL    HW253767   1.835   4.332   5.102  3.0741  1.7386  0.7847
16959SOL     OW53768   5.611   2.067   6.738 -0.6981 -0.1200  0.4997
16959SOL    HW153769   5.635   2.159   6.735  1.5747 -0.6785 -1.0430
16959SOL    HW253770   5.677   2.027   6.796 -0.5470 -1.0406 -0.2827
16960SOL     OW53771   0.856   1.806   0.102  0.0992 -0.0954 -0.2903
16960SOL    HW153772   0.773   1.846   0.126  0.5463  1.0868 -0.6446
16960SOL    HW253773   0.890   1.861   0.032  0.8371 -0.9908 -0.6561
16961SOL     OW53774   2.550   2.258   4.110 -0.4019 -0.3893  0.5820
16961SOL    HW153775   2.487   2.280   4.041  1.1415  2.2580 -0.1160
16961SOL    HW253776   2.496   2.239   4.186 -2.0885  0.1395 -0.4204
16962SOL     OW53777   1.339   5.933   0.423 -0.1651 -0.2310 -0.4037
16962SOL    HW153778   1.254   5.950   0.382 -0.9819 -0.3741  1.1656
16962SOL    HW253779   1.330   5.965   0.512  0.6845 -2.1784  0.4514
16963SOL     OW53780   0.316   2.383   5.518  0.5215  0.1079 -1.2325
16963SOL    HW153781   0.303   2.459   5.461 -0.1122 -0.2897 -1.6348
16963SOL    HW253782   0.411   2.375   5.527  0.5933  1.4244 -0.5236
16964SOL     OW53783   1.348   2.926   1.704 -0.2673  0.5491  0.2324
16964SOL    HW153784   1.271   2.873   1.725 -1.3769  1.9916 -0.0320
16964SOL    HW253785   1.420   2.863   1.699 -1.3952 -0.8212  0.6211
16965SOL     OW53786   0.647   4.465   3.138 -0.3660  0.1762  0.3537
16965SOL    HW153787   0.668   4.531   3.204  0.3033 -1.3434  1.7154
16965SOL    HW253788   0.683   4.384   3.172  0.2482 -0.6480 -2.0338
16966SOL     OW53789   8.552   2.306   8.709 -0.0104  0.4267 -0.3757
16966SOL    HW153790   8.595   2.335   8.790 -0.2889  1.9292 -0.7288
16966SOL    HW253791   8.595   2.357   8.640  0.4202 -1.0486 -1.2290
16967SOL     OW53792   8.148   8.660   4.776  0.2692  0.1368 -0.6866
16967SOL    HW153793   8.105   8.583   4.741 -1.1583  1.0652 -1.0373
16967SOL    HW253794   8.214   8.625   4.836 -1.0148 -1.3421 -0.0653
16968SOL     OW53795   0.505   3.755   6.781  0.7044  0.6170  0.0693
16968SOL    HW153796   0.547   3.669   6.772  2.7851  1.4417  1.0823
16968SOL    HW253797   0.578   3.815   6.795 -0.7499  2.4619  0.1028
16969SOL     OW53798   2.054   3.009   0.161 -0.0008 -0.1498 -0.1123
16969SOL    HW153799   2.042   2.978   0.251 -0.2397 -0.7820 -0.3563
16969SOL    HW253800   2.080   3.101   0.171  0.1337 -0.2563  0.6065
16970SOL     OW53801   2.973   6.028   7.145 -0.0613 -0.1255  0.1932
16970SOL    HW153802   3.061   6.055   7.120 -0.5523  1.0012 -0.3470
16970SOL    HW253803   2.956   6.075   7.227 -1.2683  2.0127 -1.2201
16971SOL     OW53804   5.282   4.262   6.101 -0.1467 -0.4633  0.8438
16971SOL    HW153805   5.294   4.357   6.091 -2.4958 -0.0183  1.6199
16971SOL    HW253806   5.339   4.238   6.174  1.9316 -0.0682 -0.5544
16972SOL     OW53807   8.157   2.726   3.925  0.0438 -0.5693 -0.0376
16972SOL    HW153808   8.091   2.760   3.864 -2.7602 -3.3123  1.1913
16972SOL    HW253809   8.131   2.761   4.010 -0.5262 -2.4801  0.6181
16973SOL     OW53810   9.020   4.480   1.236 -0.7449  0.0228 -0.4148
16973SOL    HW153811   9.019   4.433   1.319 -0.7621  0.6392 -0.0557
16973SOL    HW253812   8.929   4.478   1.205 -0.6879 -0.4381 -0.5547
16974SOL     OW53813   6.467   1.431   0.638  0.1038 -0.3684 -0.4180
16974SOL    HW153814   6.398   1.477   0.684  1.2859  1.6277 -0.5264
16974SOL    HW253815   6.499   1.494   0.574 -0.1176 -2.3527 -2.6221
16975SOL     OW53816   5.192   3.842   2.812 -0.2213  0.7255  0.3698
16975SOL    HW153817   5.097   3.835   2.820 -0.1249 -1.3492  0.3881
16975SOL    HW253818   5.208   3.850   2.719 -0.4191  1.1028  0.3688
16976SOL     OW53819   4.130   3.403   2.297 -0.0438 -0.3234  0.0690
16976SOL    HW153820   4.135   3.469   2.227  1.0427 -0.7354 -0.2680
16976SOL    HW253821   4.049   3.424   2.344 -0.2509  0.6115 -0.6655
16977SOL     OW53822   7.339   4.665   2.448 -0.5169 -0.1577  0.4817
16977SOL    HW153823   7.425   4.636   2.477  0.1271  0.5255 -0.6877
16977SOL    HW253824   7.344   4.761   2.447 -1.1076 -0.1216 -0.1174
16978SOL     OW53825   8.748   7.019   0.237  0.2216 -0.3247  0.0249
16978SOL    HW153826   8.674   6.986   0.188  0.3019  1.6056 -1.5052
16978SOL    HW253827   8.814   7.040   0.171  2.0592 -1.6575  1.3030
16979SOL     OW53828   2.878   2.701   8.437  0.1650 -0.4441 -0.2558
16979SOL    HW153829   2.915   2.617   8.464 -0.3337 -1.6266 -2.8785
16979SOL    HW253830   2.945   2.741   8.383 -0.1123  0.2132 -0.1183
16980SOL     OW53831   7.983   2.975   1.583 -0.6564 -0.1508 -0.0436
16980SOL    HW153832   7.932   2.902   1.549 -0.5898  1.3467 -3.7916
16980SOL    HW253833   8.069   2.938   1.602 -0.4339 -1.0329 -2.4545
16981SOL     OW53834   5.649   5.080   3.315  0.1934 -0.0053 -0.7038
16981SOL    HW153835   5.623   5.163   3.276 -1.3481 -0.0751  0.0831
16981SOL    HW253836   5.744   5.085   3.323  0.0881  1.8710 -0.2459
16982SOL     OW53837   4.371   1.697   4.396 -0.4095  0.2522  0.4510
16982SOL    HW153838   4.277   1.712   4.391 -0.3491  0.4256 -0.2448
16982SOL    HW253839   4.392   1.644   4.319  0.0347  0.0565  0.6980
16983SOL     OW53840   2.153   2.673   7.374  0.1542  0.2731  0.6619
16983SOL    HW153841   2.125   2.582   7.366  1.3627 -0.1968  1.4261
16983SOL    HW253842   2.095   2.722   7.316 -0.6935 -0.9435  0.4542
16984SOL     OW53843   6.173   0.160   5.131  0.0082 -0.7394 -0.2571
16984SOL    HW153844   6.154   0.173   5.038 -0.8300 -1.2179 -0.1636
16984SOL    HW253845   6.088   0.138   5.170  0.1667  0.3549  0.7919
16985SOL     OW53846   3.376   4.623   0.266 -0.0715  0.5246 -0.3711
16985SOL    HW153847   3.283   4.625   0.243 -0.6629 -0.6207  1.6513
16985SOL    HW253848   3.414   4.560   0.206 -0.8734  0.0759 -0.4326
16986SOL     OW53849   3.136   8.282   2.670  0.4165 -0.1363  0.2547
16986SOL    HW153850   3.183   8.199   2.673 -0.6882 -0.7554  0.8407
16986SOL    HW253851   3.079   8.280   2.747 -2.9862 -0.8727 -2.1132
16987SOL     OW53852   6.995   0.702   1.526  0.2090 -0.3155 -0.3659
16987SOL    HW153853   7.072   0.754   1.550  2.8887 -3.5689 -1.1068
16987SOL    HW253854   7.004   0.688   1.432 -0.1107 -2.4209 -0.1297
16988SOL     OW53855   3.767   4.589   6.476  0.5492  0.1113  0.5093
16988SOL    HW153856   3.858   4.580   6.503  0.9205 -0.8729 -0.9560
16988SOL    HW253857   3.724   4.509   6.508  0.5106 -0.0527  0.0541
16989SOL     OW53858   4.659   9.254   6.310  0.0563  0.0600  0.6253
16989SOL    HW153859   4.698   9.337   6.337  1.8761 -0.8646  1.0194
16989SOL    HW253860   4.572   9.254   6.352  0.0056  1.7448  0.5956
16990SOL     OW53861   4.921   6.948   1.089  0.5095  0.5225 -0.2059
16990SOL    HW153862   4.847   7.005   1.070 -0.2919  0.2735  1.9314
16990SOL    HW253863   4.947   6.969   1.179  0.0041 -2.5752  0.8085
16991SOL     OW53864   5.478   9.072   3.196 -0.3685 -0.1077  0.4549
16991SOL    HW153865   5.563   9.117   3.190 -0.3293 -0.3174 -0.7628
16991SOL    HW253866   5.487   9.015   3.272 -0.3035  1.6686  1.8661
16992SOL     OW53867   6.705   9.252   1.840  0.2498 -0.2512  0.1831
16992SOL    HW153868   6.797   9.226   1.832  0.5180  0.9420 -1.0358
16992SOL    HW253869   6.682   9.283   1.752 -0.7553  1.2212  0.9335
16993SOL     OW53870   1.076   8.882   0.442 -0.3510  0.1189  0.1253
16993SOL    HW153871   1.089   8.886   0.537 -1.1399  0.2561  0.2362
16993SOL    HW253872   1.158   8.847   0.408  0.3483  1.0838  0.7572
16994SOL     OW53873   7.002   0.147   5.746 -0.2775 -0.8764 -0.1132
16994SOL    HW153874   6.992   0.134   5.840 -2.4984 -1.4010 -0.3692
16994SOL    HW253875   6.959   0.231   5.729 -0.0933 -0.8984 -0.6839
16995SOL     OW53876   3.452   1.311   7.694  0.0888  0.7303 -0.5312
16995SOL    HW153877   3.465   1.368   7.618  0.4698  1.0277 -0.2465
16995SOL    HW253878   3.358   1.315   7.711  0.0130  0.7328 -0.9307
16996SOL     OW53879   4.146   2.388   4.289 -0.2119  0.1214 -0.3351
16996SOL    HW153880   4.194   2.308   4.268  0.2546  0.2110  0.3617
16996SOL    HW253881   4.189   2.422   4.368 -2.1079 -0.3947  0.9835
16997SOL     OW53882   6.863   4.748   5.533 -0.5482  0.6832 -0.6575
16997SOL    HW153883   6.790   4.808   5.516  0.0078  1.5678  0.0473
16997SOL    HW253884   6.938   4.788   5.488 -0.4873 -0.2589 -1.4404
16998SOL     OW53885   6.864   1.078   3.737  0.0351 -0.4186  0.0183
16998SOL    HW153886   6.909   1.070   3.821  0.0929 -0.6049 -0.0303
16998SOL    HW253887   6.882   0.996   3.692 -1.1832 -0.9158  0.3989
16999SOL     OW53888   4.513   7.425   2.145  0.8679 -0.2812 -0.2757
16999SOL    HW153889   4.517   7.491   2.215  0.0448 -0.0486 -0.4391
16999SOL    HW253890   4.603   7.394   2.137  1.4535  1.3785 -0.7202
17000SOL     OW53891   2.072   6.710   7.249  0.1363 -0.5345  0.6086
17000SOL    HW153892   2.004   6.725   7.183 -0.5322  1.1040  1.6078
17000SOL    HW253893   2.125   6.639   7.213 -0.7823 -0.3509 -1.2218
17001SOL     OW53894   0.825   8.581   2.127  0.4422  0.0391 -0.1084
17001SOL    HW153895   0.861   8.543   2.207  1.3558  1.5605  0.2275
17001SOL    HW253896   0.732   8.595   2.147  0.3909 -0.7366  0.2270
17002SOL     OW53897   5.581   5.260   0.759 -0.4291  0.3306 -0.3628
17002SOL    HW153898   5.521   5.297   0.695 -0.4812  0.2620 -0.3538
17002SOL    HW253899   5.567   5.311   0.839  0.5436  1.2708 -0.7610
17003SOL     OW53900   3.353   8.601   1.817  0.2872  0.1004 -0.0582
17003SOL    HW153901   3.315   8.679   1.779  1.8248  0.6670 -0.5214
17003SOL    HW253902   3.416   8.570   1.752  2.6103  0.7994  1.6801
17004SOL     OW53903   1.643   1.251   1.763  0.5739  0.3190  0.3815
17004SOL    HW153904   1.607   1.236   1.850  3.0912  0.2099  1.4669
17004SOL    HW253905   1.692   1.333   1.770  0.7030  0.3885 -0.9727
17005SOL     OW53906   4.462   3.627   4.380 -0.3833 -0.2452  0.1360
17005SOL    HW153907   4.378   3.606   4.422 -0.4149 -2.1306 -0.7626
17005SOL    HW253908   4.514   3.547   4.389  0.5715  0.2074 -1.0930
17006SOL     OW53909   8.738   5.345   4.621 -0.0905 -0.0064 -0.0383
17006SOL    HW153910   8.780   5.400   4.555  1.3266  0.7272  1.3984
17006SOL    HW253911   8.676   5.291   4.572  1.5993 -0.2115 -2.1041
17007SOL     OW53912   7.504   0.093   2.419  0.1853 -0.1642 -0.1568
17007SOL    HW153913   7.414   0.065   2.438 -0.6351  1.7818 -0.8849
17007SOL    HW253914   7.502   0.188   2.433  1.5312  0.2441 -2.3908
17008SOL     OW53915   5.828   9.025   8.840 -0.8030 -0.2381 -0.4889
17008SOL    HW153916   5.911   9.065   8.815 -0.6333  0.2432  0.7847
17008SOL    HW253917   5.761   9.089   8.818 -0.6444  0.2251  0.3328
17009SOL     OW53918   7.641   6.255   6.557  0.5467 -0.2998  0.0988
17009SOL    HW153919   7.631   6.213   6.642 -1.3847  0.9577  0.5471
17009SOL    HW253920   7.569   6.318   6.552 -0.0626 -1.0831 -2.9367
17010SOL     OW53921   2.243   6.473   9.242  0.4351  0.0111  0.0901
17010SOL    HW153922   2.295   6.462   9.322  0.1342  1.5612  0.5291
17010SOL    HW253923   2.152   6.472   9.272  0.3266  0.7432 -0.2125
17011SOL     OW53924   2.670   7.554   8.260 -0.1943  0.0471  0.0064
17011SOL    HW153925   2.578   7.527   8.255 -0.8082  2.1037 -0.8155
17011SOL    HW253926   2.705   7.533   8.173 -0.0775 -0.0675  0.0808
17012SOL     OW53927   1.244   1.466   7.890 -0.4488 -0.2095 -0.3393
17012SOL    HW153928   1.182   1.525   7.932 -0.8670 -0.1409 -1.0483
17012SOL    HW253929   1.224   1.380   7.927 -1.9328 -0.4472 -1.5862
17013SOL     OW53930   6.905   5.621   3.743  0.3114 -0.4245 -0.0963
17013SOL    HW153931   6.940   5.563   3.675 -0.9752 -1.8780  0.4143
17013SOL    HW253932   6.813   5.597   3.750 -0.1891  1.4700  0.4123
17014SOL     OW53933   6.169   1.343   5.279  0.0502 -0.5779 -0.1310
17014SOL    HW153934   6.086   1.312   5.242 -1.4894  2.7551  0.1980
17014SOL    HW253935   6.172   1.304   5.366 -2.3331  0.8453  0.6833
17015SOL     OW53936   2.369   1.970   8.321  0.1322  0.1761 -0.0319
17015SOL    HW153937   2.324   1.890   8.346  0.8938  0.5878  3.0116
17015SOL    HW253938   2.389   1.958   8.228 -0.9819 -2.5193 -0.0133
17016SOL     OW53939   1.414   1.133   4.580 -0.1695  0.3516  0.1825
17016SOL    HW153940   1.385   1.139   4.671 -1.4819  1.8512 -0.2907
17016SOL    HW253941   1.362   1.198   4.534 -0.6673 -1.4659 -1.9702
17017SOL     OW53942   0.252   4.481   0.386  0.5264  0.3418  0.7999
17017SOL    HW153943   0.295   4.453   0.305 -0.3610  0.2959  0.3224
17017SOL    HW253944   0.221   4.400   0.426 -2.6952  0.5417 -0.9567
17018SOL     OW53945   2.020   2.331   5.158 -0.1012  0.1425 -0.9555
17018SOL    HW153946   1.925   2.337   5.157 -0.1244 -0.1570 -1.7242
17018SOL    HW253947   2.044   2.324   5.250 -0.7415  1.4722 -0.6766
17019SOL     OW53948   5.980   5.876   0.456  0.1035 -0.0898 -0.2965
17019SOL    HW153949   5.889   5.849   0.465  0.0305  0.2001 -0.1275
17019SOL    HW253950   5.978   5.971   0.468  0.5763 -0.2004  0.8965
17020SOL     OW53951   0.565   1.664   4.921  1.0582 -0.4382  0.3144
17020SOL    HW153952   0.560   1.632   4.831 -0.6621 -1.6130  0.7868
17020SOL    HW253953   0.533   1.592   4.975 -0.4735  1.1435  1.6412
17021SOL     OW53954   2.989   7.218   2.528 -0.5022 -0.0879 -0.1881
17021SOL    HW153955   3.059   7.170   2.573 -0.2457  1.1808  0.8060
17021SOL    HW253956   2.954   7.278   2.594 -0.9192  0.9809 -1.3422
17022SOL     OW53957   3.746   5.092   9.069  0.2038 -0.4227  0.0949
17022SOL    HW153958   3.653   5.089   9.089 -0.2698  1.7523 -1.4549
17022SOL    HW253959   3.751   5.080   8.974  1.4343  0.1905  0.0632
17023SOL     OW53960   4.109   4.182   7.744  0.0590  0.2387  0.0643
17023SOL    HW153961   4.096   4.252   7.681 -0.8990 -0.6260 -0.7311
17023SOL    HW253962   4.037   4.192   7.807 -0.5336 -0.4778 -0.4870
17024SOL     OW53963   6.496   5.698   5.145 -0.1980 -0.4269 -0.0759
17024SOL    HW153964   6.570   5.640   5.164 -0.6826 -1.6864 -1.8273
17024SOL    HW253965   6.533   5.786   5.156  1.0189 -1.0157  0.9582
17025SOL     OW53966   8.916   3.965   2.461 -0.2029  0.0854 -0.3269
17025SOL    HW153967   8.839   4.007   2.423 -0.1941  0.2087 -0.2092
17025SOL    HW253968   8.888   3.938   2.548 -0.2701 -0.3291 -0.4726
17026SOL     OW53969   6.933   3.789   5.933 -0.5496 -0.8041 -0.2766
17026SOL    HW153970   6.973   3.738   5.861 -2.1803 -0.6733 -1.3391
17026SOL    HW253971   6.863   3.732   5.965  0.5057 -1.1005  1.6612
17027SOL     OW53972   1.836   8.540   4.946  0.1159  0.3625 -0.1554
17027SOL    HW153973   1.819   8.466   4.888 -0.5545  0.0209  0.4652
17027SOL    HW253974   1.751   8.583   4.956 -0.0247 -0.2734  1.5139
17028SOL     OW53975   2.713   2.217   2.188  0.2224 -0.1272 -0.0948
17028SOL    HW153976   2.776   2.242   2.256  1.1240 -0.9475 -0.5935
17028SOL    HW253977   2.750   2.137   2.151 -0.2874  0.2614 -1.4943
17029SOL     OW53978   7.793   7.411   7.644  0.1887 -0.4794  0.4684
17029SOL    HW153979   7.846   7.340   7.681 -1.6947 -1.3965  1.5998
17029SOL    HW253980   7.810   7.486   7.701  0.7912 -0.5651  0.4001
17030SOL     OW53981   8.072   3.842   2.454  0.9554 -0.1100 -0.1340
17030SOL    HW153982   8.134   3.799   2.512  1.7727  0.2159 -0.7454
17030SOL    HW253983   8.025   3.903   2.510 -0.0954 -1.6250  0.7126
17031SOL     OW53984   7.436   8.548   8.009 -0.4292 -0.2430 -0.2368
17031SOL    HW153985   7.517   8.541   8.059 -0.8399 -1.5667  0.2754
17031SOL    HW253986   7.393   8.626   8.044  0.5764  0.4281 -0.4669
17032SOL     OW53987   5.920   5.683   8.277  0.3027 -0.5574  0.6711
17032SOL    HW153988   5.936   5.735   8.198 -1.4460 -0.0528  0.6060
17032SOL    HW253989   5.903   5.747   8.346  0.6785 -1.0112  1.1975
17033SOL     OW53990   1.713   4.717   5.669  0.0840 -0.0478  0.1990
17033SOL    HW153991   1.704   4.795   5.724 -0.0747  1.5241 -1.9193
17033SOL    HW253992   1.802   4.686   5.684 -0.0374  0.1738  1.4923
17034SOL     OW53993   2.367   3.697   7.165  0.2799  0.3976 -0.2747
17034SOL    HW153994   2.313   3.662   7.094 -0.3448  1.3514 -0.2922
17034SOL    HW253995   2.457   3.671   7.142 -0.0679 -0.4627 -0.7002
17035SOL     OW53996   5.384   4.500   6.042 -0.3020  0.5247  0.5196
17035SOL    HW153997   5.460   4.471   5.991  0.1766  0.7304  1.1004
17035SOL    HW253998   5.333   4.553   5.980  1.6061  3.0013  0.8927
17036SOL     OW53999   6.501   1.908   7.472 -0.0978 -0.0128 -0.2546
17036SOL    HW154000   6.444   1.850   7.522  0.7971 -0.0830  0.7190
17036SOL    HW254001   6.568   1.850   7.435 -0.1228  0.1900 -0.6253
17037SOL     OW54002   0.392   4.383   0.171 -0.1724  0.3232 -0.0606
17037SOL    HW154003   0.460   4.400   0.105 -1.6628 -1.8588 -2.3591
17037SOL    HW254004   0.353   4.300   0.144 -3.7962  1.4679  1.0863
17038SOL     OW54005   1.772   2.274   8.543  0.2858  0.7107  0.1717
17038SOL    HW154006   1.709   2.203   8.538  0.3778  0.6602 -0.3035
17038SOL    HW254007   1.742   2.338   8.479  0.8725  0.5584 -0.2654
17039SOL     OW54008   5.608   7.667   3.007 -0.7333  0.0326  0.1000
17039SOL    HW154009   5.664   7.610   2.953 -0.0721 -1.4735  2.2283
17039SOL    HW254010   5.537   7.609   3.035 -0.7433  0.6088  1.2885
17040SOL     OW54011   5.936   7.870   1.928 -0.1479  0.2365  0.1017
17040SOL    HW154012   5.871   7.939   1.915 -0.3510  0.1209  0.4827
17040SOL    HW254013   5.893   7.806   1.985  0.2460  0.0875  0.2419
17041SOL     OW54014   0.991   3.730   4.821 -0.7060  0.3644 -0.1331
17041SOL    HW154015   0.913   3.786   4.825  0.2941  1.7825  0.5045
17041SOL    HW254016   1.012   3.711   4.912  0.1521  0.6944 -0.2465
17042SOL     OW54017   4.553   5.388   7.987 -0.1879  0.2668 -0.7940
17042SOL    HW154018   4.458   5.383   7.998 -0.0584  0.5745  0.8226
17042SOL    HW254019   4.566   5.391   7.893 -1.7650 -0.0778 -1.0646
17043SOL     OW54020   0.518   4.021   5.862  0.2750  0.3405  0.8044
17043SOL    HW154021   0.600   4.044   5.820 -0.1060  1.4172  0.6283
17043SOL    HW254022   0.451   4.064   5.810 -0.7524 -2.9884 -0.9515
17044SOL     OW54023   8.620   5.483   1.139 -0.6011  0.2198 -0.1022
17044SOL    HW154024   8.542   5.447   1.098  0.4880 -0.8271 -1.3408
17044SOL    HW254025   8.663   5.532   1.069 -0.0468  0.6273  0.5150
17045SOL     OW54026   9.063   8.362   6.986  0.5371  0.2193 -0.3165
17045SOL    HW154027   8.998   8.418   7.029  0.9936  0.4460  0.0829
17045SOL    HW254028   9.026   8.345   6.899 -1.5835 -2.1904  0.9131
17046SOL     OW54029   5.643   7.369   5.228  0.0731 -0.0608 -0.1771
17046SOL    HW154030   5.555   7.407   5.227  0.1145  0.1234  1.4375
17046SOL    HW254031   5.632   7.281   5.191 -0.7394  0.0408 -0.1875
17047SOL     OW54032   5.218   5.376   0.704  0.2873  0.0998  0.3519
17047SOL    HW154033   5.149   5.349   0.644 -0.3191 -1.2317  1.5609
17047SOL    HW254034   5.176   5.439   0.763  0.2172 -0.3392  0.7826
17048SOL     OW54035   8.224   5.706   8.673 -0.1007 -0.1854  0.1488
17048SOL    HW154036   8.168   5.680   8.599  0.5878  1.6529 -1.0804
17048SOL    HW254037   8.163   5.727   8.743 -0.7817 -1.6758  0.0528
17049SOL     OW54038   5.979   2.038   2.878  0.4210 -0.5412  0.3202
17049SOL    HW154039   5.919   2.054   2.950  0.6538 -1.5648  0.7722
17049SOL    HW254040   6.036   2.115   2.875  0.9374 -0.8403  1.7767
17050SOL     OW54041   5.207   1.697   2.094 -0.4455  0.1704  0.3298
17050SOL    HW154042   5.287   1.715   2.046 -0.3656 -0.6291  0.1387
17050SOL    HW254043   5.234   1.687   2.185 -0.2293 -0.6935  0.1778
17051SOL     OW54044   5.547   8.087   5.036 -0.0819 -0.0715 -0.2077
17051SOL    HW154045   5.482   8.101   5.105  1.4800 -0.2588  1.3792
17051SOL    HW254046   5.605   8.163   5.043  1.4854 -1.2635  0.3483
17052SOL     OW54047   6.524   0.697   6.427  0.2917  1.3618  0.2044
17052SOL    HW154048   6.544   0.603   6.430 -3.2994  0.3916 -1.0739
17052SOL    HW254049   6.470   0.713   6.504  0.8211  2.3804  0.3746
17053SOL     OW54050   5.477   7.329   4.849 -0.1593 -0.2359  0.1870
17053SOL    HW154051   5.546   7.264   4.855 -0.4779 -0.5453  0.5862
17053SOL    HW254052   5.492   7.373   4.766 -0.2309 -1.1593 -0.3244
17054SOL     OW54053   5.131   6.255   3.468  0.3610 -0.6377  0.4232
17054SOL    HW154054   5.103   6.293   3.551  2.0602 -2.2660  1.8284
17054SOL    HW254055   5.222   6.282   3.459  0.5399 -1.4457 -0.3020
17055SOL     OW54056   8.402   4.691   2.972  0.0676  0.3104 -0.1650
17055SOL    HW154057   8.402   4.786   2.985 -0.8362  0.8690 -3.4079
17055SOL    HW254058   8.494   4.669   2.958  0.1709  0.9271 -0.5255
17056SOL     OW54059   3.619   4.393   6.882  0.2290 -0.1443  0.1186
17056SOL    HW154060   3.569   4.461   6.927  0.2529 -0.6579  0.9317
17056SOL    HW254061   3.680   4.361   6.948 -0.1909 -1.3686 -0.0683
17057SOL     OW54062   3.687   3.259   7.325  0.7258 -0.2696 -1.0309
17057SOL    HW154063   3.608   3.309   7.305  0.1926 -0.1409  1.1208
17057SOL    HW254064   3.657   3.192   7.388  2.4331  0.2884  0.4440
17058SOL     OW54065   4.384   3.078   3.902 -0.9695 -1.1128  0.1189
17058SOL    HW154066   4.385   3.156   3.957 -2.7558 -0.6182 -0.4781
17058SOL    HW254067   4.470   3.076   3.860 -0.5510 -0.0239  0.9034
17059SOL     OW54068   4.520   7.557   7.772 -0.2810 -0.1948 -0.0947
17059SOL    HW154069   4.578   7.633   7.759  0.9885 -0.8790  1.1834
17059SOL    HW254070   4.445   7.592   7.820  1.5488 -0.0968  2.9601
17060SOL     OW54071   5.645   7.365   7.888 -0.4252  0.2645  0.2829
17060SOL    HW154072   5.644   7.410   7.973  1.5547  0.3331  0.3064
17060SOL    HW254073   5.737   7.344   7.873 -0.5536  1.2743 -2.4095
17061SOL     OW54074   5.759   0.002   0.186 -0.2925 -0.0476 -0.1387
17061SOL    HW154075   5.715  -0.061   0.129 -3.1125  1.1804  0.5196
17061SOL    HW254076   5.702   0.010   0.262  0.9353  1.9177  0.6563
17062SOL     OW54077   2.807   3.464   4.711  0.0322  0.1262  0.1056
17062SOL    HW154078   2.892   3.493   4.681  0.2247 -0.9663 -0.4840
17062SOL    HW254079   2.752   3.542   4.708  0.8936  0.7438  0.0695
17063SOL     OW54080   4.473   6.462   6.473 -0.0152  0.4272 -0.1988
17063SOL    HW154081   4.548   6.410   6.445 -0.2153  0.6216 -1.1400
17063SOL    HW254082   4.502   6.553   6.465  0.4734  0.4973  1.8265
17064SOL     OW54083   2.198   1.246   4.175  0.1056  0.2578  0.3693
17064SOL    HW154084   2.109   1.211   4.175 -0.4922  1.7140  1.2007
17064SOL    HW254085   2.219   1.257   4.082 -0.6256  0.0331  0.1684
17065SOL     OW54086   3.689   0.387   2.951  0.1790 -0.8962 -0.2874
17065SOL    HW154087   3.708   0.447   2.879  0.9596  1.2686  1.5757
17065SOL    HW254088   3.760   0.322   2.947  0.6232 -0.3838 -1.0375
17066SOL     OW54089   7.660   7.954   6.448  0.6605  0.1453  0.1550
17066SOL    HW154090   7.637   7.894   6.519 -2.6999  1.2509  0.1599
17066SOL    HW254091   7.692   8.033   6.492 -0.2262  0.3639  0.4324
17067SOL     OW54092   1.619   0.152   8.076  0.1128 -0.2361 -0.1758
17067SOL    HW154093   1.634   0.210   8.151 -0.3726  1.7558 -1.5170
17067SOL    HW254094   1.670   0.191   8.005  0.4486 -1.9836 -0.9400
17068SOL     OW54095   0.198   1.316   2.305  0.1706  0.1475  0.1691
17068SOL    HW154096   0.165   1.284   2.389 -0.5503  0.7820  0.1425
17068SOL    HW254097   0.152   1.264   2.239  1.0235 -0.6202  0.1544
17069SOL     OW54098   3.122   8.217   3.710 -0.1856  0.3147  0.0072
17069SOL    HW154099   3.218   8.215   3.709 -0.1886  0.2048 -0.0853
17069SOL    HW254100   3.098   8.168   3.788 -0.1771 -0.0871 -0.2394
17070SOL     OW54101   2.188   0.983   6.125 -0.1933 -0.1106 -0.4843
17070SOL    HW154102   2.126   0.913   6.107  1.5935 -1.1845 -3.0805
17070SOL    HW254103   2.227   1.003   6.040  1.2335  2.2759  0.6058
17071SOL     OW54104   5.429   8.518   2.395  0.0560  0.0201 -0.5076
17071SOL    HW154105   5.523   8.526   2.415 -0.0852 -0.9366  0.6575
17071SOL    HW254106   5.388   8.501   2.480 -1.0237 -0.8169 -1.1714
17072SOL     OW54107   1.226   7.263   2.980  0.3195 -0.0377 -0.5579
17072SOL    HW154108   1.262   7.228   2.898  2.1587  0.5438 -0.0460
17072SOL    HW254109   1.192   7.350   2.956  0.1065 -0.1982 -0.8536
17073SOL     OW54110   0.652   5.635   4.497 -0.4349  0.3294  0.2731
17073SOL    HW154111   0.653   5.545   4.529  0.8066  0.5099  0.7859
17073SOL    HW254112   0.648   5.626   4.401 -1.0613 -0.2519  0.3471
17074SOL     OW54113   7.209   4.260   3.648  0.0761  0.1484  0.3120
17074SOL    HW154114   7.192   4.216   3.565  0.0726  0.9581 -0.1223
17074SOL    HW254115   7.166   4.345   3.640 -1.5810 -0.4725  1.8740
17075SOL     OW54116   8.447   3.795   3.423  0.2221  0.1886  0.1548
17075SOL    HW154117   8.379   3.795   3.355 -1.4252  2.3185  1.6567
17075SOL    HW254118   8.402   3.762   3.501  0.6883  2.0698  1.2936
17076SOL     OW54119   2.137   2.013   2.872 -0.2836 -0.5913 -0.2484
17076SOL    HW154120   2.119   2.022   2.966 -1.5172  0.1482 -0.5272
17076SOL    HW254121   2.183   2.094   2.849 -1.3215 -0.0709 -0.5562
17077SOL     OW54122   2.949   3.693   6.113 -0.0359 -0.5146 -0.2634
17077SOL    HW154123   2.988   3.747   6.044  0.0102 -0.1827  0.0188
17077SOL    HW254124   2.882   3.749   6.152  0.0770 -0.6284  0.0946
17078SOL     OW54125   7.860   5.050   9.036  0.3023 -0.2427  0.3785
17078SOL    HW154126   7.933   5.015   8.985  2.6700  4.3474  0.2048
17078SOL    HW254127   7.838   4.979   9.097  2.9580 -2.8486 -1.4038
17079SOL     OW54128   8.227   8.583   8.216 -0.3074  0.2231 -0.1190
17079SOL    HW154129   8.233   8.499   8.261 -1.6621  0.3613  0.3854
17079SOL    HW254130   8.215   8.647   8.287  2.2247  1.0752 -0.3748
17080SOL     OW54131   8.258   6.783   3.594  0.3726 -0.2256 -0.1750
17080SOL    HW154132   8.335   6.796   3.539 -1.4182  1.4742 -2.5036
17080SOL    HW254133   8.199   6.729   3.541 -1.5752  1.7908 -0.2142
17081SOL     OW54134   1.079   6.565   8.690 -0.1661 -0.4028  0.6636
17081SOL    HW154135   1.082   6.631   8.620  0.9489 -0.7259  0.3874
17081SOL    HW254136   1.008   6.507   8.665 -0.0820 -0.2471  0.0350
17082SOL     OW54137   5.692   9.206   5.917  0.2627  0.1614  0.5226
17082SOL    HW154138   5.644   9.240   5.992  0.2682 -2.8877  2.0653
17082SOL    HW254139   5.784   9.219   5.939  0.2522 -0.2994  0.8628
17083SOL     OW54140   5.835   5.163   4.562 -0.3165  0.4460 -0.6509
17083SOL    HW154141   5.903   5.126   4.505  0.0551  0.0707  0.0290
17083SOL    HW254142   5.867   5.148   4.651 -0.4973  1.7796 -0.3415
17084SOL     OW54143   5.558   6.852   6.883  0.2882  0.2041 -0.5445
17084SOL    HW154144   5.508   6.810   6.812  0.7362 -0.1485 -0.6529
17084SOL    HW254145   5.495   6.859   6.955 -0.8792  2.6815 -1.7090
17085SOL     OW54146   0.055   1.123   1.179  0.1086 -0.5664  0.2567
17085SOL    HW154147  -0.033   1.095   1.205 -1.3366  0.7270 -2.7945
17085SOL    HW254148   0.099   1.042   1.152 -0.4499 -1.0970  0.8961
17086SOL     OW54149   1.359   5.022   4.636  0.0130  0.6377  0.0740
17086SOL    HW154150   1.420   5.073   4.690 -0.5290 -0.3111  1.6625
17086SOL    HW254151   1.369   4.932   4.668 -1.9554  0.4037  0.1682
17087SOL     OW54152   0.399   5.873   6.417 -0.2437 -0.2068  0.0348
17087SOL    HW154153   0.459   5.819   6.365 -2.0320 -1.9011 -0.3892
17087SOL    HW254154   0.397   5.957   6.373  0.6490 -0.6066 -0.8065
17088SOL     OW54155   1.806   3.337   4.726  0.3293  0.3937  0.0992
17088SOL    HW154156   1.868   3.288   4.780  1.3238  0.0757 -1.2598
17088SOL    HW254157   1.817   3.300   4.638 -2.4664 -0.2778 -0.0390
17089SOL     OW54158   4.520   7.390   1.877 -0.0489 -0.1138 -0.1732
17089SOL    HW154159   4.518   7.418   1.968  0.2116 -0.0312 -0.1901
17089SOL    HW254160   4.539   7.296   1.881  2.6030  0.3334 -0.1831
17090SOL     OW54161   4.820   6.671   3.198  0.0730 -0.0237  0.1064
17090SOL    HW154162   4.807   6.735   3.127  2.6740 -0.2251 -0.6313
17090SOL    HW254163   4.894   6.618   3.170  0.6527 -0.6738  2.6066
17091SOL     OW54164   2.248   4.411   3.162 -0.6192 -0.3918  0.1193
17091SOL    HW154165   2.153   4.409   3.176 -0.4551  0.1828  1.4653
17091SOL    HW254166   2.276   4.321   3.179 -0.9710 -0.6631 -0.7063
17092SOL     OW54167   0.343   2.681   8.212 -0.2137 -0.0338  0.4313
17092SOL    HW154168   0.370   2.749   8.150  0.1788 -0.1705  0.4454
17092SOL    HW254169   0.349   2.723   8.297  1.1493 -0.4031  0.5476
17093SOL     OW54170   5.369   0.080   1.426  0.2544 -0.1699  1.2663
17093SOL    HW154171   5.298   0.142   1.440  0.9703  0.7310  1.0108
17093SOL    HW254172   5.400   0.058   1.514 -1.1054 -1.5202  1.4509
17094SOL     OW54173   4.265   5.970   0.512 -0.4228 -0.0181  0.0281
17094SOL    HW154174   4.314   6.046   0.544 -0.9268  0.3165  0.0247
17094SOL    HW254175   4.183   6.007   0.480 -0.3118 -0.4606 -0.7884
17095SOL     OW54176   2.830   7.737   1.786 -0.2826 -0.4295  0.0877
17095SOL    HW154177   2.882   7.667   1.826 -0.6614 -0.3276  0.7767
17095SOL    HW254178   2.809   7.795   1.859 -1.0899 -0.2959 -0.2490
17096SOL     OW54179   3.122   0.306   1.947 -0.1037 -0.4119 -0.2288
17096SOL    HW154180   3.086   0.309   2.036 -0.6939 -1.3292 -0.4175
17096SOL    HW254181   3.104   0.393   1.911  0.2202 -0.0048  0.5716
17097SOL     OW54182   8.899   5.268   1.953 -0.2114 -0.2504 -0.2897
17097SOL    HW154183   8.920   5.216   1.876  1.2307  0.0148 -0.1063
17097SOL    HW254184   8.805   5.259   1.963  0.0677 -3.7894  0.4272
17098SOL     OW54185   7.624   3.162   3.502 -0.3007 -0.4424  0.1367
17098SOL    HW154186   7.567   3.093   3.468 -0.6694  0.5477 -1.3754
17098SOL    HW254187   7.711   3.123   3.506 -0.8350 -1.5712  1.1929
17099SOL     OW54188   9.118   0.394   8.624 -0.2698  0.3590 -0.0472
17099SOL    HW154189   9.197   0.395   8.570 -0.3753  0.7777 -0.1997
17099SOL    HW254190   9.090   0.303   8.625  0.8267  0.0121  0.8996
17100SOL     OW54191   3.386   1.037   1.537 -0.1817  0.0765  0.1911
17100SOL    HW154192   3.378   0.985   1.457 -0.8070  1.6481 -0.8047
17100SOL    HW254193   3.371   0.975   1.608  2.0948 -1.7387 -0.7875
17101SOL     OW54194   3.061   7.092   3.744 -0.0096  0.2652 -0.2403
17101SOL    HW154195   3.011   7.109   3.824 -0.6530  1.5996 -0.9092
17101SOL    HW254196   3.108   7.174   3.727 -0.6597  0.3424 -1.7821
17102SOL     OW54197   6.158   5.248   1.176 -0.2610 -0.1264  0.1678
17102SOL    HW154198   6.180   5.167   1.129 -0.2516  0.1141 -0.2463
17102SOL    HW254199   6.084   5.224   1.232 -1.8292  0.1668 -1.7130
17103SOL     OW54200   5.104   8.542   2.808 -0.4870  0.2256 -0.1395
17103SOL    HW154201   5.083   8.465   2.755 -0.1969 -0.0296  0.1132
17103SOL    HW254202   5.178   8.514   2.862 -0.6141  0.5679  0.2131
17104SOL     OW54203   3.305   5.349   8.743 -0.4223 -0.0146  0.1141
17104SOL    HW154204   3.391   5.361   8.702 -0.6660 -0.6488 -0.6130
17104SOL    HW254205   3.243   5.385   8.680 -0.6683  0.7997  0.8166
17105SOL     OW54206   6.013   0.265   4.898 -0.6472  0.1592  0.0146
17105SOL    HW154207   5.962   0.346   4.889 -0.1780  0.4411 -0.1864
17105SOL    HW254208   6.031   0.239   4.807 -0.3023  0.1527  0.0823
17106SOL     OW54209   4.517   4.886   1.504  0.0282 -0.4044  0.0330
17106SOL    HW154210   4.609   4.879   1.479  0.3197  4.6119 -1.3023
17106SOL    HW254211   4.474   4.924   1.428 -1.9827  2.4156  2.3731
17107SOL     OW54212   1.673   3.760   7.415  0.3499 -0.2439  0.8090
17107SOL    HW154213   1.599   3.804   7.457 -0.2781  0.2862 -0.7672
17107SOL    HW254214   1.745   3.769   7.478 -0.0659  2.0492  1.0592
17108SOL     OW54215   0.392   8.589   5.927  0.2454 -0.4187  0.1992
17108SOL    HW154216   0.487   8.579   5.920  0.6256  0.8544  2.5035
17108SOL    HW254217   0.360   8.501   5.947  1.1752 -0.5796  1.0806
17109SOL     OW54218   1.565   0.369   6.149 -0.1198  0.4967 -0.3438
17109SOL    HW154219   1.509   0.412   6.214  0.0042  1.6593 -0.9767
17109SOL    HW254220   1.609   0.299   6.198 -0.2002  1.2071  0.7750
17110SOL     OW54221   2.624   1.365   8.063  0.0027  0.2048  0.0509
17110SOL    HW154222   2.686   1.312   8.112  0.4233 -1.4311 -2.0672
17110SOL    HW254223   2.675   1.401   7.990 -0.8833  1.3547 -0.0399
17111SOL     OW54224   7.311   5.759   6.281  0.3546  0.3857 -0.3459
17111SOL    HW154225   7.261   5.810   6.217 -0.1297  1.7403  1.0373
17111SOL    HW254226   7.251   5.691   6.310 -0.6762  1.8235  1.0879
17112SOL     OW54227   6.125   6.224   6.219 -0.4222 -0.2903  0.3455
17112SOL    HW154228   6.161   6.185   6.140 -0.4312 -1.5703  0.9449
17112SOL    HW254229   6.194   6.212   6.285 -0.9452 -0.4796  0.8670
17113SOL     OW54230   0.174   2.955   3.900 -0.0369 -0.5334  0.3556
17113SOL    HW154231   0.244   2.939   3.963 -0.7974  0.1399  1.4116
17113SOL    HW254232   0.163   3.050   3.901  0.9487 -0.3410 -1.9530
17114SOL     OW54233   3.522   5.543   4.652  0.4174  0.6090  0.3853
17114SOL    HW154234   3.529   5.450   4.676  4.8013  0.3962 -0.8765
17114SOL    HW254235   3.550   5.590   4.730  0.6719  0.7319  0.2185
17115SOL     OW54236   4.825   0.091   6.046  0.4158  0.1482  0.0310
17115SOL    HW154237   4.781   0.176   6.051  2.2246  1.0558  2.6381
17115SOL    HW254238   4.892   0.102   5.979  2.6448  1.9502  2.3600
17116SOL     OW54239   2.539   3.698   2.834  0.0919 -0.0752 -0.6345
17116SOL    HW154240   2.586   3.756   2.774  1.5638 -1.9639 -1.3788
17116SOL    HW254241   2.509   3.626   2.780  0.3503 -1.1915  0.6649
17117SOL     OW54242   0.991   5.274   1.155  0.2416 -0.0294 -0.3313
17117SOL    HW154243   0.973   5.368   1.156  0.8246  0.0835  0.5412
17117SOL    HW254244   0.905   5.234   1.145 -0.1225  0.5775  0.2384
17118SOL     OW54245   7.489   2.541   1.308 -0.0926  0.6261 -0.5992
17118SOL    HW154246   7.498   2.504   1.221 -1.0391 -1.1438  0.0072
17118SOL    HW254247   7.400   2.577   1.310 -0.3960 -0.1283 -0.1028
17119SOL     OW54248   0.214   5.791   4.831 -0.2206  0.7738  0.1334
17119SOL    HW154249   0.174   5.705   4.821 -0.1518  0.4373  2.2010
17119SOL    HW254250   0.145   5.853   4.807 -0.3335  0.1659 -1.1702
17120SOL     OW54251   8.318   6.848   7.284  0.0049  0.1627  0.1822
17120SOL    HW154252   8.368   6.771   7.259  1.7959  0.7018  1.8657
17120SOL    HW254253   8.384   6.917   7.296 -1.3787  1.5344  0.2765
17121SOL     OW54254   0.932   7.304   4.390 -0.3057 -0.0722 -0.6811
17121SOL    HW154255   1.013   7.333   4.349  0.5871 -0.2370  0.8801
17121SOL    HW254256   0.898   7.237   4.330  0.3842  0.4276 -1.6608
17122SOL     OW54257   8.162   0.198   4.293  0.4355  0.4262  0.1913
17122SOL    HW154258   8.084   0.209   4.348 -0.6990  1.2045 -1.4955
17122SOL    HW254259   8.193   0.109   4.313 -1.8094 -0.5173 -0.1969
17123SOL     OW54260   4.798   9.051   4.248  0.1995  0.3954 -0.0049
17123SOL    HW154261   4.807   8.957   4.259  0.5189  0.5816  1.5144
17123SOL    HW254262   4.801   9.087   4.337  0.4880  1.8682 -0.5691
17124SOL     OW54263   1.684   5.753   2.387  0.3501  0.1249 -0.2475
17124SOL    HW154264   1.757   5.719   2.336  0.5958  1.2101 -0.6401
17124SOL    HW254265   1.627   5.677   2.401  0.8912 -0.4466 -1.0815
17125SOL     OW54266   8.700   8.979   6.260 -0.7790  0.2643 -0.1833
17125SOL    HW154267   8.641   8.904   6.254  1.5771 -1.5679 -2.7666
17125SOL    HW254268   8.769   8.951   6.321  0.5975 -0.1486 -1.8452
17126SOL     OW54269   4.072   6.858   3.830 -0.1576 -0.4532 -0.6836
17126SOL    HW154270   4.135   6.929   3.840 -0.8726 -0.0219  1.1489
17126SOL    HW254271   4.125   6.781   3.811  0.9259 -0.0994  0.7999
17127SOL     OW54272   5.331   0.676   3.870 -0.5268  0.0868 -0.6676
17127SOL    HW154273   5.282   0.636   3.942 -0.8814  1.5991 -0.0416
17127SOL    HW254274   5.314   0.770   3.878  3.0323  0.8284  0.0375
17128SOL     OW54275   8.683   0.773   1.142 -0.7428  0.2477  0.1679
17128SOL    HW154276   8.636   0.691   1.159  0.4744 -0.7114 -0.8681
17128SOL    HW254277   8.624   0.822   1.084 -0.5929 -0.8585 -0.9792
17129SOL     OW54278   4.213   8.359   4.682 -0.3025 -0.7447  0.6776
17129SOL    HW154279   4.183   8.296   4.617  1.3004  0.6363 -1.5152
17129SOL    HW254280   4.309   8.357   4.676 -0.1808  1.3584  1.0191
17130SOL     OW54281   4.400   1.507   5.771 -0.0210 -0.4965  0.2407
17130SOL    HW154282   4.484   1.487   5.814  0.8726 -0.6001 -1.4553
17130SOL    HW254283   4.346   1.429   5.787 -0.8320  0.5987  3.5835
17131SOL     OW54284   2.995   0.760   0.102  0.2761 -0.2370 -0.7968
17131SOL    HW154285   3.042   0.681   0.078 -0.7865 -1.5663  1.1708
17131SOL    HW254286   2.915   0.758   0.049  1.3040  0.8556 -2.5000
17132SOL     OW54287   9.101   6.573   2.089  0.6709 -0.0788 -0.0463
17132SOL    HW154288   9.106   6.488   2.045  0.4940  0.9749 -2.2412
17132SOL    HW254289   9.190   6.608   2.080  0.4844  0.3840 -0.0826
17133SOL     OW54290   6.806   0.213   4.503  0.1123 -0.0926 -0.1113
17133SOL    HW154291   6.773   0.210   4.413  2.2358 -0.0255 -0.9423
17133SOL    HW254292   6.879   0.275   4.499  2.0940 -2.2469  0.9982
17134SOL     OW54293   1.588   3.024   6.600 -0.2750  0.3277  0.5653
17134SOL    HW154294   1.502   3.056   6.572 -0.1033 -1.1781 -1.9880
17134SOL    HW254295   1.576   2.930   6.613  0.9280  0.1299  0.3758
17135SOL     OW54296   6.678   8.686   4.828  0.0954 -0.0703 -0.3585
17135SOL    HW154297   6.604   8.744   4.845 -1.1563 -1.2893 -1.4170
17135SOL    HW254298   6.704   8.706   4.739 -0.7868 -1.5321 -0.9868
17136SOL     OW54299   3.217   4.959   6.924  0.4704 -0.0708  0.2945
17136SOL    HW154300   3.257   5.046   6.925 -0.6820  0.4803  0.0239
17136SOL    HW254301   3.171   4.955   6.840  0.3641 -0.8751  0.3885
17137SOL     OW54302   3.358   8.121   8.400 -0.3521  0.2364 -0.5464
17137SOL    HW154303   3.350   8.120   8.305  0.3142 -1.3647 -0.6196
17137SOL    HW254304   3.282   8.171   8.430 -1.7057 -0.9220 -1.8515
17138SOL     OW54305   1.327   7.243   0.082 -0.3669 -0.1945  0.0450
17138SOL    HW154306   1.364   7.259  -0.005  0.9961  0.0403  0.6382
17138SOL    HW254307   1.271   7.167   0.071  0.0081 -0.3345 -0.9836
17139SOL     OW54308   1.128   5.085   3.582  0.4107 -0.1040  0.3126
17139SOL    HW154309   1.129   5.166   3.532  0.8757 -0.1082  0.3100
17139SOL    HW254310   1.156   5.018   3.519 -0.9998 -0.4498  0.0135
17140SOL     OW54311   6.631   4.896   4.788 -0.1094  0.0765 -0.6956
17140SOL    HW154312   6.714   4.909   4.834  0.0566 -1.0117 -0.6777
17140SOL    HW254313   6.646   4.822   4.730 -1.1033 -0.2252 -0.5927
17141SOL     OW54314   8.523   4.301   2.882  0.2823  1.1038  0.0972
17141SOL    HW154315   8.466   4.366   2.841  0.2697  0.8724 -0.2520
17141SOL    HW254316   8.484   4.217   2.860 -0.3236  1.0000  1.4619
17142SOL     OW54317   8.862   2.629   0.039 -0.8484 -0.4301  0.2728
17142SOL    HW154318   8.933   2.588   0.089 -1.2859 -0.7665  0.6204
17142SOL    HW254319   8.901   2.647  -0.046 -0.2125 -0.2091  0.6016
17143SOL     OW54320   6.765   0.213   8.953 -0.0875 -0.1969  0.0915
17143SOL    HW154321   6.821   0.283   8.919  1.0324 -0.3964  1.4326
17143SOL    HW254322   6.810   0.132   8.928 -0.5525 -0.4076 -0.0809
17144SOL     OW54323   2.731   7.432   5.512 -0.1253  0.3523  0.0635
17144SOL    HW154324   2.737   7.423   5.607 -0.6542 -2.0693 -0.0712
17144SOL    HW254325   2.646   7.473   5.497  0.5271  1.9860  0.6463
17145SOL     OW54326   7.794   2.393   3.524 -0.2395  0.1609 -0.3677
17145SOL    HW154327   7.757   2.475   3.493 -3.1331 -0.5695  0.7371
17145SOL    HW254328   7.788   2.399   3.620  2.6455 -0.0609 -0.1068
17146SOL     OW54329   3.765   7.428   5.814  0.3200  0.2418  0.4674
17146SOL    HW154330   3.836   7.384   5.769  0.0745  0.8873 -0.5955
17146SOL    HW254331   3.690   7.369   5.805  0.1484  0.5716 -0.4194
17147SOL     OW54332   1.980   1.214   3.939 -0.4849  0.2027  0.0624
17147SOL    HW154333   2.056   1.156   3.929 -2.0015 -1.7083 -1.1744
17147SOL    HW254334   1.986   1.273   3.864 -0.0830  0.2467  0.1252
17148SOL     OW54335   1.038   1.955   7.890 -0.3971 -0.0970 -1.0576
17148SOL    HW154336   1.082   2.009   7.824 -0.6130 -0.4430 -1.4928
17148SOL    HW254337   1.042   1.867   7.854  0.4146 -0.4587 -0.1065
17149SOL     OW54338   6.501   6.082   3.705  0.4866  0.2812 -0.4359
17149SOL    HW154339   6.498   6.086   3.609 -1.9338  0.5057 -0.4194
17149SOL    HW254340   6.490   5.989   3.725  0.7343  0.2647 -0.3796
17150SOL     OW54341   7.289   0.997   7.370 -0.7834 -0.1887 -0.0504
17150SOL    HW154342   7.301   0.979   7.277 -0.4583 -2.3540  0.3680
17150SOL    HW254343   7.352   1.066   7.389 -0.9580  0.3884 -1.4524
17151SOL     OW54344   3.587   8.295   4.860 -0.1022 -0.0289 -0.0404
17151SOL    HW154345   3.512   8.279   4.917 -2.0530  0.3817 -2.3047
17151SOL    HW254346   3.629   8.373   4.897 -0.6018 -0.4347  1.4425
17152SOL     OW54347   7.492   4.525   4.279  0.2732  0.1366 -0.6012
17152SOL    HW154348   7.479   4.557   4.369 -1.3781  0.5218 -0.9324
17152SOL    HW254349   7.550   4.590   4.239 -1.5244  1.7842 -0.7005
17153SOL     OW54350   0.195   0.262   0.796 -0.5955 -0.3808  0.3551
17153SOL    HW154351   0.123   0.203   0.822 -0.1886 -0.8924  0.3432
17153SOL    HW254352   0.206   0.244   0.702 -2.1183  1.5158 -0.2452
17154SOL     OW54353   4.255   8.723   5.235  0.1780 -0.1350 -0.8617
17154SOL    HW154354   4.242   8.815   5.259 -0.9553 -0.6450  0.6914
17154SOL    HW254355   4.333   8.696   5.284 -1.0515 -0.6713  0.9169
17155SOL     OW54356   3.467   6.815   2.619  0.0846 -0.2939 -0.2555
17155SOL    HW154357   3.499   6.904   2.609 -2.8592  0.8145 -0.9847
17155SOL    HW254358   3.495   6.771   2.538 -0.2035  0.6031 -0.8636
17156SOL     OW54359   3.032   1.966   8.942 -0.6491 -0.2991 -0.5883
17156SOL    HW154360   3.081   2.026   8.997 -1.3182 -1.6673  1.6181
17156SOL    HW254361   2.976   2.022   8.889 -0.3513  1.0701  0.4958
17157SOL     OW54362   4.954   0.415   6.933  0.3499  0.3568  0.5179
17157SOL    HW154363   5.018   0.400   7.002  0.1905 -0.4569  0.5003
17157SOL    HW254364   4.904   0.492   6.962  0.7985  0.5023  0.9168
17158SOL     OW54365   5.583   4.438   6.812 -0.4150  0.5672  0.6163
17158SOL    HW154366   5.491   4.449   6.788 -0.4242 -0.7332 -0.0334
17158SOL    HW254367   5.583   4.363   6.871  0.5900 -1.9297 -2.3004
17159SOL     OW54368   4.919   2.739   6.946 -0.1152  0.1813 -0.9043
17159SOL    HW154369   4.985   2.748   7.015 -1.3672  4.0998  0.0358
17159SOL    HW254370   4.889   2.649   6.953  2.1522 -0.5247  1.4063
17160SOL     OW54371   7.698   4.993   2.281  0.0094  0.1121  0.4725
17160SOL    HW154372   7.781   4.980   2.326  0.3005 -0.0307 -0.1019
17160SOL    HW254373   7.699   5.085   2.254  0.6657 -0.2774 -0.8869
17161SOL     OW54374   2.754   7.621   6.468 -0.3104 -0.1212  0.4443
17161SOL    HW154375   2.741   7.696   6.526  1.6781  0.1208  0.6632
17161SOL    HW254376   2.763   7.659   6.381 -0.4582 -0.2183  0.3868
17162SOL     OW54377   6.588   7.166   6.662  0.2714 -0.4219 -0.7297
17162SOL    HW154378   6.553   7.224   6.730 -0.0452 -0.7010 -0.6518
17162SOL    HW254379   6.528   7.177   6.588  1.8408  1.5902 -1.8140
17163SOL     OW54380   2.202   9.077   5.166  0.6392  0.1425  0.3551
17163SOL    HW154381   2.114   9.044   5.180 -0.2791  2.2321 -0.1870
17163SOL    HW254382   2.254   8.999   5.146 -1.4595 -0.9404 -1.2781
17164SOL     OW54383   8.587   4.673   5.860  0.3280  0.6069 -0.1238
17164SOL    HW154384   8.662   4.626   5.825  0.6038  0.6939  0.3451
17164SOL    HW254385   8.622   4.726   5.932 -0.0724  1.1285 -0.3072
17165SOL     OW54386   7.657   2.983   4.745 -0.3013 -0.1152  0.3913
17165SOL    HW154387   7.565   2.960   4.731 -0.5486  0.3880  1.1510
17165SOL    HW254388   7.706   2.908   4.710 -0.9240  0.3381 -1.6091
17166SOL     OW54389   3.478   1.618   7.142  0.1803 -0.3867  0.3642
17166SOL    HW154390   3.529   1.537   7.129  1.8612  0.2431  2.4795
17166SOL    HW254391   3.533   1.687   7.105 -0.9712 -0.0945 -0.8731
17167SOL     OW54392   6.997   3.888   0.813 -0.3668 -0.3558 -0.1818
17167SOL    HW154393   6.967   3.963   0.761 -0.7805 -1.4249 -1.5300
17167SOL    HW254394   6.976   3.913   0.903 -0.5805  1.1084 -0.6001
17168SOL     OW54395   1.874   1.084   0.687  0.3501  0.0748 -0.0306
17168SOL    HW154396   1.930   1.156   0.717  0.5632 -0.8981  2.1419
17168SOL    HW254397   1.791   1.099   0.732  0.2231 -0.7308  0.0154
17169SOL     OW54398   2.866   5.591   6.698  0.2906 -0.3967 -0.1693
17169SOL    HW154399   2.858   5.644   6.619  0.9338  0.0516  0.0611
17169SOL    HW254400   2.837   5.649   6.768 -0.8535 -0.9833 -0.1282
17170SOL     OW54401   5.330   2.265   0.986 -0.3964 -0.2567 -0.5136
17170SOL    HW154402   5.247   2.297   1.022 -0.5741  0.2663 -1.3716
17170SOL    HW254403   5.392   2.336   1.001 -0.7116  0.3801 -2.1232
17171SOL     OW54404   0.153   8.640   2.222  0.3602 -0.1365 -0.2352
17171SOL    HW154405   0.093   8.565   2.217 -0.6690  0.5719  0.8492
17171SOL    HW254406   0.137   8.688   2.141 -0.7852  0.1867  0.1537
17172SOL     OW54407   4.168   0.317   3.014  0.3847  0.1549  0.4507
17172SOL    HW154408   4.187   0.333   3.106 -1.1115  0.5641  0.7096
17172SOL    HW254409   4.254   0.316   2.972  1.0289  0.8623  1.6964
17173SOL     OW54410   7.903   4.958   8.549 -0.4918  0.1392 -0.2393
17173SOL    HW154411   7.845   4.899   8.597  0.4330  0.4145  1.2768
17173SOL    HW254412   7.852   4.986   8.473 -2.4636  0.6167  1.1969
17174SOL     OW54413   6.369   7.628   8.690  0.5278  0.3918  0.3378
17174SOL    HW154414   6.406   7.581   8.766  0.3929  1.5911  1.1739
17174SOL    HW254415   6.436   7.693   8.668 -0.4281  1.6327  0.9569
17175SOL     OW54416   6.227   7.743   8.314 -0.5844  0.2613 -0.1135
17175SOL    HW154417   6.134   7.733   8.337 -0.5384  0.2842  0.0856
17175SOL    HW254418   6.251   7.658   8.277 -0.4861 -0.0009  0.5403
17176SOL     OW54419   0.466   7.842   6.874 -0.2825 -0.2473  0.2200
17176SOL    HW154420   0.508   7.757   6.861 -0.4731 -0.2704 -0.2615
17176SOL    HW254421   0.537   7.902   6.893 -0.2143 -0.6731  1.4207
17177SOL     OW54422   2.062   9.065   4.026  0.3536 -0.1891 -0.0524
17177SOL    HW154423   2.025   9.116   4.098  0.0712  0.0872 -0.3904
17177SOL    HW254424   2.022   9.102   3.947 -1.2762 -2.0839 -0.1947
17178SOL     OW54425   8.181   6.955   8.539  0.6855  0.3184  0.4989
17178SOL    HW154426   8.161   6.998   8.457 -0.3998 -0.1166  0.5051
17178SOL    HW254427   8.169   7.022   8.606 -1.6555 -0.0832  0.5730
17179SOL     OW54428   2.353   4.759   1.826 -0.0856  0.2733 -0.0338
17179SOL    HW154429   2.371   4.668   1.849 -2.5533  0.0049  1.1841
17179SOL    HW254430   2.388   4.809   1.900 -1.0479  0.0638  0.5802
17180SOL     OW54431   4.481   0.065   1.555  0.2202 -0.1128 -0.3068
17180SOL    HW154432   4.455   0.147   1.513  1.3059  1.0977  1.2614
17180SOL    HW254433   4.409   0.043   1.613  0.5659  0.5679  0.3895
17181SOL     OW54434   4.433   5.480   4.015  0.2339 -0.1452  0.5154
17181SOL    HW154435   4.407   5.395   3.978  0.0463  0.1526 -0.0437
17181SOL    HW254436   4.429   5.540   3.941  0.6281  0.2988  0.8560
17182SOL     OW54437   0.258   7.767   7.559  0.2272  0.0909 -0.1185
17182SOL    HW154438   0.325   7.706   7.526  1.1985  0.9488  0.2218
17182SOL    HW254439   0.253   7.835   7.493  0.0162  0.2688  0.0794
17183SOL     OW54440   7.731   0.949   3.327 -0.0773 -0.4646 -0.7538
17183SOL    HW154441   7.762   1.021   3.273 -0.4888 -0.8337 -1.4832
17183SOL    HW254442   7.806   0.890   3.334 -0.3239 -0.9234 -1.7896
17184SOL     OW54443   3.497   6.720   0.497  0.6165 -0.1969 -0.0886
17184SOL    HW154444   3.534   6.702   0.411  0.1041 -0.5644 -0.2362
17184SOL    HW254445   3.527   6.648   0.552 -1.3672 -1.5276 -0.6597
17185SOL     OW54446   0.971   0.061   7.827  0.1903 -0.5864 -0.5340
17185SOL    HW154447   1.010   0.146   7.808  0.4952 -0.7181 -0.5017
17185SOL    HW254448   0.887   0.062   7.780 -0.2123  0.0747  0.1784
17186SOL     OW54449   7.655   4.173   6.669 -0.5804 -0.0373  0.6761
17186SOL    HW154450   7.652   4.117   6.747 -1.0599 -1.2660 -0.1748
17186SOL    HW254451   7.657   4.111   6.596 -0.1930  1.0804 -0.2940
17187SOL     OW54452   0.721   5.600   3.004 -0.1611  0.1235 -0.0081
17187SOL    HW154453   0.746   5.546   3.079  2.0868  0.9021 -0.1459
17187SOL    HW254454   0.711   5.688   3.040  0.1659  0.3594 -0.4876
17188SOL     OW54455   3.049   3.271   7.645 -0.4714 -0.0879  0.4531
17188SOL    HW154456   3.096   3.313   7.574 -0.8454  2.0050  1.3567
17188SOL    HW254457   3.102   3.288   7.723 -1.0847 -0.5719  0.9944
17189SOL     OW54458   4.207   1.058   9.030  0.3122  0.2126 -0.9054
17189SOL    HW154459   4.147   1.060   8.956 -0.8998 -0.8127 -0.0016
17189SOL    HW254460   4.163   1.109   9.098  2.5005  3.2428 -1.5785
17190SOL     OW54461   1.853   5.792   5.379 -0.0768 -0.1628  0.0441
17190SOL    HW154462   1.780   5.837   5.422  0.0993  1.0672 -0.8991
17190SOL    HW254463   1.827   5.700   5.380 -1.3046  0.1587  0.3874
17191SOL     OW54464   5.603   6.093   0.948  0.5598 -0.6768  1.2589
17191SOL    HW154465   5.557   6.105   1.031  1.2739 -0.3471  1.6124
17191SOL    HW254466   5.554   6.024   0.903  0.0572 -0.7198  1.8666
17192SOL     OW54467   8.243   6.198   7.449 -0.2211  0.3379  0.3688
17192SOL    HW154468   8.177   6.251   7.405 -1.2476 -2.0032 -1.1166
17192SOL    HW254469   8.326   6.235   7.420 -0.8878  0.9275 -0.8842
17193SOL     OW54470   7.822   8.024   5.898  0.2223 -0.0115 -0.3292
17193SOL    HW154471   7.785   7.941   5.926  0.1832  0.5759  1.5319
17193SOL    HW254472   7.747   8.074   5.865  0.0541 -0.3197 -0.4142
17194SOL     OW54473   0.827   1.871   4.205  0.3985  0.2773 -0.3303
17194SOL    HW154474   0.802   1.815   4.131  0.3173  0.1053 -0.1741
17194SOL    HW254475   0.851   1.954   4.165 -4.1594  1.8593 -0.2723
17195SOL     OW54476   0.655   6.831   3.246  0.2781  0.3724  0.4544
17195SOL    HW154477   0.669   6.764   3.180 -2.3384 -0.0270  0.1820
17195SOL    HW254478   0.679   6.790   3.329 -0.1767 -0.5151  0.1560
17196SOL     OW54479   6.244   8.346   2.900 -0.3190  0.5394  0.3030
17196SOL    HW154480   6.197   8.272   2.939 -1.9025  1.6317  0.5282
17196SOL    HW254481   6.326   8.307   2.869  0.3552 -0.6983  3.2704
17197SOL     OW54482   7.931   6.736   2.323 -0.0366  0.2164  0.1674
17197SOL    HW154483   7.850   6.758   2.369 -0.9061  1.1200 -1.6624
17197SOL    HW254484   7.930   6.792   2.245  2.6231  0.6317  0.3302
17198SOL     OW54485   9.140   2.460   5.829 -0.1379 -0.1370  0.0018
17198SOL    HW154486   9.168   2.498   5.745 -0.8085  0.7742  0.1597
17198SOL    HW254487   9.130   2.367   5.811 -1.0644  0.1573 -1.1813
17199SOL     OW54488   4.596   3.055   5.835  0.6018  0.0750  0.4744
17199SOL    HW154489   4.595   2.970   5.878 -2.2140 -0.4858 -0.5131
17199SOL    HW254490   4.525   3.104   5.876  0.9437  1.2654 -0.2897
17200SOL     OW54491   4.217   2.088   2.175 -0.0099 -0.9925  0.6400
17200SOL    HW154492   4.280   2.110   2.106 -0.4199 -2.2688 -0.1579
17200SOL    HW254493   4.168   2.169   2.190  0.8264 -0.3983  0.2400
17201SOL     OW54494   5.340   5.823   0.194 -0.1353  0.1172 -0.3697
17201SOL    HW154495   5.309   5.914   0.197  0.7309  0.3959  1.0079
17201SOL    HW254496   5.261   5.771   0.210 -0.0813  0.8118  2.8380
17202SOL     OW54497   8.160   4.112   8.542  0.5480 -0.1347  0.0887
17202SOL    HW154498   8.145   4.120   8.448  0.5171  0.5103  0.1436
17202SOL    HW254499   8.244   4.066   8.550 -0.1244 -1.4610 -0.2376
17203SOL     OW54500   1.049   2.369   0.911  0.2391  0.1074  0.0893
17203SOL    HW154501   1.012   2.301   0.855  0.4723 -0.0505  0.1243
17203SOL    HW254502   1.033   2.451   0.864  0.9792 -0.0817 -0.5075
17204SOL     OW54503   5.280   3.836   2.521  0.3755 -0.0869  0.5903
17204SOL    HW154504   5.267   3.794   2.436  1.4360 -0.9004  0.8028
17204SOL    HW254505   5.277   3.930   2.502 -2.4298 -0.1816  0.1636
17205SOL     OW54506   4.280   7.373   0.628  0.4950  0.4993  0.2104
17205SOL    HW154507   4.202   7.337   0.586  0.6047  0.7091 -0.1744
17205SOL    HW254508   4.255   7.384   0.720  0.2767 -0.0210  0.2161
17206SOL     OW54509   6.856   4.549   0.990 -0.7987 -0.2849 -0.2547
17206SOL    HW154510   6.874   4.608   1.063 -0.1185  0.0375 -0.6742
17206SOL    HW254511   6.922   4.480   0.998 -1.3156 -0.7737 -0.0248
17207SOL     OW54512   1.173   4.503   5.798  0.4437 -0.2414 -0.0858
17207SOL    HW154513   1.224   4.430   5.831  0.0447 -1.1793 -1.4496
17207SOL    HW254514   1.098   4.509   5.856  0.7807 -0.5210  0.3826
17208SOL     OW54515   4.138   3.798   5.435 -0.2528 -0.2789  0.1225
17208SOL    HW154516   4.105   3.828   5.350  1.0513  2.0944  0.3636
17208SOL    HW254517   4.061   3.798   5.492 -0.7644  0.2589 -0.5447
17209SOL     OW54518   2.523   3.201   4.054 -0.0322 -0.1174  0.1557
17209SOL    HW154519   2.616   3.222   4.041 -0.0831 -1.1710 -2.4995
17209SOL    HW254520   2.499   3.246   4.135  2.4215  1.3725  0.1377
17210SOL     OW54521   9.233   8.138   2.002  0.3089 -0.6250  0.4115
17210SOL    HW154522   9.307   8.198   1.992  1.3595 -1.8260  0.7134
17210SOL    HW254523   9.270   8.061   2.045 -0.7973 -1.8967 -0.8289
17211SOL     OW54524   8.207   2.018   7.076  0.0476 -0.1576  0.0418
17211SOL    HW154525   8.190   2.057   6.990  0.7528  2.1921  0.8789
17211SOL    HW254526   8.301   2.031   7.089 -0.3322  1.1905  1.8691
17212SOL     OW54527   0.978   4.385   2.694  0.1020 -0.7440  0.3025
17212SOL    HW154528   0.929   4.446   2.639  0.1092 -2.3206 -1.5751
17212SOL    HW254529   0.917   4.360   2.763 -1.3469 -1.6293 -1.2152
17213SOL     OW54530   6.162   6.893   1.778  0.0154  0.5260 -0.7192
17213SOL    HW154531   6.242   6.945   1.766 -1.5698  2.8518 -2.0012
17213SOL    HW254532   6.098   6.956   1.813 -1.3488 -1.1952  0.0356
17214SOL     OW54533   8.936   4.018   7.560 -0.2024  0.2405 -0.1298
17214SOL    HW154534   8.897   4.002   7.474 -0.4683  0.4122 -0.0423
17214SOL    HW254535   8.862   4.015   7.621 -0.5335  3.2066 -0.2518
17215SOL     OW54536   7.584   8.568   3.417  0.6112 -0.4117 -0.1493
17215SOL    HW154537   7.620   8.635   3.475  1.4951 -0.8897 -0.1380
17215SOL    HW254538   7.489   8.571   3.434  0.5113  1.4202 -0.7869
17216SOL     OW54539   5.894   5.226   3.163 -0.2512 -0.0128  0.5632
17216SOL    HW154540   5.841   5.249   3.087  2.6081  1.5593 -1.1880
17216SOL    HW254541   5.922   5.136   3.147  0.9920  0.5579 -0.8268
17217SOL     OW54542   8.972   8.690   3.538  0.0137  0.3398  0.4621
17217SOL    HW154543   8.960   8.756   3.607  1.3410  1.0392  0.0540
17217SOL    HW254544   9.031   8.625   3.578 -0.3056  0.0351  0.4406
17218SOL     OW54545   3.926   7.841   2.065 -0.1766  0.0106  0.6018
17218SOL    HW154546   4.008   7.826   2.112  0.9508 -0.3930 -1.4063
17218SOL    HW254547   3.952   7.891   1.988 -1.7880 -0.3604 -0.2092
17219SOL     OW54548   9.180   0.982   3.577 -0.1538 -0.2488  0.0044
17219SOL    HW154549   9.231   1.063   3.569 -1.2214  0.5237  0.7611
17219SOL    HW254550   9.126   0.979   3.498  0.8514 -0.9432 -0.6804
17220SOL     OW54551   7.741   7.026   4.376 -0.3739  0.0146  0.2700
17220SOL    HW154552   7.802   7.099   4.367  0.8487 -0.9469  0.4611
17220SOL    HW254553   7.724   7.020   4.470 -2.1050  1.2941  0.0986
17221SOL     OW54554   6.833   5.177   4.942  0.2566  0.7008 -0.3433
17221SOL    HW154555   6.883   5.255   4.920  1.1533  0.4421  0.6371
17221SOL    HW254556   6.762   5.208   4.998  0.8448  0.7788  0.3709
17222SOL     OW54557   7.896   8.525   4.060  0.4237  0.0004  0.0917
17222SOL    HW154558   7.983   8.525   4.021  1.5139 -0.0428  2.3877
17222SOL    HW254559   7.882   8.616   4.087  0.3906 -0.2690  1.0131
17223SOL     OW54560   0.819   7.987   2.264  0.0829  0.0681  0.2019
17223SOL    HW154561   0.823   8.029   2.350 -1.3491 -0.2660  0.4649
17223SOL    HW254562   0.775   8.052   2.208  0.2485 -0.0416 -0.0567
17224SOL     OW54563   7.996   8.210   6.951  0.4317 -0.0506  0.4227
17224SOL    HW154564   7.915   8.261   6.943  0.3997 -0.0591  0.7001
17224SOL    HW254565   8.049   8.239   6.877  0.5112  0.5681  0.7162
17225SOL     OW54566   2.327   3.485   8.656 -0.2090 -0.0898  0.1135
17225SOL    HW154567   2.423   3.482   8.653 -0.1523  0.5934  0.8230
17225SOL    HW254568   2.303   3.552   8.592 -0.2356 -0.5717 -0.3787
17226SOL     OW54569   4.934   6.177   4.653 -0.0487 -0.9002 -0.2586
17226SOL    HW154570   4.924   6.086   4.679 -0.3388 -1.0881 -0.9963
17226SOL    HW254571   4.844   6.207   4.637 -0.0105 -0.2953  0.5742
17227SOL     OW54572   5.687   8.031   3.938  0.1681 -0.3537 -0.0715
17227SOL    HW154573   5.628   8.105   3.949  0.0066 -0.5092  0.1014
17227SOL    HW254574   5.760   8.050   3.997  0.3782 -0.0750 -0.4154
17228SOL     OW54575   1.656   2.388   6.642  0.3539  0.0808  0.0408
17228SOL    HW154576   1.707   2.461   6.606 -1.2580  1.3524  0.2459
17228SOL    HW254577   1.650   2.326   6.570 -0.2902  1.2439 -0.9419
17229SOL     OW54578   1.697   8.019   8.726 -0.7056 -0.1628 -0.3530
17229SOL    HW154579   1.602   8.007   8.716 -0.7633 -1.7627  1.5295
17229SOL    HW254580   1.717   7.981   8.812  1.3059  2.2512  0.3517
17230SOL     OW54581   0.616   3.372   4.568 -0.6069 -0.3461 -0.0199
17230SOL    HW154582   0.545   3.308   4.579 -1.0639  0.0166 -0.7582
17230SOL    HW254583   0.693   3.329   4.605 -1.1755 -0.8106  0.6504
17231SOL     OW54584   8.656   3.570   3.705 -0.5393  0.1409  0.3672
17231SOL    HW154585   8.697   3.531   3.629 -1.0218  0.2203  0.0601
17231SOL    HW254586   8.665   3.504   3.774 -0.8361 -0.2761  0.0121
17232SOL     OW54587   4.587   4.095   4.116  0.3623  0.2317  0.3278
17232SOL    HW154588   4.606   4.012   4.073  1.3251  1.1590 -1.1508
17232SOL    HW254589   4.503   4.122   4.080 -0.3903 -0.5107  1.4935
17233SOL     OW54590   2.810   2.480   6.306  0.1577 -0.4051 -0.4668
17233SOL    HW154591   2.735   2.423   6.324 -0.8311  0.7864 -0.6690
17233SOL    HW254592   2.884   2.437   6.349 -0.8989 -0.9261  0.8929
17234SOL     OW54593   1.656   8.474   0.100 -0.3479  0.1341  0.2152
17234SOL    HW154594   1.724   8.422   0.057 -0.1260  0.3920  0.2552
17234SOL    HW254595   1.690   8.491   0.187  0.0673  1.2740 -0.1603
17235SOL     OW54596   6.854   9.263   3.900  0.1890 -0.2605  0.7148
17235SOL    HW154597   6.940   9.293   3.929  0.6582 -0.4940 -0.3888
17235SOL    HW254598   6.864   9.250   3.805 -1.4386  1.0153  0.3363
17236SOL     OW54599   8.174   1.444   0.351 -0.6490 -0.0862  0.3679
17236SOL    HW154600   8.155   1.476   0.439 -2.0546 -0.6457  0.3004
17236SOL    HW254601   8.238   1.505   0.315 -0.6618  0.5973  1.4846
17237SOL     OW54602   5.446   5.124   6.910 -0.4512 -1.0577 -0.2969
17237SOL    HW154603   5.374   5.168   6.865 -0.7713 -1.5207 -0.2413
17237SOL    HW254604   5.412   5.038   6.933 -0.2817 -0.8531  0.7865
17238SOL     OW54605   2.330   8.101   3.266  0.5011  0.2670  0.1599
17238SOL    HW154606   2.389   8.119   3.339 -0.8342  1.0420  1.1055
17238SOL    HW254607   2.244   8.129   3.298 -0.1943  0.2114 -1.5639
17239SOL     OW54608   8.536   1.082   4.708  0.2044  0.4006  0.3692
17239SOL    HW154609   8.468   1.143   4.679 -0.1253 -0.3719 -0.5365
17239SOL    HW254610   8.504   0.996   4.681  1.1409 -0.0680  0.7147
17240SOL     OW54611   2.384   0.570   3.517  0.3243  0.4470  0.0371
17240SOL    HW154612   2.412   0.481   3.540 -0.3575  0.0917 -0.4616
17240SOL    HW254613   2.338   0.602   3.594 -1.1929 -0.4080 -0.4806
17241SOL     OW54614   8.186   6.812   2.210 -0.0621  0.5667 -0.0972
17241SOL    HW154615   8.165   6.794   2.302 -1.2013  1.2194 -0.2110
17241SOL    HW254616   8.216   6.729   2.175  1.2635  0.5069  1.0958
17242SOL     OW54617   7.770   8.667   2.743  0.0488  0.4593  0.1941
17242SOL    HW154618   7.800   8.625   2.824 -0.8575  0.3510  0.4882
17242SOL    HW254619   7.804   8.756   2.749  1.4212 -0.0166 -0.1187
17243SOL     OW54620   4.849   5.813   1.782  0.3292 -0.3501  0.5593
17243SOL    HW154621   4.791   5.845   1.713 -0.5527  2.2580  2.3473
17243SOL    HW254622   4.850   5.718   1.771 -1.3117 -0.1692 -1.8028
17244SOL     OW54623   4.450   6.165   9.193 -0.3959  0.3375  0.4123
17244SOL    HW154624   4.524   6.109   9.170  1.0232  1.8503  1.0851
17244SOL    HW254625   4.391   6.160   9.118  0.4047 -0.8513 -0.1573
17245SOL     OW54626   4.383   0.626   2.014 -0.0398 -0.3658 -0.2128
17245SOL    HW154627   4.372   0.702   1.956 -0.5039 -1.0757 -1.0746
17245SOL    HW254628   4.460   0.581   1.979  0.0508 -0.4586  0.1079
17246SOL     OW54629   0.375   4.197   0.923 -0.2038 -0.0963 -0.2692
17246SOL    HW154630   0.357   4.281   0.966  2.3972  0.2363  0.3339
17246SOL    HW254631   0.313   4.136   0.964 -2.2624  1.5019 -0.8475
17247SOL     OW54632   4.957   3.552   7.384  0.1601 -0.2243  0.0644
17247SOL    HW154633   5.001   3.479   7.427 -0.6529 -0.1246  1.1085
17247SOL    HW254634   4.865   3.540   7.405  0.0088  1.0949  0.2412
17248SOL     OW54635   1.792   3.813   4.892 -0.6160  0.0898  0.0642
17248SOL    HW154636   1.841   3.731   4.893 -1.5423 -0.4824 -0.3852
17248SOL    HW254637   1.775   3.832   4.984  1.4863  0.9653  0.3390
17249SOL     OW54638   8.612   8.505   7.217  0.3155 -0.2542  0.3462
17249SOL    HW154639   8.536   8.476   7.268  0.1082 -0.8946 -0.3162
17249SOL    HW254640   8.660   8.562   7.277 -0.5313 -0.0736  0.8709
17250SOL     OW54641   3.673   2.382   2.905 -0.0855  0.5001  0.1677
17250SOL    HW154642   3.705   2.461   2.860 -2.7805  0.9450 -1.1732
17250SOL    HW254643   3.585   2.406   2.935 -0.9720 -1.9816 -0.2341
17251SOL     OW54644   2.319   6.229   5.393 -0.2275 -0.0079  0.5916
17251SOL    HW154645   2.320   6.262   5.482 -2.7739  1.6604  0.0969
17251SOL    HW254646   2.384   6.283   5.347  1.0873 -0.8718  1.3900
17252SOL     OW54647   6.630   8.155   5.530 -0.4619 -0.4140  0.0358
17252SOL    HW154648   6.716   8.192   5.509 -0.3768 -0.6329 -0.0051
17252SOL    HW254649   6.642   8.112   5.615 -0.9738  1.0510  0.8998
17253SOL     OW54650   0.841   6.664   5.433  0.3867  0.2804  0.2337
17253SOL    HW154651   0.884   6.578   5.441  0.3407  0.0510 -1.5850
17253SOL    HW254652   0.786   6.670   5.512 -0.0444 -1.6091  0.1424
17254SOL     OW54653   1.340   5.834   1.576 -0.0763  0.5697 -0.2614
17254SOL    HW154654   1.308   5.763   1.520 -0.0703  0.1008  0.3243
17254SOL    HW254655   1.409   5.875   1.525  0.5173 -0.3971 -0.2502
17255SOL     OW54656   5.774   0.682   5.821 -0.3965  0.4777 -0.2898
17255SOL    HW154657   5.811   0.631   5.749 -0.4147  1.9394 -1.3941
17255SOL    HW254658   5.850   0.721   5.865 -0.3999 -0.2218  0.3607
17256SOL     OW54659   0.907   2.051   1.188  0.4962 -0.1695  0.2884
17256SOL    HW154660   0.817   2.032   1.159  0.7797 -2.3088  0.5973
17256SOL    HW254661   0.906   2.143   1.214 -1.8385 -0.3731  1.1199
17257SOL     OW54662   4.179   7.659   4.031  0.6734 -0.5777  0.1651
17257SOL    HW154663   4.271   7.646   4.053  0.5701 -1.0080  0.3406
17257SOL    HW254664   4.139   7.690   4.112  0.6271 -0.5579  0.1349
17258SOL     OW54665   4.428   8.286   0.508 -0.5965 -0.4865 -0.5040
17258SOL    HW154666   4.485   8.358   0.534 -0.2477 -0.1833 -2.0055
17258SOL    HW254667   4.348   8.300   0.558 -0.4822  0.8746 -0.6586
17259SOL     OW54668   2.923   0.549   7.424  0.6814 -0.1254 -0.0307
17259SOL    HW154669   3.013   0.570   7.452  0.6433 -0.6531  0.5101
17259SOL    HW254670   2.913   0.456   7.445  0.1244 -0.1549 -0.4190
17260SOL     OW54671   6.466   8.262   4.736 -0.2712  0.2087 -0.0741
17260SOL    HW154672   6.438   8.344   4.695  1.3392  0.4741 -0.7098
17260SOL    HW254673   6.429   8.194   4.679 -0.2452  0.5261 -0.4800
17261SOL     OW54674   1.157   6.447   8.910 -0.3702  0.0250 -0.9792
17261SOL    HW154675   1.162   6.529   8.959  1.2132  0.5117 -1.8860
17261SOL    HW254676   1.137   6.474   8.820 -3.4035 -0.8637 -0.6665
17262SOL     OW54677   8.596   2.916   0.829 -0.0860 -0.1488  0.2617
17262SOL    HW154678   8.615   2.996   0.779 -0.1141  0.6987  1.5571
17262SOL    HW254679   8.650   2.924   0.908 -1.0579 -0.7868  1.0149
17263SOL     OW54680   3.405   7.341   8.083 -0.1561 -0.0413 -0.3370
17263SOL    HW154681   3.336   7.392   8.039 -0.5880  0.4003  0.8195
17263SOL    HW254682   3.452   7.405   8.137 -1.2053 -0.9323  1.7526
17264SOL     OW54683   2.111   8.099   5.306 -0.1086 -0.0729 -0.0860
17264SOL    HW154684   2.134   8.186   5.338 -1.8118  0.3399  0.1286
17264SOL    HW254685   2.019   8.088   5.331 -0.7845 -0.7672 -2.5995
17265SOL     OW54686   4.947   5.179   0.940 -0.6075  0.5749 -0.5459
17265SOL    HW154687   4.938   5.236   1.016 -1.5423 -0.6682  0.3151
17265SOL    HW254688   4.865   5.189   0.892 -1.6011 -1.3714  0.6107
17266SOL     OW54689   8.241   0.056   3.310  0.1237  0.6147  0.1676
17266SOL    HW154690   8.167   0.116   3.319 -1.3893 -1.4373  2.2851
17266SOL    HW254691   8.205  -0.022   3.269  1.1939 -0.2750  0.8651
17267SOL     OW54692   1.263   5.983   0.698  0.4753 -0.3627  0.6437
17267SOL    HW154693   1.235   5.945   0.781  0.0475  0.3128  0.8129
17267SOL    HW254694   1.290   6.072   0.720  1.4336 -0.5403  0.2434
17268SOL     OW54695   0.858   2.742   6.038 -0.0651  0.0855 -0.8590
17268SOL    HW154696   0.817   2.687   6.105 -0.0771  0.9991 -0.0900
17268SOL    HW254697   0.792   2.748   5.969 -0.1672 -0.6378 -0.8345
17269SOL     OW54698   8.329   4.075   6.188  0.5573 -0.6505 -0.6492
17269SOL    HW154699   8.261   4.009   6.175  0.1718  0.1182 -2.8742
17269SOL    HW254700   8.380   4.074   6.107  0.4684  1.8233 -0.8037
17270SOL     OW54701   8.838   6.481   6.355 -0.7974  0.0171  0.1107
17270SOL    HW154702   8.838   6.406   6.414 -0.4325  0.7495  1.0776
17270SOL    HW254703   8.812   6.446   6.270 -1.7536 -0.9895  0.8030
17271SOL     OW54704   8.345   5.874   2.261  0.4758 -0.1634 -0.1016
17271SOL    HW154705   8.420   5.828   2.223  1.0066  1.1709 -0.7571
17271SOL    HW254706   8.358   5.865   2.356 -0.0943 -2.3260 -0.1979
17272SOL     OW54707   6.128   2.022   1.408 -0.3289 -0.1886 -0.2412
17272SOL    HW154708   6.188   2.071   1.352 -0.1145  1.2235  1.1680
17272SOL    HW254709   6.078   1.968   1.347 -0.6977  1.8954 -1.9049
17273SOL     OW54710   2.234   0.153   2.004  0.0774  0.3647  0.2943
17273SOL    HW154711   2.194   0.159   2.090  0.1555 -2.0158  0.5587
17273SOL    HW254712   2.284   0.071   2.006  1.6857  1.2232 -1.3733
17274SOL     OW54713   1.201   8.615   1.657 -0.8087 -0.0740  0.3408
17274SOL    HW154714   1.239   8.645   1.740 -0.1972  0.8148 -0.2418
17274SOL    HW254715   1.109   8.597   1.678 -0.1775 -2.0582  1.7384
17275SOL     OW54716   1.674   4.167   2.374  0.2681 -0.6519 -0.1883
17275SOL    HW154717   1.759   4.186   2.336  1.0306 -1.6499  0.9397
17275SOL    HW254718   1.641   4.251   2.404  1.2366 -0.3717  0.1205
17276SOL     OW54719   5.994   4.737   3.677  0.1846  0.0855 -0.0575
17276SOL    HW154720   6.002   4.695   3.591  0.3475  0.2742 -0.1371
17276SOL    HW254721   5.996   4.831   3.657  3.2103  0.2088  0.3559
17277SOL     OW54722   4.856   7.688   6.694  0.2484 -0.3573  0.0182
17277SOL    HW154723   4.821   7.670   6.607  0.1097 -2.5633  0.4920
17277SOL    HW254724   4.947   7.657   6.691  0.9920  1.6238  0.0349
17278SOL     OW54725   8.376   7.850   3.593 -0.2889 -0.3734 -0.2361
17278SOL    HW154726   8.330   7.882   3.671  0.9729  0.1924  0.3092
17278SOL    HW254727   8.427   7.775   3.625  0.7024  0.2283 -0.3644
17279SOL     OW54728   3.512   3.374   2.752 -0.6306 -0.3900  0.4395
17279SOL    HW154729   3.454   3.298   2.747 -1.2356  0.1206 -0.5420
17279SOL    HW254730   3.453   3.449   2.743  0.2377  0.1327 -1.1831
17280SOL     OW54731   4.031   1.672   3.356  0.3424 -0.2037 -0.1227
17280SOL    HW154732   3.998   1.677   3.446 -0.2207  1.1081 -0.3752
17280SOL    HW254733   4.126   1.678   3.366  0.2679  0.2918  0.3719
17281SOL     OW54734   5.057   1.798   8.467 -0.3480 -0.8391 -0.1603
17281SOL    HW154735   5.041   1.706   8.448 -1.3494 -1.0500  1.4816
17281SOL    HW254736   4.970   1.839   8.464 -0.3698 -0.5755  2.0286
17282SOL     OW54737   2.826   7.543   2.715  0.2678  0.1381  0.8058
17282SOL    HW154738   2.793   7.630   2.739  1.0415  0.3958  0.9869
17282SOL    HW254739   2.862   7.555   2.626  1.5231  0.3365  1.3198
17283SOL     OW54740   7.660   5.460   1.977  0.0775  0.3184 -0.0287
17283SOL    HW154741   7.707   5.540   2.000 -0.0762  0.4450 -0.1535
17283SOL    HW254742   7.571   5.490   1.957  0.0942  0.1528 -0.3578
17284SOL     OW54743   3.492   7.859   4.902 -0.1407 -0.0775 -0.0117
17284SOL    HW154744   3.555   7.801   4.944 -1.8327 -1.3842  0.7993
17284SOL    HW254745   3.467   7.813   4.822 -0.3465  0.2710 -0.1494
17285SOL     OW54746   4.662   6.104   6.576  0.3063 -0.5074  0.0978
17285SOL    HW154747   4.582   6.148   6.606  1.1914  1.2947 -0.0743
17285SOL    HW254748   4.698   6.064   6.655  0.3563  0.5266  0.6197
17286SOL     OW54749   3.082   9.263   3.421 -0.5618 -0.1640  0.0808
17286SOL    HW154750   3.108   9.223   3.504  1.6655  0.7891 -0.0770
17286SOL    HW254751   3.045   9.191   3.370  1.3546 -1.5931  0.5923
17287SOL     OW54752   8.396   3.941   1.095  0.3015 -0.2950  0.3775
17287SOL    HW154753   8.412   3.978   1.008  1.1359 -0.0866  0.6085
17287SOL    HW254754   8.483   3.936   1.135 -0.2997  1.9367  2.1345
17288SOL     OW54755   4.405   2.932   6.892  0.2337 -0.0441 -0.4476
17288SOL    HW154756   4.338   2.912   6.958 -0.7357  1.9403 -0.7668
17288SOL    HW254757   4.486   2.893   6.927 -0.7226 -1.0243  0.7564
17289SOL     OW54758   1.458   4.357   4.814 -0.1205  0.1595  0.5707
17289SOL    HW154759   1.521   4.285   4.804  0.0274  0.0206  2.2332
17289SOL    HW254760   1.419   4.367   4.727  2.2224  0.2881 -0.5362
17290SOL     OW54761   5.031   3.564   2.462 -0.3561  0.0799  0.0207
17290SOL    HW154762   4.975   3.491   2.439 -1.0539  0.5930  0.0710
17290SOL    HW254763   5.092   3.571   2.388 -0.6622 -0.1769 -0.2583
17291SOL     OW54764   3.580   6.852   3.853  0.2307  1.0114  0.5380
17291SOL    HW154765   3.492   6.814   3.853  0.6361  0.0320  0.4808
17291SOL    HW254766   3.576   6.922   3.918 -0.6241  1.0586  0.4452
17292SOL     OW54767   1.532   6.890   2.325 -0.6046 -0.3616  0.2910
17292SOL    HW154768   1.508   6.923   2.238  2.3249  0.5103 -0.2997
17292SOL    HW254769   1.517   6.796   2.320  1.0629 -0.5806 -1.7832
17293SOL     OW54770   5.670   6.174   6.801 -0.1356  0.5215 -0.6565
17293SOL    HW154771   5.737   6.232   6.837  1.6494 -1.9039  0.2787
17293SOL    HW254772   5.600   6.175   6.866 -0.3449  1.8981 -0.8692
17294SOL     OW54773   3.023   5.404   0.801 -0.4851 -0.1107  0.0106
17294SOL    HW154774   3.094   5.340   0.793 -0.2986 -0.1421  1.6266
17294SOL    HW254775   3.066   5.489   0.792 -0.1867 -0.1249  1.1048
17295SOL     OW54776   0.039   8.552   5.868  0.4590  0.1727  0.3676
17295SOL    HW154777   0.002   8.631   5.828  1.4511 -0.6831 -2.4994
17295SOL    HW254778  -0.027   8.484   5.854  0.4449  0.0432  1.0177
17296SOL     OW54779   3.511   5.656   4.383  0.2367 -0.5050 -0.1715
17296SOL    HW154780   3.509   5.679   4.476 -1.5052 -2.2347  0.2813
17296SOL    HW254781   3.564   5.725   4.343  0.9479  0.3514  2.0644
17297SOL     OW54782   4.307   8.706   7.657  0.0520  0.0230 -0.2895
17297SOL    HW154783   4.390   8.665   7.631  0.4241  0.4230  0.2539
17297SOL    HW254784   4.309   8.706   7.752  0.2730  1.7010 -0.2663
17298SOL     OW54785   2.354   6.587   3.665  0.1323 -0.5599  0.2543
17298SOL    HW154786   2.437   6.540   3.658  0.7796  0.5783  0.0596
17298SOL    HW254787   2.379   6.677   3.686 -1.0488 -0.1598  0.0084
17299SOL     OW54788   3.775   1.728   2.533 -1.0430  0.4102 -0.0216
17299SOL    HW154789   3.719   1.800   2.563 -0.5213  0.3863  1.0538
17299SOL    HW254790   3.835   1.712   2.606  0.7586  0.8158 -1.3384
17300SOL     OW54791   6.362   1.158   3.406 -0.0389 -0.0657 -0.3846
17300SOL    HW154792   6.288   1.211   3.376 -0.5230  0.5896  1.7799
17300SOL    HW254793   6.343   1.141   3.498  2.5086  0.1263  0.2457
17301SOL     OW54794   5.899   5.626   6.176  0.3610 -0.7888 -0.7293
17301SOL    HW154795   5.843   5.632   6.099 -1.3913 -1.1751  0.4438
17301SOL    HW254796   5.849   5.670   6.245  2.4452  0.7244 -0.0710
17302SOL     OW54797   0.372   7.809   0.752 -0.0576  0.5081 -0.9601
17302SOL    HW154798   0.299   7.755   0.784  0.1762  0.6805 -0.1056
17302SOL    HW254799   0.450   7.757   0.770  0.1612  1.0756 -0.2224
17303SOL     OW54800   4.281   1.296   5.321 -0.4703 -0.1285 -0.4336
17303SOL    HW154801   4.227   1.265   5.249 -1.0601 -0.8761  0.3191
17303SOL    HW254802   4.322   1.217   5.357  1.9525  0.4857 -1.6109
17304SOL     OW54803   4.291   2.325   7.131 -0.4807  0.6633 -0.5768
17304SOL    HW154804   4.374   2.369   7.143 -0.4071  0.9235 -1.8816
17304SOL    HW254805   4.311   2.249   7.076 -0.5283 -1.3097  1.9089
17305SOL     OW54806   5.295   0.400   2.922  0.1626 -0.1412 -0.0769
17305SOL    HW154807   5.292   0.310   2.892  1.2825 -1.4868  3.3533
17305SOL    HW254808   5.206   0.419   2.953  0.0847 -0.2600 -0.2274
17306SOL     OW54809   0.898   3.508   5.244 -0.1178 -0.0086  0.0546
17306SOL    HW154810   0.931   3.586   5.200  1.3040 -0.5416  0.1086
17306SOL    HW254811   0.976   3.468   5.283 -0.8117 -1.4283  0.0507
17307SOL     OW54812   4.721   5.083   5.074  0.6256  0.1406 -0.2139
17307SOL    HW154813   4.714   5.143   5.149 -0.2194 -1.0520  0.7134
17307SOL    HW254814   4.775   5.130   5.011 -0.8708  2.3308  0.0078
17308SOL     OW54815   4.172   4.427   6.839  0.9985 -0.0225  0.0968
17308SOL    HW154816   4.093   4.381   6.810  0.6320  0.3858  0.4305
17308SOL    HW254817   4.160   4.439   6.933  1.1611  0.5929  0.0476
17309SOL     OW54818   0.941   6.013   0.804 -0.5383  0.6815 -0.0622
17309SOL    HW154819   0.999   6.081   0.770 -0.5482  0.8502  0.2578
17309SOL    HW254820   0.959   6.010   0.897 -0.2932  0.0008 -0.1288
17310SOL     OW54821   3.085   7.563   3.943 -0.4134  0.0547  0.2997
17310SOL    HW154822   3.038   7.646   3.943 -0.5667  0.0610 -2.4448
17310SOL    HW254823   3.173   7.585   3.973  0.5170  1.9788 -3.2675
17311SOL     OW54824   8.489   8.534   8.842 -0.1325  0.1350 -0.2198
17311SOL    HW154825   8.568   8.576   8.876  0.9573 -1.5542 -0.5562
17311SOL    HW254826   8.433   8.524   8.919 -0.5754  2.3718 -0.1661
17312SOL     OW54827   3.035   6.725   6.021  0.0852  0.1679 -0.3013
17312SOL    HW154828   3.047   6.810   5.980  0.6243  0.0786 -0.3346
17312SOL    HW254829   3.117   6.710   6.069 -0.1666 -0.1492  0.0310
17313SOL     OW54830   0.775   3.323   0.798 -0.4505 -0.1401  0.5760
17313SOL    HW154831   0.728   3.397   0.759 -0.2717  1.1464  2.6708
17313SOL    HW254832   0.779   3.258   0.727 -0.5857  1.8275 -1.3624
17314SOL     OW54833   8.437   5.770   1.312 -0.4257 -0.0235 -0.0851
17314SOL    HW154834   8.386   5.724   1.379 -1.7121  0.9878 -0.3354
17314SOL    HW254835   8.521   5.723   1.309 -1.2388 -1.5773  0.5171
17315SOL     OW54836   7.469   4.277   5.019  1.0905  0.3228 -0.2332
17315SOL    HW154837   7.399   4.300   5.079  0.8802  0.4904 -0.5359
17315SOL    HW254838   7.451   4.187   4.993  0.4918  0.6338 -0.9652
17316SOL     OW54839   1.421   6.139   9.144  0.0484  0.0196 -0.0057
17316SOL    HW154840   1.514   6.161   9.140  0.3110 -1.2028 -2.1851
17316SOL    HW254841   1.377   6.224   9.135  1.0021  0.3591 -2.1422
17317SOL     OW54842   1.283   9.080   9.124 -0.0780 -0.1726 -0.4033
17317SOL    HW154843   1.213   9.045   9.180  0.6590  1.6300  1.7842
17317SOL    HW254844   1.346   9.008   9.117 -0.7478 -0.8278  0.0922
17318SOL     OW54845   3.118   3.999   2.274 -0.1140 -0.3749  0.1683
17318SOL    HW154846   3.190   3.939   2.257 -0.4169 -0.6703 -0.0672
17318SOL    HW254847   3.062   3.953   2.336  0.3554  0.2096  1.0496
17319SOL     OW54848   3.504   7.754   3.240  0.4198 -0.0584 -0.6428
17319SOL    HW154849   3.418   7.716   3.256  0.0032  1.0291 -0.2235
17319SOL    HW254850   3.559   7.718   3.309 -0.1358  0.6130  0.1717
17320SOL     OW54851   0.894   8.758   4.040  0.2727  0.5550  0.8994
17320SOL    HW154852   0.967   8.820   4.041 -0.5897  1.6000  0.6790
17320SOL    HW254853   0.881   8.735   4.132  0.3359  1.0098  1.0225
17321SOL     OW54854   6.631   6.708   0.760  0.3637  0.4344  0.6346
17321SOL    HW154855   6.594   6.700   0.672  0.8865  0.6155  0.3942
17321SOL    HW254856   6.583   6.643   0.812 -0.4365  0.8168  0.3860
17322SOL     OW54857   2.563   3.136   1.248  0.2272 -0.0426  0.1084
17322SOL    HW154858   2.480   3.138   1.295 -0.4214 -1.1593 -0.9555
17322SOL    HW254859   2.626   3.104   1.312  0.2311  2.3141  1.4211
17323SOL     OW54860   8.634   6.021   4.598 -0.0076  0.1089  0.3407
17323SOL    HW154861   8.629   5.926   4.587  6.3577 -0.8128  1.0787
17323SOL    HW254862   8.648   6.033   4.692 -1.6185  1.9512  0.3974
17324SOL     OW54863   5.353   6.170   2.555 -0.6739  0.1710  0.5010
17324SOL    HW154864   5.293   6.177   2.630 -0.9020 -0.7993  0.4249
17324SOL    HW254865   5.399   6.087   2.569  1.3525  1.2975  1.0457
17325SOL     OW54866   6.807   8.118   2.215  0.6554 -0.1417  0.4106
17325SOL    HW154867   6.745   8.172   2.264 -1.6146 -1.7266 -0.5441
17325SOL    HW254868   6.872   8.180   2.182  0.7263  1.3501  3.0129
17326SOL     OW54869   3.699   6.077   0.811 -0.0220 -0.3236  0.3867
17326SOL    HW154870   3.683   6.133   0.735 -0.1940  0.6091  1.0821
17326SOL    HW254871   3.749   6.003   0.777 -4.3286 -2.6108 -1.5984
17327SOL     OW54872   6.701   9.220   8.037  0.6367 -0.4826  0.4848
17327SOL    HW154873   6.792   9.194   8.024  1.0206  1.0860 -0.2771
17327SOL    HW254874   6.677   9.266   7.956 -0.7672 -0.6822  0.7532
17328SOL     OW54875   5.869   7.779   0.410 -0.6464  0.1025  0.4557
17328SOL    HW154876   5.795   7.723   0.389  1.5483 -3.5716  1.5637
17328SOL    HW254877   5.890   7.758   0.501  2.2000  0.3457 -0.0498
17329SOL     OW54878   0.510   3.474   2.175 -0.1963  0.0915 -0.4149
17329SOL    HW154879   0.438   3.526   2.139 -0.0163  1.0352  0.5319
17329SOL    HW254880   0.574   3.468   2.104 -0.9085 -0.1971 -1.0483
17330SOL     OW54881   1.282   1.244   5.131  0.4782 -0.0565  0.4158
17330SOL    HW154882   1.329   1.169   5.093 -0.5600  0.3174 -1.7616
17330SOL    HW254883   1.281   1.226   5.225  2.0970 -1.7013  0.1788
17331SOL     OW54884   7.056   3.294   7.067 -0.6036 -0.6418 -0.1097
17331SOL    HW154885   7.120   3.280   7.136 -0.8761 -0.9726  0.0757
17331SOL    HW254886   6.980   3.242   7.093 -0.8016 -0.5676 -0.5268
17332SOL     OW54887   3.309   6.752   3.820 -0.2023  0.5622  0.0482
17332SOL    HW154888   3.346   6.719   3.738 -0.0815  1.3642 -0.2342
17332SOL    HW254889   3.240   6.690   3.842  0.3112 -0.1170 -0.2242
17333SOL     OW54890   7.565   0.223   5.585 -0.0328 -0.1280  0.2155
17333SOL    HW154891   7.481   0.181   5.604  0.7061 -1.2885  1.0426
17333SOL    HW254892   7.626   0.150   5.570  0.7163  0.6920 -0.9564
17334SOL     OW54893   3.137   7.183   1.223 -0.1230 -0.7786 -0.9387
17334SOL    HW154894   3.077   7.158   1.293 -0.6322 -0.6811 -1.3297
17334SOL    HW254895   3.086   7.171   1.143  1.5903 -4.6401 -1.6957
17335SOL     OW54896   3.390   0.437   8.763 -0.2542  0.0465  0.7559
17335SOL    HW154897   3.428   0.351   8.746  0.4854  0.3254  0.9951
17335SOL    HW254898   3.303   0.418   8.798 -0.7326 -0.5820 -0.6966
17336SOL     OW54899   7.072   7.132   5.921 -0.2127 -0.0798  0.4016
17336SOL    HW154900   7.086   7.038   5.912  2.0713  0.1904  0.7176
17336SOL    HW254901   7.159   7.169   5.929 -1.1238  1.7726  3.3801
17337SOL     OW54902   5.278   1.035   8.294  0.0774  0.2710  0.5085
17337SOL    HW154903   5.330   1.107   8.258 -0.4750  0.9566  1.0641
17337SOL    HW254904   5.343   0.974   8.329  0.7150 -0.8606 -2.3675
17338SOL     OW54905   5.694   1.017   7.562  0.2825 -0.1591 -0.0178
17338SOL    HW154906   5.628   0.951   7.542 -0.9749  1.2092 -0.5930
17338SOL    HW254907   5.679   1.040   7.653  1.3252 -1.2893  0.4612
17339SOL     OW54908   6.051   5.894   3.072 -0.4302  0.7551 -0.1478
17339SOL    HW154909   6.053   5.969   3.013  1.1648  0.6235 -0.2992
17339SOL    HW254910   6.136   5.852   3.061 -0.9748 -0.6114  0.5490
17340SOL     OW54911   2.120   0.927   5.447 -0.1334  0.2959  0.3107
17340SOL    HW154912   2.141   0.837   5.424 -1.2115 -0.0680  0.7140
17340SOL    HW254913   2.197   0.958   5.495  1.4463  0.5273 -2.2189
17341SOL     OW54914   4.114   8.796   5.919 -0.4724  0.7111  0.1859
17341SOL    HW154915   4.035   8.793   5.972 -0.5852  2.4553  0.1918
17341SOL    HW254916   4.096   8.864   5.854  0.6172  0.3738 -0.4931
17342SOL     OW54917   2.987   5.664   3.891 -0.0422  0.2546 -0.2555
17342SOL    HW154918   2.963   5.591   3.947  0.2653 -0.7197 -1.3565
17342SOL    HW254919   2.903   5.705   3.868 -0.3199 -0.4966 -0.6085
17343SOL     OW54920   4.520   1.563   9.150  0.1134  0.0220 -0.0287
17343SOL    HW154921   4.592   1.604   9.199 -1.0754  1.0070  0.9621
17343SOL    HW254922   4.547   1.472   9.138  2.4035  0.7911 -1.4296
17344SOL     OW54923   3.869   7.819   3.077  0.1992 -0.5539 -0.5464
17344SOL    HW154924   3.810   7.870   3.132  0.9610 -0.2212 -0.0245
17344SOL    HW254925   3.811   7.757   3.032 -0.4598 -0.7702  0.5478
17345SOL     OW54926   0.259   3.855   2.965  0.5276 -0.4129  0.7145
17345SOL    HW154927   0.171   3.891   2.960  0.2246 -0.8317  2.5083
17345SOL    HW254928   0.314   3.927   2.996  0.9339 -0.0274 -0.8074
17346SOL     OW54929   4.536   9.086   6.960 -0.4014 -0.0681 -0.1285
17346SOL    HW154930   4.579   9.152   7.014 -1.1823  0.9476 -0.7074
17346SOL    HW254931   4.516   9.131   6.878  0.6218 -1.5295 -1.2460
17347SOL     OW54932   1.824   2.044   5.024  0.3710  0.6032  0.2327
17347SOL    HW154933   1.820   2.138   5.003  1.1854  0.6469  0.2603
17347SOL    HW254934   1.732   2.016   5.022 -0.2121  1.9904  3.0406
17348SOL     OW54935   7.636   4.930   9.168 -0.5076 -0.6850  0.5610
17348SOL    HW154936   7.577   4.915   9.094  0.0389  1.3678 -0.3859
17348SOL    HW254937   7.693   4.854   9.170  0.5030 -0.1463 -2.2159
17349SOL     OW54938   3.196   8.298   0.070  0.3877 -0.1623 -0.4651
17349SOL    HW154939   3.179   8.220   0.018  1.1558 -0.4342 -0.3160
17349SOL    HW254940   3.238   8.359   0.010  1.9051 -0.7284 -0.0294
17350SOL     OW54941   8.607   1.664   8.029  0.0130 -0.4094  0.4411
17350SOL    HW154942   8.542   1.597   8.006 -0.5335  0.2400  0.0775
17350SOL    HW254943   8.556   1.735   8.068  0.5945 -0.2201  0.8656
17351SOL     OW54944   6.233   2.533   6.810 -0.0380  0.2382 -0.3152
17351SOL    HW154945   6.318   2.575   6.795 -0.3516  0.0758 -3.1620
17351SOL    HW254946   6.200   2.573   6.891  1.9177  1.6872 -0.1657
17352SOL     OW54947   7.855   3.732   5.319 -0.3730  0.1901 -0.0566
17352SOL    HW154948   7.829   3.740   5.227  0.8548 -0.8814 -0.5285
17352SOL    HW254949   7.775   3.707   5.365 -1.0617  1.0039 -0.7806
17353SOL     OW54950   5.859   2.619   1.426  0.3849  0.6675 -0.7904
17353SOL    HW154951   5.821   2.532   1.411  0.2232  0.3643  1.0865
17353SOL    HW254952   5.947   2.601   1.459  0.5414  1.2407 -0.8810
17354SOL     OW54953   0.565   8.858   5.318  0.4696 -0.1670  0.3645
17354SOL    HW154954   0.633   8.838   5.253 -0.3099  0.4308 -0.6681
17354SOL    HW254955   0.513   8.778   5.324  0.3212 -0.1019 -0.0289
17355SOL     OW54956   3.985   5.698   0.912  0.1963  0.4768 -0.5208
17355SOL    HW154957   4.040   5.636   0.864 -0.1995  0.3734 -0.8414
17355SOL    HW254958   3.945   5.646   0.982 -1.0776  0.0709 -1.5042
17356SOL     OW54959   1.607   6.735   5.780  0.0237 -0.1335 -0.2678
17356SOL    HW154960   1.629   6.681   5.856 -1.3916  0.2135  0.4288
17356SOL    HW254961   1.512   6.727   5.771  0.1084  0.1822 -1.7532
17357SOL     OW54962   2.180   0.394   2.992 -0.4731  0.1837 -0.5623
17357SOL    HW154963   2.104   0.364   2.942 -0.2712  2.8589 -2.6901
17357SOL    HW254964   2.149   0.472   3.038  0.3274 -0.2411  0.7701
17358SOL     OW54965   6.491   0.914   2.766  0.7514 -0.3028  0.0960
17358SOL    HW154966   6.437   0.850   2.719 -0.0051  0.2409  0.2101
17358SOL    HW254967   6.433   0.989   2.780  0.9926 -0.4029  1.8143
17359SOL     OW54968   4.702   9.215   0.620  0.1419  0.4554 -0.1817
17359SOL    HW154969   4.709   9.263   0.538  0.7506  0.2435 -0.2619
17359SOL    HW254970   4.762   9.261   0.680  2.1398 -1.2392 -0.7822
17360SOL     OW54971   6.891   4.095   9.079 -0.4374  0.3913  0.0957
17360SOL    HW154972   6.885   4.184   9.116 -0.0048  0.1424  0.8002
17360SOL    HW254973   6.878   4.038   9.155  2.6329 -0.1593  0.3664
17361SOL     OW54974   1.890   7.280   2.860 -0.1263  0.3372 -0.0819
17361SOL    HW154975   1.984   7.264   2.857  0.2971  2.2797  1.0986
17361SOL    HW254976   1.868   7.313   2.773  0.7597  1.9472  0.2635
17362SOL     OW54977   3.929   2.074   7.690 -0.0683 -0.3995  0.0475
17362SOL    HW154978   3.892   2.147   7.641  0.0686  0.0063  0.5287
17362SOL    HW254979   3.857   2.012   7.701  0.2824 -1.2350 -1.9964
17363SOL     OW54980   7.943   8.308   6.354 -0.3710  0.1988 -0.5988
17363SOL    HW154981   8.037   8.321   6.359 -0.4685  1.2517 -1.2346
17363SOL    HW254982   7.906   8.391   6.385 -1.0746  0.0715 -1.0728
17364SOL     OW54983   6.404   5.539   5.351  0.1572 -0.9005 -0.1864
17364SOL    HW154984   6.361   5.599   5.413 -1.0345 -1.1479 -0.7314
17364SOL    HW254985   6.442   5.596   5.285 -0.8689 -0.7209 -0.6383
17365SOL     OW54986   8.270   7.327   2.671  0.6094 -0.1115  0.0589
17365SOL    HW154987   8.319   7.409   2.675  0.7082 -0.0419 -1.8955
17365SOL    HW254988   8.200   7.339   2.736  1.5365  0.8737  0.9250
17366SOL     OW54989   3.602   8.996   4.655  0.0378 -0.1515  0.3109
17366SOL    HW154990   3.562   8.928   4.601 -0.4360  0.7371 -0.4846
17366SOL    HW254991   3.694   8.971   4.661  0.2888  0.1381 -1.6120
17367SOL     OW54992   0.526   0.426   7.303 -0.3846  0.3906 -0.0632
17367SOL    HW154993   0.568   0.344   7.276  0.0740 -0.1972  2.2483
17367SOL    HW254994   0.599   0.486   7.317 -0.4384  0.1286  1.5230
17368SOL     OW54995   2.875   6.873   1.109  0.5423 -0.0069  0.8309
17368SOL    HW154996   2.787   6.840   1.123  0.3844 -0.4610 -1.0117
17368SOL    HW254997   2.864   6.968   1.104 -0.5979 -0.1671 -3.3695
17369SOL     OW54998   2.594   0.004   8.989  0.1292  0.0569  0.1869
17369SOL    HW154999   2.653  -0.017   8.917  0.0543 -0.1502  0.1855
17369SOL    HW255000   2.507   0.010   8.949 -0.0666 -1.0410  0.4114
17370SOL     OW55001   3.875   2.505   7.415 -0.4841 -0.1808 -0.4076
17370SOL    HW155002   3.857   2.480   7.324 -1.0687  1.5146 -0.7919
17370SOL    HW255003   3.891   2.599   7.411  0.2841 -0.2147  1.1501
17371SOL     OW55004   7.264   8.901   1.985  0.0235 -0.1652 -0.3280
17371SOL    HW155005   7.287   8.979   2.035  1.4298 -1.9349  2.0329
17371SOL    HW255006   7.282   8.828   2.045 -1.1394 -2.3307 -2.4206
17372SOL     OW55007   1.218   9.003   6.729 -0.0045  0.5379 -0.1895
17372SOL    HW155008   1.307   8.989   6.760 -0.3410  0.3034  0.7068
17372SOL    HW255009   1.227   9.014   6.635  0.9951  0.7553 -0.0814
17373SOL     OW55010   6.044   6.872   8.826  0.6526  0.3373  0.2391
17373SOL    HW155011   5.957   6.843   8.799  1.0555 -0.9292  0.2038
17373SOL    HW255012   6.100   6.797   8.808  1.6754  0.9756  0.6784
17374SOL     OW55013   4.015   0.640   8.898 -0.2879 -0.3441  0.2420
17374SOL    HW155014   4.035   0.645   8.805  2.6590  0.8684  0.8303
17374SOL    HW255015   4.100   0.628   8.940 -1.3087  0.9078  2.8810
17375SOL     OW55016   3.755   8.795   0.711 -0.1916  0.2997 -0.4058
17375SOL    HW155017   3.797   8.786   0.626 -0.3756 -2.2887 -0.3182
17375SOL    HW255018   3.826   8.820   0.770 -0.0355  1.9741 -1.2310
17376SOL     OW55019   3.794   0.482   8.886  0.0412  0.1272 -0.0493
17376SOL    HW155020   3.870   0.540   8.889  0.8502 -0.9368  1.7783
17376SOL    HW255021   3.798   0.443   8.798  2.1964 -0.6133  0.3057
17377SOL     OW55022   3.963   6.393   7.956  0.0682  0.2730 -0.1927
17377SOL    HW155023   4.008   6.475   7.937  0.6176  0.2229  0.8097
17377SOL    HW255024   4.031   6.337   7.994 -1.2660  0.9834  3.6068
17378SOL     OW55025   4.145   5.744   4.461  0.5065 -0.3792  0.4552
17378SOL    HW155026   4.231   5.729   4.423  1.4900  0.6626  2.1423
17378SOL    HW255027   4.113   5.823   4.416  0.0735 -1.1760 -0.6899
17379SOL     OW55028   4.388   2.356   8.226 -0.1996  0.5598 -0.0361
17379SOL    HW155029   4.380   2.321   8.138  0.8706 -0.2960  0.1830
17379SOL    HW255030   4.370   2.281   8.283  0.3126  0.8137  0.4650
17380SOL     OW55031   0.871   1.678   8.924 -0.5382 -0.0008  0.0021
17380SOL    HW155032   0.885   1.668   9.018  1.1920  1.3294 -0.0697
17380SOL    HW255033   0.825   1.598   8.898  3.8200 -3.2002  0.9765
17381SOL     OW55034   5.402   5.428   6.501 -0.1092 -0.3928 -0.0837
17381SOL    HW155035   5.388   5.479   6.422 -2.2255 -0.5219  0.1661
17381SOL    HW255036   5.486   5.384   6.487  0.1722  0.6027 -1.6768
17382SOL     OW55037   0.888   1.827   6.692  1.1715 -0.1440  0.0115
17382SOL    HW155038   0.969   1.869   6.661  1.3192 -0.7191 -0.3955
17382SOL    HW255039   0.860   1.882   6.765  0.7647  1.3144 -1.1753
17383SOL     OW55040   1.058   9.221   1.016 -0.6999 -0.3159  0.8671
17383SOL    HW155041   1.140   9.191   1.056 -0.0015 -0.1920 -0.4094
17383SOL    HW255042   1.007   9.140   1.003  1.1760 -1.1604 -2.5627
17384SOL     OW55043   4.404   3.905   6.028 -1.0641 -0.0023  0.1789
17384SOL    HW155044   4.361   3.961   6.093 -1.0192  0.7256 -0.4042
17384SOL    HW255045   4.352   3.917   5.949 -1.5346 -1.4206  0.2419
17385SOL     OW55046   0.370   7.498   0.748  0.0936  0.1040 -0.3256
17385SOL    HW155047   0.431   7.486   0.676 -0.3460 -1.7128 -0.4468
17385SOL    HW255048   0.423   7.534   0.819  0.9940 -0.1000 -0.8860
17386SOL     OW55049   5.998   0.813   1.856  0.3278 -0.3379  0.2288
17386SOL    HW155050   5.970   0.734   1.901 -0.6075 -0.1675 -0.0348
17386SOL    HW255051   6.091   0.799   1.837  0.1920 -1.3268  0.2705
17387SOL     OW55052   8.584   5.758   4.533 -0.4853 -0.0393 -0.3536
17387SOL    HW155053   8.604   5.699   4.606 -2.0303  0.8199  0.8034
17387SOL    HW255054   8.537   5.703   4.470 -0.0982 -0.5222 -0.2297
17388SOL     OW55055   3.743   7.546   6.478  0.4634  0.0102  0.4857
17388SOL    HW155056   3.712   7.577   6.393  0.5218 -0.8351  0.1469
17388SOL    HW255057   3.739   7.451   6.472 -0.5609 -0.0522  1.8266
17389SOL     OW55058   8.996   6.396   4.127 -0.0735  0.3515  0.0015
17389SOL    HW155059   9.042   6.438   4.200  1.3624 -1.9786  0.5689
17389SOL    HW255060   8.914   6.366   4.164  0.2434 -0.0037  0.4277
17390SOL     OW55061   4.997   0.883   7.471  0.0164 -0.8696 -0.0030
17390SOL    HW155062   5.004   0.912   7.562 -0.0628  0.9537 -0.5300
17390SOL    HW255063   4.908   0.848   7.463  0.1863 -1.4937  0.7231
17391SOL     OW55064   2.798   0.142   5.896  0.0485 -0.0634  0.1271
17391SOL    HW155065   2.747   0.164   5.974  0.8535 -0.0655  0.6607
17391SOL    HW255066   2.781   0.215   5.835 -0.3269  0.0966  0.4183
17392SOL     OW55067   8.281   0.322   2.665 -0.3053 -0.0159 -0.0127
17392SOL    HW155068   8.295   0.376   2.587 -0.3825  0.8539  0.5721
17392SOL    HW255069   8.208   0.362   2.710  0.3782  0.0928  1.0394
17393SOL     OW55070   3.352   3.394   1.323  0.1299  0.9714  0.1852
17393SOL    HW155071   3.286   3.400   1.393  0.0434  0.9975  0.1020
17393SOL    HW255072   3.435   3.389   1.369  0.0135  0.0424  0.3148
17394SOL     OW55073   1.738   7.387   0.876  0.2342  0.1251 -0.9129
17394SOL    HW155074   1.646   7.412   0.869  0.2472  0.2977 -0.4736
17394SOL    HW255075   1.776   7.452   0.935  0.1741 -1.1225  0.5713
17395SOL     OW55076   9.083   5.464   1.847  0.2013  0.1193  0.8979
17395SOL    HW155077   9.045   5.465   1.760 -1.1405  1.0611  1.4745
17395SOL    HW255078   9.018   5.418   1.901  0.0807  1.3164  1.7980
17396SOL     OW55079   6.258   4.490   9.010  0.1712  0.6751  0.0084
17396SOL    HW155080   6.254   4.582   9.037 -0.2067  0.6091  0.1891
17396SOL    HW255081   6.336   4.485   8.954  0.3861  1.0316  0.2677
17397SOL     OW55082   6.690   3.287   8.824  0.2032 -0.0801 -0.5708
17397SOL    HW155083   6.601   3.261   8.804  0.0200 -0.0108  0.1305
17397SOL    HW255084   6.710   3.244   8.907  0.5555  0.5044 -0.3445
17398SOL     OW55085   4.607   4.336   3.489 -0.3337  0.2072  0.6339
17398SOL    HW155086   4.626   4.327   3.583 -0.1689  1.1071  0.7025
17398SOL    HW255087   4.513   4.319   3.482 -0.0511 -1.5986  0.6886
17399SOL     OW55088   8.440   0.063   3.803 -0.2131  0.3320 -0.3595
17399SOL    HW155089   8.379  -0.008   3.784  0.0994  0.0601 -0.3515
17399SOL    HW255090   8.429   0.124   3.730  0.2263 -0.1992 -0.8805
17400SOL     OW55091   8.458   7.707   1.031  0.0249  0.2734 -0.1431
17400SOL    HW155092   8.414   7.663   0.958  0.4489 -1.0244  0.3560
17400SOL    HW255093   8.516   7.771   0.990  0.7300 -0.8741 -0.9907
17401SOL     OW55094   5.115   9.018   5.659 -0.2378  0.9648 -0.1009
17401SOL    HW155095   5.198   9.008   5.611 -0.1659  0.6954  0.0730
17401SOL    HW255096   5.138   8.997   5.750 -0.1952  2.2674  0.2030
17402SOL     OW55097   4.216   4.859   7.036  0.5991  0.9005  0.7629
17402SOL    HW155098   4.131   4.865   7.081 -0.1872  0.0181 -0.5504
17402SOL    HW255099   4.264   4.791   7.084 -0.3982 -0.3360  0.0659
17403SOL     OW55100   1.516   7.324   2.934  0.1504 -0.6932 -0.2794
17403SOL    HW155101   1.427   7.305   2.904  0.5364 -3.3374  0.0111
17403SOL    HW255102   1.568   7.252   2.900  1.7403 -0.5283  1.6357
17404SOL     OW55103   6.896   5.351   1.417  0.2813  0.2300 -0.5581
17404SOL    HW155104   6.832   5.404   1.464  0.1139  0.9252 -1.5425
17404SOL    HW255105   6.850   5.320   1.339  1.0661  0.5728 -1.1720
17405SOL     OW55106   2.797   3.813   0.207 -0.1586 -0.1505 -0.3275
17405SOL    HW155107   2.709   3.824   0.241  1.0209  0.9089  2.7502
17405SOL    HW255108   2.836   3.901   0.212  1.1253 -0.6290 -1.4133
17406SOL     OW55109   5.032   6.938   5.565  0.7889 -0.0538 -0.2318
17406SOL    HW155110   4.954   6.967   5.614 -0.5253 -1.2877 -1.4955
17406SOL    HW255111   5.076   7.019   5.541 -0.0708  0.6772  0.5666
17407SOL     OW55112   2.129   8.576   3.553  0.3945  0.1220  0.0527
17407SOL    HW155113   2.075   8.497   3.553  0.0824  0.3077  1.7570
17407SOL    HW255114   2.076   8.642   3.596  1.0807  0.9752 -0.3787
17408SOL     OW55115   8.583   3.276   8.058  0.4175  0.0351  0.2343
17408SOL    HW155116   8.553   3.233   7.978 -1.4152 -1.8375  1.8076
17408SOL    HW255117   8.523   3.245   8.125  1.0165  2.6519  2.1047
17409SOL     OW55118   5.183   3.843   8.745  0.1408  0.7726  0.4320
17409SOL    HW155119   5.194   3.937   8.759  0.4814  0.5793  1.5843
17409SOL    HW255120   5.184   3.806   8.833 -3.1311 -0.0086  0.2685
17410SOL     OW55121   0.705   0.583   7.780  0.1769  0.7684 -0.0511
17410SOL    HW155122   0.761   0.529   7.725 -1.6628 -0.9023 -0.3994
17410SOL    HW255123   0.688   0.530   7.858 -0.3315  1.5359  0.3830
17411SOL     OW55124   9.208   1.766   7.726 -0.4769  0.0391  0.9182
17411SOL    HW155125   9.256   1.691   7.692  0.1797  0.2596  1.3467
17411SOL    HW255126   9.144   1.786   7.657  1.6549  1.2827 -0.8280
17412SOL     OW55127   4.685   0.278   6.380 -0.1177 -0.0306 -0.3361
17412SOL    HW155128   4.647   0.313   6.300 -1.0993  2.3635  1.0684
17412SOL    HW255129   4.755   0.340   6.402  1.8859 -2.0476 -0.6111
17413SOL     OW55130   4.489   7.583   2.378  0.2724 -0.1582  0.2933
17413SOL    HW155131   4.564   7.568   2.436 -0.9884 -0.6040  1.8755
17413SOL    HW255132   4.459   7.671   2.400  1.1467  0.5606 -1.3200
17414SOL     OW55133   9.160   7.598   0.161 -0.2209  0.1867  0.0330
17414SOL    HW155134   9.146   7.587   0.067 -0.2480  0.4519  0.0068
17414SOL    HW255135   9.112   7.525   0.200 -1.5090  0.9455 -0.0766
17415SOL     OW55136   2.783   7.814   2.705  0.5487 -0.2853 -0.5532
17415SOL    HW155137   2.828   7.862   2.636  1.5247 -1.1616 -0.5541
17415SOL    HW255138   2.783   7.874   2.780  0.7437  0.1315 -0.8851
17416SOL     OW55139   4.074   3.736   7.106 -0.3271  0.0771  0.3484
17416SOL    HW155140   4.167   3.744   7.083 -0.6188 -0.3523 -1.1107
17416SOL    HW255141   4.071   3.753   7.200  0.8701  2.9995 -0.0156
17417SOL     OW55142   7.004   5.431   5.122 -0.7485 -0.4650 -0.1348
17417SOL    HW155143   7.092   5.461   5.148 -0.1307 -3.8637  2.4426
17417SOL    HW255144   7.007   5.427   5.026  0.8427  2.1785 -0.2968
17418SOL     OW55145   7.085   4.483   5.760  0.2994  0.1937 -0.0301
17418SOL    HW155146   7.134   4.422   5.706 -2.0538 -0.2731 -1.7839
17418SOL    HW255147   7.077   4.440   5.845  1.4039 -0.4710 -0.2554
17419SOL     OW55148   4.511   3.422   9.062 -0.4497 -0.1934  0.2134
17419SOL    HW155149   4.467   3.454   8.984  0.1082  1.1733  0.4325
17419SOL    HW255150   4.577   3.489   9.082  1.6186 -2.0496  0.0117
17420SOL     OW55151   7.811   7.784   8.693 -0.4168  0.6962  0.4592
17420SOL    HW155152   7.787   7.825   8.610  0.9055  1.0650  0.2339
17420SOL    HW255153   7.743   7.718   8.708 -0.3151  0.1475 -1.2639
17421SOL     OW55154   4.470   5.164   7.705  0.3246  0.5482 -0.5215
17421SOL    HW155155   4.504   5.253   7.715 -0.4348  1.1215 -2.5660
17421SOL    HW255156   4.541   5.116   7.663  1.1665 -0.1694  1.6112
17422SOL     OW55157   5.512   5.487   8.177  0.4531 -0.1381  0.0709
17422SOL    HW155158   5.491   5.395   8.187 -0.7347 -0.0172 -1.0607
17422SOL    HW255159   5.599   5.487   8.135  0.6817 -0.7154  0.5337
17423SOL     OW55160   5.475   7.838   0.788  0.0207  0.3257 -0.0170
17423SOL    HW155161   5.393   7.836   0.837 -0.6428  0.8218 -1.0737
17423SOL    HW255162   5.530   7.900   0.835 -1.3065  2.2824 -0.9381
17424SOL     OW55163   7.880   1.137   1.437 -0.0164  0.3349 -0.0438
17424SOL    HW155164   7.813   1.158   1.502 -0.0707 -1.1290  0.4164
17424SOL    HW255165   7.851   1.055   1.398  0.6473  0.5703 -1.0590
17425SOL     OW55166   2.153   6.999   7.827  0.1058  0.4117 -0.1020
17425SOL    HW155167   2.180   6.908   7.831 -1.8942 -0.1854  0.7851
17425SOL    HW255168   2.058   6.997   7.837 -0.1760  2.4877 -1.6721
17426SOL     OW55169   0.320   6.320   3.792 -0.1198  0.3620 -0.5418
17426SOL    HW155170   0.357   6.282   3.871  0.9963  1.8099 -0.3168
17426SOL    HW255171   0.396   6.355   3.745 -0.7699 -0.3823 -2.2216
17427SOL     OW55172   0.622   0.005   5.479  0.2617 -0.0967  0.4373
17427SOL    HW155173   0.583   0.047   5.402  0.4769 -0.0545  0.3481
17427SOL    HW255174   0.715  -0.003   5.456  0.3253 -0.0823  0.6950
17428SOL     OW55175   1.701   0.297   8.292  0.2698 -0.7199  0.1390
17428SOL    HW155176   1.794   0.320   8.291  0.0141  0.8576  2.7491
17428SOL    HW255177   1.657   0.374   8.253 -0.0525 -0.6562  0.6270
17429SOL     OW55178   8.115   2.766   5.492  0.4871 -0.4948 -0.0105
17429SOL    HW155179   8.104   2.759   5.587  0.6364 -0.6132 -0.0016
17429SOL    HW255180   8.184   2.704   5.471  1.1116  0.2022 -0.0704
17430SOL     OW55181   1.950   5.884   6.896 -0.1798 -0.7068  0.0877
17430SOL    HW155182   1.863   5.844   6.905 -0.6285 -0.3305 -2.0939
17430SOL    HW255183   2.008   5.809   6.881 -0.7311 -0.7802 -2.0744
17431SOL     OW55184   4.979   8.155   3.682 -0.7272  0.3464 -0.6079
17431SOL    HW155185   5.025   8.130   3.601 -0.1620  0.1858 -0.2456
17431SOL    HW255186   5.026   8.108   3.751 -1.1274  0.5829 -0.1709
17432SOL     OW55187   8.950   3.571   4.660  0.5796  0.5731 -0.1189
17432SOL    HW155188   9.040   3.555   4.629  1.2782  0.8825  1.6213
17432SOL    HW255189   8.949   3.537   4.749 -0.8404  1.1989  0.1243
17433SOL     OW55190   1.902   7.398   4.895 -0.6386  0.1451 -0.2338
17433SOL    HW155191   1.897   7.392   4.800  0.4239  0.2751 -0.3123
17433SOL    HW255192   1.864   7.483   4.916 -0.7455  0.1794 -0.5589
17434SOL     OW55193   3.351   5.911   0.320 -0.0079  0.3927 -0.9304
17434SOL    HW155194   3.321   5.991   0.277  0.4018  0.0002 -1.9972
17434SOL    HW255195   3.355   5.933   0.413 -0.8395  1.3050 -1.0973
17435SOL     OW55196   4.866   8.443   3.650 -0.4227  0.8123 -0.1729
17435SOL    HW155197   4.885   8.500   3.725  0.5314 -1.0766  1.0860
17435SOL    HW255198   4.931   8.373   3.655 -0.8845  0.1484 -2.2858
17436SOL     OW55199   8.190   6.856   0.375  0.1887  0.0187 -0.0002
17436SOL    HW155200   8.123   6.820   0.433 -0.8085  0.6560 -0.6946
17436SOL    HW255201   8.271   6.850   0.424 -0.4397 -0.4703  1.0166
17437SOL     OW55202   5.307   4.269   0.169 -0.1319 -0.2700  0.6177
17437SOL    HW155203   5.364   4.228   0.104  2.3533 -1.1416  3.0872
17437SOL    HW255204   5.346   4.354   0.185 -1.9191  0.8000 -0.3819
17438SOL     OW55205   2.639   4.559   4.816  0.7378  0.1132  0.4403
17438SOL    HW155206   2.682   4.478   4.845  0.5155  0.1223  0.7982
17438SOL    HW255207   2.655   4.621   4.887  1.8991  0.7429 -0.3297
17439SOL     OW55208   9.086   3.941   8.572 -0.5405  0.4068 -0.7800
17439SOL    HW155209   9.102   4.014   8.632  0.7423 -0.0807 -0.4945
17439SOL    HW255210   9.077   3.865   8.630 -0.4128  0.1161 -1.1387
17440SOL     OW55211   7.598   8.218   9.188  0.1358 -0.1475 -0.3715
17440SOL    HW155212   7.670   8.158   9.204 -0.3181 -0.3081  1.2503
17440SOL    HW255213   7.615   8.292   9.246  1.7983  2.4084 -3.7101
17441SOL     OW55214   2.305   9.255   3.048  0.2171  0.2088  0.5746
17441SOL    HW155215   2.323   9.274   2.955 -2.9204 -2.1976 -0.6887
17441SOL    HW255216   2.382   9.206   3.077  0.6246 -0.3248 -1.2341
17442SOL     OW55217   4.849   1.338   6.867  0.2231 -0.1471  0.3614
17442SOL    HW155218   4.931   1.363   6.909  0.6065  0.0150 -0.4707
17442SOL    HW255219   4.861   1.246   6.844 -0.3389 -0.4995  1.4194
17443SOL     OW55220   4.919   8.164   2.119  0.2929 -0.1494 -0.3774
17443SOL    HW155221   4.968   8.194   2.196 -0.9519 -1.6936  1.1122
17443SOL    HW255222   4.835   8.211   2.125 -0.2556 -1.1377 -0.0951
17444SOL     OW55223   2.756   0.049   3.671  0.1803 -0.6260  0.1658
17444SOL    HW155224   2.758  -0.044   3.690  0.0376 -0.4170  1.2341
17444SOL    HW255225   2.677   0.082   3.715  1.6247  0.4611  2.0779
17445SOL     OW55226   6.452   3.133   8.228 -0.1565  0.5649  0.2637
17445SOL    HW155227   6.460   3.044   8.194  0.4616  0.3616  0.9207
17445SOL    HW255228   6.365   3.135   8.268 -0.8239  0.7579 -1.1567
17446SOL     OW55229   1.093   1.131   5.611 -0.1721 -0.2849  0.0427
17446SOL    HW155230   1.073   1.061   5.549 -0.4885  0.8897 -1.2356
17446SOL    HW255231   1.017   1.188   5.609  0.6848  0.8955 -0.1032
17447SOL     OW55232   8.078   1.098   4.016 -0.0616 -0.2910  0.0677
17447SOL    HW155233   8.141   1.069   3.950 -0.3681  0.5033 -0.6011
17447SOL    HW255234   7.992   1.082   3.977 -0.2724 -0.6499  0.6546
17448SOL     OW55235   2.778   7.793   2.062 -0.0402  0.4432  0.4772
17448SOL    HW155236   2.810   7.735   2.130 -1.0986 -0.5275  0.1771
17448SOL    HW255237   2.685   7.772   2.054 -0.9824  3.5498  1.7290
17449SOL     OW55238   3.598   0.621   3.739 -0.1645  0.5347  0.3982
17449SOL    HW155239   3.573   0.606   3.648  0.6323 -1.0724  0.4107
17449SOL    HW255240   3.522   0.592   3.789 -0.1972  0.4316  0.2893
17450SOL     OW55241   4.569   3.580   8.208 -0.1878 -0.1506 -0.0403
17450SOL    HW155242   4.613   3.626   8.279 -0.1721 -0.8140  0.3952
17450SOL    HW255243   4.486   3.552   8.245 -0.5857  0.2980 -0.5753
17451SOL     OW55244   8.109   4.973   1.907  0.4381 -0.1647 -0.2556
17451SOL    HW155245   8.141   4.932   1.988 -0.6097 -0.1770  0.1638
17451SOL    HW255246   8.014   4.974   1.917  0.3819  1.4812 -0.6807
17452SOL     OW55247   4.750   3.390   3.681 -0.1204 -0.1110 -0.0864
17452SOL    HW155248   4.700   3.453   3.734  1.4888  0.5725  0.6611
17452SOL    HW255249   4.718   3.404   3.591 -2.3941 -0.8155  0.5346
17453SOL     OW55250   0.071   0.470   1.984  0.2627  0.2114 -0.3807
17453SOL    HW155251   0.017   0.531   1.933  0.2249  0.4722 -0.0297
17453SOL    HW255252   0.008   0.417   2.032  0.3196  0.8844  0.4592
17454SOL     OW55253   1.704   5.368   5.723 -0.4341 -0.0287 -0.5341
17454SOL    HW155254   1.642   5.416   5.777 -0.0031  0.2811 -0.3077
17454SOL    HW255255   1.752   5.314   5.785 -0.3390 -0.1137 -0.6816
17455SOL     OW55256   5.309   8.437   5.752  0.7167  0.0482  0.3319
17455SOL    HW155257   5.301   8.384   5.673  0.1027 -0.6473  0.8451
17455SOL    HW255258   5.361   8.384   5.812 -1.9757 -1.1424  1.7744
17456SOL     OW55259   4.301   1.932   0.768  0.0584  0.2966  0.3176
17456SOL    HW155260   4.342   1.869   0.709  1.1705  0.2067  1.1606
17456SOL    HW255261   4.279   2.006   0.712  2.0270  0.6536 -0.0590
17457SOL     OW55262   2.346   6.111   2.121  0.2706 -0.5339 -0.1009
17457SOL    HW155263   2.402   6.059   2.063 -1.4102 -1.7551 -0.7440
17457SOL    HW255264   2.357   6.071   2.207 -0.1206 -1.2451 -0.3676
17458SOL     OW55265   5.260   0.621   6.155  0.0009 -0.0809  0.3881
17458SOL    HW155266   5.318   0.692   6.128 -0.2554  0.2820  0.7886
17458SOL    HW255267   5.176   0.642   6.113 -0.9497  1.4794  2.8239
17459SOL     OW55268   6.921   0.369   8.809  0.3811 -0.1415  0.0370
17459SOL    HW155269   6.948   0.288   8.764 -0.6236 -0.5303  0.1078
17459SOL    HW255270   6.999   0.398   8.855  0.3034 -2.0925  1.5139
17460SOL     OW55271   3.221   8.275   6.053  0.2421  0.1548  0.4859
17460SOL    HW155272   3.155   8.260   5.985  1.5073  0.2607 -0.8333
17460SOL    HW255273   3.184   8.238   6.132 -1.3603  0.1622 -0.2293
17461SOL     OW55274   6.739   9.169   2.311  0.3160  0.1245 -0.5771
17461SOL    HW155275   6.691   9.122   2.380 -0.1296  0.5313 -0.5991
17461SOL    HW255276   6.740   9.108   2.237  4.2404 -1.9922  0.9404
17462SOL     OW55277   5.269   5.689   4.638  0.4438  0.3356 -0.3543
17462SOL    HW155278   5.222   5.740   4.572 -2.0938  1.4761  2.1112
17462SOL    HW255279   5.224   5.605   4.640  0.9346  0.0630 -0.4904
17463SOL     OW55280   1.758   8.754   4.746 -0.3702 -0.2086 -0.6822
17463SOL    HW155281   1.685   8.768   4.686 -1.0231 -1.9874 -0.3825
17463SOL    HW255282   1.788   8.665   4.726  0.3178 -0.2988  0.6594
17464SOL     OW55283   8.849   6.687   6.886  0.4377 -0.2424 -0.5481
17464SOL    HW155284   8.852   6.593   6.903 -0.5077 -0.2058 -0.0820
17464SOL    HW255285   8.822   6.694   6.794 -0.6032 -0.4407 -0.2734
17465SOL     OW55286   8.835   1.829   7.976  0.0380 -0.2897 -0.0087
17465SOL    HW155287   8.806   1.744   8.010  0.6952 -0.6630 -0.3741
17465SOL    HW255288   8.783   1.842   7.896  0.2265 -0.5365 -0.1723
17466SOL     OW55289   2.169   3.684   4.260 -0.0242 -0.0219  0.1200
17466SOL    HW155290   2.218   3.750   4.211 -0.5998  1.7376  1.7778
17466SOL    HW255291   2.087   3.728   4.284 -0.0764 -1.0167  1.9859
17467SOL     OW55292   2.243   7.443   9.027 -0.0639  0.1171  0.0500
17467SOL    HW155293   2.235   7.364   8.974  1.5081  0.0989 -0.2299
17467SOL    HW255294   2.252   7.514   8.963 -2.6400  0.7417  0.2708
17468SOL     OW55295   4.665   7.788   3.191 -0.5474 -0.4479 -0.2867
17468SOL    HW155296   4.639   7.873   3.227 -0.9410 -0.5337 -0.3701
17468SOL    HW255297   4.604   7.725   3.229  1.4727 -1.1505  2.0678
17469SOL     OW55298   6.586   0.017   0.242 -1.1845 -0.5521 -0.1695
17469SOL    HW155299   6.649  -0.019   0.304 -0.6952 -0.6730 -0.7257
17469SOL    HW255300   6.578  -0.051   0.175 -1.6425 -0.3892 -0.2829
17470SOL     OW55301   4.876   8.433   0.503  0.2913 -0.2917 -0.2731
17470SOL    HW155302   4.868   8.503   0.439  1.9855  0.6396  0.4883
17470SOL    HW255303   4.954   8.454   0.554 -0.2492 -1.6947  1.2594
17471SOL     OW55304   1.100   5.655   3.440 -0.1260  0.6201  0.6839
17471SOL    HW155305   1.130   5.680   3.527  1.0270 -2.2127  1.1918
17471SOL    HW255306   1.164   5.693   3.381  2.9375 -2.6458  1.5679
17472SOL     OW55307   4.489   1.228   3.111  0.3815 -0.2177  0.3712
17472SOL    HW155308   4.452   1.258   3.028  0.9524 -1.8546 -0.5313
17472SOL    HW255309   4.551   1.297   3.136 -0.8356  0.9813  0.2188
17473SOL     OW55310   0.744   3.653   4.547 -0.5616  0.5306 -0.2973
17473SOL    HW155311   0.801   3.652   4.624 -0.9777 -0.3973  0.0178
17473SOL    HW255312   0.683   3.581   4.562  1.1449 -1.6246 -2.8627
17474SOL     OW55313   0.075   1.922   7.883 -0.1252 -0.1659 -0.2759
17474SOL    HW155314   0.012   1.874   7.830 -0.7478 -1.3864  1.4773
17474SOL    HW255315   0.159   1.879   7.865 -0.3787 -0.7505 -0.0936
17475SOL     OW55316   7.388   6.592   2.001  0.3908  0.2618  0.2165
17475SOL    HW155317   7.406   6.507   2.039  1.6306 -0.6618 -2.2059
17475SOL    HW255318   7.309   6.579   1.949  1.0006  0.3473 -0.7588
17476SOL     OW55319   5.405   7.130   4.123  0.1173 -0.3334  0.9059
17476SOL    HW155320   5.488   7.083   4.125  0.4355  0.1223 -0.3266
17476SOL    HW255321   5.340   7.064   4.098  0.5140 -0.2286 -0.5213
17477SOL     OW55322   5.206   5.148   9.078 -0.6862  0.2703  0.0185
17477SOL    HW155323   5.270   5.175   9.012  1.3194  0.5578  1.9673
17477SOL    HW255324   5.169   5.230   9.110  0.0070  0.2902  0.7965
17478SOL     OW55325   6.042   4.033   0.544 -0.5618  0.0305  0.0648
17478SOL    HW155326   6.000   4.002   0.463 -0.9732  0.0204  0.2763
17478SOL    HW255327   6.033   4.129   0.540 -0.2747  0.0530 -0.0633
17479SOL     OW55328   4.828   9.113   5.295 -0.3885 -0.3665  0.3143
17479SOL    HW155329   4.875   9.117   5.212 -1.0927 -0.3973 -0.0931
17479SOL    HW255330   4.884   9.059   5.351  0.0362 -0.4439 -0.1733
17480SOL     OW55331   3.767   5.598   7.418 -0.0253  0.0567 -0.3005
17480SOL    HW155332   3.797   5.687   7.396  0.2953  0.0287  0.0173
17480SOL    HW255333   3.748   5.558   7.333 -0.6398  0.5872 -0.4212
17481SOL     OW55334   0.363   0.406   2.008  0.2013  0.0206  0.2187
17481SOL    HW155335   0.273   0.378   2.021 -0.5184  0.0506 -3.5614
17481SOL    HW255336   0.371   0.420   1.913  3.9558  0.8233  0.4745
17482SOL     OW55337   3.258   7.811   7.902  0.3489 -0.3592  0.3252
17482SOL    HW155338   3.343   7.856   7.894  0.6270 -0.8022  0.7113
17482SOL    HW255339   3.209   7.838   7.824 -0.3174  2.3326  1.5556
17483SOL     OW55340   2.729   5.631   5.007  0.2309 -0.0101 -0.5868
17483SOL    HW155341   2.726   5.701   4.941  1.3503  0.8268  0.2074
17483SOL    HW255342   2.801   5.575   4.979 -0.4546 -0.6833 -1.0420
17484SOL     OW55343   3.862   0.131   1.994 -0.1089  0.8758  0.2764
17484SOL    HW155344   3.888   0.067   1.928  1.5025  2.8527 -1.1458
17484SOL    HW255345   3.792   0.088   2.043 -1.5635 -0.6383 -2.8482
17485SOL     OW55346   4.099   5.956   1.404  0.2258  0.7205  0.4066
17485SOL    HW155347   4.051   5.914   1.333  0.3766  1.3402 -0.0717
17485SOL    HW255348   4.035   5.965   1.474 -0.5457  2.0830 -0.4371
17486SOL     OW55349   0.785   0.359   2.530  0.6316 -0.2029 -0.0562
17486SOL    HW155350   0.704   0.349   2.580  1.1961 -1.5272  0.6421
17486SOL    HW255351   0.843   0.291   2.563  3.0162  2.2589  1.3096
17487SOL     OW55352   8.380   8.810   4.469  0.4000  0.6855  0.1046
17487SOL    HW155353   8.401   8.796   4.562 -0.1701  0.7531  0.2475
17487SOL    HW255354   8.384   8.722   4.431 -1.0383  0.4017  0.5537
17488SOL     OW55355   8.378   1.531   8.032  0.0079  0.2191  0.0349
17488SOL    HW155356   8.365   1.443   8.068 -0.1218 -0.5553 -1.8146
17488SOL    HW255357   8.291   1.558   8.002  0.2222  0.5913 -0.2611
17489SOL     OW55358   2.935   3.185   5.585  0.0982 -0.4550  0.0570
17489SOL    HW155359   2.898   3.140   5.661 -1.0943  0.9632  0.3633
17489SOL    HW255360   2.920   3.278   5.603  1.0257 -0.0256 -1.2941
17490SOL     OW55361   3.834   1.024   8.623 -0.3134  0.2601 -1.1237
17490SOL    HW155362   3.926   1.003   8.603 -0.3847 -2.9099  1.2132
17490SOL    HW255363   3.792   1.030   8.537  1.4937 -1.3077 -2.1895
17491SOL     OW55364   5.284   9.234   6.251 -0.4320  0.3269  0.0369
17491SOL    HW155365   5.289   9.302   6.318 -1.3860 -0.2402  0.7255
17491SOL    HW255366   5.191   9.226   6.232 -0.2730 -0.3175 -0.5194
17492SOL     OW55367   2.009   5.549   3.926  0.1817 -0.7842 -0.0622
17492SOL    HW155368   2.084   5.565   3.983  0.7133  1.8497 -1.3299
17492SOL    HW255369   1.934   5.544   3.985  1.0582 -1.1226  1.0594
17493SOL     OW55370   4.360   6.848   4.394  0.1477  0.6143  0.2588
17493SOL    HW155371   4.291   6.915   4.385  2.1092  2.8401  0.6295
17493SOL    HW255372   4.407   6.852   4.311  1.9525  1.7823  1.2605
17494SOL     OW55373   6.909   5.469   2.423  0.6947 -0.0936 -0.0103
17494SOL    HW155374   6.937   5.447   2.512  0.2149 -0.0356  0.1592
17494SOL    HW255375   6.976   5.531   2.392  1.2313 -0.6318  0.0577
17495SOL     OW55376   7.554   2.530   2.404  0.1786 -0.2389  0.3313
17495SOL    HW155377   7.479   2.585   2.425  0.4260 -0.3638  1.6260
17495SOL    HW255378   7.612   2.587   2.353 -1.0069 -0.3054 -1.1572
17496SOL     OW55379   4.511   0.024   0.839  0.3397  0.4450 -0.0792
17496SOL    HW155380   4.568  -0.009   0.771 -0.3404 -0.4616 -0.2374
17496SOL    HW255381   4.465   0.098   0.799  1.4615  1.2722  0.0955
17497SOL     OW55382   8.580   8.018   1.386  0.5519  0.1203 -0.0720
17497SOL    HW155383   8.539   7.936   1.414  1.7527 -0.0204  1.3485
17497SOL    HW255384   8.540   8.085   1.442  1.1548  0.1926  0.2745
17498SOL     OW55385   6.478   7.669   6.402 -1.0577  0.3205  0.4734
17498SOL    HW155386   6.469   7.723   6.481 -1.4255  1.3432 -0.2474
17498SOL    HW255387   6.572   7.650   6.398 -0.8187  1.4017  0.4465
17499SOL     OW55388   1.611   0.291   9.051 -0.3218  0.6667 -0.2586
17499SOL    HW155389   1.564   0.355   8.998  0.5749  1.0068 -0.6546
17499SOL    HW255390   1.696   0.281   9.008  0.8831  1.7941  1.6734
17500SOL     OW55391   3.261   7.516   9.072  0.0268  0.1642 -0.8651
17500SOL    HW155392   3.328   7.576   9.105  0.0098  0.7651 -1.8675
17500SOL    HW255393   3.309   7.453   9.019  0.0353 -0.6867  0.1263
17501SOL     OW55394   3.797   0.895   6.716 -0.0791  0.3170  0.4159
17501SOL    HW155395   3.882   0.933   6.693 -0.5829  0.1134 -2.0370
17501SOL    HW255396   3.741   0.971   6.733 -0.2924  0.6201 -1.4726
17502SOL     OW55397   6.505   7.883   5.465  0.2494  0.3494 -0.2131
17502SOL    HW155398   6.515   7.954   5.529 -0.7625 -0.5310  0.9844
17502SOL    HW255399   6.428   7.835   5.495  0.2089 -0.5592 -1.6795
17503SOL     OW55400   8.934   3.930   6.071  0.0610  0.1341  0.2231
17503SOL    HW155401   8.862   3.992   6.058  0.2320  0.0716 -1.1405
17503SOL    HW255402   9.005   3.965   6.018  0.9111 -0.0395  1.2188
17504SOL     OW55403   5.404   0.565   0.863  0.1967 -0.2759 -0.1250
17504SOL    HW155404   5.415   0.508   0.786  0.1708  0.6431 -0.8304
17504SOL    HW255405   5.493   0.592   0.886  0.1714 -0.1899 -0.1261
17505SOL     OW55406   0.455   1.162   8.401 -0.3000  0.9140  0.0647
17505SOL    HW155407   0.403   1.090   8.368 -1.0498  1.0801  0.8639
17505SOL    HW255408   0.456   1.226   8.329 -1.6192  1.1255  0.2256
17506SOL     OW55409   5.066   2.641   2.501  0.1862 -0.1019 -0.1644
17506SOL    HW155410   5.135   2.661   2.437  0.6129  1.2948  0.6867
17506SOL    HW255411   5.000   2.592   2.451  1.1048 -0.1736 -1.3481
17507SOL     OW55412   7.740   4.545   6.374 -0.0350  0.5167  0.4046
17507SOL    HW155413   7.771   4.475   6.432 -0.7501  0.8103  1.1583
17507SOL    HW255414   7.721   4.501   6.292 -1.2562 -0.3488  1.1145
17508SOL     OW55415   1.374   8.347   0.004  0.0061  0.1076  0.0318
17508SOL    HW155416   1.428   8.392   0.070 -0.4786 -0.5218  0.8782
17508SOL    HW255417   1.341   8.418  -0.051  1.0978  0.5679 -0.0612
17509SOL     OW55418   4.694   3.078   7.746 -0.5280 -0.7841  0.1951
17509SOL    HW155419   4.634   3.004   7.759  0.7601 -2.1200 -0.9936
17509SOL    HW255420   4.681   3.133   7.823 -2.3050 -1.6866  0.6173
17510SOL     OW55421   5.957   4.761   1.248 -0.6240  0.2335 -0.1798
17510SOL    HW155422   6.025   4.707   1.207  1.8205  2.0669  1.2387
17510SOL    HW255423   5.912   4.701   1.308  1.6529 -0.4611  0.9599
17511SOL     OW55424   2.966   2.421   2.190 -0.2204  0.0157 -0.3875
17511SOL    HW155425   2.922   2.341   2.219  0.8648 -0.7914 -0.8822
17511SOL    HW255426   2.969   2.476   2.269 -3.0687  0.6141 -0.5842
17512SOL     OW55427   2.055   2.806   3.717 -0.3057 -0.6312 -0.3579
17512SOL    HW155428   1.984   2.752   3.680  0.4093 -0.1578 -2.5775
17512SOL    HW255429   2.130   2.788   3.661  0.1893  1.9775 -0.6675
17513SOL     OW55430   7.560   6.984   8.019  0.4243  0.0056  0.2842
17513SOL    HW155431   7.468   6.956   8.015  0.6912 -0.8062 -0.6909
17513SOL    HW255432   7.610   6.903   8.004  1.2655  0.7203 -0.8941
17514SOL     OW55433   1.879   6.578   6.171 -0.5238 -0.6959 -0.0046
17514SOL    HW155434   1.972   6.577   6.147 -0.7212 -2.1325 -0.7790
17514SOL    HW255435   1.869   6.506   6.233 -0.7283  0.7941  1.7927
17515SOL     OW55436   3.361   3.437   8.672 -0.6936  0.0681 -0.3602
17515SOL    HW155437   3.396   3.480   8.750  1.2543 -1.5789 -0.2536
17515SOL    HW255438   3.298   3.374   8.706  1.1788 -1.6591  0.1084
17516SOL     OW55439   3.492   5.726   7.774  0.1512 -0.6384 -0.2443
17516SOL    HW155440   3.407   5.693   7.803  0.1081 -1.8673 -1.6631
17516SOL    HW255441   3.540   5.649   7.745  2.4138 -0.2108  1.9555
17517SOL     OW55442   5.173   4.893   0.269  0.2920  0.2856 -0.0998
17517SOL    HW155443   5.242   4.906   0.203  0.9217 -0.6102  0.3539
17517SOL    HW255444   5.093   4.924   0.226  0.9162  1.0443 -0.7585
17518SOL     OW55445   5.155   0.670   2.365  0.3516 -0.2715 -0.1387
17518SOL    HW155446   5.222   0.650   2.431  0.0074  1.1837  0.6827
17518SOL    HW255447   5.073   0.639   2.403  0.2714 -0.2323 -0.2783
17519SOL     OW55448   5.264   5.176   5.783  0.0898  0.1004 -0.1116
17519SOL    HW155449   5.197   5.243   5.779  0.9560  1.0174  0.2726
17519SOL    HW255450   5.316   5.197   5.861  0.0076 -1.3860  0.3848
17520SOL     OW55451   7.978   2.576   2.530  0.6141 -0.3476  0.2052
17520SOL    HW155452   7.987   2.611   2.441 -0.9521  0.3601  0.3056
17520SOL    HW255453   7.970   2.653   2.586  2.7746 -0.7234  1.1741
17521SOL     OW55454   3.792   6.453   4.105 -0.3015  0.3708  0.7438
17521SOL    HW155455   3.863   6.496   4.058 -1.6317  1.1132 -0.7033
17521SOL    HW255456   3.832   6.420   4.185  1.5221  1.2665  0.2530
17522SOL     OW55457   8.660   3.906   6.752  0.6389 -0.4515 -0.4797
17522SOL    HW155458   8.713   3.835   6.717  0.4152 -0.1647 -1.4220
17522SOL    HW255459   8.619   3.946   6.675 -0.1864 -0.0651  0.1454
17523SOL     OW55460   6.813   6.179   5.729 -0.0636  0.6414 -0.4028
17523SOL    HW155461   6.723   6.187   5.761 -0.0040  0.5051 -0.1964
17523SOL    HW255462   6.816   6.093   5.687 -0.0228  0.6326 -0.3824
17524SOL     OW55463   0.936   8.712   1.893 -0.3412  0.5453 -0.1510
17524SOL    HW155464   0.956   8.649   1.824  1.1993 -0.2967  0.9854
17524SOL    HW255465   0.899   8.660   1.964  1.4182  0.7604  0.9982
17525SOL     OW55466   4.546   2.056   6.193  0.2302 -0.5193  0.3312
17525SOL    HW155467   4.500   2.081   6.113 -3.3261 -1.0120  2.0135
17525SOL    HW255468   4.545   1.960   6.192 -1.5411 -0.5646  1.7353
17526SOL     OW55469   8.587   6.387   6.631 -0.3330 -0.1282  0.4551
17526SOL    HW155470   8.523   6.326   6.593 -0.2532 -1.1929  1.9570
17526SOL    HW255471   8.577   6.376   6.725  2.9557 -1.3350  0.7685
17527SOL     OW55472   2.309   5.714   7.871  0.7389  0.0328 -0.0984
17527SOL    HW155473   2.351   5.706   7.957 -0.9137 -0.9075  0.6597
17527SOL    HW255474   2.247   5.786   7.881 -0.5952 -1.1013  0.0139
17528SOL     OW55475   0.914   2.453   0.282  0.1983 -0.1518  0.4466
17528SOL    HW155476   0.960   2.460   0.199 -1.5310  0.6276 -0.5014
17528SOL    HW255477   0.822   2.469   0.260 -0.6242 -2.0129  2.1818
17529SOL     OW55478   2.198   1.209   5.299  0.5050  0.9184 -0.0897
17529SOL    HW155479   2.246   1.153   5.360  0.9869  1.0669 -0.3257
17529SOL    HW255480   2.119   1.159   5.278  0.3132  0.8911  0.6885
17530SOL     OW55481   0.689   6.672   6.264 -0.0070 -0.0543  0.5166
17530SOL    HW155482   0.615   6.613   6.281  0.4879 -0.7876  0.1981
17530SOL    HW255483   0.728   6.686   6.350 -0.1191 -0.2091  0.5940
17531SOL     OW55484   3.343   4.464   5.997  0.0403  0.5389 -0.4063
17531SOL    HW155485   3.424   4.489   6.043 -0.8102  2.3526  0.1869
17531SOL    HW255486   3.325   4.376   6.029  1.5279  0.2775 -0.1843
17532SOL     OW55487   6.727   5.141   7.962  0.8125  0.1199 -0.0167
17532SOL    HW155488   6.780   5.217   7.984 -0.2341  0.1248  3.0515
17532SOL    HW255489   6.641   5.177   7.939  0.6608 -0.0759  0.2378
17533SOL     OW55490   5.937   5.254   2.267  0.2777  0.2722 -0.3297
17533SOL    HW155491   5.958   5.244   2.174 -1.2152 -1.2671 -0.5481
17533SOL    HW255492   5.924   5.348   2.277  0.5234  0.4803 -1.6625
17534SOL     OW55493   2.108   3.528   5.669 -0.1884  0.1433  0.2639
17534SOL    HW155494   2.133   3.464   5.735 -1.2175 -1.6824 -1.0165
17534SOL    HW255495   2.081   3.605   5.719  1.7587 -0.0999  1.8325
17535SOL     OW55496   1.246   0.367   8.957 -0.1398 -0.0351  0.2269
17535SOL    HW155497   1.171   0.419   8.928  0.8542  2.1299  1.3079
17535SOL    HW255498   1.322   0.410   8.919  0.9659  1.2632  3.4974
17536SOL     OW55499   8.089   1.941   4.614 -0.6290  0.0953 -0.0545
17536SOL    HW155500   8.116   1.940   4.522  0.2797  0.2624  0.1925
17536SOL    HW255501   8.104   2.031   4.642  1.5121 -0.4836  0.9001
17537SOL     OW55502   1.404   8.320   0.307  0.2100 -0.0041 -0.4128
17537SOL    HW155503   1.376   8.247   0.362  0.7967 -0.4542 -0.6928
17537SOL    HW255504   1.493   8.296   0.279  0.6230  1.0716 -0.0799
17538SOL     OW55505   8.877   8.260   3.969 -0.6328  0.0571 -0.0797
17538SOL    HW155506   8.803   8.238   3.912 -0.8323 -1.9339  0.8417
17538SOL    HW255507   8.875   8.192   4.037  1.0254  0.9661  0.9390
17539SOL     OW55508   8.852   3.272   2.412 -0.1016  0.1982  0.0082
17539SOL    HW155509   8.772   3.306   2.453 -0.8710 -1.3259 -0.1328
17539SOL    HW255510   8.879   3.199   2.469 -0.1082 -0.7328 -1.1432
17540SOL     OW55511   3.890   2.407   2.156  0.2630  0.2765 -0.2499
17540SOL    HW155512   3.809   2.458   2.150  0.6987  0.9777 -0.1621
17540SOL    HW255513   3.939   2.431   2.077  0.0489 -0.7593 -0.7282
17541SOL     OW55514   5.215   2.156   7.306  0.2790 -0.5177 -0.1274
17541SOL    HW155515   5.154   2.124   7.372 -1.5555  1.6089 -0.6852
17541SOL    HW255516   5.214   2.251   7.316  0.8030 -0.2021 -2.4673
17542SOL     OW55517   6.737   8.360   7.785 -0.4193  0.2272  0.9372
17542SOL    HW155518   6.726   8.439   7.732 -0.8405 -0.0973  0.5347
17542SOL    HW255519   6.695   8.382   7.868 -0.6696  0.3761  0.7741
17543SOL     OW55520   9.187   9.087   5.555 -0.2871  0.4535  0.0223
17543SOL    HW155521   9.102   9.129   5.565 -0.5314  0.0875 -0.4608
17543SOL    HW255522   9.167   8.994   5.547  0.3939 -0.0678  3.3000
17544SOL     OW55523   0.836   6.255   3.485 -0.2590 -0.3000  0.6066
17544SOL    HW155524   0.781   6.253   3.407 -0.5179  0.4087  0.7618
17544SOL    HW255525   0.875   6.168   3.489 -2.7623 -1.4786  1.4963
17545SOL     OW55526   4.090   3.684   3.519 -0.2092  0.4005 -0.1344
17545SOL    HW155527   4.051   3.765   3.551 -2.3535  0.5343 -2.6956
17545SOL    HW255528   4.057   3.616   3.577 -1.5613  0.9543 -0.2241
17546SOL     OW55529   4.407   9.227   0.175 -0.6537 -0.6330  0.1721
17546SOL    HW155530   4.442   9.173   0.246  0.9748 -0.2163 -0.2761
17546SOL    HW255531   4.399   9.314   0.213  2.0508  0.0375 -0.6220
17547SOL     OW55532   7.974   4.267   5.925 -0.2633  0.5132 -0.1141
17547SOL    HW155533   7.928   4.330   5.870 -0.5965 -0.9627 -1.5981
17547SOL    HW255534   8.058   4.252   5.880  0.8710  1.6479  1.4944
17548SOL     OW55535   6.195   1.837   1.675  0.1428 -0.7954 -0.2938
17548SOL    HW155536   6.268   1.899   1.682  0.6787 -1.5088  0.6843
17548SOL    HW255537   6.128   1.874   1.732  0.1579 -0.7087 -0.3315
17549SOL     OW55538   2.239   0.887   5.039 -0.7226 -0.3005 -0.3409
17549SOL    HW155539   2.199   0.820   4.984 -1.1528 -0.4958  0.1999
17549SOL    HW255540   2.233   0.967   4.987 -3.1906  0.0074  0.2989
17550SOL     OW55541   6.976   6.237   4.862 -0.5481  0.4364 -0.5316
17550SOL    HW155542   7.055   6.271   4.904  0.0142  0.2458 -1.4141
17550SOL    HW255543   6.951   6.161   4.915  0.4258 -0.0885 -0.8079
17551SOL     OW55544   6.225   8.583   0.132  0.2105  0.3932  0.2013
17551SOL    HW155545   6.268   8.620   0.209 -0.4734  0.1552  0.7029
17551SOL    HW255546   6.273   8.502   0.115  0.1684  0.2889  0.5662
17552SOL     OW55547   4.892   7.801   3.018 -1.1984 -0.0197 -0.5841
17552SOL    HW155548   4.966   7.773   3.071 -0.6938  2.1157 -0.0525
17552SOL    HW255549   4.817   7.798   3.078 -0.8067  1.4369  0.0271
17553SOL     OW55550   3.061   6.971   9.035  0.3012  0.2520 -0.4082
17553SOL    HW155551   2.969   6.980   9.058  0.0433  0.3118 -1.4449
17553SOL    HW255552   3.089   7.059   9.011  0.6136  0.2175 -0.1831
17554SOL     OW55553   4.744   3.710   7.665 -0.2804  0.0044  0.0834
17554SOL    HW155554   4.685   3.737   7.736  0.6750  0.1029  0.8684
17554SOL    HW255555   4.827   3.755   7.685  0.5264 -1.3503 -0.0987
17555SOL     OW55556   6.509   8.764   2.230 -0.2088 -0.1920  0.3747
17555SOL    HW155557   6.432   8.818   2.246 -1.5754 -1.2967 -1.9553
17555SOL    HW255558   6.541   8.792   2.145  1.8401  0.0138  1.1540
17556SOL     OW55559   0.731   0.602   6.526 -0.3645  0.1313 -0.0802
17556SOL    HW155560   0.740   0.566   6.614  1.8627  1.7532  0.4244
17556SOL    HW255561   0.816   0.586   6.485 -0.8048  0.9018 -1.3416
17557SOL     OW55562   4.719   7.900   0.666  0.2260  0.4802  0.1454
17557SOL    HW155563   4.730   7.991   0.641 -0.8424  0.4970 -0.2750
17557SOL    HW255564   4.625   7.888   0.677  0.4367 -0.2592  1.3933
17558SOL     OW55565   1.842   5.285   4.836 -1.0039 -0.3673  0.0755
17558SOL    HW155566   1.818   5.321   4.751 -1.9116 -1.5697 -0.2087
17558SOL    HW255567   1.917   5.338   4.865  2.0134 -2.3259 -3.2753
17559SOL     OW55568   4.112   7.082   6.533  0.2562 -0.2638  0.2765
17559SOL    HW155569   4.173   7.065   6.461 -0.6904  0.1272 -0.6421
17559SOL    HW255570   4.026   7.060   6.498 -0.0972 -1.5511  1.7973
17560SOL     OW55571   6.871   8.623   6.413  0.1440 -0.4413 -0.5239
17560SOL    HW155572   6.965   8.642   6.412 -0.0102  0.6401  1.3133
17560SOL    HW255573   6.831   8.701   6.451 -1.6258 -0.5415 -2.0127
17561SOL     OW55574   4.722   5.275   2.879  0.3437  0.5094  0.2245
17561SOL    HW155575   4.650   5.311   2.828  1.1314  1.7619 -0.0467
17561SOL    HW255576   4.686   5.263   2.967 -0.7920 -0.9072 -0.3987
17562SOL     OW55577   3.883   2.411   3.890  0.0938  0.3057  0.3383
17562SOL    HW155578   3.828   2.345   3.932  0.5716  0.4717  1.2424
17562SOL    HW255579   3.869   2.397   3.796 -2.1603  0.8965  0.5141
17563SOL     OW55580   7.273   8.014   8.675  1.0693  0.0087 -0.4657
17563SOL    HW155581   7.180   8.023   8.653  0.5829 -0.8381  1.0663
17563SOL    HW255582   7.299   8.101   8.706  1.0439  0.4726 -1.6856
17564SOL     OW55583   3.053   1.007   7.428  0.5466  0.6500 -0.6549
17564SOL    HW155584   2.962   1.011   7.458  0.7623  0.6012  0.0118
17564SOL    HW255585   3.099   0.957   7.495  0.5630 -1.6016 -2.2518
17565SOL     OW55586   7.055   6.074   8.005 -0.0194 -0.3324 -0.2433
17565SOL    HW155587   7.120   6.079   8.075  0.1374  2.5219 -0.5009
17565SOL    HW255588   6.974   6.105   8.046 -0.1872  0.2690 -1.0053
17566SOL     OW55589   5.547   2.095   6.218  0.3152 -0.6182  0.5371
17566SOL    HW155590   5.545   2.142   6.135  0.1622 -0.5496  0.5790
17566SOL    HW255591   5.457   2.065   6.231  0.3400 -0.6357  0.6743
17567SOL     OW55592   1.008   0.704   0.794 -0.2232  0.0618  0.6730
17567SOL    HW155593   1.012   0.754   0.875 -0.1884  0.2023  0.5841
17567SOL    HW255594   1.078   0.639   0.803  1.4693  1.6450 -0.2970
17568SOL     OW55595   4.205   8.452   0.413  0.5483  0.1719 -0.5134
17568SOL    HW155596   4.117   8.467   0.448  0.4751  0.8384 -0.9539
17568SOL    HW255597   4.199   8.367   0.369 -0.3450  0.9329 -1.9398
17569SOL     OW55598   4.546   7.986   3.543  0.6016 -0.1631 -0.5802
17569SOL    HW155599   4.618   8.040   3.577  0.1883  0.0652 -0.0727
17569SOL    HW255600   4.571   7.896   3.565  1.1313 -0.1665 -1.1396
17570SOL     OW55601   7.947   2.054   3.666 -0.0190 -0.9151 -0.0259
17570SOL    HW155602   7.913   2.079   3.581 -3.0881 -1.3968  0.9417
17570SOL    HW255603   7.950   1.958   3.664  0.2760 -0.9132  0.2620
17571SOL     OW55604   9.076   1.223   4.149 -0.5401 -0.2846 -0.5126
17571SOL    HW155605   9.065   1.284   4.076  0.9303  2.2845  1.2745
17571SOL    HW255606   8.998   1.234   4.203 -1.9227 -2.6263 -1.8409
17572SOL     OW55607   5.846   1.512   4.657  0.3601 -0.0891  0.3235
17572SOL    HW155608   5.761   1.474   4.638  0.4663  0.0679 -0.5191
17572SOL    HW255609   5.892   1.446   4.709  0.6601 -1.2569 -1.3573
17573SOL     OW55610   4.908   8.573   3.063  0.2414  0.1940  0.3453
17573SOL    HW155611   4.985   8.610   3.106  0.0042  0.6840  0.3631
17573SOL    HW255612   4.841   8.642   3.071 -0.0045  0.0289 -0.2319
17574SOL     OW55613   1.767   3.293   0.715 -0.7037  0.4316  0.3138
17574SOL    HW155614   1.775   3.217   0.773  1.7238  1.7924  1.9482
17574SOL    HW255615   1.807   3.264   0.633 -1.5975 -0.6327  0.2222
17575SOL     OW55616   9.065   8.173   3.625  0.5793  0.3510 -0.1836
17575SOL    HW155617   8.976   8.184   3.590 -0.1432 -1.3073  0.9825
17575SOL    HW255618   9.063   8.086   3.666  3.1632 -0.3151 -1.3153
17576SOL     OW55619   5.525   3.073   5.000 -0.5210 -0.6994  0.1150
17576SOL    HW155620   5.500   3.165   5.004 -0.4465 -0.6401 -0.7110
17576SOL    HW255621   5.511   3.041   5.090 -2.0379 -0.2781  0.0682
17577SOL     OW55622   8.506   7.728   5.366  0.5074  0.3835 -0.4586
17577SOL    HW155623   8.574   7.666   5.394 -0.1222 -0.0823  0.0568
17577SOL    HW255624   8.488   7.704   5.275 -0.6059 -1.0086  0.1058
17578SOL     OW55625   7.444   7.826   8.602  0.0089  0.4703 -0.2114
17578SOL    HW155626   7.427   7.830   8.508  1.0260 -0.3718 -0.4489
17578SOL    HW255627   7.388   7.893   8.640 -0.6535  0.5973 -1.3861
17579SOL     OW55628   2.516   2.243   0.095  0.4954  0.2898 -0.1811
17579SOL    HW155629   2.558   2.263   0.011  0.9946 -0.4541 -0.1160
17579SOL    HW255630   2.518   2.326   0.143  0.3945  0.6673 -0.8222
17580SOL     OW55631   6.552   1.329   3.652  0.5168  0.1703 -0.7699
17580SOL    HW155632   6.544   1.248   3.702  3.1595 -0.1583 -0.7181
17580SOL    HW255633   6.489   1.319   3.580  1.2284 -2.2547 -1.1499
17581SOL     OW55634   2.964   3.302   8.079 -0.3513 -0.2230 -0.2034
17581SOL    HW155635   3.031   3.362   8.047 -0.4206  0.3401  0.6948
17581SOL    HW255636   2.895   3.359   8.114 -1.4157 -0.7734 -1.2802
17582SOL     OW55637   7.333   4.853   3.679  0.3064 -0.1025 -0.7830
17582SOL    HW155638   7.428   4.849   3.666  0.3171 -1.3621 -0.4429
17582SOL    HW255639   7.315   4.946   3.694  1.6980 -0.0108  0.6142
17583SOL     OW55640   3.773   9.130   8.125 -0.1160  0.1054  0.9696
17583SOL    HW155641   3.699   9.190   8.117  0.0122  0.3733  1.7056
17583SOL    HW255642   3.780   9.089   8.039 -0.7907  0.4594  0.7374
17584SOL     OW55643   3.307   5.568   1.142 -0.1387 -0.5362 -0.7968
17584SOL    HW155644   3.378   5.575   1.078  2.2905  0.6940  1.7931
17584SOL    HW255645   3.245   5.637   1.118  1.1902  0.5127 -1.3204
17585SOL     OW55646   6.812   5.934   0.912  0.1560  0.6941  0.4635
17585SOL    HW155647   6.807   6.001   0.844  1.3313 -0.2902 -0.6435
17585SOL    HW255648   6.903   5.938   0.943  0.2739 -0.4606  0.2931
17586SOL     OW55649   6.002   7.432   0.605 -0.1289  0.6965  0.0530
17586SOL    HW155650   6.041   7.421   0.518  0.7931  1.0262  0.4172
17586SOL    HW255651   5.908   7.420   0.590  0.0807  0.0581 -0.8693
17587SOL     OW55652   6.001   7.529   6.845  0.4365 -0.5105  0.1112
17587SOL    HW155653   5.993   7.446   6.796  0.2004 -0.5030  0.1356
17587SOL    HW255654   6.095   7.540   6.858  0.5377 -0.2756 -0.7545
17588SOL     OW55655   7.306   7.546   1.946  0.2500 -0.0816  0.0057
17588SOL    HW155656   7.371   7.482   1.973  0.2036 -0.2159 -0.1953
17588SOL    HW255657   7.341   7.584   1.866  2.0743  2.8147  2.0055
17589SOL     OW55658   1.823   1.474   1.797  0.2560  0.0037 -0.1255
17589SOL    HW155659   1.911   1.439   1.779  0.4342  0.3121  0.1273
17589SOL    HW255660   1.834   1.569   1.792  0.3108  0.1049  1.5240
17590SOL     OW55661   2.222   3.105   1.310 -0.3241  0.0220  0.3191
17590SOL    HW155662   2.142   3.054   1.322  0.2099 -0.9950 -0.3626
17590SOL    HW255663   2.206   3.186   1.359 -1.3388 -0.6209  1.0799
17591SOL     OW55664   7.900   3.985   2.592  0.2772  0.0253  0.0931
17591SOL    HW155665   7.822   3.944   2.556  0.4534  0.3989 -0.7211
17591SOL    HW255666   7.874   4.075   2.611 -0.2344 -0.5186  2.2734
17592SOL     OW55667   5.408   3.425   6.265 -0.4968  0.1464 -0.2015
17592SOL    HW155668   5.487   3.447   6.216 -1.1657  2.0804 -0.4766
17592SOL    HW255669   5.340   3.414   6.198 -1.1419  1.6179  0.1671
17593SOL     OW55670   5.496   8.264   4.316 -0.4605 -0.4714  0.0719
17593SOL    HW155671   5.557   8.338   4.306 -1.2807  0.3546  0.9349
17593SOL    HW255672   5.529   8.216   4.391 -0.9989  0.1294  0.7067
17594SOL     OW55673   1.489   1.307   1.176 -0.1012 -0.4392  0.0341
17594SOL    HW155674   1.461   1.282   1.264  0.6577 -0.7698  0.1907
17594SOL    HW255675   1.417   1.281   1.119 -1.3042  1.2247  0.7173
17595SOL     OW55676   8.898   2.088   7.906 -0.6834 -0.4287  0.5296
17595SOL    HW155677   8.914   1.999   7.939  0.0142  0.4081  2.5934
17595SOL    HW255678   8.968   2.141   7.945 -2.1115  1.3512  0.8056
17596SOL     OW55679   5.540   4.526   5.265  0.1571  0.1004 -0.2555
17596SOL    HW155680   5.605   4.464   5.299 -0.0323  0.5545  0.9925
17596SOL    HW255681   5.461   4.508   5.316  0.6556  2.6861  1.6688
17597SOL     OW55682   1.867   3.174   6.597 -0.0909 -0.0486 -0.0609
17597SOL    HW155683   1.890   3.121   6.673 -1.2713  1.1924  1.2383
17597SOL    HW255684   1.779   3.144   6.572 -0.2178  0.3887 -0.1522
17598SOL     OW55685   8.281   2.291   8.735  0.0819 -0.3256  0.1967
17598SOL    HW155686   8.237   2.207   8.721  1.6173 -1.1826  0.2944
17598SOL    HW255687   8.374   2.273   8.717  0.6985  0.9139  1.8371
17599SOL     OW55688   8.108   7.492   0.081 -0.7691  0.2377 -0.1625
17599SOL    HW155689   8.198   7.513   0.105 -0.3863  0.3931 -1.6441
17599SOL    HW255690   8.086   7.555   0.013 -2.0408  0.2619  0.2460
17600SOL     OW55691   4.666   3.373   2.064  0.4347  0.0446 -0.0021
17600SOL    HW155692   4.621   3.398   1.984 -0.4447  1.8427  1.0035
17600SOL    HW255693   4.731   3.442   2.078  1.2629 -0.7689  0.3509
17601SOL     OW55694   0.435   1.774   5.978 -0.2478 -0.3620  0.0124
17601SOL    HW155695   0.417   1.738   6.065 -2.4871 -1.1635 -0.7189
17601SOL    HW255696   0.517   1.732   5.951  1.0047  0.6247  2.0768
17602SOL     OW55697   5.468   6.007   5.933  0.5198 -0.4047 -0.2658
17602SOL    HW155698   5.392   5.991   5.877  0.1141 -1.8811  0.6521
17602SOL    HW255699   5.543   6.003   5.874 -0.1413  3.0083 -1.5630
17603SOL     OW55700   0.358   3.620   3.051 -1.0680 -0.2942 -0.4758
17603SOL    HW155701   0.441   3.647   3.011 -0.3822 -2.2971 -0.5378
17603SOL    HW255702   0.293   3.681   3.016  0.5288  2.1982  0.6225
17604SOL     OW55703   3.095   3.781   5.880  0.0683  0.4566  0.3362
17604SOL    HW155704   3.138   3.815   5.802 -0.9151 -1.2363 -1.0269
17604SOL    HW255705   3.110   3.847   5.947  2.5455  1.1003 -0.7543
17605SOL     OW55706   3.161   0.333   6.436 -0.1289  0.5194 -0.1487
17605SOL    HW155707   3.168   0.387   6.515 -2.4471  0.1184  0.3923
17605SOL    HW255708   3.227   0.265   6.449  0.6506  1.3748  0.6454
17606SOL     OW55709   2.557   5.917   2.211 -0.1421  0.3299 -0.1038
17606SOL    HW155710   2.596   5.832   2.233 -0.1007  0.2165 -0.6073
17606SOL    HW255711   2.600   5.979   2.270 -0.7531 -0.1181  0.8262
17607SOL     OW55712   3.362   1.744   6.474 -0.3668 -0.9669  0.2901
17607SOL    HW155713   3.323   1.667   6.516 -3.1163  0.3890  0.4710
17607SOL    HW255714   3.367   1.809   6.545  1.0252 -0.6451 -0.0732
17608SOL     OW55715   8.519   6.192   6.191  0.2181  0.0103  0.1504
17608SOL    HW155716   8.439   6.214   6.143  0.8536 -2.3997 -2.2584
17608SOL    HW255717   8.489   6.138   6.264 -0.3588 -1.4556 -1.1272
17609SOL     OW55718   8.752   1.384   3.317  0.1385 -0.0662 -0.1524
17609SOL    HW155719   8.827   1.394   3.375  0.3992  0.1191 -0.5214
17609SOL    HW255720   8.688   1.334   3.369  0.3954  0.0379  0.2662
17610SOL     OW55721   4.413   0.673   5.627  0.4194  0.0126 -0.3981
17610SOL    HW155722   4.335   0.619   5.644 -0.4504  0.7694 -1.7143
17610SOL    HW255723   4.416   0.735   5.699 -0.2258 -0.0117 -0.3429
17611SOL     OW55724   8.818   6.378   1.852 -0.0094  0.6092  0.8184
17611SOL    HW155725   8.785   6.387   1.763  0.0126  1.1657  0.8613
17611SOL    HW255726   8.850   6.288   1.857 -1.8275 -0.0695  0.8848
17612SOL     OW55727   3.708   4.876   7.120  0.0784  0.6716  0.0245
17612SOL    HW155728   3.685   4.930   7.044  1.6866  0.9833 -0.2741
17612SOL    HW255729   3.631   4.879   7.176 -1.0891  0.5960 -1.4939
17613SOL     OW55730   6.700   2.957   1.441 -0.0389  0.1875 -0.0776
17613SOL    HW155731   6.657   2.902   1.376  0.2635  0.7294 -0.7474
17613SOL    HW255732   6.784   2.981   1.401 -1.1684  3.1472 -0.8831
17614SOL     OW55733   2.631   1.551   9.170  0.0830 -0.1225 -0.0476
17614SOL    HW155734   2.680   1.626   9.135  1.7086 -0.1131  2.0371
17614SOL    HW255735   2.545   1.587   9.192  0.3406  0.7836 -0.4533
17615SOL     OW55736   3.444   8.982   1.866 -0.1571  0.3040 -0.1748
17615SOL    HW155737   3.392   8.984   1.946  0.2973 -1.3603  0.2090
17615SOL    HW255738   3.494   9.063   1.867 -1.6625  1.2649  0.1705
17616SOL     OW55739   1.346   3.576   7.787 -0.0085 -0.0318 -0.1631
17616SOL    HW155740   1.380   3.659   7.752  1.5029 -0.9394 -0.9530
17616SOL    HW255741   1.418   3.514   7.775 -0.9894 -1.3905  0.7275
17617SOL     OW55742   8.967   4.683   1.478  0.3007  0.4118 -0.1147
17617SOL    HW155743   9.030   4.611   1.483  1.2165  1.2663  1.6088
17617SOL    HW255744   9.018   4.761   1.503 -1.2109  1.2714  0.4208
17618SOL     OW55745   3.515   7.460   0.405  0.2130 -0.2217 -0.0672
17618SOL    HW155746   3.451   7.500   0.464  1.0837  0.8473  0.1828
17618SOL    HW255747   3.518   7.518   0.329  2.9155  1.3928  1.1431
17619SOL     OW55748   4.012   3.305   0.750 -0.2809 -0.3334  0.2999
17619SOL    HW155749   3.943   3.238   0.743 -0.3275 -0.0996 -2.3581
17619SOL    HW255750   4.084   3.271   0.696  0.6855  0.6166  0.9661
17620SOL     OW55751   4.008   0.505   5.859 -0.4867 -0.0965 -0.1513
17620SOL    HW155752   3.971   0.542   5.939  1.0787  1.2596  0.0088
17620SOL    HW255753   3.957   0.426   5.843 -2.9880  1.3140  0.3778
17621SOL     OW55754   2.735   4.720   8.244  0.1620 -0.5223  0.6681
17621SOL    HW155755   2.811   4.726   8.303 -0.4067  1.3876  1.2762
17621SOL    HW255756   2.673   4.664   8.291 -0.4866  1.3642  2.2049
17622SOL     OW55757   4.319   7.576   4.786  0.1864 -0.7756  0.1226
17622SOL    HW155758   4.241   7.628   4.766  0.9075  0.7883  1.1692
17622SOL    HW255759   4.290   7.515   4.854  0.2368  0.9605  1.7694
17623SOL     OW55760   2.626   5.813   7.745 -0.0315 -0.0288  0.3740
17623SOL    HW155761   2.537   5.780   7.738 -0.9341  2.2420  0.3389
17623SOL    HW255762   2.674   5.743   7.790 -1.8290 -1.2724  0.4634
17624SOL     OW55763   7.165   6.339   2.620 -0.0622  0.3608  0.7055
17624SOL    HW155764   7.082   6.369   2.581  0.3214 -0.2216 -0.5854
17624SOL    HW255765   7.139   6.267   2.677 -0.4139 -0.0912 -0.0050
17625SOL     OW55766   4.053   2.400   1.064  0.0665 -0.3539  0.3737
17625SOL    HW155767   3.965   2.380   1.095  0.7535 -2.2823  1.2242
17625SOL    HW255768   4.039   2.463   0.993 -1.9256 -0.0579  0.9529
17626SOL     OW55769   7.248   2.581   2.841  0.2471  0.7710 -0.0180
17626SOL    HW155770   7.266   2.606   2.932  0.2529  0.2211  0.1366
17626SOL    HW255771   7.209   2.659   2.802 -1.3646  0.4970  0.9293
17627SOL     OW55772   8.762   3.409   2.173 -0.3772 -0.1615  0.6575
17627SOL    HW155773   8.693   3.343   2.180  1.3647 -2.0862  0.9076
17627SOL    HW255774   8.837   3.370   2.220  1.1606  1.4093 -0.3689
17628SOL     OW55775   5.370   0.639   5.342 -0.3197 -0.5052  0.2391
17628SOL    HW155776   5.302   0.706   5.340 -1.7082 -1.7527  2.0430
17628SOL    HW255777   5.427   0.663   5.415 -0.0808 -0.6304  0.0979
17629SOL     OW55778   5.529   6.196   4.759 -0.8889  0.1354  0.2571
17629SOL    HW155779   5.563   6.142   4.829 -2.7379  0.8947  1.8329
17629SOL    HW255780   5.469   6.139   4.711 -1.4782  0.2624  0.8249
17630SOL     OW55781   1.341   9.235   6.381 -0.0153  0.6198 -0.3482
17630SOL    HW155782   1.363   9.146   6.407 -1.2662  0.6002  0.7792
17630SOL    HW255783   1.363   9.240   6.289 -1.0615 -1.2518 -0.7533
17631SOL     OW55784   8.525   4.419   0.984 -0.0085  0.6926  0.1486
17631SOL    HW155785   8.522   4.447   0.892 -1.1110  1.8267  0.4935
17631SOL    HW255786   8.528   4.501   1.033 -2.0682  0.2166  1.1782
17632SOL     OW55787   6.261   3.647   2.278 -0.3948  0.0106 -0.4672
17632SOL    HW155788   6.312   3.676   2.353  0.3707 -1.4295 -0.3787
17632SOL    HW255789   6.214   3.570   2.310 -2.8215  1.4015 -0.5016
17633SOL     OW55790   2.308   6.815   8.213  0.3656  0.0399  0.1031
17633SOL    HW155791   2.334   6.758   8.286 -1.1590 -1.7225 -0.6660
17633SOL    HW255792   2.230   6.773   8.176 -0.0660  1.9663 -1.3149
17634SOL     OW55793   5.457   9.003   5.598  0.8718  0.0367 -0.2013
17634SOL    HW155794   5.404   8.997   5.677  0.1715  1.7358 -0.4937
17634SOL    HW255795   5.544   9.028   5.629  0.3220  1.8559  0.0115
17635SOL     OW55796   5.674   2.044   9.186 -0.3775 -0.3871 -0.6137
17635SOL    HW155797   5.608   2.012   9.125 -0.2254 -1.6125 -0.1668
17635SOL    HW255798   5.674   1.980   9.257 -0.5481  1.0011  0.6872
17636SOL     OW55799   7.788   4.148   7.713 -0.3943  0.2907 -0.7209
17636SOL    HW155800   7.726   4.200   7.662 -1.0914  0.0645 -0.1163
17636SOL    HW255801   7.811   4.203   7.787  1.1120  0.8753 -1.5765
17637SOL     OW55802   7.547   8.304   6.242 -0.1888 -0.5885  0.0805
17637SOL    HW155803   7.527   8.309   6.336 -1.4669  0.1580 -0.2191
17637SOL    HW255804   7.489   8.235   6.209 -0.6265  0.0046 -0.3896
17638SOL     OW55805   1.775   6.177   1.051  0.1708  0.3419 -0.2774
17638SOL    HW155806   1.783   6.158   0.957 -0.3232  2.5259 -0.8099
17638SOL    HW255807   1.865   6.179   1.082  0.3118 -1.4039 -0.4287
17639SOL     OW55808   3.045   0.279   4.672 -0.1931  0.2307  0.1034
17639SOL    HW155809   3.048   0.188   4.702 -1.1811  0.9717  2.7924
17639SOL    HW255810   2.974   0.281   4.607  0.8246 -1.1563 -1.0948
17640SOL     OW55811   4.702   7.760   1.976 -0.4427 -0.0174  0.3031
17640SOL    HW155812   4.774   7.804   1.931 -1.0810  0.2492 -0.4699
17640SOL    HW255813   4.738   7.737   2.061  0.1068  1.4534  0.5015
17641SOL     OW55814   8.316   0.666   0.916 -0.7206 -0.3346 -0.1026
17641SOL    HW155815   8.308   0.693   0.824  1.3150  0.3327 -0.1471
17641SOL    HW255816   8.374   0.590   0.913  0.6581  0.6462  0.7182
17642SOL     OW55817   6.071   0.392   0.485  0.8773 -0.0509  0.4474
17642SOL    HW155818   6.081   0.297   0.479 -1.2735 -0.2794 -0.3773
17642SOL    HW255819   6.008   0.405   0.557  0.4926  0.6796 -0.0058
17643SOL     OW55820   5.939   1.232   5.250  0.2616 -0.6881  0.4345
17643SOL    HW155821   5.987   1.198   5.326  0.7035 -3.1758 -0.8554
17643SOL    HW255822   5.849   1.201   5.262  0.1850 -0.5311  0.2691
17644SOL     OW55823   6.726   6.622   2.420  0.6768 -0.3259 -0.6319
17644SOL    HW155824   6.769   6.690   2.368 -1.6143  2.0509  0.3176
17644SOL    HW255825   6.694   6.668   2.498  1.5674 -3.1699  1.5979
17645SOL     OW55826   7.323   0.162   2.653  0.5622 -0.0735 -0.5598
17645SOL    HW155827   7.234   0.182   2.625  0.5938  0.4617 -0.2924
17645SOL    HW255828   7.320   0.070   2.681 -0.1021  0.1819  0.2421
17646SOL     OW55829   2.462   2.231   8.184 -0.2596 -0.2275  0.1235
17646SOL    HW155830   2.427   2.178   8.256  0.6370 -0.7376  0.2089
17646SOL    HW255831   2.543   2.186   8.159 -1.0047 -0.5934 -1.8232
17647SOL     OW55832   0.710   6.009   3.939 -0.3053 -0.3075  0.2039
17647SOL    HW155833   0.793   6.045   3.971 -0.5247  0.3815  0.0057
17647SOL    HW255834   0.700   5.927   3.987 -0.0055  0.0947  0.9763
17648SOL     OW55835   6.335   1.623   6.566 -0.1098 -0.5787 -0.3756
17648SOL    HW155836   6.411   1.567   6.582  0.3013 -0.0038 -0.3343
17648SOL    HW255837   6.304   1.597   6.479  1.2199  0.4448 -1.1778
17649SOL     OW55838   2.312   2.980   5.805  0.0055 -0.0063 -0.1613
17649SOL    HW155839   2.246   3.047   5.784  0.8902  0.7453 -0.5912
17649SOL    HW255840   2.299   2.913   5.737 -0.7716 -0.2093  0.1704
17650SOL     OW55841   3.749   9.192   2.179 -0.1834  0.0546 -0.0391
17650SOL    HW155842   3.717   9.103   2.190 -1.3702  0.3777 -0.6807
17650SOL    HW255843   3.771   9.222   2.267 -4.2558  0.7193  0.9187
17651SOL     OW55844   6.565   9.145   7.318 -0.0439  0.0706 -0.0030
17651SOL    HW155845   6.479   9.165   7.279 -1.6264 -0.7017  2.8102
17651SOL    HW255846   6.590   9.226   7.363 -0.3217 -0.3297  0.8902
17652SOL     OW55847   0.899   4.062   1.220  0.2990 -0.0910 -0.1789
17652SOL    HW155848   0.875   4.120   1.147  0.6898 -0.4688 -0.6182
17652SOL    HW255849   0.887   3.974   1.184  2.3753 -0.3139 -0.4538
17653SOL     OW55850   9.183   8.120   8.343  0.1152 -0.6372 -0.5718
17653SOL    HW155851   9.117   8.143   8.277  1.6380  0.7329 -1.6752
17653SOL    HW255852   9.138   8.058   8.401 -1.4619 -1.4540 -2.5553
17654SOL     OW55853   8.175   5.131   6.140  0.1379 -0.2250  0.2577
17654SOL    HW155854   8.148   5.119   6.049  0.1001 -1.8944  0.4560
17654SOL    HW255855   8.095   5.156   6.186  0.2942  1.3581 -0.2523
17655SOL     OW55856   5.957   8.405   3.834 -0.1282 -0.9144  0.3631
17655SOL    HW155857   5.865   8.423   3.818  0.6230  3.2524 -0.3667
17655SOL    HW255858   5.991   8.373   3.750 -0.6796 -1.4908  0.3543
17656SOL     OW55859   8.063   8.369   4.741  0.1597 -0.6993 -0.0016
17656SOL    HW155860   8.004   8.395   4.812  0.7579 -1.2714  0.7340
17656SOL    HW255861   8.129   8.315   4.785  0.0856 -1.7450 -1.1304
17657SOL     OW55862   8.899   6.401   6.860 -0.4968  0.4935 -0.1729
17657SOL    HW155863   8.949   6.408   6.779 -0.8466  1.5484 -0.3070
17657SOL    HW255864   8.841   6.326   6.846  0.1777  0.0102 -0.4776
17658SOL     OW55865   3.146   7.684   0.516 -0.3950  0.0957 -0.3567
17658SOL    HW155866   3.059   7.667   0.552 -0.8603  2.8157 -0.0426
17658SOL    HW255867   3.130   7.725   0.431  0.5124  1.9256  0.3136
17659SOL     OW55868   8.655   3.665   3.267 -0.3737 -0.3820  0.5521
17659SOL    HW155869   8.563   3.686   3.282 -0.5833  0.7054 -1.7201
17659SOL    HW255870   8.652   3.597   3.199  0.5080 -0.4200  0.5469
17660SOL     OW55871   9.003   8.829   0.788  0.2277 -0.0901  0.4105
17660SOL    HW155872   9.091   8.848   0.821  0.9491  1.6434 -2.2554
17660SOL    HW255873   9.018   8.774   0.711 -0.9272  1.0148 -0.6302
17661SOL     OW55874   7.632   8.874   5.499  0.0920 -0.4837  0.1414
17661SOL    HW155875   7.665   8.956   5.463  0.4612  0.2202  1.9735
17661SOL    HW255876   7.592   8.898   5.583 -0.4183 -2.0755  0.4006
17662SOL     OW55877   2.002   9.191   4.941 -0.1062 -0.1640  0.0812
17662SOL    HW155878   1.974   9.122   5.001  0.5216 -0.3418  0.1805
17662SOL    HW255879   2.098   9.187   4.944 -0.0601 -0.5252 -1.3432
17663SOL     OW55880   8.901   3.266   8.354 -0.2145  0.4468 -0.2235
17663SOL    HW155881   8.830   3.202   8.360  1.1615 -1.0336  1.8264
17663SOL    HW255882   8.898   3.313   8.438  2.4144 -1.0970  0.8458
17664SOL     OW55883   6.736   5.619   7.728 -0.6213  0.1025 -0.4291
17664SOL    HW155884   6.674   5.551   7.754 -0.0126 -0.2717  0.0596
17664SOL    HW255885   6.683   5.681   7.678 -1.1432 -0.8517 -1.1030
17665SOL     OW55886   1.299   8.664   1.894  0.1899  0.8016 -0.3003
17665SOL    HW155887   1.287   8.602   1.966 -0.6482  0.0408 -1.0825
17665SOL    HW255888   1.319   8.747   1.938 -1.6201  0.6767  0.8907
17666SOL     OW55889   2.917   6.353   3.542  0.1892  0.1106  0.0767
17666SOL    HW155890   2.843   6.341   3.482 -0.0577  0.4883  0.3000
17666SOL    HW255891   2.952   6.439   3.520 -0.6361  0.7698  1.2579
17667SOL     OW55892   6.037   2.130   4.871 -0.0532 -1.0826 -0.2572
17667SOL    HW155893   5.962   2.149   4.814  0.6151 -2.5467 -1.6993
17667SOL    HW255894   6.027   2.038   4.893  0.5098 -0.8967  0.8284
17668SOL     OW55895   8.064   3.483   6.917  0.0210 -0.1279  0.1823
17668SOL    HW155896   8.146   3.434   6.911  0.1075  0.0028  0.3036
17668SOL    HW255897   8.026   3.457   7.001 -1.1886 -1.9616 -0.8556
17669SOL     OW55898   1.286   2.162   4.076 -0.1195 -0.4354 -0.3531
17669SOL    HW155899   1.327   2.222   4.014 -1.0512 -0.9831 -1.5189
17669SOL    HW255900   1.279   2.213   4.157 -1.5114  1.2891 -1.4990
17670SOL     OW55901   7.537   6.848   5.275  0.4364  0.2585 -0.0186
17670SOL    HW155902   7.479   6.776   5.301  0.1519  0.7642  0.7744
17670SOL    HW255903   7.523   6.915   5.342  1.4947  0.6258 -0.1572
17671SOL     OW55904   8.427   6.156   1.060  0.0321  0.8718  0.3990
17671SOL    HW155905   8.442   6.136   1.152  2.0632  3.2285  0.7003
17671SOL    HW255906   8.498   6.111   1.014  1.6204  2.9887  0.5643
17672SOL     OW55907   2.876   6.749   1.544  0.2536 -0.2952  0.0783
17672SOL    HW155908   2.887   6.690   1.469 -1.1603 -0.4308 -0.0449
17672SOL    HW255909   2.942   6.817   1.531 -0.0011 -0.2945 -1.3202
17673SOL     OW55910   5.461   3.810   0.633  0.2359 -0.1848 -0.1819
17673SOL    HW155911   5.421   3.752   0.698 -0.0556  0.9249  0.6661
17673SOL    HW255912   5.535   3.849   0.680  1.8066 -1.5355 -1.4459
17674SOL     OW55913   2.548   6.645   0.042 -0.1880  1.0836  0.3774
17674SOL    HW155914   2.459   6.618   0.064 -0.2829  0.9750 -0.1171
17674SOL    HW255915   2.543   6.741   0.039 -0.2158  1.0904  0.6518
17675SOL     OW55916   3.984   7.284   3.615 -0.3820 -0.3255 -0.3103
17675SOL    HW155917   3.928   7.237   3.677 -1.5448  0.4185 -0.7807
17675SOL    HW255918   3.998   7.370   3.655  0.3291 -0.4616 -0.2563
17676SOL     OW55919   4.811   0.516   8.768  0.0535  0.6877  0.3303
17676SOL    HW155920   4.830   0.532   8.860 -1.2634 -0.2273  0.8029
17676SOL    HW255921   4.819   0.421   8.758  0.4176  0.8079 -0.5524
17677SOL     OW55922   1.171   7.873   1.626  0.7674 -0.8763 -0.2473
17677SOL    HW155923   1.149   7.953   1.673 -2.2272 -1.8190  0.2068
17677SOL    HW255924   1.251   7.841   1.668  0.7963  0.7414  1.0180
17678SOL     OW55925   2.743   1.605   3.367 -0.1617  0.0093  0.1157
17678SOL    HW155926   2.776   1.682   3.320 -0.2205  0.4671  0.8103
17678SOL    HW255927   2.752   1.533   3.304 -0.1976  0.5967 -0.5811
17679SOL     OW55928   3.844   3.007   8.993  0.2467 -0.0318 -0.4574
17679SOL    HW155929   3.801   3.004   9.079 -1.1644 -1.8160 -1.1704
17679SOL    HW255930   3.779   3.045   8.935  0.8475  0.2833 -0.9365
17680SOL     OW55931   1.364   0.670   1.180  0.2677  0.1263  0.0162
17680SOL    HW155932   1.442   0.645   1.229 -1.1413 -2.5064  1.1136
17680SOL    HW255933   1.385   0.648   1.089  1.5848  1.6266 -0.0849
17681SOL     OW55934   3.089   8.085   9.163 -0.1270 -0.5553 -0.3017
17681SOL    HW155935   3.136   8.007   9.133 -0.3389 -0.4589 -0.9042
17681SOL    HW255936   3.009   8.086   9.111 -0.5827 -0.4627  0.3920
17682SOL     OW55937   0.134   7.834   3.099  0.0658 -0.3374  0.0200
17682SOL    HW155938   0.171   7.782   3.028 -0.1139 -1.1011  0.4723
17682SOL    HW255939   0.195   7.824   3.171  0.3253  0.5600 -0.0610
17683SOL     OW55940   2.048   4.163   9.231 -0.5003 -0.5193 -0.0719
17683SOL    HW155941   2.101   4.243   9.230 -1.1244 -0.0726  1.2292
17683SOL    HW255942   2.111   4.093   9.212  0.1017  0.2316 -0.9620
17684SOL     OW55943   8.278   3.287   0.370 -0.0388  0.1188 -0.1865
17684SOL    HW155944   8.327   3.243   0.301  2.3291  1.1045  0.7742
17684SOL    HW255945   8.321   3.372   0.380 -1.8090  0.9465  0.9099
17685SOL     OW55946   1.328   1.984   5.027  0.1437 -0.0318  0.2109
17685SOL    HW155947   1.261   1.982   5.096 -0.1783  2.4520  0.0811
17685SOL    HW255948   1.316   2.070   4.985  2.2262 -0.2788 -1.0213
17686SOL     OW55949   9.067   8.975   0.049  0.5199  0.0213  0.2218
17686SOL    HW155950   9.091   8.902   0.106 -0.3519  0.9561  1.8526
17686SOL    HW255951   8.987   8.946   0.005  0.3100 -0.1107  0.6827
17687SOL     OW55952   6.965   1.895   7.701 -0.6305 -0.1629 -0.0025
17687SOL    HW155953   6.966   1.860   7.790  0.3201  2.0375  0.9408
17687SOL    HW255954   6.935   1.823   7.647  1.8232 -2.5860  1.6484
17688SOL     OW55955   1.787   1.033   6.500 -0.4727  0.5363  0.1316
17688SOL    HW155956   1.833   1.117   6.510  1.2450 -0.3964  0.4601
17688SOL    HW255957   1.823   0.977   6.569 -0.7957 -0.8145 -0.7565
17689SOL     OW55958   3.850   2.301   1.334  0.0271  0.9130  0.2501
17689SOL    HW155959   3.825   2.336   1.249  1.9656 -2.1453 -1.7845
17689SOL    HW255960   3.900   2.370   1.376 -0.7614  2.4024 -1.1730
17690SOL     OW55961   6.681   6.530   3.781 -0.4509 -0.1148  0.6571
17690SOL    HW155962   6.773   6.506   3.784 -0.4007 -0.1261 -0.3750
17690SOL    HW255963   6.637   6.466   3.836 -0.0780 -1.3648 -0.4545
17691SOL     OW55964   2.090   2.373   5.473  0.2085  0.3385 -0.1192
17691SOL    HW155965   2.118   2.293   5.430  0.6652 -0.2291  1.1632
17691SOL    HW255966   1.995   2.372   5.466 -0.0415 -1.7117  2.1106
17692SOL     OW55967   7.927   3.953   4.366 -0.3512 -0.3463  0.0622
17692SOL    HW155968   7.864   3.892   4.327  0.5786 -0.6457 -1.0180
17692SOL    HW255969   7.915   4.034   4.318 -0.6064 -0.0973  0.5422
17693SOL     OW55970   1.304   0.919   7.758  0.2733 -0.2687 -0.0002
17693SOL    HW155971   1.286   0.827   7.743  1.3678 -0.3341 -1.0745
17693SOL    HW255972   1.294   0.931   7.852  0.0155 -1.4501  0.1358
17694SOL     OW55973   4.345   8.844   2.903  0.6452  0.5072 -0.8309
17694SOL    HW155974   4.368   8.913   2.965 -0.6153 -0.2666  0.5496
17694SOL    HW255975   4.384   8.764   2.939 -1.9501 -0.3669  0.2459
17695SOL     OW55976   3.917   0.118   3.260 -0.1050  0.4844 -0.1436
17695SOL    HW155977   3.914   0.212   3.280 -2.2027  0.2667  0.8708
17695SOL    HW255978   3.900   0.113   3.166  0.7713  1.1287 -0.3546
17696SOL     OW55979   4.084   4.357   1.435  0.2124  0.0419 -0.0119
17696SOL    HW155980   4.137   4.292   1.480  0.6341  1.1445  1.1322
17696SOL    HW255981   4.118   4.359   1.346  1.6664  0.2647  0.5314
17697SOL     OW55982   7.984   4.160   5.489 -0.0217 -0.0803  0.2534
17697SOL    HW155983   8.053   4.204   5.440 -0.8632  1.3500  0.2914
17697SOL    HW255984   8.029   4.090   5.537  1.0399 -0.5939 -1.4026
17698SOL     OW55985   6.411   7.227   5.199 -0.2793  0.7350  0.4461
17698SOL    HW155986   6.373   7.278   5.127 -3.3331 -0.0112  1.3804
17698SOL    HW255987   6.337   7.181   5.238  1.6990 -1.1213  2.3254
17699SOL     OW55988   2.123   1.054   1.400  0.1595  0.1144 -0.1586
17699SOL    HW155989   2.156   0.967   1.421 -0.6127 -0.8730 -2.6793
17699SOL    HW255990   2.053   1.070   1.464 -0.1445 -1.4291 -0.0746
17700SOL     OW55991   4.086   5.752   4.088  0.5216 -0.5187  0.7483
17700SOL    HW155992   4.095   5.739   3.993  0.8758 -4.2592  1.1477
17700SOL    HW255993   4.176   5.747   4.121  0.1530 -3.3312  1.5635
17701SOL     OW55994   2.094   2.360   6.795 -0.1652  0.3012 -0.2908
17701SOL    HW155995   2.178   2.407   6.801  0.0983 -0.1623 -0.2866
17701SOL    HW255996   2.119   2.269   6.782 -0.6747  0.2016 -0.6039
17702SOL     OW55997   2.491   6.835   3.803 -0.3766  0.1843 -0.3783
17702SOL    HW155998   2.502   6.891   3.727 -1.0539 -0.9480 -1.3525
17702SOL    HW255999   2.416   6.872   3.850 -0.0950  0.7603 -0.3829
17703SOL     OW56000   8.070   2.283   2.928 -0.0244  0.3303 -0.6414
17703SOL    HW156001   8.064   2.302   2.835  0.4276 -1.4859 -1.0900
17703SOL    HW256002   8.138   2.216   2.934 -0.3912  0.0628  0.9368
17704SOL     OW56003   3.585   4.014   6.249 -0.1820 -0.1638 -0.2868
17704SOL    HW156004   3.593   4.103   6.283 -0.6067 -0.1152 -0.3030
17704SOL    HW256005   3.508   3.979   6.294  0.3706 -0.7497  0.2157
17705SOL     OW56006   0.392   3.059   2.532  0.2359 -0.4311 -0.1178
17705SOL    HW156007   0.391   3.145   2.489 -1.7164 -1.1729 -1.7426
17705SOL    HW256008   0.337   3.004   2.476  0.9157 -2.5885  1.2193
17706SOL     OW56009   9.195   0.926   0.031 -0.4144 -0.4947  0.1028
17706SOL    HW156010   9.174   0.950   0.121  1.5177  0.8191  0.2542
17706SOL    HW256011   9.181   1.006  -0.020 -1.8904 -1.3303 -0.8780
17707SOL     OW56012   2.538   8.956   5.419 -0.1674  0.1172  0.3706
17707SOL    HW156013   2.526   8.896   5.492 -0.0921  0.3171  0.5464
17707SOL    HW256014   2.564   9.039   5.459 -2.2720  0.8673  0.3144
17708SOL     OW56015   6.805   0.529   1.074  0.5043  0.1946  0.1933
17708SOL    HW156016   6.721   0.575   1.077  0.7256  0.5736  1.1572
17708SOL    HW256017   6.843   0.551   0.989 -0.4900 -0.2071 -0.3667
17709SOL     OW56018   6.290   5.393   5.961 -0.7637 -0.1614  0.3228
17709SOL    HW156019   6.230   5.457   5.997  0.6387  1.7867 -0.6058
17709SOL    HW256020   6.240   5.351   5.890 -1.1011  1.3772 -0.4014
17710SOL     OW56021   3.124   6.920   8.556  0.0166 -0.3282 -0.2732
17710SOL    HW156022   3.064   6.994   8.545  0.1299 -0.1126  0.4943
17710SOL    HW256023   3.209   6.959   8.575  0.5898 -0.6186 -2.0571
17711SOL     OW56024   6.970   7.709   6.554  0.0669 -0.0158 -0.5504
17711SOL    HW156025   6.982   7.635   6.494 -0.1672 -0.1906 -0.3885
17711SOL    HW256026   6.986   7.786   6.500 -3.1527  0.0130 -1.7094
17712SOL     OW56027   8.808   8.495   2.164 -0.5296 -0.2737  0.3565
17712SOL    HW156028   8.891   8.462   2.200 -0.2938 -0.1053 -0.0214
17712SOL    HW256029   8.780   8.562   2.227 -1.9803 -2.4056  2.1507
17713SOL     OW56030   3.619   8.168   7.805 -0.4989 -0.0490 -0.1915
17713SOL    HW156031   3.585   8.255   7.782  0.0005  0.2281  0.1138
17713SOL    HW256032   3.669   8.182   7.885 -0.9532 -0.7391  0.2237
17714SOL     OW56033   7.971   1.608   5.333  0.5397  0.1079 -0.3966
17714SOL    HW156034   7.965   1.545   5.405 -2.8294  1.2234  0.4644
17714SOL    HW256035   7.880   1.625   5.308  1.4733  2.0963 -2.8975
17715SOL     OW56036   4.694   4.899   6.897  0.3959 -0.2520  0.3858
17715SOL    HW156037   4.669   4.956   6.824  0.2553  0.8018  1.2260
17715SOL    HW256038   4.779   4.863   6.871  0.6456  0.6018 -0.0324
17716SOL     OW56039   4.313   1.088   6.632 -0.3109  0.5680 -0.1822
17716SOL    HW156040   4.338   1.105   6.541  0.1810  0.5429 -0.0538
17716SOL    HW256041   4.339   1.166   6.679  2.4747 -0.6473  0.5066
17717SOL     OW56042   1.617   0.249   5.419  0.1400  0.1215  0.0594
17717SOL    HW156043   1.673   0.324   5.400  0.5597 -0.3810 -0.7644
17717SOL    HW256044   1.619   0.240   5.514  1.2004  0.3120  0.0642
17718SOL     OW56045   2.156   3.434   7.113  0.1175  0.1433  0.1726
17718SOL    HW156046   2.162   3.515   7.063  0.5574  0.8961  1.4153
17718SOL    HW256047   2.247   3.403   7.119  0.0550  0.0010  0.4063
17719SOL     OW56048   0.542   2.162   3.523 -0.1934  0.3136 -0.0267
17719SOL    HW156049   0.527   2.221   3.597  0.9357 -0.4678  0.8476
17719SOL    HW256050   0.508   2.077   3.551 -1.1455  0.3389 -1.0053
17720SOL     OW56051   0.766   8.215   3.707  0.2687 -0.6842 -0.4020
17720SOL    HW156052   0.730   8.138   3.664 -0.3976 -1.0031  0.6930
17720SOL    HW256053   0.780   8.278   3.636 -0.7163 -1.2162 -1.0911
17721SOL     OW56054   3.448   4.494   2.371  0.1480 -0.0454 -0.1282
17721SOL    HW156055   3.459   4.408   2.331 -0.8612 -0.2990  0.1130
17721SOL    HW256056   3.535   4.534   2.368  0.7698 -1.3235  0.3252
17722SOL     OW56057   2.810   4.157   3.978 -0.3150  0.0234 -0.6137
17722SOL    HW156058   2.722   4.129   4.005  0.2921 -1.7357 -0.3236
17722SOL    HW256059   2.797   4.243   3.938 -2.6051 -1.2930 -3.0510
17723SOL     OW56060   1.465   5.567   4.251 -0.4904  0.1519  0.2929
17723SOL    HW156061   1.417   5.489   4.222  0.1259 -0.3548  0.6125
17723SOL    HW256062   1.555   5.553   4.221  0.0541 -0.1581  1.9525
17724SOL     OW56063   2.260   9.199   6.555 -0.0299 -0.0317 -0.0388
17724SOL    HW156064   2.329   9.161   6.501  1.5114 -0.6873  2.2504
17724SOL    HW256065   2.307   9.244   6.625 -1.8896 -0.8445  1.8333
17725SOL     OW56066   8.822   5.617   1.807 -0.3834  0.1881 -0.3730
17725SOL    HW156067   8.731   5.618   1.779 -0.5024 -0.7919 -0.0327
17725SOL    HW256068   8.870   5.578   1.734 -0.2778  0.3886 -0.4135
17726SOL     OW56069   3.072   3.107   5.375 -0.0727 -0.1088  0.1660
17726SOL    HW156070   3.008   3.141   5.437 -0.7595  1.0030 -1.1160
17726SOL    HW256071   3.029   3.112   5.290  1.1496 -0.8143 -0.5292
17727SOL     OW56072   4.679   0.404   0.486 -0.1709  0.0461 -0.3318
17727SOL    HW156073   4.711   0.365   0.568  0.0810 -3.7915 -2.0340
17727SOL    HW256074   4.753   0.455   0.454  0.9890 -1.2320  0.2069
17728SOL     OW56075   1.459   7.851   2.565  0.6208  0.4050 -0.4339
17728SOL    HW156076   1.465   7.862   2.659 -0.3696 -0.0014 -0.3167
17728SOL    HW256077   1.451   7.940   2.531  1.1304  0.5616 -0.1521
17729SOL     OW56078   6.083   1.910   8.121 -0.3999  0.5899 -0.0227
17729SOL    HW156079   6.069   1.815   8.129 -0.3270  0.6717  1.1451
17729SOL    HW256080   6.074   1.944   8.209 -0.4715  1.6943 -0.4395
17730SOL     OW56081   8.504   1.187   1.459  0.7921  0.6493 -0.0243
17730SOL    HW156082   8.524   1.280   1.448 -0.6893  0.9944 -0.0347
17730SOL    HW256083   8.498   1.153   1.370  2.1346  0.3289 -0.0187
17731SOL     OW56084   8.115   2.353   8.964  0.0117 -0.4453  0.2229
17731SOL    HW156085   8.168   2.314   8.894  2.3541  0.6883  1.2721
17731SOL    HW256086   8.174   2.415   9.007 -2.9572  2.9709 -0.2299
17732SOL     OW56087   7.025   2.887   6.653 -0.3972  0.5354 -0.2525
17732SOL    HW156088   7.107   2.838   6.661  0.6149  2.2579  0.4483
17732SOL    HW256089   6.966   2.845   6.716  0.1947 -0.2334 -0.1938
17733SOL     OW56090   5.810   7.491   0.004  0.3805  0.1716 -0.2629
17733SOL    HW156091   5.883   7.438   0.036 -0.6532 -1.1926 -0.0941
17733SOL    HW256092   5.790   7.455  -0.082  0.6491  1.3264 -0.8346
17734SOL     OW56093   1.675   5.538   6.763  0.1819  0.1397  0.2909
17734SOL    HW156094   1.753   5.483   6.768  0.1422  0.1341  0.9154
17734SOL    HW256095   1.656   5.545   6.669 -0.7940 -2.2695  0.2396
17735SOL     OW56096   6.133   2.318   5.052 -0.1958 -0.4966 -0.4753
17735SOL    HW156097   6.116   2.234   5.010  1.5302 -0.5822 -1.0465
17735SOL    HW256098   6.089   2.312   5.137 -0.1160 -1.9571 -0.5243
17736SOL     OW56099   2.031   7.821   1.261 -0.4672  0.2906  0.0752
17736SOL    HW156100   1.977   7.809   1.339 -1.7063  2.0747 -0.4489
17736SOL    HW256101   2.083   7.741   1.255 -0.0391  0.2584  2.9206
17737SOL     OW56102   4.273   1.151   1.385  0.0057  0.2705  0.0038
17737SOL    HW156103   4.284   1.175   1.293 -0.7068  0.9272  0.0807
17737SOL    HW256104   4.225   1.068   1.382 -1.5174  1.1137 -0.2217
17738SOL     OW56105   7.232   0.521   4.646 -0.3179  1.0431  0.1588
17738SOL    HW156106   7.254   0.609   4.677  1.5420  0.5468  0.3664
17738SOL    HW256107   7.281   0.510   4.565 -1.8387  0.7657 -0.7724
17739SOL     OW56108   7.450   0.859   8.083  0.6303 -0.4464  0.3494
17739SOL    HW156109   7.538   0.831   8.060  0.0213 -0.9073 -1.5546
17739SOL    HW256110   7.392   0.808   8.026 -0.7292  1.7450 -0.3508
17740SOL     OW56111   3.154   3.975   8.048 -0.2382 -0.4829  0.1252
17740SOL    HW156112   3.240   3.934   8.047 -0.2998 -0.6136 -0.7326
17740SOL    HW256113   3.100   3.918   7.994 -0.4512  0.4580 -0.6888
17741SOL     OW56114   6.786   0.495   2.890  0.5106 -0.1588  0.4919
17741SOL    HW156115   6.705   0.444   2.891 -1.1836  2.1774 -1.8045
17741SOL    HW256116   6.771   0.565   2.954  1.3345 -0.4572  1.0352
17742SOL     OW56117   2.221   6.130   2.372 -0.0836 -0.4171 -0.2902
17742SOL    HW156118   2.163   6.187   2.422  0.4190 -0.0479 -0.1095
17742SOL    HW256119   2.169   6.101   2.297 -0.5942 -0.3486  0.0374
17743SOL     OW56120   6.150   8.969   4.022  0.3006 -0.6029 -0.3713
17743SOL    HW156121   6.103   8.925   4.093  1.0528 -0.4679  0.2162
17743SOL    HW256122   6.083   9.024   3.980  0.3932  1.4476  1.9544
17744SOL     OW56123   0.274   7.837   6.465 -0.1670 -0.1622 -0.3896
17744SOL    HW156124   0.249   7.929   6.450  1.6295  0.6744  1.3086
17744SOL    HW256125   0.191   7.789   6.459 -0.8322  1.1408 -3.7773
17745SOL     OW56126   0.172   6.484   1.574 -0.2265  0.4997 -0.5568
17745SOL    HW156127   0.256   6.438   1.575  0.6692  2.0604  0.7862
17745SOL    HW256128   0.116   6.433   1.632  0.3420  0.3804 -0.0988
17746SOL     OW56129   7.047   3.203   2.911  0.5175 -0.1192 -0.2424
17746SOL    HW156130   7.132   3.187   2.872 -0.2471 -0.8809 -1.6575
17746SOL    HW256131   7.021   3.290   2.879  1.6762  1.1454  1.9763
17747SOL     OW56132   8.673   6.363   5.844 -0.3347  0.2318 -0.1402
17747SOL    HW156133   8.621   6.293   5.886 -1.2983 -0.4274 -2.3017
17747SOL    HW256134   8.614   6.438   5.841 -0.6853 -0.0763 -1.3059
17748SOL     OW56135   6.675   7.388   3.300  0.0691 -0.0572  0.2335
17748SOL    HW156136   6.648   7.480   3.295  2.0619  0.5341 -0.5659
17748SOL    HW256137   6.724   7.382   3.382  0.2102 -0.3308  0.1287
17749SOL     OW56138   2.478   1.222   8.488 -0.0116 -0.0194 -0.2014
17749SOL    HW156139   2.557   1.173   8.463 -0.6630  0.2991 -3.2992
17749SOL    HW256140   2.418   1.156   8.522  1.4684 -0.2890  2.0647
17750SOL     OW56141   7.978   8.028   5.183 -0.3809 -0.7758  0.5711
17750SOL    HW156142   7.999   7.956   5.124 -1.0976 -0.3083 -0.2700
17750SOL    HW256143   7.956   7.985   5.266  0.5351 -1.4377  0.4885
17751SOL     OW56144   9.225   0.357   3.369 -0.2654 -0.1146 -0.2976
17751SOL    HW156145   9.231   0.321   3.457 -1.5274 -0.4701 -0.3378
17751SOL    HW256146   9.141   0.404   3.368 -0.4995 -0.5221 -1.4420
17752SOL     OW56147   8.990   5.314   2.795 -0.0174  0.1406 -0.4976
17752SOL    HW156148   9.078   5.288   2.821  0.0791 -1.7162 -2.4346
17752SOL    HW256149   9.001   5.397   2.749  0.7096 -0.0133 -0.6056
17753SOL     OW56150   2.225   3.123   3.390  0.1328 -0.6660  0.2955
17753SOL    HW156151   2.170   3.129   3.468 -1.4827 -2.0024 -0.6718
17753SOL    HW256152   2.246   3.030   3.382  1.0991 -0.4106 -0.3187
17754SOL     OW56153   5.484   3.682   2.667 -0.3578  0.6163 -0.0837
17754SOL    HW156154   5.412   3.715   2.614  0.0756 -1.1393 -1.9128
17754SOL    HW256155   5.472   3.587   2.667 -0.2210  0.5278  2.9049
17755SOL     OW56156   3.174   1.929   1.945  0.1971 -0.0363 -0.4242
17755SOL    HW156157   3.176   2.018   1.910  0.7103 -0.0044 -0.3106
17755SOL    HW256158   3.081   1.914   1.964  0.2513  0.9631  0.8043
17756SOL     OW56159   6.508   5.417   7.735 -0.5495  0.1313  0.4325
17756SOL    HW156160   6.556   5.356   7.679  1.3983  1.2573  0.7836
17756SOL    HW256161   6.507   5.375   7.821  0.4313  0.4001  0.5812
17757SOL     OW56162   5.237   1.922   5.828 -0.3494  0.1403  0.4318
17757SOL    HW156163   5.256   2.001   5.777 -0.0947  0.4750  1.0402
17757SOL    HW256164   5.190   1.865   5.766  0.0945  0.4703 -0.2249
17758SOL     OW56165   4.636   8.814   7.175  0.0978 -0.2862 -0.1497
17758SOL    HW156166   4.558   8.870   7.166  0.0493 -0.5523 -1.4648
17758SOL    HW256167   4.642   8.798   7.270 -2.3589 -1.5596 -0.1234
17759SOL     OW56168   2.178   1.535   2.905 -0.1107  0.6439 -0.2404
17759SOL    HW156169   2.177   1.482   2.984 -0.3566  1.2395  0.1611
17759SOL    HW256170   2.222   1.480   2.840 -1.2851 -0.4604 -0.1344
17760SOL     OW56171   8.056   7.601   6.453  0.0773  0.1761  0.2799
17760SOL    HW156172   8.006   7.649   6.387 -0.4729 -0.0694  0.5138
17760SOL    HW256173   7.990   7.567   6.513  0.3815 -1.4500 -0.2464
17761SOL     OW56174   5.347   0.031   2.121 -0.5022  0.2526 -0.1736
17761SOL    HW156175   5.399  -0.017   2.186 -0.4103  0.3050 -0.2081
17761SOL    HW256176   5.412   0.078   2.068 -0.5406 -0.1956 -0.6289
17762SOL     OW56177   7.479   0.569   4.271 -0.0648  0.0009  0.0321
17762SOL    HW156178   7.493   0.503   4.203  0.7621 -0.2829  0.4605
17762SOL    HW256179   7.443   0.644   4.224 -1.2647 -0.8254 -0.4289
17763SOL     OW56180   0.022   7.731   1.349 -0.1284 -0.4651  0.3781
17763SOL    HW156181  -0.068   7.700   1.337 -0.2193  0.1698 -0.7123
17763SOL    HW256182   0.076   7.653   1.341 -0.4684 -0.6119 -0.7325
17764SOL     OW56183   5.937   3.494   0.033  0.1303  0.0145 -0.3104
17764SOL    HW156184   6.009   3.448   0.076 -0.2201  0.3304  0.6416
17764SOL    HW256185   5.858   3.454   0.069 -0.1737  0.5530 -0.3688
17765SOL     OW56186   7.984   0.638   2.576 -0.2146 -0.9704  0.3905
17765SOL    HW156187   8.072   0.667   2.600 -0.8106 -0.1883  1.7408
17765SOL    HW256188   7.997   0.587   2.496  1.2518  0.4724 -0.3588
17766SOL     OW56189   6.755   1.966   9.198  0.2893 -0.1093  0.4589
17766SOL    HW156190   6.738   1.983   9.106 -0.6251  0.6797  0.7464
17766SOL    HW256191   6.836   2.012   9.218  0.5234 -0.3397  0.0413
17767SOL     OW56192   4.787   6.017   1.018 -0.0716  0.1220  0.4491
17767SOL    HW156193   4.845   6.027   1.094 -1.6980  0.9322  1.6410
17767SOL    HW256194   4.719   6.083   1.031 -1.8185 -1.4276 -0.3772
17768SOL     OW56195   7.613   8.985   6.335 -0.4008 -0.0495 -0.0947
17768SOL    HW156196   7.544   8.984   6.401 -0.2777 -1.5852  0.0308
17768SOL    HW256197   7.694   8.989   6.385 -0.2899 -1.6795 -0.1182
17769SOL     OW56198   2.737   0.052   0.552  0.1213 -0.2563  0.5730
17769SOL    HW156199   2.731  -0.044   0.554 -1.5103 -0.1697  2.0320
17769SOL    HW256200   2.815   0.071   0.605  0.9511 -0.7658 -0.4141
17770SOL     OW56201   0.761   0.784   4.746  0.8408  0.0901 -0.2798
17770SOL    HW156202   0.791   0.695   4.765  0.8910  0.2690  0.5444
17770SOL    HW256203   0.701   0.775   4.673 -0.7289 -0.9047  1.0858
17771SOL     OW56204   3.592   3.148   6.929 -0.0917  0.1796 -0.0550
17771SOL    HW156205   3.573   3.145   6.836 -0.7962  0.9995  0.0474
17771SOL    HW256206   3.507   3.161   6.971  0.2859  0.4684  0.6536
17772SOL     OW56207   4.871   8.942   5.947 -0.3792 -0.2055 -0.3307
17772SOL    HW156208   4.796   8.953   6.006 -0.2645 -1.5665  0.1115
17772SOL    HW256209   4.833   8.948   5.859 -0.6330  1.3341 -0.1473
17773SOL     OW56210   1.591   1.757   8.341 -0.1399 -0.7113  0.0962
17773SOL    HW156211   1.516   1.761   8.281  1.0087 -0.8812 -1.3991
17773SOL    HW256212   1.616   1.848   8.356 -0.9179 -0.6296  0.9865
17774SOL     OW56213   7.791   7.754   8.166  0.0062 -0.0323 -0.6156
17774SOL    HW156214   7.849   7.821   8.129 -0.1109  0.4474  0.0492
17774SOL    HW256215   7.847   7.705   8.227  0.0344 -0.4057 -0.9353
17775SOL     OW56216   9.222   0.165   7.883  0.1435  0.5568 -0.5427
17775SOL    HW156217   9.189   0.075   7.884 -0.4387  0.7369 -2.0686
17775SOL    HW256218   9.143   0.220   7.886  0.5071  1.0887  1.7031
17776SOL     OW56219   4.306   5.835   7.360 -0.1971  0.0954 -0.8200
17776SOL    HW156220   4.393   5.844   7.322 -0.2444  2.0917 -0.5720
17776SOL    HW256221   4.281   5.924   7.384 -2.5919 -0.3246 -1.4735
17777SOL     OW56222   4.977   6.192   4.012  0.0261  0.7098 -0.0279
17777SOL    HW156223   4.984   6.269   4.069  1.2576  0.6593 -0.0944
17777SOL    HW256224   4.952   6.228   3.927 -2.9181  0.6958  0.7263
17778SOL     OW56225   6.816   8.857   6.551 -0.1778  0.0543  0.4821
17778SOL    HW156226   6.866   8.815   6.620 -0.4114 -0.6804  0.2138
17778SOL    HW256227   6.881   8.905   6.499  0.0240  0.4268  1.0807
17779SOL     OW56228   8.531   1.057   7.077  0.7733  0.3949 -0.3397
17779SOL    HW156229   8.619   1.080   7.049 -0.0307  2.0503 -1.7282
17779SOL    HW256230   8.484   1.140   7.076 -0.4613 -0.2140  1.7588
17780SOL     OW56231   4.378   4.434   4.640  0.1288 -0.0541 -0.2794
17780SOL    HW156232   4.457   4.485   4.658  0.6444 -1.3052  1.2310
17780SOL    HW256233   4.321   4.450   4.715 -0.7158  0.1471 -0.9427
17781SOL     OW56234   4.799   0.294   3.565  0.9466 -0.5990  0.0044
17781SOL    HW156235   4.889   0.317   3.543  0.6074  1.3508  0.5205
17781SOL    HW256236   4.754   0.288   3.481  0.6655  2.4620 -0.1683
17782SOL     OW56237   1.420   1.451   4.751 -0.2153  0.3333 -0.1928
17782SOL    HW156238   1.339   1.435   4.702 -1.0616  0.8356  1.0037
17782SOL    HW256239   1.483   1.479   4.685 -0.6101 -1.3289 -1.3545
17783SOL     OW56240   5.066   7.178   7.602  0.3741  0.5373 -0.3777
17783SOL    HW156241   5.037   7.173   7.511 -0.7323  0.0335 -0.0300
17783SOL    HW256242   5.000   7.233   7.645 -0.5604 -1.2197  0.5952
17784SOL     OW56243   2.125   8.809   4.093  0.3797  0.5239 -0.5500
17784SOL    HW156244   2.055   8.772   4.147  1.2401  0.5368  0.6148
17784SOL    HW256245   2.094   8.896   4.071  0.1497  0.6471  0.2169
17785SOL     OW56246   7.990   5.569   3.012  0.0823 -0.4078 -0.8367
17785SOL    HW156247   8.029   5.645   2.968  0.4786 -0.5750 -0.7823
17785SOL    HW256248   7.937   5.607   3.082  0.9278 -0.2005 -0.2945
17786SOL     OW56249   0.026   0.390   4.836 -0.1625 -0.1952 -0.1911
17786SOL    HW156250   0.037   0.429   4.923 -1.1335  0.6647 -0.4424
17786SOL    HW256251  -0.068   0.378   4.826 -0.0751 -0.1374 -1.1970
17787SOL     OW56252   7.078   8.348   3.122 -0.1246  0.2408  0.7705
17787SOL    HW156253   7.150   8.376   3.066  0.1303 -1.1581  0.3755
17787SOL    HW256254   7.076   8.413   3.193  1.2468  0.5314  0.5667
17788SOL     OW56255   6.858   1.690   7.556  0.5408  0.4003 -0.2241
17788SOL    HW156256   6.839   1.706   7.463  1.2686 -0.5614 -0.5526
17788SOL    HW256257   6.772   1.687   7.598  0.2328  2.9754 -0.4599
17789SOL     OW56258   4.680   2.462   4.448  0.1436  0.4195  0.5254
17789SOL    HW156259   4.631   2.537   4.481 -0.2502  0.0551  0.7728
17789SOL    HW256260   4.745   2.501   4.389 -1.1199  0.8471 -0.6729
17790SOL     OW56261   5.478   8.161   2.688  0.5510  0.0688  0.1293
17790SOL    HW156262   5.480   8.073   2.725  0.6446 -0.5060 -1.2037
17790SOL    HW256263   5.562   8.200   2.713 -0.3615  0.6293  2.6242
17791SOL     OW56264   0.769   9.101   5.825 -0.1937  0.2390 -0.1868
17791SOL    HW156265   0.686   9.065   5.796  0.3036  0.2263 -1.6929
17791SOL    HW256266   0.746   9.179   5.876 -1.1506 -0.5255  0.5947
17792SOL     OW56267   4.386   4.718   8.063 -0.8027  0.3135 -0.0152
17792SOL    HW156268   4.435   4.735   8.143  0.6297 -1.0704 -0.5368
17792SOL    HW256269   4.436   4.762   7.994 -0.0996 -1.2715 -0.5839
17793SOL     OW56270   6.602   0.504   6.731 -0.1789 -0.3678 -0.2970
17793SOL    HW156271   6.573   0.413   6.743  0.1724 -0.4416  0.0118
17793SOL    HW256272   6.603   0.516   6.636  0.4320 -0.9104 -0.3739
17794SOL     OW56273   5.749   9.149   1.940 -0.2424 -0.1842 -0.6923
17794SOL    HW156274   5.706   9.177   2.021  0.4721 -0.0959 -0.3345
17794SOL    HW256275   5.841   9.171   1.954  0.0860 -1.3183 -1.0280
17795SOL     OW56276   9.147   0.260   5.942  0.0084 -0.3399 -0.1409
17795SOL    HW156277   9.120   0.349   5.922  1.8379  0.1028 -0.8627
17795SOL    HW256278   9.075   0.223   5.992 -1.8141  0.7778 -1.8088
17796SOL     OW56279   6.620   4.797   1.406  0.3232 -0.1640 -0.0433
17796SOL    HW156280   6.620   4.733   1.334 -0.8752  0.9645 -1.1142
17796SOL    HW256281   6.587   4.749   1.481 -0.2792 -0.8880 -0.7531
17797SOL     OW56282   5.163   7.314   4.651  0.4876  0.5783 -0.3883
17797SOL    HW156283   5.229   7.383   4.641  1.4375 -0.1431  0.6727
17797SOL    HW256284   5.207   7.234   4.624  0.0938  0.0652  0.4322
17798SOL     OW56285   6.785   2.761   5.757 -0.6286  0.2956  0.1642
17798SOL    HW156286   6.787   2.713   5.674 -0.8504  1.8439 -0.7779
17798SOL    HW256287   6.725   2.834   5.741 -0.9404  0.4404  1.8122
17799SOL     OW56288   6.897   7.176   5.070  0.5660  0.0697 -0.2244
17799SOL    HW156289   6.829   7.158   5.007 -0.1178 -0.2342  0.5841
17799SOL    HW256290   6.943   7.093   5.081  1.5372  0.4438 -1.2930
17800SOL     OW56291   7.814   7.101   7.581  0.3447  0.1325  0.0227
17800SOL    HW156292   7.780   7.031   7.525  0.8655 -1.7312  1.8986
17800SOL    HW256293   7.736   7.137   7.623  0.2203 -0.5902  0.4280
17801SOL     OW56294   0.317   2.037   2.785  0.1213  0.3348 -0.0572
17801SOL    HW156295   0.402   1.998   2.767  0.7175  0.9610  1.2617
17801SOL    HW256296   0.309   2.108   2.722 -1.2010 -2.0851 -2.8411
17802SOL     OW56297   4.873   3.256   1.894 -0.2595  0.2102  0.0067
17802SOL    HW156298   4.819   3.319   1.940  0.5470 -0.4212  1.9003
17802SOL    HW256299   4.831   3.171   1.908 -0.6732  0.1328 -1.4954
17803SOL     OW56300   1.649   4.865   8.880  0.4112 -0.1218 -0.2453
17803SOL    HW156301   1.623   4.938   8.825  1.7591 -1.3526 -2.6813
17803SOL    HW256302   1.567   4.820   8.901 -0.3378  1.5539  0.6134
17804SOL     OW56303   3.001   1.705   1.084  0.5853  0.0951 -0.8212
17804SOL    HW156304   3.033   1.796   1.086  0.2371  0.2585  2.1876
17804SOL    HW256305   2.905   1.714   1.088  0.5337 -0.4060 -0.9436
17805SOL     OW56306   5.636   1.761   7.785 -0.7304  0.8342  0.0584
17805SOL    HW156307   5.712   1.736   7.732  0.4349 -0.2587  2.1075
17805SOL    HW256308   5.564   1.708   7.751  0.3220 -0.8944  0.4159
17806SOL     OW56309   7.315   2.616   3.516  0.1240  0.1579 -0.2431
17806SOL    HW156310   7.244   2.611   3.452  0.0727  1.2914 -0.2978
17806SOL    HW256311   7.347   2.526   3.524  1.1842  0.2233 -3.0087
17807SOL     OW56312   5.388   3.614   0.031 -0.0026  0.1315  0.4363
17807SOL    HW156313   5.443   3.682  -0.007 -0.2148 -0.7503 -1.5722
17807SOL    HW256314   5.303   3.656   0.045  0.0429  0.4431 -0.2028
17808SOL     OW56315   5.422   9.200   1.630  0.3212  0.5059 -0.3161
17808SOL    HW156316   5.493   9.148   1.669 -0.9018  0.8050  2.5788
17808SOL    HW256317   5.350   9.138   1.619 -0.1690  0.9446  0.3414
17809SOL     OW56318   2.991   0.909   6.466 -0.0901 -0.4521  0.0880
17809SOL    HW156319   3.000   0.994   6.422  1.7075 -0.9098 -0.4963
17809SOL    HW256320   2.998   0.930   6.559 -0.3164  0.1086 -0.0143
17810SOL     OW56321   6.998   2.621   7.660 -0.4259 -0.2866 -0.3800
17810SOL    HW156322   6.998   2.608   7.755 -0.9821 -0.8981 -0.4503
17810SOL    HW256323   7.087   2.649   7.640 -0.2832 -0.2086  0.3163
17811SOL     OW56324   7.306   6.648   0.806  0.2335 -0.1750  0.0670
17811SOL    HW156325   7.252   6.713   0.760 -0.3668 -0.0810  0.8933
17811SOL    HW256326   7.276   6.564   0.772  0.8123 -0.0571 -0.7914
17812SOL     OW56327   4.536   8.078   1.126  0.2744 -0.5754 -0.1632
17812SOL    HW156328   4.589   8.103   1.050 -0.6454 -0.0664 -0.6516
17812SOL    HW256329   4.568   7.991   1.150  1.9253  0.0633  0.1043
17813SOL     OW56330   6.345   5.049   7.118 -0.0988 -0.0980  0.6939
17813SOL    HW156331   6.313   5.085   7.201 -0.8738  0.3798  0.2037
17813SOL    HW256332   6.421   5.103   7.097 -0.4765  0.4136  0.6202
17814SOL     OW56333   2.088   1.731   2.153  0.5319 -0.3347  0.3799
17814SOL    HW156334   2.120   1.741   2.242 -0.2308  0.7205  0.5463
17814SOL    HW256335   2.166   1.707   2.102  0.8078 -1.8930  1.4555
17815SOL     OW56336   5.622   5.356   2.531 -0.0571 -0.0379 -0.1787
17815SOL    HW156337   5.615   5.416   2.456  3.2612  2.5494  1.3124
17815SOL    HW256338   5.535   5.356   2.570 -0.9655  1.3104 -2.0317
17816SOL     OW56339   6.511   8.917   7.111 -0.5659 -0.0428  0.8147
17816SOL    HW156340   6.535   8.923   7.203  1.7279 -1.6412  0.4138
17816SOL    HW256341   6.585   8.956   7.064 -0.8941 -0.8021 -0.3862
17817SOL     OW56342   5.104   5.794   6.039 -0.4395  0.0686  0.0959
17817SOL    HW156343   5.156   5.845   5.977 -1.8690 -0.3616 -1.5252
17817SOL    HW256344   5.014   5.823   6.024 -0.9168 -0.6066  1.4638
17818SOL     OW56345   3.562   2.560   6.073 -0.3132 -0.4253 -0.5135
17818SOL    HW156346   3.646   2.574   6.116 -1.0780  0.7344  0.7173
17818SOL    HW256347   3.560   2.624   6.002 -0.9728  1.0879  0.7908
17819SOL     OW56348   2.668   3.636   8.361  0.0180  0.1125  0.3592
17819SOL    HW156349   2.682   3.590   8.278  0.4640  0.7369  0.0728
17819SOL    HW256350   2.735   3.704   8.362 -0.0339  0.1649  1.2023
17820SOL     OW56351   7.430   4.033   4.944  0.0762 -0.1004 -0.6039
17820SOL    HW156352   7.479   3.978   4.883  0.4522 -0.5502  0.0970
17820SOL    HW256353   7.358   3.978   4.974  1.3884 -0.8192  1.3664
17821SOL     OW56354   2.871   8.273   2.122 -0.0863  0.4410 -0.1010
17821SOL    HW156355   2.820   8.328   2.062  1.0141  2.0813  0.3883
17821SOL    HW256356   2.813   8.259   2.197 -0.9228 -0.3729 -0.8685
17822SOL     OW56357   7.361   8.188   0.229 -0.2448  0.0795 -0.4657
17822SOL    HW156358   7.287   8.244   0.204 -0.4958 -0.0234  0.0367
17822SOL    HW256359   7.342   8.104   0.186  1.1387  0.9137 -2.8964
17823SOL     OW56360   3.807   7.508   0.092  0.6993 -0.1342  0.0843
17823SOL    HW156361   3.851   7.592   0.083  1.0335  0.0628  2.8247
17823SOL    HW256362   3.715   7.529   0.106  0.3348 -0.3932 -1.6118
17824SOL     OW56363   1.828   7.821   6.969  0.0851 -0.5300 -0.1622
17824SOL    HW156364   1.882   7.744   6.985  0.6846  0.1851  1.5464
17824SOL    HW256365   1.888   7.895   6.980 -0.5137  0.2043 -1.5895
17825SOL     OW56366   3.758   2.033   5.046  0.7481 -0.1750  0.1419
17825SOL    HW156367   3.849   2.019   5.074  1.1982  0.4828 -0.9103
17825SOL    HW256368   3.726   1.945   5.027  0.1073 -0.7854  3.4425
17826SOL     OW56369   5.753   6.212   5.722  0.0673 -0.2848  0.5886
17826SOL    HW156370   5.706   6.130   5.703 -0.4015  0.3327 -1.1461
17826SOL    HW256371   5.838   6.184   5.754 -0.0092 -1.4688 -0.1704
17827SOL     OW56372   5.324   2.410   6.445  0.5075 -0.3481  0.0573
17827SOL    HW156373   5.322   2.352   6.522  0.2385  0.0261  0.3347
17827SOL    HW256374   5.275   2.362   6.378  1.1886 -0.9101 -0.0542
17828SOL     OW56375   7.448   6.012   5.091  0.7013  0.0101  0.2376
17828SOL    HW156376   7.389   5.948   5.049  2.1903 -0.9198 -0.5276
17828SOL    HW256377   7.412   6.023   5.179 -1.5793  0.7840 -0.7084
17829SOL     OW56378   2.845   2.145   7.291 -0.3912 -0.1139 -0.2090
17829SOL    HW156379   2.782   2.148   7.218 -0.7523  0.6922  0.1294
17829SOL    HW256380   2.855   2.236   7.318  0.4423 -0.3090  0.1624
17830SOL     OW56381   5.096   4.571   6.505  0.4212 -0.1900 -0.0603
17830SOL    HW156382   5.034   4.643   6.511  0.1721 -0.4409  0.4496
17830SOL    HW256383   5.047   4.494   6.533  0.6826 -0.5642 -0.5970
17831SOL     OW56384   3.315   5.968   8.104 -0.3308  0.0036  0.3513
17831SOL    HW156385   3.280   5.918   8.178  0.0408  0.3435  0.7644
17831SOL    HW256386   3.410   5.958   8.112 -0.2829  0.1636 -0.0022
17832SOL     OW56387   2.882   6.934   7.739 -0.1475  0.6965  0.6757
17832SOL    HW156388   2.874   7.003   7.674 -1.3286  1.0414  1.1585
17832SOL    HW256389   2.814   6.953   7.803 -0.1139 -0.5768  1.1296
17833SOL     OW56390   6.669   4.749   8.408 -0.2875  0.3278 -0.1883
17833SOL    HW156391   6.708   4.819   8.356 -2.2349  0.0908 -2.1428
17833SOL    HW256392   6.717   4.670   8.383  0.3286  0.5861  0.1731
17834SOL     OW56393   0.897   1.821   0.379 -0.1916 -0.0095  0.0863
17834SOL    HW156394   0.945   1.903   0.390  1.9163 -0.9027 -1.7080
17834SOL    HW256395   0.845   1.834   0.300 -1.4965  0.2718  0.9553
17835SOL     OW56396   3.816   6.895   9.218  0.5753 -0.1093 -0.9322
17835SOL    HW156397   3.898   6.941   9.231  0.4240 -0.0508 -0.1173
17835SOL    HW256398   3.748   6.962   9.228  0.3774 -0.4039 -0.2176
17836SOL     OW56399   5.296   6.454   2.695 -0.9333 -0.0324 -0.0464
17836SOL    HW156400   5.236   6.382   2.712 -2.2700  0.6074 -1.7216
17836SOL    HW256401   5.383   6.417   2.710 -1.6874 -1.1963  1.7362
17837SOL     OW56402   5.287   8.280   4.749 -0.3677  0.0414  0.4151
17837SOL    HW156403   5.321   8.366   4.723  1.2099 -0.9108 -0.9293
17837SOL    HW256404   5.252   8.243   4.668  1.5906 -1.6822  0.2639
17838SOL     OW56405   1.570   9.076   6.454  0.2902  0.7426 -0.2742
17838SOL    HW156406   1.661   9.091   6.479  0.2813  0.5563 -0.1330
17838SOL    HW256407   1.534   9.020   6.523  0.7224 -1.1276 -1.4875
17839SOL     OW56408   5.328   4.341   8.981  0.6472 -0.0454  0.3275
17839SOL    HW156409   5.284   4.425   8.993 -0.2696 -0.2568 -1.3319
17839SOL    HW256410   5.393   4.358   8.912  0.8562 -0.5683  0.3901
17840SOL     OW56411   0.915   7.849   7.267 -0.1841 -0.2369 -0.8275
17840SOL    HW156412   0.901   7.928   7.319 -0.2015 -0.2771 -0.7705
17840SOL    HW256413   0.993   7.809   7.305  0.8386  0.6281 -1.9163
17841SOL     OW56414   3.585   2.802   2.047  0.0800 -0.7236  0.6229
17841SOL    HW156415   3.548   2.829   2.132  1.3323  0.5880  0.7861
17841SOL    HW256416   3.511   2.808   1.986 -0.4655 -0.1525  1.3281
17842SOL     OW56417   3.295   1.356   1.041  0.6533 -0.2171 -0.3901
17842SOL    HW156418   3.336   1.442   1.054 -1.5002  1.0468 -1.4543
17842SOL    HW256419   3.337   1.300   1.106  1.5356  1.8365  0.9256
17843SOL     OW56420   5.478   8.751   4.268 -0.2932 -0.1374 -0.3933
17843SOL    HW156421   5.385   8.751   4.292 -0.0397  2.1790  0.8815
17843SOL    HW256422   5.502   8.844   4.265  2.4181 -0.6801  1.1893
17844SOL     OW56423   7.428   1.968   8.127 -0.3577 -0.0686 -0.7727
17844SOL    HW156424   7.377   1.887   8.132 -0.4666  0.0660  0.6887
17844SOL    HW256425   7.447   1.979   8.033 -1.0435 -1.3354 -1.0791
17845SOL     OW56426   2.841   5.861   6.943  0.6050 -0.4369  0.2109
17845SOL    HW156427   2.853   5.881   6.851 -0.0481 -0.4146  0.1297
17845SOL    HW256428   2.904   5.918   6.988 -0.3029  0.8631 -0.1019
17846SOL     OW56429   7.830   6.502   3.045  0.1923  0.2764 -0.3166
17846SOL    HW156430   7.782   6.475   2.967  0.0209 -0.7027  0.1168
17846SOL    HW256431   7.922   6.485   3.023  0.1294 -0.1645 -0.2388
17847SOL     OW56432   0.097   3.030   8.846 -0.1568 -0.0159 -0.4060
17847SOL    HW156433   0.021   3.086   8.860  0.3179  0.5109  0.1097
17847SOL    HW256434   0.071   2.944   8.880  0.2847  0.7371  2.0343
17848SOL     OW56435   5.491   3.723   5.807 -0.1063  0.1301 -0.1315
17848SOL    HW156436   5.423   3.785   5.833  0.4352  1.6291 -2.1105
17848SOL    HW256437   5.453   3.675   5.733  0.6691  0.4387 -0.7498
17849SOL     OW56438   4.669   5.504   5.346  0.1618 -0.1689 -0.4166
17849SOL    HW156439   4.593   5.481   5.399 -0.4564 -1.0150 -1.6114
17849SOL    HW256440   4.633   5.559   5.277  0.6704 -0.3680 -0.8423
17850SOL     OW56441   2.366   1.007   4.751 -0.4250 -0.6225  0.0641
17850SOL    HW156442   2.323   1.093   4.742 -0.6585 -0.7190  0.2399
17850SOL    HW256443   2.459   1.026   4.743 -0.3916 -0.1797  1.2990
17851SOL     OW56444   5.994   6.598   7.415  0.4565 -0.0492 -0.4582
17851SOL    HW156445   6.025   6.533   7.478  2.2562  1.2060  0.0299
17851SOL    HW256446   6.070   6.620   7.363 -0.4246  0.7562 -1.4508
17852SOL     OW56447   5.086   7.789   9.182 -0.1783  0.0242 -1.1794
17852SOL    HW156448   5.152   7.776   9.114  0.2226 -0.4091 -0.7158
17852SOL    HW256449   5.106   7.875   9.219  2.4862 -1.5338  1.4387
17853SOL     OW56450   7.952   9.180   7.768 -0.1445  0.0185 -0.4804
17853SOL    HW156451   7.993   9.265   7.748  0.9558 -0.2061  0.7255
17853SOL    HW256452   8.022   9.116   7.755  0.2055 -0.3050  2.2841
17854SOL     OW56453   4.057   5.180   7.143  0.1435 -0.5006 -0.2412
17854SOL    HW156454   4.048   5.146   7.055  1.4520 -1.3953 -0.0552
17854SOL    HW256455   4.131   5.132   7.181 -0.8409 -0.6694  1.5981
17855SOL     OW56456   6.614   3.060   9.253 -0.8521 -0.6535  0.0824
17855SOL    HW156457   6.609   3.142   9.303  2.7216 -0.8474  1.0104
17855SOL    HW256458   6.632   2.993   9.319  1.1167 -1.3724 -1.0918
17856SOL     OW56459   1.775   1.423   1.466 -0.0473  0.3555  0.3297
17856SOL    HW156460   1.871   1.430   1.473  0.0174  0.4695 -0.5772
17856SOL    HW256461   1.743   1.509   1.491  0.1641  0.7053 -0.5596
17857SOL     OW56462   5.898   4.967   5.363  0.1688 -0.1014  0.3292
17857SOL    HW156463   5.816   4.928   5.331  0.2715  1.2934 -1.8480
17857SOL    HW256464   5.871   5.046   5.410  0.2357  0.3129 -0.3164
17858SOL     OW56465   0.452   4.960   1.794 -0.0173 -0.3848 -0.1517
17858SOL    HW156466   0.503   4.930   1.719  0.4517  1.1770 -0.4933
17858SOL    HW256467   0.452   5.055   1.787 -1.0435 -0.2574  1.1358
17859SOL     OW56468   8.998   0.540   5.879 -0.5408  0.1206  0.2185
17859SOL    HW156469   8.958   0.536   5.966  0.4038 -0.1535  0.6483
17859SOL    HW256470   8.923   0.540   5.819 -1.1931 -1.2469  0.9772
17860SOL     OW56471   7.013   7.301   9.095  0.2081  0.3159 -0.1662
17860SOL    HW156472   7.039   7.379   9.045 -2.0960 -0.3307 -2.5870
17860SOL    HW256473   6.939   7.330   9.148  0.6530  0.2208  0.5297
17861SOL     OW56474   4.011   4.302   8.515 -0.0079 -0.1391  0.0921
17861SOL    HW156475   3.917   4.289   8.525  0.0401 -0.3221  0.3127
17861SOL    HW256476   4.051   4.240   8.576  0.2254  1.1308  1.2854
17862SOL     OW56477   1.026   0.983   7.423 -0.4487  0.1361  0.3659
17862SOL    HW156478   1.065   0.957   7.340  0.3813  0.7691  0.5397
17862SOL    HW256479   1.088   1.046   7.460 -1.8777  1.5655  0.4397
17863SOL     OW56480   5.572   8.886   2.327  0.8468 -0.0947 -0.2045
17863SOL    HW156481   5.590   8.821   2.260 -0.3977  1.2933 -1.9796
17863SOL    HW256482   5.485   8.862   2.361  1.6842 -1.0966  1.3682
17864SOL     OW56483   3.167   0.109   4.985 -0.0869  0.5774  0.0374
17864SOL    HW156484   3.074   0.092   4.993 -0.1746  0.9184 -0.2694
17864SOL    HW256485   3.203   0.031   4.942 -0.2118  0.4026  0.2500
17865SOL     OW56486   0.336   3.492   1.538 -0.1820 -1.2748  0.6858
17865SOL    HW156487   0.425   3.457   1.546  0.7225  0.9797  1.3498
17865SOL    HW256488   0.314   3.480   1.446  0.7682 -1.9489  0.5248
17866SOL     OW56489   4.684   5.485   5.916  1.1168 -1.3300 -0.2723
17866SOL    HW156490   4.646   5.420   5.857  1.0354 -0.9818 -0.6020
17866SOL    HW256491   4.668   5.569   5.874  0.3641 -1.0076  0.6239
17867SOL     OW56492   5.855   2.109   8.293  0.5647  0.0378  0.5663
17867SOL    HW156493   5.796   2.035   8.311  0.4199 -0.3297 -1.2929
17867SOL    HW256494   5.938   2.083   8.334  0.6718 -1.4285 -0.5241
17868SOL     OW56495   1.643   8.069   5.921 -0.1792 -0.2918  0.4184
17868SOL    HW156496   1.686   7.989   5.891 -1.7476 -0.6474 -1.0540
17868SOL    HW256497   1.565   8.076   5.866 -0.7604  1.5679  1.3982
17869SOL     OW56498   8.265   7.407   7.129  0.1793  0.4589  0.4862
17869SOL    HW156499   8.253   7.341   7.196 -0.1932  2.6219  2.7075
17869SOL    HW256500   8.358   7.430   7.133  0.4570 -0.3497 -0.7515
17870SOL     OW56501   4.377   3.480   8.768 -0.2123  0.7188  0.1722
17870SOL    HW156502   4.407   3.556   8.719 -1.2625  1.1567  0.1910
17870SOL    HW256503   4.297   3.509   8.811 -0.0152 -0.0570  1.0996
17871SOL     OW56504   3.430   9.110   6.337 -0.4896 -0.5213 -0.4962
17871SOL    HW156505   3.373   9.165   6.282 -1.0750 -0.9010 -0.2778
17871SOL    HW256506   3.392   9.116   6.425 -1.5023 -2.4867 -0.7393
17872SOL     OW56507   6.596   5.096   8.562  0.3340  0.0645 -0.3880
17872SOL    HW156508   6.567   5.030   8.499  2.1243 -1.3503  0.1875
17872SOL    HW256509   6.637   5.164   8.509 -0.9288  0.4125 -0.9410
17873SOL     OW56510   7.848   1.089   1.821 -0.3325  0.1665  0.1716
17873SOL    HW156511   7.908   1.161   1.839 -0.1296  0.3651 -1.1860
17873SOL    HW256512   7.904   1.012   1.812 -0.7037 -0.7798  4.0710
17874SOL     OW56513   3.237   0.610   8.098 -0.2125 -0.1832 -0.2250
17874SOL    HW156514   3.162   0.550   8.093 -0.4775  0.2758 -2.3574
17874SOL    HW256515   3.213   0.684   8.043  0.8989  1.0608  0.8892
17875SOL     OW56516   3.636   1.223   8.400 -0.0014 -0.0352 -0.2220
17875SOL    HW156517   3.606   1.133   8.411  0.7902 -0.5297 -1.8367
17875SOL    HW256518   3.614   1.266   8.483  0.1174 -1.8469  0.7946
17876SOL     OW56519   7.042   4.912   7.448 -0.4156 -0.5510  0.0192
17876SOL    HW156520   7.063   4.942   7.537 -0.5588  0.1681 -0.1838
17876SOL    HW256521   7.127   4.910   7.403 -0.3894 -0.5734  0.0693
17877SOL     OW56522   3.890   8.924   3.072 -0.2578 -0.1154  0.4104
17877SOL    HW156523   3.874   8.930   2.978 -0.3041  1.1965  0.4789
17877SOL    HW256524   3.814   8.879   3.107  0.1283 -1.3463 -0.2594
17878SOL     OW56525   6.040   7.282   1.119 -0.3800  0.0948 -0.6289
17878SOL    HW156526   5.946   7.267   1.120 -0.5961  1.3029  0.7196
17878SOL    HW256527   6.055   7.336   1.041 -0.7904 -0.1729 -0.8944
17879SOL     OW56528   2.194   1.298   1.036 -0.8798  0.1985  0.3461
17879SOL    HW156529   2.109   1.269   1.070 -0.9178  1.9334  1.9174
17879SOL    HW256530   2.195   1.392   1.054  0.9316  0.4120 -0.6736
17880SOL     OW56531   0.986   8.584   5.866  0.2447 -0.2056 -0.2667
17880SOL    HW156532   0.984   8.535   5.784  1.4624  0.3057 -0.6150
17880SOL    HW256533   0.922   8.654   5.854 -0.9012 -1.1947 -0.0757
17881SOL     OW56534   0.530   1.867   2.710 -0.2428  0.0114 -0.3342
17881SOL    HW156535   0.610   1.919   2.722 -0.0012 -0.1316 -1.2241
17881SOL    HW256536   0.527   1.849   2.616 -0.9219 -0.6323 -0.2034
17882SOL     OW56537   4.835   7.843   9.036  0.0814 -0.1765  0.6824
17882SOL    HW156538   4.922   7.806   9.051 -0.1445 -0.7280  0.6421
17882SOL    HW256539   4.852   7.928   8.995  0.5934 -0.4327  0.3479
17883SOL     OW56540   1.606   2.103   4.406  0.0505  0.2027 -0.2957
17883SOL    HW156541   1.585   2.196   4.419  1.5361  0.6372 -0.7563
17883SOL    HW256542   1.612   2.068   4.495 -1.2497  0.3542 -0.1300
17884SOL     OW56543   6.705   2.612   5.526 -0.4011  0.0563 -0.0547
17884SOL    HW156544   6.774   2.547   5.536 -1.0754 -0.4812  1.4726
17884SOL    HW256545   6.624   2.561   5.530 -0.9182  0.8745  0.1063
17885SOL     OW56546   4.693   6.517   3.391  0.2140  0.1871 -0.2062
17885SOL    HW156547   4.670   6.437   3.344 -0.0139  0.4105 -0.4830
17885SOL    HW256548   4.737   6.572   3.326  1.6181 -0.2614  0.3376
17886SOL     OW56549   6.528   1.452   8.420 -0.0995 -0.6892  0.0185
17886SOL    HW156550   6.439   1.451   8.454  0.1606 -0.4888  0.7269
17886SOL    HW256551   6.541   1.365   8.381 -0.3458 -0.9837  0.5919
17887SOL     OW56552   7.908   0.887   7.971  0.5061 -0.3608  0.4501
17887SOL    HW156553   7.981   0.840   8.011  2.0792  1.0428 -0.6051
17887SOL    HW256554   7.859   0.821   7.923  1.4166 -1.2598  0.7352
17888SOL     OW56555   2.884   3.250   4.840  0.0458  0.1366  0.1595
17888SOL    HW156556   2.855   3.308   4.769 -0.0767  0.3448  0.3793
17888SOL    HW256557   2.881   3.304   4.918  1.0595  0.1630  0.1886
17889SOL     OW56558   2.879   1.431   1.228  0.0657  0.2484 -0.9108
17889SOL    HW156559   2.853   1.460   1.316  3.9353  0.3569  0.3608
17889SOL    HW256560   2.882   1.335   1.235  2.1967  0.3259 -0.2582
17890SOL     OW56561   8.084   6.554   2.707  0.3275  0.5308  0.1010
17890SOL    HW156562   8.011   6.498   2.680  0.5817  1.0013 -1.6968
17890SOL    HW256563   8.074   6.562   2.802 -0.3588 -1.6175  0.2532
17891SOL     OW56564   4.396   6.330   5.337  0.5034  0.2230  0.0316
17891SOL    HW156565   4.332   6.388   5.378  0.7205 -0.0990  0.8470
17891SOL    HW256566   4.350   6.295   5.261  0.2492  1.1780 -0.2613
17892SOL     OW56567   5.781   0.591   2.976 -0.0605 -0.3549  0.2178
17892SOL    HW156568   5.692   0.597   2.942  0.1263 -0.2028 -0.2595
17892SOL    HW256569   5.800   0.497   2.980  0.7126 -0.3847 -2.2864
17893SOL     OW56570   0.687   7.327   9.049  0.4881 -0.4889 -0.3421
17893SOL    HW156571   0.693   7.286   9.136  1.7529 -0.3937 -0.3733
17893SOL    HW256572   0.675   7.420   9.068 -0.9078 -0.6608 -0.2794
17894SOL     OW56573   6.904   3.016   6.458 -0.5202 -0.2265 -0.0789
17894SOL    HW156574   6.961   2.969   6.519 -0.0260  1.0938  0.5122
17894SOL    HW256575   6.925   3.108   6.471 -0.2825  0.1042 -2.3896
17895SOL     OW56576   3.503   6.445   4.102 -0.5813  0.0279  0.2851
17895SOL    HW156577   3.498   6.366   4.156 -0.2647  0.7101  1.3344
17895SOL    HW256578   3.597   6.462   4.092 -0.6105 -0.4227 -1.0100
17896SOL     OW56579   2.573   5.430   8.684 -0.3969 -0.0972  0.8416
17896SOL    HW156580   2.533   5.360   8.736  0.7641  0.9205  3.2561
17896SOL    HW256581   2.556   5.510   8.733 -1.5174  1.3678 -1.7571
17897SOL     OW56582   3.102   4.423   2.921  1.1776 -0.1357  0.6325
17897SOL    HW156583   3.060   4.429   3.007 -1.2566 -0.6550 -0.4298
17897SOL    HW256584   3.121   4.330   2.910  0.6388 -0.2064  0.2574
17898SOL     OW56585   2.923   7.117   8.283 -0.3045  0.4390 -0.0841
17898SOL    HW156586   2.999   7.174   8.272  0.3897 -0.4294  0.0871
17898SOL    HW256587   2.928   7.086   8.374 -0.1421 -0.6147 -0.4354
17899SOL     OW56588   4.411   1.668   1.285 -0.5648  0.1115 -0.9063
17899SOL    HW156589   4.335   1.725   1.296 -0.2243  0.9411 -2.4583
17899SOL    HW256590   4.382   1.582   1.315 -1.2396  0.9739  1.0682
17900SOL     OW56591   2.380   3.402   3.321 -0.3321 -0.4341  0.0763
17900SOL    HW156592   2.285   3.401   3.336 -0.4443 -1.0943 -0.6113
17900SOL    HW256593   2.408   3.312   3.337 -0.1888 -0.7865 -1.8769
17901SOL     OW56594   3.640   7.402   1.109 -0.8511  0.3845 -0.8368
17901SOL    HW156595   3.664   7.376   1.198 -0.1067  0.3393 -1.0484
17901SOL    HW256596   3.660   7.495   1.105  0.5396  0.0854 -1.4112
17902SOL     OW56597   2.037   5.433   2.065  0.5165 -0.1172 -0.1306
17902SOL    HW156598   1.963   5.433   2.126  0.9739  0.6272  0.4503
17902SOL    HW256599   2.036   5.346   2.026  0.2716 -0.6609  1.0343
17903SOL     OW56600   7.944   1.458   0.022  0.3991  0.5011  0.5048
17903SOL    HW156601   8.036   1.487   0.026  1.5020 -2.6486  0.5583
17903SOL    HW256602   7.921   1.465  -0.070  1.0727  0.2557  0.3093
17904SOL     OW56603   1.617   1.144   0.356 -0.3133  0.1594  0.0977
17904SOL    HW156604   1.565   1.074   0.396  2.2289 -2.4309 -0.8115
17904SOL    HW256605   1.599   1.137   0.262 -0.4920  1.2097  0.0375
17905SOL     OW56606   8.674   6.546   1.528  0.0831  0.4962  0.0796
17905SOL    HW156607   8.768   6.561   1.517  0.1683  0.6499  0.9779
17905SOL    HW256608   8.655   6.468   1.475  0.7547  0.3316  0.0807
17906SOL     OW56609   6.091   2.214   1.839  0.5658 -0.0217 -0.0823
17906SOL    HW156610   6.031   2.274   1.794 -0.0359 -1.8720 -1.8843
17906SOL    HW256611   6.048   2.129   1.834  1.5070 -0.7022  2.1956
17907SOL     OW56612   4.868   4.473   6.215  0.6126  0.1154  0.0641
17907SOL    HW156613   4.893   4.384   6.190  1.3098 -0.1302  1.5153
17907SOL    HW256614   4.949   4.512   6.248 -0.2652  0.2703  2.2200
17908SOL     OW56615   3.320   7.358   2.382 -0.1547  0.4354  0.4485
17908SOL    HW156616   3.398   7.352   2.326 -0.3965  1.3633  0.0099
17908SOL    HW256617   3.260   7.414   2.334 -1.5362 -1.0883  0.2875
17909SOL     OW56618   4.935   8.843   8.777 -0.4563 -0.8304  0.0111
17909SOL    HW156619   4.940   8.748   8.766 -1.2748 -0.8112 -0.5552
17909SOL    HW256620   5.024   8.874   8.757 -0.2374 -1.4491  0.0082
17910SOL     OW56621   3.943   6.373   5.791  0.2161  0.5774 -0.0229
17910SOL    HW156622   3.876   6.314   5.755  0.5764 -0.1739  0.5013
17910SOL    HW256623   3.913   6.461   5.767 -0.5407  0.2060 -0.4862
17911SOL     OW56624   4.397   0.934   9.199 -0.0774 -0.2128 -0.2138
17911SOL    HW156625   4.347   0.871   9.250  0.4877  0.3123  1.0214
17911SOL    HW256626   4.334   0.969   9.135 -0.8448 -0.7525  0.2417
17912SOL     OW56627   7.957   8.927   0.228  0.1209 -0.4518 -0.0052
17912SOL    HW156628   7.975   8.971   0.145 -0.5479 -0.2262 -0.0401
17912SOL    HW256629   7.879   8.875   0.211 -0.1614 -0.2151  0.5480
17913SOL     OW56630   7.407   3.458   7.736  0.5333 -0.6306  0.0993
17913SOL    HW156631   7.457   3.528   7.778 -0.1600 -0.4759  0.6878
17913SOL    HW256632   7.402   3.389   7.802  0.3438 -0.8239 -0.1136
17914SOL     OW56633   7.911   2.866   2.598  0.0307 -0.4922  0.5809
17914SOL    HW156634   7.842   2.864   2.665  0.1339 -0.3514  0.6942
17914SOL    HW256635   7.922   2.959   2.579  1.0964 -0.4021  1.5202
17915SOL     OW56636   7.590   8.992   0.841 -0.0031 -0.3694  0.0208
17915SOL    HW156637   7.593   9.013   0.747  1.5560 -0.8020 -0.0498
17915SOL    HW256638   7.497   8.980   0.860 -0.4277  0.6393 -1.2594
17916SOL     OW56639   4.787   6.839   2.990 -0.0633  0.1651  0.8615
17916SOL    HW156640   4.772   6.932   3.004  0.7241  0.3849  0.3330
17916SOL    HW256641   4.739   6.819   2.909 -0.4384  0.0557  1.1117
17917SOL     OW56642   4.207   6.653   2.048 -0.4329  0.2632  1.0953
17917SOL    HW156643   4.196   6.730   2.105  0.0464  0.3118  1.1255
17917SOL    HW256644   4.268   6.682   1.980  0.2496 -0.2780  1.4676
17918SOL     OW56645   4.405   7.736   1.303  0.7577  0.2466  0.7995
17918SOL    HW156646   4.405   7.706   1.212 -1.3710  1.7325  0.2333
17918SOL    HW256647   4.361   7.666   1.351  0.1445  0.3062  0.3374
17919SOL     OW56648   4.846   2.001   9.035 -0.5121  0.1958 -0.2288
17919SOL    HW156649   4.881   2.089   9.018  2.5474 -0.8098  0.3251
17919SOL    HW256650   4.910   1.942   8.996 -2.5239 -1.8492 -0.6345
17920SOL     OW56651   2.949   7.716   1.224 -0.0616 -0.5401 -0.1610
17920SOL    HW156652   2.854   7.720   1.231  0.0049 -0.1222  0.6117
17920SOL    HW256653   2.977   7.808   1.228  0.4584 -0.7409  1.0009
17921SOL     OW56654   4.320   7.485   1.382 -0.7550 -0.1552 -0.0066
17921SOL    HW156655   4.317   7.492   1.478 -2.8216 -0.0347 -0.0206
17921SOL    HW256656   4.413   7.475   1.361 -0.2383  0.0015  1.9917
17922SOL     OW56657   6.878   5.020   4.082  1.0309 -0.3071  0.1025
17922SOL    HW156658   6.942   5.017   4.153  2.5959 -0.3047 -1.2264
17922SOL    HW256659   6.929   4.995   4.004 -0.8353 -1.3084 -0.8585
17923SOL     OW56660   0.343   0.656   0.325 -0.5291 -0.0914 -0.8557
17923SOL    HW156661   0.415   0.709   0.291 -0.4464 -1.9475 -3.9765
17923SOL    HW256662   0.266   0.690   0.281 -1.4430  1.0100  1.4560
17924SOL     OW56663   4.429   7.761   1.851  0.1539 -0.6120 -0.0377
17924SOL    HW156664   4.385   7.752   1.936  1.3649 -1.3633  0.5346
17924SOL    HW256665   4.509   7.811   1.870 -0.4676  0.8564 -1.0850
17925SOL     OW56666   6.133   0.550   3.387 -0.0183  0.2923 -0.3265
17925SOL    HW156667   6.038   0.557   3.385  0.0326  1.2867  0.1640
17925SOL    HW256668   6.164   0.640   3.376  0.8501  0.0368 -0.0202
17926SOL     OW56669   7.755   5.877   6.229 -0.0817 -0.2761  0.5402
17926SOL    HW156670   7.814   5.904   6.158  2.4577  0.7770  2.8838
17926SOL    HW256671   7.676   5.931   6.216  0.1589 -0.3280 -1.5958
17927SOL     OW56672   0.246   0.075   8.032  0.3147 -0.5271 -0.4492
17927SOL    HW156673   0.234  -0.012   7.994  0.8240 -0.2952 -1.1686
17927SOL    HW256674   0.240   0.134   7.957  0.3234  0.0304 -0.0137
17928SOL     OW56675   1.298   1.949   0.264  0.0339  0.6449 -0.2041
17928SOL    HW156676   1.211   1.945   0.305  0.7649 -0.2906  1.3461
17928SOL    HW256677   1.308   2.041   0.238 -1.3437  0.8001 -0.2494
17929SOL     OW56678   6.576   7.614   7.703 -0.3629  0.2953  0.0725
17929SOL    HW156679   6.490   7.656   7.698  0.6903  2.4610 -1.7807
17929SOL    HW256680   6.638   7.687   7.702  1.5386 -1.2474 -0.2549
17930SOL     OW56681   1.287   7.141   2.701 -0.6103  0.1348  0.0867
17930SOL    HW156682   1.261   7.058   2.741 -2.0420  0.2190 -0.6185
17930SOL    HW256683   1.366   7.119   2.650 -0.3741 -0.5542  0.7240
17931SOL     OW56684   4.365   8.230   3.595  0.2490 -0.2091 -0.1189
17931SOL    HW156685   4.280   8.187   3.610 -0.1286  1.4025  3.2085
17931SOL    HW256686   4.430   8.166   3.625  0.0566 -0.4838 -0.2770
17932SOL     OW56687   0.850   0.312   8.031  0.1778 -0.0820 -0.3983
17932SOL    HW156688   0.827   0.233   8.079 -0.5824 -0.7114 -1.7529
17932SOL    HW256689   0.772   0.367   8.037  1.2533  1.3394  1.9386
17933SOL     OW56690   0.362   3.806   5.876 -0.1997 -0.0343  0.1325
17933SOL    HW156691   0.421   3.881   5.878 -0.4202  0.1489 -0.1874
17933SOL    HW256692   0.316   3.810   5.960 -0.3691  0.3220  0.0268
17934SOL     OW56693   3.208   4.480   3.544 -0.3845 -0.5753 -0.0155
17934SOL    HW156694   3.152   4.462   3.468 -1.6483  0.3608  0.6605
17934SOL    HW256695   3.151   4.471   3.620  0.3233  0.5684  0.6958
17935SOL     OW56696   2.799   0.091   0.282  0.4613  0.3896  0.1581
17935SOL    HW156697   2.725   0.115   0.337 -0.9624  1.4021 -2.0801
17935SOL    HW256698   2.872   0.083   0.343 -1.3956 -0.4678  2.4387
17936SOL     OW56699   1.539   4.762   4.504 -0.5882 -0.3860  0.1859
17936SOL    HW156700   1.537   4.841   4.558 -1.4803 -0.8001  0.7674
17936SOL    HW256701   1.486   4.784   4.428  0.2628  0.0249 -0.3061
17937SOL     OW56702   4.103   1.368   7.239 -0.0944 -0.1834  0.6396
17937SOL    HW156703   4.119   1.350   7.146 -0.5673 -0.1530  0.5446
17937SOL    HW256704   4.043   1.299   7.267  1.2905 -1.1402  1.3558
17938SOL     OW56705   7.453   3.361   4.220  0.6500 -0.7668 -0.2247
17938SOL    HW156706   7.421   3.411   4.144  1.8725 -0.5121 -0.5999
17938SOL    HW256707   7.459   3.271   4.188 -3.4845 -1.6881  1.0275
17939SOL     OW56708   4.638   0.197   8.409 -0.5366 -0.5824  0.4171
17939SOL    HW156709   4.717   0.145   8.391 -0.6772 -0.3287 -1.0383
17939SOL    HW256710   4.613   0.172   8.498  1.1127 -0.7559  0.8601
17940SOL     OW56711   7.568   0.459   2.013  0.4851  0.1080  0.1248
17940SOL    HW156712   7.557   0.434   2.104  1.0398 -1.0506 -0.1081
17940SOL    HW256713   7.656   0.497   2.009  0.2338  0.7117  0.1774
17941SOL     OW56714   6.654   1.242   8.224 -0.0750 -0.3074 -0.7172
17941SOL    HW156715   6.748   1.261   8.218 -0.0746  0.2786  0.7211
17941SOL    HW256716   6.649   1.168   8.285 -0.6573  1.3789  1.4358
17942SOL     OW56717   3.074   5.249   5.436  0.0493  0.9936  0.0641
17942SOL    HW156718   3.082   5.172   5.380  0.0020  0.2177  1.0814
17942SOL    HW256719   2.979   5.262   5.445  0.0221  0.3072  0.9891
17943SOL     OW56720   5.912   1.429   5.716 -0.1770  0.1559  0.1143
17943SOL    HW156721   5.831   1.455   5.761  1.0044  0.6065  2.1385
17943SOL    HW256722   5.911   1.477   5.634 -1.3532  1.1651  0.6841
17944SOL     OW56723   5.591   6.600   6.376 -0.0369  0.3513 -0.2801
17944SOL    HW156724   5.589   6.532   6.443 -2.0738 -2.0804 -2.5797
17944SOL    HW256725   5.507   6.646   6.386 -0.0924  0.3594 -0.7605
17945SOL     OW56726   8.146   6.172   1.388  0.2798 -0.0064 -0.1691
17945SOL    HW156727   8.064   6.222   1.383  0.1299 -0.3716 -2.0353
17945SOL    HW256728   8.123   6.084   1.359  0.8631 -0.8292  1.6641
17946SOL     OW56729   5.225   5.861   7.654 -0.1400  0.0142  0.6632
17946SOL    HW156730   5.199   5.860   7.562  0.5410 -1.0779  0.4666
17946SOL    HW256731   5.280   5.939   7.663  0.5012 -0.3475 -0.0640
17947SOL     OW56732   4.814   2.601   8.348  0.5480  0.4995  0.8793
17947SOL    HW156733   4.730   2.554   8.343  1.2556 -0.7589  0.1331
17947SOL    HW256734   4.874   2.538   8.389  1.4484  0.8631  0.1582
17948SOL     OW56735   4.670   1.342   9.162 -0.0073 -0.1015 -1.2887
17948SOL    HW156736   4.757   1.353   9.123  0.2633 -2.3957 -1.4977
17948SOL    HW256737   4.657   1.247   9.165 -1.9203  0.1398  0.0798
17949SOL     OW56738   4.849   4.186   4.489  0.1392  0.2230 -0.3291
17949SOL    HW156739   4.796   4.116   4.525 -0.9003  1.1316 -0.0507
17949SOL    HW256740   4.914   4.204   4.557 -0.5424  0.5482  0.2510
17950SOL     OW56741   6.996   0.394   4.536  0.3352 -0.1989 -0.3219
17950SOL    HW156742   7.006   0.465   4.472  1.3192  0.4972  0.5687
17950SOL    HW256743   7.043   0.425   4.614 -1.3541 -0.7489  0.9762
17951SOL     OW56744   3.307   8.742   2.514 -0.2843 -0.2157  0.4445
17951SOL    HW156745   3.327   8.657   2.554 -0.1904  0.4032  1.7596
17951SOL    HW256746   3.224   8.728   2.469 -0.0685 -1.1118  0.2976
17952SOL     OW56747   5.568   5.711   4.714  0.1598 -0.7836  0.3016
17952SOL    HW156748   5.529   5.633   4.674  0.3370 -1.1111  0.7529
17952SOL    HW256749   5.662   5.699   4.701  0.1172  0.1805 -1.1087
17953SOL     OW56750   4.928   1.477   8.526 -0.6581  0.0369 -0.1549
17953SOL    HW156751   4.835   1.457   8.518 -0.7190  0.7235 -1.2702
17953SOL    HW256752   4.958   1.421   8.598 -1.9734 -0.0114  0.3802
17954SOL     OW56753   7.475   8.048   2.479  0.4321  0.3741 -0.4368
17954SOL    HW156754   7.409   8.073   2.544  0.7566  1.1870 -0.3959
17954SOL    HW256755   7.446   7.963   2.446 -1.0905  1.0724 -1.0106
17955SOL     OW56756   1.473   7.138   6.927  0.3527  0.0124 -0.3466
17955SOL    HW156757   1.456   7.140   6.833  1.1328  0.1823 -0.4933
17955SOL    HW256758   1.489   7.230   6.950  3.0008 -0.2781 -0.6260
17956SOL     OW56759   2.068   7.668   8.422 -0.5436 -0.0339  0.6980
17956SOL    HW156760   2.080   7.664   8.327 -2.6333 -0.9403  0.4276
17956SOL    HW256761   2.005   7.738   8.436 -0.0843  0.2388  1.4389
17957SOL     OW56762   4.502   7.466   4.331 -0.4614 -0.1551 -0.6367
17957SOL    HW156763   4.472   7.546   4.288  0.7928  1.1822  0.8591
17957SOL    HW256764   4.563   7.496   4.399  0.4767 -2.4163 -0.3810
17958SOL     OW56765   0.843   8.877   6.353  0.5600  1.2330  0.0334
17958SOL    HW156766   0.785   8.843   6.285 -0.0788  0.8201  0.7773
17958SOL    HW256767   0.925   8.829   6.341  0.0180  0.1953  0.3873
17959SOL     OW56768   8.118   4.056   7.681 -0.0003  0.1984  0.1362
17959SOL    HW156769   8.082   4.125   7.737  0.8720 -0.0178  1.0038
17959SOL    HW256770   8.205   4.040   7.718  0.2782 -0.5108 -0.8127
17960SOL     OW56771   1.170   4.880   3.328 -0.1190 -0.1173 -0.2208
17960SOL    HW156772   1.240   4.923   3.279  0.2246 -2.5996 -2.0992
17960SOL    HW256773   1.093   4.887   3.271 -0.6028 -0.1966  0.4054
17961SOL     OW56774   2.427   7.921   1.549  0.1316  0.0173 -0.6683
17961SOL    HW156775   2.403   8.012   1.532  2.9391  1.5273  2.3234
17961SOL    HW256776   2.517   7.914   1.515  1.0291 -0.6501  1.6277
17962SOL     OW56777   2.904   3.382   2.573  0.0081  0.2451 -0.1450
17962SOL    HW156778   2.906   3.385   2.669 -0.6279  0.6882 -0.1459
17962SOL    HW256779   2.812   3.391   2.550  0.2182  0.7080 -0.8225
17963SOL     OW56780   4.840   3.618   6.582 -0.4495  0.4207  0.3556
17963SOL    HW156781   4.932   3.605   6.605 -0.7745  0.2496  1.6025
17963SOL    HW256782   4.836   3.707   6.546  0.2803  0.2435 -0.1838
17964SOL     OW56783   5.030   2.011   6.183  0.2123 -0.3512  0.5996
17964SOL    HW156784   5.123   2.016   6.160  0.3590  1.5577  1.4096
17964SOL    HW256785   4.984   2.045   6.106  0.0379 -2.5080 -0.3206
17965SOL     OW56786   8.573   1.257   0.801  0.5366  0.1673 -0.6116
17965SOL    HW156787   8.656   1.304   0.815  1.1801 -0.3596 -2.4393
17965SOL    HW256788   8.507   1.313   0.842  1.8370  0.2961  1.4571
17966SOL     OW56789   3.524   4.270   0.781 -0.0321 -0.1230 -0.3092
17966SOL    HW156790   3.440   4.280   0.825 -0.3587 -0.4032 -0.8624
17966SOL    HW256791   3.577   4.342   0.815 -0.6826  0.4036 -0.3947
17967SOL     OW56792   2.159   6.240   7.365 -0.1843  0.1742 -0.0818
17967SOL    HW156793   2.110   6.188   7.301  1.3084 -0.0595 -1.0759
17967SOL    HW256794   2.137   6.331   7.343 -1.7751  0.0576  0.8335
17968SOL     OW56795   8.630   8.293   7.642 -0.3670  0.0410 -0.0931
17968SOL    HW156796   8.666   8.204   7.651 -0.4087  0.0293 -0.0488
17968SOL    HW256797   8.606   8.318   7.731 -0.9742 -0.1595 -0.1990
17969SOL     OW56798   4.216   9.105   1.949 -0.4190 -0.4743 -0.4544
17969SOL    HW156799   4.123   9.097   1.931 -0.3252 -1.8010 -0.4119
17969SOL    HW256800   4.258   9.039   1.894  0.5703  0.4800 -0.9059
17970SOL     OW56801   4.696   3.135   6.823 -0.0213 -0.4627 -0.7812
17970SOL    HW156802   4.618   3.168   6.867  0.1767 -0.3917 -0.4786
17970SOL    HW256803   4.725   3.206   6.767  0.0133 -0.3716 -0.6469
17971SOL     OW56804   5.176   3.713   6.153 -0.5261 -0.0447  0.2185
17971SOL    HW156805   5.229   3.687   6.078  0.3015  2.6809 -0.2437
17971SOL    HW256806   5.092   3.669   6.140  0.1923 -1.0187 -1.3465
17972SOL     OW56807   1.947   8.729   0.551 -0.6744  0.5668  0.1083
17972SOL    HW156808   1.987   8.662   0.496 -1.0050 -0.2535  0.8387
17972SOL    HW256809   1.993   8.721   0.635 -1.3429  0.6452  0.4837
17973SOL     OW56810   1.488   1.732   0.639  0.3735 -0.1178  0.0777
17973SOL    HW156811   1.503   1.671   0.711 -0.9442 -0.7103 -0.1293
17973SOL    HW256812   1.537   1.811   0.664 -0.8023  0.0427  2.0905
17974SOL     OW56813   7.421   8.929   2.533  0.3531 -0.0487  0.5460
17974SOL    HW156814   7.465   8.949   2.616 -1.4140  2.1611  1.0415
17974SOL    HW256815   7.485   8.953   2.466  1.5652 -1.2671  1.1958
17975SOL     OW56816   8.749   2.385   7.363  0.1806 -0.1608  0.3945
17975SOL    HW156817   8.771   2.314   7.423 -0.5213 -0.3576  0.4225
17975SOL    HW256818   8.830   2.437   7.358  0.5920 -0.7628  0.6356
17976SOL     OW56819   1.984   3.737   6.272 -0.2002 -0.3268  0.3050
17976SOL    HW156820   2.063   3.685   6.289 -0.2825 -0.2191  1.0679
17976SOL    HW256821   1.912   3.681   6.300 -0.4230 -0.5319 -0.6513
17977SOL     OW56822   1.007   2.399   0.034  0.0847  0.6554 -0.3399
17977SOL    HW156823   1.027   2.454  -0.042  1.3633 -0.8574 -1.1461
17977SOL    HW256824   0.919   2.366   0.015  0.6936 -0.3367 -1.5903
17978SOL     OW56825   0.318   0.508   6.618  0.0712  0.6740  0.3197
17978SOL    HW156826   0.289   0.594   6.589  0.8724  0.6855 -0.4826
17978SOL    HW256827   0.389   0.484   6.559  0.0281 -0.4402  0.6758
17979SOL     OW56828   4.807   1.791   8.774 -0.1498 -0.8435 -0.0021
17979SOL    HW156829   4.880   1.851   8.759 -2.0121  1.5755  0.0559
17979SOL    HW256830   4.844   1.721   8.828  2.1385  0.2224 -0.0919
17980SOL     OW56831   8.614   7.964   5.188  0.2569 -0.0920  0.4925
17980SOL    HW156832   8.531   7.922   5.166  1.2093 -1.5465 -0.6130
17980SOL    HW256833   8.619   7.961   5.283 -1.6001  1.4157  0.6869
17981SOL     OW56834   3.466   3.155   0.927  0.1460  0.1952  0.5325
17981SOL    HW156835   3.489   3.077   0.978 -1.2686  0.2548  1.2977
17981SOL    HW256836   3.453   3.122   0.838  0.3340 -0.3132  0.6902
17982SOL     OW56837   4.928   8.694   9.217  0.4001  0.2183  0.3766
17982SOL    HW156838   5.010   8.673   9.172 -0.4229 -0.8229 -0.7147
17982SOL    HW256839   4.882   8.753   9.157  0.4287  0.9661  1.0750
17983SOL     OW56840   4.202   1.152   6.380 -0.1544 -0.1607 -0.4798
17983SOL    HW156841   4.290   1.156   6.344  0.5682 -1.8357  0.9302
17983SOL    HW256842   4.175   1.061   6.369 -0.5650 -0.3505  1.5739
17984SOL     OW56843   0.847   4.940   1.942  0.9442 -0.0794  0.3236
17984SOL    HW156844   0.893   4.983   2.014  1.6632 -1.1709  0.5468
17984SOL    HW256845   0.761   4.918   1.978  1.5998 -1.4075  1.1802
17985SOL     OW56846   6.134   1.090   3.900  0.0174  0.0389 -0.4068
17985SOL    HW156847   6.146   0.996   3.889 -0.1579 -0.0426  0.0909
17985SOL    HW256848   6.040   1.101   3.912 -0.2645  0.5029 -2.5787
17986SOL     OW56849   2.675   8.933   0.815 -0.2061  0.2261 -0.0812
17986SOL    HW156850   2.660   8.845   0.849  0.0069 -0.2140 -1.0909
17986SOL    HW256851   2.768   8.949   0.829  0.1134 -0.3900 -1.4239
17987SOL     OW56852   6.445   2.526   8.428  0.3768 -0.3881  0.6435
17987SOL    HW156853   6.452   2.432   8.446 -0.2129 -0.9469 -1.6434
17987SOL    HW256854   6.385   2.531   8.353 -0.4919  1.9231  1.4184
17988SOL     OW56855   0.571   1.756   5.356  0.0779 -0.7577 -0.1354
17988SOL    HW156856   0.577   1.811   5.278  1.9717  0.9694  1.1302
17988SOL    HW256857   0.497   1.697   5.339 -2.1617  2.1993 -1.5636
17989SOL     OW56858   1.740   2.067   7.035  0.4209 -0.3741 -0.8411
17989SOL    HW156859   1.712   2.147   6.991  1.6855 -0.1210 -1.2187
17989SOL    HW256860   1.772   2.095   7.120  1.0644 -0.4311 -1.0551
17990SOL     OW56861   0.785   5.123   3.759  0.6024 -0.1167  0.1295
17990SOL    HW156862   0.749   5.086   3.678  0.6614  0.0019  0.0477
17990SOL    HW256863   0.714   5.117   3.822  0.8236 -0.9763  0.3046
17991SOL     OW56864   8.111   3.590   1.215  0.1362  0.1682 -0.0712
17991SOL    HW156865   8.029   3.545   1.193 -0.9135  2.1185 -0.3053
17991SOL    HW256866   8.095   3.681   1.193  2.4240  0.5880 -0.2010
17992SOL     OW56867   1.397   7.823   8.120  0.7475 -0.0268 -0.2115
17992SOL    HW156868   1.361   7.818   8.209  1.6769  0.0246  0.1734
17992SOL    HW256869   1.417   7.916   8.108  0.0798  0.0651 -0.7071
17993SOL     OW56870   3.111   6.016   4.372  0.5794 -0.0204 -0.1631
17993SOL    HW156871   3.016   6.027   4.378  0.3198 -2.1021  0.1334
17993SOL    HW256872   3.143   6.034   4.460  0.4687  0.6786 -0.2621
17994SOL     OW56873   8.876   2.054   4.344 -0.1212 -0.4703  0.2252
17994SOL    HW156874   8.875   1.974   4.291 -1.5059  0.3335 -1.0262
17994SOL    HW256875   8.960   2.096   4.322  1.0541 -1.9685  1.5933
17995SOL     OW56876   3.118   5.228   6.809 -0.0873  0.2162  0.1534
17995SOL    HW156877   3.111   5.312   6.764  0.4620 -0.1783 -0.6946
17995SOL    HW256878   3.048   5.174   6.771 -1.1106  0.6060  1.4373
17996SOL     OW56879   2.692   4.594   3.756  0.4049  0.2843 -0.3657
17996SOL    HW156880   2.718   4.686   3.752  1.2773  0.1370  1.2793
17996SOL    HW256881   2.600   4.596   3.784  0.5551  0.6490  0.1116
17997SOL     OW56882   8.003   3.001   5.101 -0.1785  0.2673 -0.0672
17997SOL    HW156883   7.952   3.071   5.140  2.1145  2.0795 -0.1141
17997SOL    HW256884   7.980   2.923   5.151 -2.6763  1.0378  0.0978
17998SOL     OW56885   8.957   2.848   7.004  0.0965 -0.1508 -0.0601
17998SOL    HW156886   9.047   2.874   6.982  0.6161 -1.1264  0.8341
17998SOL    HW256887   8.936   2.899   7.082 -0.5090  0.8078 -0.8271
17999SOL     OW56888   5.182   1.616   6.388  0.1956 -0.1803  0.1885
17999SOL    HW156889   5.269   1.647   6.362 -0.4867  0.7576 -1.0560
17999SOL    HW256890   5.126   1.694   6.385 -1.2320 -1.1916 -1.4992
18000SOL     OW56891   7.450   8.728   7.620 -0.3891  0.3902  0.2167
18000SOL    HW156892   7.446   8.810   7.571 -2.1485  0.0966 -0.2110
18000SOL    HW256893   7.414   8.749   7.706  0.7683  0.4373  0.7011
18001SOL     OW56894   2.105   0.987   7.820 -0.1713  0.2337 -0.1275
18001SOL    HW156895   2.066   0.904   7.794  2.0919 -0.8980 -0.1192
18001SOL    HW256896   2.036   1.032   7.868 -1.7317 -1.2381 -0.8885
18002SOL     OW56897   6.859   3.161   3.463  0.0786 -0.0212 -0.1729
18002SOL    HW156898   6.790   3.098   3.482  1.3503 -1.8140 -1.2531
18002SOL    HW256899   6.831   3.203   3.382  0.0860 -0.4718 -0.4092
18003SOL     OW56900   4.898   3.875   8.013  0.8200 -0.4417  0.2613
18003SOL    HW156901   4.809   3.910   8.019  1.3448  0.9190  0.3817
18003SOL    HW256902   4.920   3.882   7.920  0.5081 -1.5808  0.0844
18004SOL     OW56903   2.307   4.925   2.242  0.1653  0.6027 -0.1414
18004SOL    HW156904   2.351   4.896   2.322 -0.4992 -1.6433 -0.5120
18004SOL    HW256905   2.231   4.974   2.273 -1.6706 -2.5759  0.8042
18005SOL     OW56906   3.350   2.368   6.574  0.0098  0.0991  0.5406
18005SOL    HW156907   3.384   2.328   6.494  0.6581 -1.0608  1.3656
18005SOL    HW256908   3.325   2.457   6.548  0.1624 -0.2705 -0.9493
18006SOL     OW56909   7.558   2.961   7.092  0.3912 -0.0514  0.4291
18006SOL    HW156910   7.637   2.920   7.125  0.4186 -1.6937 -1.4988
18006SOL    HW256911   7.490   2.894   7.100 -0.4951  0.8441  0.7237
18007SOL     OW56912   7.802   4.261   0.197  0.5027 -0.5300 -0.5357
18007SOL    HW156913   7.800   4.220   0.111  0.6167 -0.3848 -0.6091
18007SOL    HW256914   7.802   4.188   0.259  0.0841 -0.6294 -0.6508
18008SOL     OW56915   1.988   2.011   0.678 -0.2774  0.2943 -0.0799
18008SOL    HW156916   1.949   2.049   0.599  0.2400  0.9403 -0.0359
18008SOL    HW256917   2.077   2.048   0.680 -0.1989  0.0698  0.6591
18009SOL     OW56918   7.354   3.761   1.457 -0.1508 -0.2059  0.2886
18009SOL    HW156919   7.437   3.719   1.433 -1.6617 -3.1630 -0.1890
18009SOL    HW256920   7.335   3.819   1.383  2.0523  1.5473  1.0002
18010SOL     OW56921   6.662   6.910   8.233  0.2198 -0.4462 -0.0320
18010SOL    HW156922   6.654   7.000   8.201 -0.4341 -0.5625 -0.2085
18010SOL    HW256923   6.572   6.882   8.250  0.3530 -1.3235 -0.7018
18011SOL     OW56924   2.974   3.120   5.112  0.0935 -0.8539 -0.0964
18011SOL    HW156925   2.903   3.067   5.075 -0.8969 -0.6416  1.4029
18011SOL    HW256926   2.936   3.208   5.119 -0.3541 -1.1617  2.7374
18012SOL     OW56927   8.075   7.112   3.592  0.4295 -0.0905  0.1469
18012SOL    HW156928   8.166   7.089   3.611  0.7587  2.7695  2.7259
18012SOL    HW256929   8.080   7.168   3.514  0.4914 -2.0290 -1.3071
18013SOL     OW56930   5.792   8.350   3.115 -0.3523  0.4518 -0.0763
18013SOL    HW156931   5.774   8.380   3.204  0.3318 -0.0891  0.2589
18013SOL    HW256932   5.787   8.255   3.121 -0.5974  0.4246 -0.6869
18014SOL     OW56933   4.970   6.267   9.082  0.7431 -0.4272  0.3828
18014SOL    HW156934   4.984   6.313   8.999 -1.4631  0.3837  0.3788
18014SOL    HW256935   4.929   6.332   9.139 -0.2425 -1.7159  1.2033
18015SOL     OW56936   3.656   4.790   0.776 -0.6622 -0.1240  0.0138
18015SOL    HW156937   3.598   4.729   0.822 -2.8831 -0.4091 -2.8477
18015SOL    HW256938   3.718   4.734   0.730 -0.0442  0.0386  0.6274
18016SOL     OW56939   2.227   3.273   8.424 -0.3280  0.3520 -0.3323
18016SOL    HW156940   2.270   3.190   8.401  1.4169  0.9528  0.5840
18016SOL    HW256941   2.280   3.309   8.494 -1.5648  1.8503 -0.1128
18017SOL     OW56942   2.289   9.062   8.850  0.0216  0.4017 -0.7582
18017SOL    HW156943   2.260   9.136   8.903 -0.8781 -0.9973  0.8062
18017SOL    HW256944   2.209   9.023   8.817 -0.1484 -2.9700  2.8649
18018SOL     OW56945   7.400   5.874   2.154  0.2144  0.0638  0.2693
18018SOL    HW156946   7.306   5.889   2.151 -0.1375 -1.4433  1.8441
18018SOL    HW256947   7.436   5.953   2.194 -0.4499  0.4458  0.1231
18019SOL     OW56948   6.920   7.111   0.382 -0.4871 -0.3053  0.8628
18019SOL    HW156949   6.964   7.183   0.336 -0.6634 -0.2615  0.7608
18019SOL    HW256950   6.987   7.043   0.389 -0.7189 -0.6710 -0.2807
18020SOL     OW56951   4.684   6.240   4.552 -0.1626 -0.4468 -0.6196
18020SOL    HW156952   4.605   6.208   4.509 -0.1376 -1.2866 -0.0685
18020SOL    HW256953   4.653   6.311   4.608 -0.2231  0.5092 -1.8382
18021SOL     OW56954   2.958   0.811   5.311  0.2761  0.0727 -0.1851
18021SOL    HW156955   2.999   0.806   5.224  0.7429  2.2750 -0.1362
18021SOL    HW256956   2.966   0.722   5.346  2.8205 -0.1814 -1.1947
18022SOL     OW56957   7.136   2.951   8.404 -0.2301  1.0736 -0.2984
18022SOL    HW156958   7.058   2.901   8.380  0.0669 -0.3911  1.5755
18022SOL    HW256959   7.201   2.925   8.338 -0.8628  1.1042 -0.9535
18023SOL     OW56960   6.018   5.323   4.867  0.4398  0.0859  0.0180
18023SOL    HW156961   5.937   5.332   4.816  1.0690  0.5275 -0.9443
18023SOL    HW256962   6.008   5.383   4.940  0.0722  0.4552 -0.3345
18024SOL     OW56963   2.149   4.881   8.081  0.3612 -0.3898  0.5519
18024SOL    HW156964   2.124   4.936   8.007 -0.1404  0.2718  1.2004
18024SOL    HW256965   2.228   4.921   8.115  1.2917 -1.3960 -0.3449
18025SOL     OW56966   2.772   2.960   2.053 -0.0452 -0.1580  0.5176
18025SOL    HW156967   2.743   3.050   2.069  2.5440  1.4130 -2.2941
18025SOL    HW256968   2.866   2.969   2.037  0.1254 -3.2154 -0.8200
18026SOL     OW56969   0.711   2.722   8.995 -0.1015  0.6526 -0.3883
18026SOL    HW156970   0.731   2.801   9.045 -0.2072  0.1002  0.5547
18026SOL    HW256971   0.676   2.661   9.060  0.6364 -0.4190 -0.9702
18027SOL     OW56972   4.443   5.466   3.046 -0.2614 -0.0625  0.1057
18027SOL    HW156973   4.515   5.418   3.087  1.3567  1.7013 -0.5386
18027SOL    HW256974   4.428   5.420   2.964 -0.1695 -0.6995  0.4398
18028SOL     OW56975   6.108   7.968   9.045  0.7143  0.5194  0.3066
18028SOL    HW156976   6.067   7.921   8.972  2.1083  1.9585 -1.5031
18028SOL    HW256977   6.101   7.908   9.119  1.9013 -2.3209 -1.7254
18029SOL     OW56978   8.418   7.561   9.191  0.2029 -0.0730 -0.0045
18029SOL    HW156979   8.466   7.478   9.202 -1.5407 -1.0642  0.5634
18029SOL    HW256980   8.335   7.535   9.152 -0.7111  1.3188  0.9322
18030SOL     OW56981   4.802   9.227   1.319 -0.1328  0.4010 -0.1644
18030SOL    HW156982   4.783   9.297   1.256 -0.7545  0.6983  0.3464
18030SOL    HW256983   4.809   9.148   1.265 -0.3571  0.6995 -0.6373
18031SOL     OW56984   7.789   6.730   8.318 -0.0508  0.1473 -0.0253
18031SOL    HW156985   7.876   6.764   8.340 -0.2240  0.2091  0.5974
18031SOL    HW256986   7.730   6.772   8.381 -0.4028 -0.5527  0.1284
18032SOL     OW56987   1.272   7.039   8.331  0.7326 -0.7878  0.5441
18032SOL    HW156988   1.282   7.074   8.243 -1.6010 -0.7670  0.2401
18032SOL    HW256989   1.322   6.957   8.330  2.7372  0.3716 -0.0063
18033SOL     OW56990   4.263   7.214   1.793 -0.8196  0.6399 -0.2591
18033SOL    HW156991   4.168   7.214   1.778 -0.9576 -1.2544  0.2453
18033SOL    HW256992   4.272   7.224   1.888 -0.8572 -3.7639  0.4208
18034SOL     OW56993   5.014   0.001   6.217 -0.1612 -0.0577 -0.4083
18034SOL    HW156994   4.967  -0.055   6.279  1.7910  1.1439  2.3145
18034SOL    HW256995   4.946   0.058   6.181 -0.9442  2.9310  4.7966
18035SOL     OW56996   5.951   1.595   6.338  0.4382 -0.4202  0.4963
18035SOL    HW156997   5.933   1.634   6.253  0.1824  1.5846  1.3966
18035SOL    HW256998   5.920   1.660   6.401 -2.9323 -3.3750  2.2482
18036SOL     OW56999   7.474   8.548   6.809 -0.4190  0.7191 -0.1640
18036SOL    HW157000   7.552   8.584   6.851 -0.5787  0.9272 -0.0442
18036SOL    HW257001   7.425   8.625   6.780 -0.4088  0.5832 -0.5600
18037SOL     OW57002   0.691   3.928   4.482  0.0294 -0.1793  0.1983
18037SOL    HW157003   0.596   3.937   4.478  0.1426  0.6409 -1.2580
18037SOL    HW257004   0.706   3.842   4.523 -1.3391 -0.6198 -0.1896
18038SOL     OW57005   7.917   1.984   7.096 -0.5646  0.0181 -0.1853
18038SOL    HW157006   7.988   1.979   7.161 -0.5454 -0.9550 -0.2691
18038SOL    HW257007   7.928   1.906   7.042 -2.9542 -1.3173  1.1025
18039SOL     OW57008   7.981   0.684   9.106 -0.1658  1.0704  0.4267
18039SOL    HW157009   7.912   0.702   9.043 -0.2021  1.0468  0.4595
18039SOL    HW257010   7.962   0.596   9.139  1.5416 -0.1910 -1.7370
18040SOL     OW57011   5.230   6.458   1.442 -0.0318 -0.0473  0.2788
18040SOL    HW157012   5.261   6.442   1.353 -1.9258 -1.1422 -0.2640
18040SOL    HW257013   5.136   6.475   1.432 -0.2369  0.1041  2.0485
18041SOL     OW57014   6.792   1.813   3.629 -0.7025 -0.1588 -0.1204
18041SOL    HW157015   6.765   1.877   3.696 -3.1341 -2.4333  1.2898
18041SOL    HW257016   6.760   1.850   3.547 -0.0430  1.4728  0.3258
18042SOL     OW57017   1.507   8.182   8.894 -0.4316 -0.3666 -0.3366
18042SOL    HW157018   1.453   8.108   8.865 -0.2566 -0.3256 -0.7841
18042SOL    HW257019   1.579   8.141   8.941 -0.7741 -0.4303  0.1340
18043SOL     OW57020   0.708   1.161   9.060 -0.4813  0.8212  0.5129
18043SOL    HW157021   0.616   1.183   9.044 -0.4473  1.2036  0.8138
18043SOL    HW257022   0.713   1.067   9.048 -0.9454  0.7801  0.6271
18044SOL     OW57023   0.662   9.150   7.451 -0.2161  0.7454 -0.5680
18044SOL    HW157024   0.725   9.100   7.503 -1.4478 -0.9587 -0.6596
18044SOL    HW257025   0.701   9.238   7.446  0.7604  0.5340  1.7771
18045SOL     OW57026   0.882   2.152   2.133 -0.2452 -0.0328 -0.0393
18045SOL    HW157027   0.868   2.145   2.039  2.4377  0.4276 -0.5614
18045SOL    HW257028   0.859   2.243   2.154 -0.0188  0.1167 -0.4318
18046SOL     OW57029   0.376   8.865   6.538 -0.6141  0.2402  0.3897
18046SOL    HW157030   0.426   8.784   6.529 -1.2319 -0.1575  0.5520
18046SOL    HW257031   0.431   8.931   6.495 -1.1979 -0.6749 -1.9083
18047SOL     OW57032   6.433   7.915   1.348 -0.3770 -0.7872 -0.1662
18047SOL    HW157033   6.526   7.936   1.356 -0.2688 -1.5934  1.1138
18047SOL    HW257034   6.391   7.996   1.319  0.5711 -0.0548  0.4598
18048SOL     OW57035   7.560   5.419   5.934  0.1058  0.0623  0.2722
18048SOL    HW157036   7.532   5.507   5.960  0.2793  0.4046 -0.6490
18048SOL    HW257037   7.484   5.381   5.890  0.2417 -0.0073  0.0973
18049SOL     OW57038   2.432   8.504   7.393  0.0489 -0.1636 -0.1515
18049SOL    HW157039   2.415   8.562   7.467 -1.2046  0.3037 -0.7775
18049SOL    HW257040   2.419   8.559   7.316  3.0539 -0.1638 -0.7807
18050SOL     OW57041   7.640   3.399   5.251 -0.7049 -0.0072 -0.1661
18050SOL    HW157042   7.550   3.377   5.226 -0.9118  0.2155  0.3568
18050SOL    HW257043   7.659   3.480   5.203 -1.0409  0.3304  0.2587
18051SOL     OW57044   4.121   4.216   5.505 -0.1761  0.5620 -0.1485
18051SOL    HW157045   4.195   4.246   5.557 -0.7278  1.0551  0.3746
18051SOL    HW257046   4.076   4.154   5.562  0.8311 -1.1397 -1.1389
18052SOL     OW57047   7.904   3.101   5.504  0.5698  0.2356  0.0571
18052SOL    HW157048   7.899   3.101   5.600 -2.6959 -0.6020  0.0026
18052SOL    HW257049   7.983   3.050   5.484  0.1643 -1.4335  2.3270
18053SOL     OW57050   4.188   7.917   8.386  1.1905 -0.2368 -0.2016
18053SOL    HW157051   4.133   7.843   8.413  1.7370 -0.3046  0.7784
18053SOL    HW257052   4.149   7.946   8.304 -1.4700  0.8848  1.3225
18054SOL     OW57053   0.116   8.802   9.262 -0.3728 -0.0722 -0.1852
18054SOL    HW157054   0.112   8.879   9.319 -0.1465 -1.7392  2.2552
18054SOL    HW257055   0.193   8.818   9.206 -1.0354  1.9561 -0.6218
18055SOL     OW57056   0.487   6.912   1.928 -0.0982  0.3481  0.0429
18055SOL    HW157057   0.406   6.956   1.900 -1.5383 -1.5015  1.0530
18055SOL    HW257058   0.512   6.859   1.852 -0.5529  0.0044  0.1217
18056SOL     OW57059   2.932   3.264   3.579 -0.1461 -0.4422 -0.2478
18056SOL    HW157060   2.895   3.306   3.656  0.5802 -0.1592 -0.0451
18056SOL    HW257061   2.915   3.325   3.508  1.4494  0.5188  0.1532
18057SOL     OW57062   9.197   1.663   0.048 -0.4368 -0.1651  0.1285
18057SOL    HW157063   9.207   1.668  -0.047  2.5323 -0.3966  0.3413
18057SOL    HW257064   9.227   1.575   0.071  1.6868  0.8211  1.4659
18058SOL     OW57065   8.991   4.057   7.938  0.3719 -0.2203 -0.4290
18058SOL    HW157066   8.924   4.044   7.870 -1.1154  1.4666  0.6422
18058SOL    HW257067   9.069   4.086   7.889  0.6313 -2.8824 -1.7622
18059SOL     OW57068   5.372   6.499   7.785 -0.9632 -0.3426 -0.1753
18059SOL    HW157069   5.287   6.460   7.805 -1.9349 -0.1418 -3.3921
18059SOL    HW257070   5.428   6.425   7.762 -1.7106 -0.2310 -2.6001
18060SOL     OW57071   9.213   3.591   2.186 -0.6924 -0.4064  0.0249
18060SOL    HW157072   9.273   3.518   2.201 -0.2069  0.1703  1.0217
18060SOL    HW257073   9.181   3.614   2.273  0.4973  1.6482 -0.0065
18061SOL     OW57074   5.943   6.521   1.502  0.1784  0.4345  0.0047
18061SOL    HW157075   5.858   6.480   1.489 -0.2144  1.3021 -0.1614
18061SOL    HW257076   5.935   6.608   1.463  0.9414  0.7581  0.5437
18062SOL     OW57077   2.815   2.704   3.190  0.0182 -0.0452 -0.0267
18062SOL    HW157078   2.769   2.654   3.258 -4.0465  0.4746 -2.1107
18062SOL    HW257079   2.826   2.791   3.228  1.3434 -0.7366  1.2879
18063SOL     OW57080   6.731   2.564   7.658 -0.5511 -0.1564  0.0618
18063SOL    HW157081   6.711   2.623   7.731  1.7735 -0.9802  1.4432
18063SOL    HW257082   6.826   2.570   7.647 -0.6746 -1.0780 -2.0525
18064SOL     OW57083   4.952   4.555   5.744  0.2388  0.0405 -0.2414
18064SOL    HW157084   4.939   4.471   5.700 -0.0868  0.0932 -0.2532
18064SOL    HW257085   4.896   4.550   5.822 -0.5831  0.6351 -0.7682
18065SOL     OW57086   4.560   7.868   9.091 -0.5341 -0.5088 -0.0167
18065SOL    HW157087   4.518   7.915   9.019 -1.0524  1.6087  1.5722
18065SOL    HW257088   4.654   7.879   9.075 -0.5229  3.8297  1.8031
18066SOL     OW57089   0.895   4.423   4.353  0.0114  0.4241 -0.0656
18066SOL    HW157090   0.943   4.472   4.420 -0.5554 -0.1767  0.7949
18066SOL    HW257091   0.804   4.452   4.362 -0.0714  0.3275 -0.5634
18067SOL     OW57092   8.487   7.446   5.865  0.1535 -0.2745 -0.5756
18067SOL    HW157093   8.485   7.517   5.801  0.7802  1.1380  0.9020
18067SOL    HW257094   8.395   7.429   5.885 -0.0489 -0.7422 -1.8198
18068SOL     OW57095   8.420   2.772   7.834 -0.0552  0.5701 -0.3219
18068SOL    HW157096   8.443   2.846   7.776 -0.2601 -0.3894 -1.6870
18068SOL    HW257097   8.496   2.762   7.891  0.4895  1.0655 -0.9394
18069SOL     OW57098   3.335   3.983   0.630  0.5404 -0.1226  0.2700
18069SOL    HW157099   3.383   3.920   0.684  3.6582  2.1457  0.4397
18069SOL    HW257100   3.275   4.025   0.692  1.2160 -0.2869  1.0619
18070SOL     OW57101   7.500   0.026   6.706  0.0050 -0.9538  0.3130
18070SOL    HW157102   7.549   0.058   6.781  0.8371  2.1367 -1.3426
18070SOL    HW257103   7.538   0.073   6.631 -3.0149 -1.2071 -1.5640
18071SOL     OW57104   1.504   7.082   1.028  0.2104 -0.7202  0.5979
18071SOL    HW157105   1.451   7.038   1.094 -2.6858 -1.0379 -1.7220
18071SOL    HW257106   1.506   7.021   0.955  1.5996  0.4028 -0.3477
18072SOL     OW57107   7.550   8.262   8.008  0.1683 -0.1503 -0.1481
18072SOL    HW157108   7.504   8.323   8.066 -0.1959 -0.5539 -0.0121
18072SOL    HW257109   7.606   8.318   7.955  0.3597  0.2432  0.4566
18073SOL     OW57110   6.351   5.680   7.690 -0.1327 -0.3946  0.7095
18073SOL    HW157111   6.307   5.706   7.610 -1.9360  0.5362  1.9273
18073SOL    HW257112   6.396   5.598   7.668 -1.2480 -0.5837 -1.0219
18074SOL     OW57113   3.840   2.873   7.435  0.2991  0.0970 -0.5907
18074SOL    HW157114   3.746   2.887   7.423  0.1473  0.2456  0.6127
18074SOL    HW257115   3.859   2.912   7.520  1.2825 -0.7080 -0.4224
18075SOL     OW57116   4.468   8.975   0.874  0.2626  0.2688  0.1503
18075SOL    HW157117   4.476   9.067   0.850  0.3042  0.0984 -0.5048
18075SOL    HW257118   4.559   8.943   0.878  0.2034 -0.0565 -0.8842
18076SOL     OW57119   7.773   6.742   1.338  0.3180  0.3847 -0.1733
18076SOL    HW157120   7.693   6.794   1.327  0.0699  0.0581  0.0539
18076SOL    HW257121   7.743   6.651   1.330  0.8445  0.2830 -1.2392
18077SOL     OW57122   2.985   3.590   6.832 -0.5339  0.2039 -0.1192
18077SOL    HW157123   2.986   3.684   6.847 -0.1231  0.1825  0.0121
18077SOL    HW257124   3.078   3.565   6.828 -0.6257 -0.0493 -1.0652
18078SOL     OW57125   1.532   1.973   5.605  0.8944  0.0256 -0.1231
18078SOL    HW157126   1.504   1.885   5.630 -0.0960  0.4750  0.4049
18078SOL    HW257127   1.506   2.028   5.679 -0.9792  1.1978 -1.5601
18079SOL     OW57128   3.109   1.721   3.401 -0.2708 -0.4874 -0.2952
18079SOL    HW157129   3.026   1.735   3.356 -0.6599 -0.9459  0.2646
18079SOL    HW257130   3.136   1.633   3.377 -0.2726 -0.5807  0.0330
18080SOL     OW57131   7.011   0.310   0.659  0.1154 -0.1423 -0.0911
18080SOL    HW157132   7.078   0.340   0.597 -0.5149  2.1005  0.2337
18080SOL    HW257133   7.018   0.215   0.658  2.0970 -0.0278 -1.3975
18081SOL     OW57134   8.542   1.963   0.015 -0.3496  0.4191  0.1932
18081SOL    HW157135   8.603   1.921   0.077 -1.2171 -0.8806  0.2172
18081SOL    HW257136   8.463   1.979   0.066 -0.8748 -0.1490 -0.4166
18082SOL     OW57137   4.969   9.027   3.885  0.1511  0.5101 -0.1357
18082SOL    HW157138   4.913   8.957   3.851  0.7856  0.2164 -0.5995
18082SOL    HW257139   5.022   9.054   3.810  0.7181  0.6924  0.3270
18083SOL     OW57140   5.915   2.181   4.614  0.7651 -0.2665  0.1357
18083SOL    HW157141   5.837   2.163   4.561  1.3615  0.3367 -0.9725
18083SOL    HW257142   5.945   2.267   4.584  1.5812 -0.2703  0.9088
18084SOL     OW57143   6.627   1.878   1.402 -0.1112  0.1075  0.2593
18084SOL    HW157144   6.629   1.857   1.309 -0.4538 -1.2583  0.5301
18084SOL    HW257145   6.669   1.964   1.409 -0.0093  0.1876 -1.1333
18085SOL     OW57146   8.589   3.145   2.740 -0.1517  0.2094  0.2704
18085SOL    HW157147   8.497   3.159   2.761 -0.4248  0.4303 -0.9816
18085SOL    HW257148   8.629   3.119   2.823 -1.3518  0.0219  0.8120
18086SOL     OW57149   0.344   4.486   1.753 -0.1060  0.4962 -0.0674
18086SOL    HW157150   0.268   4.447   1.710  0.9494 -0.3668 -1.2594
18086SOL    HW257151   0.316   4.574   1.777 -1.7744 -0.1232  0.4231
18087SOL     OW57152   4.681   0.098   4.428  0.2812  0.6857 -0.3594
18087SOL    HW157153   4.675   0.096   4.332  0.7757  2.6565 -0.4754
18087SOL    HW257154   4.761   0.147   4.446 -0.9985  2.4076  1.0297
18088SOL     OW57155   3.125   1.194   5.283  0.4728 -0.2795  0.4880
18088SOL    HW157156   3.071   1.132   5.234  2.6574 -1.2817 -0.8340
18088SOL    HW257157   3.099   1.280   5.249 -0.5191 -0.6933  0.1530
18089SOL     OW57158   3.436   5.708   3.553  0.7731  0.7158  0.0028
18089SOL    HW157159   3.415   5.798   3.531 -0.9211 -0.0365 -1.7082
18089SOL    HW257160   3.515   5.689   3.502 -0.0141  0.6485 -1.2157
18090SOL     OW57161   5.828   2.796   3.030  0.5917  0.2325  0.1561
18090SOL    HW157162   5.769   2.841   2.969 -0.9324  0.0523  1.4228
18090SOL    HW257163   5.889   2.863   3.059  2.5971 -0.0716 -2.9084
18091SOL     OW57164   5.809   0.930   5.511  0.1091  0.4073 -0.4229
18091SOL    HW157165   5.784   1.018   5.482  1.3042  0.4925 -1.2452
18091SOL    HW257166   5.874   0.901   5.448  2.0160  0.1410  1.5472
18092SOL     OW57167   5.851   5.693   7.366 -0.2810  0.4406  0.1896
18092SOL    HW157168   5.782   5.723   7.425 -1.1316  1.0898 -1.0662
18092SOL    HW257169   5.843   5.598   7.367 -0.9373  0.4875  0.3782
18093SOL     OW57170   6.703   0.386   8.582 -0.0755 -0.6127 -0.1534
18093SOL    HW157171   6.643   0.353   8.649 -0.0329 -0.3094  0.0382
18093SOL    HW257172   6.650   0.393   8.503 -0.9355  1.8047  0.5260
18094SOL     OW57173   1.637   4.905   6.377 -0.3656 -0.2589 -0.2360
18094SOL    HW157174   1.591   4.824   6.399  1.7983 -1.3008  0.6780
18094SOL    HW257175   1.607   4.967   6.444  0.5941 -1.3352  1.2480
18095SOL     OW57176   3.467   7.197   3.543  0.6703  0.1150 -0.0853
18095SOL    HW157177   3.382   7.191   3.498  0.7452  1.1612 -0.3847
18095SOL    HW257178   3.445   7.191   3.636  0.1944  0.9331 -0.1327
18096SOL     OW57179   6.832   6.819   8.603 -0.2101 -0.0830 -0.4161
18096SOL    HW157180   6.757   6.862   8.643 -0.2088 -0.0653 -0.4331
18096SOL    HW257181   6.804   6.728   8.591 -1.4991  0.5988 -3.5414
18097SOL     OW57182   1.586   8.784   5.487  0.2929  0.2047  0.0376
18097SOL    HW157183   1.635   8.718   5.438  0.2084  1.7508 -2.3013
18097SOL    HW257184   1.649   8.854   5.502 -0.1561  0.4825  0.6604
18098SOL     OW57185   5.006   7.422   6.535  0.6376  0.0402 -0.5644
18098SOL    HW157186   4.925   7.445   6.489  0.0340 -0.3531  0.2770
18098SOL    HW257187   5.048   7.505   6.554  0.5043  0.2404 -1.1317
18099SOL     OW57188   6.554   1.309   3.060  0.3549  0.6176 -0.7032
18099SOL    HW157189   6.627   1.249   3.048  0.4870  0.8357 -1.0069
18099SOL    HW257190   6.476   1.253   3.057  0.4169  0.5718 -1.9628
18100SOL     OW57191   5.932   2.208   6.481 -0.5479  0.0768 -0.2240
18100SOL    HW157192   5.925   2.301   6.503  1.0283  0.2444 -0.3335
18100SOL    HW257193   5.924   2.162   6.564  1.5783  0.4999  0.2766
18101SOL     OW57194   8.994   0.312   0.494  0.4116  0.3690 -0.2040
18101SOL    HW157195   8.899   0.314   0.510  0.5375 -2.1906  1.5381
18101SOL    HW257196   9.003   0.287   0.403 -0.5719  0.5829 -0.3736
18102SOL     OW57197   4.438   9.043   3.516  0.2447  0.2826 -0.0341
18102SOL    HW157198   4.440   9.126   3.563  0.3063 -0.8640  2.1025
18102SOL    HW257199   4.347   9.013   3.524  0.3152 -0.0540 -0.4487
18103SOL     OW57200   8.194   3.987   5.306  0.7318 -0.3470  0.0122
18103SOL    HW157201   8.120   3.969   5.248  1.8330 -1.7513 -1.0423
18103SOL    HW257202   8.182   4.078   5.333 -0.6343 -0.1205 -1.2183
18104SOL     OW57203   4.794   8.848   1.711 -0.1715  0.2626 -0.3381
18104SOL    HW157204   4.753   8.835   1.626  1.8221  0.3057 -1.3522
18104SOL    HW257205   4.856   8.920   1.698  2.1133 -1.4398  0.3632
18105SOL     OW57206   9.003   8.491   4.236 -0.2689 -0.0556 -0.2347
18105SOL    HW157207   9.038   8.470   4.323  0.7854  0.5865 -0.4853
18105SOL    HW257208   8.934   8.427   4.222  2.1189 -2.7519 -0.5834
18106SOL     OW57209   3.196   6.534   3.440  0.0998 -0.1768 -0.2615
18106SOL    HW157210   3.143   6.553   3.517  0.3826 -0.9393  0.1290
18106SOL    HW257211   3.163   6.593   3.373 -0.1884  0.4591  0.4241
18107SOL     OW57212   5.019   5.491   4.936  0.0754  0.4093 -0.3875
18107SOL    HW157213   5.024   5.500   5.031 -0.5152  0.0866 -0.3233
18107SOL    HW257214   5.110   5.493   4.907  0.4175 -1.7705  0.3972
18108SOL     OW57215   8.526   1.881   6.325  0.0832 -0.2515  0.1268
18108SOL    HW157216   8.509   1.854   6.416  1.5027  0.7330  0.7146
18108SOL    HW257217   8.545   1.800   6.279 -1.3239 -0.8438  0.5300
18109SOL     OW57218   3.876   3.338   6.815  0.1521  0.1401 -0.2362
18109SOL    HW157219   3.897   3.411   6.757 -0.4066 -0.0124 -0.6367
18109SOL    HW257220   3.781   3.328   6.808  0.2101 -0.5588 -0.1016
18110SOL     OW57221   6.199   7.326   7.830 -0.9890 -0.1762 -0.3375
18110SOL    HW157222   6.263   7.259   7.806  0.5291  0.6064  1.3110
18110SOL    HW257223   6.198   7.386   7.755  0.4581 -0.0330 -0.2580
18111SOL     OW57224   2.600   0.145   5.595 -0.0594  0.5242  0.1908
18111SOL    HW157225   2.508   0.170   5.592 -0.3699 -0.3500  1.7579
18111SOL    HW257226   2.635   0.190   5.672  0.8379  0.8047 -0.3569
18112SOL     OW57227   3.108   1.528   5.439  0.0513 -0.0823  0.3248
18112SOL    HW157228   3.105   1.617   5.403  0.4900 -0.6824 -1.2922
18112SOL    HW257229   3.042   1.481   5.389 -0.2777 -0.6342  1.2766
18113SOL     OW57230   4.894   4.427   1.177  0.6007 -0.4638  0.5031
18113SOL    HW157231   4.827   4.458   1.115 -0.2112 -1.4869  0.8372
18113SOL    HW257232   4.845   4.376   1.241  1.6112 -0.5233  1.2466
18114SOL     OW57233   0.379   8.730   8.644 -0.1106  0.0405 -0.2393
18114SOL    HW157234   0.458   8.779   8.665  2.0335 -3.7212  1.6913
18114SOL    HW257235   0.330   8.727   8.726  0.5773 -2.1228  0.1537
18115SOL     OW57236   8.981   7.887   0.181 -0.0039  0.4447 -0.6468
18115SOL    HW157237   8.984   7.850   0.093 -1.4026 -1.7665  0.1425
18115SOL    HW257238   8.895   7.930   0.186 -0.6640 -0.8945  0.1114
18116SOL     OW57239   0.302   6.403   4.445 -0.5317  0.4816  0.1348
18116SOL    HW157240   0.336   6.355   4.520 -1.4292  0.2005  0.3717
18116SOL    HW257241   0.380   6.426   4.394 -0.1325 -2.8614 -0.9911
18117SOL     OW57242   6.820   6.001   5.049 -0.5852  0.7378  0.9317
18117SOL    HW157243   6.894   5.947   5.078  0.6196  2.9531  2.2481
18117SOL    HW257244   6.807   5.976   4.958  1.7385  0.1731  0.6880
18118SOL     OW57245   1.750   7.756   0.214 -0.3515  0.5119  0.2575
18118SOL    HW157246   1.837   7.792   0.196 -0.7625  1.6896  0.5698
18118SOL    HW257247   1.742   7.682   0.154  0.5415  0.8931 -0.3488
18119SOL     OW57248   3.542   8.490   9.109  0.0338  0.0793  0.2522
18119SOL    HW157249   3.634   8.472   9.091  0.2272  0.2831  0.9993
18119SOL    HW257250   3.540   8.579   9.142 -0.3221 -0.1926  0.9945
18120SOL     OW57251   7.864   7.393   8.618 -1.2956  0.1425  0.3323
18120SOL    HW157252   7.877   7.299   8.604 -2.4745 -0.1814  1.2397
18120SOL    HW257253   7.824   7.399   8.705 -0.4944  1.5551  0.6418
18121SOL     OW57254   5.385   1.401   8.321  0.4302  0.3317 -0.0404
18121SOL    HW157255   5.430   1.453   8.388  1.3081  0.0724 -0.4221
18121SOL    HW257256   5.307   1.368   8.366 -0.0576  1.8114  0.2657
18122SOL     OW57257   0.660   1.894   5.660  0.2477  0.1259 -0.4875
18122SOL    HW157258   0.635   1.842   5.583 -0.6772 -1.0056  0.5341
18122SOL    HW257259   0.687   1.829   5.725  4.7026  1.2129 -0.9947
18123SOL     OW57260   4.340   3.736   7.014 -0.3197  0.0857  0.5609
18123SOL    HW157261   4.382   3.650   7.020 -2.0903 -0.9401 -0.8098
18123SOL    HW257262   4.411   3.796   6.994  0.6733 -1.3786 -0.4775
18124SOL     OW57263   0.349   1.123   1.170  0.0797  0.2904 -0.3068
18124SOL    HW157264   0.370   1.127   1.264 -0.2165  0.8509 -0.2576
18124SOL    HW257265   0.258   1.152   1.165 -0.3378 -1.0190 -0.6368
18125SOL     OW57266   6.288   2.687   4.536  0.3682  1.1496  0.6400
18125SOL    HW157267   6.345   2.755   4.499  1.8666 -1.0700 -1.3939
18125SOL    HW257268   6.333   2.659   4.615  1.4252  0.4124 -0.1902
18126SOL     OW57269   4.684   4.353   4.652 -0.6480  0.3165 -0.0336
18126SOL    HW157270   4.764   4.342   4.600 -0.8818  0.7281 -0.4941
18126SOL    HW257271   4.628   4.281   4.625  0.3698 -1.3130  1.8921
18127SOL     OW57272   6.783   5.540   4.471 -0.2084 -0.2087  0.2137
18127SOL    HW157273   6.784   5.505   4.560  0.7344  0.4301  0.4724
18127SOL    HW257274   6.750   5.629   4.481  1.6633  0.5283  0.2175
18128SOL     OW57275   5.668   6.830   2.060  0.2744 -0.6204 -0.1356
18128SOL    HW157276   5.611   6.769   2.106 -1.2680  0.9807  0.2121
18128SOL    HW257277   5.642   6.823   1.968 -2.8795  2.2577  0.3206
18129SOL     OW57278   4.914   1.213   7.905 -0.0524 -0.2035  0.0420
18129SOL    HW157279   4.928   1.285   7.844  1.3220 -1.0754 -0.7298
18129SOL    HW257280   4.839   1.165   7.869 -0.2035  0.1469 -0.1144
18130SOL     OW57281   7.805   7.093   8.128 -0.0836  0.0250 -0.4730
18130SOL    HW157282   7.776   7.182   8.108 -0.4356 -0.0899 -0.4822
18130SOL    HW257283   7.733   7.037   8.099  0.3615 -0.3024 -0.9430
18131SOL     OW57284   4.949   6.354   1.098 -0.6735 -0.4348  0.5433
18131SOL    HW157285   5.009   6.295   1.144 -0.8466 -1.0627 -0.0100
18131SOL    HW257286   4.997   6.436   1.091  0.0380 -0.8575  0.3127
18132SOL     OW57287   3.235   0.803   3.272  0.2926 -0.1270  0.1292
18132SOL    HW157288   3.156   0.853   3.250  0.2436 -0.1713  0.2011
18132SOL    HW257289   3.201   0.724   3.315  0.4139  0.2082  0.8464
18133SOL     OW57290   5.246   2.130   4.477 -0.1665  0.1131 -0.1411
18133SOL    HW157291   5.189   2.106   4.550 -0.6500  0.4441 -0.4085
18133SOL    HW257292   5.189   2.175   4.415  0.6749  1.9016  0.3034
18134SOL     OW57293   3.671   0.720   8.602 -0.3600 -0.4950  0.8353
18134SOL    HW157294   3.660   0.766   8.686 -0.4411 -2.3075  1.8819
18134SOL    HW257295   3.619   0.641   8.612  0.3648 -1.1851 -0.5921
18135SOL     OW57296   3.296   5.685   0.137 -0.3771 -0.2208 -0.3869
18135SOL    HW157297   3.343   5.768   0.145 -0.8797 -0.0457  1.1229
18135SOL    HW257298   3.283   5.673   0.043 -1.7880  2.3032 -0.5995
18136SOL     OW57299   5.667   2.167   7.457 -0.3025  0.1303  0.0497
18136SOL    HW157300   5.606   2.122   7.398 -1.3331 -0.2669  1.3643
18136SOL    HW257301   5.617   2.178   7.538  1.7272 -1.1806  1.5579
18137SOL     OW57302   2.200   4.343   8.431 -0.8217  0.3070 -0.0077
18137SOL    HW157303   2.126   4.296   8.470 -1.5729  1.3010 -0.1963
18137SOL    HW257304   2.161   4.421   8.392  0.5241  1.7341  1.3625
18138SOL     OW57305   5.908   3.836   5.819  0.3091  0.1049 -0.3154
18138SOL    HW157306   5.861   3.815   5.900  0.5114 -1.3120 -0.5468
18138SOL    HW257307   5.976   3.768   5.812 -0.1605 -0.2316 -2.0394
18139SOL     OW57308   8.523   2.896   6.888 -0.1795  0.5826 -0.2580
18139SOL    HW157309   8.581   2.943   6.947 -1.1880  2.0560 -0.3917
18139SOL    HW257310   8.571   2.893   6.805  1.2357 -1.4865  0.5628
18140SOL     OW57311   9.123   8.347   5.777  0.4376  0.0923  0.1464
18140SOL    HW157312   9.117   8.252   5.785 -0.9621  0.1338 -0.0735
18140SOL    HW257313   9.032   8.376   5.773  0.8168  1.5286  1.1224
18141SOL     OW57314   8.175   2.437   4.817  0.2352 -0.6998 -0.7784
18141SOL    HW157315   8.125   2.494   4.875 -1.6281 -2.1927 -0.8438
18141SOL    HW257316   8.146   2.461   4.729  1.2283 -0.1393 -0.9689
18142SOL     OW57317   3.739   0.681   4.621  0.5303 -0.6295 -0.2688
18142SOL    HW157318   3.673   0.640   4.677  0.8220  0.7683  1.1600
18142SOL    HW257319   3.763   0.612   4.559 -1.9082 -1.3301 -0.5598
18143SOL     OW57320   1.761   2.024   6.242  0.2838 -0.1579 -0.5975
18143SOL    HW157321   1.844   2.028   6.290  0.6254 -0.9215 -1.0935
18143SOL    HW257322   1.713   1.952   6.283  0.5375 -0.7523 -1.3180
18144SOL     OW57323   5.722   7.291   0.506 -0.1604  0.0667  0.5231
18144SOL    HW157324   5.716   7.224   0.575  3.1745 -0.3851  0.5369
18144SOL    HW257325   5.660   7.359   0.534 -0.3964 -1.0086  2.9016
18145SOL     OW57326   6.943   8.016   1.739  0.0254  0.0942 -0.4575
18145SOL    HW157327   6.920   7.923   1.740 -0.2191  0.1515  1.0103
18145SOL    HW257328   7.024   8.021   1.788 -1.5099  0.9819  2.1951
18146SOL     OW57329   2.348   5.391   6.551 -0.6078 -0.6958  0.1068
18146SOL    HW157330   2.410   5.319   6.542 -0.1261 -0.0141 -3.3220
18146SOL    HW257331   2.402   5.467   6.571 -0.7893 -0.7217  0.7281
18147SOL     OW57332   6.162   2.378   9.241  0.5383  0.4703 -0.3959
18147SOL    HW157333   6.107   2.335   9.175  0.4404  0.7348 -0.4860
18147SOL    HW257334   6.172   2.468   9.210  0.8596  0.4787 -0.2772
18148SOL     OW57335   1.661   2.114   5.378 -0.0131 -0.5159  0.2500
18148SOL    HW157336   1.620   2.088   5.461 -2.5999  0.4802 -0.6078
18148SOL    HW257337   1.644   2.041   5.319  0.0699 -0.4046  0.0883
18149SOL     OW57338   7.493   4.559   2.939 -0.0571 -0.1665  0.1286
18149SOL    HW157339   7.537   4.500   2.878 -0.6419  0.2672 -0.7423
18149SOL    HW257340   7.478   4.506   3.017  0.1659 -0.9191 -0.3271
18150SOL     OW57341   4.200   1.130   4.186  0.0490 -0.0590 -0.3196
18150SOL    HW157342   4.189   1.035   4.181  1.2270 -0.2417  0.4398
18150SOL    HW257343   4.216   1.156   4.095 -1.6878 -0.3657 -0.7700
18151SOL     OW57344   5.738   1.262   0.507  0.1929  0.3246  0.4215
18151SOL    HW157345   5.703   1.195   0.565  0.1120 -0.5683 -0.6148
18151SOL    HW257346   5.767   1.213   0.429 -0.3711  1.5393 -0.5902
18152SOL     OW57347   1.838   1.975   4.364 -0.3176 -0.3047  0.0580
18152SOL    HW157348   1.906   2.041   4.379 -0.9531  0.9415 -2.1546
18152SOL    HW257349   1.756   2.024   4.369 -0.8180 -0.9460 -1.4093
18153SOL     OW57350   4.987   5.572   4.369  0.3994  0.2389 -0.1232
18153SOL    HW157351   4.920   5.609   4.427 -0.1365  1.0225 -1.2226
18153SOL    HW257352   4.989   5.630   4.293  2.3865  0.2767 -0.1064
18154SOL     OW57353   1.264   7.263   4.800  0.1614  0.0029  0.0946
18154SOL    HW157354   1.193   7.310   4.844 -0.6033 -0.5484 -0.5329
18154SOL    HW257355   1.254   7.172   4.828  2.9593  0.4365  3.0808
18155SOL     OW57356   3.218   7.715   1.854 -0.7668 -0.1710  0.6026
18155SOL    HW157357   3.205   7.653   1.926  0.3999  0.1293  1.0978
18155SOL    HW257358   3.207   7.663   1.774  0.3214 -1.0531  1.0088
18156SOL     OW57359   1.675   8.423   2.365  0.6587  0.4334 -0.0484
18156SOL    HW157360   1.650   8.417   2.273 -0.5699  2.6866  0.0562
18156SOL    HW257361   1.687   8.333   2.393 -2.5134 -0.5896 -1.4942
18157SOL     OW57362   6.529   2.795   2.094 -0.2128 -0.0570  0.8279
18157SOL    HW157363   6.447   2.844   2.089 -1.3235 -1.8812 -0.0972
18157SOL    HW257364   6.517   2.737   2.170 -0.4127 -1.3199 -0.1337
18158SOL     OW57365   5.993   2.876   7.744  0.2390  0.0942  0.3907
18158SOL    HW157366   5.919   2.921   7.786 -0.6407  0.7167 -1.6707
18158SOL    HW257367   6.023   2.938   7.677  0.0119 -1.7337 -1.5004
18159SOL     OW57368   7.841   1.162   3.140  0.0890  0.0765  0.8723
18159SOL    HW157369   7.886   1.224   3.082 -0.8165  0.5076  0.5925
18159SOL    HW257370   7.877   1.179   3.226  1.4626 -0.5745  0.4404
18160SOL     OW57371   4.659   2.148   2.819  0.0870  0.2771  0.4077
18160SOL    HW157372   4.672   2.200   2.740 -0.1210 -0.4207 -0.0943
18160SOL    HW257373   4.743   2.104   2.833  0.8316  1.9894  1.7885
18161SOL     OW57374   7.872   1.286   6.110  0.6465  0.2642  0.2050
18161SOL    HW157375   7.965   1.291   6.132  0.2986  2.4155  1.4643
18161SOL    HW257376   7.833   1.362   6.153 -1.4503  0.3191 -1.6111
18162SOL     OW57377   1.834   2.470   5.719 -0.1052 -0.0000 -0.0293
18162SOL    HW157378   1.904   2.465   5.785 -0.8583  0.3716  0.8124
18162SOL    HW257379   1.798   2.382   5.715  0.1708 -0.1059 -0.2022
18163SOL     OW57380   5.856   4.100   7.176  0.0352 -0.3711  0.6656
18163SOL    HW157381   5.810   4.050   7.108 -0.1073 -0.9636  1.1887
18163SOL    HW257382   5.937   4.053   7.191  1.2285  1.1090 -0.8131
18164SOL     OW57383   5.742   5.648   5.322  0.8941  0.4479  0.2914
18164SOL    HW157384   5.689   5.727   5.332 -1.7968 -1.2064  0.0241
18164SOL    HW257385   5.773   5.652   5.232 -0.0137  0.7395 -0.0199
18165SOL     OW57386   5.594   0.502   5.052  0.3966  0.4627  0.2701
18165SOL    HW157387   5.682   0.540   5.056  0.6544 -0.2049  1.5081
18165SOL    HW257388   5.601   0.421   5.102 -0.3874 -0.7464 -1.4641
18166SOL     OW57389   3.497   7.349   4.061 -0.1089  0.5745  0.4077
18166SOL    HW157390   3.403   7.331   4.057  0.0149  0.1272 -0.6823
18166SOL    HW257391   3.535   7.268   4.095 -0.0124  0.3762 -0.1676
18167SOL     OW57392   4.298   4.610   2.049 -0.3700 -0.2058  0.3551
18167SOL    HW157393   4.287   4.516   2.037 -0.9493 -0.0936 -0.0071
18167SOL    HW257394   4.393   4.622   2.059  0.2536 -0.4127 -3.6028
18168SOL     OW57395   8.508   0.558   0.298 -0.2028  0.2127 -0.2287
18168SOL    HW157396   8.590   0.590   0.261 -0.2454 -0.2680 -0.7417
18168SOL    HW257397   8.530   0.475   0.339 -0.3883  0.1871 -0.1794
18169SOL     OW57398   4.843   1.862   5.520  0.5845 -0.1393 -0.2320
18169SOL    HW157399   4.754   1.830   5.538  1.0651 -1.6980 -0.4996
18169SOL    HW257400   4.845   1.949   5.560 -1.8606  1.0419 -2.3331
18170SOL     OW57401   9.092   0.638   4.982  0.0161 -0.4599 -0.3469
18170SOL    HW157402   9.164   0.679   4.934 -0.1447 -0.3511 -0.4962
18170SOL    HW257403   9.129   0.557   5.016 -0.0075 -0.7992 -1.0913
18171SOL     OW57404   6.865   2.313   0.984  0.1988 -0.2876 -0.0799
18171SOL    HW157405   6.821   2.365   1.052 -1.6309 -0.3313 -1.1610
18171SOL    HW257406   6.956   2.310   1.012 -0.1873  1.0588  1.5229
18172SOL     OW57407   0.920   5.074   2.176 -0.5993 -0.6284 -0.2956
18172SOL    HW157408   1.003   5.072   2.224  1.5665 -0.2464 -3.6564
18172SOL    HW257409   0.924   5.155   2.125 -3.7088  0.0415  0.3222
18173SOL     OW57410   6.057   8.326   5.456 -0.2030 -0.8073 -0.1839
18173SOL    HW157411   6.113   8.252   5.482 -0.0734  0.0568  2.2834
18173SOL    HW257412   5.981   8.319   5.513 -1.1802 -0.1952 -1.3796
18174SOL     OW57413   3.103   4.179   1.870 -0.0024  0.6614  0.0833
18174SOL    HW157414   3.019   4.213   1.841  0.6252  0.6174 -1.9613
18174SOL    HW257415   3.124   4.110   1.807  1.5500  0.6808  0.5394
18175SOL     OW57416   7.764   4.920   2.011  0.4744  0.3363  0.0466
18175SOL    HW157417   7.758   4.958   2.098  3.1932  1.0820 -0.0160
18175SOL    HW257418   7.682   4.944   1.969 -1.0133 -0.2314  2.4146
18176SOL     OW57419   4.548   5.160   8.888 -0.1274 -0.1829  0.2132
18176SOL    HW157420   4.570   5.121   8.804  1.8422  1.5613 -0.1784
18176SOL    HW257421   4.613   5.230   8.900 -1.4623  0.8193  2.3336
18177SOL     OW57422   5.828   3.239   2.207  0.0778  0.2616 -0.0905
18177SOL    HW157423   5.741   3.266   2.239  0.1138 -0.6492  0.8256
18177SOL    HW257424   5.822   3.248   2.112  0.3570  4.2912  0.0778
18178SOL     OW57425   0.638   0.615   8.723  0.0758  0.4590 -0.4725
18178SOL    HW157426   0.723   0.660   8.725  0.7711 -0.7990  0.2248
18178SOL    HW257427   0.659   0.529   8.685 -0.8448  0.0377 -0.0286
18179SOL     OW57428   2.679   4.845   2.074  0.3863  0.4588 -0.0482
18179SOL    HW157429   2.674   4.751   2.054  0.3572  0.6725 -1.0757
18179SOL    HW257430   2.752   4.852   2.135 -0.9841 -0.5127  1.7966
18180SOL     OW57431   8.299   1.227   4.570  0.1854 -0.5012 -0.7408
18180SOL    HW157432   8.269   1.318   4.567 -2.3406 -1.2473 -0.5058
18180SOL    HW257433   8.219   1.175   4.556  1.0805 -2.7318  1.6933
18181SOL     OW57434   0.827   8.614   3.335 -0.7073 -0.0128 -0.1327
18181SOL    HW157435   0.894   8.679   3.314 -1.6535  1.2561  0.6477
18181SOL    HW257436   0.750   8.666   3.360 -1.9321 -1.4230 -0.8310
18182SOL     OW57437   0.408   1.564   1.671  0.0361 -0.3937  0.3224
18182SOL    HW157438   0.345   1.550   1.601 -1.0709  1.1601  0.9492
18182SOL    HW257439   0.440   1.653   1.657 -0.0997 -0.1068  1.6670
18183SOL     OW57440   1.401   0.615   0.672  0.2951  0.1250 -0.0826
18183SOL    HW157441   1.476   0.559   0.689 -0.7452 -0.9198  1.3259
18183SOL    HW257442   1.359   0.576   0.594  0.7381  0.2003 -0.3581
18184SOL     OW57443   5.781   2.427   0.001  0.2390 -0.4155 -0.0736
18184SOL    HW157444   5.795   2.480  -0.077  2.9638  0.7897  1.0929
18184SOL    HW257445   5.836   2.349  -0.012 -0.9419 -1.2624 -0.2113
18185SOL     OW57446   3.210   5.956   5.120  0.6731 -0.3044 -0.1138
18185SOL    HW157447   3.139   5.971   5.183 -0.4222  0.1690 -1.4150
18185SOL    HW257448   3.277   6.020   5.144  0.5239 -0.5157  0.9180
18186SOL     OW57449   0.300   0.218   0.509  0.4481  0.0231 -0.2348
18186SOL    HW157450   0.237   0.157   0.470 -0.2491  0.3324  0.3906
18186SOL    HW257451   0.366   0.161   0.550  0.7702 -0.3018 -1.1794
18187SOL     OW57452   4.941   5.388   8.693  0.1167 -0.1643 -0.2134
18187SOL    HW157453   4.990   5.307   8.707  0.0578 -0.2384 -0.4338
18187SOL    HW257454   4.933   5.395   8.598  2.3181  1.4249 -0.3431
18188SOL     OW57455   3.531   3.838   8.409 -0.2316 -0.1989  0.0092
18188SOL    HW157456   3.619   3.817   8.441  0.6693  0.1937 -2.0560
18188SOL    HW257457   3.478   3.762   8.433  1.2126 -1.4808 -0.6695
18189SOL     OW57458   0.651   7.585   9.083  0.4602  0.1373  0.2101
18189SOL    HW157459   0.612   7.664   9.044  1.2510  1.2138  1.5131
18189SOL    HW257460   0.669   7.610   9.174  0.0489 -1.8024  0.8646
18190SOL     OW57461   8.441   6.366   4.507 -0.0494  0.1051  0.0592
18190SOL    HW157462   8.354   6.404   4.523 -0.0962 -0.2366  0.6552
18190SOL    HW257463   8.422   6.278   4.475  0.0769 -0.0238  0.3361
18191SOL     OW57464   6.923   2.484   5.295  0.6542 -0.0762  0.7356
18191SOL    HW157465   6.932   2.442   5.209 -1.0137  2.6564 -0.9578
18191SOL    HW257466   6.976   2.564   5.287  0.2967  0.3326  2.1825
18192SOL     OW57467   2.366   6.210   3.608  0.6170 -0.2706 -0.4266
18192SOL    HW157468   2.378   6.190   3.515 -0.2710 -0.8740 -0.4136
18192SOL    HW257469   2.436   6.162   3.652  1.4559  0.5426 -0.8253
18193SOL     OW57470   8.718   8.434   4.275  0.1764  0.0311  0.1577
18193SOL    HW157471   8.648   8.414   4.213  1.2340  1.2340 -1.5331
18193SOL    HW257472   8.746   8.523   4.251  0.9813  0.3445  2.0559
18194SOL     OW57473   8.982   1.270   1.709  0.3469 -0.5568 -0.0872
18194SOL    HW157474   9.060   1.260   1.764 -1.0313  0.4245  2.1485
18194SOL    HW257475   8.980   1.363   1.686 -1.1366 -0.1679  1.4599
18195SOL     OW57476   6.973   3.759   2.249 -0.6018  0.1154 -0.1287
18195SOL    HW157477   6.961   3.741   2.342 -0.6849 -0.3916 -0.2385
18195SOL    HW257478   6.982   3.855   2.244 -0.8092  0.1618  0.3737
18196SOL     OW57479   2.612   9.038   2.130  0.1255  0.4022  0.0992
18196SOL    HW157480   2.650   8.960   2.088  1.4179  1.2328 -0.3258
18196SOL    HW257481   2.567   9.004   2.207  0.2307 -0.8224 -0.3527
18197SOL     OW57482   2.298   5.604   4.071 -0.6629 -0.4194  0.2262
18197SOL    HW157483   2.353   5.624   3.995 -1.2714  0.7957  0.0832
18197SOL    HW257484   2.349   5.634   4.146  0.2858 -2.3394  0.4115
18198SOL     OW57485   2.791   2.826   5.798  0.0638 -0.2940 -0.2207
18198SOL    HW157486   2.805   2.920   5.786 -1.4059  0.0467  0.5515
18198SOL    HW257487   2.802   2.789   5.711  0.8772  0.5483 -0.4975
18199SOL     OW57488   3.111   1.422   4.149  0.3770 -0.0873  0.2593
18199SOL    HW157489   3.125   1.517   4.145 -0.1368  0.1639  2.7187
18199SOL    HW257490   3.023   1.410   4.115  0.2356  0.3880  0.4416
18200SOL     OW57491   3.234   0.115   4.265 -0.3854 -0.7608 -0.1193
18200SOL    HW157492   3.282   0.115   4.182 -0.9071  0.3570 -0.4465
18200SOL    HW257493   3.189   0.200   4.266 -2.1225 -1.6411  0.2990
18201SOL     OW57494   2.356   4.197   3.255  0.1515 -0.1213  0.3130
18201SOL    HW157495   2.431   4.208   3.313  0.6732 -0.5985 -0.2590
18201SOL    HW257496   2.322   4.110   3.277  0.4088 -0.3442 -0.1504
18202SOL     OW57497   3.109   1.624   1.904 -0.3736  0.2074  0.1235
18202SOL    HW157498   3.071   1.541   1.933  2.3228 -0.8436  0.9490
18202SOL    HW257499   3.176   1.599   1.840 -1.3303  2.0172 -1.7334
18203SOL     OW57500   7.217   7.502   0.892 -0.0590 -0.2093 -0.8298
18203SOL    HW157501   7.245   7.411   0.887  1.3945  0.2394 -1.2534
18203SOL    HW257502   7.264   7.538   0.967  1.6947  0.9197 -2.3839
18204SOL     OW57503   2.525   5.798   0.611 -0.2848 -0.2475  0.5716
18204SOL    HW157504   2.596   5.833   0.557 -0.6177 -1.2980 -0.5980
18204SOL    HW257505   2.566   5.779   0.695  1.0612 -1.6452 -0.3493
18205SOL     OW57506   7.415   1.346   3.894  0.3580  0.2273  0.1641
18205SOL    HW157507   7.338   1.342   3.949 -0.9485  0.1809 -1.5831
18205SOL    HW257508   7.416   1.434   3.858  0.5446 -0.0677 -0.5884
18206SOL     OW57509   3.108   6.795   1.214 -0.0385  0.4880  0.3863
18206SOL    HW157510   3.163   6.798   1.135 -0.8453  0.1934 -0.2000
18206SOL    HW257511   3.020   6.816   1.183 -1.2930 -3.8215  0.3226
18207SOL     OW57512   8.071   0.626   7.088 -0.1114 -0.6783 -0.3236
18207SOL    HW157513   8.144   0.595   7.034 -1.1964 -0.2457 -2.1384
18207SOL    HW257514   8.101   0.615   7.178  0.6124 -4.3475 -0.8718
18208SOL     OW57515   2.570   7.395   9.078  0.3118 -0.8818  0.0235
18208SOL    HW157516   2.502   7.403   9.011 -0.4972 -3.4639  0.3956
18208SOL    HW257517   2.534   7.441   9.154 -0.2803 -0.7968 -0.3014
18209SOL     OW57518   4.992   8.643   5.600  0.3522  0.4796  0.8494
18209SOL    HW157519   4.993   8.571   5.537 -2.3474  0.0427  1.1822
18209SOL    HW257520   5.061   8.622   5.663  1.7288 -0.1240 -0.7956
18210SOL     OW57521   3.622   5.422   8.885  0.0622 -0.4638  0.4266
18210SOL    HW157522   3.670   5.504   8.874 -0.7292  0.2007  1.6163
18210SOL    HW257523   3.688   5.359   8.915  0.9260 -0.6369 -1.6863
18211SOL     OW57524   2.986   3.572   8.231  0.1344 -0.0189 -0.0336
18211SOL    HW157525   2.918   3.567   8.164 -0.0626  0.6389  0.1063
18211SOL    HW257526   2.956   3.642   8.289  0.7416  0.0111  0.2424
18212SOL     OW57527   5.845   4.547   2.285  0.4778  0.3924 -0.2184
18212SOL    HW157528   5.913   4.480   2.275  0.9647  0.7804  0.4484
18212SOL    HW257529   5.793   4.517   2.360 -1.6668 -1.2313 -2.2107
18213SOL     OW57530   5.347   0.732   0.631 -0.1701  0.3001  0.3841
18213SOL    HW157531   5.313   0.688   0.553  0.9488  0.4746 -0.2261
18213SOL    HW257532   5.292   0.699   0.703  0.3516 -1.7990 -0.1001
18214SOL     OW57533   7.168   6.922   5.727 -0.5554  0.2509  0.0992
18214SOL    HW157534   7.169   6.828   5.745  0.0272  0.0258 -0.9886
18214SOL    HW257535   7.087   6.936   5.678 -0.6126  0.3026  0.2095
18215SOL     OW57536   2.657   7.632   1.321  0.7868 -0.7297  0.2581
18215SOL    HW157537   2.660   7.720   1.360  0.3145 -0.3996 -0.4407
18215SOL    HW257538   2.609   7.580   1.385  1.1330 -0.5018  0.7138
18216SOL     OW57539   5.508   7.145   1.396  0.7795 -0.1666 -0.5672
18216SOL    HW157540   5.446   7.088   1.350 -0.2233  0.0404  0.4747
18216SOL    HW257541   5.520   7.219   1.338  0.7876 -0.6572 -1.2031
18217SOL     OW57542   9.018   1.432   1.084 -0.2037  0.1179 -0.3173
18217SOL    HW157543   8.938   1.484   1.088 -0.0850  0.3022 -0.3100
18217SOL    HW257544   9.014   1.386   1.000 -0.3027  0.1503 -0.3299
18218SOL     OW57545   4.431   7.575   4.048 -0.1064 -0.1632 -0.0544
18218SOL    HW157546   4.448   7.525   3.968  0.9183 -0.2086  0.1776
18218SOL    HW257547   4.508   7.631   4.058 -1.4049  1.7888 -0.5285
18219SOL     OW57548   1.808   5.649   1.210  0.2781 -0.4447 -0.0179
18219SOL    HW157549   1.742   5.694   1.264  0.1316 -0.1116 -0.4727
18219SOL    HW257550   1.853   5.719   1.163  0.9287 -0.6752  0.2470
18220SOL     OW57551   6.859   2.548   1.679  0.1774  0.2879 -0.2110
18220SOL    HW157552   6.924   2.512   1.619  0.8167  1.6950 -0.4111
18220SOL    HW257553   6.871   2.499   1.761 -0.2550 -1.1893 -1.0020
18221SOL     OW57554   1.808   1.316   6.467  0.0345  0.0854  0.6112
18221SOL    HW157555   1.901   1.316   6.445 -0.2610  0.2770 -0.7886
18221SOL    HW257556   1.765   1.293   6.385 -1.1399 -0.2870  1.3161
18222SOL     OW57557   4.859   1.565   3.395  0.1188 -0.7986 -0.1775
18222SOL    HW157558   4.784   1.517   3.360  0.3847 -2.1712  1.0652
18222SOL    HW257559   4.845   1.655   3.366 -2.3888 -0.8725  0.6370
18223SOL     OW57560   4.066   9.149   3.920 -0.2080 -0.5868  0.1678
18223SOL    HW157561   4.157   9.140   3.891 -0.1682 -2.3701  0.7518
18223SOL    HW257562   4.072   9.156   4.015 -0.5548  1.9507  0.0666
18224SOL     OW57563   9.241   6.334   0.806 -0.2061  0.1293 -0.4908
18224SOL    HW157564   9.297   6.410   0.790  0.5584 -0.0948  0.9727
18224SOL    HW257565   9.299   6.268   0.844 -0.8177 -1.2810 -1.8839
18225SOL     OW57566   5.598   1.436   0.338 -0.4066  0.6069  0.3851
18225SOL    HW157567   5.617   1.414   0.247 -1.8714  1.6404 -0.2078
18225SOL    HW257568   5.654   1.377   0.389  0.8916  0.4213 -1.1689
18226SOL     OW57569   4.200   7.342   8.214  0.3672 -0.4988 -0.0094
18226SOL    HW157570   4.296   7.341   8.217  0.3956 -1.6282 -0.8353
18226SOL    HW257571   4.177   7.279   8.146 -1.0006 -1.4102  1.2344
18227SOL     OW57572   7.711   1.761   7.527 -0.2234  0.5359 -0.1497
18227SOL    HW157573   7.638   1.797   7.476  0.8569  1.8586 -0.8516
18227SOL    HW257574   7.679   1.759   7.617 -0.7988  2.1109 -0.2817
18228SOL     OW57575   3.468   7.954   6.698  0.1891  0.0096 -0.2699
18228SOL    HW157576   3.461   7.870   6.653 -1.0924  0.2546 -0.5612
18228SOL    HW257577   3.513   8.011   6.636 -0.7390  0.0853 -0.8982
18229SOL     OW57578   5.339   1.538   1.834  0.1286 -0.0857  0.3735
18229SOL    HW157579   5.246   1.562   1.837  0.3753  0.8444  0.8429
18229SOL    HW257580   5.338   1.443   1.818 -0.9188 -0.2992  1.4785
18230SOL     OW57581   6.359   8.376   0.500 -0.2145  0.0373  0.1806
18230SOL    HW157582   6.453   8.387   0.510 -0.1380 -0.3857 -0.0079
18230SOL    HW257583   6.350   8.290   0.459 -0.6568  0.2845 -0.2527
18231SOL     OW57584   1.799   3.305   9.120 -0.0949 -0.2290  0.4981
18231SOL    HW157585   1.875   3.261   9.082  0.5118  0.8336  0.4537
18231SOL    HW257586   1.732   3.236   9.126  0.2771 -0.7663 -1.0992
18232SOL     OW57587   2.206   5.864   3.642 -0.2111 -0.0794 -0.1996
18232SOL    HW157588   2.122   5.824   3.663 -0.7175  1.5851  1.1428
18232SOL    HW257589   2.263   5.790   3.620 -1.4831 -1.3991  0.7645
18233SOL     OW57590   8.297   7.297   5.410 -0.1344  0.1521 -0.4805
18233SOL    HW157591   8.217   7.278   5.360 -0.2549 -0.6291 -0.0123
18233SOL    HW257592   8.265   7.338   5.491 -0.0227  0.3085 -0.5150
18234SOL     OW57593   1.213   5.547   1.977 -0.1464 -0.4033  0.2107
18234SOL    HW157594   1.227   5.470   2.033  0.6344 -0.8911 -0.6382
18234SOL    HW257595   1.165   5.608   2.033  2.2486 -0.0898  2.1224
18235SOL     OW57596   6.828   1.630   9.107  0.1317  1.1074 -0.2653
18235SOL    HW157597   6.888   1.566   9.068  1.0879  1.6582  0.2722
18235SOL    HW257598   6.831   1.612   9.201 -1.8053  0.0958 -0.3377
18236SOL     OW57599   5.408   6.510   2.427  0.3061  0.8528  0.0025
18236SOL    HW157600   5.383   6.594   2.389  0.7200  1.4054  0.9205
18236SOL    HW257601   5.369   6.511   2.514  0.5036  0.1854  0.1029
18237SOL     OW57602   4.042   0.248   7.572  0.5454  0.3233 -0.0655
18237SOL    HW157603   3.991   0.260   7.652  0.1116 -1.6110  0.0121
18237SOL    HW257604   3.977   0.232   7.504  0.9264  1.6005 -0.7667
18238SOL     OW57605   9.087   1.905   2.481 -1.0742  0.0372  0.0800
18238SOL    HW157606   9.175   1.875   2.460 -1.3303  0.1739 -1.2766
18238SOL    HW257607   9.029   1.853   2.426 -1.8565 -0.0407  0.9447
18239SOL     OW57608   3.034   8.444   1.485 -0.3559  0.8835 -0.0448
18239SOL    HW157609   3.117   8.489   1.468  0.8417 -0.2189  2.4219
18239SOL    HW257610   3.028   8.438   1.580 -2.5482 -0.4337 -0.1879
18240SOL     OW57611   6.146   5.753   3.706 -0.5084  0.0864 -0.5917
18240SOL    HW157612   6.072   5.813   3.703 -0.8380 -0.3294 -0.8072
18240SOL    HW257613   6.170   5.739   3.615 -0.1281  0.2602 -0.5211
18241SOL     OW57614   2.184   3.934   0.656 -0.0592 -0.0987  0.4627
18241SOL    HW157615   2.215   3.962   0.570 -0.3773  0.4744  0.5283
18241SOL    HW257616   2.258   3.885   0.693 -0.5659 -1.9919 -0.8672
18242SOL     OW57617   5.675   2.420   7.347  0.2361 -0.2648 -0.3596
18242SOL    HW157618   5.754   2.467   7.372 -0.6899  0.4535  1.3794
18242SOL    HW257619   5.659   2.359   7.419 -0.4605 -0.8197 -0.9704
18243SOL     OW57620   8.614   4.379   4.138  0.0994 -0.0011  0.3001
18243SOL    HW157621   8.633   4.457   4.086 -0.7315  1.0134  1.4711
18243SOL    HW257622   8.593   4.312   4.073  1.6901  0.4770 -0.7650
18244SOL     OW57623   4.969   4.248   5.756  0.3860  0.4041 -0.1274
18244SOL    HW157624   4.983   4.206   5.671  0.4402  0.7977 -0.3119
18244SOL    HW257625   5.045   4.221   5.808  0.0648 -0.3097 -0.0109
18245SOL     OW57626   3.934   6.406   8.563 -0.1734 -0.0812  0.2329
18245SOL    HW157627   4.026   6.379   8.569  0.1808  0.4936 -1.9048
18245SOL    HW257628   3.891   6.335   8.516 -0.4205  0.4647 -0.3801
18246SOL     OW57629   2.280   5.094   3.181 -0.0430 -0.0487  0.2728
18246SOL    HW157630   2.236   5.013   3.155  0.2226 -0.1068  0.0064
18246SOL    HW257631   2.209   5.152   3.209 -0.1832 -0.6126  1.1262
18247SOL     OW57632   1.083   2.358   5.030  0.1800  0.0156  0.0664
18247SOL    HW157633   1.106   2.358   5.123  2.2288  0.4824 -0.4057
18247SOL    HW257634   1.058   2.449   5.012  2.9817  0.7764 -0.5026
18248SOL     OW57635   2.873   2.888   6.631  0.1639  0.1516 -0.6175
18248SOL    HW157636   2.811   2.939   6.580  1.0769  0.0689 -1.8399
18248SOL    HW257637   2.847   2.903   6.722 -0.9165  1.0404 -1.0529
18249SOL     OW57638   7.225   5.198   5.822  0.1751  0.1874 -0.0677
18249SOL    HW157639   7.178   5.172   5.743 -1.6793  0.7006  0.8070
18249SOL    HW257640   7.219   5.293   5.823 -0.1585  0.1702  0.8496
18250SOL     OW57641   8.702   2.433   2.367 -0.3174  0.4436  0.0470
18250SOL    HW157642   8.615   2.471   2.363 -1.1384 -0.9030  2.6781
18250SOL    HW257643   8.690   2.343   2.335  0.1278  0.2753  0.3449
18251SOL     OW57644   6.541   6.473   8.663  0.3708  0.1770  0.3053
18251SOL    HW157645   6.543   6.425   8.746 -1.1250 -0.4235  0.0389
18251SOL    HW257646   6.629   6.510   8.654  0.3916  0.7513  2.4248
18252SOL     OW57647   8.015   4.444   3.082  0.3265 -0.2724 -0.1806
18252SOL    HW157648   8.012   4.368   3.140  0.2067  0.5018  0.8551
18252SOL    HW257649   8.072   4.506   3.127 -0.3017  0.6056 -0.5641
18253SOL     OW57650   8.900   2.516   2.020 -0.0719 -0.0202 -0.0086
18253SOL    HW157651   8.804   2.512   2.014 -0.1274  0.2408  0.6780
18253SOL    HW257652   8.928   2.426   2.004 -0.4251 -0.0891 -0.2777
18254SOL     OW57653   3.649   4.672   2.836 -0.1481  0.7660  0.1057
18254SOL    HW157654   3.562   4.710   2.826 -1.3547 -1.4849  1.3059
18254SOL    HW257655   3.696   4.697   2.756 -2.3252  0.9356 -1.1991
18255SOL     OW57656   8.027   7.883   3.708 -0.4785  0.0188  0.2261
18255SOL    HW157657   8.102   7.913   3.759 -0.2991 -0.3220  0.1631
18255SOL    HW257658   8.065   7.853   3.625 -0.8825  1.6819 -0.5957
18256SOL     OW57659   1.602   7.661   6.281 -0.6934 -0.1311  0.6078
18256SOL    HW157660   1.665   7.636   6.349 -2.9028  0.0721  2.8774
18256SOL    HW257661   1.581   7.579   6.236  0.6693 -0.3004  0.2419
18257SOL     OW57662   2.493   8.711   8.114 -0.1063  0.1956  0.6330
18257SOL    HW157663   2.543   8.728   8.194  1.7355  1.0845 -0.6275
18257SOL    HW257664   2.448   8.793   8.095  1.6468  0.9279 -0.6460
18258SOL     OW57665   5.293   6.552   0.398  0.2734 -0.0509  0.0634
18258SOL    HW157666   5.382   6.518   0.400 -0.2210 -1.4201  0.0369
18258SOL    HW257667   5.263   6.537   0.308 -0.0306  0.2885  0.1016
18259SOL     OW57668   7.498   6.791   2.536  0.1631  0.1475  0.2096
18259SOL    HW157669   7.449   6.760   2.612  0.9186  1.0187  1.0865
18259SOL    HW257670   7.432   6.833   2.481  0.1142  3.5527  2.5387
18260SOL     OW57671   7.854   2.104   4.774  0.1415 -0.0253  0.4075
18260SOL    HW157672   7.940   2.088   4.814  0.3931 -0.1377 -0.1687
18260SOL    HW257673   7.872   2.109   4.680 -0.6971 -1.5896  0.1410
18261SOL     OW57674   7.430   0.922   6.346  0.6095  0.4891  0.4261
18261SOL    HW157675   7.458   0.854   6.407  0.9562  0.3497  0.1138
18261SOL    HW257676   7.480   1.000   6.373  1.0069  0.3441  0.1215
18262SOL     OW57677   0.942   1.367   3.104  0.1996 -0.2375 -0.3763
18262SOL    HW157678   1.010   1.412   3.154 -1.0943  0.4920  0.8212
18262SOL    HW257679   0.863   1.419   3.119 -0.7168 -1.2914 -1.3600
18263SOL     OW57680   1.641   6.498   4.268 -0.7158  0.4011 -0.3175
18263SOL    HW157681   1.685   6.415   4.250 -0.0258  0.6428  0.2056
18263SOL    HW257682   1.593   6.482   4.349  0.3599  0.8433  0.4311
18264SOL     OW57683   0.642   8.170   7.670 -0.0630 -0.1408  0.5654
18264SOL    HW157684   0.575   8.117   7.714  0.3929 -0.8026  0.4739
18264SOL    HW257685   0.599   8.254   7.654 -0.3145  0.0614  2.1101
18265SOL     OW57686   1.371   4.567   1.277 -0.0456  0.3269 -0.4568
18265SOL    HW157687   1.314   4.498   1.243 -0.0508 -0.1164  0.4069
18265SOL    HW257688   1.342   4.646   1.233 -2.3029  0.3812  0.9392
18266SOL     OW57689   3.616   8.301   3.808  0.1095  0.1419  0.5215
18266SOL    HW157690   3.543   8.258   3.853 -1.0464  2.3584  0.9004
18266SOL    HW257691   3.668   8.339   3.878 -1.3570  3.0712  0.1734
18267SOL     OW57692   8.094   4.055   0.901 -0.3503 -0.4181  0.1954
18267SOL    HW157693   8.183   4.085   0.919 -0.4579  1.2766 -1.7051
18267SOL    HW257694   8.096   4.026   0.810 -1.7024 -0.5198  0.1704
18268SOL     OW57695   2.125   2.294   6.452 -0.4237  0.5649 -0.1553
18268SOL    HW157696   2.080   2.210   6.458 -1.1756  1.0830  2.1386
18268SOL    HW257697   2.198   2.286   6.514  0.0913  1.2692 -0.6623
18269SOL     OW57698   7.407   6.739   7.134 -0.0636 -0.2082  0.2056
18269SOL    HW157699   7.371   6.756   7.222  1.6473 -0.4029  0.9877
18269SOL    HW257700   7.437   6.648   7.138 -1.4926 -0.7717 -1.1676
18270SOL     OW57701   0.244   6.796   0.821 -0.2103 -0.2847 -0.1248
18270SOL    HW157702   0.339   6.789   0.829 -0.0314 -1.7278 -2.4945
18270SOL    HW257703   0.210   6.737   0.889  0.6845 -1.3584 -0.5699
18271SOL     OW57704   3.992   6.738   8.854  0.5005 -0.6522 -0.1668
18271SOL    HW157705   3.980   6.776   8.767  2.3941 -0.1463 -0.2378
18271SOL    HW257706   4.043   6.658   8.839  1.5648 -0.1279  0.5421
18272SOL     OW57707   5.277   1.191   3.581 -0.0125 -0.2508 -0.0280
18272SOL    HW157708   5.219   1.246   3.634 -0.2237  2.4767 -2.7767
18272SOL    HW257709   5.357   1.244   3.571  1.3939 -2.1927  0.3761
18273SOL     OW57710   0.825   8.368   7.282  0.7933  0.6884 -0.5318
18273SOL    HW157711   0.784   8.362   7.196 -2.0640 -0.5600  0.8185
18273SOL    HW257712   0.795   8.452   7.317 -0.8418 -0.2804  0.5060
18274SOL     OW57713   5.971   1.077   5.932  0.0981 -0.0472 -0.0976
18274SOL    HW157714   6.027   1.155   5.925 -0.2202  0.1372 -0.6231
18274SOL    HW257715   6.001   1.020   5.861 -0.6050  0.1985 -0.5999
18275SOL     OW57716   1.459   0.459   4.417 -0.5824  0.2960 -0.2534
18275SOL    HW157717   1.509   0.540   4.419 -0.1949  0.0500  0.3690
18275SOL    HW257718   1.493   0.408   4.491 -0.1382 -0.8532 -1.2221
18276SOL     OW57719   4.650   8.668   7.447  0.5352  0.3655 -0.1066
18276SOL    HW157720   4.558   8.667   7.421  0.6958  1.8057 -0.8585
18276SOL    HW257721   4.650   8.704   7.535  0.3659  0.2511 -0.0598
18277SOL     OW57722   1.782   5.680   3.045 -0.1833 -0.3794  0.6807
18277SOL    HW157723   1.793   5.742   2.973 -1.3052 -0.3783  0.4844
18277SOL    HW257724   1.768   5.596   3.003 -0.1623 -0.5011  0.9146
18278SOL     OW57725   5.605   3.393   8.862 -0.3233 -0.4142  0.1665
18278SOL    HW157726   5.587   3.329   8.932  3.1128 -1.2230  0.4820
18278SOL    HW257727   5.683   3.359   8.819  1.1128  3.0907 -0.2701
18279SOL     OW57728   6.507   1.881   4.030  0.2816 -0.5527  0.0852
18279SOL    HW157729   6.423   1.924   4.048 -0.4611 -1.6151 -0.6989
18279SOL    HW257730   6.503   1.858   3.937  1.8215  0.1630 -0.1791
18280SOL     OW57731   7.268   2.653   6.155  0.4004 -0.7466 -0.1237
18280SOL    HW157732   7.218   2.608   6.087  0.4078 -2.8764  1.1849
18280SOL    HW257733   7.208   2.661   6.228  1.0896 -0.6474  0.4477
18281SOL     OW57734   8.345   9.157   4.734  0.0678 -0.0183  0.3180
18281SOL    HW157735   8.299   9.081   4.769 -1.8326 -0.0373 -1.9900
18281SOL    HW257736   8.394   9.123   4.659 -0.8075  0.9844 -0.7467
18282SOL     OW57737   5.093   0.333   4.704 -0.0197  0.1507  0.4521
18282SOL    HW157738   5.038   0.377   4.768  0.1292  0.4285  0.3901
18282SOL    HW257739   5.177   0.321   4.748 -0.3653 -1.0042  0.8388
18283SOL     OW57740   1.646   6.577   3.328  0.6527 -0.1380 -0.0132
18283SOL    HW157741   1.706   6.651   3.322  1.7235 -0.9815 -0.1960
18283SOL    HW257742   1.679   6.526   3.402 -0.0984 -0.4052  0.1461
18284SOL     OW57743   3.232   1.890   3.073 -0.2389 -0.3638 -0.4627
18284SOL    HW157744   3.254   1.981   3.092  0.7169 -1.2153  3.1737
18284SOL    HW257745   3.311   1.841   3.093 -1.5548 -2.2436  0.4453
18285SOL     OW57746   3.639   0.835   1.578 -0.6969 -0.3832  0.1851
18285SOL    HW157747   3.633   0.927   1.602 -0.7924 -0.7771  1.7794
18285SOL    HW257748   3.679   0.793   1.655  1.3298 -1.3550 -1.3061
18286SOL     OW57749   7.990   5.170   0.548 -0.2566  0.0289 -0.1401
18286SOL    HW157750   8.012   5.102   0.485  0.2733  0.9498 -0.9883
18286SOL    HW257751   8.045   5.150   0.624  0.5873  0.0296 -0.7336
18287SOL     OW57752   2.335   5.893   7.560 -0.2105  0.0539  0.0495
18287SOL    HW157753   2.399   5.840   7.512  1.4785  0.8928  1.2693
18287SOL    HW257754   2.373   5.981   7.562 -2.8772  1.3660 -1.7880
18288SOL     OW57755   4.625   5.095   1.259  0.2028 -0.1910 -0.5463
18288SOL    HW157756   4.642   5.189   1.264  0.2294 -0.1508 -1.2968
18288SOL    HW257757   4.708   5.054   1.286  0.7161  0.0063 -1.7707
18289SOL     OW57758   0.553   3.892   2.758  0.2415  0.2320 -0.4119
18289SOL    HW157759   0.532   3.799   2.772 -1.9448  1.0530  3.0520
18289SOL    HW257760   0.649   3.894   2.754  0.3430 -2.1972 -1.1021
18290SOL     OW57761   8.155   2.148   7.309  0.3634  0.5153  0.1216
18290SOL    HW157762   8.177   2.077   7.369  0.3135  1.0500  0.7788
18290SOL    HW257763   8.168   2.110   7.222  2.3094  0.3277  0.4606
18291SOL     OW57764   2.520   2.285   4.854 -0.2589  0.1969  0.1927
18291SOL    HW157765   2.525   2.235   4.772  1.2645  0.4040  0.1293
18291SOL    HW257766   2.466   2.361   4.833 -0.5678 -0.1717 -0.3812
18292SOL     OW57767   1.845   8.324   7.583  0.0787  0.3544  0.2430
18292SOL    HW157768   1.890   8.281   7.510 -0.5118  0.5127 -0.2242
18292SOL    HW257769   1.825   8.254   7.645  1.5532  0.3758  0.7803
18293SOL     OW57770   2.275   5.229   5.476  0.1332  0.1609 -0.2320
18293SOL    HW157771   2.318   5.153   5.515 -1.7212 -0.7252  0.2161
18293SOL    HW257772   2.275   5.211   5.382  1.5379  0.6383 -0.3454
18294SOL     OW57773   0.048   2.187   8.794  0.7164  0.2105  0.6444
18294SOL    HW157774   0.057   2.092   8.801  0.2053  0.2252  1.7927
18294SOL    HW257775   0.027   2.203   8.702  3.2823 -0.5533 -0.1436
18295SOL     OW57776   3.699   0.886   3.834  0.1038 -0.2795  0.4024
18295SOL    HW157777   3.740   0.842   3.909  0.2181 -0.5048  0.2126
18295SOL    HW257778   3.661   0.814   3.783  0.8844 -0.2338 -0.2718
18296SOL     OW57779   0.967   2.403   5.824 -0.3322 -0.2827  0.7463
18296SOL    HW157780   0.936   2.313   5.815  0.9638 -0.7931  1.2714
18296SOL    HW257781   0.969   2.436   5.734  2.7753 -2.0417  0.0005
18297SOL     OW57782   3.733   5.062   0.468 -0.4544 -0.4280  0.0654
18297SOL    HW157783   3.824   5.078   0.495 -1.2951 -0.2094  3.1361
18297SOL    HW257784   3.711   5.138   0.413  1.1792 -0.4828 -0.7219
18298SOL     OW57785   5.114   3.625   5.674 -0.0821  0.1032  0.1102
18298SOL    HW157786   5.071   3.707   5.696 -0.3532 -0.6966  3.1207
18298SOL    HW257787   5.046   3.558   5.688  0.8766 -0.8138  0.5456
18299SOL     OW57788   2.153   6.054   3.878 -0.6264  0.0661  0.0459
18299SOL    HW157789   2.193   5.994   3.815  0.8513  1.1860 -0.1458
18299SOL    HW257790   2.060   6.032   3.876 -0.2307 -1.7536 -0.4908
18300SOL     OW57791   0.278   5.573   3.923 -0.5917  0.1862 -0.0560
18300SOL    HW157792   0.373   5.582   3.914 -0.6483  0.3650 -0.4939
18300SOL    HW257793   0.256   5.619   4.004 -0.1446 -0.9239  0.7216
18301SOL     OW57794   3.033   4.719   6.446  0.4350 -0.2234  0.2441
18301SOL    HW157795   3.070   4.715   6.358 -0.1296 -0.7185  0.0258
18301SOL    HW257796   3.050   4.633   6.484 -0.4207 -0.4397  0.1641
18302SOL     OW57797   7.116   7.954   2.366  0.4761 -0.3726 -0.3713
18302SOL    HW157798   7.148   7.871   2.329  1.9722  0.7023 -1.6048
18302SOL    HW257799   7.139   7.949   2.458 -0.1665 -1.6462 -0.2531
18303SOL     OW57800   4.587   7.091   6.558  0.0806 -0.5027  0.0557
18303SOL    HW157801   4.675   7.082   6.595  0.3255 -0.0040 -0.3769
18303SOL    HW257802   4.534   7.124   6.630  0.7307  1.2467 -0.1977
18304SOL     OW57803   0.283   1.144   4.693 -0.2086 -0.0285 -0.0446
18304SOL    HW157804   0.204   1.186   4.728 -0.0880 -0.6838  1.0690
18304SOL    HW257805   0.335   1.123   4.770  1.0085  0.2737 -0.7627
18305SOL     OW57806   4.696   3.756   5.087 -0.4799  0.2541 -0.2550
18305SOL    HW157807   4.701   3.662   5.073  0.4556  0.1334  0.7728
18305SOL    HW257808   4.682   3.792   5.000  0.2273 -0.7687 -0.8145
18306SOL     OW57809   0.121   6.953   2.686 -0.3970 -0.1422 -0.3243
18306SOL    HW157810   0.058   7.024   2.672  0.8301  1.0298 -0.1379
18306SOL    HW257811   0.070   6.873   2.678 -1.7830  0.7603 -0.7818
18307SOL     OW57812   3.074   7.223   6.032 -0.0127 -0.1712 -0.0097
18307SOL    HW157813   3.012   7.263   5.971  0.5287 -1.1780 -1.2559
18307SOL    HW257814   3.074   7.282   6.108  0.2655  1.8022 -1.4786
18308SOL     OW57815   0.778   4.349   1.711 -0.2501 -0.2103 -0.0472
18308SOL    HW157816   0.824   4.380   1.790  1.7742 -2.8458 -0.0561
18308SOL    HW257817   0.783   4.423   1.651  0.5352  0.9578  1.3577
18309SOL     OW57818   1.011   2.068   3.777 -0.0837 -0.4987  0.0619
18309SOL    HW157819   1.066   2.147   3.771 -0.8326  0.3542  2.7376
18309SOL    HW257820   0.927   2.094   3.739 -0.5198  0.2632  1.4668
18310SOL     OW57821   5.287   3.495   5.946 -0.4288 -0.2572  0.7463
18310SOL    HW157822   5.233   3.428   5.989  0.2866 -0.2804  1.6264
18310SOL    HW257823   5.248   3.504   5.859 -1.4980 -0.6948  1.1529
18311SOL     OW57824   2.431   3.297   4.595  0.3302 -0.2450  0.6683
18311SOL    HW157825   2.467   3.221   4.550 -0.6005 -1.0307  1.2184
18311SOL    HW257826   2.355   3.323   4.542  0.2646 -0.0981  0.8316
18312SOL     OW57827   4.732   1.523   7.980  0.4776  0.0772 -0.3794
18312SOL    HW157828   4.811   1.545   8.029  0.5055 -1.4807  0.3105
18312SOL    HW257829   4.661   1.565   8.029  0.6802 -0.1047  0.0723
18313SOL     OW57830   5.855   0.714   3.610  0.2348 -1.1100  0.2466
18313SOL    HW157831   5.790   0.684   3.673 -0.9221  0.4910 -0.1360
18313SOL    HW257832   5.819   0.691   3.525  1.6418 -2.9709  0.1056
18314SOL     OW57833   5.466   4.709   6.214 -0.0741  0.1946 -0.3982
18314SOL    HW157834   5.444   4.648   6.144  2.3197 -1.0915 -0.1412
18314SOL    HW257835   5.439   4.664   6.294  0.2894  0.1542 -0.2977
18315SOL     OW57836   2.753   6.011   8.356 -0.5027  0.0200  0.0832
18315SOL    HW157837   2.730   5.934   8.407 -0.5508  0.5350  0.8610
18315SOL    HW257838   2.703   6.082   8.396 -0.9919  0.3323 -1.0638
18316SOL     OW57839   7.743   0.260   1.134  0.5078 -0.3266 -0.0100
18316SOL    HW157840   7.703   0.178   1.105 -1.9430  1.2283 -1.3651
18316SOL    HW257841   7.813   0.276   1.070  0.2037 -0.7725 -0.4597
18317SOL     OW57842   2.741   6.065   0.987 -0.0574 -0.1381 -0.8664
18317SOL    HW157843   2.752   6.059   1.082 -1.8536  1.2091 -0.4975
18317SOL    HW257844   2.747   5.975   0.956 -0.0432 -0.6788  0.6204
18318SOL     OW57845   2.690   8.850   6.908 -0.0478 -0.1480 -0.7137
18318SOL    HW157846   2.664   8.846   7.000  0.2789 -1.0062 -0.6457
18318SOL    HW257847   2.660   8.767   6.871 -1.6303  0.8498 -1.7914
18319SOL     OW57848   5.321   5.253   1.998  0.3565 -0.5550 -0.3047
18319SOL    HW157849   5.287   5.320   2.057 -0.1125 -0.4463 -0.6834
18319SOL    HW257850   5.351   5.183   2.056  0.8377 -0.0253  0.0913
18320SOL     OW57851   3.626   6.075   2.630 -0.4730 -0.2164 -0.1594
18320SOL    HW157852   3.546   6.023   2.623 -0.3785 -0.4727  0.6304
18320SOL    HW257853   3.598   6.158   2.668 -0.6678  0.4386 -1.6603
18321SOL     OW57854   6.210   2.704   3.049 -0.3479  0.0021 -0.0435
18321SOL    HW157855   6.290   2.749   3.022 -1.6874  1.0785 -2.5518
18321SOL    HW257856   6.152   2.775   3.078 -1.4104 -0.4034 -1.1187
18322SOL     OW57857   4.053   2.309   8.860 -0.2017 -0.4075  0.1698
18322SOL    HW157858   4.111   2.267   8.796 -0.5821 -2.2650  0.9764
18322SOL    HW257859   4.098   2.390   8.884 -0.1120  0.4444 -2.5214
18323SOL     OW57860   5.522   6.636   3.940 -0.0064  0.1682  0.2267
18323SOL    HW157861   5.502   6.678   3.857 -0.3924 -0.7242 -0.1364
18323SOL    HW257862   5.618   6.633   3.943  0.0735  1.7943  0.6440
18324SOL     OW57863   3.322   7.320   2.066  0.1076 -0.0659  0.1885
18324SOL    HW157864   3.407   7.333   2.108 -0.3432  0.2358  1.0524
18324SOL    HW257865   3.301   7.228   2.081  0.9255 -0.5157 -1.3026
18325SOL     OW57866   5.292   8.116   2.200  0.2941  0.4561 -0.0061
18325SOL    HW157867   5.317   8.093   2.289  1.2669  1.9199  0.1498
18325SOL    HW257868   5.347   8.192   2.179 -0.9615  1.0628 -1.3102
18326SOL     OW57869   8.867   3.817   2.093 -0.7082 -0.4158 -0.2375
18326SOL    HW157870   8.816   3.889   2.130 -0.9024 -1.6120  2.0200
18326SOL    HW257871   8.899   3.769   2.170  2.4886 -0.6716 -1.5602
18327SOL     OW57872   4.748   2.961   6.145 -0.4271  0.0262 -0.3979
18327SOL    HW157873   4.790   2.880   6.113 -0.4513 -0.1423 -0.0140
18327SOL    HW257874   4.658   2.935   6.164  0.2239 -0.5862  2.3249
18328SOL     OW57875   6.181   7.120   6.235  0.2875  0.0557  0.4634
18328SOL    HW157876   6.249   7.078   6.288 -0.3984  0.9451  2.0918
18328SOL    HW257877   6.103   7.067   6.251  0.6863 -1.5076 -2.0967
18329SOL     OW57878   8.527   0.875   7.654  0.1549 -1.0483  0.1364
18329SOL    HW157879   8.455   0.937   7.639  0.4822 -0.4386  0.9900
18329SOL    HW257880   8.601   0.911   7.605  0.3293 -0.7854  0.5867
18330SOL     OW57881   4.471   0.191   1.255 -0.2277  0.2408  0.5582
18330SOL    HW157882   4.415   0.138   1.198  0.0093  0.4270  0.1529
18330SOL    HW257883   4.413   0.218   1.326  0.2481 -2.8265  2.2913
18331SOL     OW57884   1.063   3.391   4.947 -0.2932  0.0326  0.1834
18331SOL    HW157885   0.979   3.436   4.945 -1.0922 -1.4115 -0.9829
18331SOL    HW257886   1.113   3.435   5.016 -1.6386  1.5331  0.2397
18332SOL     OW57887   4.655   0.160   6.652  0.0264  0.0578  0.0865
18332SOL    HW157888   4.646   0.212   6.572  0.8016  1.0217  0.6166
18332SOL    HW257889   4.732   0.105   6.636  0.6462  0.8063  0.4660
18333SOL     OW57890   7.745   3.590   7.222  0.2083 -0.1463  0.1716
18333SOL    HW157891   7.797   3.512   7.203 -0.2221 -0.6022  0.8060
18333SOL    HW257892   7.781   3.623   7.305  1.6494  1.4468 -1.0111
18334SOL     OW57893   3.138   4.858   2.647  0.8356 -0.5288 -0.0144
18334SOL    HW157894   3.207   4.823   2.590 -1.4144 -1.8932 -2.0867
18334SOL    HW257895   3.123   4.788   2.711  0.4480 -0.8442 -0.4401
18335SOL     OW57896   1.210   8.560   2.310  0.2865 -0.3772  0.1815
18335SOL    HW157897   1.239   8.529   2.224  0.8246 -1.0226  0.5905
18335SOL    HW257898   1.116   8.543   2.311  0.1405  0.2980 -0.5536
18336SOL     OW57899   5.466   8.140   0.732 -0.7104 -0.1998  0.3022
18336SOL    HW157900   5.445   8.225   0.693 -2.1548 -0.2308  0.9656
18336SOL    HW257901   5.476   8.158   0.825 -1.6967 -0.8522  0.5490
18337SOL     OW57902   6.301   8.349   2.205  0.0125  0.4773  0.4972
18337SOL    HW157903   6.347   8.310   2.131  1.0288  1.5525  0.5258
18337SOL    HW257904   6.330   8.440   2.206 -2.5451  1.3798  0.2136
18338SOL     OW57905   3.706   7.446   0.680  0.0883  0.5212 -0.4231
18338SOL    HW157906   3.757   7.485   0.609 -1.2489  0.5632 -1.3799
18338SOL    HW257907   3.622   7.492   0.678  0.0907  0.6844  1.3468
18339SOL     OW57908   4.206   1.405   7.495 -0.3908  0.0685  0.3831
18339SOL    HW157909   4.145   1.480   7.495 -0.4794 -0.0034  0.4406
18339SOL    HW257910   4.206   1.374   7.405  0.0860  0.4944  0.2270
18340SOL     OW57911   2.879   5.380   5.247  0.1282 -0.0972  0.1938
18340SOL    HW157912   2.860   5.381   5.341  1.7686  2.3113  0.6056
18340SOL    HW257913   2.965   5.422   5.240 -0.4167  0.7600 -2.4686
18341SOL     OW57914   9.080   7.999   7.408 -0.0428  0.4273  0.0502
18341SOL    HW157915   9.036   7.957   7.334 -1.5897 -1.9152  2.1605
18341SOL    HW257916   9.019   8.067   7.436 -1.6136 -1.5807  1.7982
18342SOL     OW57917   7.994   5.581   3.879 -0.1522 -0.4081 -0.2835
18342SOL    HW157918   7.907   5.611   3.902  1.0482  0.3577  4.1455
18342SOL    HW257919   7.981   5.495   3.838 -2.9916  1.0785 -2.9233
18343SOL     OW57920   1.316   4.024   1.429 -0.1179  0.1737 -0.2987
18343SOL    HW157921   1.355   3.937   1.436 -1.0217 -0.3705 -1.7143
18343SOL    HW257922   1.382   4.083   1.467  1.0198 -0.9804 -0.4158
18344SOL     OW57923   7.117   8.961   1.109 -0.3180  0.0155  0.0793
18344SOL    HW157924   7.142   8.871   1.089 -0.0750 -0.1080  0.8895
18344SOL    HW257925   7.126   8.967   1.204 -2.1815  0.3433  0.2608
18345SOL     OW57926   7.404   4.304   5.318  0.0386 -0.2798  0.0634
18345SOL    HW157927   7.495   4.330   5.331  0.5548 -0.4575 -2.6342
18345SOL    HW257928   7.401   4.213   5.347  0.5432 -0.0848  0.7570
18346SOL     OW57929   8.028   5.792   5.861 -0.4503  0.0137 -0.0693
18346SOL    HW157930   8.008   5.706   5.826  2.7389 -0.7304 -0.3650
18346SOL    HW257931   8.060   5.842   5.785 -2.6674  1.7017 -0.0041
18347SOL     OW57932   4.546   3.653   7.485  0.1440 -0.3166 -0.3728
18347SOL    HW157933   4.480   3.616   7.543  0.6875 -0.4570  0.1592
18347SOL    HW257934   4.628   3.647   7.534  0.5480 -0.1034 -1.0080
18348SOL     OW57935   8.890   0.992   0.915  0.4088  0.0058 -0.2616
18348SOL    HW157936   8.837   1.070   0.930 -1.0565 -0.6552 -1.7060
18348SOL    HW257937   8.829   0.919   0.919  1.2443 -0.8245 -1.6032
18349SOL     OW57938   7.467   5.984   8.119 -0.4143 -0.4435 -0.5274
18349SOL    HW157939   7.389   5.935   8.147 -1.5134  0.3687 -2.0049
18349SOL    HW257940   7.434   6.045   8.053  0.9939  1.8935  0.8046
18350SOL     OW57941   4.070   7.851   5.990  0.2903 -0.0005 -0.1581
18350SOL    HW157942   3.999   7.804   5.948  0.3440 -0.0493 -0.1937
18350SOL    HW257943   4.046   7.944   5.982  0.2853 -0.0116 -0.2671
18351SOL     OW57944   5.955   1.144   4.995  0.7448  0.2523  1.1719
18351SOL    HW157945   6.022   1.078   5.013 -0.0512 -0.5794  1.1490
18351SOL    HW257946   5.922   1.168   5.082  0.0926 -0.3984  1.1197
18352SOL     OW57947   8.595   4.438   2.269 -0.1817 -0.2912 -0.5868
18352SOL    HW157948   8.655   4.512   2.266  0.3894 -0.6761  0.8197
18352SOL    HW257949   8.644   4.368   2.312 -0.6438 -1.5745 -2.0318
18353SOL     OW57950   6.879   2.159   6.173 -0.0215 -0.1909 -0.1472
18353SOL    HW157951   6.958   2.136   6.222 -0.5617 -0.4393  0.6239
18353SOL    HW257952   6.817   2.188   6.239 -0.0879  1.4659 -0.8911
18354SOL     OW57953   8.368   2.964   3.210  0.2870 -0.5270 -0.4485
18354SOL    HW157954   8.441   2.926   3.258 -0.8854 -1.5906  0.5740
18354SOL    HW257955   8.292   2.949   3.267 -0.7802  0.2366 -1.6263
18355SOL     OW57956   1.835   3.571   1.183  0.5312 -0.4492  0.5646
18355SOL    HW157957   1.770   3.631   1.218  0.6065 -0.6442  1.0377
18355SOL    HW257958   1.908   3.575   1.245  0.8386 -0.4734  0.2108
18356SOL     OW57959   1.440   1.267   9.076 -0.1339  0.0634  0.1351
18356SOL    HW157960   1.406   1.216   9.150  2.0297  0.2021  1.2978
18356SOL    HW257961   1.451   1.203   9.006  2.1409 -1.0915  1.4442
18357SOL     OW57962   4.688   1.688   2.182 -0.5812 -0.2394  0.4491
18357SOL    HW157963   4.619   1.678   2.247  1.6895 -0.6010  3.0005
18357SOL    HW257964   4.719   1.599   2.165 -1.0502 -0.1329 -1.0607
18358SOL     OW57965   8.215   1.729   6.392  0.8845  0.1319 -0.4673
18358SOL    HW157966   8.234   1.688   6.308  1.1652 -1.2265  0.2254
18358SOL    HW257967   8.301   1.746   6.430  0.7818 -0.9044  0.2827
18359SOL     OW57968   0.372   1.312   5.525  0.4092  0.3127 -0.0957
18359SOL    HW157969   0.373   1.378   5.594 -0.2706 -1.9807  2.2808
18359SOL    HW257970   0.292   1.261   5.542  0.6292 -0.8309 -2.1286
18360SOL     OW57971   2.844   1.684   7.328 -0.2075  0.1378  0.3445
18360SOL    HW157972   2.888   1.657   7.248 -1.0497 -1.2540  0.3082
18360SOL    HW257973   2.887   1.765   7.354  2.4211 -1.1700  0.3668
18361SOL     OW57974   2.229   1.877   4.379  0.1116 -0.1375 -0.2487
18361SOL    HW157975   2.258   1.901   4.291  1.9782  0.3398  0.4474
18361SOL    HW257976   2.309   1.882   4.432 -0.6865 -1.7740  1.1987
18362SOL     OW57977   3.935   3.081   8.323 -0.2952  0.1579 -0.4052
18362SOL    HW157978   3.968   2.991   8.324 -0.7045 -0.0467  1.8800
18362SOL    HW257979   4.009   3.134   8.352 -1.1462 -0.0428  2.5297
18363SOL     OW57980   7.003   6.780   0.946  0.3874  0.5896 -0.5421
18363SOL    HW157981   7.044   6.704   0.987  0.7126  0.2940 -1.3939
18363SOL    HW257982   7.075   6.838   0.925  0.3516  0.2594 -1.6533
18364SOL     OW57983   1.144   0.504   6.583 -0.3818  0.1092 -0.7917
18364SOL    HW157984   1.134   0.532   6.492 -1.1810  1.4080 -0.3331
18364SOL    HW257985   1.106   0.417   6.586  1.1603 -0.6610 -2.0397
18365SOL     OW57986   1.992   5.364   2.978 -0.1125 -0.4052 -0.4499
18365SOL    HW157987   2.033   5.449   2.962  1.4033 -1.5078 -3.1374
18365SOL    HW257988   1.901   5.376   2.948 -0.0394  0.3958 -0.3704
18366SOL     OW57989   5.617   7.992   5.623  0.0882 -0.3959 -0.3465
18366SOL    HW157990   5.555   8.004   5.551  0.8113  0.3793 -0.8661
18366SOL    HW257991   5.563   7.966   5.697 -0.6437 -1.5199 -1.2370
18367SOL     OW57992   8.304   4.211   6.671  0.2059  0.0422 -0.2333
18367SOL    HW157993   8.358   4.170   6.738  2.2256 -0.5176 -2.0682
18367SOL    HW257994   8.241   4.144   6.646  0.5353 -0.3359 -0.0489
18368SOL     OW57995   1.275   3.975   6.785 -0.3746  0.6215 -0.5770
18368SOL    HW157996   1.253   3.967   6.878 -0.0138 -0.0574 -0.5435
18368SOL    HW257997   1.310   4.064   6.777 -3.5294  1.9646 -0.7502
18369SOL     OW57998   0.571   8.157   6.296 -0.0037 -0.2269  0.2923
18369SOL    HW157999   0.490   8.143   6.345 -1.9803  0.2016 -2.5450
18369SOL    HW258000   0.580   8.078   6.242  2.2003 -0.7911  1.3885
18370SOL     OW58001   0.247   1.376   8.502  0.0168  0.2270  0.2809
18370SOL    HW158002   0.250   1.436   8.427  0.1321 -0.1695 -0.0357
18370SOL    HW258003   0.334   1.335   8.502 -0.0684  0.0485  0.4886
18371SOL     OW58004   6.688   4.945   5.789  0.2954  0.0712 -0.7430
18371SOL    HW158005   6.754   4.889   5.830 -0.9783  0.0969  1.5342
18371SOL    HW258006   6.707   5.032   5.824 -0.6663  0.1473 -0.3893
18372SOL     OW58007   1.600   3.283   1.129  0.4550 -0.7192  0.2021
18372SOL    HW158008   1.572   3.192   1.117  2.0787 -1.5281  1.9696
18372SOL    HW258009   1.696   3.279   1.119  0.4810  0.9730 -0.5333
18373SOL     OW58010   4.132   2.447   5.899 -0.2187  0.0230 -0.3427
18373SOL    HW158011   4.079   2.394   5.840  1.8786 -1.4180 -1.0803
18373SOL    HW258012   4.126   2.403   5.984  0.9115 -1.0447 -0.7781
18374SOL     OW58013   9.017   9.032   6.344  0.5819 -0.5174 -0.0859
18374SOL    HW158014   9.075   9.056   6.415 -0.6338 -0.0474  0.7865
18374SOL    HW258015   9.013   8.936   6.346  2.0324 -0.6119 -0.7690
18375SOL     OW58016   2.165   0.360   4.769 -0.3095 -0.1328  0.1529
18375SOL    HW158017   2.191   0.441   4.725  0.2944 -0.3882  0.0253
18375SOL    HW258018   2.246   0.308   4.773 -0.4255 -0.2523  1.2569
18376SOL     OW58019   0.692   8.392   6.369 -0.2571 -0.1440 -0.1418
18376SOL    HW158020   0.628   8.326   6.340 -3.0202  2.6450 -0.9798
18376SOL    HW258021   0.699   8.378   6.464 -1.8182 -0.8208 -0.0922
18377SOL     OW58022   5.406   2.001   9.019 -0.4615 -0.1605 -0.5281
18377SOL    HW158023   5.448   2.079   8.984 -0.8243  1.0646  1.5720
18377SOL    HW258024   5.461   1.928   8.989  1.0325  1.0707 -0.9049
18378SOL     OW58025   6.432   2.855   8.448  0.3358 -0.8462  0.2853
18378SOL    HW158026   6.411   2.817   8.533 -0.2682 -2.2462 -0.4694
18378SOL    HW258027   6.514   2.904   8.463  0.9224 -2.1176  1.3782
18379SOL     OW58028   4.094   8.333   6.481 -0.0768 -0.3511 -0.4053
18379SOL    HW158029   4.070   8.370   6.396 -0.1607 -1.3218 -0.8270
18379SOL    HW258030   4.181   8.369   6.500 -0.6463  0.9673 -0.2241
18380SOL     OW58031   6.423   1.920   6.786 -0.0488  0.5287 -0.4030
18380SOL    HW158032   6.469   1.841   6.816  0.6647  0.7923 -0.7681
18380SOL    HW258033   6.375   1.951   6.863 -1.2659 -0.8984 -0.5538
18381SOL     OW58034   4.833   6.354   1.658  0.1074  0.5382 -1.0033
18381SOL    HW158035   4.921   6.387   1.641  0.0518  1.2539  0.0453
18381SOL    HW258036   4.807   6.395   1.740 -0.4865 -1.1066 -0.3216
18382SOL     OW58037   8.208   3.121   4.069 -0.1735  0.1428 -0.1317
18382SOL    HW158038   8.296   3.103   4.036  1.1914  1.5240  2.4294
18382SOL    HW258039   8.177   3.036   4.101  0.6578 -0.1931 -0.1677
18383SOL     OW58040   2.120   6.424   8.589  0.3415 -0.0349  0.1166
18383SOL    HW158041   2.169   6.434   8.507  2.3665 -1.9051  1.0139
18383SOL    HW258042   2.049   6.364   8.567 -0.4521  1.1426 -0.7145
18384SOL     OW58043   8.417   1.291   4.991  0.2631 -0.3865 -0.2190
18384SOL    HW158044   8.352   1.358   4.968 -1.2224 -1.8193 -0.4321
18384SOL    HW258045   8.466   1.276   4.910 -0.2813 -0.4588 -0.5457
18385SOL     OW58046   6.138   7.297   1.530 -0.0435  0.0112 -0.2360
18385SOL    HW158047   6.156   7.371   1.587  0.8294 -2.1020  2.4656
18385SOL    HW258048   6.221   7.277   1.488  0.4977 -1.0483  1.2263
18386SOL     OW58049   6.258   4.266   6.636  0.1042  0.5354  0.2896
18386SOL    HW158050   6.330   4.321   6.669  1.0191 -0.6463  0.3413
18386SOL    HW258051   6.193   4.266   6.706  0.3344  1.1060  0.5097
18387SOL     OW58052   8.733   8.040   5.892 -0.1304  0.5147 -0.1480
18387SOL    HW158053   8.784   7.960   5.906  0.2166  0.7711  0.0365
18387SOL    HW258054   8.664   8.036   5.959 -1.4869 -0.7400 -1.5174
18388SOL     OW58055   0.043   1.226   2.546 -0.1434  0.0634  0.1704
18388SOL    HW158056  -0.026   1.253   2.606  0.2487 -1.0168  1.1454
18388SOL    HW258057   0.031   1.131   2.536 -0.9530  0.3432 -2.4579
18389SOL     OW58058   7.105   0.774   5.679  0.0531  0.4265 -0.0463
18389SOL    HW158059   7.114   0.864   5.710 -0.6202  0.6161 -0.3927
18389SOL    HW258060   7.195   0.745   5.665  0.2556  1.2095 -0.4023
18390SOL     OW58061   2.534   8.825   5.660 -0.4102  0.1797 -0.0056
18390SOL    HW158062   2.542   8.829   5.755 -0.4058 -3.3332  0.2605
18390SOL    HW258063   2.451   8.780   5.645  1.3711 -2.9331 -1.4418
18391SOL     OW58064   4.348   3.214   5.731  0.0202  0.0198  1.0119
18391SOL    HW158065   4.317   3.127   5.755 -1.5887  0.2864  0.0373
18391SOL    HW258066   4.281   3.273   5.767 -0.3538  0.6614 -0.6619
18392SOL     OW58067   7.562   6.571   5.069  0.6566 -0.1305 -0.5241
18392SOL    HW158068   7.653   6.577   5.096  0.2448  0.7179  0.8407
18392SOL    HW258069   7.513   6.561   5.152 -0.5796  1.0521 -1.0653
18393SOL     OW58070   4.050   6.926   4.242  0.3047  0.3067  0.5790
18393SOL    HW158071   4.103   6.995   4.284 -1.3263  2.2767 -0.4697
18393SOL    HW258072   3.968   6.927   4.291 -0.4888  0.5444 -0.7324
18394SOL     OW58073   0.504   4.782   4.900  0.7450 -0.1016  0.6009
18394SOL    HW158074   0.527   4.694   4.871  2.3940  0.3177  0.4859
18394SOL    HW258075   0.570   4.838   4.858 -1.7846  1.5641 -1.5512
18395SOL     OW58076   8.492   6.843   3.457  1.0255  0.0024 -0.0469
18395SOL    HW158077   8.564   6.893   3.418  1.3314  0.2542  0.8283
18395SOL    HW258078   8.534   6.782   3.517  0.6940 -1.6408 -1.4003
18396SOL     OW58079   7.497   5.319   8.837  0.3592  0.1434 -0.4695
18396SOL    HW158080   7.581   5.355   8.865 -0.4894  0.5815  1.7562
18396SOL    HW258081   7.478   5.361   8.753  2.2641  0.1426 -0.9279
18397SOL     OW58082   5.479   7.933   0.035  0.6188  0.1057  0.1208
18397SOL    HW158083   5.508   7.842   0.026 -0.2997 -0.0818 -1.4501
18397SOL    HW258084   5.556   7.985   0.011  0.8411 -0.2963 -0.0507
18398SOL     OW58085   4.798   1.177   5.979 -0.2321 -0.3589 -0.0884
18398SOL    HW158086   4.813   1.129   6.061  0.4627 -1.5397 -0.8738
18398SOL    HW258087   4.804   1.110   5.911  0.5129  0.8196 -1.2193
18399SOL     OW58088   1.073   4.747   4.874 -0.2522  1.0207  0.1529
18399SOL    HW158089   1.093   4.764   4.782  1.6576 -1.1087  0.0895
18399SOL    HW258090   1.141   4.792   4.923 -0.0510  0.4767  0.3909
18400SOL     OW58091   7.446   6.087   3.882  0.5143  0.4471  0.4153
18400SOL    HW158092   7.500   6.154   3.839  1.1579 -0.6525 -0.5390
18400SOL    HW258093   7.357   6.121   3.877  0.3617 -0.1146 -2.8928
18401SOL     OW58094   5.829   0.813   1.318 -0.4450 -0.0436 -0.0666
18401SOL    HW158095   5.904   0.753   1.313 -1.0823 -0.8783  0.2154
18401SOL    HW258096   5.795   0.801   1.407  0.2487  1.7677  0.4800
18402SOL     OW58097   0.114   0.190   1.861 -0.4428  0.3446  0.0117
18402SOL    HW158098   0.204   0.157   1.855 -0.3708  0.2064  1.6315
18402SOL    HW258099   0.121   0.283   1.839 -0.0923  0.1110 -0.9410
18403SOL     OW58100   9.186   6.206   4.651 -0.0955 -0.2580 -0.0575
18403SOL    HW158101   9.147   6.242   4.731 -0.6278  0.7276 -0.7368
18403SOL    HW258102   9.274   6.241   4.649  0.1142 -0.7503  0.3847
18404SOL     OW58103   8.809   3.523   6.576  0.7585  0.2337 -0.3953
18404SOL    HW158104   8.757   3.443   6.577  0.2378  0.4756 -2.4762
18404SOL    HW258105   8.878   3.509   6.640 -1.0299 -0.6661  1.4430
18405SOL     OW58106   7.324   8.984   6.941  0.1226  0.6390 -0.2303
18405SOL    HW158107   7.366   9.069   6.955 -0.6830  1.1630 -0.8970
18405SOL    HW258108   7.276   8.994   6.859  1.1077 -0.8990 -1.0380
18406SOL     OW58109   6.223   7.026   8.963  0.1895 -0.8777 -0.2620
18406SOL    HW158110   6.168   6.963   8.915 -0.0851 -1.1132  0.3489
18406SOL    HW258111   6.265   6.973   9.031 -1.0001 -0.1930  1.0538
18407SOL     OW58112   5.613   9.158   7.839  0.3869 -0.3081 -0.4369
18407SOL    HW158113   5.659   9.078   7.867 -1.8327 -1.6213 -0.3219
18407SOL    HW258114   5.537   9.126   7.792  0.1454  1.8070 -1.5788
18408SOL     OW58115   1.793   1.844   5.439 -0.4537 -0.2612  0.4335
18408SOL    HW158116   1.742   1.876   5.513 -0.4104 -1.1914  0.8656
18408SOL    HW258117   1.729   1.809   5.378 -0.3052 -2.2717  1.3789
18409SOL     OW58118   2.450   0.452   8.188  0.0718 -0.1630 -0.2357
18409SOL    HW158119   2.383   0.428   8.253 -0.0053 -0.3168 -0.3714
18409SOL    HW258120   2.518   0.385   8.198  0.5433  0.4099  0.3997
18410SOL     OW58121   6.707   6.342   2.306  0.1483  0.4728  0.0467
18410SOL    HW158122   6.633   6.371   2.252 -0.6571  0.8660  1.2985
18410SOL    HW258123   6.678   6.259   2.342  0.5037  0.4162  0.2009
18411SOL     OW58124   3.717   4.170   2.199 -0.4142  0.1510  0.1668
18411SOL    HW158125   3.771   4.164   2.278 -1.1874 -1.6099  0.6093
18411SOL    HW258126   3.627   4.168   2.232 -0.8275  2.7415 -0.5741
18412SOL     OW58127   4.095   6.410   8.272  0.3655  0.0394 -0.7700
18412SOL    HW158128   4.106   6.352   8.196 -0.5272 -0.6951 -0.3580
18412SOL    HW258129   4.049   6.486   8.237  1.6042  0.5648 -1.3285
18413SOL     OW58130   5.575   3.476   4.970 -0.3487 -0.5581  0.5410
18413SOL    HW158131   5.523   3.480   5.050 -1.6119 -1.1219 -0.2237
18413SOL    HW258132   5.514   3.447   4.902  0.8391 -0.7342 -0.5065
18414SOL     OW58133   6.142   5.582   6.093  0.1276 -0.1128 -0.2069
18414SOL    HW158134   6.077   5.585   6.163 -0.3155  1.4754 -0.6416
18414SOL    HW258135   6.136   5.668   6.050 -0.3327 -1.3599 -2.8474
18415SOL     OW58136   8.870   3.190   1.886 -0.4298  0.2926 -0.4596
18415SOL    HW158137   8.943   3.235   1.928 -0.1572  0.5517 -1.1987
18415SOL    HW258138   8.847   3.119   1.947  0.5641  0.0895 -0.3060
18416SOL     OW58139   2.303   7.938   6.494  0.4664  0.2408  0.0571
18416SOL    HW158140   2.335   7.848   6.488 -1.0443 -0.3539  0.4181
18416SOL    HW258141   2.330   7.978   6.411  2.2281 -0.1472  0.3985
18417SOL     OW58142   1.283   0.288   2.817  0.4775  0.5008 -0.0535
18417SOL    HW158143   1.224   0.252   2.883  0.3187  0.5609 -0.1630
18417SOL    HW258144   1.294   0.380   2.843 -0.4236  0.8037 -0.7076
18418SOL     OW58145   6.523   0.807   4.993  0.2337 -0.7366  0.0986
18418SOL    HW158146   6.559   0.769   4.913 -1.6973  0.6605 -1.5341
18418SOL    HW258147   6.599   0.849   5.035  1.2948 -1.4937 -0.9883
18419SOL     OW58148   2.964   1.137   6.317 -0.6199  0.6165  0.1888
18419SOL    HW158149   2.869   1.135   6.307 -0.7602 -1.9363  1.1755
18419SOL    HW258150   2.997   1.147   6.227 -1.7591  2.7829 -0.0483
18420SOL     OW58151   4.353   0.424   3.523 -0.0072  0.1499  0.2242
18420SOL    HW158152   4.285   0.483   3.555 -1.6702 -0.3540 -2.1087
18420SOL    HW258153   4.354   0.352   3.586 -1.5001  0.2937  0.4549
18421SOL     OW58154   7.901   9.025   5.731 -0.3951 -0.4000  0.0054
18421SOL    HW158155   7.841   9.039   5.805  1.8457  0.9636  1.6687
18421SOL    HW258156   7.926   8.933   5.739 -0.3781 -0.3396  0.8021
18422SOL     OW58157   6.311   0.928   7.232 -0.5095  0.0299  0.2914
18422SOL    HW158158   6.241   0.880   7.275 -0.8949  1.8324  1.8109
18422SOL    HW258159   6.391   0.880   7.254 -1.0813 -1.1001 -0.0530
18423SOL     OW58160   1.306   2.133   6.604 -0.7568 -0.3911 -0.0894
18423SOL    HW158161   1.352   2.126   6.688  0.6957 -1.0355 -0.9028
18423SOL    HW258162   1.316   2.225   6.578  2.2633 -0.9564 -1.3754
18424SOL     OW58163   1.644   1.980   7.675  0.1384 -0.7965 -0.2129
18424SOL    HW158164   1.557   2.019   7.671  0.8814  0.8396 -0.8964
18424SOL    HW258165   1.669   1.965   7.584  0.4318 -1.6484 -0.0116
18425SOL     OW58166   3.107   6.610   1.882 -0.0575 -0.3532  0.3151
18425SOL    HW158167   3.147   6.552   1.946  1.7136  0.8998  0.4267
18425SOL    HW258168   3.125   6.698   1.915  1.2374  0.3548 -2.0230
18426SOL     OW58169   1.288   8.620   9.235 -0.1121  0.5805 -0.3597
18426SOL    HW158170   1.242   8.702   9.214  0.1161  0.5984 -0.8035
18426SOL    HW258171   1.381   8.644   9.234 -0.1087  0.7048  1.2634
18427SOL     OW58172   3.865   7.747   2.673  0.2099 -0.6388 -0.3500
18427SOL    HW158173   3.787   7.754   2.728  0.6020 -1.6784  0.3804
18427SOL    HW258174   3.833   7.719   2.588 -0.3267  0.1560 -0.4147
18428SOL     OW58175   8.923   8.251   9.201 -0.0700  0.4274  0.2340
18428SOL    HW158176   8.992   8.200   9.158  1.9463  1.8959  1.5414
18428SOL    HW258177   8.853   8.255   9.136  1.2666 -0.7111 -1.3781
18429SOL     OW58178   6.729   3.587   0.419 -0.1290  0.0566  0.4905
18429SOL    HW158179   6.747   3.681   0.422  0.1474  0.1500 -2.0990
18429SOL    HW258180   6.636   3.579   0.440 -0.0894  0.8626  0.9969
18430SOL     OW58181   2.721   4.816   4.216  0.2177 -0.4402  0.0630
18430SOL    HW158182   2.742   4.893   4.162 -2.1719  1.0361  1.0525
18430SOL    HW258183   2.789   4.815   4.283  1.1958 -0.1774 -0.8871
18431SOL     OW58184   8.795   8.998   4.973 -0.0924  0.1730  0.2936
18431SOL    HW158185   8.702   9.019   4.969 -0.1520 -0.2584 -0.7772
18431SOL    HW258186   8.838   9.072   4.929  0.2680  1.3736  2.5128
18432SOL     OW58187   0.706   6.955   1.717 -0.2956  0.1951  0.5977
18432SOL    HW158188   0.652   6.876   1.723  0.2019 -0.1677  0.3664
18432SOL    HW258189   0.777   6.941   1.779 -0.7465  0.9051  1.2956
18433SOL     OW58190   8.063   7.248   2.484  0.5041  0.2150 -0.0332
18433SOL    HW158191   8.145   7.274   2.524  0.5078  0.0593  0.0611
18433SOL    HW258192   8.070   7.153   2.474  1.1322  0.4075 -1.7949
18434SOL     OW58193   6.159   0.467   4.030 -0.1456  0.2521 -0.8763
18434SOL    HW158194   6.215   0.403   3.986 -0.1250 -0.0140 -0.4743
18434SOL    HW258195   6.098   0.497   3.963 -0.4936 -0.5784 -0.9323
18435SOL     OW58196   7.243   6.421   8.732  0.4986  0.0077 -0.1223
18435SOL    HW158197   7.295   6.346   8.702  2.2056  0.2065  2.1066
18435SOL    HW258198   7.265   6.491   8.671  2.4768 -0.0840  0.4044
18436SOL     OW58199   9.193   8.467   0.811  0.4982  0.0701  0.1768
18436SOL    HW158200   9.199   8.531   0.740 -1.2380  0.1730  0.0682
18436SOL    HW258201   9.117   8.495   0.863 -0.9506 -2.3531 -0.4158
18437SOL     OW58202   1.876   3.100   2.823  0.5460  0.0489 -0.5076
18437SOL    HW158203   1.956   3.061   2.787  1.1623  1.7207 -1.0403
18437SOL    HW258204   1.812   3.093   2.753  1.3750  2.1444 -1.5530
18438SOL     OW58205   2.754   5.346   6.588 -0.4200 -0.2054  0.6105
18438SOL    HW158206   2.842   5.352   6.550  0.3498 -0.3227  2.2930
18438SOL    HW258207   2.754   5.411   6.658 -1.3817 -0.8072  1.1851
18439SOL     OW58208   2.534   5.528   2.150  0.6315  0.3450  0.1117
18439SOL    HW158209   2.601   5.567   2.205  1.5424  0.0553 -0.7618
18439SOL    HW258210   2.540   5.434   2.168  0.1859  0.3581  0.3295
18440SOL     OW58211   1.444   8.504   6.415  0.7577  0.1222 -0.0482
18440SOL    HW158212   1.408   8.519   6.328 -3.6274  0.5686  1.5828
18440SOL    HW258213   1.464   8.410   6.417 -1.8168 -0.5271 -0.7809
18441SOL     OW58214   4.787   8.089   0.952 -0.0655 -0.2334  0.3061
18441SOL    HW158215   4.810   8.112   0.862 -0.0905  1.5150  0.7040
18441SOL    HW258216   4.796   8.171   1.001  1.7179 -1.4777  2.2815
18442SOL     OW58217   3.185   8.503   7.343 -0.3695 -0.2703 -0.2293
18442SOL    HW158218   3.127   8.465   7.409 -0.3077 -1.5234 -0.8587
18442SOL    HW258219   3.137   8.578   7.308  0.3409  1.5849  2.4683
18443SOL     OW58220   9.237   9.113   6.184 -0.5417 -0.1868  0.1143
18443SOL    HW158221   9.255   9.203   6.211  0.1699  0.3785 -2.0222
18443SOL    HW258222   9.177   9.079   6.250  1.2517  0.9448  2.4677
18444SOL     OW58223   4.690   0.135   2.785  0.1442 -1.0015  0.4300
18444SOL    HW158224   4.710   0.056   2.735  2.2485 -0.8966  1.0473
18444SOL    HW258225   4.712   0.208   2.726  1.1482 -0.8830  0.9404
18445SOL     OW58226   2.459   4.746   6.291 -0.3567 -0.3783 -0.3141
18445SOL    HW158227   2.376   4.724   6.250 -0.1253  0.4466 -1.2696
18445SOL    HW258228   2.451   4.839   6.312  0.1324 -0.4159  0.0673
18446SOL     OW58229   8.810   3.795   4.529 -0.0430  0.2194 -0.1803
18446SOL    HW158230   8.863   3.715   4.534  0.5263  0.5536 -0.6314
18446SOL    HW258231   8.848   3.843   4.455 -0.3291  0.9391  0.1361
18447SOL     OW58232   6.744   3.963   8.035 -0.4416  0.7415  0.1187
18447SOL    HW158233   6.783   4.049   8.047 -1.6923  1.4047 -0.3791
18447SOL    HW258234   6.732   3.930   8.124  0.3559  0.9209  0.3034
18448SOL     OW58235   4.693   2.047   1.352  0.1784  0.7421 -0.0412
18448SOL    HW158236   4.657   1.983   1.291 -0.1641  0.8703  0.0247
18448SOL    HW258237   4.787   2.026   1.356  0.2108  0.7607 -0.6374
18449SOL     OW58238   6.956   2.322   5.069  0.0418  0.1224 -0.6556
18449SOL    HW158239   7.037   2.357   5.034  0.3767 -0.6752 -0.7071
18449SOL    HW258240   6.982   2.238   5.109 -0.5613  0.3689  0.2756
18450SOL     OW58241   0.059   0.506   0.787 -0.1604  0.9375 -0.0063
18450SOL    HW158242   0.100   0.420   0.792  0.3411  1.2267  1.6092
18450SOL    HW258243   0.011   0.506   0.705  0.5942 -0.5392 -0.4707
18451SOL     OW58244   7.625   1.515   2.446 -0.1522  0.4712 -0.0678
18451SOL    HW158245   7.702   1.567   2.470 -1.6993  2.3463  1.1764
18451SOL    HW258246   7.599   1.472   2.527 -0.4239 -0.1506 -0.4765
18452SOL     OW58247   0.738   9.137   7.183 -0.3047  0.3447 -0.3978
18452SOL    HW158248   0.714   9.123   7.275  0.8964  0.4695 -0.0446
18452SOL    HW258249   0.655   9.152   7.139 -0.9951 -0.6111  0.5059
18453SOL     OW58250   6.778   6.562   7.180  0.1329  0.1988  0.1963
18453SOL    HW158251   6.749   6.488   7.233 -1.1639  1.7864  1.8102
18453SOL    HW258252   6.705   6.580   7.121  0.7032 -0.1753 -0.6502
18454SOL     OW58253   8.199   1.436   8.642 -0.2939  0.5691 -0.9533
18454SOL    HW158254   8.263   1.382   8.689 -0.5897 -0.3034 -1.5265
18454SOL    HW258255   8.131   1.453   8.707 -0.3768 -0.0670 -0.8642
18455SOL     OW58256   2.889   5.391   2.557  0.0892 -0.6398 -0.0018
18455SOL    HW158257   2.930   5.305   2.559  0.4940 -0.4391  0.5328
18455SOL    HW258258   2.948   5.448   2.606  0.3124  0.1722 -1.1721
18456SOL     OW58259   4.764   7.901   0.082  0.4015 -0.3706 -0.0132
18456SOL    HW158260   4.751   7.995   0.081  0.1691 -0.3544  1.5686
18456SOL    HW258261   4.769   7.876  -0.010 -2.7401  0.7443 -0.6012
18457SOL     OW58262   3.130   7.992   6.136  0.1970 -0.1001 -0.4790
18457SOL    HW158263   3.054   7.934   6.130  0.3892 -0.2880 -1.1976
18457SOL    HW258264   3.184   7.968   6.061  1.3806 -0.5349  0.4825
18458SOL     OW58265   6.467   2.256   2.873  0.8059 -0.0061 -0.2535
18458SOL    HW158266   6.503   2.333   2.919  0.8336  0.4727 -1.0555
18458SOL    HW258267   6.446   2.289   2.785 -3.2784  0.2439  0.6232
18459SOL     OW58268   6.118   7.967   8.618  0.2006  0.5473  0.6301
18459SOL    HW158269   6.111   8.057   8.586 -0.0817  0.2093 -0.3208
18459SOL    HW258270   6.166   7.921   8.549 -1.1350 -0.3898  0.2808
18460SOL     OW58271   4.111   3.917   1.197 -0.8525 -0.0190 -0.6393
18460SOL    HW158272   4.027   3.880   1.226 -0.2905 -1.7616 -1.0956
18460SOL    HW258273   4.110   3.908   1.102  0.5824 -1.8728 -0.5476
18461SOL     OW58274   2.976   3.266   0.730  0.5589  0.0334  0.3362
18461SOL    HW158275   2.957   3.252   0.637  0.0804  0.7627  0.3131
18461SOL    HW258276   3.023   3.187   0.757 -1.0951 -1.1481 -0.0240
18462SOL     OW58277   9.166   3.855   9.008 -0.4192 -0.0697 -0.4678
18462SOL    HW158278   9.208   3.941   9.001 -2.5491  1.1513  0.6228
18462SOL    HW258279   9.140   3.849   9.100 -0.6139 -1.7653 -0.5983
18463SOL     OW58280   1.855   0.449   2.481  0.1945  0.1787  0.3258
18463SOL    HW158281   1.846   0.354   2.471  1.2576  0.1830 -0.9472
18463SOL    HW258282   1.880   0.461   2.573  0.2866 -0.7991  0.4367
18464SOL     OW58283   5.511   6.741   3.689  0.3452 -0.4504  0.0858
18464SOL    HW158284   5.597   6.772   3.659  0.5751  1.1321  2.1317
18464SOL    HW258285   5.450   6.811   3.665 -0.2166 -1.1211 -0.4787
18465SOL     OW58286   6.375   5.282   3.983 -0.0113  0.0132  0.2113
18465SOL    HW158287   6.339   5.293   4.071 -1.3057 -1.5814 -0.0772
18465SOL    HW258288   6.444   5.216   3.994  0.1048  0.1100  0.0789
18466SOL     OW58289   1.739   1.980   2.570 -0.1157 -0.8608 -0.0089
18466SOL    HW158290   1.783   2.006   2.488  0.2503  2.2953  1.0470
18466SOL    HW258291   1.801   1.922   2.613  1.3812  0.4374 -0.3238
18467SOL     OW58292   0.508   3.136   7.495  0.1090 -0.3144  0.3759
18467SOL    HW158293   0.458   3.196   7.550  0.1368 -0.3087  0.3953
18467SOL    HW258294   0.574   3.099   7.554  0.4850  0.0928  0.2210
18468SOL     OW58295   0.161   3.874   2.202  0.2970  0.1530 -0.0196
18468SOL    HW158296   0.073   3.849   2.174 -0.0118 -1.4494  2.1221
18468SOL    HW258297   0.204   3.906   2.122 -2.0422  0.5149 -1.2037
18469SOL     OW58298   0.526   4.822   3.815 -0.2115  0.2931 -0.0889
18469SOL    HW158299   0.449   4.815   3.758 -0.4907  2.2898 -0.0627
18469SOL    HW258300   0.498   4.882   3.884  1.3512  1.0893 -0.0913
18470SOL     OW58301   4.819   4.481   6.737 -0.7415 -0.2302 -0.1715
18470SOL    HW158302   4.869   4.519   6.810 -1.9829 -1.2013  1.2411
18470SOL    HW258303   4.741   4.536   6.730 -1.3905 -1.0663  0.3089
18471SOL     OW58304   6.882   8.478   4.766  0.0811  0.2527 -0.1547
18471SOL    HW158305   6.914   8.433   4.844 -0.4158 -1.3012 -0.8091
18471SOL    HW258306   6.842   8.558   4.799  2.9516  1.4063  0.8517
18472SOL     OW58307   8.997   3.444   1.601  0.1672 -0.1087  0.1406
18472SOL    HW158308   8.913   3.417   1.638 -0.7190 -1.2485 -2.4909
18472SOL    HW258309   9.049   3.364   1.598 -0.3602 -0.4139 -2.4202
18473SOL     OW58310   6.238   6.281   3.726  0.6805 -0.1641  0.3198
18473SOL    HW158311   6.226   6.291   3.632 -0.2056 -0.0887  0.4296
18473SOL    HW258312   6.251   6.187   3.739 -1.3104 -0.4957  0.3084
18474SOL     OW58313   5.597   8.764   0.365 -0.3784 -0.2552 -0.7569
18474SOL    HW158314   5.561   8.845   0.329 -0.4482 -0.7769 -1.9235
18474SOL    HW258315   5.526   8.700   0.358 -0.5193 -0.2967  0.6987
18475SOL     OW58316   1.202   4.461   3.773  0.4323  0.5498 -0.1966
18475SOL    HW158317   1.250   4.397   3.825  0.2262  0.6108  0.0728
18475SOL    HW258318   1.152   4.408   3.710  2.5736  0.5494 -2.0395
18476SOL     OW58319   5.693   5.282   5.910 -0.0332  0.3580 -0.4885
18476SOL    HW158320   5.626   5.336   5.951 -0.3831 -0.3885 -0.0708
18476SOL    HW258321   5.650   5.243   5.834 -0.3271 -0.7268  0.2059
18477SOL     OW58322   5.888   1.922   0.514 -0.5504  0.2820  0.1070
18477SOL    HW158323   5.922   1.919   0.424  0.8820  0.6452  0.6095
18477SOL    HW258324   5.926   2.001   0.552 -0.8592 -0.0422  1.1385
18478SOL     OW58325   7.904   6.525   4.512 -0.1930 -0.2092  0.5346
18478SOL    HW158326   7.909   6.609   4.466  2.5898 -0.8066 -0.4229
18478SOL    HW258327   7.843   6.472   4.459 -0.5523  0.5906  0.1345
18479SOL     OW58328   4.458   8.475   1.353  0.1701  0.7559  0.6531
18479SOL    HW158329   4.500   8.390   1.339  0.2156  1.0019 -0.8077
18479SOL    HW258330   4.397   8.459   1.425 -0.0981 -0.6168  0.1660
18480SOL     OW58331   7.840   2.868   3.123  0.6110 -0.0711 -0.4914
18480SOL    HW158332   7.903   2.801   3.148 -0.9963 -1.2799  0.5099
18480SOL    HW258333   7.830   2.922   3.201  0.1664 -0.0648 -0.5530
18481SOL     OW58334   1.152   9.159   2.392 -0.1667  0.1023 -0.3766
18481SOL    HW158335   1.245   9.180   2.380  0.2092 -0.9957  0.3827
18481SOL    HW258336   1.115   9.236   2.435  1.6142 -1.2781  4.2782
18482SOL     OW58337   3.290   0.340   3.094  0.1632  0.3401 -0.1090
18482SOL    HW158338   3.365   0.281   3.082 -0.2571  0.0712 -1.6961
18482SOL    HW258339   3.223   0.284   3.134  0.1487  0.0249 -0.5569
18483SOL     OW58340   3.315   6.235   7.146 -0.9544  0.1324  0.1591
18483SOL    HW158341   3.265   6.317   7.142 -1.6685 -0.2806  0.4299
18483SOL    HW258342   3.388   6.254   7.205 -0.1450  1.0731 -1.0931
18484SOL     OW58343   3.498   5.264   4.015 -0.1900 -0.2571  0.0275
18484SOL    HW158344   3.445   5.267   4.095  0.8222 -0.8278  0.7566
18484SOL    HW258345   3.574   5.319   4.036 -0.1080 -0.0854 -0.7052
18485SOL     OW58346   6.957   4.672   8.493 -0.0862  0.0273  0.1243
18485SOL    HW158347   6.880   4.715   8.529  1.3630  1.0812  2.1998
18485SOL    HW258348   6.950   4.581   8.522 -0.8711 -0.0676 -0.3317
18486SOL     OW58349   7.878   3.404   2.737 -0.1297 -0.4391 -0.6710
18486SOL    HW158350   7.837   3.419   2.652 -1.8194 -0.6219  0.0622
18486SOL    HW258351   7.806   3.373   2.793  0.4921  1.4706  1.3417
18487SOL     OW58352   7.403   6.319   2.056 -0.3285  0.7351 -0.3083
18487SOL    HW158353   7.482   6.344   2.105 -0.4336  0.7964 -0.1688
18487SOL    HW258354   7.427   6.238   2.012 -0.1562  0.8033 -0.3418
18488SOL     OW58355   2.704   0.957   7.147 -0.0618 -0.1311 -0.1959
18488SOL    HW158356   2.682   0.971   7.239 -1.1461 -1.5695 -0.1989
18488SOL    HW258357   2.623   0.975   7.100  0.1667 -0.5022 -0.7410
18489SOL     OW58358   6.341   4.997   4.752 -0.4628  0.1822  0.0893
18489SOL    HW158359   6.274   4.935   4.781 -0.1536 -0.0722  0.2625
18489SOL    HW258360   6.416   4.980   4.809  0.7427 -1.4345 -1.8676
18490SOL     OW58361   7.247   9.044   5.269 -0.1960 -0.0787 -0.1434
18490SOL    HW158362   7.160   9.079   5.249 -0.9246 -1.0696  1.1963
18490SOL    HW258363   7.236   8.998   5.352  1.3652 -1.1670 -0.5129
18491SOL     OW58364   5.917   9.213   1.385 -0.6126 -0.5150 -0.2822
18491SOL    HW158365   5.961   9.272   1.446  0.0368 -2.0753  0.7986
18491SOL    HW258366   5.896   9.269   1.309  2.4392  0.5189 -0.5022
18492SOL     OW58367   0.563   7.835   7.964 -0.1597  0.7134 -0.0498
18492SOL    HW158368   0.552   7.807   7.873 -1.1548 -1.5623  0.6838
18492SOL    HW258369   0.501   7.907   7.975 -0.7346  0.3717 -0.9396
18493SOL     OW58370   7.077   1.383   9.233 -0.5732  0.4461 -0.0556
18493SOL    HW158371   7.119   1.327   9.167 -3.8116  0.3263 -2.2574
18493SOL    HW258372   7.146   1.443   9.262  2.1527 -2.3871 -0.1344
18494SOL     OW58373   1.244   8.138   0.514 -0.2214  0.7378  0.4373
18494SOL    HW158374   1.247   8.044   0.496 -1.7380  0.8780 -0.7447
18494SOL    HW258375   1.200   8.144   0.599 -1.1710  0.3926 -0.0081
18495SOL     OW58376   1.917   7.911   3.552 -0.5279  0.1008  0.4443
18495SOL    HW158377   1.956   7.891   3.466  0.0990 -0.1303  0.7774
18495SOL    HW258378   1.865   7.990   3.536  0.5837  0.7981  0.1206
18496SOL     OW58379   8.646   3.595   5.921  0.0074 -0.1253  0.1950
18496SOL    HW158380   8.720   3.651   5.899  0.3050 -0.7266 -0.3919
18496SOL    HW258381   8.674   3.546   5.998  0.5809 -0.9972 -0.5511
18497SOL     OW58382   7.783   5.296   9.105 -0.4242  0.1377  0.6339
18497SOL    HW158383   7.828   5.211   9.103 -0.2761  0.2146  0.6610
18497SOL    HW258384   7.788   5.327   9.014  0.4340  0.5887  0.8201
18498SOL     OW58385   8.843   1.313   7.621 -0.5695  0.2994 -0.5298
18498SOL    HW158386   8.918   1.368   7.599 -0.3165  0.4864  0.6939
18498SOL    HW258387   8.788   1.369   7.676 -0.9520 -0.2490 -0.3461
18499SOL     OW58388   0.666   1.765   8.010 -0.1634  0.0180  0.5612
18499SOL    HW158389   0.730   1.809   8.065  0.3258 -1.2629  1.0740
18499SOL    HW258390   0.607   1.834   7.980  2.8513  1.7159 -1.9840
18500SOL     OW58391   2.046   6.605   2.447 -0.2049 -0.5450 -0.1958
18500SOL    HW158392   2.086   6.686   2.478 -0.5936 -0.8530  1.1741
18500SOL    HW258393   2.047   6.613   2.352  0.4478  0.7317 -0.1038
18501SOL     OW58394   5.464   7.751   2.591  0.1126  0.0920 -0.3249
18501SOL    HW158395   5.556   7.759   2.566  1.0756 -0.7462  2.5989
18501SOL    HW258396   5.449   7.657   2.598 -0.6095  0.2507  0.4126
18502SOL     OW58397   7.657   6.364   4.730  0.0043 -1.0845  0.1726
18502SOL    HW158398   7.734   6.308   4.737 -0.9555 -2.3196  1.3475
18502SOL    HW258399   7.627   6.352   4.640  1.3479 -0.3029 -0.4206
18503SOL     OW58400   1.977   8.622   8.878  0.2675  0.2353 -0.0565
18503SOL    HW158401   1.979   8.564   8.802  1.6490 -0.1235  0.2241
18503SOL    HW258402   1.907   8.587   8.933 -2.3130  1.7823 -2.0845
18504SOL     OW58403   5.005   6.630   5.054  0.3824  0.0022  0.2860
18504SOL    HW158404   5.079   6.630   4.993 -0.5933  1.7313 -0.9905
18504SOL    HW258405   4.942   6.570   5.014  0.1759  0.3042  0.1575
18505SOL     OW58406   7.934   6.925   2.825  0.0506 -0.0913 -0.3302
18505SOL    HW158407   7.890   7.010   2.827 -0.8666 -0.5546  0.0794
18505SOL    HW258408   8.027   6.946   2.821 -0.1983  0.9217 -1.3712
18506SOL     OW58409   0.223   1.821   4.995  0.0613  0.6536  1.0793
18506SOL    HW158410   0.141   1.816   4.944  0.8208 -1.6674 -0.0692
18506SOL    HW258411   0.284   1.865   4.937  0.2154  0.3583  1.0136
18507SOL     OW58412   4.120   3.498   4.186  0.0857 -0.7046 -0.2544
18507SOL    HW158413   4.161   3.484   4.101 -0.5298 -1.9281 -0.3649
18507SOL    HW258414   4.141   3.589   4.208  1.6506 -0.8771 -0.9390
18508SOL     OW58415   2.289   2.300   3.199  0.1644  0.4331  0.5247
18508SOL    HW158416   2.215   2.357   3.221  0.5518  0.6197  1.3525
18508SOL    HW258417   2.284   2.229   3.263  2.3233  1.8817  2.4176
18509SOL     OW58418   7.014   5.417   0.054  0.0190  0.0466 -0.5150
18509SOL    HW158419   6.949   5.413   0.125 -0.9594 -0.0384 -1.3804
18509SOL    HW258420   7.001   5.335   0.006  0.7983  0.0220 -0.6860
18510SOL     OW58421   0.002   3.087   1.829 -0.2424  0.1638 -0.9608
18510SOL    HW158422  -0.041   3.043   1.903 -1.0285 -0.5357 -1.8229
18510SOL    HW258423  -0.007   3.180   1.848 -1.9854  0.0375 -1.0196
18511SOL     OW58424   1.059   4.834   4.616 -0.4820  0.0007 -0.4115
18511SOL    HW158425   1.144   4.820   4.574  0.3630  3.1915 -0.0481
18511SOL    HW258426   0.995   4.807   4.550  0.8404  1.0410 -2.2312
18512SOL     OW58427   3.130   4.562   5.589 -0.1519  0.4020 -0.6531
18512SOL    HW158428   3.202   4.523   5.637 -0.9171  0.0257  0.2296
18512SOL    HW258429   3.142   4.533   5.498  0.1905 -0.5573 -0.3089
18513SOL     OW58430   6.141   7.103   0.478  0.4889 -0.1027 -0.0505
18513SOL    HW158431   6.063   7.150   0.447 -0.1564 -1.9897 -1.4367
18513SOL    HW258432   6.192   7.085   0.400  0.9574 -1.2751  0.4977
18514SOL     OW58433   0.418   7.961   5.856  0.1740  0.4800  0.2512
18514SOL    HW158434   0.402   8.015   5.933  0.6607  0.3124  0.4706
18514SOL    HW258435   0.452   7.878   5.891  3.8864  1.5947 -0.2244
18515SOL     OW58436   6.706   7.821   6.025  0.3179 -0.2281  0.4571
18515SOL    HW158437   6.612   7.832   6.039  0.0159 -1.0325 -0.8362
18515SOL    HW258438   6.729   7.742   6.074  0.1010 -0.6462 -0.1110
18516SOL     OW58439   7.779   6.843   0.572  0.4197 -0.0304  0.3924
18516SOL    HW158440   7.728   6.877   0.498  0.6320  0.8037  0.6142
18516SOL    HW258441   7.787   6.918   0.632 -3.0483 -1.5531  3.1561
18517SOL     OW58442   9.207   7.224   2.699 -0.4143 -0.2157  0.0723
18517SOL    HW158443   9.290   7.250   2.739 -0.5972 -0.4548  0.6088
18517SOL    HW258444   9.178   7.303   2.652 -1.0998  0.7006  1.9205
18518SOL     OW58445   6.642   3.471   8.167  0.0725 -0.2246 -0.0206
18518SOL    HW158446   6.654   3.380   8.138 -1.3739 -0.0757 -1.1580
18518SOL    HW258447   6.730   3.507   8.170  0.5422 -1.2532 -0.9433
18519SOL     OW58448   1.841   8.530   7.772 -0.1865 -0.3107  0.2217
18519SOL    HW158449   1.819   8.613   7.728 -0.4369  0.1660  1.2191
18519SOL    HW258450   1.839   8.465   7.702 -0.4672  0.4474 -0.4958
18520SOL     OW58451   4.628   1.840   9.052 -0.1590  0.1667  0.3555
18520SOL    HW158452   4.687   1.914   9.036  0.4513 -0.3041  0.3766
18520SOL    HW258453   4.685   1.763   9.049 -1.1826 -0.5885 -2.3838
18521SOL     OW58454   4.222   2.366   5.088  0.1181  0.5550  0.4081
18521SOL    HW158455   4.295   2.428   5.091  0.1891  0.5888 -1.3627
18521SOL    HW258456   4.255   2.293   5.036 -0.9640  0.3658 -0.0199
18522SOL     OW58457   5.624   4.977   6.104 -0.1825  0.3306  0.5770
18522SOL    HW158458   5.566   4.927   6.046  0.6420 -0.1747  0.1585
18522SOL    HW258459   5.707   4.982   6.056  0.1268  1.0255  1.1637
18523SOL     OW58460   7.132   5.797   1.607 -0.1715 -0.0962  0.1858
18523SOL    HW158461   7.118   5.872   1.550 -1.5558 -1.1710 -0.9926
18523SOL    HW258462   7.204   5.748   1.566  1.0179  0.7692  1.1870
18524SOL     OW58463   4.211   3.730   3.001  0.2892  0.2555 -0.3753
18524SOL    HW158464   4.127   3.686   3.011  0.5445  0.0194  1.0345
18524SOL    HW258465   4.199   3.816   3.041  0.4103  0.6682 -1.1959
18525SOL     OW58466   3.461   4.423   0.069 -0.1959 -0.9600 -0.2659
18525SOL    HW158467   3.484   4.330   0.061  0.8200 -0.7399  0.0009
18525SOL    HW258468   3.525   4.469   0.015 -2.8359 -0.6148 -3.4718
18526SOL     OW58469   4.921   0.219   7.793 -0.2024 -0.2306 -0.1314
18526SOL    HW158470   5.014   0.215   7.814  0.3963  0.4223 -2.4075
18526SOL    HW258471   4.915   0.188   7.703 -2.3372 -1.0875  0.2415
18527SOL     OW58472   0.931   8.557   1.676  0.0549  0.2946 -0.7911
18527SOL    HW158473   0.892   8.498   1.741 -0.9428  1.3822 -0.3801
18527SOL    HW258474   0.882   8.539   1.596 -1.3905  1.7049 -0.2597
18528SOL     OW58475   8.887   0.517   8.763  0.5628  0.0052 -0.1391
18528SOL    HW158476   8.824   0.538   8.694 -0.0141 -2.2986 -0.3814
18528SOL    HW258477   8.960   0.476   8.719 -0.6452 -3.3185  0.6374
18529SOL     OW58478   8.108   5.569   1.956 -0.0778 -0.1155 -0.2403
18529SOL    HW158479   8.075   5.635   1.895 -1.5427  0.7604  1.4072
18529SOL    HW258480   8.084   5.486   1.916 -1.1286  0.4366 -0.8096
18530SOL     OW58481   5.273   0.437   5.716 -0.3105 -0.2461  0.2882
18530SOL    HW158482   5.207   0.383   5.673 -0.5727 -0.1488  0.5621
18530SOL    HW258483   5.245   0.527   5.700 -0.1442 -0.2021  0.2463
18531SOL     OW58484   4.451   4.471   2.537 -0.3546  0.0422  0.3269
18531SOL    HW158485   4.398   4.516   2.603  0.7246 -0.6472  1.7288
18531SOL    HW258486   4.430   4.378   2.549  1.2219 -0.2562  1.0172
18532SOL     OW58487   1.484   8.187   6.401  0.3735  0.2142  0.4336
18532SOL    HW158488   1.559   8.163   6.347  0.1483  1.5314 -0.5181
18532SOL    HW258489   1.409   8.181   6.343 -0.0358  0.4651  0.9255
18533SOL     OW58490   1.084   2.080   7.617  0.3655  0.2891  0.1661
18533SOL    HW158491   0.998   2.114   7.594 -0.1052 -0.1309  1.2373
18533SOL    HW258492   1.109   2.026   7.542  0.6837  2.1105 -1.1107
18534SOL     OW58493   7.030   1.887   2.177  0.2682  0.0420 -0.2539
18534SOL    HW158494   6.981   1.935   2.110  1.3774  0.8328 -0.5237
18534SOL    HW258495   7.028   1.944   2.254 -2.2643 -1.4946  0.9442
18535SOL     OW58496   8.471   8.044   7.221 -0.2340 -0.2997 -0.1308
18535SOL    HW158497   8.541   8.069   7.280  0.9709 -1.7748 -0.8479
18535SOL    HW258498   8.401   8.014   7.278  0.1412  0.1662  0.5847
18536SOL     OW58499   8.817   8.369   2.551  0.1444 -0.0403  0.6459
18536SOL    HW158500   8.802   8.427   2.477 -0.2841 -0.1927  0.6088
18536SOL    HW258501   8.834   8.428   2.625 -1.9227  0.2216  0.9755
18537SOL     OW58502   1.614   6.745   6.690 -0.6148  0.4594 -0.2033
18537SOL    HW158503   1.651   6.831   6.672  0.3318  0.0383 -0.3497
18537SOL    HW258504   1.520   6.760   6.698 -0.2816  1.8230  1.7697
18538SOL     OW58505   1.351   8.305   1.212 -0.0681 -0.3028  0.0803
18538SOL    HW158506   1.324   8.362   1.285 -2.6067 -1.2745  0.0199
18538SOL    HW258507   1.320   8.351   1.134  1.4492  0.0864 -0.3260
18539SOL     OW58508   7.063   0.693   4.174 -0.2465  0.0007 -0.8795
18539SOL    HW158509   7.150   0.733   4.171  0.0932 -0.7184 -0.9325
18539SOL    HW258510   7.053   0.666   4.265  0.1777 -1.1653 -1.1643
18540SOL     OW58511   6.189   1.238   2.183  0.0281  0.2033  0.0016
18540SOL    HW158512   6.104   1.211   2.218  0.3510 -1.0378 -0.1339
18540SOL    HW258513   6.171   1.265   2.093 -0.3684  0.8505  0.2716
18541SOL     OW58514   2.323   7.078   8.272 -0.0177 -0.0045  0.2132
18541SOL    HW158515   2.339   6.985   8.255 -0.5747 -0.0165 -0.2881
18541SOL    HW258516   2.363   7.094   8.357  0.8781 -0.4862 -0.1019
18542SOL     OW58517   8.091   5.682   6.104  0.2394 -0.6194  0.2079
18542SOL    HW158518   8.016   5.668   6.162  0.5425 -0.0676  0.7503
18542SOL    HW258519   8.052   5.710   6.021 -0.1209  1.3811  0.9966
18543SOL     OW58520   1.643   7.742   5.689  0.2288  0.6655 -0.0749
18543SOL    HW158521   1.611   7.701   5.609 -1.1497  0.0852  0.7340
18543SOL    HW258522   1.681   7.669   5.739  1.7698  1.1435 -0.4853
18544SOL     OW58523   1.633   2.263   6.394  0.7678  0.3059  0.5436
18544SOL    HW158524   1.634   2.216   6.311 -0.7702 -1.2407  1.3630
18544SOL    HW258525   1.611   2.353   6.369  2.3216  0.3629 -0.8849
18545SOL     OW58526   4.038   7.884   6.474  0.4171  0.0081 -0.2437
18545SOL    HW158527   4.052   7.818   6.541  0.1633  0.8847  0.6926
18545SOL    HW258528   3.994   7.837   6.403  1.9844 -1.2583 -0.4278
18546SOL     OW58529   8.782   8.173   3.548 -0.3491  0.0609  0.0289
18546SOL    HW158530   8.726   8.112   3.596  0.2741 -0.9403 -0.4825
18546SOL    HW258531   8.755   8.163   3.457 -1.5217  1.9418  0.1222
18547SOL     OW58532   9.204   8.782   5.773 -0.1912  0.0369 -0.1370
18547SOL    HW158533   9.158   8.853   5.817 -1.9742 -0.4739 -1.0753
18547SOL    HW258534   9.212   8.812   5.682  1.9476  0.3788  0.1259
18548SOL     OW58535   2.196   6.918   4.451 -0.0482  0.2433  0.2969
18548SOL    HW158536   2.108   6.885   4.431 -0.0779  0.5411 -0.0782
18548SOL    HW258537   2.241   6.843   4.490  0.5661 -0.9364 -2.4519
18549SOL     OW58538   3.473   1.834   3.938  0.1251  0.1847  0.2424
18549SOL    HW158539   3.433   1.827   4.024  2.0840  1.7048  1.3693
18549SOL    HW258540   3.561   1.798   3.950  0.0090 -0.8225 -1.5139
18550SOL     OW58541   1.729   7.994   5.628  0.1849 -0.1734  0.2130
18550SOL    HW158542   1.696   7.911   5.663  0.7141  0.1568  1.5664
18550SOL    HW258543   1.778   8.032   5.701 -2.6141  2.8300  0.7196
18551SOL     OW58544   7.864   2.171   0.793  0.3465  0.9245 -0.0828
18551SOL    HW158545   7.888   2.140   0.880  2.7966 -0.0331 -0.9993
18551SOL    HW258546   7.936   2.229   0.768  0.6062 -0.1912 -2.1185
18552SOL     OW58547   3.243   8.670   4.353  0.1055  0.3570 -0.1379
18552SOL    HW158548   3.216   8.749   4.400 -0.0481  0.2452 -0.0371
18552SOL    HW258549   3.174   8.607   4.371  0.4442  0.0630  0.1382
18553SOL     OW58550   1.443   4.642   3.842 -0.1139  0.2739 -0.1785
18553SOL    HW158551   1.477   4.653   3.931  1.5024  0.6910 -0.8335
18553SOL    HW258552   1.358   4.599   3.855  0.6128 -0.7547  1.5112
18554SOL     OW58553   6.508   0.393   1.110  0.0772  0.1977  0.6579
18554SOL    HW158554   6.588   0.383   1.162  0.8863  0.7109 -0.4647
18554SOL    HW258555   6.527   0.350   1.027 -1.2816 -0.7959  0.8377
18555SOL     OW58556   7.060   8.608   2.690 -0.1334 -0.9957  0.0111
18555SOL    HW158557   7.025   8.678   2.744  0.0160 -1.1707  0.3406
18555SOL    HW258558   7.064   8.645   2.602  0.9637 -0.2021  0.3619
18556SOL     OW58559   2.086   6.248   5.212  0.2304 -0.1941 -0.2134
18556SOL    HW158560   2.002   6.212   5.239  0.6493 -1.8440 -1.0119
18556SOL    HW258561   2.140   6.244   5.291 -0.1418 -0.0108  0.0573
18557SOL     OW58562   4.178   7.824   2.464  0.4638  0.2990  0.1355
18557SOL    HW158563   4.245   7.876   2.507  0.0799  0.7055  0.2406
18557SOL    HW258564   4.108   7.886   2.442 -0.1037 -0.2084  0.4819
18558SOL     OW58565   0.047   8.502   7.030  0.1031 -0.1464 -0.1220
18558SOL    HW158566  -0.011   8.430   7.007 -1.3160  0.6773  0.7439
18558SOL    HW258567   0.089   8.526   6.947 -0.3729 -1.1066 -0.6617
18559SOL     OW58568   5.775   3.432   6.472 -0.2941  0.1629 -0.1978
18559SOL    HW158569   5.804   3.347   6.505  0.2305  0.3024 -0.2975
18559SOL    HW258570   5.759   3.417   6.379  1.2650  0.5290 -0.5549
18560SOL     OW58571   7.746   1.690   8.779 -0.4192  0.3144  0.6393
18560SOL    HW158572   7.697   1.695   8.861  0.9117 -1.5015  1.6077
18560SOL    HW258573   7.832   1.725   8.800  0.0758 -0.5758  0.1783
18561SOL     OW58574   6.689   7.033   2.196 -0.7209 -0.0673 -0.6119
18561SOL    HW158575   6.739   7.088   2.135  2.0046 -1.0894  0.5856
18561SOL    HW258576   6.647   7.095   2.255 -1.9033  0.8617 -2.3427
18562SOL     OW58577   3.842   4.645   0.648 -0.4524  0.6348 -0.1566
18562SOL    HW158578   3.868   4.590   0.574 -1.1930  1.2763 -0.9221
18562SOL    HW258579   3.924   4.683   0.679  0.1145 -1.1189  0.6000
18563SOL     OW58580   1.079   8.563   5.090  0.5104 -0.4850 -0.2853
18563SOL    HW158581   1.169   8.532   5.101  0.4692 -0.3889  0.3488
18563SOL    HW258582   1.075   8.594   4.999  0.5354 -2.3838 -0.9758
18564SOL     OW58583   0.818   3.714   6.313  0.3838 -0.1156  0.6248
18564SOL    HW158584   0.852   3.742   6.228  1.6959  1.3642  1.5700
18564SOL    HW258585   0.727   3.743   6.314  0.0816 -0.9651 -0.5992
18565SOL     OW58586   6.554   0.179   0.605 -0.1423  0.5203 -0.0695
18565SOL    HW158587   6.465   0.191   0.572 -0.3102 -0.5099 -0.0243
18565SOL    HW258588   6.556   0.227   0.687 -0.8453  0.0670  0.2206
18566SOL     OW58589   8.674   3.448   4.331  0.2520  0.2463 -0.0695
18566SOL    HW158590   8.693   3.537   4.301 -1.0397  0.5057 -0.2069
18566SOL    HW258591   8.604   3.460   4.396  0.9132 -0.5685  0.8238
18567SOL     OW58592   9.052   2.044   5.421 -0.0001 -0.1267  0.1073
18567SOL    HW158593   9.061   2.088   5.337  0.3074 -1.4322 -0.5739
18567SOL    HW258594   9.033   1.953   5.399 -0.4138 -0.3944  1.4591
18568SOL     OW58595   6.954   6.187   7.218  0.2696 -0.4422  0.4306
18568SOL    HW158596   6.964   6.222   7.129  0.2732  1.6305  1.2064
18568SOL    HW258597   7.043   6.163   7.244  0.9523  2.5776  1.2408
18569SOL     OW58598   7.509   3.231   7.497  0.1527 -0.2410  0.5171
18569SOL    HW158599   7.425   3.186   7.504 -0.7857  1.3168 -0.0919
18569SOL    HW258600   7.514   3.286   7.575  0.3418  0.0724  0.2887
18570SOL     OW58601   2.754   1.213   1.709 -0.7173  0.0582 -0.1894
18570SOL    HW158602   2.820   1.157   1.751 -1.1625  1.1026  2.0069
18570SOL    HW258603   2.671   1.171   1.729 -1.0554  1.4501  1.4873
18571SOL     OW58604   4.524   4.846   6.554 -0.3972  0.4165  1.0758
18571SOL    HW158605   4.592   4.914   6.557 -0.6084  0.6483  0.7898
18571SOL    HW258606   4.562   4.771   6.599  0.7384 -0.0719 -0.5846
18572SOL     OW58607   2.584   0.954   5.839  0.0396  0.4869  0.1947
18572SOL    HW158608   2.602   0.927   5.749 -0.7441  0.2609  0.1043
18572SOL    HW258609   2.657   0.918   5.890 -0.1038 -0.3526 -0.1772
18573SOL     OW58610   4.188   5.233   6.730 -0.3074 -0.5874 -0.0582
18573SOL    HW158611   4.263   5.175   6.746  1.4515  1.5478 -0.2100
18573SOL    HW258612   4.215   5.287   6.657 -1.2398  1.4591  1.0386
18574SOL     OW58613   2.506   4.075   4.483 -0.1206 -0.4317 -0.3072
18574SOL    HW158614   2.433   4.127   4.450  0.6419 -0.0962 -1.5266
18574SOL    HW258615   2.471   4.030   4.560 -1.8012 -0.7879 -1.2392
18575SOL     OW58616   6.549   1.696   4.238  0.0971 -0.1171 -0.1287
18575SOL    HW158617   6.542   1.772   4.180  1.5034  0.0252 -0.1481
18575SOL    HW258618   6.459   1.667   4.250 -0.4308  1.2564 -0.5177
18576SOL     OW58619   0.633   5.959   1.197 -0.0757 -0.0211 -0.2217
18576SOL    HW158620   0.546   5.925   1.217 -0.4859  0.8002 -0.5900
18576SOL    HW258621   0.682   5.947   1.278 -0.2263 -1.3934 -0.3077
18577SOL     OW58622   8.135   9.261   1.053  0.0501 -0.0836  0.3892
18577SOL    HW158623   8.122   9.184   0.997 -0.7161  0.0119  0.4179
18577SOL    HW258624   8.061   9.258   1.114  0.8227 -0.1402  1.3503
18578SOL     OW58625   0.493   1.383   5.982  0.2033  0.7371  0.1871
18578SOL    HW158626   0.517   1.311   5.924 -0.8372  0.5781 -0.0684
18578SOL    HW258627   0.472   1.455   5.922  0.1687  0.9051  0.4010
18579SOL     OW58628   6.935   4.884   2.547 -0.1963  0.4145 -0.2636
18579SOL    HW158629   6.872   4.950   2.576 -0.0943 -0.1050  1.2219
18579SOL    HW258630   6.974   4.921   2.468 -0.4294  1.9478  0.3099
18580SOL     OW58631   4.741   4.735   3.813 -0.9052  0.2341  0.0196
18580SOL    HW158632   4.796   4.667   3.775 -1.4025 -0.2998  0.2318
18580SOL    HW258633   4.664   4.688   3.846 -0.7788  0.7590  1.1112
18581SOL     OW58634   2.097   8.410   3.174  0.0057 -0.5037  0.1780
18581SOL    HW158635   2.177   8.403   3.121  1.1981 -2.1355  2.0539
18581SOL    HW258636   2.109   8.491   3.225 -0.6465  0.4774 -1.1480
18582SOL     OW58637   5.722   1.549   1.586 -0.1083 -0.0494 -0.1077
18582SOL    HW158638   5.677   1.480   1.633  0.6340 -0.4285  0.0626
18582SOL    HW258639   5.655   1.616   1.570 -0.4976 -0.1626  0.9985
18583SOL     OW58640   3.611   5.564   8.114  0.0569 -0.1614 -0.3111
18583SOL    HW158641   3.561   5.635   8.156 -0.5513 -0.9533  0.3369
18583SOL    HW258642   3.678   5.609   8.063  0.3999  0.8732  0.9740
18584SOL     OW58643   0.335   3.327   4.161 -0.2009 -0.1140  0.0343
18584SOL    HW158644   0.407   3.377   4.200  0.1443 -0.6367  0.0898
18584SOL    HW258645   0.310   3.264   4.229 -1.4480  0.7708  0.4158
18585SOL     OW58646   1.312   6.696   6.957  0.1131  0.0389 -0.4330
18585SOL    HW158647   1.237   6.717   7.012  1.3210  0.6570  1.0314
18585SOL    HW258648   1.320   6.771   6.898  0.2021  0.4757  0.1202
18586SOL     OW58649   3.003   7.351   5.729  0.5170  0.1302  0.1117
18586SOL    HW158650   3.038   7.383   5.646  1.7909  0.1113  0.6135
18586SOL    HW258651   2.919   7.396   5.739 -0.4370 -1.0864 -1.9457
18587SOL     OW58652   3.168   2.079   6.954  0.7810  0.1925  0.5971
18587SOL    HW158653   3.083   2.118   6.934  1.5007  1.1036 -0.8830
18587SOL    HW258654   3.231   2.137   6.912  2.1722 -0.2482  2.0150
18588SOL     OW58655   3.977   2.009   8.152 -0.0271 -0.1538 -0.2350
18588SOL    HW158656   4.067   2.040   8.165 -0.1665  1.3449 -2.3922
18588SOL    HW258657   3.978   1.966   8.067 -0.8207 -2.5318  0.8847
18589SOL     OW58658   1.777   0.164   6.237  0.0474  0.2532 -0.1545
18589SOL    HW158659   1.724   0.120   6.170 -1.7921  1.6638  0.2916
18589SOL    HW258660   1.852   0.106   6.249 -1.8508 -2.4020 -0.0945
18590SOL     OW58661   8.392   1.859   3.772  0.7260  0.3360  0.3045
18590SOL    HW158662   8.467   1.899   3.728  1.0953 -1.5542 -0.9176
18590SOL    HW258663   8.344   1.933   3.810  2.3804  1.7184 -0.1742
18591SOL     OW58664   7.278   3.946   8.381 -0.1499 -0.1998  0.1774
18591SOL    HW158665   7.214   3.904   8.323 -0.4785 -0.9602  1.0648
18591SOL    HW258666   7.258   4.039   8.377  1.2333  0.0884 -2.6396
18592SOL     OW58667   2.516   6.145   9.182  0.5233  0.0134  0.3069
18592SOL    HW158668   2.502   6.055   9.154 -3.1433  0.2332  0.9262
18592SOL    HW258669   2.522   6.195   9.101  1.2049 -0.5961 -0.0322
18593SOL     OW58670   6.981   0.418   1.508 -0.2434 -0.2258  0.2280
18593SOL    HW158671   7.007   0.391   1.595 -0.3542  0.4861  0.4915
18593SOL    HW258672   6.975   0.514   1.513  0.2649 -0.1219 -0.6924
18594SOL     OW58673   2.148   7.495   2.627 -0.1693  0.1399  0.2929
18594SOL    HW158674   2.148   7.408   2.588 -0.2004 -0.0869  0.7923
18594SOL    HW258675   2.105   7.550   2.562 -0.8471 -0.3647  0.3040
18595SOL     OW58676   7.349   3.976   7.360  0.5544 -0.9011  0.1292
18595SOL    HW158677   7.357   4.063   7.398  1.2324 -0.3696 -1.1656
18595SOL    HW258678   7.366   3.916   7.433  1.2346  0.0590  0.7793
18596SOL     OW58679   3.722   0.960   0.157  0.1805  0.7825  0.2056
18596SOL    HW158680   3.698   0.936   0.247  1.2565 -0.0416  0.2845
18596SOL    HW258681   3.713   1.056   0.155 -0.1591  0.7793  1.0957
18597SOL     OW58682   2.751   5.795   3.880  0.0352 -0.4410  0.0023
18597SOL    HW158683   2.668   5.797   3.832 -0.1834  0.0987  0.3911
18597SOL    HW258684   2.736   5.852   3.955  0.5724 -0.7952  0.3854
18598SOL     OW58685   6.270   6.843   4.816 -0.0252 -0.4987 -0.0051
18598SOL    HW158686   6.272   6.909   4.746  2.9399 -0.4657 -0.0165
18598SOL    HW258687   6.183   6.853   4.855 -0.4997  1.8736 -1.4258
18599SOL     OW58688   0.366   1.502   0.763 -0.1456  0.6650  0.2996
18599SOL    HW158689   0.405   1.451   0.692  1.6546 -0.6229  2.0662
18599SOL    HW258690   0.295   1.448   0.796  0.7108 -0.0014  1.1157
18600SOL     OW58691   2.010   7.044   1.053  0.3783 -0.7355 -0.5521
18600SOL    HW158692   1.932   7.097   1.034  0.5626  0.0715  0.7772
18600SOL    HW258693   2.081   7.088   1.005  0.5248  0.2632  0.5197
18601SOL     OW58694   0.402   4.984   3.567  0.5765  0.0645  0.5004
18601SOL    HW158695   0.358   4.980   3.482  0.6297 -2.1589  0.5292
18601SOL    HW258696   0.354   4.922   3.622  0.9807  0.9403  1.9155
18602SOL     OW58697   0.365   2.005   7.075  0.0154 -0.4094  0.1339
18602SOL    HW158698   0.368   1.945   7.150 -0.1749 -2.2756 -1.2753
18602SOL    HW258699   0.282   2.051   7.084 -1.4392 -2.7374 -0.4153
18603SOL     OW58700   2.696   7.879   1.457  0.0215 -0.1406  0.2995
18603SOL    HW158701   2.718   7.954   1.402  0.0703 -1.1128 -1.0488
18603SOL    HW258702   2.734   7.900   1.542  1.2290  0.7387 -0.4330
18604SOL     OW58703   8.964   5.949   6.318  0.4832  0.5884  0.4513
18604SOL    HW158704   8.963   5.856   6.296 -0.7252  0.3533  1.4202
18604SOL    HW258705   9.057   5.971   6.327  0.7574 -0.6432  0.7355
18605SOL     OW58706   7.473   5.355   0.191 -0.0109 -0.1316 -0.1755
18605SOL    HW158707   7.521   5.353   0.274 -1.6902 -0.6351  0.8410
18605SOL    HW258708   7.479   5.265   0.158 -0.5476 -0.2923  0.1489
18606SOL     OW58709   7.290   1.345   4.326  0.0708 -0.1064 -0.3267
18606SOL    HW158710   7.367   1.314   4.279 -0.7267  0.5615 -2.1849
18606SOL    HW258711   7.322   1.416   4.382  0.7715  0.4056 -1.3458
18607SOL     OW58712   3.998   1.445   4.445 -0.3881 -0.2410 -0.6908
18607SOL    HW158713   4.090   1.426   4.460 -0.7407 -0.7748  0.9219
18607SOL    HW258714   3.958   1.360   4.429 -0.5482  0.0323 -1.8800
18608SOL     OW58715   0.499   4.272   0.688 -0.8490 -0.1476 -0.0991
18608SOL    HW158716   0.427   4.277   0.625 -0.4017  0.2469 -0.5899
18608SOL    HW258717   0.469   4.209   0.754 -1.8063  0.3103 -0.0807
18609SOL     OW58718   5.028   8.786   0.689 -0.7311  0.6541 -0.0727
18609SOL    HW158719   5.077   8.712   0.653 -0.6712  1.0232 -0.7645
18609SOL    HW258720   5.008   8.760   0.779  0.1208  0.2055 -0.0040
18610SOL     OW58721   8.457   3.499   2.684  0.0908 -0.9578  0.0998
18610SOL    HW158722   8.413   3.539   2.609  0.2964  0.0151  0.4780
18610SOL    HW258723   8.530   3.558   2.703  1.0695 -2.1147  0.0006
18611SOL     OW58724   4.781   4.467   0.191  0.0290 -0.2345 -0.3568
18611SOL    HW158725   4.874   4.464   0.214  0.2892 -1.5185 -1.4422
18611SOL    HW258726   4.760   4.378   0.164 -1.0534  0.4155 -1.8273
18612SOL     OW58727   9.084   2.225   0.433 -0.2557  0.4692 -0.2054
18612SOL    HW158728   9.054   2.189   0.350 -0.2866 -0.5654  0.2367
18612SOL    HW258729   9.155   2.285   0.409 -0.0850 -0.0127 -0.9648
18613SOL     OW58730   9.157   8.479   4.477  0.0249  0.4201  0.1613
18613SOL    HW158731   9.143   8.422   4.552  0.7693 -1.2442 -0.9169
18613SOL    HW258732   9.249   8.507   4.484  0.0653  0.3507 -0.0632
18614SOL     OW58733   1.751   0.725   1.026  0.2799  0.2392 -0.0810
18614SOL    HW158734   1.708   0.809   1.009  0.6165  0.3359 -0.4914
18614SOL    HW258735   1.818   0.719   0.958 -0.1320 -0.6415 -0.4197
18615SOL     OW58736   1.286   3.404   2.479  0.5817  0.4790  0.0302
18615SOL    HW158737   1.367   3.451   2.498  0.7484  0.3585 -0.3821
18615SOL    HW258738   1.230   3.469   2.437  0.3237  0.6631  0.6437
18616SOL     OW58739   2.130   3.723   8.927  0.3163 -0.5398  0.3377
18616SOL    HW158740   2.192   3.757   8.992  0.7524  2.0392 -1.2674
18616SOL    HW258741   2.045   3.759   8.953  0.1555 -1.0097  0.4725
18617SOL     OW58742   8.859   0.880   6.600 -0.3405 -0.3902 -0.4207
18617SOL    HW158743   8.781   0.838   6.635 -0.3913 -0.9451 -1.1711
18617SOL    HW258744   8.931   0.823   6.626 -0.2867 -0.3480 -0.4780
18618SOL     OW58745   8.015   2.896   9.045  0.3578 -0.2566 -0.0891
18618SOL    HW158746   7.991   2.968   8.986 -0.7439  0.6094  1.3544
18618SOL    HW258747   8.103   2.917   9.075  0.4219 -0.0281 -0.4305
18619SOL     OW58748   4.098   8.032   3.920 -0.2388  0.0890  0.0906
18619SOL    HW158749   4.123   8.124   3.933  0.0225 -0.2494  2.4036
18619SOL    HW258750   4.127   7.988   4.000 -0.5464 -1.9870 -0.8846
18620SOL     OW58751   2.524   6.374   5.219 -0.6580  0.7341 -0.4221
18620SOL    HW158752   2.549   6.378   5.126  2.8013  3.8731  0.3853
18620SOL    HW258753   2.448   6.432   5.225 -1.5677 -0.3141 -1.3876
18621SOL     OW58754   8.326   0.269   0.553  0.9373 -0.4970 -0.1265
18621SOL    HW158755   8.413   0.251   0.517  1.9260  0.2583  1.7386
18621SOL    HW258756   8.325   0.226   0.638  0.3548  1.3578  0.8666
18622SOL     OW58757   3.373   5.450   4.276 -0.1292 -0.1633 -0.2127
18622SOL    HW158758   3.425   5.524   4.304 -1.8171  0.6748  0.9134
18622SOL    HW258759   3.317   5.484   4.206 -1.3999 -0.1479  0.7783
18623SOL     OW58760   5.371   2.759   5.627 -0.5441  0.1543 -0.4216
18623SOL    HW158761   5.466   2.747   5.634 -0.7065 -1.7488 -0.9953
18623SOL    HW258762   5.342   2.765   5.718  0.0810  0.4436 -0.2305
18624SOL     OW58763   0.864   4.016   2.372  0.1293  1.1815 -0.7774
18624SOL    HW158764   0.907   4.033   2.456 -0.2370  1.0652 -0.5674
18624SOL    HW258765   0.929   3.966   2.322 -0.5071 -0.8480  0.2992
18625SOL     OW58766   3.706   3.907   0.482 -0.0411 -0.3248  0.1580
18625SOL    HW158767   3.663   3.984   0.445  0.6060  0.0365  0.1240
18625SOL    HW258768   3.671   3.900   0.571 -1.4252 -1.0606 -0.4183
18626SOL     OW58769   1.333   8.731   5.350 -0.6707 -0.0534 -0.4436
18626SOL    HW158770   1.358   8.762   5.263 -0.3049  0.0371 -0.3073
18626SOL    HW258771   1.407   8.754   5.406  0.3788 -2.5874 -0.6358
18627SOL     OW58772   8.215   8.248   5.996  0.4246  0.2302  0.1565
18627SOL    HW158773   8.275   8.245   5.921 -0.6464 -0.0735 -0.7083
18627SOL    HW258774   8.264   8.208   6.068  0.8106 -1.2084 -0.8709
18628SOL     OW58775   1.030   9.063   1.850  0.3399  0.1605 -0.0350
18628SOL    HW158776   1.024   9.145   1.802 -2.8657  0.7552  1.1572
18628SOL    HW258777   1.029   8.995   1.783 -1.8243  1.0218 -0.9555
18629SOL     OW58778   2.024   6.065   6.186 -0.0630 -0.4617  0.3391
18629SOL    HW158779   2.029   5.971   6.168  0.5208 -0.9898  2.8275
18629SOL    HW258780   2.087   6.105   6.125  0.0879 -1.7329 -0.3676
18630SOL     OW58781   2.033   0.414   1.268 -0.3484  0.2226 -0.5844
18630SOL    HW158782   2.043   0.429   1.362  0.3918  0.6348 -0.7266
18630SOL    HW258783   2.046   0.319   1.258  3.5369  0.6202 -0.7250
18631SOL     OW58784   5.161   4.515   8.208  0.2223 -0.8159 -0.3674
18631SOL    HW158785   5.066   4.510   8.208 -0.1487  2.8519  0.3635
18631SOL    HW258786   5.182   4.557   8.292  2.6774 -2.9895  0.2324
18632SOL     OW58787   4.360   5.855   9.138  0.0046  0.4836 -0.1479
18632SOL    HW158788   4.446   5.828   9.172  0.0997 -0.4624 -1.0833
18632SOL    HW258789   4.365   5.838   9.044 -0.6959  1.8392 -0.4528
18633SOL     OW58790   9.108   6.793   0.893 -0.0265  0.1720 -0.4495
18633SOL    HW158791   9.191   6.800   0.846  1.3298 -1.9591  1.4103
18633SOL    HW258792   9.082   6.702   0.881  0.2433 -0.3998  2.5330
18634SOL     OW58793   5.575   9.213   3.715 -0.2400  0.5509  0.0026
18634SOL    HW158794   5.648   9.172   3.761 -0.9179  0.7803  1.3338
18634SOL    HW258795   5.607   9.226   3.626  0.1857 -2.3276 -0.3499
18635SOL     OW58796   4.142   1.882   1.134 -0.5517 -0.0551 -0.0167
18635SOL    HW158797   4.076   1.952   1.128 -1.0014 -0.3676  1.1011
18635SOL    HW258798   4.153   1.867   1.228  2.6799  1.4285 -0.0436
18636SOL     OW58799   3.978   1.270   7.973  0.0841  0.2405 -0.2138
18636SOL    HW158800   4.017   1.193   8.015 -0.9109 -0.5865 -0.7664
18636SOL    HW258801   3.914   1.302   8.036  0.6819  0.8030  0.1288
18637SOL     OW58802   7.381   5.022   2.651 -0.7512  0.2221  0.0033
18637SOL    HW158803   7.409   4.974   2.573  0.5871 -0.1678  0.6830
18637SOL    HW258804   7.327   5.093   2.618 -0.5640 -0.1903 -1.2420
18638SOL     OW58805   6.472   6.339   6.213 -0.3439  0.4623  1.0456
18638SOL    HW158806   6.542   6.297   6.262 -2.0324 -2.3702  1.1914
18638SOL    HW258807   6.447   6.275   6.146 -0.5809  2.7499 -1.2229
18639SOL     OW58808   6.870   6.612   0.691 -0.6062 -0.0864  0.4287
18639SOL    HW158809   6.828   6.593   0.607 -1.2877 -2.1243  1.1751
18639SOL    HW258810   6.808   6.668   0.737 -0.4777  0.5765 -0.1832
18640SOL     OW58811   9.135   8.395   4.752 -0.3340 -0.1797  0.8593
18640SOL    HW158812   9.049   8.415   4.791 -0.6596  0.6659 -0.2517
18640SOL    HW258813   9.197   8.446   4.804 -0.9102  2.0354 -0.5072
18641SOL     OW58814   7.609   6.019   7.157 -0.1120  0.1135  0.1073
18641SOL    HW158815   7.616   5.927   7.180  2.6268  0.5097  1.1950
18641SOL    HW258816   7.537   6.052   7.211 -1.3647 -1.3986 -0.5649
18642SOL     OW58817   0.105   6.311   5.718  0.0537  0.0391  0.9882
18642SOL    HW158818   0.072   6.291   5.806  0.2381 -1.6354  0.7151
18642SOL    HW258819   0.200   6.301   5.725  0.0189 -0.6781  0.4656
18643SOL     OW58820   1.296   6.131   0.948 -0.3224 -0.0158  0.1961
18643SOL    HW158821   1.247   6.177   1.016  1.0347 -0.1772  1.3466
18643SOL    HW258822   1.344   6.200   0.902 -0.2849 -0.0177  0.2313
18644SOL     OW58823   8.715   1.524   7.418 -0.7525  0.2167  0.3692
18644SOL    HW158824   8.772   1.448   7.426 -0.2053  0.7108  1.4252
18644SOL    HW258825   8.749   1.573   7.343 -0.5099 -0.0887  0.2806
18645SOL     OW58826   8.386   1.850   8.221  0.1352 -0.2250  0.4313
18645SOL    HW158827   8.311   1.882   8.171  0.7029 -1.2199 -1.1456
18645SOL    HW258828   8.363   1.760   8.244  0.8869 -0.6053 -0.2324
18646SOL     OW58829   0.193   0.982   8.849 -0.2424  0.1695  0.1029
18646SOL    HW158830   0.281   0.967   8.882  0.6563  0.5412 -1.9742
18646SOL    HW258831   0.192   1.075   8.824 -0.7657 -0.1327 -1.1006
18647SOL     OW58832   1.341   0.834   6.064 -0.3524  0.3221 -0.8189
18647SOL    HW158833   1.303   0.857   5.979  0.1228 -1.6219 -1.6232
18647SOL    HW258834   1.343   0.738   6.063 -0.9875  0.2380  1.7029
18648SOL     OW58835   5.037   3.419   7.716  0.0533  0.5905 -0.1257
18648SOL    HW158836   4.945   3.429   7.689  0.2122  0.8376 -0.5840
18648SOL    HW258837   5.042   3.465   7.800 -0.5356 -0.4994  0.5308
18649SOL     OW58838   4.610   8.137   8.644 -0.2313 -0.1814 -0.1289
18649SOL    HW158839   4.525   8.179   8.651  0.2404  0.7974 -0.1826
18649SOL    HW258840   4.673   8.206   8.664  0.5313 -1.0328  0.4835
18650SOL     OW58841   6.991   7.980   8.806 -0.6806 -0.3030  0.2482
18650SOL    HW158842   7.003   7.915   8.737 -0.8628 -1.1151  0.9637
18650SOL    HW258843   6.984   8.063   8.760 -0.1368 -0.7493 -0.6674
18651SOL     OW58844   6.355   7.389   7.420 -0.7771 -0.0398 -0.6066
18651SOL    HW158845   6.362   7.317   7.358  0.7764 -0.9947  0.5826
18651SOL    HW258846   6.358   7.468   7.366  0.9079 -0.8261 -1.7496
18652SOL     OW58847   6.610   6.913   7.617  0.3071 -0.0962 -0.2092
18652SOL    HW158848   6.686   6.951   7.660 -0.4686 -0.3486  1.4762
18652SOL    HW258849   6.555   6.988   7.593 -0.1469 -0.0164  1.0230
18653SOL     OW58850   5.369   3.306   8.727 -0.0556 -0.1012  0.4663
18653SOL    HW158851   5.450   3.331   8.773 -1.2153  1.4279  1.7917
18653SOL    HW258852   5.395   3.299   8.635  1.4135  1.2014  0.7379
18654SOL     OW58853   5.209   8.915   7.447  0.0813  0.3213 -0.3316
18654SOL    HW158854   5.255   8.934   7.529 -0.7160 -3.1720  1.1135
18654SOL    HW258855   5.272   8.938   7.379  1.6223  1.3067  1.3199
18655SOL     OW58856   4.725   7.416   5.904  0.1304  0.3724  0.2392
18655SOL    HW158857   4.788   7.488   5.902  1.1907 -0.4211  2.0732
18655SOL    HW258858   4.776   7.341   5.935 -1.0551 -1.0769 -1.1255
18656SOL     OW58859   7.467   5.993   5.478 -0.5904 -0.2482 -0.2806
18656SOL    HW158860   7.400   6.012   5.545 -0.2342  0.8460 -0.2156
18656SOL    HW258861   7.499   5.906   5.500 -1.0057 -0.2029  0.5354
18657SOL     OW58862   6.510   7.082   5.532  0.0435 -0.3763  0.3700
18657SOL    HW158863   6.466   7.146   5.476 -0.4701 -0.4984  0.6310
18657SOL    HW258864   6.548   7.133   5.603  3.0458  0.1597 -1.4651
18658SOL     OW58865   2.118   8.017   3.041 -0.0979 -0.3442 -0.1589
18658SOL    HW158866   2.114   7.968   2.959  1.0719  0.6353 -0.8316
18658SOL    HW258867   2.207   8.003   3.073 -0.0120  0.6664  0.0666
18659SOL     OW58868   8.983   3.436   5.922 -0.0524  0.4353  0.1216
18659SOL    HW158869   9.025   3.509   5.968  0.7750 -0.0978  0.2269
18659SOL    HW258870   8.898   3.427   5.964  0.8579 -0.3224  1.8688
18660SOL     OW58871   3.314   0.579   9.004 -0.2367  0.3604  0.2547
18660SOL    HW158872   3.258   0.644   8.961  0.7843  0.3823 -1.0954
18660SOL    HW258873   3.367   0.542   8.934  0.0384 -1.1107  1.1866
18661SOL     OW58874   5.523   5.149   5.230 -0.6488 -0.2398 -0.2396
18661SOL    HW158875   5.579   5.222   5.258  1.1146 -1.3666 -0.6768
18661SOL    HW258876   5.453   5.191   5.179 -1.6031  1.4370  2.2705
18662SOL     OW58877   5.741   7.492   8.914  0.0029 -0.1031 -0.4750
18662SOL    HW158878   5.834   7.475   8.902 -0.1711 -1.6040  0.1194
18662SOL    HW258879   5.701   7.466   8.831  0.0322 -0.1469 -0.4749
18663SOL     OW58880   1.565   3.859   3.720 -0.0590 -0.3658  0.5847
18663SOL    HW158881   1.573   3.884   3.628 -0.8265 -0.4764  0.4822
18663SOL    HW258882   1.644   3.808   3.738  0.9339  1.0821  0.4625
18664SOL     OW58883   4.762   6.445   7.550  0.1061 -0.1693  0.4907
18664SOL    HW158884   4.825   6.452   7.622  0.8140 -1.0000 -0.0222
18664SOL    HW258885   4.682   6.487   7.583  0.8824  0.7851  1.2036
18665SOL     OW58886   5.637   8.678   4.509 -0.0178  0.0226  0.3272
18665SOL    HW158887   5.583   8.682   4.430  0.3911  1.5531  0.0899
18665SOL    HW258888   5.693   8.756   4.503  0.5456 -0.2543  1.7489
18666SOL     OW58889   0.515   8.795   2.441 -0.4737  0.2199 -0.7700
18666SOL    HW158890   0.494   8.832   2.355  0.3148  0.8804 -0.6920
18666SOL    HW258891   0.579   8.726   2.422  0.7667  1.2879 -0.6144
18667SOL     OW58892   5.790   6.832   5.289  0.1334 -0.3706  0.5388
18667SOL    HW158893   5.845   6.758   5.311  0.9893  0.6762  2.0751
18667SOL    HW258894   5.746   6.856   5.370 -0.0737  0.8385  0.1042
18668SOL     OW58895   8.553   0.549   3.215 -0.2121 -0.1306  0.3194
18668SOL    HW158896   8.574   0.513   3.129 -1.1248  0.2496 -0.0682
18668SOL    HW258897   8.600   0.493   3.276  0.0015 -0.7411 -0.3892
18669SOL     OW58898   6.183   8.579   5.355 -0.6128 -0.3142 -0.3625
18669SOL    HW158899   6.272   8.563   5.323 -0.8142 -1.3910 -0.4141
18669SOL    HW258900   6.166   8.506   5.414 -1.6993 -0.4403 -0.8300
18670SOL     OW58901   0.561   2.822   9.240 -0.7336 -0.1228  0.3593
18670SOL    HW158902   0.610   2.889   9.287 -2.0024  0.6552  0.6285
18670SOL    HW258903   0.599   2.739   9.268 -0.1990  0.4203  1.2637
18671SOL     OW58904   6.946   1.663   2.755 -0.4011  0.4373  0.2312
18671SOL    HW158905   6.918   1.619   2.836 -1.1608 -0.7831 -0.6494
18671SOL    HW258906   7.003   1.599   2.712 -0.9977  0.5474 -0.7618
18672SOL     OW58907   4.592   2.042   2.212  0.6623  0.1370 -0.3999
18672SOL    HW158908   4.619   2.023   2.122  2.8486  1.6750 -0.1427
18672SOL    HW258909   4.630   1.971   2.264 -0.7537 -0.8518 -0.6652
18673SOL     OW58910   3.791   4.741   5.744  0.2697  0.0751 -0.3950
18673SOL    HW158911   3.717   4.683   5.755  0.3695  0.0840  0.3795
18673SOL    HW258912   3.860   4.686   5.707  0.4985 -0.4230  0.7155
18674SOL     OW58913   1.568   3.754   1.106  0.2884  0.4836  0.3534
18674SOL    HW158914   1.578   3.844   1.137  0.6218  0.1496  1.2469
18674SOL    HW258915   1.628   3.747   1.031 -0.2767  1.2041 -0.1738
18675SOL     OW58916   2.866   2.937   1.726 -0.0234  0.4019 -0.0420
18675SOL    HW158917   2.849   3.019   1.772 -1.8461  0.0479 -0.0226
18675SOL    HW258918   2.876   2.872   1.795  0.3934  0.4158 -0.0851
18676SOL     OW58919   1.908   7.791   8.042  0.1586 -0.1325 -0.1398
18676SOL    HW158920   1.986   7.799   8.095 -0.6684  0.4784  1.0147
18676SOL    HW258921   1.836   7.784   8.105 -1.2408  3.7934 -0.9967
18677SOL     OW58922   4.661   4.812   4.320  0.0818  0.1211  0.1763
18677SOL    HW158923   4.721   4.870   4.274  0.4790 -1.4077 -1.3117
18677SOL    HW258924   4.717   4.747   4.362 -0.3168  1.0728  2.3358
18678SOL     OW58925   1.692   7.836   6.082 -0.2936  0.2618 -0.3673
18678SOL    HW158926   1.617   7.814   6.027  0.9530 -1.5424 -1.4748
18678SOL    HW258927   1.680   7.784   6.161 -0.1510 -0.1514 -0.6135
18679SOL     OW58928   1.819   3.016   0.832 -0.6423  0.5866  0.9110
18679SOL    HW158929   1.909   3.046   0.848 -0.3654 -0.5658  1.5802
18679SOL    HW258930   1.823   2.921   0.841 -1.5808  0.3504 -0.7945
18680SOL     OW58931   6.687   5.191   0.038  0.1330  0.5559 -0.0037
18680SOL    HW158932   6.640   5.226   0.113 -0.9178  0.8525 -0.7772
18680SOL    HW258933   6.628   5.205  -0.036  1.4038  0.8551 -0.9927
18681SOL     OW58934   1.282   3.608   6.535 -0.0549 -0.4231  0.1074
18681SOL    HW158935   1.201   3.653   6.560  0.1896  0.4720 -0.6475
18681SOL    HW258936   1.265   3.576   6.446 -0.0076 -1.3192  0.4111
18682SOL     OW58937   1.737   4.400   1.376  0.0051 -0.1872 -0.2345
18682SOL    HW158938   1.803   4.341   1.411 -0.0044  0.0219  0.1344
18682SOL    HW258939   1.691   4.347   1.310 -1.2980 -1.2467  1.4354
18683SOL     OW58940   2.589   6.516   2.198 -0.1238  0.4403  0.0415
18683SOL    HW158941   2.549   6.536   2.282  0.5115  3.8746 -0.3393
18683SOL    HW258942   2.678   6.550   2.205  0.1335  0.2615 -1.8058
18684SOL     OW58943   0.606   3.801   8.545  0.3591 -0.1883 -0.5618
18684SOL    HW158944   0.611   3.874   8.607 -1.7562 -1.0697  0.7980
18684SOL    HW258945   0.555   3.835   8.472  0.5942  0.0938 -0.5974
18685SOL     OW58946   3.212   9.117   4.231  0.2186  0.3597  0.4146
18685SOL    HW158947   3.215   9.208   4.262  1.3581  0.5138 -0.0696
18685SOL    HW258948   3.293   9.107   4.181 -0.5774 -0.4933 -0.7593
18686SOL     OW58949   8.277   1.623   2.639 -0.3405  0.0168 -0.3781
18686SOL    HW158950   8.354   1.572   2.666 -0.1928  0.4878  0.1099
18686SOL    HW258951   8.210   1.600   2.704  0.5509  2.5406  1.6114
18687SOL     OW58952   2.626   6.392   2.672  0.0218  0.9994 -0.3198
18687SOL    HW158953   2.539   6.363   2.646  0.3855  1.3870 -2.0915
18687SOL    HW258954   2.686   6.332   2.626  0.6998  1.6447 -0.2982
18688SOL     OW58955   4.754   1.093   8.281 -0.1173  0.0406 -0.1578
18688SOL    HW158956   4.747   1.156   8.209  2.2618 -0.0013 -0.4949
18688SOL    HW258957   4.848   1.084   8.297 -0.4939 -1.5296  1.5867
18689SOL     OW58958   7.311   7.006   6.840 -0.0253 -0.3849 -0.2169
18689SOL    HW158959   7.273   7.018   6.753 -1.4247  0.3610  0.4641
18689SOL    HW258960   7.335   6.913   6.843  0.1314 -0.3983 -1.4214
18690SOL     OW58961   8.888   4.312   2.313  0.3840  0.0638  0.5246
18690SOL    HW158962   8.940   4.234   2.292 -0.8226 -0.4510 -0.6867
18690SOL    HW258963   8.812   4.277   2.362  0.4615  0.6353  1.0618
18691SOL     OW58964   3.358   4.170   7.841  0.6405  0.8951  0.1328
18691SOL    HW158965   3.420   4.234   7.806 -1.8541  2.3321 -1.9093
18691SOL    HW258966   3.293   4.222   7.887 -1.1478 -0.1641 -1.0886
18692SOL     OW58967   4.169   3.431   0.235  0.0092  0.7419  0.1264
18692SOL    HW158968   4.116   3.509   0.223 -0.0498  0.7937  0.7044
18692SOL    HW258969   4.111   3.359   0.209 -0.0288  0.8651 -0.1358
18693SOL     OW58970   2.135   6.978   7.377  0.5910 -0.0696  0.4325
18693SOL    HW158971   2.124   7.058   7.324  1.7102 -0.2788 -0.1468
18693SOL    HW258972   2.096   6.909   7.324  0.9489 -0.1429  0.2641
18694SOL     OW58973   5.444   1.207   9.152 -0.1456 -0.6637  0.2167
18694SOL    HW158974   5.493   1.126   9.163  0.1416 -0.6146 -0.6433
18694SOL    HW258975   5.356   1.186   9.184 -0.1309 -1.3796 -0.1882
18695SOL     OW58976   6.172   9.047   6.147  0.1097 -0.5109  0.1006
18695SOL    HW158977   6.254   9.081   6.113 -0.2340 -0.2674 -0.5140
18695SOL    HW258978   6.162   8.962   6.104 -1.1200  0.4836 -1.7632
18696SOL     OW58979   1.562   5.708   3.193  0.6189  0.1483 -0.1083
18696SOL    HW158980   1.653   5.736   3.190  0.6566  0.0544  0.1417
18696SOL    HW258981   1.543   5.677   3.104  0.7951  0.2740 -0.1898
18697SOL     OW58982   7.280   2.298   4.666  0.4548  0.4311 -0.2286
18697SOL    HW158983   7.315   2.330   4.582 -0.2357 -1.3375 -1.2577
18697SOL    HW258984   7.278   2.203   4.656  2.2958 -0.0235  2.6086
18698SOL     OW58985   7.414   5.981   5.893  0.2694 -0.1207  0.0954
18698SOL    HW158986   7.431   5.901   5.844 -2.5883  0.6376 -2.3769
18698SOL    HW258987   7.460   6.050   5.843  0.1681  0.2165  0.4602
18699SOL     OW58988   5.343   4.827   2.515  0.2436 -0.2796 -0.0488
18699SOL    HW158989   5.336   4.736   2.543 -1.9017  0.2913  1.5140
18699SOL    HW258990   5.299   4.877   2.583  1.9541  2.0431 -0.5164
18700SOL     OW58991   5.368   8.232   8.813  0.1152 -0.1271  0.4220
18700SOL    HW158992   5.337   8.189   8.893 -0.0038 -0.4966  0.1773
18700SOL    HW258993   5.414   8.310   8.844 -2.6680  1.5179  0.7383
18701SOL     OW58994   5.495   3.935   8.344  0.2366 -0.0271  0.1066
18701SOL    HW158995   5.431   3.890   8.399  0.2788  0.2128  0.3566
18701SOL    HW258996   5.481   3.899   8.256  0.0240 -0.2573  0.2349
18702SOL     OW58997   5.748   1.735   4.471  0.7152 -0.0995  0.6503
18702SOL    HW158998   5.784   1.649   4.493  1.7932 -0.5238 -2.2414
18702SOL    HW258999   5.725   1.774   4.555 -0.5455 -3.4720  2.0688
18703SOL     OW59000   5.255   3.245   2.250 -0.6448 -0.2637  0.1973
18703SOL    HW159001   5.205   3.324   2.225  0.4663 -0.0102 -1.3565
18703SOL    HW259002   5.339   3.255   2.206 -0.1822 -1.9503  0.6378
18704SOL     OW59003   1.210   6.239   8.558  0.4812 -0.5227  0.1505
18704SOL    HW159004   1.228   6.176   8.627  1.8385 -0.4156 -0.0800
18704SOL    HW259005   1.243   6.323   8.592 -0.2560 -0.1555 -0.0105
18705SOL     OW59006   9.156   4.418   8.811  0.3707  0.0327  0.1056
18705SOL    HW159007   9.166   4.503   8.769 -0.7466  0.0916 -0.0728
18705SOL    HW259008   9.192   4.431   8.899  0.5282  0.5958 -0.0359
18706SOL     OW59009   2.508   4.195   1.530 -0.1235 -0.9672 -0.3177
18706SOL    HW159010   2.593   4.159   1.506 -0.2111 -0.9461 -0.6581
18706SOL    HW259011   2.529   4.272   1.582  0.0651 -1.0829 -0.2191
18707SOL     OW59012   3.632   4.418   8.624  0.3465 -0.1054  0.1331
18707SOL    HW159013   3.581   4.342   8.596 -1.7713  1.6962 -1.2246
18707SOL    HW259014   3.596   4.441   8.710 -0.9673  0.9431 -0.6621
18708SOL     OW59015   5.871   3.249   8.470  0.0600  0.1582 -0.4267
18708SOL    HW159016   5.881   3.207   8.385  2.4931  0.7398 -0.4761
18708SOL    HW259017   5.875   3.177   8.533 -3.5568 -0.5254 -0.7353
18709SOL     OW59018   3.742   7.278   6.494 -0.5071 -0.1438  0.0181
18709SOL    HW159019   3.713   7.267   6.585  2.4346  1.4000  1.2760
18709SOL    HW259020   3.769   7.191   6.467 -0.0832 -0.3728  1.1342
18710SOL     OW59021   6.836   6.243   8.111 -0.4193 -0.2064 -0.7520
18710SOL    HW159022   6.843   6.333   8.079 -1.2230  0.6632  1.2929
18710SOL    HW259023   6.743   6.224   8.108 -0.3264 -0.7077 -0.5224
18711SOL     OW59024   5.422   0.740   8.710 -0.4201  0.4614 -0.1878
18711SOL    HW159025   5.517   0.733   8.711 -0.5492 -1.9561  0.8282
18711SOL    HW259026   5.398   0.749   8.802 -1.1401  2.7988 -0.5387
18712SOL     OW59027   6.074   3.121   5.518 -0.1652  0.2665  0.0836
18712SOL    HW159028   5.981   3.143   5.512 -0.4199 -0.6995  0.3674
18712SOL    HW259029   6.082   3.071   5.599  0.0590 -2.1244 -1.2983
18713SOL     OW59030   1.690   6.294   5.733  0.4480  0.0358  0.3996
18713SOL    HW159031   1.682   6.387   5.751 -0.8218  0.1249 -0.5031
18713SOL    HW259032   1.733   6.289   5.648  2.6024 -0.2892  1.4383
18714SOL     OW59033   7.200   2.177   1.004 -0.4732  0.3466 -0.8862
18714SOL    HW159034   7.200   2.226   0.922 -0.1011 -1.0501 -1.7486
18714SOL    HW259035   7.290   2.148   1.014 -0.3662  1.0466  0.3772
18715SOL     OW59036   1.070   8.742   6.267  0.3100  0.4435 -0.1258
18715SOL    HW159037   1.128   8.725   6.193 -0.4585  1.0714 -0.8929
18715SOL    HW259038   1.004   8.672   6.262  0.3627  0.3771  0.0848
18716SOL     OW59039   4.399   0.632   7.628 -0.4453  0.1540 -0.1891
18716SOL    HW159040   4.398   0.725   7.651  0.4497  0.1130  0.0745
18716SOL    HW259041   4.347   0.589   7.696  1.2219  0.1775  1.1766
18717SOL     OW59042   4.643   3.048   7.199 -0.4917 -0.6594 -0.1416
18717SOL    HW159043   4.660   3.060   7.293 -1.4611 -2.5485  0.3181
18717SOL    HW259044   4.624   3.136   7.167 -1.7877 -0.1718  1.7958
18718SOL     OW59045   4.443   6.762   0.251  0.2862  0.2533 -0.1142
18718SOL    HW159046   4.350   6.750   0.265  0.0841 -0.5282 -1.8544
18718SOL    HW259047   4.478   6.785   0.337 -1.5084  0.6636  0.5383
18719SOL     OW59048   4.228   5.506   8.264  0.3265  0.1511 -0.0570
18719SOL    HW159049   4.211   5.486   8.356  0.6686  0.3322  0.0478
18719SOL    HW259050   4.315   5.547   8.264  1.1418 -1.4540 -0.6504
18720SOL     OW59051   3.619   6.390   6.363  0.3170 -0.2296 -0.5911
18720SOL    HW159052   3.662   6.399   6.449 -0.1746  1.3344 -0.4815
18720SOL    HW259053   3.528   6.372   6.384  0.1372  0.4543 -0.7721
18721SOL     OW59054   4.967   8.375   7.628 -0.6147 -0.0799 -0.2643
18721SOL    HW159055   4.954   8.463   7.662 -0.9988 -0.6270  1.0765
18721SOL    HW259056   5.046   8.344   7.672 -0.5862 -0.4582 -0.5803
18722SOL     OW59057   7.758   4.321   5.026 -0.0103  0.1348  1.2741
18722SOL    HW159058   7.671   4.284   5.040  0.1413 -0.1946  1.3653
18722SOL    HW259059   7.749   4.377   4.949  0.4916 -2.6229 -0.9277
18723SOL     OW59060   5.058   4.450   0.250 -0.3749 -0.1382  0.8904
18723SOL    HW159061   5.032   4.499   0.327  1.1423 -0.6920  1.8042
18723SOL    HW259062   5.154   4.455   0.249 -0.3377 -0.4451 -0.7571
18724SOL     OW59063   5.110   3.624   1.359  0.5451  0.1443 -0.3331
18724SOL    HW159064   5.017   3.641   1.341  0.4822 -0.4941 -0.6329
18724SOL    HW259065   5.110   3.543   1.409  0.8876  0.6414  0.4939
18725SOL     OW59066   0.258   2.164   0.302 -0.3457  0.3099 -0.3233
18725SOL    HW159067   0.303   2.131   0.380  0.0986  0.3807 -0.5487
18725SOL    HW259068   0.169   2.130   0.310 -0.0576 -0.4482 -0.2481
18726SOL     OW59069   1.404   6.382   6.060 -0.5059 -0.2218 -0.5231
18726SOL    HW159070   1.480   6.332   6.090 -1.1834 -1.7461 -1.2151
18726SOL    HW259071   1.346   6.384   6.136 -0.2250  0.0393 -0.3122
18727SOL     OW59072   5.431   4.251   3.968 -0.1521 -0.5176 -0.0834
18727SOL    HW159073   5.503   4.286   4.021 -0.2233 -0.6551  0.1081
18727SOL    HW259074   5.463   4.254   3.878  0.8145 -2.2891  0.1513
18728SOL     OW59075   4.145   6.261   4.510 -0.0505  0.1274  0.0957
18728SOL    HW159076   4.137   6.349   4.546 -1.0375  0.2206 -0.3318
18728SOL    HW259077   4.174   6.275   4.419  1.8572 -0.0823  0.6366
18729SOL     OW59078   1.127   6.704   6.241 -0.2183  0.4412 -0.7311
18729SOL    HW159079   1.057   6.769   6.236  1.0194  1.8875 -0.0776
18729SOL    HW259080   1.081   6.620   6.245 -2.0092  1.4193  1.5003
18730SOL     OW59081   8.010   1.285   4.645  0.1034 -0.9207  0.1408
18730SOL    HW159082   8.043   1.265   4.733 -1.3515  0.0939  0.9566
18730SOL    HW259083   7.989   1.378   4.648  0.2270 -0.8230 -1.3743
18731SOL     OW59084   2.862   2.881   4.036  0.1789 -0.1085  0.0791
18731SOL    HW159085   2.863   2.836   4.121  1.6130 -1.5769 -0.6539
18731SOL    HW259086   2.780   2.853   3.996  0.0520 -0.3609  0.5023
18732SOL     OW59087   5.204   8.884   7.019  0.2043  0.1829 -0.3594
18732SOL    HW159088   5.264   8.880   6.945 -0.7615  1.9481 -1.3094
18732SOL    HW259089   5.261   8.889   7.096  1.2508  0.5068 -1.1359
18733SOL     OW59090   6.756   7.715   5.502 -0.4788  0.1513 -0.4726
18733SOL    HW159091   6.705   7.668   5.568 -0.2773  1.1061  0.3793
18733SOL    HW259092   6.691   7.758   5.447 -0.6156  0.2541 -0.2278
18734SOL     OW59093   2.999   1.965   5.122  0.4637 -0.5523  0.5266
18734SOL    HW159094   2.995   2.050   5.078 -0.9926 -0.1899  1.2786
18734SOL    HW259095   2.912   1.928   5.109  0.4354 -1.0205  1.9621
18735SOL     OW59096   2.286   1.294   1.362  0.2125  0.3722 -0.0821
18735SOL    HW159097   2.367   1.296   1.310  0.6641  1.5205  0.6232
18735SOL    HW259098   2.229   1.233   1.316  1.6693 -0.8644 -0.3143
18736SOL     OW59099   4.276   6.921   7.101  0.2179 -0.0211  0.0955
18736SOL    HW159100   4.320   7.001   7.072  1.2905 -0.3519  0.7217
18736SOL    HW259101   4.339   6.851   7.080 -0.9196 -0.7766 -0.9241
18737SOL     OW59102   0.930   2.314   8.029  0.2085 -0.6128 -0.3734
18737SOL    HW159103   0.865   2.379   8.057 -2.0753 -1.6862 -2.7798
18737SOL    HW259104   0.956   2.343   7.942  2.2141 -0.8612  0.0836
18738SOL     OW59105   8.369   5.128   2.156 -0.2700 -0.6672 -0.0667
18738SOL    HW159106   8.444   5.182   2.181 -0.6232  0.3311 -1.0587
18738SOL    HW259107   8.332   5.098   2.239 -2.3243  3.7525  0.9379
18739SOL     OW59108   7.966   7.121   4.788 -0.4362  0.0147 -0.0320
18739SOL    HW159109   8.046   7.173   4.794 -1.7944  2.4942 -1.5599
18739SOL    HW259110   7.939   7.108   4.879 -0.9311  3.6764  0.5047
18740SOL     OW59111   4.596   5.436   4.808  0.0141  0.0949  0.0777
18740SOL    HW159112   4.549   5.371   4.755 -1.2986  0.9892  0.1165
18740SOL    HW259113   4.591   5.401   4.897 -1.6431  0.7581  0.2672
18741SOL     OW59114   9.224   7.856   6.994  0.0920  0.1158 -0.2671
18741SOL    HW159115   9.179   7.813   7.066 -0.3513  0.1002 -0.5486
18741SOL    HW259116   9.316   7.859   7.021  0.6624 -3.3137 -1.2950
18742SOL     OW59117   6.660   2.256   6.003  0.0026 -0.4004  0.1127
18742SOL    HW159118   6.748   2.232   6.031 -0.1291 -0.8410  0.1542
18742SOL    HW259119   6.672   2.337   5.953  0.6172 -1.1994 -1.0725
18743SOL     OW59120   1.970   8.241   3.019 -0.0760 -0.1069  0.6463
18743SOL    HW159121   2.006   8.161   3.057 -2.3248 -1.1868  0.7043
18743SOL    HW259122   1.992   8.310   3.082  0.6633 -0.9334  1.3201
18744SOL     OW59123   8.828   2.226   1.195  0.3417  0.1402 -0.3355
18744SOL    HW159124   8.757   2.288   1.211  0.2663  0.0194 -0.1988
18744SOL    HW259125   8.844   2.231   1.101  0.9181  0.9988 -0.2078
18745SOL     OW59126   2.848   2.726   4.272  0.7922 -0.2622 -0.2748
18745SOL    HW159127   2.897   2.651   4.236  0.3253 -0.3616 -0.7156
18745SOL    HW259128   2.786   2.687   4.333 -0.1847 -0.3613 -1.2917
18746SOL     OW59129   5.425   8.481   3.973  0.0594  0.2234  0.2530
18746SOL    HW159130   5.360   8.515   3.910  0.5549 -1.0303 -0.9887
18746SOL    HW259131   5.496   8.545   3.970 -0.6512  1.0761  0.8641
18747SOL     OW59132   6.144   5.970   8.459  0.1182  0.0854  0.3562
18747SOL    HW159133   6.064   5.920   8.449  1.0803 -1.2856 -0.9208
18747SOL    HW259134   6.117   6.061   8.448 -1.1206 -0.4165 -1.0662
18748SOL     OW59135   7.888   8.457   1.055 -0.0971  0.1262  0.1300
18748SOL    HW159136   7.956   8.390   1.055 -1.7684 -1.6914 -1.5010
18748SOL    HW259137   7.936   8.540   1.064  2.3182 -1.0396 -1.0318
18749SOL     OW59138   6.698   9.007   6.921 -0.5375  0.5494  0.2872
18749SOL    HW159139   6.788   8.984   6.947 -1.1440 -2.5011  0.0182
18749SOL    HW259140   6.701   9.011   6.825 -0.7646  0.0265  0.2557
18750SOL     OW59141   4.011   1.310   9.166  0.1369  0.2405  0.3598
18750SOL    HW159142   3.926   1.265   9.156 -0.3524  1.2717 -0.2364
18750SOL    HW259143   4.057   1.258   9.232 -0.1377 -1.5213 -0.7776
18751SOL     OW59144   8.538   7.686   5.100 -0.2083 -0.2616  0.2665
18751SOL    HW159145   8.542   7.721   5.011  1.1405  0.2415  0.5022
18751SOL    HW259146   8.511   7.595   5.089 -0.9531  0.0345 -0.5700
18752SOL     OW59147   5.300   7.541   4.636 -0.2478  0.4708  0.3666
18752SOL    HW159148   5.362   7.601   4.593 -1.7102  2.3574  0.7436
18752SOL    HW259149   5.278   7.585   4.718 -1.1651 -0.7571  0.8034
18753SOL     OW59150   0.844   3.216   9.005  0.2892  0.2131 -0.4357
18753SOL    HW159151   0.802   3.259   8.930 -0.0985  1.8336  0.6628
18753SOL    HW259152   0.937   3.237   8.995  0.3290 -0.0973 -0.7712
18754SOL     OW59153   2.318   8.324   1.232 -0.3238 -0.4459 -0.0899
18754SOL    HW159154   2.295   8.236   1.260  0.0217 -0.9903 -1.4603
18754SOL    HW259155   2.341   8.369   1.314 -2.5261 -0.9661  0.8836
18755SOL     OW59156   2.234   3.947   9.113 -0.1072 -0.0072 -0.3123
18755SOL    HW159157   2.190   4.008   9.052 -0.0011  0.0670 -0.3137
18755SOL    HW259158   2.304   3.908   9.061 -0.3317 -0.3168 -0.3838
18756SOL     OW59159   6.170   0.161   6.474 -0.3289  0.1998  0.1105
18756SOL    HW159160   6.110   0.219   6.521 -1.9220  0.5189 -2.1431
18756SOL    HW259161   6.161   0.076   6.516 -0.6913  0.7446  1.1693
18757SOL     OW59162   1.205   6.061   8.059  0.7069  0.3806  0.0285
18757SOL    HW159163   1.292   6.049   8.097  1.7192  3.2874 -1.0744
18757SOL    HW259164   1.195   6.156   8.051 -1.7917  0.0798 -1.6480
18758SOL     OW59165   4.932   3.636   4.245 -0.2770  0.2377 -0.1528
18758SOL    HW159166   4.975   3.704   4.192 -0.1272  1.2776  1.2262
18758SOL    HW259167   4.860   3.605   4.190  0.7551  0.2053 -1.5409
18759SOL     OW59168   7.033   6.152   0.796  0.5203  0.4543 -0.1189
18759SOL    HW159169   7.106   6.212   0.814 -0.4436  1.0153  2.4106
18759SOL    HW259170   7.031   6.094   0.873 -0.6339 -0.6739 -0.9685
18760SOL     OW59171   9.078   1.594   4.750  0.4190  0.6285 -0.3720
18760SOL    HW159172   9.091   1.501   4.735  2.3187  0.8972 -0.6369
18760SOL    HW259173   9.054   1.601   4.842 -0.6921 -0.1826 -0.5895
18761SOL     OW59174   6.596   4.192   7.686  0.1691  0.4152  0.1860
18761SOL    HW159175   6.587   4.246   7.765 -1.9376  0.0389  0.2552
18761SOL    HW259176   6.622   4.106   7.720 -0.5556  0.3012  0.4731
18762SOL     OW59177   1.524   1.116   0.741  0.6718  0.0580  0.0638
18762SOL    HW159178   1.546   1.177   0.670 -0.0962  0.3629  0.0789
18762SOL    HW259179   1.435   1.140   0.767  1.2163  0.4974  1.6861
18763SOL     OW59180   3.866   8.124   6.876 -0.5313  0.2502 -0.2404
18763SOL    HW159181   3.873   8.031   6.896 -0.4545 -0.0238 -1.4644
18763SOL    HW259182   3.885   8.130   6.782 -0.5315  1.4988 -0.1784
18764SOL     OW59183   6.627   7.662   1.021  0.4217 -0.0529 -0.2810
18764SOL    HW159184   6.691   7.634   1.085 -1.1364 -0.5041  1.1537
18764SOL    HW259185   6.542   7.637   1.059 -0.6312  0.7869 -1.9431
18765SOL     OW59186   1.591   3.215   2.374  0.5626 -0.1553 -0.4993
18765SOL    HW159187   1.570   3.257   2.291  1.3187 -2.0354 -1.6914
18765SOL    HW259188   1.506   3.189   2.410  0.2661  0.2725 -0.8832
18766SOL     OW59189   6.092   2.600   7.053  0.1020  0.2917  0.0216
18766SOL    HW159190   6.093   2.571   7.144 -0.4811 -0.6724 -0.2642
18766SOL    HW259191   6.021   2.664   7.050 -0.5462 -0.4153  0.0382
18767SOL     OW59192   4.718   8.840   0.109  0.6105  0.0932  0.6619
18767SOL    HW159193   4.778   8.815   0.038 -0.9398  1.3469 -1.1665
18767SOL    HW259194   4.696   8.931   0.092 -0.0612  0.3623  2.6321
18768SOL     OW59195   3.955   9.215   4.458  0.3685  0.4633  0.2631
18768SOL    HW159196   3.920   9.210   4.369  1.8822  2.3187 -0.4941
18768SOL    HW259197   3.904   9.284   4.500  1.4527  1.4891 -0.0691
18769SOL     OW59198   6.619   4.960   2.554 -0.2437 -0.3406  0.4019
18769SOL    HW159199   6.543   4.972   2.498  0.3556 -0.7355 -0.5282
18769SOL    HW259200   6.587   4.974   2.643 -1.3113 -0.1439 -0.0072
18770SOL     OW59201   3.126   5.346   2.845  0.1058 -0.2040 -0.6368
18770SOL    HW159202   3.037   5.333   2.876  0.5549  0.2221  0.9332
18770SOL    HW259203   3.159   5.258   2.829 -0.0140 -0.4807  0.5506
18771SOL     OW59204   1.920   1.863   1.480 -0.3516 -0.4311  0.2036
18771SOL    HW159205   1.862   1.855   1.404 -2.2924 -0.4623  1.6221
18771SOL    HW259206   1.903   1.784   1.531  1.6987 -0.9231  0.2109
18772SOL     OW59207   5.202   1.469   4.820  0.2008  0.6339 -0.1259
18772SOL    HW159208   5.212   1.491   4.728 -0.3050  3.4080  0.4095
18772SOL    HW259209   5.292   1.461   4.853  0.3986  1.0192 -0.5640
18773SOL     OW59210   3.140   3.781   1.469  0.6170  0.5837  0.3339
18773SOL    HW159211   3.091   3.701   1.452  2.1498 -0.4406  0.4841
18773SOL    HW259212   3.123   3.837   1.393 -1.1031  0.4800  0.6010
18774SOL     OW59213   5.097   7.254   3.991 -0.2267 -0.6899 -0.0360
18774SOL    HW159214   5.030   7.250   4.058 -1.2090 -0.0341 -0.9514
18774SOL    HW259215   5.140   7.339   4.005 -0.5213 -0.4941 -0.3202
18775SOL     OW59216   3.446   4.436   6.597 -0.1945  0.0436  0.3632
18775SOL    HW159217   3.528   4.389   6.587 -0.8887 -1.0928 -0.1629
18775SOL    HW259218   3.419   4.457   6.507 -0.1835  0.9520  0.5620
18776SOL     OW59219   5.661   0.253   2.476 -0.3416  0.0411  0.9111
18776SOL    HW159220   5.578   0.246   2.428 -0.9424  0.7480  1.7984
18776SOL    HW259221   5.725   0.281   2.410 -0.6204 -1.2527  0.0511
18777SOL     OW59222   5.902   2.858   5.803 -0.2682  0.0823 -0.0324
18777SOL    HW159223   5.848   2.857   5.882  0.1503 -1.5451  0.2741
18777SOL    HW259224   5.947   2.773   5.804  1.9561  1.1968 -0.5030
18778SOL     OW59225   4.147   8.071   1.536  0.1095  0.6947  0.0155
18778SOL    HW159226   4.196   8.085   1.455  0.2833  0.5331  0.0919
18778SOL    HW259227   4.144   7.975   1.545  0.7510  0.7267  0.6018
18779SOL     OW59228   6.044   7.600   9.118 -0.7617 -0.5173  0.5987
18779SOL    HW159229   6.026   7.565   9.030 -0.4874  0.2371  0.2396
18779SOL    HW259230   5.960   7.597   9.162 -1.0446 -0.2685  0.0842
18780SOL     OW59231   0.786   7.295   2.116  0.2587  0.3868  0.0926
18780SOL    HW159232   0.744   7.381   2.116 -0.3523  0.0926 -0.4607
18780SOL    HW259233   0.771   7.260   2.028  0.2229 -0.4143  0.4021
18781SOL     OW59234   0.492   3.598   5.748  0.6102  0.3785 -0.0573
18781SOL    HW159235   0.491   3.525   5.810  0.7210 -0.5868 -1.1666
18781SOL    HW259236   0.460   3.673   5.799  1.4256 -0.2124  1.3658
18782SOL     OW59237   7.826   6.065   6.715 -0.0485 -0.2371  0.4445
18782SOL    HW159238   7.735   6.079   6.740 -0.7606  0.0638 -2.0297
18782SOL    HW259239   7.835   5.970   6.709 -0.8866 -0.2522 -1.3470
18783SOL     OW59240   7.966   8.904   7.531 -0.6153 -0.2956  0.3231
18783SOL    HW159241   8.042   8.946   7.571 -0.6797 -0.3367  0.4917
18783SOL    HW259242   7.978   8.811   7.547 -0.9396 -0.2623  0.7715
18784SOL     OW59243   6.669   2.808   5.055 -0.0699  0.3861  0.4091
18784SOL    HW159244   6.731   2.791   5.126 -0.0973 -0.7953  0.1757
18784SOL    HW259245   6.584   2.814   5.099  0.2213  2.5284  0.7937
18785SOL     OW59246   2.274   4.806   0.191 -0.0630 -0.4594 -0.2400
18785SOL    HW159247   2.261   4.763   0.106 -1.1013 -2.9286  1.0725
18785SOL    HW259248   2.190   4.848   0.209  0.2430  0.2973 -0.5040
18786SOL     OW59249   3.584   6.560   6.145 -0.1468 -0.2912 -0.6978
18786SOL    HW159250   3.596   6.523   6.232 -1.3288 -2.3644 -1.3590
18786SOL    HW259251   3.672   6.589   6.119  0.2942 -0.0313  0.9788
18787SOL     OW59252   2.691   9.094   6.221 -0.1515  0.0126 -0.1578
18787SOL    HW159253   2.705   9.118   6.129 -1.2747  0.5832 -0.1869
18787SOL    HW259254   2.665   9.002   6.217  1.5337 -0.5029 -0.2482
18788SOL     OW59255   9.037   4.783   0.328 -0.1447 -0.3294  0.2968
18788SOL    HW159256   9.118   4.833   0.335  0.1422 -0.1794 -2.6681
18788SOL    HW259257   9.066   4.693   0.310 -0.6685 -0.6745  1.1081
18789SOL     OW59258   3.756   2.897   1.683 -0.6414 -0.5725  0.1464
18789SOL    HW159259   3.715   2.970   1.729 -0.3658 -0.8660  0.8621
18789SOL    HW259260   3.738   2.821   1.738  0.0388 -0.8633 -0.0228
18790SOL     OW59261   3.509   9.233   6.631  0.3375 -0.7685 -0.2203
18790SOL    HW159262   3.536   9.145   6.657  0.9682 -0.3272  0.7093
18790SOL    HW259263   3.414   9.233   6.640  0.3940 -1.1546  0.4705
18791SOL     OW59264   5.656   7.604   6.866  0.4136  0.3149 -0.7911
18791SOL    HW159265   5.684   7.520   6.830 -1.8427 -0.4433 -0.9200
18791SOL    HW259266   5.652   7.663   6.790  0.1847  0.0065 -1.0195
18792SOL     OW59267   8.291   7.804   6.788 -0.5914 -0.1651 -0.2616
18792SOL    HW159268   8.343   7.879   6.816 -1.5180  0.6646 -0.6935
18792SOL    HW259269   8.221   7.798   6.853 -1.0370 -0.0822 -0.7283
18793SOL     OW59270   2.293   8.693   7.605 -0.6884  0.1325  0.0095
18793SOL    HW159271   2.335   8.764   7.556 -0.2807 -0.5307 -0.6199
18793SOL    HW259272   2.237   8.738   7.668  1.0995  1.0611  1.0005
18794SOL     OW59273   3.838   4.808   3.447 -0.2803 -0.3883  0.1629
18794SOL    HW159274   3.744   4.809   3.463 -0.3341  1.5635  0.0266
18794SOL    HW259275   3.849   4.852   3.362  0.8364  1.2316  1.0711
18795SOL     OW59276   4.104   7.793   7.390 -0.6524  0.5838 -0.5292
18795SOL    HW159277   4.111   7.825   7.300 -1.3051  0.0934 -0.7603
18795SOL    HW259278   4.101   7.873   7.443 -2.8438  0.9649 -1.1355
18796SOL     OW59279   3.871   2.852   4.469 -0.1210 -0.0478 -0.4799
18796SOL    HW159280   3.890   2.918   4.402  0.7329 -0.1915 -0.3846
18796SOL    HW259281   3.775   2.847   4.470 -0.2123  1.2975 -0.3812
18797SOL     OW59282   7.627   7.965   8.011 -0.7292  0.2629 -0.0850
18797SOL    HW159283   7.652   8.056   8.029  0.1386  0.0742 -0.2881
18797SOL    HW259284   7.623   7.924   8.098 -0.3538  0.3031 -0.0482
18798SOL     OW59285   3.726   0.798   7.234  0.0945  0.1434 -0.0331
18798SOL    HW159286   3.771   0.719   7.205  0.5764  1.1884 -2.3548
18798SOL    HW259287   3.640   0.768   7.265  0.5613 -1.3319 -0.1367
18799SOL     OW59288   1.609   5.979   8.290  0.2118 -0.5212 -0.0139
18799SOL    HW159289   1.547   5.907   8.305 -0.4101 -0.4395 -1.8831
18799SOL    HW259290   1.560   6.041   8.235  0.8109  1.2456  1.3733
18800SOL     OW59291   1.589   6.023   7.497  0.4646  0.2960 -0.5390
18800SOL    HW159292   1.591   6.072   7.579 -1.2885  2.8018 -1.8684
18800SOL    HW259293   1.568   5.933   7.523 -0.5470  1.1181  1.7098
18801SOL     OW59294   5.401   6.315   5.051 -0.3185  0.5396 -0.1961
18801SOL    HW159295   5.417   6.268   5.133 -0.7136  1.6202  0.5184
18801SOL    HW259296   5.450   6.265   4.986  1.1742  0.4444  0.9375
18802SOL     OW59297   3.212   0.276   6.838  0.2985  0.3946 -0.2184
18802SOL    HW159298   3.157   0.223   6.780  0.0641 -0.8497  1.0750
18802SOL    HW259299   3.153   0.341   6.875 -0.2643 -0.7513  0.9388
18803SOL     OW59300   7.382   1.637   2.439  0.1180  0.2621 -0.9859
18803SOL    HW159301   7.369   1.651   2.533  0.8980 -0.2104 -0.7999
18803SOL    HW259302   7.470   1.601   2.432  0.0348  0.2137 -1.8969
18804SOL     OW59303   6.455   7.749   2.194  0.0631  0.2559 -0.1818
18804SOL    HW159304   6.453   7.786   2.105  2.7231 -0.8671 -0.8088
18804SOL    HW259305   6.524   7.798   2.239 -0.7734  0.3342  1.0381
18805SOL     OW59306   1.125   7.222   6.426  0.4306 -0.1559  0.2154
18805SOL    HW159307   1.186   7.294   6.441  0.1213  0.0280  0.5878
18805SOL    HW259308   1.132   7.205   6.332 -0.2568  1.0493 -0.0726
18806SOL     OW59309   8.493   6.152   7.217  0.1435  0.0157  0.6381
18806SOL    HW159310   8.447   6.072   7.190  2.5467 -1.3129  0.1733
18806SOL    HW259311   8.583   6.123   7.235  1.9713  3.0119 -2.4026
18807SOL     OW59312   6.342   8.461   7.844  0.2407  0.3019  0.8452
18807SOL    HW159313   6.323   8.367   7.844  0.3412  0.2465 -0.8239
18807SOL    HW259314   6.393   8.475   7.764 -2.4653  2.2917 -0.7006
18808SOL     OW59315   4.980   7.943   6.183 -0.5632 -0.3322 -0.1728
18808SOL    HW159316   5.034   8.022   6.185 -1.2892  0.2871 -2.2531
18808SOL    HW259317   5.036   7.876   6.144  0.1665 -1.0056  1.9021
18809SOL     OW59318   8.173   0.563   5.211  0.1692  0.1650 -0.5816
18809SOL    HW159319   8.190   0.630   5.144 -0.1853  0.3441 -0.4997
18809SOL    HW259320   8.252   0.510   5.213  1.1344  1.5804  0.5382
18810SOL     OW59321   6.640   5.835   4.890 -0.5036  0.4078  0.0533
18810SOL    HW159322   6.576   5.838   4.819 -2.1293 -1.8706  1.2662
18810SOL    HW259323   6.598   5.882   4.962  0.2232  0.9164  0.1516
18811SOL     OW59324   3.875   7.856   6.819 -0.4824  0.2437 -0.1085
18811SOL    HW159325   3.795   7.855   6.870 -0.8082 -1.4633 -0.5867
18811SOL    HW259326   3.849   7.824   6.732  0.6028  0.2208 -0.4446
18812SOL     OW59327   0.154   3.964   1.509  0.3695 -0.3485 -0.1086
18812SOL    HW159328   0.118   3.940   1.424  0.2093 -4.5475  0.9105
18812SOL    HW259329   0.225   3.901   1.524  0.4033  0.2255  2.8711
18813SOL     OW59330   2.295   4.869   0.507 -0.3181 -0.4388 -0.7499
18813SOL    HW159331   2.284   4.817   0.586  1.9529 -1.9745 -1.3633
18813SOL    HW259332   2.328   4.954   0.538 -2.1725  0.0455  0.0929
18814SOL     OW59333   5.210   1.306   2.166  0.5893 -0.0589 -0.1040
18814SOL    HW159334   5.213   1.321   2.261 -0.2656 -0.1782 -0.0515
18814SOL    HW259335   5.284   1.248   2.149  2.1598  1.7507  0.1311
18815SOL     OW59336   4.536   3.098   2.096  0.0805 -0.3329  0.0791
18815SOL    HW159337   4.554   3.059   2.010 -0.6772 -0.5367  0.0070
18815SOL    HW259338   4.581   3.182   2.094 -0.0328 -0.2828 -0.5671
18816SOL     OW59339   7.154   2.125   1.609 -0.1420 -0.4530 -0.3249
18816SOL    HW159340   7.131   2.101   1.519 -1.9681 -0.5351  0.1189
18816SOL    HW259341   7.243   2.091   1.621 -0.8215 -2.7580 -1.2776
18817SOL     OW59342   7.276   5.805   8.208 -0.0855  0.1805  0.0420
18817SOL    HW159343   7.296   5.730   8.151  1.1312 -0.2225  0.9434
18817SOL    HW259344   7.185   5.826   8.189 -0.0873 -0.7610 -1.1127
18818SOL     OW59345   0.966   0.961   8.858 -0.9705 -0.3836 -0.5219
18818SOL    HW159346   0.931   1.004   8.780 -0.3617 -0.1774 -0.6852
18818SOL    HW259347   0.889   0.927   8.904 -1.4699  1.0475 -0.2818
18819SOL     OW59348   1.062   7.848   6.197 -0.1254 -0.2529 -0.0329
18819SOL    HW159349   1.094   7.918   6.140  1.2085 -1.3141 -0.6423
18819SOL    HW259350   1.013   7.790   6.139 -1.0825  0.0563  0.4401
18820SOL     OW59351   4.343   7.563   8.417 -0.2031 -0.4837  0.3571
18820SOL    HW159352   4.313   7.473   8.432  0.1731 -0.4343  1.4768
18820SOL    HW259353   4.388   7.587   8.498  0.1344  0.5424 -0.1219
18821SOL     OW59354   4.242   3.588   2.715  0.2487 -0.2028  0.3644
18821SOL    HW159355   4.198   3.572   2.799  1.0565  0.9494  1.0350
18821SOL    HW259356   4.276   3.502   2.689 -1.9293 -1.0217  0.0604
18822SOL     OW59357   4.190   8.374   1.196 -0.6932 -0.1070 -0.2444
18822SOL    HW159358   4.261   8.312   1.180  1.0749  1.9554 -0.9207
18822SOL    HW259359   4.200   8.396   1.289  0.0940  0.7532 -0.5161
18823SOL     OW59360   8.819   6.829   7.430  0.1772 -0.2159  0.1300
18823SOL    HW159361   8.784   6.788   7.351  1.6084 -0.6315 -0.3165
18823SOL    HW259362   8.909   6.852   7.407  0.6503 -0.4384  1.6737
18824SOL     OW59363   0.934   8.395   6.808 -0.7991  0.1045 -0.6096
18824SOL    HW159364   0.963   8.305   6.821  1.1537  0.3778 -2.4901
18824SOL    HW259365   0.949   8.437   6.892 -1.7689 -1.2742  0.3090
18825SOL     OW59366   9.081   1.608   8.310 -0.2720 -0.3466  0.1020
18825SOL    HW159367   9.095   1.532   8.254  0.2269 -0.1448 -0.0549
18825SOL    HW259368   9.072   1.681   8.249  0.4125 -0.1036  0.2832
18826SOL     OW59369   3.991   5.828   1.174  0.3450  0.4784  0.2738
18826SOL    HW159370   4.011   5.734   1.175 -1.8037 -0.0516  0.5180
18826SOL    HW259371   3.951   5.842   1.088 -2.3182  0.3597  1.3699
18827SOL     OW59372   7.455   6.096   2.280 -0.2187 -0.0615  0.6033
18827SOL    HW159373   7.386   6.159   2.302 -0.6826 -0.4073  0.1637
18827SOL    HW259374   7.533   6.129   2.325 -0.4534  0.8296  0.3690
18828SOL     OW59375   2.267   0.137   7.859 -0.0841 -0.0828 -0.1164
18828SOL    HW159376   2.358   0.107   7.853 -0.1076 -0.2365  0.2638
18828SOL    HW259377   2.217   0.058   7.883 -0.3674 -0.0736 -0.6545
18829SOL     OW59378   2.661   8.568   0.777 -0.0637  0.6089 -0.4613
18829SOL    HW159379   2.582   8.604   0.818  0.0899 -0.4207  0.8174
18829SOL    HW259380   2.640   8.475   0.762  0.9040  0.3067 -0.0442
18830SOL     OW59381   5.514   3.386   3.082  0.1405  0.2217 -0.3276
18830SOL    HW159382   5.518   3.451   3.011  2.2104  0.9404  0.3864
18830SOL    HW259383   5.491   3.436   3.160 -1.7461 -0.5102 -0.3515
18831SOL     OW59384   5.243   3.023   0.875 -0.0279 -0.1096  0.4694
18831SOL    HW159385   5.278   2.956   0.934 -0.1380 -0.2151  0.4140
18831SOL    HW259386   5.217   2.975   0.797 -1.5138 -0.2226  1.0066
18832SOL     OW59387   5.365   1.826   7.493  0.4681  0.4316  0.4390
18832SOL    HW159388   5.438   1.778   7.454  0.2187  1.3295 -1.2163
18832SOL    HW259389   5.399   1.858   7.577  0.6433 -2.5578  1.6389
18833SOL     OW59390   3.386   0.320   8.401  0.6299 -0.0099  0.3696
18833SOL    HW159391   3.440   0.362   8.335  1.2184 -1.7553 -0.3214
18833SOL    HW259392   3.429   0.236   8.417 -2.8014 -2.3552 -1.5889
18834SOL     OW59393   1.541   1.545   0.847  0.5781 -0.1773  0.1497
18834SOL    HW159394   1.599   1.503   0.912 -0.1426 -1.2017  0.1585
18834SOL    HW259395   1.492   1.610   0.897  1.0850  0.0731  0.3245
18835SOL     OW59396   6.030   7.252   2.793  0.2920 -0.1260 -0.3712
18835SOL    HW159397   6.034   7.158   2.775  1.2228 -0.4365  1.2873
18835SOL    HW259398   5.949   7.281   2.750 -0.6135 -1.9060  0.0341
18836SOL     OW59399   6.917   7.099   5.413 -0.0436 -0.4471  0.8438
18836SOL    HW159400   6.962   7.172   5.454 -1.3116  0.2640  1.0439
18836SOL    HW259401   6.831   7.135   5.389 -0.5783 -1.7915  0.6681
18837SOL     OW59402   0.205   2.472   9.111 -0.1726  0.1038  0.3456
18837SOL    HW159403   0.126   2.460   9.164  0.6119 -3.4852  0.9398
18837SOL    HW259404   0.259   2.531   9.163 -0.3951 -1.4737  2.5206
18838SOL     OW59405   1.142   4.399   6.083 -0.4976  0.3257 -0.2538
18838SOL    HW159406   1.058   4.362   6.110  1.0387 -1.6847  2.2172
18838SOL    HW259407   1.187   4.328   6.037  0.6714  0.6726  0.3055
18839SOL     OW59408   3.535   0.180   3.093  0.3160  0.1688 -0.0369
18839SOL    HW159409   3.534   0.105   3.034 -0.2545  0.2105 -0.0810
18839SOL    HW259410   3.588   0.246   3.047  0.5125 -0.0714 -0.1561
18840SOL     OW59411   2.251   3.226   0.016 -0.2860  0.2408  0.0819
18840SOL    HW159412   2.216   3.282   0.085 -0.0681  3.0560 -1.9313
18840SOL    HW259413   2.339   3.260  -0.001  0.2577 -1.3754 -0.5899
18841SOL     OW59414   2.062   4.375   3.529  0.2106  0.1368 -0.4650
18841SOL    HW159415   2.069   4.302   3.468 -1.0501  0.0796 -0.5846
18841SOL    HW259416   1.967   4.388   3.540  0.3704 -0.2971  2.0178
18842SOL     OW59417   5.819   4.628   8.547 -0.7235  0.5420  0.0086
18842SOL    HW159418   5.896   4.573   8.564  1.4080  2.5807 -2.2120
18842SOL    HW259419   5.766   4.621   8.626  2.9830  0.9830  2.8072
18843SOL     OW59420   0.737   4.307   8.569 -0.2325 -0.4261  0.5495
18843SOL    HW159421   0.832   4.318   8.573 -0.2904  0.6511 -0.5642
18843SOL    HW259422   0.723   4.216   8.596  0.9397 -0.0664  2.5630
18844SOL     OW59423   4.013   7.004   5.388  0.5656 -0.7302 -0.4288
18844SOL    HW159424   3.984   6.972   5.302  1.3402 -0.8417 -0.6563
18844SOL    HW259425   3.931   7.021   5.435  0.1247 -0.7142 -1.1666
18845SOL     OW59426   9.234   4.651   0.970 -0.5199  0.1109 -1.1717
18845SOL    HW159427   9.280   4.706   0.907 -0.0970 -0.2232 -1.1583
18845SOL    HW259428   9.247   4.695   1.054  1.9371 -1.2504 -0.7396
18846SOL     OW59429   4.387   5.505   1.979 -0.1480 -0.5869  0.2987
18846SOL    HW159430   4.329   5.453   1.924 -0.3975  1.4756 -1.5110
18846SOL    HW259431   4.459   5.529   1.922 -0.2284  1.3229  0.9301
18847SOL     OW59432   3.558   7.020   2.969 -0.4244 -0.2172  0.2923
18847SOL    HW159433   3.488   7.082   2.947 -1.1197 -1.1632 -0.2321
18847SOL    HW259434   3.534   6.985   3.055  1.0992  1.7800  1.6407
18848SOL     OW59435   2.666   1.522   1.868  0.4086 -0.0952  0.2811
18848SOL    HW159436   2.636   1.552   1.782 -1.8392 -0.0171  1.0067
18848SOL    HW259437   2.759   1.503   1.857 -0.2991 -2.3827 -2.8004
18849SOL     OW59438   6.933   4.146   6.210 -0.5498  0.0627 -0.3107
18849SOL    HW159439   6.839   4.150   6.195 -0.5150  1.5219 -0.2696
18849SOL    HW259440   6.942   4.132   6.304 -0.7136 -0.7693 -0.4095
18850SOL     OW59441   7.715   6.184   3.561  0.5908 -0.2805 -0.4669
18850SOL    HW159442   7.717   6.090   3.545  2.3532 -0.3746  0.1634
18850SOL    HW259443   7.660   6.218   3.490 -1.3018 -1.8901  0.1207
18851SOL     OW59444   6.951   4.584   2.160  0.1243  0.4435 -0.0343
18851SOL    HW159445   7.045   4.568   2.165  0.2549  0.5521 -1.5022
18851SOL    HW259446   6.916   4.556   2.244  1.2724 -1.0449 -0.0262
18852SOL     OW59447   8.369   3.936   8.557 -0.2709  0.3631  0.2327
18852SOL    HW159448   8.370   3.851   8.514  0.4678  0.4567  0.0429
18852SOL    HW259449   8.439   3.930   8.623 -0.5322  0.6589  0.5425
18853SOL     OW59450   6.127   5.689   2.064  0.0943  0.4890  0.0995
18853SOL    HW159451   6.074   5.642   2.000 -0.1383  1.7102 -0.6281
18853SOL    HW259452   6.129   5.632   2.140 -0.0862 -0.7421 -0.7941
18854SOL     OW59453   6.660   2.065   3.005 -0.0739  0.1240 -0.2552
18854SOL    HW159454   6.596   2.122   2.961 -0.3543 -1.8351 -2.6301
18854SOL    HW259455   6.614   1.982   3.016  1.5033 -0.8240 -0.4939
18855SOL     OW59456   4.668   6.341   4.200  0.3608 -0.4283  0.6044
18855SOL    HW159457   4.756   6.378   4.190  1.0290 -2.2004 -0.5453
18855SOL    HW259458   4.652   6.345   4.294  1.8615 -0.4662  0.8992
18856SOL     OW59459   0.960   2.605   2.535  0.4044  0.1821  0.3166
18856SOL    HW159460   1.053   2.596   2.553  0.5354  0.6945 -0.0900
18856SOL    HW259461   0.942   2.541   2.466  0.7579  1.0280 -0.5950
18857SOL     OW59462   6.415   4.252   6.233 -0.1510  0.3354 -0.0611
18857SOL    HW159463   6.469   4.329   6.220 -0.1456  0.0798 -1.8716
18857SOL    HW259464   6.434   4.196   6.158  0.2855 -1.7188  1.4879
18858SOL     OW59465   5.014   0.456   0.048 -0.5582  0.6255  0.4542
18858SOL    HW159466   5.053   0.465   0.135 -0.6073 -0.4195  0.5998
18858SOL    HW259467   4.925   0.427   0.064  0.4755 -3.3132  0.0769
18859SOL     OW59468   1.470   1.825   2.035  0.6075  0.1191 -0.0580
18859SOL    HW159469   1.542   1.862   2.086  1.0462 -1.0475  0.2242
18859SOL    HW259470   1.498   1.735   2.018 -1.8825 -1.2496  2.2950
18860SOL     OW59471   2.834   6.754   4.467 -0.3379 -0.2405 -0.5130
18860SOL    HW159472   2.898   6.726   4.401 -0.6469 -0.7559 -0.6023
18860SOL    HW259473   2.848   6.695   4.541  1.0257  1.2787  0.5121
18861SOL     OW59474   4.140   7.079   4.832  0.3127 -0.7480 -0.3821
18861SOL    HW159475   4.182   7.113   4.911 -1.1457 -0.8641  0.4638
18861SOL    HW259476   4.203   7.016   4.797  1.2151 -0.2799  0.3613
18862SOL     OW59477   1.179   4.687   9.156 -0.8727  0.4793  0.2319
18862SOL    HW159478   1.164   4.598   9.125 -0.2868  0.2206  0.6864
18862SOL    HW259479   1.138   4.742   9.090  0.4380 -0.0599 -1.0924
18863SOL     OW59480   3.085   0.736   4.457 -0.2417  0.4796 -0.0055
18863SOL    HW159481   3.055   0.648   4.434  0.4635 -0.2045  1.5244
18863SOL    HW259482   3.178   0.725   4.479 -0.6722  1.1040  2.4573
18864SOL     OW59483   1.203   5.145   1.862 -0.1171 -0.3294 -0.3629
18864SOL    HW159484   1.260   5.115   1.791  0.2794 -1.1462  0.2859
18864SOL    HW259485   1.134   5.194   1.818 -0.4925 -1.7573 -1.4413
18865SOL     OW59486   8.099   6.459   7.532 -0.2686  0.3649 -0.0332
18865SOL    HW159487   8.042   6.516   7.584 -0.1800 -1.2211  1.9798
18865SOL    HW259488   8.166   6.516   7.496 -1.7465  1.9074 -0.4257
18866SOL     OW59489   8.503   6.640   7.256  0.3485  0.0961 -0.2242
18866SOL    HW159490   8.506   6.600   7.170  2.0845 -0.9287  0.2600
18866SOL    HW259491   8.441   6.587   7.306 -0.9094  0.8874 -0.8816
18867SOL     OW59492   5.482   2.153   4.672  0.4492 -0.7118  0.3700
18867SOL    HW159493   5.484   2.072   4.723 -0.3572 -0.8981  0.1162
18867SOL    HW259494   5.415   2.139   4.606  2.4066 -1.0316 -1.6989
18868SOL     OW59495   4.985   7.802   3.304  0.0808  0.5134  0.0772
18868SOL    HW159496   5.075   7.810   3.334 -0.3104  0.6430  1.2967
18868SOL    HW259497   4.938   7.872   3.351 -0.8928 -0.3810  0.4777
18869SOL     OW59498   2.489   2.496   3.394 -0.0632  0.3824  0.6188
18869SOL    HW159499   2.450   2.544   3.321 -0.8630  0.1727  0.8992
18869SOL    HW259500   2.438   2.415   3.401  0.4784  0.0527  0.9415
18870SOL     OW59501   8.316   5.335   6.213 -0.2009 -0.7853 -0.5934
18870SOL    HW159502   8.407   5.311   6.228 -0.6368 -1.8601  0.5539
18870SOL    HW259503   8.272   5.251   6.197 -1.3879 -0.5726  1.2215
18871SOL     OW59504   1.394   6.475   8.695 -0.5424 -0.5494 -0.3616
18871SOL    HW159505   1.320   6.519   8.738  0.8216  0.7345  0.7756
18871SOL    HW259506   1.424   6.410   8.759 -0.4649 -0.8250 -0.6754
18872SOL     OW59507   0.832   0.115   1.047  0.3977 -0.2425  0.5217
18872SOL    HW159508   0.905   0.055   1.031 -0.2859 -0.7831 -0.7374
18872SOL    HW259509   0.855   0.194   0.998  1.1766  0.4585  1.9704
18873SOL     OW59510   7.297   8.278   8.760 -0.2808  0.6317  0.0561
18873SOL    HW159511   7.338   8.361   8.783 -1.4168  1.4768 -0.8136
18873SOL    HW259512   7.214   8.303   8.718  0.4760 -0.8102 -2.5535
18874SOL     OW59513   0.303   1.343   7.920 -0.9157  0.0883  0.1160
18874SOL    HW159514   0.280   1.411   7.983  0.3865 -0.3080  1.0688
18874SOL    HW259515   0.379   1.378   7.874 -1.2477 -0.0494 -0.5508
18875SOL     OW59516   0.700   2.798   0.405 -0.2624  0.6561 -0.0505
18875SOL    HW159517   0.692   2.810   0.500 -0.5930  1.8728 -0.2141
18875SOL    HW259518   0.785   2.835   0.383 -0.5716  1.2079 -0.3440
18876SOL     OW59519   5.963   3.001   0.931  0.1678  0.0280 -0.8064
18876SOL    HW159520   5.955   3.018   0.838 -0.7072  3.2436 -0.2648
18876SOL    HW259521   5.987   3.085   0.969  3.1654 -1.7252  1.6503
18877SOL     OW59522   7.282   6.923   7.997 -0.5616  0.1615  0.0457
18877SOL    HW159523   7.233   6.956   8.073 -1.5247  0.6144 -0.7618
18877SOL    HW259524   7.239   6.962   7.921 -1.4284 -2.5167 -0.9330
18878SOL     OW59525   9.171   0.507   7.905 -0.1881 -0.4038  0.7517
18878SOL    HW159526   9.236   0.488   7.838 -0.3740 -2.6120  1.1206
18878SOL    HW259527   9.114   0.573   7.865  0.7215 -0.3914 -0.5817
18879SOL     OW59528   8.014   9.071   3.886  0.6095  0.3287  0.2786
18879SOL    HW159529   8.096   9.082   3.839  0.8694 -0.2298  0.5957
18879SOL    HW259530   8.018   8.983   3.923 -0.7743 -0.2951 -0.9363
18880SOL     OW59531   0.255   2.940   2.065  0.3687 -0.2001  0.0571
18880SOL    HW159532   0.200   2.862   2.077 -0.8812  0.3755 -1.5373
18880SOL    HW259533   0.199   3.013   2.091  0.9218  0.2811 -0.0829
18881SOL     OW59534   2.578   7.266   1.191  0.4383  0.1342 -0.3973
18881SOL    HW159535   2.541   7.331   1.251 -0.4604  0.4542 -1.2654
18881SOL    HW259536   2.553   7.297   1.104 -0.3002 -1.5435 -0.8206
18882SOL     OW59537   1.331   1.042   9.218  0.6233  0.2543 -0.7328
18882SOL    HW159538   1.274   1.024   9.293 -0.9419 -0.7321 -2.1013
18882SOL    HW259539   1.303   0.981   9.151  1.5047  1.5839 -2.3926
18883SOL     OW59540   7.759   9.033   5.952 -0.0383  0.0458  0.1763
18883SOL    HW159541   7.672   9.004   5.978  0.2220 -0.2612  0.7241
18883SOL    HW259542   7.785   9.096   6.019  0.1285  0.1931 -0.0253
18884SOL     OW59543   8.313   2.680   0.365 -0.1740  0.3577  0.5212
18884SOL    HW159544   8.220   2.701   0.379 -0.5011 -1.2750  0.9676
18884SOL    HW259545   8.359   2.736   0.428 -0.6871  2.4217 -0.8405
18885SOL     OW59546   4.359   2.722   6.540  0.1591 -0.3221  0.1867
18885SOL    HW159547   4.357   2.681   6.454  0.5714  0.2931 -0.1293
18885SOL    HW259548   4.442   2.695   6.578 -0.1802 -0.8759  0.5368
18886SOL     OW59549   7.599   3.358   6.647  0.1420 -0.2157  0.2405
18886SOL    HW159550   7.645   3.369   6.730  0.5738 -1.5061  0.1907
18886SOL    HW259551   7.669   3.342   6.583 -0.3257 -1.8986  0.1097
18887SOL     OW59552   2.441   5.189   1.712  0.2694 -0.1580  0.0842
18887SOL    HW159553   2.455   5.247   1.637 -1.1083  0.1983  0.0806
18887SOL    HW259554   2.512   5.125   1.706 -0.4450 -0.8325 -2.2049
18888SOL     OW59555   9.040   2.080   5.927  0.1794 -0.7528  0.1606
18888SOL    HW159556   8.988   2.077   5.846  0.5320 -2.2385 -0.0349
18888SOL    HW259557   9.021   1.997   5.971  0.6178 -0.3067  1.2187
18889SOL     OW59558   5.703   0.419   7.154  0.3856 -0.1739 -0.4431
18889SOL    HW159559   5.667   0.341   7.196  0.8413 -0.8983 -1.3740
18889SOL    HW259560   5.659   0.492   7.197 -0.6180 -0.9704 -0.0995
18890SOL     OW59561   5.394   4.154   3.469 -0.0927  0.2623 -0.3225
18890SOL    HW159562   5.418   4.062   3.484  0.9883  0.4521 -0.7353
18890SOL    HW259563   5.380   4.160   3.374  1.7551  0.9070 -0.6017
18891SOL     OW59564   8.631   6.341   2.840  0.3389  0.3163  0.2109
18891SOL    HW159565   8.568   6.410   2.817 -0.5671 -1.1089 -2.0240
18891SOL    HW259566   8.697   6.345   2.771  0.5703 -0.6713  0.3571
18892SOL     OW59567   4.947   3.924   1.496 -0.1522 -0.5100  0.5417
18892SOL    HW159568   4.925   3.876   1.416 -1.4673  0.6156  0.1943
18892SOL    HW259569   4.940   4.017   1.471  1.9134 -0.0830  1.2974
18893SOL     OW59570   5.403   1.422   4.297 -0.3476 -0.7759  0.2110
18893SOL    HW159571   5.389   1.454   4.208  1.5607  0.2512  0.2180
18893SOL    HW259572   5.317   1.427   4.338 -1.4162 -1.9680 -1.7584
18894SOL     OW59573   3.137   3.371   4.738  0.2985 -0.0581  0.1572
18894SOL    HW159574   3.058   3.318   4.734  1.1475 -1.3287 -0.6159
18894SOL    HW259575   3.154   3.382   4.832 -0.4702 -0.2443  0.3255
18895SOL     OW59576   2.851   8.297   2.433  0.4106  0.1767 -0.1566
18895SOL    HW159577   2.849   8.330   2.523  1.0598  1.2334 -0.5101
18895SOL    HW259578   2.773   8.243   2.426  0.9308 -0.8362  1.3767
18896SOL     OW59579   7.629   2.955   5.124 -0.0063  0.1952 -0.3447
18896SOL    HW159580   7.663   3.002   5.047  3.4020 -0.7345  0.4148
18896SOL    HW259581   7.628   3.021   5.193 -0.5663  0.4273 -0.5731
18897SOL     OW59582   7.176   0.557   1.162 -0.0808 -0.2077 -0.3202
18897SOL    HW159583   7.168   0.607   1.081 -0.6974 -0.2353 -0.2822
18897SOL    HW259584   7.267   0.569   1.189 -0.3977  1.4583  0.0646
18898SOL     OW59585   6.720   3.112   4.242  0.3756 -0.2315  0.5637
18898SOL    HW159586   6.766   3.182   4.289  0.1851  4.2025 -4.8171
18898SOL    HW259587   6.627   3.126   4.262  0.4485 -0.0732  0.7917
18899SOL     OW59588   8.178   3.798   2.710 -0.1763  0.3355 -0.1415
18899SOL    HW159589   8.158   3.707   2.733 -0.3744 -0.0234 -1.6578
18899SOL    HW259590   8.143   3.849   2.783 -1.8540 -0.6621 -0.1971
18900SOL     OW59591   9.103   6.943   7.345  0.7113 -0.2309 -0.2021
18900SOL    HW159592   9.109   6.927   7.251 -1.7439  0.8309 -0.6113
18900SOL    HW259593   9.043   7.016   7.353  0.9361 -0.2401  2.2182
18901SOL     OW59594   4.698   1.338   7.104  0.1572 -0.0658 -0.0736
18901SOL    HW159595   4.784   1.304   7.130 -0.8486 -0.7379  2.7626
18901SOL    HW259596   4.712   1.374   7.017  3.5001  0.5524  0.5691
18902SOL     OW59597   1.095   1.000   4.553  0.4814  0.1465 -0.1020
18902SOL    HW159598   1.116   1.061   4.625  1.7308  1.6896 -1.6894
18902SOL    HW259599   1.018   1.038   4.512  0.0688 -0.4654  0.0899
18903SOL     OW59600   4.254   0.255   5.590 -0.5223 -0.2029 -0.1723
18903SOL    HW159601   4.240   0.345   5.560 -1.1952 -0.2579 -0.0559
18903SOL    HW259602   4.233   0.257   5.683 -1.0985 -0.5918 -0.2843
18904SOL     OW59603   0.985   7.433   6.211  0.1234 -0.9296  0.1229
18904SOL    HW159604   1.069   7.390   6.225  0.4534 -0.9213 -1.6618
18904SOL    HW259605   0.933   7.408   6.288  1.5129 -1.4747  0.9333
18905SOL     OW59606   1.935   9.227   8.370 -0.7150 -0.0553  0.5132
18905SOL    HW159607   1.933   9.133   8.386 -0.2134 -0.2316 -0.3763
18905SOL    HW259608   1.844   9.255   8.381 -0.4090 -0.0262  4.0203
18906SOL     OW59609   4.373   4.887   2.828  0.2877 -0.7166 -0.6043
18906SOL    HW159610   4.283   4.919   2.826  0.5981  0.2225 -0.2785
18906SOL    HW259611   4.393   4.867   2.736 -0.2004 -0.7686 -0.7001
18907SOL     OW59612   2.828   5.331   2.113 -0.6955  0.0848  0.5840
18907SOL    HW159613   2.869   5.412   2.086  1.1564 -0.7167  0.8816
18907SOL    HW259614   2.762   5.314   2.046  0.5523  0.5846 -0.8215
18908SOL     OW59615   2.883   3.377   5.098 -1.1027  0.7779  0.8038
18908SOL    HW159616   2.933   3.442   5.147 -0.6705  0.3127  0.9909
18908SOL    HW259617   2.814   3.350   5.159  0.2106 -0.7701  1.7154
18909SOL     OW59618   0.720   0.994   5.119 -0.7854  0.3126  0.9095
18909SOL    HW159619   0.761   1.058   5.177  0.4063  0.2248  0.1915
18909SOL    HW259620   0.711   0.915   5.173 -3.7718  1.4344  2.3427
18910SOL     OW59621   6.186   8.773   6.059  0.0354  0.4975  0.1949
18910SOL    HW159622   6.242   8.751   6.133  2.2340  1.7706 -0.9914
18910SOL    HW259623   6.247   8.800   5.990 -2.0315  1.5063 -1.3402
18911SOL     OW59624   0.457   5.390   2.511  0.2906 -0.3120  0.1004
18911SOL    HW159625   0.489   5.335   2.582  4.7294 -0.8418 -1.9528
18911SOL    HW259626   0.516   5.371   2.437 -1.1989  3.3928 -2.3781
18912SOL     OW59627   8.684   3.749   4.260 -0.2815  0.4579 -0.4794
18912SOL    HW159628   8.738   3.826   4.244  1.5307 -0.8674 -0.9496
18912SOL    HW259629   8.666   3.752   4.354  0.9103  0.7361 -0.2448
18913SOL     OW59630   3.692   4.542   8.382  0.2259 -0.1784  0.3268
18913SOL    HW159631   3.742   4.536   8.301 -0.4673 -1.4534 -0.0291
18913SOL    HW259632   3.721   4.467   8.435 -0.5604 -0.3579  0.5297
18914SOL     OW59633   2.820   2.928   0.572 -0.2686  0.6367  0.2967
18914SOL    HW159634   2.763   2.997   0.537 -0.5342 -0.5628 -1.7656
18914SOL    HW259635   2.906   2.948   0.537  0.2258  1.3159  1.7977
18915SOL     OW59636   3.542   2.504   3.257 -0.1648  0.1477  0.0361
18915SOL    HW159637   3.499   2.462   3.182 -1.2158 -0.1153  0.7664
18915SOL    HW259638   3.576   2.586   3.221  0.0329 -0.3384 -0.9108
18916SOL     OW59639   8.795   4.315   3.031 -0.0690  0.2481  0.4198
18916SOL    HW159640   8.802   4.410   3.029  1.3180  0.1660 -0.1178
18916SOL    HW259641   8.710   4.296   2.992 -0.4111  1.2656  0.6401
18917SOL     OW59642   0.947   6.984   7.578  0.5681 -0.0328 -0.4150
18917SOL    HW159643   0.899   6.950   7.653  0.0502  0.2166 -0.6326
18917SOL    HW259644   1.020   7.033   7.616  0.1200  0.3700 -0.0769
18918SOL     OW59645   6.622   7.912   4.981 -0.5554  0.1654 -0.0319
18918SOL    HW159646   6.610   7.868   5.065  1.1020  0.2777  0.3041
18918SOL    HW259647   6.565   7.865   4.920 -0.0275 -1.4584  0.6570
18919SOL     OW59648   8.677   5.582   4.277 -0.4863  0.3141 -0.2118
18919SOL    HW159649   8.683   5.607   4.185 -1.9958 -0.4343 -0.5409
18919SOL    HW259650   8.583   5.576   4.294 -0.2374  0.9169  1.5168
18920SOL     OW59651   2.647   0.871   9.103  0.0025  0.4316  0.2979
18920SOL    HW159652   2.715   0.939   9.109 -1.2172  1.7438 -0.1581
18920SOL    HW259653   2.589   0.888   9.177 -0.4943  0.0956 -0.0072
18921SOL     OW59654   0.738   4.255   0.390 -0.0794 -0.2576 -0.4609
18921SOL    HW159655   0.679   4.192   0.348  2.0045 -3.0663  0.4511
18921SOL    HW259656   0.736   4.232   0.483 -0.6954  2.4109  0.2638
18922SOL     OW59657   8.993   5.960   2.554 -0.1963  0.0866  0.1065
18922SOL    HW159658   9.069   5.968   2.611 -0.6553 -1.7231  1.0436
18922SOL    HW259659   8.925   5.922   2.609 -0.9745 -0.8059 -1.3960
18923SOL     OW59660   0.395   4.374   2.722  0.0999 -0.2922 -0.4375
18923SOL    HW159661   0.413   4.281   2.736 -0.2792 -0.0258  2.5058
18923SOL    HW259662   0.300   4.381   2.728  0.1945  0.3924  0.5696
18924SOL     OW59663   0.600   4.861   8.927 -0.1494 -0.5782 -1.1880
18924SOL    HW159664   0.529   4.849   8.865  0.5154  1.0777 -2.3514
18924SOL    HW259665   0.617   4.956   8.926  0.2379 -0.5620  1.1411
18925SOL     OW59666   4.389   2.886   2.698 -0.2802  0.1178  0.0787
18925SOL    HW159667   4.476   2.918   2.721  0.1973  1.1791 -2.7789
18925SOL    HW259668   4.346   2.960   2.655 -2.9655 -0.1311  2.0400
18926SOL     OW59669   2.451   6.739   5.333  0.5548 -0.7273 -0.3304
18926SOL    HW159670   2.392   6.682   5.283 -1.4337  1.0232 -0.1127
18926SOL    HW259671   2.495   6.792   5.267 -0.8540  0.4399 -0.4016
18927SOL     OW59672   6.990   9.208   8.391 -0.3297 -0.1993 -0.0719
18927SOL    HW159673   6.975   9.270   8.462  0.8347 -0.3378  0.3090
18927SOL    HW259674   7.059   9.247   8.339 -1.5764  0.1964 -1.5135
18928SOL     OW59675   2.067   5.724   6.403 -0.3780 -0.5096  0.3071
18928SOL    HW159676   2.012   5.645   6.404 -1.6843  0.3836  0.6980
18928SOL    HW259677   2.019   5.788   6.455  0.1224  0.9115 -0.8935
18929SOL     OW59678   1.568   7.102   0.571 -0.1813 -0.2366 -0.1032
18929SOL    HW159679   1.618   7.028   0.535  0.1588  0.2938 -0.7557
18929SOL    HW259680   1.615   7.180   0.540  1.1561  0.2836  2.9450
18930SOL     OW59681   0.255   8.923   7.728  0.1333 -0.1893  0.3266
18930SOL    HW159682   0.199   8.933   7.652 -1.4437  0.2446  1.4801
18930SOL    HW259683   0.341   8.957   7.700 -0.4603  0.1592 -1.1542
18931SOL     OW59684   5.821   6.914   6.930 -0.0011  0.2103 -0.1125
18931SOL    HW159685   5.734   6.892   6.898 -0.3522  0.3419  0.7255
18931SOL    HW259686   5.858   6.830   6.957  0.3820  0.0660 -1.0261
18932SOL     OW59687   6.980   1.076   1.899  0.0383 -0.8222  0.6307
18932SOL    HW159688   6.999   0.986   1.925  1.6206 -0.3250  1.3629
18932SOL    HW259689   7.065   1.110   1.870 -0.7252  0.1631 -0.4977
18933SOL     OW59690   4.695   2.161   0.109  0.5221 -0.2457  0.2559
18933SOL    HW159691   4.657   2.239   0.068 -0.6473  0.5480  2.6540
18933SOL    HW259692   4.638   2.089   0.081  1.5318 -0.3105 -1.8698
18934SOL     OW59693   8.014   2.606   4.980 -0.0883 -0.3955  0.1368
18934SOL    HW159694   7.999   2.559   5.062 -0.5575  0.0110  0.2940
18934SOL    HW259695   7.934   2.591   4.930  0.4845 -1.2465 -0.5617
18935SOL     OW59696   7.399   6.312   2.938  0.2407 -0.6570  0.2176
18935SOL    HW159697   7.435   6.247   2.878  0.1096 -0.5349  0.0045
18935SOL    HW259698   7.426   6.282   3.025  1.1324 -0.3830  0.0372
18936SOL     OW59699   0.213   6.846   6.387 -0.7283 -0.3445 -0.3479
18936SOL    HW159700   0.139   6.825   6.443 -0.5321  1.2076  0.5652
18936SOL    HW259701   0.243   6.932   6.418  0.1214  0.0384 -2.0720
18937SOL     OW59702   6.828   1.668   0.705 -0.3293 -0.6088  0.4843
18937SOL    HW159703   6.832   1.627   0.618 -1.5129 -1.8851  1.0009
18937SOL    HW259704   6.742   1.709   0.708  0.2738  0.7122  0.5402
18938SOL     OW59705   5.529   4.164   4.340 -0.2217  0.2326  0.9046
18938SOL    HW159706   5.523   4.123   4.253  0.8194 -0.1607  1.0039
18938SOL    HW259707   5.619   4.149   4.367 -0.5208  0.4042  2.0420
18939SOL     OW59708   3.130   7.096   7.708 -0.3542  0.1330  0.4260
18939SOL    HW159709   3.048   7.068   7.667  0.1998 -2.8965  1.1597
18939SOL    HW259710   3.117   7.078   7.801  1.3790 -1.1962  0.4547
18940SOL     OW59711   4.486   5.207   4.678 -0.2231  0.3883 -0.2611
18940SOL    HW159712   4.416   5.249   4.628  0.1061  0.8923 -0.3074
18940SOL    HW259713   4.517   5.136   4.621 -0.8649 -0.0062 -0.1289
18941SOL     OW59714   4.126   8.001   7.146 -0.2172 -0.2563 -0.3751
18941SOL    HW159715   4.034   8.012   7.172 -0.4100 -1.0452 -0.6802
18941SOL    HW259716   4.122   7.942   7.070  0.5816 -0.8151  0.0028
18942SOL     OW59717   5.208   4.524   0.748  0.0740 -0.9198 -0.4016
18942SOL    HW159718   5.128   4.484   0.782  1.1430 -2.8889 -0.0376
18942SOL    HW259719   5.278   4.467   0.780  1.5134 -0.0209 -1.8318
18943SOL     OW59720   2.658   7.007   8.470 -0.1260  0.7347 -0.3349
18943SOL    HW159721   2.703   6.937   8.424 -0.8933  0.9054 -1.3871
18943SOL    HW259722   2.656   6.979   8.561  2.7335  1.0656 -0.0937
18944SOL     OW59723   4.166   6.822   0.035  0.3304  0.0396  0.6311
18944SOL    HW159724   4.104   6.891   0.059 -0.1187  0.3872 -1.3528
18944SOL    HW259725   4.159   6.758   0.106 -3.1239 -0.4621  0.0438
18945SOL     OW59726   3.516   8.779   1.418  0.3419  0.2471 -0.2884
18945SOL    HW159727   3.564   8.861   1.429 -0.6469  0.9274 -0.8764
18945SOL    HW259728   3.535   8.751   1.329  0.1416  0.1874 -0.3138
18946SOL     OW59729   3.921   4.124   1.694 -0.2493 -0.7179  0.1659
18946SOL    HW159730   3.935   4.213   1.725 -1.7238  0.2350 -1.7043
18946SOL    HW259731   3.874   4.080   1.765  2.0262 -0.5951  1.8253
18947SOL     OW59732   6.835   9.048   1.204  0.0162 -0.0535 -0.1989
18947SOL    HW159733   6.764   9.047   1.140  0.3687  0.1362 -0.5937
18947SOL    HW259734   6.914   9.032   1.153  0.1110 -1.7773  0.4274
18948SOL     OW59735   6.376   3.652   6.290  0.3707  0.1383 -0.1068
18948SOL    HW159736   6.352   3.734   6.332 -0.3378  0.0739 -0.3730
18948SOL    HW259737   6.456   3.624   6.335  0.3359  0.7153  0.3210
18949SOL     OW59738   1.856   6.175   1.355  0.7934  0.0205 -0.1049
18949SOL    HW159739   1.769   6.214   1.346  0.0262 -1.2894  1.2899
18949SOL    HW259740   1.917   6.248   1.343 -0.5466  1.3653  1.0377
18950SOL     OW59741   7.457   2.337   5.481 -0.1719 -0.1411 -0.0150
18950SOL    HW159742   7.400   2.401   5.522  0.7331  0.3911  0.4473
18950SOL    HW259743   7.539   2.343   5.530  1.5739  1.7226 -2.8687
18951SOL     OW59744   5.800   0.256   7.964  0.4303 -0.0856  0.4642
18951SOL    HW159745   5.790   0.321   8.033 -0.3185 -0.3314  0.6050
18951SOL    HW259746   5.831   0.177   8.010 -3.0196 -1.2447  1.1502
18952SOL     OW59747   6.929   3.259   2.281  0.3478  0.6641  0.0515
18952SOL    HW159748   6.907   3.193   2.216  0.6561 -0.6983  1.2677
18952SOL    HW259749   6.973   3.329   2.233  0.3254 -0.1787 -1.2085
18953SOL     OW59750   6.840   7.543   5.305 -0.1324 -0.2149 -0.2315
18953SOL    HW159751   6.771   7.538   5.239 -1.0936  2.1850  0.4979
18953SOL    HW259752   6.805   7.600   5.373  1.5010 -1.2213  1.5684
18954SOL     OW59753   4.777   0.772   1.831 -0.0628 -0.1545  0.5867
18954SOL    HW159754   4.725   0.757   1.910  1.4315  0.6418  1.7637
18954SOL    HW259755   4.741   0.853   1.794 -0.8831 -0.6249  0.3333
18955SOL     OW59756   5.584   8.084   8.451  0.1691  0.0010  0.9280
18955SOL    HW159757   5.625   8.060   8.368  0.6334  2.4321  0.3682
18955SOL    HW259758   5.652   8.069   8.517  0.4489 -0.1820  0.5995
18956SOL     OW59759   8.552   7.653   6.920 -0.2612  0.0712 -0.0833
18956SOL    HW159760   8.486   7.713   6.954 -1.1558 -0.8321 -0.1372
18956SOL    HW259761   8.516   7.625   6.836  0.0705 -0.6166 -0.0003
18957SOL     OW59762   6.741   4.048   4.472 -0.1664 -0.0816 -0.2384
18957SOL    HW159763   6.816   4.073   4.527 -1.2537 -0.3315  1.4447
18957SOL    HW259764   6.752   4.098   4.391  1.3701  0.5009  0.2968
18958SOL     OW59765   4.159   8.937   3.528 -0.0446 -0.0330 -0.0901
18958SOL    HW159766   4.099   9.009   3.511  1.2983  0.8294 -1.3395
18958SOL    HW259767   4.113   8.883   3.593 -1.6298  1.2267 -0.1012
18959SOL     OW59768   7.244   2.326   2.511 -0.4878  0.3822 -0.0561
18959SOL    HW159769   7.203   2.259   2.566  0.1604 -0.2460 -0.3314
18959SOL    HW259770   7.318   2.282   2.470  1.4276  1.8793  1.6009
18960SOL     OW59771   4.708   2.034   4.884 -0.7163 -0.2576 -0.2105
18960SOL    HW159772   4.712   2.010   4.792  3.0247 -0.4765 -0.1522
18960SOL    HW259773   4.638   1.979   4.921  0.1807 -2.9423 -2.2109
18961SOL     OW59774   5.576   5.330   4.170 -0.0640 -0.2719 -0.1517
18961SOL    HW159775   5.661   5.298   4.200  0.4233  2.2710  1.5101
18961SOL    HW259776   5.566   5.414   4.214 -1.6903  1.3685 -3.3629
18962SOL     OW59777   5.072   5.594   6.598  0.4351  0.3171  0.4644
18962SOL    HW159778   4.978   5.579   6.597  0.5193 -0.4862  2.1160
18962SOL    HW259779   5.100   5.577   6.508 -0.9463  0.3070  0.0172
18963SOL     OW59780   4.831   4.362   8.782 -0.1604 -0.8279  0.3199
18963SOL    HW159781   4.779   4.371   8.862 -1.1251 -0.4855 -0.3193
18963SOL    HW259782   4.796   4.283   8.740  0.4172 -1.0707  0.2929
18964SOL     OW59783   6.693   5.517   5.191  0.3724 -0.0812 -0.1946
18964SOL    HW159784   6.784   5.512   5.221 -0.4589 -1.3585  2.4328
18964SOL    HW259785   6.642   5.479   5.263 -2.4673  2.7022 -0.5243
18965SOL     OW59786   0.420   4.028   1.750  0.5103  0.3278  0.3431
18965SOL    HW159787   0.447   4.116   1.722 -1.4449  1.0403  0.4995
18965SOL    HW259788   0.408   3.979   1.669 -1.1008  1.1067  0.0719
18966SOL     OW59789   4.825   2.107   3.862  0.3712 -0.1175 -0.3881
18966SOL    HW159790   4.862   2.194   3.874 -0.7673  0.3889 -0.4236
18966SOL    HW259791   4.842   2.062   3.945  0.6596  0.2533 -0.2446
18967SOL     OW59792   7.299   7.558   8.825  0.2295  0.7282  0.0421
18967SOL    HW159793   7.390   7.529   8.831 -0.4368 -1.1901  2.7097
18967SOL    HW259794   7.298   7.643   8.867  0.9595  1.3413 -1.1339
18968SOL     OW59795   0.920   2.089   2.401  0.4696 -0.2408  0.2955
18968SOL    HW159796   0.843   2.138   2.433 -0.6860 -0.9907 -1.2128
18968SOL    HW259797   0.917   2.100   2.306  2.9021  0.6078  0.2625
18969SOL     OW59798   4.952   0.809   9.222  0.1314  0.4090 -0.3064
18969SOL    HW159799   5.007   0.743   9.180 -0.9067 -1.1173  0.6107
18969SOL    HW259800   4.980   0.892   9.184  3.4095 -0.1911  0.4686
18970SOL     OW59801   4.730   4.043   3.667 -0.1034  0.1818 -0.2945
18970SOL    HW159802   4.781   3.971   3.630  0.1433 -1.1885  2.4114
18970SOL    HW259803   4.796   4.105   3.699 -0.3084  1.2917 -1.9070
18971SOL     OW59804   2.401   1.230   8.182  0.3257  0.3681  0.2645
18971SOL    HW159805   2.480   1.247   8.131 -1.0104  1.1123 -1.7020
18971SOL    HW259806   2.424   1.157   8.239  2.1170 -0.1379 -1.0126
18972SOL     OW59807   6.985   6.302   6.481 -0.2263 -0.2364 -0.7817
18972SOL    HW159808   7.037   6.233   6.440  0.6707  0.0557 -0.1766
18972SOL    HW259809   7.002   6.292   6.575 -1.0718  0.0273 -0.5916
18973SOL     OW59810   6.627   2.018   0.574  0.4587 -0.1101 -0.2972
18973SOL    HW159811   6.590   1.934   0.547  0.0344  0.5239 -1.7523
18973SOL    HW259812   6.646   2.063   0.493 -1.1873  2.0251  0.4074
18974SOL     OW59813   3.929   0.951   2.326  0.0127  0.6693 -0.6817
18974SOL    HW159814   3.986   1.026   2.343 -0.8732  1.1910  0.0656
18974SOL    HW259815   3.953   0.887   2.393 -1.4489  1.5746  0.7722
18975SOL     OW59816   6.277   0.835   7.859 -0.0982 -0.4756  0.0967
18975SOL    HW159817   6.289   0.779   7.936 -2.3174 -0.2045  0.7027
18975SOL    HW259818   6.320   0.917   7.883 -0.8760 -0.3434  1.1431
18976SOL     OW59819   1.215   7.612   3.075 -0.5171  0.9907 -0.0467
18976SOL    HW159820   1.245   7.560   3.149 -1.6762  0.3480  0.0045
18976SOL    HW259821   1.233   7.703   3.100  1.6335  0.6344 -0.1813
18977SOL     OW59822   4.884   6.380   6.664  0.4112 -0.1847 -0.2292
18977SOL    HW159823   4.941   6.417   6.597  1.5171 -1.6097 -0.1134
18977SOL    HW259824   4.938   6.315   6.709 -1.5432 -2.3381 -0.7678
18978SOL     OW59825   0.423   3.412   6.444  0.6332  0.2516  0.5763
18978SOL    HW159826   0.501   3.400   6.391  1.6030  0.1452  1.9677
18978SOL    HW259827   0.406   3.326   6.482  1.1796  0.7474  2.0222
18979SOL     OW59828   9.034   0.996   3.352  0.1177  0.5572  0.5146
18979SOL    HW159829   9.087   1.070   3.321 -0.0126  0.3473 -0.2448
18979SOL    HW259830   9.004   0.953   3.272  0.5831 -0.6109  0.9511
18980SOL     OW59831   1.470   8.827   5.999  0.1116  0.0517  0.2102
18980SOL    HW159832   1.560   8.856   6.012 -0.4703  1.2179  2.0130
18980SOL    HW259833   1.475   8.765   5.926  2.5770 -1.0326  1.1983
18981SOL     OW59834   7.347   4.735   0.710  0.0614  0.5644 -0.2021
18981SOL    HW159835   7.372   4.823   0.682  0.5588  0.6062  0.3371
18981SOL    HW259836   7.298   4.749   0.792 -1.1063  0.4270 -0.8619
18982SOL     OW59837   1.061   0.275   3.821 -0.3582  0.1454 -0.5550
18982SOL    HW159838   1.141   0.231   3.793 -0.9045  0.2065 -2.2663
18982SOL    HW259839   0.990   0.228   3.778 -1.1904  0.7184  0.1438
18983SOL     OW59840   6.803   1.729   5.067  0.1051  0.3142  0.4624
18983SOL    HW159841   6.811   1.808   5.013 -3.0501  0.2276 -0.3371
18983SOL    HW259842   6.799   1.657   5.004 -0.8008 -0.0701  0.9368
18984SOL     OW59843   3.731   4.784   5.469 -0.1645 -0.1427  0.3879
18984SOL    HW159844   3.768   4.766   5.555 -0.5819 -1.0905  0.3829
18984SOL    HW259845   3.798   4.836   5.424  0.3401 -0.2171  1.0444
18985SOL     OW59846   2.295   7.355   3.291  0.0848 -0.0594 -0.4534
18985SOL    HW159847   2.386   7.386   3.293 -0.4504  1.6843 -1.1550
18985SOL    HW259848   2.245   7.431   3.261 -1.7911 -0.5157  1.2969
18986SOL     OW59849   6.454   1.045   5.198 -0.1761  0.3604  0.9028
18986SOL    HW159850   6.379   1.028   5.254 -0.9632 -1.8684 -0.7018
18986SOL    HW259851   6.445   0.983   5.126  2.5270  0.9060 -0.0174
18987SOL     OW59852   1.693   0.729   5.842 -0.4198  0.1871 -0.1873
18987SOL    HW159853   1.784   0.698   5.837 -0.8879 -1.1942 -0.5839
18987SOL    HW259854   1.641   0.649   5.847 -1.5029  0.9185  3.0648
18988SOL     OW59855   4.230   3.369   8.013 -0.1146  0.7177 -0.2191
18988SOL    HW159856   4.146   3.398   8.048 -0.6425 -1.0151  0.0656
18988SOL    HW259857   4.279   3.340   8.090 -0.7852 -1.9004 -0.6567
18989SOL     OW59858   4.555   7.042   7.797  0.2263  0.1787  0.6605
18989SOL    HW159859   4.527   6.983   7.867 -2.5981  2.4351  1.6623
18989SOL    HW259860   4.538   7.129   7.831 -0.6359  1.4159 -2.5576
18990SOL     OW59861   8.734   7.185   0.745 -0.2797 -0.5634  0.2254
18990SOL    HW159862   8.809   7.128   0.729 -0.5329 -0.8273 -0.0393
18990SOL    HW259863   8.696   7.198   0.658 -0.3177 -0.1228  0.3086
18991SOL     OW59864   2.376   7.310   8.450  0.0869 -0.3959 -0.1566
18991SOL    HW159865   2.354   7.361   8.372 -0.9769 -2.8055 -1.5288
18991SOL    HW259866   2.319   7.346   8.519 -1.4040 -0.3735 -1.3521
18992SOL     OW59867   4.708   8.908   2.695 -0.9497 -0.4383  0.1552
18992SOL    HW159868   4.762   8.842   2.738  1.5320  1.1432 -0.3219
18992SOL    HW259869   4.682   8.868   2.612 -1.7234 -1.7277  0.9843
18993SOL     OW59870   2.638   5.490   3.972  0.2934  0.5477  0.1840
18993SOL    HW159871   2.703   5.532   4.028  0.0083  0.6495  0.4412
18993SOL    HW259872   2.608   5.560   3.914  0.9401  0.3280 -0.4273
18994SOL     OW59873   2.701   0.684   4.517  0.5681 -0.1601  0.1877
18994SOL    HW159874   2.616   0.688   4.561 -0.1876 -2.6887 -0.8203
18994SOL    HW259875   2.679   0.667   4.426  2.1539 -0.5779 -0.1372
18995SOL     OW59876   4.292   0.450   1.038 -0.0602  0.7452 -0.2457
18995SOL    HW159877   4.217   0.397   1.067 -0.8751  1.1468 -1.5137
18995SOL    HW259878   4.258   0.500   0.963  1.3809  1.2298 -0.6052
18996SOL     OW59879   6.911   5.654   8.844 -0.3760 -0.0040 -0.3405
18996SOL    HW159880   7.001   5.674   8.818 -0.4244 -0.2512 -0.7026
18996SOL    HW259881   6.888   5.576   8.794  0.2223 -1.7031  1.9224
18997SOL     OW59882   6.935   6.863   5.555 -0.1895 -0.0987 -0.0388
18997SOL    HW159883   6.939   6.936   5.494  0.0439 -1.0327 -1.1933
18997SOL    HW259884   6.846   6.830   5.547 -0.6712  0.7952  1.4013
18998SOL     OW59885   7.592   1.886   4.188 -0.8332 -0.3971  0.3422
18998SOL    HW159886   7.538   1.960   4.217  1.5663  1.7231 -0.3617
18998SOL    HW259887   7.681   1.909   4.214  0.2428 -2.2645 -1.4341
18999SOL     OW59888   4.235   7.236   0.002  0.6108 -0.2333 -0.0110
18999SOL    HW159889   4.169   7.167   0.004  0.6240 -0.2334  0.5518
18999SOL    HW259890   4.305   7.205   0.059  1.3770 -0.4974 -1.0722
19000SOL     OW59891   3.553   3.958   2.775 -0.0469 -0.6574 -0.3930
19000SOL    HW159892   3.551   3.865   2.756  0.2966 -0.8166  0.3268
19000SOL    HW259893   3.520   4.000   2.695 -1.2892 -1.4430 -0.3014
19001SOL     OW59894   8.634   6.043   2.273 -0.1335 -0.0469 -0.1697
19001SOL    HW159895   8.729   6.054   2.279 -0.1769  0.7221 -0.8058
19001SOL    HW259896   8.616   5.967   2.328  0.8316 -0.1122  0.0810
19002SOL     OW59897   4.062   2.729   6.256 -0.1065  0.4897 -0.3915
19002SOL    HW159898   4.092   2.662   6.318  0.9169  1.2113 -0.0768
19002SOL    HW259899   4.030   2.800   6.312  0.5537  1.0243 -0.6820
19003SOL     OW59900   8.894   9.207   6.687  0.6279 -0.1533 -0.5012
19003SOL    HW159901   8.854   9.125   6.656  1.6718 -1.2969  0.9855
19003SOL    HW259902   8.870   9.272   6.621 -1.0407 -1.4399 -1.2518
19004SOL     OW59903   4.201   7.231   7.227 -0.1345  0.2835  0.0175
19004SOL    HW159904   4.178   7.146   7.190 -0.4403  0.1400  0.5245
19004SOL    HW259905   4.149   7.237   7.308  0.8940  0.3690  0.6861
19005SOL     OW59906   7.939   2.575   9.029  0.1341 -0.2669  0.0662
19005SOL    HW159907   7.979   2.657   8.999 -1.8242  0.3321 -1.0812
19005SOL    HW259908   7.984   2.507   8.979  0.7420  0.2313 -0.0802
19006SOL     OW59909   6.201   5.893   0.195 -0.6330  0.0022  0.6954
19006SOL    HW159910   6.109   5.869   0.180 -0.1015 -1.0215 -1.2570
19006SOL    HW259911   6.248   5.810   0.196  0.4240  0.5816  0.5625
19007SOL     OW59912   8.280   8.037   4.136 -0.2705 -0.3277  0.3077
19007SOL    HW159913   8.339   8.112   4.140 -0.9280  0.1571  1.3206
19007SOL    HW259914   8.303   7.984   4.212  0.9071 -1.7459 -0.9650
19008SOL     OW59915   0.325   8.184   2.758 -0.2184 -0.1963  0.2514
19008SOL    HW159916   0.282   8.108   2.718  0.9146  0.0085 -1.4469
19008SOL    HW259917   0.252   8.240   2.787 -1.1131 -0.5106 -1.2774
19009SOL     OW59918   7.617   7.648   1.951 -0.0719  0.0848 -0.5999
19009SOL    HW159919   7.662   7.627   1.869  0.0280  0.9318 -0.7674
19009SOL    HW259920   7.580   7.564   1.980  0.9861 -0.4822 -0.8370
19010SOL     OW59921   0.099   3.352   8.536  0.2752 -0.0822  0.2205
19010SOL    HW159922   0.037   3.413   8.495 -0.9359 -1.2494  0.2498
19010SOL    HW259923   0.094   3.373   8.629  2.4053  2.0092 -0.0573
19011SOL     OW59924   4.704   1.866   6.793  0.1701 -0.2445  0.2088
19011SOL    HW159925   4.650   1.787   6.793 -1.8231  1.0302 -1.0456
19011SOL    HW259926   4.686   1.907   6.877 -0.3059 -0.1840  0.0837
19012SOL     OW59927   0.617   3.621   1.887 -0.1171 -0.9562  0.4948
19012SOL    HW159928   0.667   3.679   1.946  0.2000 -0.7998  0.0785
19012SOL    HW259929   0.526   3.634   1.912 -0.1907  0.8348 -0.5570
19013SOL     OW59930   2.784   5.062   8.602  0.6512  0.1793 -0.1332
19013SOL    HW159931   2.715   4.995   8.609  1.2123 -0.3789  0.1777
19013SOL    HW259932   2.820   5.067   8.690  2.2110 -0.8527 -0.6697
19014SOL     OW59933   2.018   8.744   9.223 -0.0376 -0.1113  0.0019
19014SOL    HW159934   2.061   8.760   9.139 -0.0326 -0.4524 -0.0628
19014SOL    HW259935   1.949   8.810   9.227  0.3930  0.3407  0.0386
19015SOL     OW59936   5.546   4.891   3.486 -0.6356 -0.3062  0.1786
19015SOL    HW159937   5.589   4.942   3.416  0.2728 -2.2894 -0.8011
19015SOL    HW259938   5.604   4.901   3.561 -0.3432 -0.1041 -0.0668
19016SOL     OW59939   4.486   5.124   4.129 -0.1392 -0.2304 -0.9231
19016SOL    HW159940   4.449   5.138   4.042 -1.6637  0.2234 -0.2215
19016SOL    HW259941   4.423   5.163   4.189  0.6191 -1.0222  0.4333
19017SOL     OW59942   4.398   4.133   7.485  0.2809  0.2946 -0.4663
19017SOL    HW159943   4.363   4.201   7.426  0.0914 -0.3316 -1.0895
19017SOL    HW259944   4.341   4.058   7.470 -0.2366  0.3529  1.0819
19018SOL     OW59945   3.564   8.118   8.582  0.1108 -0.5656 -0.3958
19018SOL    HW159946   3.604   8.205   8.576  0.7177 -0.8210 -0.1605
19018SOL    HW259947   3.483   8.125   8.532  0.2692  0.0697 -0.5702
19019SOL     OW59948   5.186   8.257   6.051  0.4068 -0.0821 -0.0382
19019SOL    HW159949   5.257   8.316   6.073 -1.0210  2.5406 -1.9515
19019SOL    HW259950   5.120   8.271   6.119  0.2048  0.3206 -0.3119
19020SOL     OW59951   3.713   4.788   8.550 -0.1109 -0.2308  0.7834
19020SOL    HW159952   3.709   4.700   8.514  2.1634  0.1455 -0.5545
19020SOL    HW259953   3.796   4.824   8.519 -1.3698  2.7450  0.4013
19021SOL     OW59954   7.237   8.728   5.769  0.1388 -0.4729  0.1855
19021SOL    HW159955   7.157   8.725   5.823 -0.0473 -1.1696 -0.1155
19021SOL    HW259956   7.304   8.687   5.824  0.1128 -0.5622  0.1507
19022SOL     OW59957   6.216   8.505   6.989  0.6871  0.5321  0.1416
19022SOL    HW159958   6.168   8.442   6.936 -0.8458  0.8865  1.0637
19022SOL    HW259959   6.308   8.483   6.975  0.2539 -0.5526 -1.1894
19023SOL     OW59960   4.608   3.768   6.720  0.8119 -0.4159 -0.0788
19023SOL    HW159961   4.612   3.825   6.797  1.7046  0.4073 -0.7241
19023SOL    HW259962   4.674   3.802   6.661 -1.9032  0.9306 -2.5808
19024SOL     OW59963   3.262   4.104   8.282  0.2080  0.5610 -0.1072
19024SOL    HW159964   3.325   4.176   8.272 -0.8722  1.5759  0.0356
19024SOL    HW259965   3.227   4.091   8.194  0.1366  0.4777 -0.0663
19025SOL     OW59966   5.608   3.910   0.339  0.1283 -0.5271  0.2914
19025SOL    HW159967   5.581   3.838   0.283 -0.2985 -0.7400  0.7696
19025SOL    HW259968   5.527   3.952   0.366  0.3824  0.4647 -0.4008
19026SOL     OW59969   1.784   2.356   0.279  0.1114 -0.1301 -0.1815
19026SOL    HW159970   1.708   2.404   0.247 -0.1789  0.7421  1.6750
19026SOL    HW259971   1.845   2.355   0.206 -0.6792  1.3700 -0.9012
19027SOL     OW59972   1.467   4.447   3.105  0.5000 -0.5092  0.3474
19027SOL    HW159973   1.504   4.443   3.193  3.4404  1.2225 -0.6715
19027SOL    HW259974   1.408   4.522   3.107  2.6181  1.2531  0.2594
19028SOL     OW59975   3.296   7.870   8.801  0.1101 -0.2805 -0.2518
19028SOL    HW159976   3.383   7.852   8.764  0.4655  0.3584  0.2647
19028SOL    HW259977   3.270   7.954   8.762 -0.7841 -1.0018 -1.2877
19029SOL     OW59978   8.502   8.526   7.580  0.8602  0.0163  0.0979
19029SOL    HW159979   8.471   8.518   7.490  0.1605  1.9105  0.1315
19029SOL    HW259980   8.581   8.472   7.583  1.5077  0.7517 -1.9495
19030SOL     OW59981   3.481   6.104   8.443 -0.1731 -0.4504  0.1041
19030SOL    HW159982   3.557   6.158   8.465 -2.1986  1.5965  2.6428
19030SOL    HW259983   3.508   6.056   8.364  3.4759  0.6214  0.5114
19031SOL     OW59984   7.731   1.330   2.221 -0.3181 -0.0362 -0.4502
19031SOL    HW159985   7.707   1.406   2.274 -1.1817  0.1323 -1.0699
19031SOL    HW259986   7.658   1.269   2.233  0.6902 -1.0805  0.6108
19032SOL     OW59987   5.070   0.949   7.220  0.1169 -0.1296 -0.2757
19032SOL    HW159988   5.041   0.924   7.308 -0.5789  0.9418 -0.1837
19032SOL    HW259989   5.165   0.961   7.229  0.1024 -0.3730  0.2381
19033SOL     OW59990   2.041   8.606   5.091  0.0989 -0.2279  0.0254
19033SOL    HW159991   1.970   8.574   5.035  0.6103  2.0206 -2.1433
19033SOL    HW259992   2.103   8.533   5.097 -2.6395 -2.6017  2.7731
19034SOL     OW59993   0.602   6.720   4.190 -0.7509 -0.0617  0.0427
19034SOL    HW159994   0.574   6.812   4.190  0.1646  0.2345 -0.6044
19034SOL    HW259995   0.687   6.721   4.235 -0.1495 -0.3765 -1.0313
19035SOL     OW59996   7.081   1.213   7.328  0.1217 -0.6270 -0.6076
19035SOL    HW159997   7.078   1.268   7.405 -0.7695 -0.8366 -0.4804
19035SOL    HW259998   7.154   1.153   7.344  0.8756  0.2774 -0.5995
19036SOL     OW59999   3.191   7.752   6.494  0.9656 -0.4184  0.4475
19036SOL    HW160000   3.269   7.804   6.479  0.5540  0.2281  0.5210
19036SOL    HW260001   3.197   7.681   6.430  1.2493  0.0312 -0.0302
19037SOL     OW60002   1.945   4.947   4.921 -0.2359 -0.8272 -0.4021
19037SOL    HW160003   1.867   4.992   4.886 -0.8993  0.0087  1.9133
19037SOL    HW260004   2.013   5.015   4.921  0.0119 -1.0709 -0.8317
19038SOL     OW60005   2.856   4.531   7.403 -0.0751  0.1974  0.1627
19038SOL    HW160006   2.887   4.511   7.491  0.2665  1.8333  0.4419
19038SOL    HW260007   2.926   4.584   7.364 -0.1806 -0.5630 -1.1357
19039SOL     OW60008   7.109   1.075   1.393  0.4700  0.5025  0.2401
19039SOL    HW160009   7.151   1.012   1.452  1.1522 -0.0944 -0.8356
19039SOL    HW260010   7.181   1.132   1.364  0.7361 -0.8288 -2.0003
19040SOL     OW60011   5.298   8.291   9.077  0.0689 -0.3645  0.8641
19040SOL    HW160012   5.317   8.205   9.116  0.9355  0.1320  1.5917
19040SOL    HW260013   5.272   8.345   9.151 -0.1025  0.1074  0.4624
19041SOL     OW60014   7.282   0.704   6.733 -0.4412  0.2844  0.0824
19041SOL    HW160015   7.362   0.745   6.767  1.2614  0.1672 -3.2864
19041SOL    HW260016   7.312   0.621   6.698 -2.1751 -0.0051 -0.7995
19042SOL     OW60017   3.887   6.753   0.333  0.8489  0.0719 -0.4686
19042SOL    HW160018   3.824   6.804   0.281 -0.3293  0.1214  0.9395
19042SOL    HW260019   3.848   6.666   0.340  1.9392 -0.5066 -1.2556
19043SOL     OW60020   1.672   8.446   7.948 -0.1534  0.2468 -0.5027
19043SOL    HW160021   1.748   8.445   7.890  0.7627 -0.1973  0.6441
19043SOL    HW260022   1.645   8.537   7.953  1.7706  0.8084  0.8506
19044SOL     OW60023   7.466   2.373   4.848  0.5319 -0.5872 -0.1681
19044SOL    HW160024   7.511   2.297   4.886 -0.0027 -0.6373  0.3845
19044SOL    HW260025   7.405   2.336   4.784  0.0402 -0.6555  0.3329
19045SOL     OW60026   3.401   5.595   8.880  0.2571 -1.2137  0.2181
19045SOL    HW160027   3.460   5.522   8.900  1.1968 -0.5878 -0.1846
19045SOL    HW260028   3.328   5.555   8.834  0.6582 -1.9425  0.2040
19046SOL     OW60029   6.582   4.062   1.802 -0.3692  0.0962 -0.5704
19046SOL    HW160030   6.571   4.114   1.723 -0.9495  0.7254 -0.0910
19046SOL    HW260031   6.677   4.059   1.817 -0.1983 -0.7455 -1.7437
19047SOL     OW60032   8.226   0.467   6.765 -0.8053  0.1193  0.1718
19047SOL    HW160033   8.218   0.486   6.671  1.4983 -0.8012 -0.2852
19047SOL    HW260034   8.203   0.374   6.772  0.5985 -0.2449  0.2127
19048SOL     OW60035   7.967   8.464   2.565 -0.1652  0.1605  0.3557
19048SOL    HW160036   7.885   8.419   2.586  0.9398 -1.5533  1.2807
19048SOL    HW260037   8.016   8.400   2.512  0.1669  1.5588 -1.0929
19049SOL     OW60038   8.249   5.678   2.697 -0.2994  0.8261 -0.3645
19049SOL    HW160039   8.265   5.615   2.627 -2.2011 -0.5286  0.3543
19049SOL    HW260040   8.271   5.631   2.777 -0.7291  1.4370  0.1193
19050SOL     OW60041   5.584   3.032   3.204  0.3223 -0.3453  0.2686
19050SOL    HW160042   5.551   2.943   3.221 -2.1746  0.2275 -1.0904
19050SOL    HW260043   5.534   3.088   3.262 -0.3092  0.4406 -0.9806
19051SOL     OW60044   6.617   8.075   6.330  0.0306  0.7735  0.0027
19051SOL    HW160045   6.542   8.118   6.288 -0.2938  0.4501  0.2381
19051SOL    HW260046   6.693   8.104   6.280 -0.5172 -1.2150 -2.1372
19052SOL     OW60047   1.246   5.415   2.319  0.1523 -0.4781 -0.3570
19052SOL    HW160048   1.180   5.477   2.289 -1.7610 -3.1290 -2.1435
19052SOL    HW260049   1.298   5.397   2.241  0.1351 -1.7106 -0.1004
19053SOL     OW60050   2.435   6.477   7.741 -0.5179 -0.1259 -0.0694
19053SOL    HW160051   2.351   6.464   7.696 -0.5815 -1.5140  0.4056
19053SOL    HW260052   2.493   6.511   7.673 -0.8105 -1.5034 -1.0536
19054SOL     OW60053   7.090   4.919   2.864  0.2005 -0.2823 -0.2592
19054SOL    HW160054   7.111   4.907   2.771 -0.6930  1.9349 -0.8118
19054SOL    HW260055   7.016   4.861   2.880  1.1315 -1.6077 -0.5696
19055SOL     OW60056   0.581   3.906   1.541 -0.2728  0.3045 -0.1527
19055SOL    HW160057   0.615   3.995   1.541 -2.5365  1.2644  1.8915
19055SOL    HW260058   0.654   3.853   1.510  1.3316  2.7654 -0.8937
19056SOL     OW60059   7.465   3.717   4.499 -0.5850 -0.5740  0.2546
19056SOL    HW160060   7.387   3.703   4.446 -1.3320  0.0121  1.1716
19056SOL    HW260061   7.500   3.629   4.514 -0.2723 -0.7439 -1.2969
19057SOL     OW60062   2.097   8.502   4.724 -0.5123 -0.6827  0.1066
19057SOL    HW160063   2.192   8.517   4.720 -0.7251  1.2293  0.9492
19057SOL    HW260064   2.081   8.473   4.814 -0.7993 -0.3443  0.1671
19058SOL     OW60065   6.829   0.352   4.909  0.4997  0.3585 -0.4841
19058SOL    HW160066   6.918   0.383   4.896  0.7925  0.2858  1.1077
19058SOL    HW260067   6.833   0.258   4.892  1.0831  0.0918  0.9464
19059SOL     OW60068   3.802   2.237   0.966 -0.0664  0.0826  0.0718
19059SOL    HW160069   3.865   2.176   0.928 -1.2088 -0.1819 -1.4545
19059SOL    HW260070   3.728   2.237   0.906  0.3888  3.9413 -0.7506
19060SOL     OW60071   7.870   5.519   3.435  0.3633  0.2125 -0.2940
19060SOL    HW160072   7.777   5.507   3.458  0.9948 -0.2178  2.2702
19060SOL    HW260073   7.868   5.547   3.343 -2.3189  0.6040 -0.1978
19061SOL     OW60074   2.768   7.634   6.778 -0.1017 -0.1681  0.0212
19061SOL    HW160075   2.855   7.662   6.753 -0.5936 -0.7246 -2.5779
19061SOL    HW260076   2.775   7.539   6.787 -0.5791 -0.2994 -0.9108
19062SOL     OW60077   3.218   5.565   4.064 -0.0085 -0.1842  0.5326
19062SOL    HW160078   3.189   5.653   4.089 -1.5715 -0.0462 -1.5281
19062SOL    HW260079   3.154   5.506   4.105  0.9529 -0.3913  1.7899
19063SOL     OW60080   6.127   6.712   6.755  0.1794 -0.1064  0.2194
19063SOL    HW160081   6.095   6.761   6.678  2.0092  0.6087 -0.1395
19063SOL    HW260082   6.054   6.655   6.779 -0.5281 -0.1844 -1.9128
19064SOL     OW60083   2.365   3.753   3.751 -0.5448 -0.3152  0.0705
19064SOL    HW160084   2.317   3.709   3.821 -1.1916 -0.1212 -0.2393
19064SOL    HW260085   2.369   3.689   3.680 -0.5482 -0.2561  0.0164
19065SOL     OW60086   1.681   7.019   6.656  0.2832  0.4472  0.0273
19065SOL    HW160087   1.615   7.077   6.619 -0.6869 -1.4366 -1.3440
19065SOL    HW260088   1.666   7.024   6.751 -0.7891  1.2318 -0.1627
19066SOL     OW60089   3.576   4.857   6.071  0.5231  0.3219 -0.2454
19066SOL    HW160090   3.668   4.849   6.048  0.5062  0.7586 -0.4639
19066SOL    HW260091   3.569   4.816   6.158  1.1878  1.5285  0.3978
19067SOL     OW60092   3.554   2.552   8.003 -0.0536 -0.2432  0.3533
19067SOL    HW160093   3.583   2.630   8.050 -0.3076 -0.2174  0.4722
19067SOL    HW260094   3.514   2.497   8.070  1.1850 -1.0114  0.4860
19068SOL     OW60095   2.099   6.719   8.463  0.1775 -0.3033  0.6632
19068SOL    HW160096   2.172   6.678   8.416 -0.8622 -0.0697 -1.2749
19068SOL    HW260097   2.073   6.654   8.528  1.5177 -0.7643  0.7717
19069SOL     OW60098   2.666   6.839   2.206  0.5378  0.0498  0.3594
19069SOL    HW160099   2.710   6.923   2.218 -0.5218  0.6006  0.5282
19069SOL    HW260100   2.695   6.786   2.280  2.7777 -0.4582 -0.8075
19070SOL     OW60101   6.281   4.104   6.435 -0.1421  0.0427 -0.3045
19070SOL    HW160102   6.325   4.165   6.376  0.1170  1.1796  1.0163
19070SOL    HW260103   6.258   4.156   6.512 -0.1807 -1.4581  0.7559
19071SOL     OW60104   1.844   4.036   4.695  0.4129 -0.3396 -0.3383
19071SOL    HW160105   1.933   4.038   4.659  0.7937 -0.5710  0.5679
19071SOL    HW260106   1.855   4.009   4.786 -0.5275  0.2505 -0.0323
19072SOL     OW60107   2.570   8.880   4.061  0.1651  0.0330  0.4134
19072SOL    HW160108   2.543   8.953   4.117 -1.0168 -0.5945  0.6899
19072SOL    HW260109   2.531   8.900   3.975  0.5301  0.1382  0.2721
19073SOL     OW60110   8.854   0.959   8.834 -0.2145  0.7638 -0.0382
19073SOL    HW160111   8.873   0.991   8.746 -2.4203  2.5136  0.0222
19073SOL    HW260112   8.930   0.983   8.886  0.7156  0.5381 -1.2567
19074SOL     OW60113   5.838   0.928   8.809  0.3968 -0.6181  0.4339
19074SOL    HW160114   5.852   0.987   8.735 -1.5049  0.9517  1.2332
19074SOL    HW260115   5.788   0.855   8.773 -1.1269  0.4752  0.2530
19075SOL     OW60116   5.722   2.196   8.032  0.0140  0.0756 -0.0479
19075SOL    HW160117   5.770   2.220   8.111  0.4721 -0.8038 -0.0539
19075SOL    HW260118   5.783   2.143   7.982 -0.7481 -0.5252 -0.3546
19076SOL     OW60119   6.173   7.703   4.296 -0.2537  0.3147  0.3355
19076SOL    HW160120   6.139   7.742   4.216 -0.6823  1.0046  0.8472
19076SOL    HW260121   6.136   7.755   4.367 -0.5559 -0.7908  1.0285
19077SOL     OW60122   0.843   4.587   8.986  0.0662  0.5887  0.3891
19077SOL    HW160123   0.826   4.615   9.076 -1.9847  0.0017  0.2431
19077SOL    HW260124   0.756   4.570   8.949  0.8556  0.6761 -1.6707
19078SOL     OW60125   6.239   2.958   2.767 -0.3350  0.0194 -0.7313
19078SOL    HW160126   6.175   2.962   2.696 -2.0295  1.0283  0.7754
19078SOL    HW260127   6.223   3.038   2.818  1.1637 -0.4329  0.5090
19079SOL     OW60128   8.283   1.881   2.704  0.6272 -0.4800 -0.0795
19079SOL    HW160129   8.291   1.786   2.695  1.7543 -0.2563 -2.2011
19079SOL    HW260130   8.202   1.903   2.656  1.2203 -0.2440 -1.0014
19080SOL     OW60131   5.334   7.840   5.209 -0.2407 -0.2049  0.1440
19080SOL    HW160132   5.404   7.844   5.143 -0.1738  0.2956  0.2407
19080SOL    HW260133   5.254   7.862   5.161 -0.2034  0.0792  0.2065
19081SOL     OW60134   3.731   5.385   4.505  0.0341  0.2946 -0.3957
19081SOL    HW160135   3.784   5.447   4.456 -0.8942  0.8477 -0.7250
19081SOL    HW260136   3.699   5.434   4.581  0.2046 -0.1082 -0.0565
19082SOL     OW60137   5.189   0.939   3.802 -0.3070  0.5396  0.1321
19082SOL    HW160138   5.175   0.924   3.708  3.1111  3.1368 -1.0181
19082SOL    HW260139   5.141   1.019   3.820 -1.4173 -0.2587  0.7908
19083SOL     OW60140   2.072   2.121   5.808 -0.1926 -0.4252  0.1664
19083SOL    HW160141   2.165   2.102   5.822 -0.2423 -0.4216  0.5325
19083SOL    HW260142   2.043   2.057   5.744  0.4002  0.4987 -1.0529
19084SOL     OW60143   5.417   6.649   8.366 -0.4102  0.0247 -0.0206
19084SOL    HW160144   5.464   6.691   8.438 -0.6601 -0.6166  0.5256
19084SOL    HW260145   5.445   6.558   8.368  1.0150  0.3549 -1.9352
19085SOL     OW60146   1.738   6.594   1.577 -0.0816 -0.1937 -0.1257
19085SOL    HW160147   1.829   6.567   1.590 -0.0556  0.1197  0.3722
19085SOL    HW260148   1.725   6.665   1.640 -0.1815  0.8868 -1.3086
19086SOL     OW60149   1.081   0.914   8.380 -0.4940  0.2543 -0.0041
19086SOL    HW160150   1.082   0.900   8.475  0.1747 -1.2682 -0.1998
19086SOL    HW260151   1.152   0.976   8.364  0.3174 -0.5474  0.3786
19087SOL     OW60152   4.083   9.121   0.638  0.5313 -0.0776  0.3058
19087SOL    HW160153   4.038   9.081   0.564 -1.3838  0.1469  1.2779
19087SOL    HW260154   4.057   9.213   0.635  1.5512  0.2307  0.4795
19088SOL     OW60155   4.097   7.995   3.034 -0.0393 -0.6158  0.2064
19088SOL    HW160156   4.141   8.052   2.971  1.1213 -0.2024  1.3640
19088SOL    HW260157   4.018   8.043   3.058  0.6997  0.3033  0.8288
19089SOL     OW60158   4.247   3.086   2.582  0.0547 -0.5022 -0.0696
19089SOL    HW160159   4.185   3.135   2.636 -0.1369 -2.3315  1.4565
19089SOL    HW260160   4.198   3.064   2.503 -0.9118 -0.9537  0.6271
19090SOL     OW60161   1.640   7.364   1.544  0.0107  0.1221 -0.0103
19090SOL    HW160162   1.688   7.298   1.596 -0.7793 -0.3514  0.1351
19090SOL    HW260163   1.674   7.354   1.456  0.0613 -0.3320  0.0566
19091SOL     OW60164   7.107   2.269   4.296 -0.0431  0.1216 -0.2261
19091SOL    HW160165   7.172   2.244   4.361  0.5042  1.3190 -0.2865
19091SOL    HW260166   7.149   2.253   4.212 -0.1684  0.0471 -0.2751
19092SOL     OW60167   1.606   0.851   8.187 -0.6593  0.3577  0.4196
19092SOL    HW160168   1.658   0.798   8.126 -2.3246 -1.2497  0.3065
19092SOL    HW260169   1.637   0.940   8.174  3.2835 -0.6453  1.6290
19093SOL     OW60170   1.728   0.494   3.907  0.1088 -0.3951  0.0130
19093SOL    HW160171   1.788   0.556   3.948 -0.1754  0.5186 -0.8961
19093SOL    HW260172   1.658   0.549   3.871 -1.6688 -1.4809  1.6205
19094SOL     OW60173   0.157   9.026   0.142 -0.0829  0.6600  0.5392
19094SOL    HW160174   0.152   9.061   0.231 -0.3323  1.0102  0.3884
19094SOL    HW260175   0.250   9.034   0.118 -0.3531  2.5264 -0.0116
19095SOL     OW60176   7.920   6.931   3.415 -0.0828  0.3486 -0.6230
19095SOL    HW160177   7.978   6.914   3.341  0.2806 -0.8584 -0.0790
19095SOL    HW260178   7.977   6.967   3.482  0.3616 -2.0855  0.3952
19096SOL     OW60179   4.878   4.754   0.033  0.0402  0.2257  0.2992
19096SOL    HW160180   4.791   4.782   0.003 -0.4180 -0.0693  1.3116
19096SOL    HW260181   4.938   4.815  -0.010 -0.4416 -0.9292 -2.2291
19097SOL     OW60182   8.866   7.569   4.645 -0.0950 -0.3427 -0.2963
19097SOL    HW160183   8.817   7.628   4.588  1.2589 -1.3343 -2.6294
19097SOL    HW260184   8.834   7.482   4.623 -1.3584 -0.6462  2.3833
19098SOL     OW60185   3.596   6.024   1.682 -0.1289  0.3405 -0.3685
19098SOL    HW160186   3.598   6.101   1.624  0.1570  0.3344 -0.3667
19098SOL    HW260187   3.680   5.981   1.667  0.0886  0.5282  0.3162
19099SOL     OW60188   1.886   5.598   8.710 -0.0110 -0.0553 -0.0990
19099SOL    HW160189   1.929   5.514   8.695 -0.5398 -0.0718 -1.7407
19099SOL    HW260190   1.808   5.577   8.761  1.0008 -0.2460  1.4124
19100SOL     OW60191   7.489   3.185   7.872 -0.5237  0.5489 -0.4220
19100SOL    HW160192   7.511   3.255   7.933  2.3896 -0.0465 -0.6744
19100SOL    HW260193   7.563   3.180   7.813 -0.6594 -2.6671 -0.4921
19101SOL     OW60194   2.556   0.121   8.697  0.1549 -0.5357 -0.7153
19101SOL    HW160195   2.573   0.045   8.641 -1.2934 -2.6126  1.4379
19101SOL    HW260196   2.464   0.111   8.723  0.5821  0.6258  1.5135
19102SOL     OW60197   8.596   8.617   3.153 -0.1058  0.3939  0.3003
19102SOL    HW160198   8.634   8.640   3.238  1.2947  1.3556 -0.5298
19102SOL    HW260199   8.592   8.700   3.105  0.3508 -0.3077 -1.0171
19103SOL     OW60200   9.031   8.744   7.465  0.2838  0.0549  0.1660
19103SOL    HW160201   9.111   8.691   7.459  0.5286  0.5016 -0.8021
19103SOL    HW260202   9.058   8.830   7.433 -0.4236  0.3961  0.4732
19104SOL     OW60203   6.709   4.195   0.859  0.4544 -0.0558  0.4573
19104SOL    HW160204   6.702   4.134   0.932  1.4240  0.1469  0.7327
19104SOL    HW260205   6.653   4.268   0.884 -1.4101 -1.1857 -0.2703
19105SOL     OW60206   5.661   6.701   5.738 -0.4915 -0.3305  0.1541
19105SOL    HW160207   5.625   6.615   5.716 -0.1758 -0.3081 -0.4519
19105SOL    HW260208   5.616   6.725   5.820 -0.2036 -1.2887  0.6105
19106SOL     OW60209   4.797   4.175   3.381 -0.9167 -0.3300 -0.1593
19106SOL    HW160210   4.744   4.228   3.441 -0.7803 -0.6997  0.2902
19106SOL    HW260211   4.745   4.096   3.366 -0.5513 -0.6383  0.1840
19107SOL     OW60212   5.523   5.458   2.298 -0.1299  0.3145  0.5445
19107SOL    HW160213   5.454   5.462   2.364 -0.6691 -2.0117  0.2012
19107SOL    HW260214   5.495   5.519   2.230 -1.5552 -0.1464  0.6840
19108SOL     OW60215   6.086   0.405   7.089  0.7699 -0.2838  0.4826
19108SOL    HW160216   6.020   0.449   7.036  0.0819 -0.7416  0.9551
19108SOL    HW260217   6.161   0.395   7.030 -0.3017 -1.6268 -0.7359
19109SOL     OW60218   6.288   4.023   8.274  0.1952  0.3434  0.0672
19109SOL    HW160219   6.349   4.055   8.340  1.3113  0.1055 -0.8320
19109SOL    HW260220   6.321   3.936   8.251 -0.3094  0.3309 -0.6456
19110SOL     OW60221   1.629   2.834   2.132 -0.1395 -0.3039  0.0280
19110SOL    HW160222   1.706   2.881   2.164  0.9031 -2.4068  0.7913
19110SOL    HW260223   1.555   2.891   2.157  0.9999  0.6570  1.4318
19111SOL     OW60224   0.798   1.217   5.448  0.7026 -0.0668  0.2249
19111SOL    HW160225   0.748   1.171   5.516 -0.9094 -0.5081 -1.1810
19111SOL    HW260226   0.863   1.269   5.496  1.5398 -2.5319  1.9680
19112SOL     OW60227   3.506   8.617   0.210  0.7144  0.5175 -0.0655
19112SOL    HW160228   3.425   8.604   0.160 -1.0902  1.6702  2.3456
19112SOL    HW260229   3.538   8.528   0.227  0.5684  0.0645 -1.8595
19113SOL     OW60230   9.104   6.083   4.933 -0.0560 -0.2981  0.0443
19113SOL    HW160231   9.033   6.136   4.970  0.3845  0.6357 -0.3996
19113SOL    HW260232   9.140   6.035   5.007 -0.9591 -0.5573  0.3240
19114SOL     OW60233   5.333   0.923   2.013 -1.0560  0.1778 -0.2277
19114SOL    HW160234   5.370   0.985   2.076  1.7833 -2.0840  0.5344
19114SOL    HW260235   5.249   0.897   2.052  0.8058 -1.5424  3.0836
19115SOL     OW60236   2.363   0.501   1.711  0.7396 -0.0093 -0.1391
19115SOL    HW160237   2.428   0.485   1.643  2.1332 -0.4701  1.2460
19115SOL    HW260238   2.411   0.544   1.782 -0.2764 -0.9757  1.2142
19116SOL     OW60239   5.148   6.165   7.558 -0.2334 -0.1361  0.5120
19116SOL    HW160240   5.163   6.151   7.464 -0.4518  1.2831  0.2364
19116SOL    HW260241   5.228   6.133   7.600  0.4423  0.4547 -0.2852
19117SOL     OW60242   2.830   0.248   0.851 -0.2550 -0.1704  0.2995
19117SOL    HW160243   2.843   0.154   0.839 -0.9044 -0.5101  1.9902
19117SOL    HW260244   2.800   0.257   0.941  0.1039  1.7047  0.2760
19118SOL     OW60245   6.136   9.018   3.202 -0.1621 -0.1569 -0.0096
19118SOL    HW160246   6.142   8.996   3.109  0.8394 -0.1752  0.0561
19118SOL    HW260247   6.226   9.021   3.233 -0.4461  0.5771  0.8016
19119SOL     OW60248   0.409   5.995   4.704 -0.4876  0.4399 -0.2930
19119SOL    HW160249   0.356   6.041   4.769  0.5832  1.1720  0.0740
19119SOL    HW260250   0.481   6.055   4.684  1.1394 -1.1626  0.4485
19120SOL     OW60251   9.262   9.223   3.851  0.3799 -0.3201  0.6027
19120SOL    HW160252   9.214   9.302   3.878  1.0603 -0.1344  1.3133
19120SOL    HW260253   9.210   9.151   3.885  1.0582 -0.0965  2.2264
19121SOL     OW60254   6.448   2.505   0.235  0.0988 -0.4981 -0.5293
19121SOL    HW160255   6.367   2.495   0.285  0.1322 -0.4938 -0.4734
19121SOL    HW260256   6.452   2.428   0.179 -0.8001  0.3393 -1.7766
19122SOL     OW60257   5.725   8.950   7.999  0.1473  0.3451 -0.1478
19122SOL    HW160258   5.810   8.906   8.006  0.7550  1.2670 -1.3584
19122SOL    HW260259   5.738   9.034   8.042  0.0099  0.6997 -0.7864
19123SOL     OW60260   7.032   9.146   6.976 -0.4062 -0.0172 -0.3013
19123SOL    HW160261   7.023   9.144   6.881 -3.7237 -0.8810 -0.0750
19123SOL    HW260262   7.006   9.059   7.005 -1.6708  0.9040  1.5128
19124SOL     OW60263   0.965   3.744   3.024  0.8369  0.4906 -0.6645
19124SOL    HW160264   0.977   3.712   3.113  2.7231  1.8184 -0.3910
19124SOL    HW260265   0.894   3.808   3.031  1.5539  1.2288  0.0788
19125SOL     OW60266   8.488   6.868   2.242  0.6893 -0.7072 -0.2855
19125SOL    HW160267   8.502   6.896   2.151 -0.4207 -0.5819 -0.4309
19125SOL    HW260268   8.399   6.832   2.242  0.4945 -0.2540  0.8633
19126SOL     OW60269   4.442   3.023   8.269 -0.4399  0.7163  0.9406
19126SOL    HW160270   4.359   2.976   8.279  0.9140 -2.0895  0.1367
19126SOL    HW260271   4.477   3.028   8.358 -0.6028  0.1748  1.0402
19127SOL     OW60272   4.016   0.575   2.757 -0.0283  0.0736  0.1882
19127SOL    HW160273   3.965   0.502   2.793 -0.7550  1.8071  2.9795
19127SOL    HW260274   4.104   0.539   2.746 -0.1987 -1.1141  2.1290
19128SOL     OW60275   2.453   4.411   0.650 -0.2927  0.5502  0.0086
19128SOL    HW160276   2.368   4.374   0.624 -1.3274  0.5065  3.0021
19128SOL    HW260277   2.450   4.502   0.620 -1.0423  0.3354 -0.6012
19129SOL     OW60278   0.807   0.744   0.312 -0.3798 -0.1097 -0.3298
19129SOL    HW160279   0.901   0.724   0.309 -0.0468  1.2886 -0.0779
19129SOL    HW260280   0.794   0.784   0.399 -1.1848 -0.2160 -0.3963
19130SOL     OW60281   2.542   7.591   6.035 -0.3645 -0.0052  0.4085
19130SOL    HW160282   2.512   7.665   5.983 -0.7915 -0.2296  0.3218
19130SOL    HW260283   2.600   7.628   6.101  1.2090  0.1405 -1.0051
19131SOL     OW60284   1.635   6.547   0.953 -0.4310  0.3013  0.0243
19131SOL    HW160285   1.706   6.596   0.994  0.7569 -1.6744  0.4321
19131SOL    HW260286   1.664   6.534   0.863 -0.2717 -0.4779  0.1817
19132SOL     OW60287   5.241   1.701   0.757  0.2504  0.3361  0.5937
19132SOL    HW160288   5.164   1.755   0.775 -0.1320  0.1309 -0.3175
19132SOL    HW260289   5.291   1.702   0.838  1.6172  4.2093 -0.0901
19133SOL     OW60290   5.701   4.358   5.421  0.0352  0.5214  0.1212
19133SOL    HW160291   5.676   4.326   5.507 -0.0435  2.0476  0.6954
19133SOL    HW260292   5.791   4.326   5.409 -0.0592  0.0516  0.6369
19134SOL     OW60293   4.714   1.871   1.117 -0.3454 -0.0840  0.3290
19134SOL    HW160294   4.664   1.952   1.112 -0.5216 -0.0573  2.0792
19134SOL    HW260295   4.791   1.887   1.063 -1.4667  0.4019 -1.2049
19135SOL     OW60296   4.196   0.292   5.858 -0.0766 -0.1019  0.3807
19135SOL    HW160297   4.141   0.370   5.870  1.9410  1.2203  1.8179
19135SOL    HW260298   4.167   0.232   5.927  1.2007  1.2540  2.2400
19136SOL     OW60299   7.849   0.936   8.491  0.1856  0.0605 -0.4426
19136SOL    HW160300   7.918   0.987   8.449 -0.4392 -0.4493 -2.1978
19136SOL    HW260301   7.770   0.956   8.440 -0.7476 -0.1819  0.8473
19137SOL     OW60302   4.456   6.954   6.130 -0.0394  0.1049  0.4148
19137SOL    HW160303   4.467   6.996   6.215  2.3168 -4.2138  2.5271
19137SOL    HW260304   4.535   6.978   6.081 -0.0908  0.3790  0.4617
19138SOL     OW60305   8.919   7.074   6.651 -0.1147  0.2326  0.1029
19138SOL    HW160306   8.879   7.129   6.584 -0.0404 -0.5859 -0.6188
19138SOL    HW260307   9.010   7.065   6.623 -0.0043  0.1526  0.4840
19139SOL     OW60308   9.168   0.907   1.710 -0.3746  0.3374 -0.0674
19139SOL    HW160309   9.198   0.884   1.798 -1.0451 -0.6957 -0.0994
19139SOL    HW260310   9.183   0.829   1.657  0.1054  0.9720 -0.9083
19140SOL     OW60311   0.488   3.175   8.639  0.2076  0.0860  0.0119
19140SOL    HW160312   0.425   3.244   8.623 -1.3129 -0.9324  1.2527
19140SOL    HW260313   0.561   3.218   8.683 -0.9762  0.8223  1.3154
19141SOL     OW60314   7.199   9.126   7.706  0.1847 -0.1156  0.7367
19141SOL    HW160315   7.210   9.139   7.612 -0.2625 -0.1521  0.6741
19141SOL    HW260316   7.152   9.204   7.735 -0.8628 -0.7095  0.6910
19142SOL     OW60317   5.450   6.016   3.000 -0.4003 -0.1258  0.2436
19142SOL    HW160318   5.427   5.949   3.064 -0.3889 -1.9770 -1.5784
19142SOL    HW260319   5.525   5.979   2.952 -1.1816  0.5898 -1.6449
19143SOL     OW60320   4.497   7.109   3.368 -0.2208 -0.1073 -0.0920
19143SOL    HW160321   4.437   7.160   3.314 -0.1791  1.0551  0.9260
19143SOL    HW260322   4.521   7.034   3.313 -2.8714 -0.8313 -0.3974
19144SOL     OW60323   7.985   3.272   6.703  0.0907  0.5514 -0.3091
19144SOL    HW160324   7.930   3.334   6.751  0.3860  0.2912  0.3793
19144SOL    HW260325   8.068   3.317   6.691  0.3726  0.2286  0.3663
19145SOL     OW60326   7.573   4.263   3.041 -0.0879 -0.4286 -0.0770
19145SOL    HW160327   7.655   4.307   3.017 -1.4690  1.5028 -1.5298
19145SOL    HW260328   7.566   4.275   3.135  0.4635  0.9505 -0.1886
19146SOL     OW60329   3.009   9.215   6.881  0.7551  0.2337  0.2219
19146SOL    HW160330   2.994   9.121   6.873  0.8412  0.1734  0.7653
19146SOL    HW260331   3.026   9.229   6.974 -0.8929  1.0232  0.4448
19147SOL     OW60332   3.073   6.477   1.646  0.1571  0.4651 -0.3597
19147SOL    HW160333   3.064   6.502   1.738 -0.5270 -1.1651  0.0651
19147SOL    HW260334   3.167   6.476   1.630  0.4883 -2.0768  1.2320
19148SOL     OW60335   1.404   2.946   8.378  0.5936 -0.2609 -0.3407
19148SOL    HW160336   1.405   2.869   8.321 -0.3313  0.4045 -1.2922
19148SOL    HW260337   1.459   3.010   8.334 -0.4292  0.3921 -0.7026
19149SOL     OW60338   5.944   6.998   6.244  0.1039  0.5621 -0.5898
19149SOL    HW160339   5.870   7.059   6.242 -0.1818  0.2210 -0.5149
19149SOL    HW260340   5.931   6.942   6.168  0.4943  0.7387 -0.7895
19150SOL     OW60341   4.848   8.047   3.351 -0.0505 -0.3197  0.3796
19150SOL    HW160342   4.866   8.102   3.276 -0.6490 -0.7213 -0.0652
19150SOL    HW260343   4.753   8.032   3.349 -0.2796  0.6562  1.9057
19151SOL     OW60344   2.160   4.729   5.252 -0.0451  0.4520 -0.2360
19151SOL    HW160345   2.070   4.723   5.219 -0.3579  0.4255  0.5915
19151SOL    HW260346   2.207   4.660   5.207 -1.0331 -1.1762  1.1224
19152SOL     OW60347   1.332   2.862   4.865  0.2099  0.0945 -0.5122
19152SOL    HW160348   1.368   2.947   4.839  3.7956 -0.9385  0.5128
19152SOL    HW260349   1.368   2.847   4.953 -3.4341 -0.9087  0.9963
19153SOL     OW60350   8.848   0.405   9.011  0.0403  0.1295  0.9591
19153SOL    HW160351   8.850   0.454   8.928 -0.7406  0.3839  1.0872
19153SOL    HW260352   8.888   0.321   8.989  0.3401  0.3915  0.4569
19154SOL     OW60353   5.630   0.281   8.682  0.1323 -0.9086 -0.0570
19154SOL    HW160354   5.667   0.193   8.669  0.8128 -0.4548 -1.2882
19154SOL    HW260355   5.679   0.337   8.623 -1.5585 -0.0137 -0.6975
19155SOL     OW60356   9.109   7.388   5.385 -0.0423 -0.5518 -0.1206
19155SOL    HW160357   9.032   7.419   5.337  0.6811  0.8373 -0.4276
19155SOL    HW260358   9.111   7.294   5.368 -2.4330 -0.8641  1.0298
19156SOL     OW60359   4.216   8.156   6.772  0.4063  0.2684 -0.4188
19156SOL    HW160360   4.130   8.150   6.730  0.3677 -0.6466 -0.2196
19156SOL    HW260361   4.257   8.072   6.756  0.5722  0.0639  0.9780
19157SOL     OW60362   5.203   7.292   8.078 -0.1115 -0.0880 -0.3592
19157SOL    HW160363   5.194   7.198   8.059 -0.1496 -0.9155  3.1264
19157SOL    HW260364   5.290   7.315   8.046  0.0716 -1.4305 -0.8743
19158SOL     OW60365   6.354   0.688   4.005  0.4495 -0.4915 -0.2437
19158SOL    HW160366   6.445   0.659   4.001  1.2289  1.6974  0.0323
19158SOL    HW260367   6.306   0.613   4.041  2.7316 -0.5419  3.1622
19159SOL     OW60368   5.794   4.097   2.014 -0.5121  0.2381 -0.3043
19159SOL    HW160369   5.767   4.064   1.928 -1.1908  0.6093 -0.2395
19159SOL    HW260370   5.885   4.070   2.022 -0.8335 -0.9890 -0.5556
19160SOL     OW60371   9.170   4.393   0.921 -0.3021  0.0753 -0.0190
19160SOL    HW160372   9.190   4.382   0.828 -0.8391  0.0561 -0.1349
19160SOL    HW260373   9.202   4.481   0.942  0.2557 -0.1023 -0.1003
19161SOL     OW60374   4.820   6.104   5.757 -0.0504 -0.2869 -0.0079
19161SOL    HW160375   4.724   6.109   5.758 -0.0429  1.2117 -1.5321
19161SOL    HW260376   4.845   6.142   5.673  1.9552  0.6200  0.9256
19162SOL     OW60377   5.561   4.508   7.582 -0.1253 -0.2105 -0.2629
19162SOL    HW160378   5.646   4.533   7.619  0.3021 -0.3974 -1.0757
19162SOL    HW260379   5.527   4.588   7.543  0.6206 -0.5340 -1.6802
19163SOL     OW60380   5.559   5.846   7.817  0.3534  0.3474  0.2213
19163SOL    HW160381   5.572   5.940   7.804  2.1927 -0.0311 -1.0744
19163SOL    HW260382   5.470   5.839   7.851 -1.0077  2.3364 -2.5223
19164SOL     OW60383   2.941   6.193   3.979 -0.1072  0.1301  0.6196
19164SOL    HW160384   3.000   6.121   4.000 -0.4619  0.0934  1.5362
19164SOL    HW260385   2.947   6.202   3.883  0.2796 -0.8115  0.5436
19165SOL     OW60386   7.093   2.963   2.266 -0.0691 -0.8525  0.1230
19165SOL    HW160387   7.163   2.937   2.206  0.0107  0.9230 -0.6189
19165SOL    HW260388   7.027   3.004   2.210 -0.9426 -0.9909  1.0231
19166SOL     OW60389   2.523   0.053   7.810 -0.1510  0.2123 -0.4325
19166SOL    HW160390   2.576   0.122   7.849 -2.8433  1.6621  0.9228
19166SOL    HW260391   2.530   0.067   7.715  1.4260  0.6220 -0.2829
19167SOL     OW60392   8.773   8.764   1.028 -0.0796 -0.2813  0.1475
19167SOL    HW160393   8.718   8.701   0.981 -0.6569  1.3956 -1.5184
19167SOL    HW260394   8.851   8.773   0.973  1.2988 -1.5517  1.7710
19168SOL     OW60395   3.411   3.709   9.201  0.3363  0.2959 -0.0337
19168SOL    HW160396   3.345   3.713   9.271  2.2437 -0.6737  1.9508
19168SOL    HW260397   3.486   3.756   9.237  1.4734 -0.4431 -1.3414
19169SOL     OW60398   0.447   7.508   5.547  0.8399  0.2210  0.2135
19169SOL    HW160399   0.435   7.562   5.470  2.5976 -0.3503 -0.5056
19169SOL    HW260400   0.406   7.558   5.618  1.2790  1.8969 -0.6542
19170SOL     OW60401   7.272   8.795   8.382 -0.2404 -0.0299 -0.2681
19170SOL    HW160402   7.195   8.770   8.433  0.5853 -0.1987  0.9432
19170SOL    HW260403   7.345   8.753   8.428  0.4306 -1.2590 -2.3110
19171SOL     OW60404   6.931   8.886   2.238  0.0002  0.0005 -0.2903
19171SOL    HW160405   6.891   8.933   2.165 -0.2008  1.3403  0.6459
19171SOL    HW260406   6.870   8.815   2.258 -0.2322 -0.0087 -1.0131
19172SOL     OW60407   5.007   0.817   8.663 -0.3850  0.2316 -0.5442
19172SOL    HW160408   4.973   0.792   8.576  0.3266  0.3595 -0.8620
19172SOL    HW260409   4.928   0.827   8.716 -0.8542  0.4663 -1.2578
19173SOL     OW60410   7.854   8.159   4.887  0.2288 -0.2381  0.0310
19173SOL    HW160411   7.948   8.174   4.897  0.0138  1.6632 -0.4680
19173SOL    HW260412   7.824   8.137   4.975  1.1060 -0.7841  0.2123
19174SOL     OW60413   1.368   7.880   7.710  0.1827  0.4836 -0.1313
19174SOL    HW160414   1.339   7.813   7.772 -1.6464  2.3765  1.1512
19174SOL    HW260415   1.337   7.847   7.625  1.0291 -1.1976  0.1588
19175SOL     OW60416   5.572   3.640   2.954  0.0081  0.0393  0.6470
19175SOL    HW160417   5.613   3.721   2.984 -1.2290 -0.0181  2.6311
19175SOL    HW260418   5.482   3.665   2.935 -0.8163 -1.1065  2.7453
19176SOL     OW60419   7.172   1.020   5.774 -0.0156 -1.0406 -0.1312
19176SOL    HW160420   7.257   1.024   5.818  0.2283 -0.4365 -0.6359
19176SOL    HW260421   7.176   1.089   5.708 -1.2787 -0.2983  0.5238
19177SOL     OW60422   3.910   3.260   5.133  0.1395 -0.3371 -0.3397
19177SOL    HW160423   3.972   3.247   5.204 -0.7926  0.6961  0.7061
19177SOL    HW260424   3.948   3.213   5.059  2.1866  0.3054  0.2373
19178SOL     OW60425   1.870   2.065   2.331  0.1567 -0.3425  0.4724
19178SOL    HW160426   1.947   2.121   2.343 -0.2278  0.1120  0.8644
19178SOL    HW260427   1.900   1.995   2.273  0.6245  0.3222 -0.1113
19179SOL     OW60428   1.739   5.406   1.128  0.4201 -0.3760 -0.1725
19179SOL    HW160429   1.751   5.501   1.130  1.4142 -0.5030  1.1751
19179SOL    HW260430   1.648   5.393   1.155  0.2432  0.1977 -0.4855
19180SOL     OW60431   6.313   3.493   6.942 -0.5529 -0.1481 -0.2211
19180SOL    HW160432   6.219   3.487   6.929 -0.7582  1.1191  0.5730
19180SOL    HW260433   6.335   3.584   6.923  0.4160 -0.2809  0.1654
19181SOL     OW60434   5.132   0.660   0.809 -0.1991  0.8080 -0.3229
19181SOL    HW160435   5.204   0.608   0.846 -0.8678  0.0051 -0.1265
19181SOL    HW260436   5.122   0.733   0.870 -0.4761  0.1617  0.4149
19182SOL     OW60437   4.147   3.188   0.010  0.5705 -0.6436 -0.3192
19182SOL    HW160438   4.183   3.271   0.041 -1.1417 -0.3193  0.9290
19182SOL    HW260439   4.147   3.196  -0.086 -0.8711  1.4107 -0.2044
19183SOL     OW60440   6.315   6.609   5.379 -0.5136  0.7400 -0.0156
19183SOL    HW160441   6.274   6.595   5.294  1.9425  0.7221 -1.2915
19183SOL    HW260442   6.393   6.662   5.360 -0.1420  1.1461  2.3016
19184SOL     OW60443   1.645   1.267   8.710  0.4438 -0.7051 -0.2671
19184SOL    HW160444   1.611   1.184   8.676 -0.2153 -0.2128 -0.8233
19184SOL    HW260445   1.668   1.247   8.801 -1.6893 -0.9799  0.2604
19185SOL     OW60446   1.145   4.517   1.592 -0.3742  0.3813 -0.5418
19185SOL    HW160447   1.218   4.518   1.530 -0.3896  0.3040 -0.5605
19185SOL    HW260448   1.170   4.453   1.658 -0.6613 -0.0291 -0.8292
19186SOL     OW60449   5.120   6.039   8.756 -0.2461 -0.1969  0.4150
19186SOL    HW160450   5.048   6.094   8.725 -0.3636 -0.3278  0.4543
19186SOL    HW260451   5.147   5.989   8.679  1.5471  1.7284 -0.2972
19187SOL     OW60452   6.639   3.043   5.393 -0.3154 -0.3205  0.1595
19187SOL    HW160453   6.607   3.082   5.311 -1.4803 -0.7146  0.3974
19187SOL    HW260454   6.562   3.043   5.450  0.5876  0.2966  1.3951
19188SOL     OW60455   5.885   5.720   5.081  0.2335  0.5085  0.0762
19188SOL    HW160456   5.886   5.814   5.101 -1.4387  0.4022  0.8560
19188SOL    HW260457   5.961   5.685   5.128 -0.1147  1.2257  1.2344
19189SOL     OW60458   2.713   4.445   3.269  0.1165  0.0871  0.1454
19189SOL    HW160459   2.696   4.398   3.350 -0.7807  0.0410 -0.0590
19189SOL    HW260460   2.681   4.534   3.285 -1.1949 -0.2268 -0.5376
19190SOL     OW60461   0.376   4.213   3.632 -0.6908  0.8253  0.4479
19190SOL    HW160462   0.293   4.184   3.595  0.6372  0.1639 -2.2703
19190SOL    HW260463   0.442   4.163   3.585  1.3237  2.3153  1.5277
19191SOL     OW60464   6.402   3.256   4.323 -0.6086 -0.2826 -0.1578
19191SOL    HW160465   6.446   3.330   4.365 -0.5868  0.2350 -1.0686
19191SOL    HW260466   6.312   3.259   4.357 -0.4577 -0.1909  0.2443
19192SOL     OW60467   0.533   5.223   4.871  0.4819  0.0074 -0.2709
19192SOL    HW160468   0.566   5.207   4.959 -1.6852  2.9160  1.2362
19192SOL    HW260469   0.453   5.170   4.865 -0.1958  0.9547  0.1471
19193SOL     OW60470   0.335   0.259   8.298 -0.1756 -0.0166  0.4568
19193SOL    HW160471   0.387   0.291   8.224  0.2636 -1.1232  0.2702
19193SOL    HW260472   0.267   0.205   8.259 -0.3700 -0.0392  0.8180
19194SOL     OW60473   9.010   8.179   4.848 -0.1025 -0.2889 -0.0785
19194SOL    HW160474   9.041   8.242   4.783  0.4845  0.5262  0.9579
19194SOL    HW260475   8.929   8.143   4.811 -0.5369  1.1978 -0.6303
19195SOL     OW60476   2.798   1.532   5.700  0.4210  0.1768 -0.1731
19195SOL    HW160477   2.889   1.530   5.727  0.6491  0.5167 -0.8769
19195SOL    HW260478   2.759   1.454   5.738  0.9770  0.0960  0.2296
19196SOL     OW60479   6.570   0.687   1.129 -0.4643  0.4492 -0.1801
19196SOL    HW160480   6.525   0.612   1.091  0.9777 -0.3930 -0.3050
19196SOL    HW260481   6.555   0.679   1.223 -0.0255 -0.2014 -0.1626
19197SOL     OW60482   0.670   3.908   4.144  0.3138  0.0660  0.4164
19197SOL    HW160483   0.584   3.890   4.107  1.3426 -1.4767 -1.3852
19197SOL    HW260484   0.680   3.844   4.214  1.1093 -1.7973 -1.3135
19198SOL     OW60485   3.826   8.998   3.525 -0.0427  0.7851 -0.4087
19198SOL    HW160486   3.913   9.036   3.526  0.0724  0.5567  0.9726
19198SOL    HW260487   3.840   8.906   3.502  0.2653  0.4102  1.1813
19199SOL     OW60488   3.748   6.002   0.115  0.3503 -0.0332 -0.3141
19199SOL    HW160489   3.738   5.929   0.177 -2.6196  0.7509  0.2652
19199SOL    HW260490   3.759   5.959   0.030  4.0612 -1.1173  0.5019
19200SOL     OW60491   8.603   6.958   1.191  0.7746  0.6420 -0.0161
19200SOL    HW160492   8.535   7.025   1.191 -1.2311 -1.2626 -0.7173
19200SOL    HW260493   8.583   6.904   1.268  0.6613 -0.6688 -0.9229
19201SOL     OW60494   3.441   0.277   1.420 -0.3932 -0.0278  0.1822
19201SOL    HW160495   3.526   0.317   1.404  0.0849 -1.1068 -0.0241
19201SOL    HW260496   3.386   0.307   1.348  0.1277 -0.2301 -0.3013
19202SOL     OW60497   1.631   7.434   3.412 -0.3181 -0.5210 -0.2803
19202SOL    HW160498   1.672   7.508   3.457  1.0733 -1.5315  0.1915
19202SOL    HW260499   1.693   7.362   3.424 -1.9239 -1.9446 -0.1756
19203SOL     OW60500   0.651   8.006   3.537  0.2216  0.0492  0.4937
19203SOL    HW160501   0.631   8.038   3.449  0.8804 -0.7132  0.0608
19203SOL    HW260502   0.735   7.962   3.528 -0.0078 -0.5796  1.3768
19204SOL     OW60503   6.125   3.331   0.190  0.0493 -0.6367 -0.2588
19204SOL    HW160504   6.105   3.271   0.118  2.1280 -0.0131 -1.4577
19204SOL    HW260505   6.220   3.323   0.202 -0.1577 -0.3493  2.1287
19205SOL     OW60506   2.826   9.192   9.135  0.1785  0.2662  0.2423
19205SOL    HW160507   2.795   9.225   9.220  0.8887  2.1112 -0.1743
19205SOL    HW260508   2.761   9.224   9.073 -0.1708 -0.8218  0.0307
19206SOL     OW60509   8.931   3.882   4.287 -0.6604  0.3777 -0.0909
19206SOL    HW160510   8.983   3.954   4.321 -1.4530  0.4322  1.0567
19206SOL    HW260511   8.994   3.827   4.240  0.7561 -0.3799  2.5161
19207SOL     OW60512   1.938   4.633   6.064 -0.2142  0.3044 -0.4448
19207SOL    HW160513   1.889   4.706   6.102  2.6453  1.9052  0.4041
19207SOL    HW260514   1.979   4.668   5.986  0.8119 -0.5293 -0.3057
19208SOL     OW60515   3.667   2.923   6.741  0.2720 -0.1231 -0.1203
19208SOL    HW160516   3.627   2.952   6.659 -0.3490 -0.0273  0.2105
19208SOL    HW260517   3.761   2.918   6.722  0.2061  0.5507 -0.6396
19209SOL     OW60518   6.104   5.218   5.380  0.2940 -0.2194 -0.6393
19209SOL    HW160519   6.169   5.269   5.428 -0.7155 -0.0830  0.6493
19209SOL    HW260520   6.144   5.132   5.369  0.1326 -0.6118  1.4866
19210SOL     OW60521   6.849   3.542   4.068  0.2283  0.3469  0.7205
19210SOL    HW160522   6.837   3.609   4.001  1.1598 -0.0185  0.1650
19210SOL    HW260523   6.765   3.536   4.111 -0.5001  0.3733 -0.6373
19211SOL     OW60524   0.173   8.039   2.440  0.0721 -0.7535  0.4280
19211SOL    HW160525   0.259   8.031   2.398  0.2804 -1.4673  0.9506
19211SOL    HW260526   0.110   8.030   2.369  0.4317 -0.3182  0.0520
19212SOL     OW60527   3.105   5.462   6.687 -0.4410  0.6484  0.4395
19212SOL    HW160528   3.183   5.516   6.700 -1.8483  3.2730 -1.2067
19212SOL    HW260529   3.034   5.514   6.724 -1.7770 -0.4905 -0.4535
19213SOL     OW60530   6.266   7.410   0.895 -0.8781  0.1555 -0.3955
19213SOL    HW160531   6.267   7.347   0.823  0.1675 -0.7122  0.3576
19213SOL    HW260532   6.339   7.470   0.876  1.0019 -1.5101  1.1253
19214SOL     OW60533   2.215   1.226   4.752  0.0782  0.1716 -0.7394
19214SOL    HW160534   2.136   1.260   4.711  0.4529  0.9232 -0.8612
19214SOL    HW260535   2.210   1.255   4.843 -0.0027 -0.1628 -0.6364
19215SOL     OW60536   7.871   8.539   3.009  0.3153  0.3813 -0.7069
19215SOL    HW160537   7.839   8.460   3.053 -0.7296  0.9541 -0.4162
19215SOL    HW260538   7.951   8.510   2.964 -0.1193 -0.8697 -0.7156
19216SOL     OW60539   8.981   1.544   7.702  0.0748  0.8307  0.2463
19216SOL    HW160540   8.893   1.580   7.710  0.2654  1.1558  0.8953
19216SOL    HW260541   9.025   1.602   7.639 -0.2524  0.4964 -0.3057
19217SOL     OW60542   3.921   4.279   6.315 -0.2568 -0.0583  0.5618
19217SOL    HW160543   3.972   4.357   6.334 -0.6418  0.9571 -2.1030
19217SOL    HW260544   3.975   4.206   6.347 -0.2372  1.2289  3.7778
19218SOL     OW60545   8.749   8.588   8.961  0.2471  0.5388 -0.3590
19218SOL    HW160546   8.696   8.534   9.020  0.2968  0.1908 -0.6286
19218SOL    HW260547   8.804   8.640   9.018  2.3091 -1.7724 -0.0912
19219SOL     OW60548   6.370   5.981   7.532 -0.1430 -0.2391  0.1614
19219SOL    HW160549   6.277   5.996   7.513 -0.1949 -0.4773  0.2152
19219SOL    HW260550   6.386   5.891   7.502 -0.2777 -0.7043  1.4157
19220SOL     OW60551   1.593   2.560   6.307 -0.1543  0.1157  0.6457
19220SOL    HW160552   1.553   2.641   6.339 -0.5711  0.1740  0.0025
19220SOL    HW260553   1.682   2.584   6.285 -0.6098  0.6968 -0.6516
19221SOL     OW60554   0.593   5.550   1.588 -0.0924  0.1483 -0.1239
19221SOL    HW160555   0.505   5.531   1.556 -0.5434  0.7298  0.7334
19221SOL    HW260556   0.645   5.473   1.563 -0.9746 -0.4654 -0.1212
19222SOL     OW60557   8.618   6.490   0.932 -0.1472  0.1450 -0.7000
19222SOL    HW160558   8.527   6.463   0.917  0.1215 -0.8209 -0.6568
19222SOL    HW260559   8.614   6.546   1.009 -0.6551 -0.2412 -0.4399
19223SOL     OW60560   2.601   8.325   5.076 -0.6626  0.1870 -0.3845
19223SOL    HW160561   2.557   8.408   5.054 -0.3685 -0.3627 -3.5406
19223SOL    HW260562   2.642   8.298   4.994 -0.2322 -2.8090  0.7075
19224SOL     OW60563   8.870   1.435   0.853  0.7082 -0.4349 -0.2070
19224SOL    HW160564   8.845   1.524   0.828  3.6134  0.1787 -1.3227
19224SOL    HW260565   8.884   1.389   0.769 -0.2833 -1.8269  0.3501
19225SOL     OW60566   4.317   8.612   6.692 -0.0089 -0.4823 -0.7963
19225SOL    HW160567   4.362   8.639   6.772 -1.2539  0.5572 -0.4251
19225SOL    HW260568   4.352   8.525   6.674 -0.6873 -1.3304  1.6409
19226SOL     OW60569   5.164   8.863   5.101  0.1267  0.4651  0.8000
19226SOL    HW160570   5.135   8.954   5.101 -1.8832 -0.0720 -1.2884
19226SOL    HW260571   5.227   8.857   5.030 -1.9026 -0.2613 -1.0568
19227SOL     OW60572   6.549   0.311   2.815 -0.0323  0.0101 -0.1411
19227SOL    HW160573   6.551   0.339   2.723  2.5595  1.0609  0.1561
19227SOL    HW260574   6.591   0.225   2.815  0.2674  0.1526  0.0747
19228SOL     OW60575   2.561   7.345   6.160  0.1740 -0.3302  0.1875
19228SOL    HW160576   2.563   7.418   6.098 -1.7339 -2.2364 -2.3439
19228SOL    HW260577   2.557   7.386   6.246  2.8004  2.4705 -0.8584
19229SOL     OW60578   3.480   1.610   9.227 -0.1252  0.5591 -0.7208
19229SOL    HW160579   3.500   1.677   9.161  0.2191  0.9792 -0.1961
19229SOL    HW260580   3.503   1.651   9.311 -0.5040  0.0117 -0.3410
19230SOL     OW60581   1.887   7.347   7.420  0.0446 -0.5352  0.0684
19230SOL    HW160582   1.980   7.327   7.432  0.4260  1.4256  0.8421
19230SOL    HW260583   1.847   7.326   7.505  0.0427 -0.1330  0.1694
19231SOL     OW60584   4.562   2.288   2.314  0.0807 -0.3380  0.7700
19231SOL    HW160585   4.563   2.202   2.272  2.5511  0.6422 -1.4115
19231SOL    HW260586   4.541   2.349   2.244 -1.3779  0.9360  2.2204
19232SOL     OW60587   1.723   4.952   1.243  0.3289  0.3215  0.1501
19232SOL    HW160588   1.752   4.967   1.333  3.4944 -0.0072 -0.7141
19232SOL    HW260589   1.701   4.859   1.240 -0.7571  0.5347  0.7698
19233SOL     OW60590   1.036   3.361   0.597 -0.9188  0.1949  0.2290
19233SOL    HW160591   1.032   3.449   0.561  0.8731  0.1590 -0.1876
19233SOL    HW260592   1.088   3.370   0.677  1.4578 -0.7600 -1.0776
19234SOL     OW60593   2.593   3.146   3.638  0.1421 -0.2347 -0.1249
19234SOL    HW160594   2.536   3.074   3.663  0.4275 -0.5136 -0.2640
19234SOL    HW260595   2.680   3.105   3.629  0.0423 -0.1713 -1.6591
19235SOL     OW60596   2.218   1.368   3.112  0.2842  0.4269  0.2574
19235SOL    HW160597   2.233   1.365   3.207  0.2800 -1.9021  0.2468
19235SOL    HW260598   2.140   1.314   3.099  1.8128 -1.5823 -1.2724
19236SOL     OW60599   3.473   8.417   2.693 -0.0733 -0.1151  0.3159
19236SOL    HW160600   3.407   8.395   2.627  0.9775 -0.7402 -0.5602
19236SOL    HW260601   3.423   8.454   2.766 -1.9183 -4.4522  1.5620
19237SOL     OW60602   5.007   1.157   3.815 -0.2746 -0.1472  0.7059
19237SOL    HW160603   4.978   1.224   3.753  0.4196 -0.6844 -0.2287
19237SOL    HW260604   5.003   1.200   3.900  0.5032  1.2136  0.0899
19238SOL     OW60605   6.334   1.304   4.480 -0.3566  0.0813  0.1607
19238SOL    HW160606   6.344   1.393   4.513  0.0075  0.5135 -1.0829
19238SOL    HW260607   6.418   1.283   4.439 -0.0669 -1.2333  1.3360
19239SOL     OW60608   3.768   2.599   2.800 -0.5043 -0.2762 -0.1016
19239SOL    HW160609   3.807   2.544   2.732 -0.7768 -0.7394  0.1127
19239SOL    HW260610   3.841   2.650   2.835 -0.6692  1.4695 -2.1139
19240SOL     OW60611   2.009   7.358   5.910  0.1037  0.2545  0.1508
19240SOL    HW160612   2.010   7.343   5.816  0.7121  0.5930  0.1001
19240SOL    HW260613   2.047   7.278   5.947 -1.2880 -0.4073  0.1961
19241SOL     OW60614   2.352   4.037   2.774  0.2556  0.3798 -0.9634
19241SOL    HW160615   2.426   4.098   2.763  0.1976  0.7572  0.5536
19241SOL    HW260616   2.365   3.999   2.861 -1.1742  0.2422 -0.7899
19242SOL     OW60617   3.145   2.037   7.908 -0.1917 -0.6738  0.3243
19242SOL    HW160618   3.079   2.046   7.839  1.0633 -1.1533 -1.0101
19242SOL    HW260619   3.197   2.118   7.901 -1.3628  0.3094  2.2304
19243SOL     OW60620   4.088   2.311   0.506  0.0532  0.5461 -0.4949
19243SOL    HW160621   4.065   2.385   0.449 -1.4020 -0.1968 -0.9135
19243SOL    HW260622   4.163   2.343   0.557 -0.0345  2.0219 -1.2294
19244SOL     OW60623   3.774   5.033   8.282  0.3209  0.1234  0.4937
19244SOL    HW160624   3.843   4.991   8.333  0.6789 -0.2844 -0.3226
19244SOL    HW260625   3.816   5.109   8.241  0.7128 -0.9595 -1.2210
19245SOL     OW60626   0.942   8.063   8.096  0.1497 -0.3911  0.0735
19245SOL    HW160627   1.033   8.032   8.100 -0.0278 -0.8500  1.0781
19245SOL    HW260628   0.949   8.156   8.078  0.8161 -0.4803 -0.1560
19246SOL     OW60629   2.865   6.665   2.877 -0.1243  0.2296  0.3563
19246SOL    HW160630   2.875   6.570   2.875  2.5263  0.4229  1.0130
19246SOL    HW260631   2.772   6.679   2.893 -0.3654 -2.2663  1.5274
19247SOL     OW60632   5.792   6.409   8.985 -0.3053 -0.6496  0.0182
19247SOL    HW160633   5.770   6.413   9.078 -0.3526  0.2588 -0.0291
19247SOL    HW260634   5.710   6.429   8.939  0.1406  0.8221 -0.1801
19248SOL     OW60635   2.013   8.380   1.283  0.4142  0.1643  0.6891
19248SOL    HW160636   2.017   8.358   1.376  2.2638  0.6803  0.7592
19248SOL    HW260637   2.103   8.373   1.252 -0.1757 -0.1661 -1.1288
19249SOL     OW60638   3.168   8.441   2.049  0.3429  0.1196  0.5329
19249SOL    HW160639   3.196   8.519   2.000  0.1931 -2.6511 -4.6188
19249SOL    HW260640   3.247   8.389   2.058 -0.1309 -0.5199  1.0695
19250SOL     OW60641   5.820   7.491   6.178  0.1477 -0.5939  0.0739
19250SOL    HW160642   5.858   7.549   6.112 -0.1101 -0.5324 -0.0227
19250SOL    HW260643   5.756   7.439   6.129 -0.8155  0.1909  0.4832
19251SOL     OW60644   4.076   0.730   3.280 -0.0150 -0.5736  0.6970
19251SOL    HW160645   4.109   0.791   3.346 -0.4745 -1.0625  1.4019
19251SOL    HW260646   3.992   0.700   3.316 -0.0965 -1.1249  0.0595
19252SOL     OW60647   2.175   2.936   4.099 -0.3695 -0.1784 -0.0447
19252SOL    HW160648   2.209   2.964   4.184 -1.8482 -0.1849  0.5743
19252SOL    HW260649   2.152   3.018   4.055  2.8474  0.0505 -1.6057
19253SOL     OW60650   4.157   8.804   0.107  0.2507  0.2409 -0.0512
19253SOL    HW160651   4.250   8.826   0.103 -0.0216  1.4596 -0.2144
19253SOL    HW260652   4.146   8.758   0.190  0.8831  0.6448  0.2629
19254SOL     OW60653   0.999   1.822   6.215 -0.2145 -0.7246 -0.4626
19254SOL    HW160654   1.025   1.905   6.256 -0.3220 -0.8960 -0.0362
19254SOL    HW260655   1.004   1.839   6.121  1.7083 -0.8215 -0.4157
19255SOL     OW60656   6.923   7.710   2.522  0.5770  0.2267 -0.0127
19255SOL    HW160657   6.846   7.763   2.540  0.4190  1.0112 -2.5873
19255SOL    HW260658   6.996   7.763   2.555  0.1915  0.4317  0.5452
19256SOL     OW60659   5.931   4.529   5.584  0.3957  0.1353  0.2343
19256SOL    HW160660   5.885   4.521   5.500  1.6020  0.2569 -0.4606
19256SOL    HW260661   5.867   4.571   5.642 -0.2068  0.7584 -0.8419
19257SOL     OW60662   7.120   2.355   7.793 -0.4196  0.2857  0.3316
19257SOL    HW160663   7.067   2.280   7.764 -0.7933  0.4981  0.4671
19257SOL    HW260664   7.118   2.350   7.889  2.1043 -1.3476  0.4050
19258SOL     OW60665   3.204   4.441   8.523 -0.1829 -0.4768  0.7261
19258SOL    HW160666   3.224   4.418   8.433  0.2937  0.1253  0.6710
19258SOL    HW260667   3.108   4.444   8.526 -0.1960  0.4963 -0.0284
19259SOL     OW60668   6.960   6.098   8.330  0.4534  0.3452 -0.4101
19259SOL    HW160669   6.949   6.193   8.328 -1.2956  0.3460  2.4301
19259SOL    HW260670   6.988   6.079   8.420 -2.1938 -1.9441  0.0940
19260SOL     OW60671   7.844   4.874   1.333 -0.2094 -0.5869  0.3269
19260SOL    HW160672   7.822   4.810   1.265 -1.4026 -1.1978  1.2310
19260SOL    HW260673   7.778   4.943   1.323  0.9448  0.4371 -0.5059
19261SOL     OW60674   6.193   6.659   6.003  0.3155 -0.1092 -0.1485
19261SOL    HW160675   6.143   6.586   6.039  0.8356  0.2796  1.4573
19261SOL    HW260676   6.163   6.736   6.052  1.7714  0.2804  0.2056
19262SOL     OW60677   5.398   3.634   8.956 -0.8785 -0.1110  0.1871
19262SOL    HW160678   5.436   3.718   8.929  1.0609 -0.0993  2.5832
19262SOL    HW260679   5.474   3.576   8.968 -2.0953 -1.8743 -0.2424
19263SOL     OW60680   2.218   4.619   2.915  0.0522 -0.5390  0.3816
19263SOL    HW160681   2.287   4.677   2.884 -0.0601  0.0003  1.1256
19263SOL    HW260682   2.247   4.591   3.002  0.5991 -2.4130 -0.3426
19264SOL     OW60683   6.525   4.091   2.799  0.2036 -0.1691 -0.0153
19264SOL    HW160684   6.602   4.147   2.798  0.7140 -0.8125  1.3339
19264SOL    HW260685   6.555   4.009   2.759  0.1297 -0.2966  0.1880
19265SOL     OW60686   6.650   5.877   0.340  0.0977 -0.1698 -0.6522
19265SOL    HW160687   6.584   5.894   0.273  0.2387  0.7159 -0.5822
19265SOL    HW260688   6.722   5.835   0.292 -0.7407 -1.7043 -0.6190
19266SOL     OW60689   5.573   2.210   1.446 -0.8188  0.5068  0.1777
19266SOL    HW160690   5.515   2.142   1.411 -1.2964  0.9108  0.1658
19266SOL    HW260691   5.652   2.204   1.393 -1.5048  1.0742 -0.9610
19267SOL     OW60692   5.325   4.305   0.485 -0.1703  0.5454  0.5914
19267SOL    HW160693   5.382   4.244   0.439  0.4397 -0.5613  2.6629
19267SOL    HW260694   5.257   4.250   0.525 -0.7645  1.4567  0.8847
19268SOL     OW60695   5.565   8.162   2.375 -0.5802 -0.3973 -0.4568
19268SOL    HW160696   5.610   8.244   2.400  1.3074 -1.7479  0.8955
19268SOL    HW260697   5.504   8.146   2.447  0.1457 -0.9244  0.0574
19269SOL     OW60698   8.842   7.050   2.880 -0.4097 -0.1184  0.1001
19269SOL    HW160699   8.779   6.990   2.841 -0.6018 -0.8680  1.4987
19269SOL    HW260700   8.794   7.132   2.891 -0.2381  0.2282 -1.5257
19270SOL     OW60701   6.224   3.995   1.689  0.4899 -0.1391 -0.0601
19270SOL    HW160702   6.238   4.004   1.595  0.5841 -0.7254 -0.1085
19270SOL    HW260703   6.266   3.912   1.711  0.0370 -0.2518  0.4069
19271SOL     OW60704   8.681   3.051   7.067 -0.0877 -0.5515 -0.0493
19271SOL    HW160705   8.661   3.135   7.109 -0.2451  0.0179 -1.2469
19271SOL    HW260706   8.687   2.989   7.140  0.5802  0.5941  0.8997
19272SOL     OW60707   1.942   1.153   1.604 -0.2460  0.1164 -0.3111
19272SOL    HW160708   1.984   1.116   1.681 -0.2820  1.7516  0.5521
19272SOL    HW260709   1.849   1.153   1.625 -0.1804  1.4448  0.0976
19273SOL     OW60710   7.864   6.252   6.138  0.8650  0.4310 -0.3534
19273SOL    HW160711   7.902   6.167   6.116 -1.5615 -0.2524 -2.3178
19273SOL    HW260712   7.800   6.233   6.206  1.2990  0.9388  0.2046
19274SOL     OW60713   8.942   3.272   0.544 -0.0490 -0.2208 -0.4632
19274SOL    HW160714   8.858   3.230   0.563 -0.0814 -0.1297 -0.4072
19274SOL    HW260715   8.950   3.342   0.608  1.2015 -1.7687  1.1736
19275SOL     OW60716   0.539   0.743   4.600 -0.2288  0.1176  0.1811
19275SOL    HW160717   0.481   0.734   4.676 -1.4086 -1.5527 -0.8347
19275SOL    HW260718   0.500   0.813   4.548 -1.1265 -0.6893 -0.2698
19276SOL     OW60719   0.607   5.958   2.501  0.5190  0.0871 -0.1814
19276SOL    HW160720   0.675   5.963   2.567 -1.3870  1.0979  1.8484
19276SOL    HW260721   0.603   6.046   2.463  0.2495  0.0862 -0.1607
19277SOL     OW60722   2.723   6.068   8.102 -0.0454  0.3297  0.2988
19277SOL    HW160723   2.638   6.056   8.060 -0.7582 -0.0300  1.7836
19277SOL    HW260724   2.706   6.055   8.195  1.1872  2.6061  0.9200
19278SOL     OW60725   5.003   7.715   7.942  1.0747 -0.2747  0.6451
19278SOL    HW160726   5.004   7.660   7.864  1.2731  0.5544  0.0559
19278SOL    HW260727   4.916   7.702   7.980 -0.5947  2.2987 -1.8951
19279SOL     OW60728   1.408   0.820   1.864 -0.0416  0.1844  0.5935
19279SOL    HW160729   1.493   0.792   1.898 -1.6125 -1.6479  3.4361
19279SOL    HW260730   1.404   0.784   1.776  0.4072 -3.9595  2.0320
19280SOL     OW60731   3.745   1.273   8.883  0.2789  0.3130  0.2517
19280SOL    HW160732   3.704   1.284   8.969 -0.5956 -0.6254 -0.0286
19280SOL    HW260733   3.748   1.178   8.869 -0.1959  0.4641 -1.0363
19281SOL     OW60734   1.112   0.898   3.543  0.5110  0.4822  0.0036
19281SOL    HW160735   1.156   0.980   3.520  3.4134 -0.9678 -0.0716
19281SOL    HW260736   1.181   0.844   3.581 -1.7093 -1.2998  1.7611
19282SOL     OW60737   9.170   6.636   3.622  0.8205  0.1289 -0.2444
19282SOL    HW160738   9.223   6.673   3.693  0.5634 -0.4020  0.2304
19282SOL    HW260739   9.208   6.550   3.606  0.7340  0.1547 -0.6018
19283SOL     OW60740   7.704   1.213   6.833 -0.2480  0.3422 -0.2616
19283SOL    HW160741   7.634   1.179   6.888 -0.3700  1.3432  0.2156
19283SOL    HW260742   7.710   1.150   6.761 -0.3326 -0.7907  0.6878
19284SOL     OW60743   0.072   5.727   4.121 -0.0504  0.4730 -0.5502
19284SOL    HW160744   0.150   5.729   4.176  0.5773  0.6539 -1.4262
19284SOL    HW260745  -0.000   5.710   4.182  0.5512  1.2323  0.3914
19285SOL     OW60746   7.352   7.714   0.739  0.0719 -0.0332 -0.4047
19285SOL    HW160747   7.366   7.674   0.653  0.8762 -0.3533 -0.1281
19285SOL    HW260748   7.306   7.647   0.790  1.5681 -0.7107  0.1128
19286SOL     OW60749   7.563   0.449   5.407 -0.3185  0.8492 -0.4518
19286SOL    HW160750   7.624   0.399   5.354 -0.5540  0.2503 -0.1647
19286SOL    HW260751   7.541   0.391   5.480 -0.6776  1.3270 -0.1739
19287SOL     OW60752   5.037   4.920   5.399 -0.0015  0.6286  0.0661
19287SOL    HW160753   4.984   4.920   5.479  0.9768 -0.0736  0.7321
19287SOL    HW260754   5.123   4.950   5.428  0.4783 -0.0445 -0.6518
19288SOL     OW60755   0.779   7.525   3.525  0.5073  0.2409 -0.0237
19288SOL    HW160756   0.839   7.594   3.497  0.3774  0.3499 -0.0323
19288SOL    HW260757   0.802   7.509   3.617  0.3480  0.4942  0.0621
19289SOL     OW60758   7.256   5.506   5.208 -0.4408  0.3165  0.4842
19289SOL    HW160759   7.292   5.560   5.138 -1.2974 -1.4371 -1.4087
19289SOL    HW260760   7.333   5.472   5.255  0.1841  0.6245 -0.3111
19290SOL     OW60761   4.480   6.689   6.287 -0.0455 -0.0096  0.5998
19290SOL    HW160762   4.461   6.762   6.228 -1.5334 -1.0423 -0.2795
19290SOL    HW260763   4.525   6.625   6.233  1.2281  0.2105  1.3575
19291SOL     OW60764   2.415   7.588   2.675 -0.4871 -0.1508 -0.0005
19291SOL    HW160765   2.416   7.669   2.727 -1.1010  1.5664 -2.4356
19291SOL    HW260766   2.322   7.566   2.666 -0.5462  0.6031 -1.7057
19292SOL     OW60767   6.896   8.860   0.877  0.2345  0.2357  0.3395
19292SOL    HW160768   6.908   8.765   0.884  0.2241  0.0742 -1.3325
19292SOL    HW260769   6.972   8.897   0.920 -0.0125 -0.5148  1.4635
19293SOL     OW60770   3.596   1.877   4.694  0.3359  0.3622  0.0566
19293SOL    HW160771   3.525   1.911   4.640  0.1019 -1.5446 -0.9244
19293SOL    HW260772   3.675   1.915   4.657 -0.0811  1.9356  0.7039
19294SOL     OW60773   0.406   2.373   0.947  0.2527 -0.2007  0.0840
19294SOL    HW160774   0.416   2.366   1.042  0.8712 -0.7295 -0.0127
19294SOL    HW260775   0.332   2.317   0.927  0.2063 -0.1969  0.2394
19295SOL     OW60776   7.058   6.770   4.555  0.2640 -0.0421 -0.4847
19295SOL    HW160777   6.975   6.767   4.507 -0.2506  0.6460  0.3252
19295SOL    HW260778   7.043   6.836   4.623  1.3982 -0.0919 -0.1757
19296SOL     OW60779   7.518   6.411   8.437  0.4314  0.0656  0.3804
19296SOL    HW160780   7.502   6.319   8.416 -1.9017  0.8067 -1.5722
19296SOL    HW260781   7.554   6.410   8.526 -1.0536 -2.6188  1.0552
19297SOL     OW60782   3.270   2.291   6.811 -0.1917 -0.0077 -0.0032
19297SOL    HW160783   3.346   2.331   6.854  0.9887 -2.2480  0.1555
19297SOL    HW260784   3.285   2.305   6.718  0.9660 -1.2124 -0.0398
19298SOL     OW60785   1.069   8.074   4.542  0.1615 -0.1030  0.0720
19298SOL    HW160786   1.103   8.151   4.589 -0.6331  0.3232 -0.0362
19298SOL    HW260787   0.977   8.095   4.525 -0.1351 -1.1974  0.2782
19299SOL     OW60788   2.956   6.532   4.603  0.0753 -0.8248  0.1428
19299SOL    HW160789   3.043   6.551   4.570  0.2840  0.8300  1.4989
19299SOL    HW260790   2.971   6.488   4.687 -0.3070  1.4552  1.4758
19300SOL     OW60791   1.698   0.354   3.370 -0.4521  0.6195 -0.4963
19300SOL    HW160792   1.617   0.310   3.344 -0.0381 -1.0995  0.8676
19300SOL    HW260793   1.687   0.445   3.342 -2.3254  0.1510 -1.4313
19301SOL     OW60794   6.933   7.353   3.099  0.3120  0.1796 -0.0197
19301SOL    HW160795   6.852   7.376   3.144 -1.0685 -0.8057 -1.8539
19301SOL    HW260796   6.972   7.437   3.074 -0.6390  0.6599  0.0616
19302SOL     OW60797   3.545   1.961   6.388  0.0498  0.0919  0.1167
19302SOL    HW160798   3.481   1.891   6.405 -1.3485  0.6226 -2.4329
19302SOL    HW260799   3.504   2.015   6.320  2.1449  1.9923  0.2465
19303SOL     OW60800   0.632   5.120   8.843 -0.4847  0.1889 -0.1533
19303SOL    HW160801   0.638   5.089   8.753  0.2965  1.1434 -0.4431
19303SOL    HW260802   0.609   5.212   8.835 -1.2073  0.0916  0.6578
19304SOL     OW60803   9.110   1.523   6.881 -0.0932  0.1096 -0.1620
19304SOL    HW160804   9.185   1.477   6.842  0.4381 -0.6945  1.6507
19304SOL    HW260805   9.035   1.466   6.864 -0.2795  0.8230 -1.8221
19305SOL     OW60806   5.844   7.226   3.411  0.0627  0.3449  0.2920
19305SOL    HW160807   5.852   7.145   3.360  0.0616  1.4866 -1.6400
19305SOL    HW260808   5.922   7.226   3.467  1.1436 -0.0720 -1.1231
19306SOL     OW60809   7.489   2.341   5.213  0.2921 -0.0344 -0.0855
19306SOL    HW160810   7.468   2.342   5.307  0.7385  1.0616  0.0142
19306SOL    HW260811   7.544   2.418   5.200  0.6092 -0.4331 -1.1718
19307SOL     OW60812   7.160   1.357   8.724 -0.3076  0.0890  0.5074
19307SOL    HW160813   7.252   1.355   8.748 -0.4412 -1.7575  1.0650
19307SOL    HW260814   7.156   1.414   8.648  1.5180 -0.8054 -0.3304
19308SOL     OW60815   0.593   0.514   3.764  0.3551  0.4989 -0.2552
19308SOL    HW160816   0.551   0.571   3.828 -0.1431 -0.8171  0.6280
19308SOL    HW260817   0.684   0.546   3.759  0.3059  0.8325  0.8444
19309SOL     OW60818   3.403   1.081   5.591 -0.3715 -0.4274  0.2546
19309SOL    HW160819   3.340   1.058   5.660 -0.5297 -0.6399  0.0440
19309SOL    HW260820   3.489   1.074   5.633 -0.4807 -0.3335  0.4911
19310SOL     OW60821   6.204   7.443   4.521 -0.3727  0.3411 -0.2875
19310SOL    HW160822   6.191   7.410   4.610 -0.1874 -1.0523 -0.7634
19310SOL    HW260823   6.214   7.365   4.467 -1.0552  1.1483 -1.6339
19311SOL     OW60824   7.067   6.075   6.333 -0.0094  0.2242  0.2971
19311SOL    HW160825   7.032   5.991   6.363  3.2130 -0.7906  1.6259
19311SOL    HW260826   7.042   6.080   6.241 -1.3539 -1.5642  0.5087
19312SOL     OW60827   5.239   8.513   3.729 -0.2019 -0.0242 -0.1073
19312SOL    HW160828   5.256   8.422   3.754 -2.0626 -0.5054 -0.4820
19312SOL    HW260829   5.260   8.515   3.635 -0.0530 -0.0312 -0.0751
19313SOL     OW60830   7.354   0.723   5.626 -0.3102 -0.0490 -0.2369
19313SOL    HW160831   7.375   0.635   5.660  1.8034  0.7007  0.5455
19313SOL    HW260832   7.436   0.754   5.589 -1.0101  1.6391 -0.4171
19314SOL     OW60833   7.528   3.244   4.869  0.4680 -0.1174 -0.3500
19314SOL    HW160834   7.600   3.234   4.931 -0.7794 -0.7273  1.0529
19314SOL    HW260835   7.571   3.255   4.784  2.2068 -0.0713  0.4930
19315SOL     OW60836   4.317   9.257   8.226 -0.4996 -0.1474 -0.4444
19315SOL    HW160837   4.333   9.331   8.285 -0.0461 -0.0039 -0.7489
19315SOL    HW260838   4.221   9.254   8.218 -0.4890  1.5913 -1.9010
19316SOL     OW60839   1.875   5.038   6.946 -0.0107  0.1136 -0.0205
19316SOL    HW160840   1.940   5.030   6.876  0.8996 -0.9060  0.8943
19316SOL    HW260841   1.805   4.978   6.920 -0.0627  0.3604 -0.4598
19317SOL     OW60842   4.765   8.986   0.457 -0.0837 -0.0300  0.1865
19317SOL    HW160843   4.856   9.007   0.436 -0.1017 -1.1277 -1.1805
19317SOL    HW260844   4.746   9.034   0.537  0.9912  2.0218 -0.7186
19318SOL     OW60845   5.632   1.702   7.110  0.5538  0.0958 -0.1051
19318SOL    HW160846   5.543   1.714   7.143  0.8275 -0.5213  0.8968
19318SOL    HW260847   5.621   1.684   7.017 -0.4131 -0.4637  0.1041
19319SOL     OW60848   8.072   4.895   2.762  0.7811  0.1616 -0.1350
19319SOL    HW160849   8.070   4.989   2.746 -0.4515  0.0283 -0.8854
19319SOL    HW260850   7.986   4.864   2.734  1.2067 -1.2059  0.0007
19320SOL     OW60851   5.162   5.318   6.882  0.0139  0.0650  0.3203
19320SOL    HW160852   5.190   5.391   6.826  0.6026  0.4212  1.0662
19320SOL    HW260853   5.175   5.350   6.971 -0.2756 -0.7468  0.6595
19321SOL     OW60854   0.517   7.394   4.805 -0.0693 -0.0507 -0.0594
19321SOL    HW160855   0.422   7.398   4.794  0.1194  0.9327 -1.7074
19321SOL    HW260856   0.549   7.349   4.727  0.8897  0.4711  0.0140
19322SOL     OW60857   1.707   8.618   0.360 -0.1916  0.1999  0.2856
19322SOL    HW160858   1.729   8.675   0.434 -0.7943  2.0364 -0.8695
19322SOL    HW260859   1.782   8.624   0.301 -0.0136 -0.6933  0.4065
19323SOL     OW60860   3.070   0.774   6.161  0.5419 -0.3976 -0.3274
19323SOL    HW160861   3.101   0.689   6.194  0.3000 -0.9265 -1.4112
19323SOL    HW260862   2.984   0.786   6.201  0.6255 -0.6084 -0.0820
19324SOL     OW60863   5.318   6.407   6.514 -0.4521 -0.4924 -0.5476
19324SOL    HW160864   5.327   6.384   6.422 -1.4840 -0.1542 -0.7488
19324SOL    HW260865   5.406   6.400   6.550  0.1575  0.4155 -1.8067
19325SOL     OW60866   2.840   3.177   1.826 -0.0267 -0.3300  0.0973
19325SOL    HW160867   2.934   3.191   1.841  0.0745 -0.7852 -0.1016
19325SOL    HW260868   2.802   3.177   1.914  0.1024  0.2041  0.1627
19326SOL     OW60869   8.434   0.783   3.118 -0.2681  0.9596  0.2489
19326SOL    HW160870   8.455   0.710   3.176 -2.7396 -0.4298 -0.4479
19326SOL    HW260871   8.484   0.765   3.039 -1.1074 -0.2569 -0.0480
19327SOL     OW60872   3.717   8.232   8.848 -0.0784 -0.1394 -0.2904
19327SOL    HW160873   3.644   8.187   8.890  0.6851  0.8071  2.2714
19327SOL    HW260874   3.683   8.261   8.764 -2.2411 -0.7955  0.3035
19328SOL     OW60875   6.921   0.454   5.237  0.7507  0.2382  0.3216
19328SOL    HW160876   6.977   0.436   5.312  0.2816  0.9141  0.8406
19328SOL    HW260877   6.890   0.368   5.209  1.5902 -0.0932  0.3699
19329SOL     OW60878   8.466   8.762   2.293 -0.6831 -0.1666 -0.0934
19329SOL    HW160879   8.381   8.717   2.289 -0.7459  0.0488 -1.6176
19329SOL    HW260880   8.463   8.809   2.377 -1.2940 -1.6157  0.7456
19330SOL     OW60881   2.917   6.362   8.707  0.0349 -0.4498  0.1218
19330SOL    HW160882   2.909   6.373   8.612  0.0352 -1.2057  0.0277
19330SOL    HW260883   2.846   6.302   8.730 -0.6550  0.5931  0.7743
19331SOL     OW60884   8.721   3.698   7.130 -0.1084  0.0912  0.2441
19331SOL    HW160885   8.751   3.784   7.100 -1.8181  0.7048  0.1665
19331SOL    HW260886   8.685   3.656   7.051  1.0168 -0.8525  0.2118
19332SOL     OW60887   8.365   2.701   5.346 -0.2035  0.1252  0.2835
19332SOL    HW160888   8.329   2.779   5.303  1.6070  0.6876 -0.3114
19332SOL    HW260889   8.443   2.733   5.391 -0.8014 -0.8963  2.1555
19333SOL     OW60890   5.145   2.157   9.025 -0.4144  0.0344 -0.3733
19333SOL    HW160891   5.232   2.131   9.056 -0.2990  1.0290  0.1749
19333SOL    HW260892   5.163   2.216   8.951 -0.5387  1.6571  0.8309
19334SOL     OW60893   0.041   2.928   2.844  0.0738  0.1481 -0.0523
19334SOL    HW160894   0.122   2.956   2.887  1.3235 -0.9522 -1.5947
19334SOL    HW260895   0.027   2.992   2.775 -0.9214  0.8574  0.7668
19335SOL     OW60896   6.676   8.088   8.598 -0.1050  0.0666 -0.1176
19335SOL    HW160897   6.759   8.132   8.612 -0.1991  0.2741 -0.2103
19335SOL    HW260898   6.637   8.082   8.685  0.3463 -0.7103  0.0354
19336SOL     OW60899   2.687   1.605   5.092 -1.0398 -0.4409  0.2563
19336SOL    HW160900   2.622   1.552   5.138  0.3601 -3.0682 -0.5842
19336SOL    HW260901   2.693   1.566   5.005  0.8941  0.3899 -0.0370
19337SOL     OW60902   7.692   0.697   7.560  0.5451  0.0923  0.0846
19337SOL    HW160903   7.630   0.768   7.543  0.8237  0.2019 -0.4857
19337SOL    HW260904   7.719   0.710   7.651 -0.1828  0.1077  0.3057
19338SOL     OW60905   7.520   1.511   6.971  0.3756  0.0206  0.2745
19338SOL    HW160906   7.462   1.435   6.964 -0.1106  0.3019  1.2104
19338SOL    HW260907   7.585   1.486   7.037  2.2493 -0.8649 -1.7585
19339SOL     OW60908   8.098   5.192   2.533  0.0273  0.3166  0.3119
19339SOL    HW160909   8.033   5.228   2.473 -1.1755 -0.0390  1.3349
19339SOL    HW260910   8.169   5.256   2.534 -0.5685  1.0080 -0.3936
19340SOL     OW60911   5.560   5.925   3.753  0.4255 -0.0466  0.2704
19340SOL    HW160912   5.591   5.836   3.764 -0.8369 -0.7163 -1.1533
19340SOL    HW260913   5.576   5.945   3.660 -0.3372  0.7750  0.3002
19341SOL     OW60914   8.480   7.727   1.446  0.2457  0.1754  0.1125
19341SOL    HW160915   8.399   7.736   1.396  0.5900  0.6888 -0.3681
19341SOL    HW260916   8.489   7.633   1.459 -0.7727  0.1526  0.7594
19342SOL     OW60917   7.644   3.679   6.590 -0.0339  0.8240  0.0828
19342SOL    HW160918   7.562   3.632   6.604 -0.8620  1.1080 -3.1075
19342SOL    HW260919   7.698   3.655   6.665 -2.3806 -0.7955  1.3815
19343SOL     OW60920   4.999   4.415   3.381  0.0696 -0.0281 -0.1652
19343SOL    HW160921   5.069   4.393   3.320  0.3769  0.0850  0.1455
19343SOL    HW260922   4.944   4.336   3.383 -0.5940  0.3586 -1.4617
19344SOL     OW60923   6.308   8.663   0.403 -0.2730 -0.2878 -0.2528
19344SOL    HW160924   6.319   8.706   0.488  0.2826 -0.6328 -0.1450
19344SOL    HW260925   6.322   8.570   0.422  0.2460 -0.3249 -0.7904
19345SOL     OW60926   4.391   4.906   5.725  0.5674 -0.5486  0.3464
19345SOL    HW160927   4.427   4.819   5.708 -1.7769 -1.3805 -0.8163
19345SOL    HW260928   4.396   4.915   5.820  0.6950 -2.0314  0.5074
19346SOL     OW60929   5.907   2.668   3.457 -0.2109  0.3107  0.6773
19346SOL    HW160930   5.845   2.740   3.454 -0.3756  0.1563  0.3395
19346SOL    HW260931   5.855   2.591   3.479 -0.2363  0.0837 -0.1328
19347SOL     OW60932   1.160   3.632   0.806 -0.2578 -0.4166  0.0104
19347SOL    HW160933   1.072   3.630   0.844  0.4819 -1.4200  1.7910
19347SOL    HW260934   1.188   3.540   0.805  0.8234 -0.0989 -0.4034
19348SOL     OW60935   9.106   2.395   7.489  0.0681 -0.5207  0.3091
19348SOL    HW160936   9.045   2.374   7.559 -1.4811  2.2738 -0.0435
19348SOL    HW260937   9.183   2.431   7.533 -0.0264 -0.7026  0.6250
19349SOL     OW60938   3.705   7.968   0.553 -0.1354  0.7965 -0.0979
19349SOL    HW160939   3.750   7.943   0.634 -0.8685 -0.9561 -0.1863
19349SOL    HW260940   3.755   7.926   0.484 -1.3282 -0.4009 -0.2683
19350SOL     OW60941   5.165   4.385   1.287 -0.4153 -0.1889  0.4866
19350SOL    HW160942   5.083   4.429   1.266 -0.9131 -0.6061  1.4464
19350SOL    HW260943   5.182   4.408   1.378 -0.0045 -0.9192  0.6081
19351SOL     OW60944   8.254   0.314   7.992  0.0550  0.2549 -0.0754
19351SOL    HW160945   8.246   0.243   8.055 -1.6276 -0.7683 -1.3545
19351SOL    HW260946   8.319   0.283   7.929 -1.2745 -0.5786 -1.0918
19352SOL     OW60947   0.367   8.566   2.732 -0.3949 -0.1048  0.1964
19352SOL    HW160948   0.352   8.590   2.823 -1.4000 -1.5820  0.4418
19352SOL    HW260949   0.280   8.552   2.696  0.0444 -0.6950 -0.6737
19353SOL     OW60950   1.614   0.664   1.266  0.2098 -0.2607 -0.3706
19353SOL    HW160951   1.651   0.686   1.352 -1.6291  0.8248  0.2032
19353SOL    HW260952   1.677   0.700   1.204  1.3129 -0.6001  0.5108
19354SOL     OW60953   6.615   2.762   8.969  0.4936  0.0327 -0.0459
19354SOL    HW160954   6.528   2.794   8.991  0.3065  0.2631 -1.1011
19354SOL    HW260955   6.647   2.723   9.051 -1.5993 -2.3487 -0.2337
19355SOL     OW60956   5.428   5.248   8.941 -0.3667 -0.9766  0.4873
19355SOL    HW160957   5.446   5.189   8.868 -0.9546 -2.0942  1.2198
19355SOL    HW260958   5.513   5.261   8.983  0.0539 -0.0074 -0.5854
19356SOL     OW60959   1.045   4.191   0.785  0.2858 -0.1029  0.1114
19356SOL    HW160960   0.996   4.273   0.791  1.0214  0.2823  1.1223
19356SOL    HW260961   1.032   4.162   0.695 -0.4393  0.8359 -0.1041
19357SOL     OW60962   8.687   5.524   2.577 -0.1259  0.0875 -0.0111
19357SOL    HW160963   8.652   5.437   2.557 -1.1353  0.3745  0.4324
19357SOL    HW260964   8.630   5.558   2.646 -0.5644  1.6038 -1.0620
19358SOL     OW60965   4.808   1.936   7.729 -0.2330 -0.1350 -0.5407
19358SOL    HW160966   4.803   1.916   7.822  0.3619 -0.7580 -0.6347
19358SOL    HW260967   4.839   2.027   7.725 -1.0237  0.1520 -0.1254
19359SOL     OW60968   5.225   3.153   8.946 -0.7618 -0.2157  0.0274
19359SOL    HW160969   5.141   3.198   8.952 -0.5830  0.0695  0.4194
19359SOL    HW260970   5.263   3.182   8.863  0.0289  1.5535  0.9592
19360SOL     OW60971   8.783   2.159   2.663  0.1761 -0.2364 -0.0621
19360SOL    HW160972   8.795   2.104   2.740 -0.4562  1.1185  1.0628
19360SOL    HW260973   8.840   2.121   2.597 -0.0301 -2.0543  0.7299
19361SOL     OW60974   6.265   0.137   5.520  0.1429  0.1651 -0.6016
19361SOL    HW160975   6.249   0.231   5.524 -1.3978 -0.0175 -1.6836
19361SOL    HW260976   6.344   0.128   5.465  0.4608  0.8228 -0.2611
19362SOL     OW60977   7.821   6.690   6.285 -0.4213  0.1958  0.2134
19362SOL    HW160978   7.809   6.695   6.190  2.3757 -1.6100 -0.3550
19362SOL    HW260979   7.742   6.646   6.316 -1.8637  1.7364 -1.0912
19363SOL     OW60980   0.044   1.762   4.776  0.9927 -0.3945  0.1879
19363SOL    HW160981   0.047   1.825   4.703  0.5208 -2.0233 -1.3055
19363SOL    HW260982  -0.027   1.702   4.753 -1.2452  0.6839  3.4748
19364SOL     OW60983   8.916   6.924   0.446 -0.6784 -0.1556  0.3090
19364SOL    HW160984   8.979   6.981   0.400  0.0598 -0.6081  0.7415
19364SOL    HW260985   8.839   6.923   0.389 -0.2663  0.3373 -0.2768
19365SOL     OW60986   5.290   7.518   3.763 -0.2786 -0.5418 -0.1917
19365SOL    HW160987   5.306   7.503   3.857 -0.9587  0.1888  0.0511
19365SOL    HW260988   5.260   7.433   3.731 -0.5924 -0.6606  0.3846
19366SOL     OW60989   0.603   6.755   3.851 -0.1356  0.0653  0.2381
19366SOL    HW160990   0.524   6.721   3.893 -0.1862 -0.4850 -0.2968
19366SOL    HW260991   0.624   6.691   3.783 -0.6565  1.4766 -1.3133
19367SOL     OW60992   1.419   8.341   5.675 -0.6171  0.0753  0.1537
19367SOL    HW160993   1.504   8.370   5.642  0.0896 -1.8544  0.1625
19367SOL    HW260994   1.369   8.422   5.687  0.3966  1.1073 -2.0232
19368SOL     OW60995   1.298   6.621   1.573 -0.4234  0.1537 -0.4002
19368SOL    HW160996   1.232   6.638   1.506 -0.0408  0.8588 -0.6020
19368SOL    HW260997   1.365   6.687   1.559 -0.0742 -0.0291  0.3366
19369SOL     OW60998   8.672   2.880   3.183 -0.6294 -0.2208 -0.1972
19369SOL    HW160999   8.637   2.791   3.182  0.9884 -0.9020  0.1939
19369SOL    HW261000   8.759   2.872   3.144 -0.8607  1.3900 -1.1124
19370SOL     OW61001   1.494   3.464   5.764  0.7934  0.2304  0.3268
19370SOL    HW161002   1.442   3.535   5.727 -0.4710 -1.2597 -0.9478
19370SOL    HW261003   1.430   3.407   5.806  1.1926 -1.9985 -1.8450
19371SOL     OW61004   8.567   3.210   6.010  0.1178  0.1335  0.2758
19371SOL    HW161005   8.472   3.205   6.003  0.2196 -0.2071 -1.3308
19371SOL    HW261006   8.589   3.153   6.084 -0.8236 -1.1899 -0.4146
19372SOL     OW61007   6.572   7.225   4.702  0.1656 -0.3495 -0.7191
19372SOL    HW161008   6.660   7.252   4.677  0.2131  0.5014  0.2861
19372SOL    HW261009   6.555   7.147   4.649  1.6627 -0.7583 -0.6547
19373SOL     OW61010   1.812   7.570   0.467 -0.3155 -0.0665 -0.1466
19373SOL    HW161011   1.864   7.568   0.387  1.0142  0.3548  0.6677
19373SOL    HW261012   1.870   7.609   0.532 -1.5133  0.0006  0.9216
19374SOL     OW61013   4.130   2.584   5.273 -0.3287  0.2135  0.3568
19374SOL    HW161014   4.157   2.510   5.219  0.6047 -0.3708  1.5664
19374SOL    HW261015   4.049   2.615   5.233 -0.7170 -1.4302 -0.2012
19375SOL     OW61016   0.927   0.523   4.714  1.0075 -0.3873 -0.6000
19375SOL    HW161017   0.933   0.589   4.645 -2.3550  0.9873  0.1940
19375SOL    HW261018   0.958   0.568   4.793  1.7593 -0.8517 -0.6273
19376SOL     OW61019   2.148   6.191   1.432  0.2541 -0.1077 -0.0858
19376SOL    HW161020   2.161   6.102   1.463 -1.8370 -0.5632 -0.3523
19376SOL    HW261021   2.161   6.246   1.509 -0.1659 -0.8146  0.5048
19377SOL     OW61022   1.094   0.382   4.470  0.1017 -0.4816  0.2595
19377SOL    HW161023   1.100   0.379   4.566 -2.1044 -0.1378  0.4528
19377SOL    HW261024   1.001   0.394   4.452 -0.2106 -4.6725 -2.0518
19378SOL     OW61025   4.505   1.190   7.190  0.5404  0.4791  0.5245
19378SOL    HW161026   4.569   1.252   7.154 -0.6488  0.4497 -1.8524
19378SOL    HW261027   4.420   1.232   7.177 -0.1342 -0.7334  0.8656
19379SOL     OW61028   0.193   7.664   2.506  0.0706  0.3819  0.5235
19379SOL    HW161029   0.254   7.726   2.546  0.5638 -0.2485  0.7508
19379SOL    HW261030   0.107   7.690   2.540  0.1749  1.3997  0.0430
19380SOL     OW61031   2.629   4.076   1.884 -0.2540 -1.0129 -0.4398
19380SOL    HW161032   2.715   4.095   1.847  0.5483 -3.4279  0.0551
19380SOL    HW261033   2.618   4.141   1.954  1.9956 -1.7568  0.6889
19381SOL     OW61034   4.335   8.328   2.163  0.2726  0.5512  0.3288
19381SOL    HW161035   4.393   8.402   2.147  0.5801  0.1375 -0.5358
19381SOL    HW261036   4.253   8.367   2.193  1.1838  1.1240  2.2045
19382SOL     OW61037   3.512   8.187   7.043  0.4765  0.1225 -0.2898
19382SOL    HW161038   3.546   8.270   7.010  2.4140  0.5029  2.3204
19382SOL    HW261039   3.522   8.194   7.138 -0.8811 -2.4597  0.1165
19383SOL     OW61040   6.942   7.482   0.697  0.1912 -0.0623  0.5320
19383SOL    HW161041   6.995   7.553   0.733  0.8654 -0.4655  0.3391
19383SOL    HW261042   6.981   7.402   0.733 -0.0071 -0.3873  0.0318
19384SOL     OW61043   8.157   4.045   3.737  0.3351  0.6629  0.1094
19384SOL    HW161044   8.176   4.131   3.774 -0.3765  2.2297 -2.8197
19384SOL    HW261045   8.215   4.038   3.661  0.4644 -1.5271  0.3601
19385SOL     OW61046   2.287   8.394   4.113 -0.1003  0.0284  0.6685
19385SOL    HW161047   2.267   8.406   4.020  2.5237 -0.6555 -0.0815
19385SOL    HW261048   2.276   8.480   4.151 -2.8296  0.0110  0.1499
19386SOL     OW61049   6.000   1.554   6.897  0.4621 -0.2658  0.3396
19386SOL    HW161050   5.970   1.581   6.984  0.3987 -0.3278  0.3378
19386SOL    HW261051   6.048   1.629   6.863  1.9161 -0.8177  1.0888
19387SOL     OW61052   4.066   1.777   7.000  0.1493  0.4959 -0.1447
19387SOL    HW161053   4.028   1.737   7.078  1.4631 -0.6497 -0.0573
19387SOL    HW261054   4.156   1.797   7.025  0.2250  1.2597 -0.9832
19388SOL     OW61055   6.322   0.198   1.204  0.0252  0.0302  0.0467
19388SOL    HW161056   6.344   0.159   1.289  0.3593  0.4173  0.1380
19388SOL    HW261057   6.391   0.262   1.188  0.3712 -0.5392 -0.8562
19389SOL     OW61058   0.775   6.618   4.830 -0.2680 -0.1761 -0.3187
19389SOL    HW161059   0.806   6.548   4.888 -0.1787  0.8410  0.9203
19389SOL    HW261060   0.767   6.577   4.744  0.9153 -1.4046  0.1250
19390SOL     OW61061   7.539   4.411   1.696  0.4400 -0.2689  0.1752
19390SOL    HW161062   7.470   4.411   1.630 -0.3447 -0.1912  0.9708
19390SOL    HW261063   7.535   4.323   1.734  1.3968 -0.5673 -0.3899
19391SOL     OW61064   2.080   1.161   5.644  0.3386 -0.0843 -0.5265
19391SOL    HW161065   2.079   1.071   5.676 -0.0288 -0.0906 -0.5508
19391SOL    HW261066   1.991   1.175   5.609  0.4169  0.2603 -0.5903
19392SOL     OW61067   3.767   2.611   4.705  0.1430 -0.2906  0.3427
19392SOL    HW161068   3.826   2.618   4.780  0.4714  0.1946  0.0509
19392SOL    HW261069   3.817   2.651   4.633 -0.5998  0.2515  0.1201
19393SOL     OW61070   2.182   3.642   3.473 -0.0674 -0.2676  0.0163
19393SOL    HW161071   2.157   3.574   3.409 -0.6051  1.5609 -1.8174
19393SOL    HW261072   2.256   3.604   3.520  0.3814 -1.7144 -1.7345
19394SOL     OW61073   1.503   3.369   5.122  0.0319 -0.3888 -0.0776
19394SOL    HW161074   1.457   3.436   5.072  1.6898  0.0502 -1.0889
19394SOL    HW261075   1.527   3.302   5.058  1.1039 -0.4205  0.3218
19395SOL     OW61076   4.040   0.637   8.624  0.4830 -0.1191 -0.0127
19395SOL    HW161077   4.010   0.669   8.539 -1.7274  0.1124  0.7904
19395SOL    HW261078   4.048   0.542   8.612  0.0448 -0.1079 -0.4441
19396SOL     OW61079   9.060   4.144   6.216  0.2620 -0.4107  0.2282
19396SOL    HW161080   8.986   4.203   6.198 -0.4268 -0.4313  2.6307
19396SOL    HW261081   9.020   4.058   6.230  0.3463 -0.0533  3.5979
19397SOL     OW61082   7.833   7.174   5.279  0.3713  0.2042 -0.2450
19397SOL    HW161083   7.767   7.191   5.346  0.9806 -0.8246  0.6534
19397SOL    HW261084   7.868   7.260   5.257  0.1564  0.5574  0.7427
19398SOL     OW61085   7.477   8.978   7.519 -0.1274 -0.4850  0.2042
19398SOL    HW161086   7.549   9.026   7.560 -0.9172 -0.1283  1.2195
19398SOL    HW261087   7.419   9.046   7.486  0.4158 -0.7679 -1.4114
19399SOL     OW61088   9.255   1.820   4.477 -0.2723  0.0139  0.2096
19399SOL    HW161089   9.237   1.914   4.480  0.2984  0.1073  0.8113
19399SOL    HW261090   9.195   1.787   4.410 -0.5768  0.7813  0.0897
19400SOL     OW61091   1.902   4.597   1.574 -0.0547  0.3202 -0.0327
19400SOL    HW161092   1.865   4.522   1.528 -1.1694  1.7875 -1.6629
19400SOL    HW261093   1.867   4.591   1.663  0.1974 -1.2759 -0.0191
19401SOL     OW61094   8.633   0.396   3.450 -0.5337  0.0033  0.5790
19401SOL    HW161095   8.637   0.453   3.527 -1.8480  1.0569 -0.0897
19401SOL    HW261096   8.722   0.361   3.442  0.6451  2.7313  0.4783
19402SOL     OW61097   7.523   2.910   2.404  0.2932 -0.1610 -0.2701
19402SOL    HW161098   7.503   2.890   2.495  0.6569 -0.3001 -0.2189
19402SOL    HW261099   7.523   3.006   2.400 -0.4640 -0.1569 -0.2951
19403SOL     OW61100   5.435   6.049   1.159 -0.0465 -0.2506 -0.1404
19403SOL    HW161101   5.381   5.993   1.103  1.1079 -1.0582 -0.4905
19403SOL    HW261102   5.428   6.010   1.246 -0.5804  0.0703 -0.0347
19404SOL     OW61103   3.340   2.247   4.559  0.0293  0.1176  0.2862
19404SOL    HW161104   3.307   2.226   4.646 -0.4085  0.5893  0.2438
19404SOL    HW261105   3.261   2.264   4.507  0.2395 -1.0158 -0.4431
19405SOL     OW61106   8.205   3.500   4.849  0.7673  0.1070 -0.3261
19405SOL    HW161107   8.254   3.462   4.922 -0.1953 -0.5968 -0.0333
19405SOL    HW261108   8.272   3.539   4.793  1.6454 -0.6778  0.1555
19406SOL     OW61109   1.837   3.186   4.228 -0.0167  0.2371  0.5578
19406SOL    HW161110   1.791   3.114   4.186  1.2934 -0.5338  0.3966
19406SOL    HW261111   1.921   3.192   4.183  0.1317  1.5062  0.9426
19407SOL     OW61112   5.834   2.943   8.522  0.2647  0.2818  0.4126
19407SOL    HW161113   5.851   2.971   8.611 -0.4272  1.0405  0.3129
19407SOL    HW261114   5.797   2.855   8.531 -0.5762  0.6796  0.9280
19408SOL     OW61115   1.680   1.908   1.852  0.0464 -0.2017  0.0452
19408SOL    HW161116   1.666   2.002   1.854 -1.9502 -0.2773 -3.1640
19408SOL    HW261117   1.603   1.871   1.895 -0.7034 -0.3601 -1.3823
19409SOL     OW61118   2.669   5.451   7.331  0.6078 -0.1435  0.6532
19409SOL    HW161119   2.715   5.534   7.348 -1.6494  1.4890 -0.5547
19409SOL    HW261120   2.722   5.408   7.264  1.4873  0.6418  0.8192
19410SOL     OW61121   0.109   0.107   2.787  0.2814 -0.2246  0.1235
19410SOL    HW161122   0.136   0.060   2.708 -0.2429 -1.2405  0.5167
19410SOL    HW261123   0.175   0.082   2.852  0.3173  0.0397  0.1869
19411SOL     OW61124   1.221   5.206   1.360 -0.3754  0.1309 -0.2838
19411SOL    HW161125   1.147   5.161   1.402 -1.4812  2.9537  1.0425
19411SOL    HW261126   1.181   5.266   1.298  1.1128 -1.3734 -2.8596
19412SOL     OW61127   7.322   7.917   5.295  0.3035  0.9456 -0.1917
19412SOL    HW161128   7.249   7.862   5.324  0.2052  0.7427 -0.8105
19412SOL    HW261129   7.400   7.871   5.325  0.2091  0.6874 -0.3445
19413SOL     OW61130   0.184   3.067   7.667  0.0753  0.0394 -0.1477
19413SOL    HW161131   0.221   3.025   7.745  0.4220  0.8063  0.1018
19413SOL    HW261132   0.232   3.149   7.658  0.1171 -0.0923 -1.2441
19414SOL     OW61133   5.102   6.734   6.444 -0.4914  0.1428 -0.5789
19414SOL    HW161134   5.085   6.642   6.462  0.3227 -0.3772 -2.3526
19414SOL    HW261135   5.067   6.780   6.521 -0.5154 -1.6540  0.5309
19415SOL     OW61136   3.401   4.941   3.087  0.0750 -0.4216  0.3443
19415SOL    HW161137   3.434   4.910   3.003 -0.5193  1.2003 -0.5423
19415SOL    HW261138   3.478   4.944   3.144  0.7366 -0.3118 -0.5452
19416SOL     OW61139   1.172   0.263   4.840  0.0733  0.1410 -0.0513
19416SOL    HW161140   1.079   0.253   4.818  0.6350 -0.2229 -2.4846
19416SOL    HW261141   1.203   0.333   4.784  1.6907 -1.0079 -0.6771
19417SOL     OW61142   2.930   4.446   8.537 -0.5793 -0.4768  0.7486
19417SOL    HW161143   2.852   4.411   8.580 -0.8811  1.3345  1.7706
19417SOL    HW261144   2.945   4.531   8.579  0.0265  0.7094 -1.6808
19418SOL     OW61145   6.461   6.658   1.371  0.2085  0.5117  0.1054
19418SOL    HW161146   6.474   6.725   1.304  0.1941  1.2872  0.8646
19418SOL    HW261147   6.370   6.631   1.361  0.3380  0.2787 -0.4925
19419SOL     OW61148   8.172   6.637   3.222  0.0360 -0.1136  0.3730
19419SOL    HW161149   8.162   6.607   3.312 -0.6197 -0.2876  0.2412
19419SOL    HW261150   8.261   6.672   3.219 -0.3999  1.1890  1.4790
19420SOL     OW61151   8.494   2.484   1.702 -0.6721 -0.2940 -0.0279
19420SOL    HW161152   8.481   2.389   1.699  0.0807 -0.5138  1.9567
19420SOL    HW261153   8.523   2.507   1.614  2.5375 -2.4758  0.2625
19421SOL     OW61154   3.221   2.827   4.447 -0.4553 -0.4411  0.0006
19421SOL    HW161155   3.211   2.733   4.434 -1.0269 -0.8148  2.4966
19421SOL    HW261156   3.297   2.835   4.505  0.5131  0.7894 -1.3632
19422SOL     OW61157   2.710   1.705   2.102  0.2524  0.2248 -0.2118
19422SOL    HW161158   2.692   1.656   2.022  0.9156  1.8718 -1.4297
19422SOL    HW261159   2.802   1.732   2.093 -0.1481  1.8513  0.2877
19423SOL     OW61160   4.928   5.623   7.380  0.1038  0.2387  0.1118
19423SOL    HW161161   4.866   5.666   7.438 -0.7658  0.3971 -0.9030
19423SOL    HW261162   5.007   5.678   7.384  0.3345 -0.1667  1.6845
19424SOL     OW61163   1.094   2.062   6.327  0.1469 -0.0926 -0.1173
19424SOL    HW161164   1.080   2.154   6.348 -0.0885  0.0581 -0.9088
19424SOL    HW261165   1.189   2.050   6.334  0.1019 -0.0079  0.8071
19425SOL     OW61166   1.212   2.312   6.146 -0.0107  0.0710 -0.4638
19425SOL    HW161167   1.152   2.298   6.219  1.4510 -2.3886  0.3828
19425SOL    HW261168   1.242   2.403   6.156 -1.5319  0.4904  0.6321
19426SOL     OW61169   7.166   1.440   5.513  0.1182  0.0552 -0.0930
19426SOL    HW161170   7.134   1.485   5.592  2.5629  1.5943  0.1203
19426SOL    HW261171   7.162   1.507   5.445  1.3494 -0.1898 -0.4205
19427SOL     OW61172   4.172   1.702   5.554  0.0032  0.5161 -0.3008
19427SOL    HW161173   4.112   1.627   5.558  0.0313  0.5067 -0.0279
19427SOL    HW261174   4.211   1.697   5.467  0.6725 -0.3107  0.0298
19428SOL     OW61175   1.461   3.978   7.959 -0.0649 -0.3486  0.0049
19428SOL    HW161176   1.528   4.038   7.993 -1.3927  0.2235  1.7383
19428SOL    HW261177   1.505   3.893   7.958  0.9825  0.1638  0.2236
19429SOL     OW61178   3.508   9.131   4.918  0.3357 -0.2647  0.2649
19429SOL    HW161179   3.536   9.056   4.866 -0.3288  0.0691 -0.5873
19429SOL    HW261180   3.525   9.206   4.862  2.8563  0.4762  1.8231
19430SOL     OW61181   8.582   2.838   3.579 -0.2459  0.6966  0.0340
19430SOL    HW161182   8.548   2.749   3.570 -0.6997  0.8750 -0.0602
19430SOL    HW261183   8.556   2.864   3.667 -2.0541  1.5228 -0.6940
19431SOL     OW61184   8.361   1.596   2.334 -0.0481 -0.2922  0.0856
19431SOL    HW161185   8.281   1.596   2.282 -0.3707 -0.3913  0.5843
19431SOL    HW261186   8.332   1.609   2.424  0.2440 -3.1206  0.6738
19432SOL     OW61187   7.402   5.217   1.950  0.1505 -0.1702  0.4210
19432SOL    HW161188   7.351   5.294   1.926  0.0830 -0.3713 -0.0974
19432SOL    HW261189   7.398   5.214   2.046 -2.0300 -0.9865  0.3621
19433SOL     OW61190   6.739   5.233   1.115  0.1408  0.0767 -0.5075
19433SOL    HW161191   6.764   5.148   1.151  0.7313  0.6636  0.5339
19433SOL    HW261192   6.647   5.223   1.090 -0.3043 -0.3758  1.1787
19434SOL     OW61193   2.676   8.429   4.171 -0.3295 -0.4000 -0.1239
19434SOL    HW161194   2.642   8.419   4.082  1.5902  1.3226 -1.1335
19434SOL    HW261195   2.676   8.524   4.186  0.2530 -0.6077  1.3564
19435SOL     OW61196   8.568   1.508   4.030 -0.3059 -0.4486  0.3881
19435SOL    HW161197   8.570   1.600   4.006  0.9799 -0.7828 -0.9703
19435SOL    HW261198   8.483   1.476   4.001 -0.1062 -0.0501 -0.6415
19436SOL     OW61199   7.294   8.974   3.543 -0.0851 -0.3901  0.2821
19436SOL    HW161200   7.333   8.930   3.619 -1.4676 -0.2821  1.0900
19436SOL    HW261201   7.319   9.066   3.554 -1.0446 -0.2099  1.1457
19437SOL     OW61202   6.268   4.169   8.572  0.3927  0.0177  0.6393
19437SOL    HW161203   6.184   4.161   8.618 -0.0760  1.6117  0.1375
19437SOL    HW261204   6.294   4.261   8.585 -0.1439  0.8180 -2.8207
19438SOL     OW61205   1.005   0.274   6.630 -0.4927  0.4610  0.2901
19438SOL    HW161206   0.921   0.292   6.588 -0.3914 -0.1440 -0.1785
19438SOL    HW261207   0.981   0.231   6.712 -0.6166 -0.5246 -0.2563
19439SOL     OW61208   2.494   8.437   5.703 -0.4845 -0.1017  0.7227
19439SOL    HW161209   2.529   8.502   5.763 -1.6756 -0.2951  1.6838
19439SOL    HW261210   2.402   8.461   5.693 -0.0509  0.7212 -2.1395
19440SOL     OW61211   7.528   0.987   2.546  0.0660  0.0473  0.3089
19440SOL    HW161212   7.511   0.893   2.539 -3.0777  0.5630 -0.9204
19440SOL    HW261213   7.486   1.012   2.628  0.5838  0.4271  0.4574
19441SOL     OW61214   1.141   4.199   9.177 -0.0627  0.3820 -0.3952
19441SOL    HW161215   1.211   4.147   9.137  0.9849  1.2221  0.2706
19441SOL    HW261216   1.066   4.140   9.181  1.7683 -2.0171  2.6947
19442SOL     OW61217   8.567   0.956   3.966  0.1796  0.0753 -0.3891
19442SOL    HW161218   8.496   0.935   4.028  0.7400  2.0121  1.0123
19442SOL    HW261219   8.556   0.893   3.895 -0.6450 -2.1369  1.5547
19443SOL     OW61220   7.629   3.011   1.330 -0.2320 -0.0602  0.6472
19443SOL    HW161221   7.583   2.951   1.272  0.3766 -1.2092  1.3154
19443SOL    HW261222   7.573   3.018   1.407 -1.1170  1.5897 -0.0931
19444SOL     OW61223   1.460   2.790   5.102 -0.8476  0.0604  0.2708
19444SOL    HW161224   1.430   2.702   5.124  0.5006 -0.5517 -0.2267
19444SOL    HW261225   1.506   2.820   5.181 -0.4775 -0.0733  0.1087
19445SOL     OW61226   8.350   6.890   4.323 -0.1556  0.0045 -0.1192
19445SOL    HW161227   8.337   6.952   4.250 -0.0390 -1.6856 -1.6435
19445SOL    HW261228   8.404   6.939   4.386 -0.7802  1.7330 -0.8641
19446SOL     OW61229   0.865   4.893   5.414 -0.1577 -0.2252  0.1995
19446SOL    HW161230   0.789   4.949   5.425  0.7798  1.6646 -2.1263
19446SOL    HW261231   0.868   4.874   5.320  2.2452 -0.1479  0.1815
19447SOL     OW61232   4.114   0.886   6.902  0.5001  0.7433 -0.4425
19447SOL    HW161233   4.207   0.867   6.898  0.5595  1.2507 -1.6104
19447SOL    HW261234   4.091   0.915   6.814 -0.7637  0.6042 -0.1767
19448SOL     OW61235   2.446   1.248   4.983 -0.1048 -0.2198 -0.1483
19448SOL    HW161236   2.354   1.231   4.965  0.2361 -2.9084  0.1442
19448SOL    HW261237   2.446   1.322   5.044 -1.9582  0.6556 -1.1241
19449SOL     OW61238   1.151   1.691   4.564  0.0150 -0.1311  0.2948
19449SOL    HW161239   1.141   1.676   4.658  0.2198  1.3882  0.5869
19449SOL    HW261240   1.080   1.641   4.523 -1.2452  0.6717  1.4086
19450SOL     OW61241   0.018   1.062   1.489 -0.4069  0.0260  0.0534
19450SOL    HW161242  -0.014   1.042   1.577 -0.9419 -3.1373 -0.7539
19450SOL    HW261243  -0.056   1.042   1.432 -0.0983  2.1085 -1.1788
19451SOL     OW61244   2.528   5.467   6.863  0.7358  0.2346  0.7264
19451SOL    HW161245   2.471   5.425   6.928  1.5781 -0.5840  0.9628
19451SOL    HW261246   2.593   5.400   6.842  1.0005  0.8056 -0.3011
19452SOL     OW61247   8.680   6.558   1.979 -0.1417 -0.0441  0.7121
19452SOL    HW161248   8.718   6.486   1.930  1.1287  1.0000  0.1143
19452SOL    HW261249   8.738   6.570   2.054  0.6159  1.3971 -0.0694
19453SOL     OW61250   3.187   8.526   6.197  0.1295  0.1882  0.2722
19453SOL    HW161251   3.251   8.459   6.171 -0.4696  0.0502 -0.8772
19453SOL    HW261252   3.237   8.585   6.254  1.2391 -0.0075 -0.4654
19454SOL     OW61253   4.323   0.245   5.187 -0.0614  0.4685 -0.1349
19454SOL    HW161254   4.337   0.236   5.093 -0.3247  1.0231 -0.2356
19454SOL    HW261255   4.389   0.189   5.228  0.4946  0.7467 -0.6395
19455SOL     OW61256   7.204   1.909   4.411 -0.1852  0.0329  0.6776
19455SOL    HW161257   7.136   1.939   4.350 -1.0372 -0.1829  1.5074
19455SOL    HW261258   7.216   1.816   4.391 -0.5178 -0.0555  0.8942
19456SOL     OW61259   1.922   6.352   4.984 -0.1916 -0.5388  0.3051
19456SOL    HW161260   1.833   6.325   5.009 -0.1140 -0.4815  0.6443
19456SOL    HW261261   1.979   6.312   5.050 -0.0307  0.0224  0.5144
19457SOL     OW61262   7.260   5.100   4.060 -0.1120 -0.2672  0.4905
19457SOL    HW161263   7.349   5.104   4.095 -0.0330 -0.7190  0.3457
19457SOL    HW261264   7.225   5.016   4.090 -0.5089 -0.0701  0.5902
19458SOL     OW61265   6.008   2.813   9.219 -0.6565  0.2780  0.2267
19458SOL    HW161266   5.941   2.829   9.152 -0.8361  1.0841  0.5768
19458SOL    HW261267   5.958   2.806   9.300 -0.5499 -1.8824  0.1452
19459SOL     OW61268   5.110   4.898   3.727 -0.0154  0.0830  0.0020
19459SOL    HW161269   5.202   4.877   3.711  0.4657 -0.2088  2.7215
19459SOL    HW261270   5.101   4.989   3.698  1.1088  0.1136 -0.3029
19460SOL     OW61271   2.108   5.406   5.249 -0.3538  0.3262  0.5248
19460SOL    HW161272   2.190   5.362   5.226 -0.3831  1.2911 -1.6343
19460SOL    HW261273   2.134   5.495   5.269 -0.6830  0.1733  1.6924
19461SOL     OW61274   8.950   3.337   4.133 -0.3274  0.0103  0.1631
19461SOL    HW161275   8.878   3.282   4.165 -0.4384 -1.1008 -1.7822
19461SOL    HW261276   9.009   3.275   4.090  0.4619  1.2208 -0.5490
19462SOL     OW61277   0.192   5.582   2.821 -0.0642  0.3833 -0.1148
19462SOL    HW161278   0.243   5.527   2.882  0.5265  0.4892 -0.5118
19462SOL    HW261279   0.214   5.672   2.846 -0.8181  0.4440  0.3522
19463SOL     OW61280   1.501   2.589   7.337  0.0793  0.1355  0.4818
19463SOL    HW161281   1.515   2.549   7.423  2.3170 -2.0875 -0.7558
19463SOL    HW261282   1.448   2.525   7.289 -0.9671  1.2503  0.0979
19464SOL     OW61283   3.404   7.311   0.160 -0.6448  0.1576  0.2459
19464SOL    HW161284   3.352   7.389   0.138  0.1172  0.8910  0.9954
19464SOL    HW261285   3.459   7.338   0.233  1.3794 -0.3302 -1.0003
19465SOL     OW61286   1.220   7.970   9.030  0.0343  0.0708  0.7609
19465SOL    HW161287   1.263   7.986   9.113 -0.2425 -0.2352  0.9659
19465SOL    HW261288   1.202   8.057   8.995  0.4652  0.1971  0.8541
19466SOL     OW61289   5.142   3.739   0.036 -0.1186 -0.0109 -0.3989
19466SOL    HW161290   5.057   3.714   0.071  0.3489 -0.2941  0.5828
19466SOL    HW261291   5.134   3.832   0.015 -1.1753 -0.4195 -1.9038
19467SOL     OW61292   0.867   3.006   6.928  0.3854  0.7222 -0.3876
19467SOL    HW161293   0.839   3.044   7.011  1.7471  0.6599  0.1281
19467SOL    HW261294   0.823   2.921   6.924 -1.3988  1.6194 -0.7790
19468SOL     OW61295   3.961   0.851   7.804 -0.1528  1.0228 -0.5933
19468SOL    HW161296   3.888   0.892   7.850  2.3061  3.4482  1.4427
19468SOL    HW261297   3.989   0.780   7.862  0.4195  1.4793 -0.3020
19469SOL     OW61298   0.052   1.671   1.166  0.0668 -0.3033  0.0271
19469SOL    HW161299   0.049   1.577   1.151  0.3003  0.0066 -2.3681
19469SOL    HW261300   0.145   1.692   1.170  0.0205 -0.0999  0.0602
19470SOL     OW61301   6.517   2.257   6.952  0.1233  0.4992 -0.0192
19470SOL    HW161302   6.501   2.297   7.038 -0.3227 -0.9310  0.5909
19470SOL    HW261303   6.570   2.322   6.905 -0.5686  1.7945  0.9138
19471SOL     OW61304   1.147   5.839   1.175  0.6114  0.0423 -0.0138
19471SOL    HW161305   1.181   5.909   1.231  2.8048 -1.1770  0.2733
19471SOL    HW261306   1.069   5.877   1.135  0.9600  2.1713  1.1701
19472SOL     OW61307   1.400   2.401   0.433 -0.2643 -0.3927 -0.1713
19472SOL    HW161308   1.415   2.388   0.526 -2.9008  0.8806  0.5370
19472SOL    HW261309   1.464   2.467   0.407 -0.0652 -0.1174  0.9673
19473SOL     OW61310   1.913   9.144   1.391 -0.7964 -0.1867 -0.4178
19473SOL    HW161311   1.830   9.179   1.422 -1.3945 -1.7798 -0.1367
19473SOL    HW261312   1.971   9.148   1.467 -1.4458 -1.5510  0.1803
19474SOL     OW61313   1.585   2.968   8.856  0.0855  0.2086  0.1377
19474SOL    HW161314   1.604   2.875   8.840  1.4432  0.9141 -2.8768
19474SOL    HW261315   1.661   3.015   8.823 -0.8700  2.4911  0.9555
19475SOL     OW61316   1.125   2.514   1.945  0.1360  0.4541  0.0838
19475SOL    HW161317   1.035   2.544   1.957  0.3619  0.6382  1.3828
19475SOL    HW261318   1.174   2.553   2.017  1.0399 -0.5755  0.0539
19476SOL     OW61319   8.511   2.410   0.707 -0.0365 -0.1930 -0.1098
19476SOL    HW161320   8.470   2.401   0.793  0.2316  0.3537  0.0775
19476SOL    HW261321   8.520   2.505   0.694  0.9384 -0.2879 -0.2472
19477SOL     OW61322   5.944   1.476   4.175 -0.1104 -0.2376  0.2330
19477SOL    HW161323   6.019   1.441   4.223 -1.0874 -0.3776  1.6970
19477SOL    HW261324   5.912   1.402   4.124  1.6254  0.2006 -1.6293
19478SOL     OW61325   7.941   8.465   2.259  0.0319  0.5784  0.7774
19478SOL    HW161326   7.923   8.418   2.177 -1.4704 -1.7442  2.3059
19478SOL    HW261327   8.036   8.467   2.265  0.1579 -0.8391 -0.1666
19479SOL     OW61328   3.417   8.673   6.363 -0.1932 -0.2179  0.2337
19479SOL    HW161329   3.412   8.612   6.436  1.4869 -3.1943 -1.9235
19479SOL    HW261330   3.510   8.694   6.355 -0.1635 -0.8962 -1.6936
19480SOL     OW61331   3.163   8.857   5.948  0.3132 -0.2159  0.2184
19480SOL    HW161332   3.131   8.941   5.980  0.7915  0.4742 -1.0282
19480SOL    HW261333   3.242   8.841   5.999  0.2132  0.0846  0.4754
19481SOL     OW61334   2.817   2.960   0.123 -0.4333  0.2100  0.1340
19481SOL    HW161335   2.864   2.939   0.204 -0.8612 -2.6124 -0.2273
19481SOL    HW261336   2.748   2.893   0.118 -1.4519  1.3155 -1.7677
19482SOL     OW61337   8.405   6.909   4.805 -0.4240  0.4811  0.0102
19482SOL    HW161338   8.422   6.873   4.892  0.0278  1.6252  0.4122
19482SOL    HW261339   8.380   6.833   4.752  0.1022 -0.3504  0.9278
19483SOL     OW61340   5.830   1.355   1.031 -0.4286  0.1507 -0.1823
19483SOL    HW161341   5.894   1.401   0.976 -1.1183  0.2173 -0.9493
19483SOL    HW261342   5.749   1.357   0.980 -0.8924 -0.4569  0.5126
19484SOL     OW61343   2.058   0.462   4.155 -0.4172  0.2294 -0.4796
19484SOL    HW161344   2.010   0.545   4.159 -0.8867 -0.0954  1.8955
19484SOL    HW261345   2.137   0.483   4.105 -1.7906  1.3931 -2.3071
19485SOL     OW61346   3.945   0.711   2.523 -0.3092 -0.3331  0.8163
19485SOL    HW161347   3.855   0.736   2.544 -0.2699  0.8186 -0.2357
19485SOL    HW261348   3.974   0.659   2.598 -1.4503  0.2788  1.7186
19486SOL     OW61349   3.981   3.180   6.056  0.0870  0.3789  0.4080
19486SOL    HW161350   4.034   3.181   6.136 -2.1510 -0.9055  1.9948
19486SOL    HW261351   3.891   3.191   6.086 -0.7889  0.4510 -2.0094
19487SOL     OW61352   7.229   4.758   1.859  0.2830  0.3549 -0.3769
19487SOL    HW161353   7.253   4.754   1.952  0.1194 -0.4620 -0.3618
19487SOL    HW261354   7.246   4.670   1.827 -0.2120  0.4799 -0.9891
19488SOL     OW61355   8.334   7.140   2.390 -0.2791 -0.2497  0.2224
19488SOL    HW161356   8.384   7.221   2.379 -0.9235  0.4957  2.2985
19488SOL    HW261357   8.285   7.132   2.308 -0.3379  1.5853  0.0254
19489SOL     OW61358   6.571   0.721   8.899 -0.0178  0.0425 -0.3952
19489SOL    HW161359   6.623   0.688   8.826 -0.2952 -0.1259 -0.5191
19489SOL    HW261360   6.613   0.685   8.977  0.4657  0.4801 -0.4514
19490SOL     OW61361   5.107   4.410   8.758  0.1847  0.1640  0.2766
19490SOL    HW161362   5.012   4.421   8.760  0.0361 -0.8802 -0.4570
19490SOL    HW261363   5.121   4.317   8.777  1.0387  0.2235 -0.0294
19491SOL     OW61364   1.302   5.123   2.690 -0.0827  1.0975  0.7223
19491SOL    HW161365   1.359   5.122   2.767  0.1289  1.3884  0.5726
19491SOL    HW261366   1.336   5.054   2.634  0.2766  1.4238  0.5289
19492SOL     OW61367   6.373   3.988   7.399  0.0552 -0.3566 -0.1326
19492SOL    HW161368   6.317   3.935   7.457  0.7336 -3.4338 -2.0341
19492SOL    HW261369   6.461   3.955   7.414  0.2677 -1.2002 -2.7079
19493SOL     OW61370   6.579   3.736   4.769 -0.0780 -0.2804 -0.2645
19493SOL    HW161371   6.535   3.652   4.759 -1.1779  0.1493  0.8024
19493SOL    HW261372   6.510   3.801   4.753  0.1686  0.4061  1.3609
19494SOL     OW61373   2.103   1.061   1.865 -0.1630 -0.1513 -0.7932
19494SOL    HW161374   2.022   1.017   1.889  0.7063 -0.2971  2.3753
19494SOL    HW261375   2.092   1.151   1.896  0.4075  0.1862 -1.5338
19495SOL     OW61376   6.769   6.884   0.467 -0.0973 -0.3824  0.2918
19495SOL    HW161377   6.820   6.952   0.424  2.5088 -1.4465  1.4802
19495SOL    HW261378   6.700   6.862   0.404 -0.6171  2.7836 -0.3966
19496SOL     OW61379   7.963   6.299   6.818  0.1197 -0.1943 -0.2548
19496SOL    HW161380   7.907   6.302   6.896 -0.3790  0.0923 -0.6129
19496SOL    HW261381   7.945   6.213   6.780  0.2450 -0.2721 -0.1396
19497SOL     OW61382   2.641   8.133   1.318 -0.0560 -0.1120 -0.6982
19497SOL    HW161383   2.649   8.154   1.225  1.1595 -0.1292 -0.6226
19497SOL    HW261384   2.597   8.208   1.357 -0.9689 -0.3000 -1.3516
19498SOL     OW61385   4.943   2.317   1.942 -0.1687 -0.4879  0.6259
19498SOL    HW161386   4.865   2.336   1.995 -0.4433  0.7957 -0.1718
19498SOL    HW261387   4.969   2.403   1.907 -1.0575 -1.4218 -2.7314
19499SOL     OW61388   6.420   6.957   0.821  0.1349  0.2749  0.0170
19499SOL    HW161389   6.512   6.960   0.793 -0.1465  1.0681 -0.8669
19499SOL    HW261390   6.373   6.920   0.747 -0.3240  0.2670  0.3071
19500SOL     OW61391   1.651   2.425   8.365  0.2916 -0.8324 -0.1732
19500SOL    HW161392   1.672   2.484   8.293  2.5972 -0.3394  0.7952
19500SOL    HW261393   1.556   2.431   8.375  0.3717  2.6132 -0.2432
19501SOL     OW61394   8.338   6.203   2.906 -0.4591 -0.2212  0.0495
19501SOL    HW161395   8.343   6.116   2.946 -1.0776 -0.4482 -0.3577
19501SOL    HW261396   8.340   6.264   2.981 -4.5545 -0.7019  0.7734
19502SOL     OW61397   7.321   3.553   7.210  0.0000  0.4224  0.0760
19502SOL    HW161398   7.357   3.535   7.297 -3.2418 -0.0354  1.4843
19502SOL    HW261399   7.260   3.626   7.223  0.6152  1.4419 -2.1950
19503SOL     OW61400   0.254   1.580   9.201  0.5830 -0.0349  0.5937
19503SOL    HW161401   0.265   1.597   9.294  0.3126 -1.4064  0.9085
19503SOL    HW261402   0.343   1.572   9.167  0.6806 -0.4501  0.9342
19504SOL     OW61403   3.647   4.057   6.676  0.1531  0.3314 -0.4873
19504SOL    HW161404   3.620   4.066   6.767 -2.3028  0.5645 -1.1552
19504SOL    HW261405   3.591   3.988   6.641  2.6651 -1.4376 -1.2928
19505SOL     OW61406   8.605   0.324   9.152 -0.1161  0.1040  0.4154
19505SOL    HW161407   8.686   0.343   9.105  0.9884 -1.3462  1.6497
19505SOL    HW261408   8.542   0.387   9.117  0.7694 -0.4967 -2.5823
19506SOL     OW61409   9.142   8.786   1.155 -0.0253 -0.2838  0.1509
19506SOL    HW161410   9.137   8.863   1.212  0.9764  0.2044 -0.3871
19506SOL    HW261411   9.131   8.822   1.067  3.8859 -0.1518 -0.4622
19507SOL     OW61412   2.470   7.348   8.804 -0.4290  0.0179  0.0922
19507SOL    HW161413   2.389   7.367   8.756 -0.2865  0.9920  0.2287
19507SOL    HW261414   2.502   7.433   8.833  1.4844 -0.1594 -1.2813
19508SOL     OW61415   6.101   3.301   3.562  0.0992 -0.3892  0.1040
19508SOL    HW161416   6.173   3.345   3.519  1.1917 -3.8319 -2.0008
19508SOL    HW261417   6.121   3.307   3.656  2.2733  0.0802 -0.3435
19509SOL     OW61418   6.665   1.670   8.544  0.4735 -0.6474  0.0271
19509SOL    HW161419   6.619   1.591   8.516 -0.8673  0.1773 -0.1992
19509SOL    HW261420   6.688   1.715   8.463 -2.1716  1.0453  0.0769
19510SOL     OW61421   8.944   0.218   7.985 -0.5692 -0.5074  0.1351
19510SOL    HW161422   8.856   0.197   7.953 -0.6135 -1.8051  1.0379
19510SOL    HW261423   8.930   0.289   8.047 -0.7007  0.7419 -1.2724
19511SOL     OW61424   3.081   1.514   3.852  0.5107 -0.5507 -0.3024
19511SOL    HW161425   3.108   1.605   3.844 -0.9045 -0.0230  0.6086
19511SOL    HW261426   3.158   1.470   3.890  0.0529  1.0454  2.8754
19512SOL     OW61427   8.192   8.814   9.084  0.0199  0.2256 -0.0315
19512SOL    HW161428   8.262   8.779   9.140  0.1634 -0.1725 -0.4559
19512SOL    HW261429   8.168   8.897   9.125  0.3314  0.0795  0.4535
19513SOL     OW61430   3.980   0.464   0.566 -0.0481  0.0596  0.5818
19513SOL    HW161431   3.990   0.453   0.471  0.4473  0.4082  0.5875
19513SOL    HW261432   3.887   0.447   0.582 -0.8699  2.9307 -0.4217
19514SOL     OW61433   6.436   8.107   1.661  0.2715 -0.4153  0.3754
19514SOL    HW161434   6.495   8.123   1.587  0.5053 -0.8890  0.4569
19514SOL    HW261435   6.462   8.021   1.694 -0.5382 -0.6704  0.3547
19515SOL     OW61436   2.590   1.575   1.620 -0.0456 -0.6907 -0.1795
19515SOL    HW161437   2.494   1.572   1.621 -0.1029 -1.3348 -2.2978
19515SOL    HW261438   2.611   1.654   1.571  0.4263 -1.6025 -1.5182
19516SOL     OW61439   7.057   3.152   2.546 -0.2620  0.8248  0.1322
19516SOL    HW161440   6.984   3.192   2.592 -0.7359  1.6756 -1.2896
19516SOL    HW261441   7.020   3.121   2.463  0.4420 -1.1466  0.4825
19517SOL     OW61442   7.337   4.288   1.552  0.3616 -0.1632  1.1660
19517SOL    HW161443   7.406   4.225   1.529  0.7645  0.3245  1.0311
19517SOL    HW261444   7.281   4.240   1.613  1.2574 -0.3245  1.8899
19518SOL     OW61445   8.870   1.412   4.513  0.3986  0.1674 -0.7270
19518SOL    HW161446   8.942   1.382   4.569  0.7871 -0.6759 -1.6549
19518SOL    HW261447   8.792   1.375   4.552  0.5157  0.6495 -0.0149
19519SOL     OW61448   4.564   2.547   8.303 -0.0999  0.1778  0.0081
19519SOL    HW161449   4.513   2.564   8.382  0.4991 -0.0031  0.4406
19519SOL    HW261450   4.525   2.467   8.266  0.1247 -0.1890  0.5551
19520SOL     OW61451   3.919   4.439   8.225  0.4851  0.2154  0.0405
19520SOL    HW161452   3.889   4.355   8.190  0.8964  0.4183 -0.8236
19520SOL    HW261453   3.996   4.417   8.277  1.2855  0.1731 -1.1235
19521SOL     OW61454   5.332   5.451   7.963  0.3295 -0.0770 -0.8570
19521SOL    HW161455   5.389   5.376   7.971 -0.5502 -0.6353  0.5850
19521SOL    HW261456   5.352   5.506   8.039 -0.7920 -0.1223 -0.5033
19522SOL     OW61457   2.809   1.318   0.841 -0.4265  0.5873  0.4368
19522SOL    HW161458   2.869   1.325   0.916 -0.1615  0.5350  0.2289
19522SOL    HW261459   2.843   1.379   0.776 -0.0801 -0.0830 -0.0294
19523SOL     OW61460   3.343   4.532   3.091 -0.0051 -0.1378 -0.3770
19523SOL    HW161461   3.311   4.442   3.091  1.8964 -0.8810  1.2718
19523SOL    HW261462   3.346   4.557   3.183  1.7746  0.7186 -0.6272
19524SOL     OW61463   8.614   5.845   6.276 -0.5465 -0.3535  0.2791
19524SOL    HW161464   8.543   5.862   6.213 -0.2999  0.6390  0.2529
19524SOL    HW261465   8.672   5.784   6.230 -0.4384  0.2576 -0.4143
19525SOL     OW61466   2.150   7.242   2.860  0.0710  0.1073  0.8471
19525SOL    HW161467   2.189   7.322   2.894  0.1698 -0.3001  1.7131
19525SOL    HW261468   2.220   7.202   2.809  0.4854 -0.1334  1.5927
19526SOL     OW61469   1.192   0.933   3.908 -0.1594  0.0725  0.1652
19526SOL    HW161470   1.210   0.839   3.919  1.7311  0.5965  2.4153
19526SOL    HW261471   1.244   0.959   3.832  0.2971 -0.4737  0.2857
19527SOL     OW61472   1.725   8.323   4.846 -0.0792 -0.2313 -0.1975
19527SOL    HW161473   1.631   8.314   4.859 -0.2595  0.0170 -1.2613
19527SOL    HW261474   1.764   8.273   4.918 -0.9725  1.8163  1.8575
19528SOL     OW61475   4.233   3.943   4.318 -0.1925 -0.0520 -0.7280
19528SOL    HW161476   4.252   3.915   4.229  0.7480  0.0590 -0.5694
19528SOL    HW261477   4.259   4.035   4.321  2.5371 -0.7712  0.4270
19529SOL     OW61478   3.173   0.780   0.613  0.9192 -0.4511 -0.0417
19529SOL    HW161479   3.084   0.754   0.637  1.3142 -1.7659  0.1179
19529SOL    HW261480   3.165   0.815   0.524  0.4822 -2.4011 -0.8405
19530SOL     OW61481   9.205   5.609   5.211  0.6964 -0.1035  0.5224
19530SOL    HW161482   9.292   5.592   5.175 -0.1298  0.3512 -1.8566
19530SOL    HW261483   9.160   5.525   5.207  0.3621  0.1087 -0.2203
19531SOL     OW61484   7.280   1.308   2.517  0.7141  0.8679  0.5753
19531SOL    HW161485   7.284   1.251   2.594  0.6721 -1.7182 -1.2111
19531SOL    HW261486   7.358   1.363   2.525  1.8688 -0.7926  1.4286
19532SOL     OW61487   3.429   8.576   8.532  0.0952  0.1736  0.3508
19532SOL    HW161488   3.496   8.629   8.487  0.4735 -0.9297 -0.4245
19532SOL    HW261489   3.346   8.618   8.509  0.2437 -0.5397 -1.7159
19533SOL     OW61490   5.059   6.680   0.194  0.3838 -0.0205  0.4062
19533SOL    HW161491   5.087   6.690   0.103  0.0266  1.5305  0.4458
19533SOL    HW261492   4.979   6.731   0.201  0.3652 -0.1792  1.5821
19534SOL     OW61493   6.486   2.070   3.777  0.1233  0.0630  0.2418
19534SOL    HW161494   6.467   1.989   3.730  0.0758 -0.5425  1.2808
19534SOL    HW261495   6.581   2.068   3.789  0.5922  1.6729 -2.3912
19535SOL     OW61496   4.040   6.446   1.501  0.2088 -0.4068 -0.3806
19535SOL    HW161497   4.050   6.514   1.435 -0.9090 -0.6700 -0.8405
19535SOL    HW261498   4.074   6.366   1.459 -0.9995 -0.6876 -0.8588
19536SOL     OW61499   3.799   8.456   4.917 -0.0469  0.0355  0.5923
19536SOL    HW161500   3.881   8.476   4.872  0.0289 -0.3089  0.5736
19536SOL    HW261501   3.826   8.400   4.990 -0.2666 -0.0809  0.5828
19537SOL     OW61502   1.403   4.878   1.418 -0.8323  0.1536 -0.4280
19537SOL    HW161503   1.355   4.875   1.335  0.2626  0.3411 -1.0868
19537SOL    HW261504   1.439   4.967   1.422 -0.5248  0.0144  0.0399
19538SOL     OW61505   5.668   0.934   7.175  0.5240 -0.3287  0.5560
19538SOL    HW161506   5.749   0.890   7.198  0.9598  0.8879  1.4905
19538SOL    HW261507   5.694   1.024   7.156 -0.3288 -0.4356 -1.3036
19539SOL     OW61508   2.939   8.060   5.107  0.5715  0.0777  0.0523
19539SOL    HW161509   2.928   8.090   5.016 -0.0201 -2.3507 -0.7566
19539SOL    HW261510   2.987   8.131   5.150  2.5008  0.5501 -2.6203
19540SOL     OW61511   1.459   4.481   5.054  0.3661 -0.5039  0.3031
19540SOL    HW161512   1.363   4.477   5.049  0.3668 -0.2233 -0.0098
19540SOL    HW261513   1.489   4.439   4.974  0.4419  1.5829 -0.8464
19541SOL     OW61514   3.374   8.050   4.389  0.2651 -0.3556 -0.2272
19541SOL    HW161515   3.338   7.964   4.367 -1.3822  0.5867 -1.4541
19541SOL    HW261516   3.320   8.081   4.461  1.4206 -0.6727  0.8074
19542SOL     OW61517   0.547   5.089   2.313  0.6218  0.0494  0.3637
19542SOL    HW161518   0.508   5.041   2.387  2.6411 -1.1048  0.7559
19542SOL    HW261519   0.595   5.161   2.354  0.6631  0.1967  0.0608
19543SOL     OW61520   7.125   7.718   3.852 -0.0593  0.0620 -0.1587
19543SOL    HW161521   7.061   7.787   3.835  0.4572  0.3441 -1.0261
19543SOL    HW261522   7.111   7.654   3.782  0.6327  0.1582 -0.3945
19544SOL     OW61523   7.595   1.395   3.033 -0.0185  0.3196  0.0618
19544SOL    HW161524   7.586   1.384   3.128  0.1690  2.8073  0.4392
19544SOL    HW261525   7.569   1.311   2.997 -3.1795  0.2073  2.1568
19545SOL     OW61526   6.405   1.271   6.087  0.1712 -0.1020  0.0756
19545SOL    HW161527   6.393   1.177   6.072  0.4640 -0.3207  1.1141
19545SOL    HW261528   6.326   1.311   6.052  0.6519 -0.5718 -1.6736
19546SOL     OW61529   3.657   5.895   0.481 -0.2630 -0.2713  0.0849
19546SOL    HW161530   3.730   5.879   0.540  0.0773 -0.7947 -0.4638
19546SOL    HW261531   3.601   5.957   0.528  1.2532  1.2734 -0.0570
19547SOL     OW61532   5.551   4.134   0.794 -0.0815  0.2918 -0.4194
19547SOL    HW161533   5.593   4.089   0.721 -1.8270 -1.6710 -0.3093
19547SOL    HW261534   5.609   4.207   0.814  2.5398 -1.4593 -1.1167
19548SOL     OW61535   3.594   2.761   0.733 -0.1037  0.1220  0.0066
19548SOL    HW161536   3.517   2.768   0.789 -1.3101  0.8520 -1.6469
19548SOL    HW261537   3.655   2.826   0.767 -0.6529  0.2792  0.7000
19549SOL     OW61538   8.246   1.845   3.484  0.4707 -0.1018 -0.2200
19549SOL    HW161539   8.169   1.900   3.498  0.3119  0.6618 -3.3695
19549SOL    HW261540   8.220   1.784   3.415  3.0696  1.3241 -2.7210
19550SOL     OW61541   6.796   5.015   7.544 -0.2233 -0.0373 -0.4535
19550SOL    HW161542   6.797   4.990   7.637  0.8868 -0.1454 -0.4756
19550SOL    HW261543   6.889   5.027   7.522 -0.2809 -1.9847 -2.0692
19551SOL     OW61544   6.815   6.486   8.600 -0.2326 -0.1645 -0.2911
19551SOL    HW161545   6.855   6.509   8.684 -1.3062  1.7905 -0.2480
19551SOL    HW261546   6.818   6.391   8.597 -0.7550 -0.3323  2.2840
19552SOL     OW61547   1.895   5.685   5.057  0.0736 -0.0044 -0.6562
19552SOL    HW161548   1.863   5.775   5.057  2.2775  0.8415 -0.2467
19552SOL    HW261549   1.873   5.652   5.144 -1.6454 -0.2520 -1.1479
19553SOL     OW61550   2.482   7.139   0.002 -0.1906 -0.1149 -0.4742
19553SOL    HW161551   2.532   7.207  -0.041 -0.0651 -0.9971 -1.7744
19553SOL    HW261552   2.467   7.172   0.091  1.5521  0.7429 -0.4608
19554SOL     OW61553   0.206   1.724   4.192 -0.2742  0.0146 -0.5604
19554SOL    HW161554   0.143   1.652   4.198 -0.6134  0.2794 -0.8646
19554SOL    HW261555   0.203   1.751   4.100  1.6234 -1.1495 -1.0214
19555SOL     OW61556   9.144   3.208   2.647  0.6747 -0.1286 -1.0935
19555SOL    HW161557   9.144   3.162   2.731 -1.1634  1.4552 -0.1564
19555SOL    HW261558   9.123   3.141   2.583 -1.4566 -0.7579  0.1714
19556SOL     OW61559   2.932   7.214   0.004  0.2355  0.6759 -0.1913
19556SOL    HW161560   2.911   7.143   0.065  1.4370  0.6873  0.2696
19556SOL    HW261561   3.028   7.218   0.004  0.2673  0.7490 -2.0236
19557SOL     OW61562   0.787   6.140   3.035 -0.3646  0.2198  0.4952
19557SOL    HW161563   0.780   6.174   2.946 -0.8605 -0.2306  0.3583
19557SOL    HW261564   0.818   6.214   3.087  3.8114 -0.4685 -0.6897
19558SOL     OW61565   2.945   7.128   1.406  0.0888 -0.2228  0.7752
19558SOL    HW161566   2.934   7.223   1.399  1.7944  0.2014  2.6825
19558SOL    HW261567   2.859   7.096   1.434 -0.5927  0.7022 -0.1886
19559SOL     OW61568   3.255   7.523   3.585  0.0305 -0.6635  0.2131
19559SOL    HW161569   3.327   7.528   3.523 -0.5950 -3.0860 -0.8218
19559SOL    HW261570   3.176   7.523   3.531 -0.7534  0.9408  1.2703
19560SOL     OW61571   7.120   7.924   3.448  0.4823 -0.2608 -0.7251
19560SOL    HW161572   7.045   7.917   3.506  0.1145 -0.0621 -1.1705
19560SOL    HW261573   7.122   8.016   3.421  1.6073  0.0276  0.2305
19561SOL     OW61574   3.819   1.305   8.202  0.4949 -0.0150  0.1497
19561SOL    HW161575   3.739   1.284   8.250 -0.5001  1.0163 -0.9860
19561SOL    HW261576   3.886   1.316   8.270 -0.8811  1.4718  1.3498
19562SOL     OW61577   2.210   3.061   2.871  0.0918  0.3411 -0.5092
19562SOL    HW161578   2.162   2.977   2.868  1.9940 -0.7912 -0.5769
19562SOL    HW261579   2.207   3.087   2.963  1.4354 -1.0249 -0.0390
19563SOL     OW61580   5.664   4.356   2.021  0.1989  0.2971  0.4160
19563SOL    HW161581   5.582   4.371   2.069  0.7052  1.7294  0.8882
19563SOL    HW261582   5.682   4.263   2.033 -0.6357  0.2542  1.5159
19564SOL     OW61583   6.943   0.291   6.431 -0.4376 -0.8214  0.2751
19564SOL    HW161584   6.943   0.234   6.508  0.7944 -0.2732  0.7024
19564SOL    HW261585   7.019   0.349   6.443 -2.7690  2.3957  0.9543
19565SOL     OW61586   3.876   9.116   0.411  0.0655 -0.4952  0.0466
19565SOL    HW161587   3.872   9.163   0.328  0.9003 -0.2897  0.1074
19565SOL    HW261588   3.805   9.052   0.406 -0.0964 -0.2700 -0.6900
19566SOL     OW61589   9.004   3.985   3.522 -0.4680 -0.1987 -0.3521
19566SOL    HW161590   9.006   3.942   3.436 -2.4293  0.5814 -0.8636
19566SOL    HW261591   8.967   4.071   3.504  0.6551  0.6092  1.0642
19567SOL     OW61592   2.663   3.319   8.466 -0.0763 -0.2496 -0.1573
19567SOL    HW161593   2.665   3.346   8.375  0.6854  0.5712  0.0882
19567SOL    HW261594   2.656   3.401   8.516 -1.7691 -0.7546  0.4914
19568SOL     OW61595   7.853   6.233   7.100  0.1066  0.5155 -0.5083
19568SOL    HW161596   7.797   6.164   7.135  0.8368  0.2066  0.0739
19568SOL    HW261597   7.822   6.313   7.141  0.6059  0.2320  0.4406
19569SOL     OW61598   3.883   8.603   2.146 -0.6647 -0.1969 -0.1696
19569SOL    HW161599   3.810   8.562   2.100 -0.9004  1.0448 -0.9587
19569SOL    HW261600   3.868   8.697   2.137  0.5503  0.0889  0.4417
19570SOL     OW61601   7.981   6.942   1.342 -0.1146  0.2295 -0.4004
19570SOL    HW161602   7.974   7.016   1.403 -0.0631  0.5578 -0.7806
19570SOL    HW261603   7.915   6.879   1.372  0.2682  0.1591  0.2956
19571SOL     OW61604   6.696   2.530   5.897 -0.2723  0.1808 -0.0304
19571SOL    HW161605   6.777   2.543   5.946 -1.1097  1.0257  1.1998
19571SOL    HW261606   6.632   2.585   5.942 -1.6757 -0.9067 -0.6176
19572SOL     OW61607   3.914   8.106   0.721 -0.6713 -0.1382 -0.2047
19572SOL    HW161608   3.934   8.191   0.683  1.8468  0.0391  1.3116
19572SOL    HW261609   4.000   8.063   0.731 -1.4643 -1.2820  2.5917
19573SOL     OW61610   6.193   1.528   1.450  0.2284 -0.5750 -0.1385
19573SOL    HW161611   6.162   1.440   1.426  1.2142 -0.9477 -0.1071
19573SOL    HW261612   6.284   1.514   1.476  0.7055  0.6240 -1.1092
19574SOL     OW61613   6.357   6.843   7.444  0.1063 -0.2480 -0.0687
19574SOL    HW161614   6.348   6.938   7.434  0.6843 -0.2262 -0.4263
19574SOL    HW261615   6.334   6.826   7.536  0.7839  0.3413  0.2167
19575SOL     OW61616   5.034   5.898   6.697  0.1600  0.7979  0.1219
19575SOL    HW161617   5.008   5.831   6.760 -0.8614  0.7022 -0.3843
19575SOL    HW261618   5.127   5.880   6.680 -0.3241 -1.0769 -0.7135
19576SOL     OW61619   5.659   3.769   1.036 -0.2387 -0.4475 -0.9575
19576SOL    HW161620   5.648   3.845   1.093  1.3961 -1.0361  0.1810
19576SOL    HW261621   5.591   3.708   1.064 -0.7180  0.0597 -0.9985
19577SOL     OW61622   3.784   2.343   6.927  0.4364 -0.2693  0.3433
19577SOL    HW161623   3.802   2.408   6.859 -0.2229 -0.4355 -0.0004
19577SOL    HW261624   3.739   2.272   6.881 -0.2863 -0.2515  0.9996
19578SOL     OW61625   7.324   0.277   3.458 -0.4594  0.1207  0.0207
19578SOL    HW161626   7.302   0.185   3.477 -1.5711  0.5311  0.8275
19578SOL    HW261627   7.273   0.327   3.520  1.3720  1.2580  0.6903
19579SOL     OW61628   6.309   8.005   0.118  0.4010 -0.0957 -0.7830
19579SOL    HW161629   6.297   7.911   0.113  0.6130 -0.2084  0.5960
19579SOL    HW261630   6.404   8.017   0.120  0.3909 -0.0289  1.3938
19580SOL     OW61631   1.438   2.706   0.833 -0.0718  0.1546  0.3143
19580SOL    HW161632   1.350   2.674   0.854  1.1560 -1.4666  3.7545
19580SOL    HW261633   1.452   2.778   0.895  0.6690  1.1686 -0.9739
19581SOL     OW61634   6.293   7.710   0.190  0.2663  0.3514 -0.0461
19581SOL    HW161635   6.299   7.756   0.274 -1.7411  2.5901 -1.0133
19581SOL    HW261636   6.208   7.664   0.195  1.7248 -2.5543  0.4543
19582SOL     OW61637   1.360   3.273   7.107 -0.5679 -0.0761  0.3032
19582SOL    HW161638   1.426   3.213   7.143  0.3453  1.2530  0.9135
19582SOL    HW261639   1.331   3.325   7.182  0.4108  1.8695 -0.6001
19583SOL     OW61640   2.793   0.999   6.839  0.6298 -0.4819 -0.2586
19583SOL    HW161641   2.863   0.958   6.889  1.2114 -0.9208 -1.3866
19583SOL    HW261642   2.716   0.945   6.855  0.9149 -0.8630 -0.1744
19584SOL     OW61643   7.267   0.120   4.686  0.0324 -0.0948 -0.3041
19584SOL    HW161644   7.271   0.076   4.771 -1.3976  1.1527  0.4579
19584SOL    HW261645   7.323   0.197   4.697 -0.6754  0.4226 -0.2455
19585SOL     OW61646   2.076   7.737   1.643  0.1938  0.1405  0.1299
19585SOL    HW161647   1.985   7.733   1.612 -0.1368 -1.0385  1.1672
19585SOL    HW261648   2.068   7.758   1.736  1.0306  0.8030  0.0608
19586SOL     OW61649   8.716   1.886   0.504  0.1130  0.4682 -0.1294
19586SOL    HW161650   8.653   1.828   0.460  0.0315  1.2174 -1.0386
19586SOL    HW261651   8.772   1.918   0.433  1.0107  0.4503  0.5568
19587SOL     OW61652   2.777   7.367   1.935  0.6602 -0.4637 -0.1569
19587SOL    HW161653   2.694   7.365   1.983  0.6588 -0.3644 -0.1537
19587SOL    HW261654   2.751   7.376   1.843  0.6594 -0.8107 -0.1913
19588SOL     OW61655   8.572   3.414   8.700  0.4275  0.1686  0.3310
19588SOL    HW161656   8.609   3.326   8.690  0.2646  0.2217 -0.8282
19588SOL    HW261657   8.553   3.442   8.611 -1.2951  0.6229  0.8095
19589SOL     OW61658   2.502   6.880   6.961  0.6123  0.3257 -0.4533
19589SOL    HW161659   2.470   6.902   6.873 -0.8755 -1.1915 -0.3358
19589SOL    HW261660   2.430   6.904   7.019  0.9398 -0.1997  0.1769
19590SOL     OW61661   5.306   2.343   2.841 -0.4842 -0.0269  0.1132
19590SOL    HW161662   5.337   2.324   2.929 -1.4580  0.6047  0.6138
19590SOL    HW261663   5.355   2.421   2.814 -1.2461  0.6824  0.7110
19591SOL     OW61664   7.923   2.778   8.703  0.7065  0.1437 -0.2602
19591SOL    HW161665   7.859   2.725   8.655 -0.7285  1.5220  0.0186
19591SOL    HW261666   7.987   2.804   8.637  0.7428 -0.9148 -0.6479
19592SOL     OW61667   1.559   8.848   2.571 -0.4298 -0.5935  0.1847
19592SOL    HW161668   1.498   8.789   2.615 -0.9363 -1.0555 -1.0811
19592SOL    HW261669   1.512   8.932   2.567 -0.8602 -0.8603 -0.4955
19593SOL     OW61670   2.665   8.454   5.473  0.2210  0.1541 -0.0587
19593SOL    HW161671   2.704   8.534   5.509 -0.1949  0.1404  0.4397
19593SOL    HW261672   2.609   8.421   5.543  0.9824 -1.0031  0.0445
19594SOL     OW61673   6.637   1.252   0.683 -0.1193  0.1399 -0.4805
19594SOL    HW161674   6.585   1.330   0.665  1.6921  0.9326 -2.7868
19594SOL    HW261675   6.626   1.196   0.606  0.0362 -1.0856  0.3457
19595SOL     OW61676   7.894   6.539   3.964 -0.2379  0.0857 -0.0450
19595SOL    HW161677   7.867   6.563   3.875 -1.3425 -0.7273  0.0444
19595SOL    HW261678   7.972   6.484   3.951 -1.5678 -1.7602 -0.7029
19596SOL     OW61679   8.570   4.034   3.349  0.1350  0.2378 -0.3164
19596SOL    HW161680   8.515   3.964   3.386  1.5760 -0.6414  0.2367
19596SOL    HW261681   8.658   3.996   3.347  0.4999  1.0676 -2.5725
19597SOL     OW61682   3.465   2.966   8.168 -0.3295  0.5347 -0.5359
19597SOL    HW161683   3.455   2.994   8.259 -1.1332  0.5151 -0.6141
19597SOL    HW261684   3.517   3.036   8.128 -0.9454  1.1306 -0.3314
19598SOL     OW61685   6.831   6.880   5.963  0.1469 -0.8390 -0.3147
19598SOL    HW161686   6.849   6.970   5.937  0.4503 -0.8670 -0.2048
19598SOL    HW261687   6.780   6.844   5.890 -1.8606  0.0526  0.5790
19599SOL     OW61688   7.311   7.960   3.103 -0.1752 -0.0016 -0.1112
19599SOL    HW161689   7.281   8.009   3.179 -0.4577  0.8592 -0.7669
19599SOL    HW261690   7.394   7.921   3.131 -1.0752 -1.0777  1.1840
19600SOL     OW61691   5.019   9.072   2.198 -0.4372  0.2453  0.5437
19600SOL    HW161692   5.016   9.090   2.292  0.7377  2.0363  0.2831
19600SOL    HW261693   4.932   9.036   2.177 -1.0295  0.6815  2.1433
19601SOL     OW61694   5.343   4.095   3.194  0.7018  0.2882 -0.0000
19601SOL    HW161695   5.337   4.099   3.099  0.0588 -1.1569 -0.0531
19601SOL    HW261696   5.306   4.009   3.217 -2.9019  2.0973  1.8206
19602SOL     OW61697   2.990   6.725   7.885  0.1713  0.0165 -0.2935
19602SOL    HW161698   3.012   6.801   7.832  1.5702 -0.1723 -0.0318
19602SOL    HW261699   2.921   6.680   7.835 -0.3915  1.2191 -0.6345
19603SOL     OW61700   4.655   8.898   5.088  0.4218 -0.0358  0.5118
19603SOL    HW161701   4.606   8.979   5.078 -0.2236 -0.5206 -0.3819
19603SOL    HW261702   4.706   8.911   5.168  0.2755  1.2115  0.4206
19604SOL     OW61703   7.317   8.987   8.786 -0.4059 -0.3939 -0.5135
19604SOL    HW161704   7.266   8.908   8.806 -0.0935 -0.5176 -0.2101
19604SOL    HW261705   7.255   9.044   8.740 -2.4895  1.6049  4.0774
19605SOL     OW61706   2.086   3.651   1.297 -0.5347 -0.2077 -0.0311
19605SOL    HW161707   2.065   3.713   1.366  0.3722  0.2480 -0.1531
19605SOL    HW261708   2.174   3.676   1.267 -0.1247 -1.5593 -0.0565
19606SOL     OW61709   7.559   8.041   4.201  0.0775 -0.1408 -0.4000
19606SOL    HW161710   7.565   8.127   4.160  0.0935 -0.3415 -0.8206
19606SOL    HW261711   7.467   8.018   4.195  0.1622 -0.3820 -0.7554
19607SOL     OW61712   5.234   9.010   2.975 -0.0122  0.0430 -0.3336
19607SOL    HW161713   5.288   9.029   2.898  1.4277  1.5225  0.9677
19607SOL    HW261714   5.279   9.053   3.047 -1.8987 -0.3857  1.1815
19608SOL     OW61715   8.887   2.036   3.891  1.0813  0.1950  0.3429
19608SOL    HW161716   8.830   2.077   3.826 -0.3520 -2.4765 -0.2386
19608SOL    HW261717   8.962   2.004   3.841  1.5146  0.8260  0.5686
19609SOL     OW61718   6.604   8.480   3.392 -0.9157  0.1053  0.0392
19609SOL    HW161719   6.557   8.561   3.412  0.6290  0.7010  1.4693
19609SOL    HW261720   6.537   8.411   3.399 -1.8811  1.0708  0.5957
19610SOL     OW61721   8.885   7.736   7.261  0.0588  0.0184 -0.0900
19610SOL    HW161722   8.877   7.722   7.355 -0.0322 -1.3117 -0.2766
19610SOL    HW261723   8.796   7.727   7.227  0.2267 -0.4599 -0.4127
19611SOL     OW61724   3.110   1.131   8.611 -0.3033 -0.0497 -0.2625
19611SOL    HW161725   3.130   1.145   8.519  0.4509 -0.5222 -0.1811
19611SOL    HW261726   3.190   1.158   8.657 -0.6876  0.2232  0.2585
19612SOL     OW61727   3.655   8.779   5.516 -0.6561 -0.4447  0.1619
19612SOL    HW161728   3.738   8.803   5.475 -0.4508 -1.9623 -0.3840
19612SOL    HW261729   3.597   8.853   5.500  0.4954  0.5041  0.2751
19613SOL     OW61730   1.316   1.395   5.711  0.1038 -0.0294  0.2380
19613SOL    HW161731   1.332   1.301   5.704 -0.1993  0.0267 -2.2151
19613SOL    HW261732   1.402   1.433   5.729  0.5935 -0.6535 -0.6954
19614SOL     OW61733   6.868   7.859   5.244  0.1523 -0.4716  0.0842
19614SOL    HW161734   6.775   7.837   5.236  0.3118 -2.0215  1.8087
19614SOL    HW261735   6.898   7.870   5.153 -1.7336  0.3526 -0.5002
19615SOL     OW61736   5.199   6.542   4.824 -0.8233  0.0775  0.0344
19615SOL    HW161737   5.150   6.461   4.830  0.3153 -0.8706 -2.3762
19615SOL    HW261738   5.288   6.514   4.802 -0.4769  1.9797 -1.1667
19616SOL     OW61739   1.904   2.466   1.050  0.3817  0.1502  1.0527
19616SOL    HW161740   1.830   2.420   1.089 -0.8075  1.9941  1.0853
19616SOL    HW261741   1.924   2.535   1.112  2.0554 -0.2092  0.9542
19617SOL     OW61742   5.552   9.055   1.005 -0.6024 -0.6813  0.6815
19617SOL    HW161743   5.536   9.096   1.091 -3.4455 -1.0780  0.4562
19617SOL    HW261744   5.505   9.112   0.943 -0.7217 -1.7715 -0.2486
19618SOL     OW61745   2.510   7.657   2.114  0.3327 -0.0681  0.6085
19618SOL    HW161746   2.532   7.571   2.150  0.9327  0.5190  1.7103
19618SOL    HW261747   2.462   7.638   2.033  0.6421 -1.4265  0.7218
19619SOL     OW61748   2.788   4.307   7.255 -0.0247 -0.1898 -0.4817
19619SOL    HW161749   2.761   4.242   7.321 -1.7846  0.0672 -0.8828
19619SOL    HW261750   2.821   4.381   7.305  1.1836 -1.0406  0.0091
19620SOL     OW61751   1.416   3.765   7.187  0.0855 -0.1079  0.6695
19620SOL    HW161752   1.384   3.818   7.113 -1.5047 -1.0361  0.6384
19620SOL    HW261753   1.504   3.737   7.160 -0.5736 -0.6729 -1.0326
19621SOL     OW61754   2.704   4.570   8.994 -0.1033 -0.2550 -0.4744
19621SOL    HW161755   2.726   4.645   9.050 -2.0518  1.3224 -1.6681
19621SOL    HW261756   2.661   4.508   9.053  0.5990  0.0089  0.3446
19622SOL     OW61757   8.469   4.447   3.137  0.9043  0.1902 -0.3901
19622SOL    HW161758   8.426   4.505   3.075  1.2127 -1.3722 -2.1407
19622SOL    HW261759   8.507   4.377   3.084  1.5941 -0.9838  1.5091
19623SOL     OW61760   6.777   2.441   0.744  0.0160 -0.0734 -0.1155
19623SOL    HW161761   6.801   2.366   0.798  2.2520  0.0217 -0.8605
19623SOL    HW261762   6.854   2.497   0.745 -0.6575  0.9578 -1.6657
19624SOL     OW61763   8.333   3.318   5.681  0.4355  0.2718  0.1197
19624SOL    HW161764   8.359   3.343   5.593 -0.0063 -1.5112 -0.5457
19624SOL    HW261765   8.238   3.334   5.684  0.1503 -1.2162 -0.3081
19625SOL     OW61766   2.160   4.216   7.006 -0.6312  0.1681  0.9063
19625SOL    HW161767   2.074   4.188   7.038 -1.1235  0.6052 -0.0003
19625SOL    HW261768   2.223   4.168   7.060 -1.4293  0.7920  2.4370
19626SOL     OW61769   7.498   4.411   6.194 -0.9110  0.3404 -0.0948
19626SOL    HW161770   7.449   4.482   6.153 -0.4692  0.3737 -0.5689
19626SOL    HW261771   7.467   4.410   6.285 -1.4632  0.6473 -0.2772
19627SOL     OW61772   8.705   0.296   1.736 -0.0237  0.6629  0.1392
19627SOL    HW161773   8.619   0.310   1.776  0.4096 -0.7855  1.7111
19627SOL    HW261774   8.699   0.209   1.696  0.5087  0.8147 -0.2765
19628SOL     OW61775   8.677   1.870   7.263 -0.4405 -0.3582  0.1777
19628SOL    HW161776   8.717   1.807   7.204 -1.7799 -1.7463  0.6944
19628SOL    HW261777   8.682   1.954   7.216  2.9202 -0.4217  0.1876
19629SOL     OW61778   7.487   2.523   4.201  0.0305 -0.9029 -0.5195
19629SOL    HW161779   7.557   2.559   4.256 -1.2046  0.9991 -0.0937
19629SOL    HW261780   7.533   2.474   4.132  1.7810  0.2610 -0.2356
19630SOL     OW61781   0.989   3.017   6.218 -0.2980  0.3589 -0.3218
19630SOL    HW161782   0.907   2.971   6.198 -0.8722  1.2939 -0.1945
19630SOL    HW261783   0.972   3.058   6.303  0.8263 -0.6210  0.4054
19631SOL     OW61784   8.543   8.659   5.767 -0.6580 -0.1615 -0.1034
19631SOL    HW161785   8.589   8.694   5.691  1.0548  0.1406  1.0251
19631SOL    HW261786   8.539   8.732   5.828 -2.2318 -0.3315  0.0468
19632SOL     OW61787   6.732   8.885   4.253  0.6442  0.3293  0.4227
19632SOL    HW161788   6.721   8.919   4.164 -1.3252 -1.9709 -0.2874
19632SOL    HW261789   6.696   8.953   4.310 -2.2823  0.0043 -0.8853
19633SOL     OW61790   7.041   4.773   8.192 -0.2818  0.2321  0.2343
19633SOL    HW161791   7.114   4.825   8.227 -0.6672  1.1394 -0.2765
19633SOL    HW261792   7.006   4.726   8.268  3.5037 -3.7231 -0.0890
19634SOL     OW61793   2.961   5.743   2.296 -0.9680 -0.3143 -0.1832
19634SOL    HW161794   3.018   5.798   2.242 -0.3721  0.1370  0.8716
19634SOL    HW261795   2.970   5.655   2.258  2.0087 -0.6812  1.0634
19635SOL     OW61796   2.069   2.031   8.122  0.1799 -0.0645  0.7296
19635SOL    HW161797   2.024   2.116   8.122  0.7515  0.2458 -0.0852
19635SOL    HW261798   2.083   2.011   8.214 -1.5845 -0.1510  1.0219
19636SOL     OW61799   1.989   3.970   8.640 -0.7412 -0.1569  0.2094
19636SOL    HW161800   1.976   4.063   8.620  0.3975 -0.4423 -2.2734
19636SOL    HW261801   2.059   3.969   8.706  0.2578  0.7396 -0.7945
19637SOL     OW61802   3.514   3.922   7.861  0.0837 -0.0993 -0.0547
19637SOL    HW161803   3.515   3.926   7.957  0.5862  0.5550 -0.0822
19637SOL    HW261804   3.461   3.997   7.835 -0.4050 -0.5202 -0.2828
19638SOL     OW61805   1.813   5.459   0.825  0.4485  0.3708  0.5704
19638SOL    HW161806   1.880   5.411   0.777  0.6816  1.6691 -0.4528
19638SOL    HW261807   1.814   5.420   0.913  2.9925  0.7498  0.7918
19639SOL     OW61808   2.840   0.269   4.470  0.3711 -0.1540 -0.4449
19639SOL    HW161809   2.746   0.286   4.458  0.3162  0.0317  0.2378
19639SOL    HW261810   2.859   0.197   4.409 -0.2393 -0.2753 -0.5013
19640SOL     OW61811   7.970   6.740   6.504  0.1869  0.0587  0.1324
19640SOL    HW161812   7.935   6.716   6.418  0.6879  0.6949 -0.2579
19640SOL    HW261813   7.988   6.656   6.546  0.1567 -0.2587 -0.4765
19641SOL     OW61814   4.123   2.948   7.361 -0.4201 -0.0405  0.5371
19641SOL    HW161815   4.028   2.938   7.351 -0.5487 -0.1131  1.6668
19641SOL    HW261816   4.134   3.036   7.397 -0.0714 -0.0789  0.5256
19642SOL     OW61817   3.968   8.041   5.194 -0.2211 -0.5286 -0.1828
19642SOL    HW161818   3.985   8.031   5.101  0.0415 -0.5125 -0.1366
19642SOL    HW261819   4.054   8.035   5.235 -0.2280  0.4457 -0.0192
19643SOL     OW61820   1.281   7.551   6.013  0.4110  0.7467 -0.5369
19643SOL    HW161821   1.245   7.548   5.924  1.6415  0.2764 -1.0473
19643SOL    HW261822   1.305   7.460   6.032 -1.0065  0.6204  0.7986
19644SOL     OW61823   6.716   0.349   8.148  0.1422 -0.2102 -0.0361
19644SOL    HW161824   6.801   0.377   8.180 -0.1575  1.5722 -0.6970
19644SOL    HW261825   6.657   0.361   8.223  0.1611  0.2377 -0.0896
19645SOL     OW61826   6.486   2.276   6.541  0.4036 -0.0465 -0.1412
19645SOL    HW161827   6.438   2.194   6.526  1.5707 -1.2606  2.1252
19645SOL    HW261828   6.419   2.344   6.537 -1.1217 -1.4273  0.6429
19646SOL     OW61829   6.750   5.034   1.343  0.4871  0.5254 -0.3896
19646SOL    HW161830   6.720   4.946   1.362  1.0251  0.6894  1.4551
19646SOL    HW261831   6.670   5.085   1.332  0.1526  0.0869 -0.0091
19647SOL     OW61832   0.699   4.265   3.559  0.1395  0.1564  0.5045
19647SOL    HW161833   0.712   4.184   3.610 -1.3592 -0.7289 -0.4329
19647SOL    HW261834   0.737   4.334   3.613  0.5207 -1.0431  1.8255
19648SOL     OW61835   7.269   0.104   5.621  0.2449  0.0806 -0.4455
19648SOL    HW161836   7.284   0.010   5.621  2.1510  0.3001  1.8623
19648SOL    HW261837   7.196   0.117   5.682  0.4103  0.1494 -0.2622
19649SOL     OW61838   6.541   8.789   8.767  0.3488  0.1858  0.1681
19649SOL    HW161839   6.550   8.790   8.672 -1.6407  0.9964 -0.0625
19649SOL    HW261840   6.535   8.696   8.790 -0.9586  0.0211 -0.7299
19650SOL     OW61841   5.022   3.282   0.704  0.0096  0.1445 -0.1824
19650SOL    HW161842   5.018   3.372   0.672  0.0607  0.2724  0.1699
19650SOL    HW261843   5.029   3.290   0.799  2.3888 -0.1464 -0.2637
19651SOL     OW61844   4.931   2.915   7.708  0.2604 -0.2470  0.3978
19651SOL    HW161845   4.969   2.890   7.791  2.5748  1.4029 -0.0710
19651SOL    HW261846   4.849   2.959   7.731  0.8692  0.1978  1.8094
19652SOL     OW61847   7.743   2.921   4.274 -0.1471  0.0089  0.7093
19652SOL    HW161848   7.728   2.912   4.180  1.0575  1.2790  0.3751
19652SOL    HW261849   7.806   2.993   4.283 -0.0566 -0.2278  2.4749
19653SOL     OW61850   3.290   0.863   0.949  0.4641  1.0495  0.5713
19653SOL    HW161851   3.312   0.772   0.926 -0.5509  0.7088  0.9263
19653SOL    HW261852   3.325   0.914   0.876 -0.6033  0.1983 -0.5870
19654SOL     OW61853   2.730   0.596   0.119 -0.3960  0.5041  0.5519
19654SOL    HW161854   2.719   0.536   0.193 -1.7236  0.5432  0.4161
19654SOL    HW261855   2.687   0.677   0.146 -0.6250  0.6234 -0.1313
19655SOL     OW61856   1.926   5.578   3.239 -0.0300  0.3106  0.0329
19655SOL    HW161857   1.850   5.605   3.188 -0.2594 -0.0417  0.1795
19655SOL    HW261858   2.001   5.595   3.182 -0.4074 -1.8262 -1.1940
19656SOL     OW61859   2.123   4.497   6.968  0.6568 -0.3975 -0.2115
19656SOL    HW161860   2.132   4.402   6.972 -1.3515 -0.6217  0.0414
19656SOL    HW261861   2.166   4.530   7.047 -0.5722 -1.3074  0.8821
19657SOL     OW61862   8.362   0.528   7.010 -0.4130  0.1901  0.1394
19657SOL    HW161863   8.350   0.495   6.921 -0.7854  1.7221 -0.4126
19657SOL    HW261864   8.411   0.610   6.999  0.5845 -0.2013  1.4546
19658SOL     OW61865   6.471   2.967   0.671  0.0084 -0.4109 -0.5033
19658SOL    HW161866   6.403   2.956   0.737  0.5880 -1.3729 -0.0462
19658SOL    HW261867   6.520   2.884   0.672  0.9339  0.1039 -1.1020
19659SOL     OW61868   1.449   0.923   7.236 -0.0301 -0.1686  0.3521
19659SOL    HW161869   1.408   0.840   7.261  0.5432 -0.8077 -0.7598
19659SOL    HW261870   1.392   0.990   7.273 -0.4010 -1.0534  1.4284
19660SOL     OW61871   6.463   4.956   8.365 -0.0464  0.0350  0.1014
19660SOL    HW161872   6.526   4.914   8.307 -0.2661 -0.1648  0.0062
19660SOL    HW261873   6.378   4.943   8.322 -0.0083  1.5626 -0.5325
19661SOL     OW61874   7.688   8.189   1.909  0.3791  0.3617 -0.1008
19661SOL    HW161875   7.704   8.272   1.955 -0.9056  0.5961 -0.0338
19661SOL    HW261876   7.617   8.209   1.848  0.3004 -0.6059 -0.3382
19662SOL     OW61877   7.335   8.570   1.886 -0.0485  0.4830  0.1943
19662SOL    HW161878   7.314   8.604   1.973 -0.4293  1.0261 -0.1093
19662SOL    HW261879   7.417   8.614   1.862  0.8199 -0.6940  0.8425
19663SOL     OW61880   2.112   7.438   6.878  0.4735 -0.1079 -0.0775
19663SOL    HW161881   2.170   7.484   6.817 -2.1222  1.3813 -1.6160
19663SOL    HW261882   2.107   7.349   6.843  1.0252  0.0194 -0.5078
19664SOL     OW61883   2.472   5.868   1.687 -0.1031 -0.3122  0.0969
19664SOL    HW161884   2.399   5.904   1.636 -0.1231 -1.3673 -0.6494
19664SOL    HW261885   2.439   5.862   1.776 -1.4271 -2.0347 -0.4610
19665SOL     OW61886   8.204   8.728   2.698  0.0005  0.1273 -0.1960
19665SOL    HW161887   8.199   8.666   2.771 -1.6625 -0.4383 -0.7452
19665SOL    HW261888   8.160   8.683   2.626  0.2510  1.2895 -1.0946
19666SOL     OW61889   3.283   6.284   8.396  0.2513 -0.1996  0.5348
19666SOL    HW161890   3.204   6.236   8.422  0.3595  0.7973  2.9735
19666SOL    HW261891   3.353   6.220   8.401 -0.1358 -0.6785  0.0049
19667SOL     OW61892   1.327   2.330   5.870 -0.0549  0.3460 -0.0716
19667SOL    HW161893   1.298   2.298   5.956 -0.6095  0.3007 -0.2690
19667SOL    HW261894   1.307   2.424   5.872  1.8585  0.7784  0.6251
19668SOL     OW61895   5.696   3.738   0.099 -0.4166 -0.1549  0.0181
19668SOL    HW161896   5.642   3.775   0.029 -1.3716  1.1404  1.3856
19668SOL    HW261897   5.683   3.643   0.092 -0.8406 -0.0218 -1.2640
19669SOL     OW61898   8.087   4.269   4.822  0.3212  0.2677 -0.1424
19669SOL    HW161899   8.135   4.203   4.872 -0.7645 -0.7904 -0.4552
19669SOL    HW261900   8.134   4.274   4.739  0.1370 -0.4743 -0.2994
19670SOL     OW61901   7.426   5.553   1.668  0.2564 -0.3313  0.6357
19670SOL    HW161902   7.411   5.613   1.594 -0.4072  1.1181  1.8779
19670SOL    HW261903   7.408   5.607   1.745 -0.9020 -2.2964  1.8118
19671SOL     OW61904   8.220   4.552   4.657 -0.7520  0.0263  0.3863
19671SOL    HW161905   8.283   4.482   4.638  0.0578  0.5938  0.8971
19671SOL    HW261906   8.180   4.526   4.740 -0.2385  0.3119  0.7255
19672SOL     OW61907   8.541   6.684   4.515 -0.4887  0.2521 -0.8486
19672SOL    HW161908   8.551   6.777   4.496 -1.4393  0.1670 -1.8554
19672SOL    HW261909   8.454   6.676   4.554 -0.2909 -0.1821 -0.4809
19673SOL     OW61910   2.941   5.249   5.864  1.2726  0.2070  0.1957
19673SOL    HW161911   2.902   5.329   5.829 -0.6240 -1.2668 -1.3180
19673SOL    HW261912   2.874   5.213   5.923  1.0250 -1.3943 -0.9607
19674SOL     OW61913   5.142   4.063   5.341  0.0875 -0.5027 -0.4401
19674SOL    HW161914   5.226   4.018   5.347  0.8063  0.9097  0.9371
19674SOL    HW261915   5.105   4.057   5.429 -1.2344 -1.0145 -1.0025
19675SOL     OW61916   2.872   4.735   2.664  0.0287  0.3542 -0.4735
19675SOL    HW161917   2.852   4.715   2.755 -0.9123 -1.4162 -1.0216
19675SOL    HW261918   2.966   4.755   2.663 -0.0379  0.8187  0.9187
19676SOL     OW61919   4.215   0.496   4.560  0.3164 -0.1418 -0.7621
19676SOL    HW161920   4.139   0.449   4.595 -0.2924  1.5974  0.4068
19676SOL    HW261921   4.287   0.472   4.619  0.6237 -1.4431 -1.6104
19677SOL     OW61922   5.104   5.692   0.128 -0.1400 -0.6198  0.3159
19677SOL    HW161923   5.031   5.637   0.101 -0.3899  0.1851 -0.6905
19677SOL    HW261924   5.073   5.736   0.207 -0.2564 -1.2445  0.6263
19678SOL     OW61925   7.831   5.673   3.226 -0.4268  0.1466 -0.2202
19678SOL    HW161926   7.883   5.742   3.267  0.1732 -1.4876  2.0251
19678SOL    HW261927   7.742   5.707   3.224  0.0907  1.5409 -0.5787
19679SOL     OW61928   8.278   2.903   7.350  0.2501 -0.3618 -0.0138
19679SOL    HW161929   8.286   2.896   7.255  0.0131  1.7238 -0.2238
19679SOL    HW261930   8.275   2.997   7.367 -3.4666 -0.5991  1.6825
19680SOL     OW61931   6.525   8.850   7.397 -0.0242  0.3441  0.0153
19680SOL    HW161932   6.463   8.777   7.388 -0.2802  0.5661 -0.0342
19680SOL    HW261933   6.489   8.904   7.467  1.0352 -0.4412  1.1976
19681SOL     OW61934   3.294   3.732   7.803  0.1817 -0.1067  0.3003
19681SOL    HW161935   3.301   3.821   7.769 -0.7082 -0.3292 -0.4995
19681SOL    HW261936   3.325   3.676   7.732  1.3439 -0.4111  1.0311
19682SOL     OW61937   8.826   4.441   8.277  0.2798 -0.2092 -0.1274
19682SOL    HW161938   8.819   4.461   8.370  0.0427 -0.5244 -0.0744
19682SOL    HW261939   8.792   4.352   8.269 -2.0655  0.6875 -0.8692
19683SOL     OW61940   4.527   2.860   5.459 -0.0047  0.4453 -0.0911
19683SOL    HW161941   4.471   2.793   5.498  1.0114 -0.1847  0.3389
19683SOL    HW261942   4.603   2.864   5.517  1.7577 -0.8159 -2.1825
19684SOL     OW61943   4.622   8.740   5.934  0.2277  0.1296 -0.0385
19684SOL    HW161944   4.562   8.690   5.878  0.7863 -1.7260  0.9537
19684SOL    HW261945   4.567   8.806   5.975 -1.0007 -1.0099  0.2218
19685SOL     OW61946   3.881   8.022   7.268 -0.0879  0.1542 -0.1398
19685SOL    HW161947   3.787   8.004   7.267  0.2641 -2.5144  2.0486
19685SOL    HW261948   3.898   8.059   7.354  0.8859  0.6751 -0.5383
19686SOL     OW61949   9.086   1.403   5.423 -1.1964 -0.3935  0.8452
19686SOL    HW161950   9.159   1.373   5.478 -0.6368  0.3859  0.5484
19686SOL    HW261951   9.082   1.339   5.351 -0.9662 -0.5778  0.9960
19687SOL     OW61952   2.958   6.731   0.901 -0.0582 -0.1260 -0.2764
19687SOL    HW161953   2.922   6.788   0.969  1.6579 -1.2717  1.7211
19687SOL    HW261954   3.052   6.726   0.921  0.2683 -1.5874 -1.9375
19688SOL     OW61955   1.568   2.978   0.728  0.2766  0.0094 -0.1803
19688SOL    HW161956   1.561   2.964   0.634  0.8960  2.0693 -0.5885
19688SOL    HW261957   1.660   3.001   0.743  0.0129  0.5138  0.7789
19689SOL     OW61958   0.925   8.394   3.491  0.3155 -0.9095  0.3473
19689SOL    HW161959   0.886   8.453   3.427 -0.1900 -1.0646  0.5036
19689SOL    HW261960   0.982   8.337   3.440 -1.3196 -2.1012 -0.2331
19690SOL     OW61961   8.959   2.616   1.528 -0.0148  0.4176 -0.3611
19690SOL    HW161962   8.920   2.542   1.574  0.9867  0.7096  1.0287
19690SOL    HW261963   8.948   2.690   1.588  0.4410  1.0364 -1.0233
19691SOL     OW61964   3.975   3.649   6.879 -0.1361  0.2618 -0.1841
19691SOL    HW161965   4.059   3.664   6.836 -0.2035 -0.9306 -0.7782
19691SOL    HW261966   3.988   3.679   6.969  0.3689  1.7198 -0.7091
19692SOL     OW61967   2.588   8.266   0.784 -0.8694  0.2269 -0.3903
19692SOL    HW161968   2.514   8.212   0.812 -0.4251 -1.1857 -1.8177
19692SOL    HW261969   2.659   8.204   0.768  0.3479  1.4586  0.0107
19693SOL     OW61970   0.636   7.608   0.821  0.1171 -0.0507  0.6067
19693SOL    HW161971   0.679   7.653   0.749 -0.1720  0.6934  0.8887
19693SOL    HW261972   0.685   7.526   0.831  0.0150 -0.2821 -0.5827
19694SOL     OW61973   1.578   0.689   4.514 -0.3150  0.3740  0.7572
19694SOL    HW161974   1.651   0.744   4.484  1.1863 -1.3112  1.1422
19694SOL    HW261975   1.608   0.653   4.597 -2.3735  1.0444  1.8590
19695SOL     OW61976   1.662   2.128   1.499  0.3372  0.0171  0.4104
19695SOL    HW161977   1.673   2.070   1.424 -0.9636 -0.2760  0.4163
19695SOL    HW261978   1.656   2.215   1.461 -0.4773 -0.1454  0.1399
19696SOL     OW61979   4.874   6.611   3.879  0.0143 -0.2084 -0.2729
19696SOL    HW161980   4.848   6.588   3.790 -1.3307  0.9660 -0.2212
19696SOL    HW261981   4.894   6.704   3.876  0.5950 -0.2939  0.5189
19697SOL     OW61982   7.216   1.760   2.909  1.0053 -0.3863 -0.4683
19697SOL    HW161983   7.125   1.736   2.925  0.3558  2.3225  0.5821
19697SOL    HW261984   7.267   1.707   2.969 -0.2506  0.4414  1.4128
19698SOL     OW61985   0.801   7.455   0.354  0.0083 -0.5109  0.3021
19698SOL    HW161986   0.742   7.386   0.386  0.9843 -0.9516  1.2483
19698SOL    HW261987   0.830   7.500   0.434  0.6936 -0.1009 -0.1652
19699SOL     OW61988   8.533   4.319   4.415 -0.6201 -0.1548 -0.4340
19699SOL    HW161989   8.557   4.347   4.503 -0.5578 -3.0189  0.5408
19699SOL    HW261990   8.617   4.305   4.371 -0.6222 -0.8518 -0.2168
19700SOL     OW61991   4.656   2.838   2.832 -0.2184  0.4383  0.2756
19700SOL    HW161992   4.737   2.843   2.782  0.1093  0.1142  0.7598
19700SOL    HW261993   4.684   2.844   2.924 -1.0065  3.6675  0.4275
19701SOL     OW61994   4.619   8.557   0.341  0.0910  0.2324 -0.2011
19701SOL    HW161995   4.578   8.486   0.291  0.4510  0.8785 -1.4668
19701SOL    HW261996   4.547   8.599   0.387 -0.0900 -1.1212  0.8151
19702SOL     OW61997   5.106   5.625   2.711  0.1241 -0.1169 -1.0628
19702SOL    HW161998   5.193   5.665   2.722  0.1035 -0.5659  1.3964
19702SOL    HW261999   5.122   5.530   2.718 -0.5194 -0.2233 -0.9595
19703SOL     OW62000   1.881   3.218   1.431 -0.4576  0.2435  0.0984
19703SOL    HW162001   1.809   3.156   1.425 -0.1534 -0.0652 -0.4785
19703SOL    HW262002   1.921   3.201   1.516 -0.6478 -0.0574  0.1290
19704SOL     OW62003   1.561   9.029   2.893  0.3903 -0.1620 -0.0635
19704SOL    HW162004   1.504   9.016   2.817  0.8321  2.9188 -1.0763
19704SOL    HW262005   1.648   9.002   2.863  0.2068 -0.9302  0.0801
19705SOL     OW62006   4.108   0.755   5.202 -0.6482  0.5651 -0.1839
19705SOL    HW162007   4.048   0.702   5.255  0.0249 -0.0856 -0.0616
19705SOL    HW262008   4.194   0.718   5.218 -0.5666 -0.6132 -2.8587
19706SOL     OW62009   4.696   6.453   6.843  0.1506  0.3816 -0.3873
19706SOL    HW162010   4.775   6.432   6.793  2.2281  3.4264  1.2686
19706SOL    HW262011   4.709   6.412   6.928 -1.0537 -0.7444 -0.7219
19707SOL     OW62012   8.869   1.779   5.705 -0.3569  0.4263 -0.2363
19707SOL    HW162013   8.900   1.870   5.709 -0.5078  0.4529  0.4862
19707SOL    HW262014   8.794   1.782   5.646  0.0523  0.6411 -0.7594
19708SOL     OW62015   7.526   7.248   6.714  0.6097  0.5879  0.3268
19708SOL    HW162016   7.565   7.215   6.795 -1.3712 -0.9799  0.7157
19708SOL    HW262017   7.540   7.178   6.650 -1.5301 -0.0684  0.5052
19709SOL     OW62018   8.228   1.318   7.740 -0.1230 -0.2442 -0.0064
19709SOL    HW162019   8.221   1.351   7.651 -0.1351 -0.0758  0.0545
19709SOL    HW262020   8.235   1.398   7.794 -2.2276 -0.2388  0.3557
19710SOL     OW62021   6.006   8.837   8.064 -0.2340 -0.5066  0.7752
19710SOL    HW162022   6.097   8.852   8.038 -0.6809  2.2220  0.4804
19710SOL    HW262023   6.012   8.795   8.150  1.3438  0.9940  1.4538
19711SOL     OW62024   8.117   8.091   8.504  0.1175  0.0000  0.6873
19711SOL    HW162025   8.100   8.002   8.537  0.7172  0.2356  1.7084
19711SOL    HW262026   8.037   8.116   8.459 -0.5195 -0.6111  1.4389
19712SOL     OW62027   1.941   0.428   9.232  0.3491 -0.2199 -0.5475
19712SOL    HW162028   1.873   0.470   9.179  1.5060  1.0439 -1.1063
19712SOL    HW262029   2.022   0.468   9.202  1.2978 -1.3129  0.4627
19713SOL     OW62030   8.689   2.029   0.724 -0.2900 -0.1222  0.4583
19713SOL    HW162031   8.732   2.109   0.694  0.5008  0.0525  1.9504
19713SOL    HW262032   8.693   1.970   0.648  1.4137  0.3632  0.1286
19714SOL     OW62033   6.325   5.339   3.570 -0.6034  0.1468 -0.2765
19714SOL    HW162034   6.300   5.261   3.619 -1.1594  0.3208 -0.2768
19714SOL    HW262035   6.365   5.397   3.636  1.6437 -0.8955 -0.6126
19715SOL     OW62036   2.581   8.449   3.892 -0.3949 -0.2947  0.1760
19715SOL    HW162037   2.621   8.527   3.854  0.6840 -1.8296 -2.0451
19715SOL    HW262038   2.487   8.461   3.878 -0.2725  0.7186  0.1399
19716SOL     OW62039   8.535   7.096   6.864 -0.1580  0.0031 -0.4708
19716SOL    HW162040   8.447   7.066   6.885 -0.2493 -1.4890 -2.5896
19716SOL    HW262041   8.521   7.173   6.809 -0.0624  0.9858  0.8618
19717SOL     OW62042   6.373   2.533   0.739  0.2843 -0.1673  0.0576
19717SOL    HW162043   6.430   2.520   0.815  1.7532  2.6135 -0.4699
19717SOL    HW262044   6.429   2.516   0.664 -0.3621 -0.0772 -0.4528
19718SOL     OW62045   1.722   6.824   1.077 -0.5184  0.2981 -0.0457
19718SOL    HW162046   1.801   6.860   1.118  0.3411  2.8801 -3.4854
19718SOL    HW262047   1.742   6.823   0.984 -4.3712  0.5731 -1.0306
19719SOL     OW62048   0.917   0.977   0.096  0.0199 -0.1823  0.3785
19719SOL    HW162049   0.898   1.065   0.065  1.1797 -0.5737 -1.6232
19719SOL    HW262050   0.848   0.958   0.159 -3.0914  0.4147 -2.5569
19720SOL     OW62051   2.199   0.479   2.345  0.1089  0.2367  0.0032
19720SOL    HW162052   2.170   0.412   2.283  1.2351 -1.1453  0.8959
19720SOL    HW262053   2.179   0.441   2.431 -0.7914  1.8172  0.5235
19721SOL     OW62054   6.222   6.332   5.813 -0.2671 -0.0572 -0.6650
19721SOL    HW162055   6.153   6.363   5.754  0.2575  0.3325 -1.0856
19721SOL    HW262056   6.239   6.406   5.871  0.6978  0.3247 -1.4059
19722SOL     OW62057   8.110   1.381   2.257 -0.1565 -0.1378  0.2169
19722SOL    HW162058   8.116   1.477   2.249  0.3790 -0.0122  1.7331
19722SOL    HW262059   8.195   1.350   2.227 -0.5247 -0.2006 -0.8037
19723SOL     OW62060   6.022   6.975   0.745  0.7540  0.3202  0.0548
19723SOL    HW162061   6.016   6.923   0.825 -0.6530  0.7309  0.2504
19723SOL    HW262062   6.032   7.065   0.776  1.2149  0.3832 -0.2582
19724SOL     OW62063   0.757   1.638   1.442  0.7399  0.1833 -1.7274
19724SOL    HW162064   0.691   1.700   1.410 -0.0865 -0.7097 -1.7893
19724SOL    HW262065   0.810   1.689   1.503 -1.1003  0.5036 -0.3046
19725SOL     OW62066   5.736   1.221   3.392  0.2882 -0.7343  0.7132
19725SOL    HW162067   5.760   1.303   3.350 -2.0504 -0.6198 -0.5337
19725SOL    HW262068   5.820   1.185   3.423  1.1951  3.1912  3.5407
19726SOL     OW62069   3.373   8.020   2.585  0.5030  0.3591  0.4178
19726SOL    HW162070   3.461   8.041   2.554 -0.0099  1.9587 -0.0717
19726SOL    HW262071   3.379   7.930   2.616  2.3008  0.4298  0.3735
19727SOL     OW62072   5.225   2.897   4.544  0.2043  0.1197 -0.6987
19727SOL    HW162073   5.304   2.919   4.594  1.9668 -0.8332 -2.9073
19727SOL    HW262074   5.192   2.817   4.586  0.3611  0.5451  0.2621
19728SOL     OW62075   1.277   8.216   1.993 -0.0910 -0.2805 -0.3207
19728SOL    HW162076   1.333   8.142   2.015  0.4958 -0.0737 -1.0848
19728SOL    HW262077   1.189   8.180   1.992  0.2440 -1.1122 -1.2331
19729SOL     OW62078   7.574   1.425   0.171  0.6128  0.3356 -0.0051
19729SOL    HW162079   7.582   1.342   0.217  2.1378 -0.6412 -1.8755
19729SOL    HW262080   7.655   1.472   0.192  0.4957  0.6515 -0.2484
19730SOL     OW62081   2.701   4.377   3.584 -0.3338 -0.2561  0.3640
19730SOL    HW162082   2.648   4.445   3.626 -0.3334 -0.7314  1.1593
19730SOL    HW262083   2.638   4.310   3.558 -0.3038 -0.0767 -0.1754
19731SOL     OW62084   1.560   5.294   2.347 -0.0821  0.2556  0.8601
19731SOL    HW162085   1.587   5.302   2.255 -0.1087 -0.4679  0.7797
19731SOL    HW262086   1.480   5.241   2.344 -1.7864  2.6501  1.0624
19732SOL     OW62087   2.929   7.331   2.827  0.3518 -0.7247  0.6201
19732SOL    HW162088   2.850   7.281   2.849  0.9055 -1.3984  1.1211
19732SOL    HW262089   2.896   7.415   2.794 -0.5686 -0.9593  0.9150
19733SOL     OW62090   5.829   2.020   5.062  0.1210 -0.0579 -0.0657
19733SOL    HW162091   5.747   1.971   5.063  0.1801 -0.1562  0.3300
19733SOL    HW262092   5.873   1.993   5.143  0.9464 -0.6780 -0.7090
19734SOL     OW62093   3.073   7.338   5.432  0.6061  0.6614  0.5903
19734SOL    HW162094   3.056   7.244   5.433  0.7099  0.6417  0.5342
19734SOL    HW262095   3.004   7.375   5.378  1.0680  0.5179 -0.1147
19735SOL     OW62096   1.032   3.528   1.225 -0.0174  0.1602  0.3152
19735SOL    HW162097   1.012   3.616   1.193 -2.2800  0.6787  2.7298
19735SOL    HW262098   1.033   3.474   1.146  1.7469  2.3192 -1.2850
19736SOL     OW62099   2.897   1.403   7.958 -0.0641 -0.2673  0.4670
19736SOL    HW162100   2.909   1.431   7.867 -2.7022 -0.6578 -0.0991
19736SOL    HW262101   2.895   1.307   7.953  4.1287 -0.6198  1.6908
19737SOL     OW62102   4.598   7.425   4.970 -0.0986 -0.6886  0.3582
19737SOL    HW162103   4.668   7.410   5.033  0.8275 -0.0298 -0.4760
19737SOL    HW262104   4.567   7.514   4.989 -0.9459 -1.0867  0.9246
19738SOL     OW62105   6.274   1.681   1.895 -0.2404 -0.2452  0.0901
19738SOL    HW162106   6.344   1.617   1.888 -1.2710 -1.3698 -0.2468
19738SOL    HW262107   6.270   1.722   1.808  0.5615  0.4635  0.3695
19739SOL     OW62108   0.136   1.344   0.861  0.2032 -0.0982 -0.6532
19739SOL    HW162109   0.070   1.334   0.792 -1.2992  1.2725  0.5126
19739SOL    HW262110   0.092   1.396   0.929  2.5859  1.1579  0.0332
19740SOL     OW62111   8.008   9.095   8.132  0.0890 -0.8358 -0.3511
19740SOL    HW162112   7.920   9.105   8.170  1.1084 -0.5008  2.0522
19740SOL    HW262113   8.025   9.001   8.134 -0.1995 -0.9046 -0.8497
19741SOL     OW62114   3.748   5.538   2.571  1.0557  0.0215  0.2331
19741SOL    HW162115   3.726   5.527   2.664 -0.3358 -1.2790 -0.2202
19741SOL    HW262116   3.842   5.559   2.572  1.0576  0.1254  1.9260
19742SOL     OW62117   4.015   9.176   3.434  0.3400  0.0521  0.5425
19742SOL    HW162118   4.016   9.161   3.339 -2.4998  0.4599  0.3867
19742SOL    HW262119   4.013   9.271   3.444  0.0496 -0.0007  1.0076
19743SOL     OW62120   4.084   5.529   8.871 -0.4455  0.2527 -0.2859
19743SOL    HW162121   4.002   5.481   8.877 -0.3777  0.1762  0.0662
19743SOL    HW262122   4.068   5.612   8.916  0.1493 -0.4347  1.2672
19744SOL     OW62123   7.012   8.081   8.034 -0.2878 -0.1777 -0.4989
19744SOL    HW162124   7.058   8.027   7.969 -2.3981 -0.9373 -1.4453
19744SOL    HW262125   6.992   8.162   7.986 -1.0491 -0.3769 -0.5328
19745SOL     OW62126   4.866   8.346   0.847  0.2806  0.3365 -0.8124
19745SOL    HW162127   4.926   8.295   0.793  2.6657  2.2355 -0.1744
19745SOL    HW262128   4.910   8.352   0.932 -1.2932  1.0691  0.0030
19746SOL     OW62129   7.661   8.492   1.962 -0.9641  0.3755 -0.1842
19746SOL    HW162130   7.632   8.541   2.039  0.6470 -0.6205  1.1260
19746SOL    HW262131   7.614   8.531   1.889 -0.3384  3.3515  0.8793
19747SOL     OW62132   3.728   2.686   1.866  0.3706  0.0552 -0.1297
19747SOL    HW162133   3.679   2.604   1.856  0.7937 -0.1942 -0.2084
19747SOL    HW262134   3.690   2.728   1.943 -1.0773  0.6648 -1.1416
19748SOL     OW62135   7.654   3.310   8.793 -0.6969 -0.5412  0.6539
19748SOL    HW162136   7.673   3.394   8.752 -0.3856 -1.1508 -0.5087
19748SOL    HW262137   7.718   3.301   8.863 -0.6078  0.0985  0.6533
19749SOL     OW62138   1.461   3.632   8.538  0.5472 -0.3379 -0.4285
19749SOL    HW162139   1.486   3.668   8.453  1.0007 -1.2997 -0.7243
19749SOL    HW262140   1.539   3.643   8.593  0.3364  0.0649 -0.2071
19750SOL     OW62141   4.456   5.711   4.397  0.4882  0.0839 -1.4061
19750SOL    HW162142   4.400   5.660   4.455 -0.1133 -0.1030 -2.1381
19750SOL    HW262143   4.510   5.764   4.457 -2.4338  2.4473 -0.6018
19751SOL     OW62144   8.584   5.430   5.979  0.5271 -0.1961 -0.1601
19751SOL    HW162145   8.614   5.344   6.008 -0.8731 -0.7262 -0.2277
19751SOL    HW262146   8.490   5.431   5.997  0.4023  1.0907 -0.7321
19752SOL     OW62147   4.243   6.982   1.310 -0.1221 -0.4389 -0.0626
19752SOL    HW162148   4.202   6.992   1.395  0.3786 -1.3198  0.2946
19752SOL    HW262149   4.316   7.044   1.310  0.3965 -1.0376  0.4877
19753SOL     OW62150   5.546   9.148   8.758  0.6166  0.1710 -0.2868
19753SOL    HW162151   5.524   9.097   8.836  0.2033  1.0975  0.2207
19753SOL    HW262152   5.586   9.228   8.792  1.1411  0.2475 -1.0617
19754SOL     OW62153   6.607   8.451   6.516  0.3065  0.1271  0.2551
19754SOL    HW162154   6.655   8.530   6.540  0.6364 -0.1098  0.3870
19754SOL    HW262155   6.627   8.389   6.585  0.8045 -0.3736 -0.3255
19755SOL     OW62156   5.926   5.668   7.722  0.2948  0.5305 -0.0740
19755SOL    HW162157   5.907   5.574   7.718  2.4365 -0.0141  1.1815
19755SOL    HW262158   5.922   5.698   7.631 -1.4405 -0.5215 -0.3826
19756SOL     OW62159   3.491   3.821   3.064  0.5241 -0.2068 -0.6690
19756SOL    HW162160   3.473   3.760   2.993 -1.3716 -0.5093  0.0055
19756SOL    HW262161   3.502   3.906   3.022 -0.5331 -0.3896 -1.3417
19757SOL     OW62162   0.267   7.183   3.934  0.0689  0.0029  0.1175
19757SOL    HW162163   0.222   7.103   3.961  1.5793 -0.7663  0.4911
19757SOL    HW262164   0.242   7.195   3.843 -1.8480  0.3138  0.6520
19758SOL     OW62165   8.405   7.817   8.456 -0.2126 -0.0312 -0.0152
19758SOL    HW162166   8.473   7.761   8.418  1.1376  1.2847  0.3743
19758SOL    HW262167   8.383   7.775   8.538 -0.0139 -0.5865 -0.2425
19759SOL     OW62168   0.881   0.707   8.765 -0.9762 -0.7057  0.0878
19759SOL    HW162169   0.917   0.794   8.778 -3.9185  0.8890 -1.2217
19759SOL    HW262170   0.930   0.650   8.824  0.0734  2.0861  2.0766
19760SOL     OW62171   4.802   8.105   5.649 -0.0178 -0.1283 -0.6333
19760SOL    HW162172   4.842   8.148   5.724 -3.3810  1.8922  0.2315
19760SOL    HW262173   4.722   8.156   5.632 -1.5713 -3.0158 -2.9587
19761SOL     OW62174   4.622   5.667   5.139  0.1452  0.2215  0.1427
19761SOL    HW162175   4.586   5.741   5.187  2.6075  1.2576  0.5320
19761SOL    HW262176   4.600   5.685   5.047  0.3464  1.2125  0.2847
19762SOL     OW62177   8.335   5.874   3.423  0.5789 -0.2406 -0.1428
19762SOL    HW162178   8.263   5.819   3.395  0.0202 -0.6190  1.8829
19762SOL    HW262179   8.345   5.856   3.517  0.6491  2.7654  0.5319
19763SOL     OW62180   5.677   3.300   6.861  0.3510  0.1802  0.0793
19763SOL    HW162181   5.628   3.236   6.809  0.3829 -0.0632  0.3479
19763SOL    HW262182   5.634   3.384   6.843  0.1051  0.0339 -0.0206
19764SOL     OW62183   6.988   5.843   8.269  0.3727  0.6062 -0.3454
19764SOL    HW162184   6.914   5.787   8.290  0.2743  0.6180 -0.6483
19764SOL    HW262185   6.956   5.932   8.283  0.5384  0.5892  0.1636
19765SOL     OW62186   7.295   0.435   9.054 -0.1613 -1.0316 -0.1603
19765SOL    HW162187   7.210   0.444   9.097 -0.7822  1.2544 -1.6748
19765SOL    HW262188   7.359   0.463   9.120 -0.6679 -1.6549  0.6084
19766SOL     OW62189   8.280   4.708   5.443  0.5527  0.1376 -0.5523
19766SOL    HW162190   8.209   4.657   5.483 -0.2207  0.8435 -0.9837
19766SOL    HW262191   8.333   4.738   5.517 -0.0132  0.2046 -0.1664
19767SOL     OW62192   6.174   8.320   7.612 -0.5928 -0.1393 -0.2032
19767SOL    HW162193   6.134   8.332   7.698 -0.8832  3.8282 -0.7093
19767SOL    HW262194   6.268   8.326   7.628 -0.6105 -0.2541 -0.0544
19768SOL     OW62195   8.162   9.100   2.500 -0.3401  0.3803  0.0721
19768SOL    HW162196   8.257   9.102   2.511 -0.4197  0.4479  0.7761
19768SOL    HW262197   8.150   9.076   2.408  0.3502 -1.6517  0.4540
19769SOL     OW62198   3.092   7.843   8.331  0.1197  0.3964 -0.8573
19769SOL    HW162199   3.184   7.843   8.307  0.2986  0.2599 -0.1925
19769SOL    HW262200   3.077   7.756   8.368 -0.1888  0.5381 -0.6418
19770SOL     OW62201   7.258   5.423   2.760 -0.4714  0.2487  0.4955
19770SOL    HW162202   7.312   5.465   2.694 -0.8296 -0.4412 -0.2454
19770SOL    HW262203   7.182   5.390   2.712 -0.4959 -0.7009  1.1592
19771SOL     OW62204   1.034   1.195   0.948 -0.2432 -0.3101  0.8196
19771SOL    HW162205   1.008   1.280   0.984  0.2039 -0.6059  1.8836
19771SOL    HW262206   0.964   1.174   0.886 -2.3136 -0.7684  3.1108
19772SOL     OW62207   6.019   1.359   8.859  0.1224 -0.8324 -0.2245
19772SOL    HW162208   6.023   1.407   8.776  1.4842 -0.3481  0.0884
19772SOL    HW262209   5.937   1.388   8.899  0.9625  1.4273  0.0308
19773SOL     OW62210   0.257   2.684   0.956 -0.1198 -0.4897  0.3794
19773SOL    HW162211   0.338   2.696   1.006  0.3202 -2.9291  0.3838
19773SOL    HW262212   0.202   2.631   1.013 -1.0303 -0.3285 -0.3381
19774SOL     OW62213   5.445   7.199   1.661  0.0563  0.6340 -0.3138
19774SOL    HW162214   5.463   7.293   1.655  3.0992  0.2157  0.5396
19774SOL    HW262215   5.459   7.166   1.572 -1.7624  1.0310 -0.7871
19775SOL     OW62216   1.458   8.233   4.865  0.2031  0.3607  0.4143
19775SOL    HW162217   1.394   8.176   4.909 -0.3655  1.5172  1.1427
19775SOL    HW262218   1.407   8.279   4.798  0.5256  0.4089  0.2043
19776SOL     OW62219   3.359   6.593   5.932  0.1699  0.2754  0.3681
19776SOL    HW162220   3.329   6.636   6.013 -1.4168 -2.6813  1.4972
19776SOL    HW262221   3.426   6.531   5.962 -0.5838 -1.0037 -0.5088
19777SOL     OW62222   1.168   1.711   0.730  0.0304  0.2346 -0.6780
19777SOL    HW162223   1.109   1.701   0.656 -1.6099 -0.8256  0.6854
19777SOL    HW262224   1.188   1.622   0.758 -0.2955  0.5881  0.7996
19778SOL     OW62225   2.571   1.671   0.592 -0.2061  0.6284  1.1580
19778SOL    HW162226   2.598   1.689   0.683  1.7935  1.8835  0.3782
19778SOL    HW262227   2.506   1.737   0.573  0.7163  1.5516  1.1212
19779SOL     OW62228   1.303   8.967   4.611 -0.3630  0.0145 -0.4008
19779SOL    HW162229   1.232   8.904   4.621 -1.0111  1.0149  1.9465
19779SOL    HW262230   1.337   8.951   4.523 -3.7182 -0.2652 -1.7867
19780SOL     OW62231   3.251   7.958   7.163  0.2579  0.6071  0.0330
19780SOL    HW162232   3.194   8.032   7.179  1.3524  1.8817 -1.6232
19780SOL    HW262233   3.294   7.978   7.080  1.5185 -1.2953  0.1537
19781SOL     OW62234   2.263   3.980   8.746  0.0348 -0.4881 -0.2299
19781SOL    HW162235   2.288   3.935   8.666 -0.5399 -1.6953  0.2574
19781SOL    HW262236   2.344   3.987   8.796  0.4279  0.4073 -0.9619
19782SOL     OW62237   3.852   1.923   6.911 -0.2252  0.1305  0.3064
19782SOL    HW162238   3.896   2.002   6.880 -0.4608  0.0094 -0.3463
19782SOL    HW262239   3.923   1.868   6.944 -0.2063  1.3144  2.4131
19783SOL     OW62240   8.805   3.904   3.353 -0.1507  0.0378 -0.1030
19783SOL    HW162241   8.800   3.875   3.444 -0.4643  1.1492  0.2562
19783SOL    HW262242   8.775   3.829   3.302  4.1190 -2.2323  0.3194
19784SOL     OW62243   2.977   6.522   1.381 -0.1417 -0.1215  0.0649
19784SOL    HW162244   3.061   6.504   1.339 -0.5200  1.7218 -1.6204
19784SOL    HW262245   2.989   6.495   1.472  1.5160 -1.9831 -0.6439
19785SOL     OW62246   6.146   0.763   2.114  0.4864  0.0441  0.3336
19785SOL    HW162247   6.065   0.814   2.122 -1.2086 -2.7030  2.4234
19785SOL    HW262248   6.216   0.827   2.130 -1.3406  2.1545  0.4276
19786SOL     OW62249   3.525   7.173   3.814 -0.3547 -0.6517  0.3054
19786SOL    HW162250   3.508   7.130   3.898  0.8439  0.0237  0.9112
19786SOL    HW262251   3.620   7.184   3.811 -0.2584 -1.5004 -1.5725
19787SOL     OW62252   5.857   3.111   2.774 -0.4205 -0.4161 -0.7654
19787SOL    HW162253   5.778   3.057   2.772  0.0296 -1.0588 -1.7131
19787SOL    HW262254   5.852   3.158   2.857 -2.0643 -0.0433 -1.0531
19788SOL     OW62255   9.082   3.482   8.662  0.1046 -0.2252 -0.1440
19788SOL    HW162256   9.071   3.570   8.701 -1.2160 -0.6822  0.5744
19788SOL    HW262257   9.104   3.499   8.571  1.1508  0.8671  0.2837
19789SOL     OW62258   0.549   1.018   0.521 -0.2126 -0.4975 -0.4454
19789SOL    HW162259   0.626   0.995   0.573 -0.0846  1.2049  0.1710
19789SOL    HW262260   0.581   1.020   0.430  1.0340  2.1250 -0.0357
19790SOL     OW62261   4.860   2.939   0.782  0.4098  0.4026 -0.1477
19790SOL    HW162262   4.844   2.982   0.698 -2.4592 -0.8768 -0.3625
19790SOL    HW262263   4.830   2.849   0.770 -1.3718  0.4987  2.5808
19791SOL     OW62264   2.150   0.023   6.992  0.0752 -0.5973 -0.1189
19791SOL    HW162265   2.103  -0.054   7.024  0.3825 -1.2187 -1.1037
19791SOL    HW262266   2.082   0.089   6.979  0.1506  0.4922  3.8356
19792SOL     OW62267   1.704   1.699   1.562 -0.1804  0.0479 -0.5778
19792SOL    HW162268   1.686   1.732   1.650  1.6315 -0.6748  0.1205
19792SOL    HW262269   1.646   1.749   1.505  1.4003  3.5129  0.5727
19793SOL     OW62270   1.072   4.701   3.869 -0.1111 -0.7488 -0.4056
19793SOL    HW162271   1.124   4.635   3.824 -0.7097 -1.5222  0.0234
19793SOL    HW262272   1.065   4.773   3.806  1.1462 -0.7768 -0.6108
19794SOL     OW62273   7.676   6.807   0.836 -0.6566  0.5812  0.1966
19794SOL    HW162274   7.667   6.783   0.928 -1.0186  1.3797  0.3763
19794SOL    HW262275   7.755   6.861   0.833 -0.6377  0.5446  0.0348
19795SOL     OW62276   2.444   3.139   6.528  0.8691  0.2531 -0.2169
19795SOL    HW162277   2.367   3.140   6.586  0.5228  0.4802 -0.6785
19795SOL    HW262278   2.470   3.047   6.525  0.3144  0.1011 -0.4563
19796SOL     OW62279   7.566   5.177   1.564 -0.0033 -0.0817  0.0952
19796SOL    HW162280   7.505   5.107   1.589  0.2868 -0.3771 -0.0276
19796SOL    HW262281   7.510   5.254   1.553 -0.4771 -0.5357 -0.8101
19797SOL     OW62282   6.618   6.150   4.678  0.1835  0.8102 -0.2433
19797SOL    HW162283   6.694   6.095   4.658  0.8566  1.4677  0.4338
19797SOL    HW262284   6.567   6.150   4.597 -1.0611 -2.6346  0.3519
19798SOL     OW62285   2.121   4.582   8.365  0.3633  0.1059  0.5147
19798SOL    HW162286   2.053   4.612   8.304  0.7961  2.3792  1.0649
19798SOL    HW262287   2.143   4.660   8.416  3.6081 -0.4803  0.1739
19799SOL     OW62288   5.768   0.343   0.942  0.4350 -0.1077  0.5647
19799SOL    HW162289   5.820   0.331   0.862  0.9754 -0.3236  0.9419
19799SOL    HW262290   5.805   0.422   0.982 -0.4178  0.5134  0.1607
19800SOL     OW62291   1.973   8.310   4.163 -0.1080 -0.5204 -0.8382
19800SOL    HW162292   2.007   8.346   4.245  0.7185  1.0001 -1.7886
19800SOL    HW262293   1.968   8.216   4.178 -1.7232 -0.1312  1.5569
19801SOL     OW62294   7.055   2.829   4.082 -0.3571 -0.0515 -0.2088
19801SOL    HW162295   6.977   2.862   4.127 -1.2418 -0.6662 -1.2398
19801SOL    HW262296   7.115   2.805   4.153 -0.6438  1.4705  0.5797
19802SOL     OW62297   6.751   8.717   4.574  0.4902 -1.0399  0.3628
19802SOL    HW162298   6.800   8.651   4.526  1.7923  0.4970 -0.5484
19802SOL    HW262299   6.722   8.779   4.506  0.7362  0.1799  1.3240
19803SOL     OW62300   5.581   4.040   5.988 -0.3139  0.0466 -0.4068
19803SOL    HW162301   5.644   3.973   5.961 -2.2927 -1.2484 -2.1803
19803SOL    HW262302   5.633   4.119   6.000  2.0720 -1.6145  1.2551
19804SOL     OW62303   7.134   2.806   2.719  0.1153  0.1828 -0.2357
19804SOL    HW162304   7.054   2.841   2.758 -0.0100  0.3928 -0.6672
19804SOL    HW262305   7.109   2.786   2.628  1.0881  2.2433 -1.0260
19805SOL     OW62306   1.827   8.099   7.727 -0.1080  0.1207 -0.0007
19805SOL    HW162307   1.864   8.090   7.814 -1.7364 -0.8391  0.6346
19805SOL    HW262308   1.849   8.018   7.681 -0.7752 -0.1548  0.1471
19806SOL     OW62309   8.545   7.437   6.141  0.8396  0.2375  0.1456
19806SOL    HW162310   8.478   7.488   6.186  1.2243  1.3907 -0.5184
19806SOL    HW262311   8.516   7.435   6.050  0.0471 -2.0926  0.3939
19807SOL     OW62312   8.110   5.476   3.542 -0.1276 -0.1401 -0.2401
19807SOL    HW162313   8.172   5.529   3.493  0.3836  0.8399  1.3707
19807SOL    HW262314   8.027   5.485   3.495  0.0685  1.7043 -0.3042
19808SOL     OW62315   3.751   7.526   8.407  0.1555 -0.1350  0.1227
19808SOL    HW162316   3.661   7.559   8.408  0.5143  0.8873  0.7824
19808SOL    HW262317   3.788   7.556   8.324 -0.0847 -0.4927 -0.1153
19809SOL     OW62318   1.485   2.733   1.359  0.2993  0.3740 -1.1667
19809SOL    HW162319   1.413   2.702   1.415  2.0839 -0.7980  0.6616
19809SOL    HW262320   1.471   2.827   1.350 -1.3795  0.1828 -0.7647
19810SOL     OW62321   4.539   0.944   4.826  0.2259  0.3801  0.0393
19810SOL    HW162322   4.609   0.953   4.761  0.9724  1.0119  0.8935
19810SOL    HW262323   4.476   1.013   4.804 -0.0056 -0.0265 -0.5826
19811SOL     OW62324   4.636   1.326   0.611  0.8698 -0.3064 -0.2802
19811SOL    HW162325   4.668   1.363   0.693  0.0085 -1.2759  0.5200
19811SOL    HW262326   4.708   1.337   0.549  2.1540 -1.0283  1.0459
19812SOL     OW62327   4.756   0.620   8.330  0.4271 -0.1820  0.4482
19812SOL    HW162328   4.698   0.548   8.305  0.0350  0.7271 -1.4843
19812SOL    HW262329   4.840   0.577   8.350 -0.0141 -1.2385  0.0959
19813SOL     OW62330   6.621   3.207   0.950  0.2349  0.7016 -0.8498
19813SOL    HW162331   6.649   3.221   0.859  0.0665 -0.1986 -1.0452
19813SOL    HW262332   6.669   3.129   0.978  1.8351  2.0845  0.5140
19814SOL     OW62333   4.702   8.239   6.196 -0.4177 -0.3989 -0.4174
19814SOL    HW162334   4.650   8.264   6.120  0.0306 -0.2633 -0.6866
19814SOL    HW262335   4.645   8.181   6.246 -0.6661 -0.6097 -0.9330
19815SOL     OW62336   2.668   5.155   4.908 -0.3676  0.3807  0.3508
19815SOL    HW162337   2.617   5.075   4.899 -0.1392 -0.0652  2.4692
19815SOL    HW262338   2.758   5.125   4.921 -0.0374  1.0489 -0.3369
19816SOL     OW62339   4.491   4.087   0.983 -0.2244  0.2316  0.4977
19816SOL    HW162340   4.431   4.154   0.951 -2.1091 -1.4579  0.2509
19816SOL    HW262341   4.539   4.059   0.905 -0.5779  0.2011  0.2891
19817SOL     OW62342   8.890   0.623   6.127 -0.2455  0.0924  0.3559
19817SOL    HW162343   8.868   0.541   6.171  1.4693  0.3653  1.8386
19817SOL    HW262344   8.833   0.688   6.169 -2.8703 -0.4817 -2.0007
19818SOL     OW62345   1.372   2.710   2.859  0.0798  0.1344  0.0686
19818SOL    HW162346   1.368   2.700   2.954  0.2228  0.0412  0.0661
19818SOL    HW262347   1.452   2.663   2.834  0.0035  0.0975 -0.1052
19819SOL     OW62348   5.690   1.574   5.840  0.0348 -0.4146 -0.0610
19819SOL    HW162349   5.685   1.583   5.935 -1.2534  0.4857 -0.1841
19819SOL    HW262350   5.678   1.663   5.807 -0.6242 -0.8624 -1.0857
19820SOL     OW62351   2.490   3.909   8.555 -0.0808 -0.0789 -0.2349
19820SOL    HW162352   2.423   3.960   8.508 -0.8894 -1.0861 -0.2026
19820SOL    HW262353   2.475   3.819   8.528  0.8087 -0.4118  0.3482
19821SOL     OW62354   9.038   7.468   6.372 -0.3227 -0.0879 -0.4936
19821SOL    HW162355   9.044   7.458   6.278 -1.5758  0.5676 -0.6628
19821SOL    HW262356   8.963   7.525   6.386  0.7501  1.0996  0.8282
19822SOL     OW62357   7.172   1.413   8.037 -0.5071 -0.0970  0.2404
19822SOL    HW162358   7.263   1.432   8.061 -0.1342  0.6326 -1.5897
19822SOL    HW262359   7.122   1.487   8.071 -0.3232 -0.1152  0.5619
19823SOL     OW62360   2.582   2.179   5.474  0.0124 -0.1514  0.2489
19823SOL    HW162361   2.545   2.258   5.434  0.1100 -0.1491  0.1628
19823SOL    HW262362   2.574   2.112   5.407 -0.2541 -0.2668  0.3943
19824SOL     OW62363   3.347   5.105   2.432 -0.1443 -0.1169  0.2523
19824SOL    HW162364   3.287   5.178   2.423 -2.3568 -1.6423  1.6214
19824SOL    HW262365   3.415   5.136   2.493 -1.6943  0.4654  1.7544
19825SOL     OW62366   2.673   6.062   1.688 -0.0662 -0.3151 -0.2920
19825SOL    HW162367   2.625   5.980   1.694  1.1831 -1.0422  0.2191
19825SOL    HW262368   2.763   6.036   1.668  1.2785  0.5921  3.7026
19826SOL     OW62369   3.032   4.896   1.660 -0.0023 -0.0014 -0.3869
19826SOL    HW162370   3.127   4.885   1.665 -0.2190 -1.8809  0.2402
19826SOL    HW262371   2.996   4.831   1.721 -1.7115  0.5748 -0.7028
19827SOL     OW62372   8.286   6.926   6.910 -0.0856 -0.3620 -0.3909
19827SOL    HW162373   8.217   6.957   6.851 -0.5713  0.0093  0.3481
19827SOL    HW262374   8.240   6.909   6.993  0.9923  1.7044  0.7046
19828SOL     OW62375   5.998   3.639   4.086  0.3530  0.5648 -0.1584
19828SOL    HW162376   5.986   3.589   4.005  0.6802 -0.5725  0.4759
19828SOL    HW262377   5.913   3.679   4.103 -0.1156 -0.3448 -0.3163
19829SOL     OW62378   2.482   5.056   3.390  0.3414 -0.3419  0.1107
19829SOL    HW162379   2.427   5.055   3.467 -0.0632  0.2345 -0.1649
19829SOL    HW262380   2.425   5.085   3.319  0.7534 -0.6723 -0.3707
19830SOL     OW62381   8.772   5.858   3.683  0.0389  0.0148 -0.0916
19830SOL    HW162382   8.836   5.795   3.715 -0.8423  0.7085  3.5353
19830SOL    HW262383   8.824   5.930   3.647  1.1760 -0.7563 -0.0338
19831SOL     OW62384   7.219   4.323   5.575 -0.0150 -0.0959 -0.6106
19831SOL    HW162385   7.268   4.314   5.493 -2.1575  0.1116 -1.9916
19831SOL    HW262386   7.144   4.264   5.564  0.6837 -1.6403  2.0815
19832SOL     OW62387   3.194   7.787   3.612  0.6996 -1.0040  0.4797
19832SOL    HW162388   3.234   7.701   3.626  2.1960 -0.1722  1.5204
19832SOL    HW262389   3.263   7.850   3.631  0.2009  0.4485 -2.0181
19833SOL     OW62390   7.564   4.068   2.321  0.0057 -0.1946 -0.2338
19833SOL    HW162391   7.631   4.037   2.261  1.3372  1.6104  0.2357
19833SOL    HW262392   7.494   4.101   2.264 -0.1438 -1.3312 -0.7299
19834SOL     OW62393   3.605   2.763   4.341 -0.0752  0.3817 -0.0763
19834SOL    HW162394   3.596   2.669   4.355  1.9082 -0.2500 -2.4103
19834SOL    HW262395   3.518   2.792   4.312 -0.4267 -0.9557 -0.4033
19835SOL     OW62396   2.545   8.310   0.499 -0.1923 -0.2318 -0.0900
19835SOL    HW162397   2.474   8.293   0.561  1.1057 -0.8729  1.2746
19835SOL    HW262398   2.511   8.378   0.441 -2.4841 -1.5614 -0.4485
19836SOL     OW62399   4.517   3.251   9.259 -0.0710  0.2413  0.3016
19836SOL    HW162400   4.502   3.311   9.186  0.7072  0.9631  0.7113
19836SOL    HW262401   4.611   3.233   9.256 -0.4474 -1.8127 -0.4478
19837SOL     OW62402   8.582   0.322   0.444 -0.3341 -0.5292  0.1904
19837SOL    HW162403   8.641   0.255   0.411  1.8208  0.8209  1.0877
19837SOL    HW262404   8.626   0.357   0.521 -2.1740  0.7976  0.7142
19838SOL     OW62405   1.671   8.331   0.703  0.0927 -0.1435  0.1042
19838SOL    HW162406   1.645   8.250   0.748  0.0153  0.0340  0.3883
19838SOL    HW262407   1.593   8.357   0.654 -0.3445  0.4643  1.0711
19839SOL     OW62408   3.173   4.176   2.903  0.0677 -0.1120 -0.1306
19839SOL    HW162409   3.188   4.118   2.828  0.4919  0.1908 -0.2807
19839SOL    HW262410   3.256   4.177   2.950 -0.3812 -0.7942  0.6969
19840SOL     OW62411   4.022   7.952   4.930 -0.0253 -0.0920 -0.4732
19840SOL    HW162412   4.033   8.019   4.863 -2.2086  1.9968  1.0529
19840SOL    HW262413   3.955   7.894   4.895 -1.1282  0.9661 -0.1939
19841SOL     OW62414   4.652   3.109   3.813  0.9637 -0.0591 -0.4375
19841SOL    HW162415   4.642   3.199   3.845  1.7471 -0.5586  1.3419
19841SOL    HW262416   4.701   3.117   3.732  0.0193  1.1971 -0.9074
19842SOL     OW62417   4.128   7.979   7.582 -0.2423 -0.0466 -0.2903
19842SOL    HW162418   4.060   7.977   7.650 -0.9261  2.8141 -0.7165
19842SOL    HW262419   4.210   7.968   7.629 -0.7430  1.2757  0.9864
19843SOL     OW62420   0.952   2.948   4.352  0.3147  0.4793  0.1338
19843SOL    HW162421   0.979   2.889   4.422  0.5328  1.3930  0.8441
19843SOL    HW262422   0.959   2.896   4.272  0.0231 -0.5894  0.7919
19844SOL     OW62423   6.245   4.298   1.572  0.4348  0.6471 -0.4788
19844SOL    HW162424   6.228   4.306   1.666  0.0015  1.5152 -0.6130
19844SOL    HW262425   6.175   4.241   1.540  0.2515  0.8037 -0.3602
19845SOL     OW62426   4.381   8.864   5.981  0.0022  0.2896  0.1613
19845SOL    HW162427   4.370   8.936   6.043 -0.0406 -0.6595  1.2701
19845SOL    HW262428   4.291   8.836   5.961 -0.0711  1.4961 -1.4654
19846SOL     OW62429   6.834   6.839   7.067  0.4257  0.0644 -0.3012
19846SOL    HW162430   6.790   6.795   7.139  0.8953  2.9240  1.8754
19846SOL    HW262431   6.927   6.834   7.090  0.5111  1.7849 -0.1962
19847SOL     OW62432   7.411   2.764   8.642  0.7871  0.0650 -0.0143
19847SOL    HW162433   7.345   2.756   8.573  1.3066 -0.7068 -0.4391
19847SOL    HW262434   7.363   2.797   8.718  0.0385  0.0937 -0.4923
19848SOL     OW62435   3.847   6.135   5.067  0.7686  0.1122  0.5703
19848SOL    HW162436   3.893   6.059   5.104  0.9757 -1.2077 -2.1516
19848SOL    HW262437   3.910   6.174   5.006 -0.9635 -0.5963 -1.8246
19849SOL     OW62438   2.771   6.834   7.442  0.2192  0.6120  0.4025
19849SOL    HW162439   2.737   6.860   7.356  0.9286 -0.1547 -0.1266
19849SOL    HW262440   2.854   6.881   7.450  1.1300 -0.8034 -0.2250
19850SOL     OW62441   8.628   9.190   2.907 -0.2983 -1.0825  0.1217
19850SOL    HW162442   8.628   9.283   2.884 -0.7364 -1.2767 -0.6945
19850SOL    HW262443   8.718   9.161   2.892 -0.5341 -1.1672 -1.2477
19851SOL     OW62444   7.296   4.491   8.741  0.1801  0.1631  0.1837
19851SOL    HW162445   7.203   4.508   8.760  0.5085  0.3092  1.7394
19851SOL    HW262446   7.338   4.577   8.749  0.5807 -0.0396  0.2647
19852SOL     OW62447   4.336   6.738   1.556 -0.6940 -0.2712 -0.1654
19852SOL    HW162448   4.295   6.657   1.584  0.3575 -1.1604 -1.1285
19852SOL    HW262449   4.287   6.807   1.602 -2.0893 -1.3823  0.0675
19853SOL     OW62450   0.562   2.886   2.989  0.3319 -0.3547  0.4201
19853SOL    HW162451   0.544   2.946   2.916  0.9723 -0.4992  0.1415
19853SOL    HW262452   0.517   2.926   3.064  2.9608  2.0012  0.9045
19854SOL     OW62453   6.090   1.313   1.152 -0.0201 -0.2358 -0.4324
19854SOL    HW162454   6.114   1.295   1.243 -0.0974  0.0466 -0.3547
19854SOL    HW262455   5.996   1.332   1.156  0.5652  3.1021 -0.0499
19855SOL     OW62456   7.893   8.567   1.836 -0.1675 -0.2533 -0.0414
19855SOL    HW162457   7.952   8.501   1.870 -0.3204  0.1148  0.9783
19855SOL    HW262458   7.805   8.533   1.854 -0.2543 -0.1672 -0.2923
19856SOL     OW62459   7.674   0.188   9.000  0.6979  0.4089 -0.5942
19856SOL    HW162460   7.663   0.094   8.987  2.7575  0.2299 -1.3702
19856SOL    HW262461   7.644   0.227   8.918 -1.6288  0.5953  0.2936
19857SOL     OW62462   1.306   7.250   1.470 -0.5017 -0.0237 -0.6394
19857SOL    HW162463   1.327   7.332   1.515  0.9789 -0.5380 -0.3233
19857SOL    HW262464   1.241   7.275   1.405 -2.6951  0.7728  1.6761
19858SOL     OW62465   6.784   2.795   3.339  0.3033 -0.5085 -0.0721
19858SOL    HW162466   6.779   2.836   3.252  1.6003 -0.6794 -0.2569
19858SOL    HW262467   6.759   2.704   3.324  3.5104 -1.3877 -0.9700
19859SOL     OW62468   7.256   6.800   8.721 -0.3205 -0.1987 -0.5063
19859SOL    HW162469   7.339   6.767   8.755 -1.2073  0.7014  2.9703
19859SOL    HW262470   7.204   6.722   8.704  0.2636 -0.7200  0.0710
19860SOL     OW62471   7.275   7.041   4.856 -0.0067  0.2151  0.0574
19860SOL    HW162472   7.349   7.017   4.800 -0.0510 -0.1121  0.1344
19860SOL    HW262473   7.315   7.056   4.942  0.0260  0.4493 -0.0003
19861SOL     OW62474   7.493   6.171   1.498  0.2993 -0.1341  0.3343
19861SOL    HW162475   7.563   6.203   1.555  1.1212 -0.8535 -0.2355
19861SOL    HW262476   7.499   6.076   1.506 -1.0488 -0.1972  0.7689
19862SOL     OW62477   3.676   3.023   4.044  0.1052 -0.0044 -0.8986
19862SOL    HW162478   3.670   3.117   4.030  1.5231  0.1744 -0.4224
19862SOL    HW262479   3.682   3.013   4.139 -0.5614 -0.6221 -0.9104
19863SOL     OW62480   0.420   5.668   4.688  0.0801  0.6258  0.5326
19863SOL    HW162481   0.355   5.717   4.739  1.1559  1.0659  1.5121
19863SOL    HW262482   0.448   5.598   4.747 -1.9697 -1.7138 -1.0932
19864SOL     OW62483   0.946   9.016   0.259 -0.1911  0.9100  0.3481
19864SOL    HW162484   0.904   9.077   0.318 -0.8296 -0.2076  1.0778
19864SOL    HW262485   0.997   8.958   0.316 -0.8397 -0.2034 -0.1781
19865SOL     OW62486   6.450   5.877   2.656 -0.1230  0.7804  0.3033
19865SOL    HW162487   6.497   5.808   2.609  1.6645  0.9256  1.7776
19865SOL    HW262488   6.379   5.831   2.701  0.6185 -0.0029  0.6910
19866SOL     OW62489   1.467   0.441   2.136 -0.0267  0.2447 -0.1460
19866SOL    HW162490   1.393   0.385   2.113  0.5982 -0.1708 -1.2423
19866SOL    HW262491   1.533   0.422   2.069  0.5760  1.5697  0.0353
19867SOL     OW62492   4.153   0.311   8.343 -0.1638 -0.1141  0.1459
19867SOL    HW162493   4.082   0.365   8.378  0.4565  2.2830 -1.9641
19867SOL    HW262494   4.225   0.324   8.404  0.1051  1.9261 -0.5200
19868SOL     OW62495   7.660   7.201   3.890 -0.0440  0.1655  0.1541
19868SOL    HW162496   7.650   7.271   3.825 -1.8555 -0.6904 -0.5558
19868SOL    HW262497   7.585   7.212   3.948 -0.3428 -1.1486  0.0467
19869SOL     OW62498   0.399   6.764   5.530 -0.3661 -0.1337 -0.3383
19869SOL    HW162499   0.424   6.777   5.439 -2.5006 -0.1597 -0.9925
19869SOL    HW262500   0.304   6.753   5.527 -0.5789  0.5546  1.9706
19870SOL     OW62501   8.411   7.983   5.946 -0.1310  0.7061  0.3828
19870SOL    HW162502   8.454   7.986   6.031  1.0353 -1.6183 -0.0363
19870SOL    HW262503   8.354   7.906   5.950 -0.4208  0.8299 -0.7782
19871SOL     OW62504   8.248   0.687   6.047 -0.6104  0.6347  0.0753
19871SOL    HW162505   8.191   0.613   6.023 -1.7388  1.1372  1.0804
19871SOL    HW262506   8.287   0.715   5.965 -0.1596 -1.0774 -0.3236
19872SOL     OW62507   3.497   1.731   7.846 -0.2080  0.1869 -0.1373
19872SOL    HW162508   3.406   1.760   7.843 -0.7077 -1.3527 -1.3929
19872SOL    HW262509   3.504   1.681   7.927 -0.8596 -0.7841 -0.6626
19873SOL     OW62510   2.003   1.034   5.210 -0.1026 -0.0044  0.6738
19873SOL    HW162511   1.980   0.963   5.150 -0.7351  1.2029 -0.5970
19873SOL    HW262512   2.024   0.991   5.292 -0.0295 -1.6804 -0.1791
19874SOL     OW62513   4.616   1.034   5.620  0.4070 -0.2485  0.5966
19874SOL    HW162514   4.578   1.019   5.707  2.9160 -0.6052  1.7136
19874SOL    HW262515   4.709   1.045   5.636  0.6835  2.0958 -1.8166
19875SOL     OW62516   2.823   6.621   2.011  0.0234 -0.3695  0.0932
19875SOL    HW162517   2.734   6.653   1.994  0.4909  0.5700 -0.6987
19875SOL    HW262518   2.879   6.680   1.960  1.2367  0.2015  1.9944
19876SOL     OW62519   3.523   0.290   1.001  1.1584 -0.1038 -0.3009
19876SOL    HW162520   3.460   0.305   0.930 -0.1571  1.0612  1.0611
19876SOL    HW262521   3.498   0.207   1.039  0.2264  0.4997  0.4295
19877SOL     OW62522   5.375   6.187   6.339  0.5125 -0.3723 -0.0397
19877SOL    HW162523   5.286   6.158   6.322  0.4321  0.9319 -2.2578
19877SOL    HW262524   5.401   6.141   6.418 -2.0414 -0.9403  0.5398
19878SOL     OW62525   2.053   6.699   8.140 -0.1501  0.7905  0.1501
19878SOL    HW162526   1.973   6.667   8.098  0.2369 -1.5199  0.9918
19878SOL    HW262527   2.053   6.657   8.226  2.3561 -0.0112 -0.1494
19879SOL     OW62528   2.069   5.785   7.504  0.2745 -0.0204  0.0949
19879SOL    HW162529   2.028   5.866   7.477 -0.2900 -0.2943  0.1252
19879SOL    HW262530   2.155   5.811   7.537  0.2768  0.5080 -0.3241
19880SOL     OW62531   9.118   3.141   8.902  0.0531 -0.4875 -0.5380
19880SOL    HW162532   9.071   3.083   8.963 -0.8780  1.2563  0.4726
19880SOL    HW262533   9.051   3.167   8.839  0.4360 -0.3797 -0.9016
19881SOL     OW62534   6.071   7.718   7.986 -0.3284  0.0265 -0.0439
19881SOL    HW162535   6.159   7.757   7.985  0.2295 -1.1984 -0.9674
19881SOL    HW262536   6.073   7.657   8.060 -0.2748 -0.2629 -0.2817
19882SOL     OW62537   3.057   7.272   1.773 -0.0435 -0.2897  0.6345
19882SOL    HW162538   3.058   7.362   1.805  0.0766 -0.5711  1.4497
19882SOL    HW262539   3.028   7.279   1.682  0.9502  0.6681  0.3697
19883SOL     OW62540   8.301   6.700   4.670 -0.1130 -0.4993 -0.3436
19883SOL    HW162541   8.224   6.749   4.642 -0.4820  0.5643  2.2285
19883SOL    HW262542   8.266   6.626   4.720  0.3912  1.0844  2.5979
19884SOL     OW62543   3.196   8.245   5.579 -0.3179 -0.2332 -0.2628
19884SOL    HW162544   3.257   8.289   5.519 -0.2179  0.7544  0.5334
19884SOL    HW262545   3.125   8.309   5.592 -1.7720 -1.5203 -1.5034
19885SOL     OW62546   3.369   4.155   5.538  0.0539 -0.7620 -0.1317
19885SOL    HW162547   3.371   4.250   5.527  0.1457 -0.9027 -1.5548
19885SOL    HW262548   3.462   4.129   5.539  0.0453 -0.7878  0.8691
19886SOL     OW62549   0.633   2.893   0.668 -0.0162  0.0567 -0.1700
19886SOL    HW162550   0.599   2.853   0.748 -1.6266  0.9648 -0.3710
19886SOL    HW262551   0.578   2.970   0.654  0.6007  0.2363 -1.8472
19887SOL     OW62552   5.786   5.472   8.143 -0.0289 -0.7143 -0.2061
19887SOL    HW162553   5.853   5.525   8.185  0.2085 -1.3057  0.1747
19887SOL    HW262554   5.764   5.520   8.063  0.4401 -0.2334 -0.0526
19888SOL     OW62555   7.165   4.221   5.099 -0.4590  0.5730  0.1688
19888SOL    HW162556   7.156   4.126   5.094  0.6564  0.4835 -0.5880
19888SOL    HW262557   7.109   4.247   5.172 -0.7603 -0.6637  0.4001
19889SOL     OW62558   0.630   5.045   5.474 -0.1416 -0.1146  0.1925
19889SOL    HW162559   0.646   5.062   5.566 -1.3089  1.2555  0.1698
19889SOL    HW262560   0.625   5.131   5.433 -3.0976 -0.5067 -0.5126
19890SOL     OW62561   6.108   1.544   5.067 -0.1510 -0.4906  0.3378
19890SOL    HW162562   6.143   1.478   5.126 -0.0734 -1.9838 -1.3195
19890SOL    HW262563   6.181   1.606   5.055  0.4149 -1.1406  0.3981
19891SOL     OW62564   3.556   6.940   1.038  0.4576 -0.1369  0.4468
19891SOL    HW162565   3.483   6.972   0.985  0.0400 -1.0291  0.4644
19891SOL    HW262566   3.528   6.956   1.129  0.5820  0.1371  0.4388
19892SOL     OW62567   1.079   8.561   7.901 -0.3568 -0.3531  0.0809
19892SOL    HW162568   1.174   8.569   7.895 -0.4787  0.8514 -0.4308
19892SOL    HW262569   1.055   8.611   7.979 -0.5510 -0.9058  0.3814
19893SOL     OW62570   9.172   6.480   5.385 -0.2340  0.6395  0.1369
19893SOL    HW162571   9.118   6.559   5.395 -1.7051  0.1767 -2.9278
19893SOL    HW262572   9.209   6.488   5.297 -0.7722 -2.2406 -0.4537
19894SOL     OW62573   4.164   2.627   2.712  0.0420  0.8035  0.8167
19894SOL    HW162574   4.108   2.672   2.776 -0.4064 -0.2325  1.1758
19894SOL    HW262575   4.161   2.535   2.738  1.4627  0.6500  0.4839
19895SOL     OW62576   1.113   1.663   4.095  0.1510 -0.5710 -0.2061
19895SOL    HW162577   1.123   1.591   4.033  0.5221 -0.7250  0.0246
19895SOL    HW262578   1.160   1.736   4.055 -1.6077  0.0535 -1.2162
19896SOL     OW62579   6.720   8.422   0.970  0.0560  0.1294  0.7466
19896SOL    HW162580   6.631   8.438   0.939  0.3034  2.3716  1.0109
19896SOL    HW262581   6.717   8.336   1.012 -2.0150  0.2319  0.8768
19897SOL     OW62582   0.550   4.297   5.177 -0.0558 -0.7327  0.0070
19897SOL    HW162583   0.509   4.276   5.261 -0.2453  0.6797  0.2991
19897SOL    HW262584   0.481   4.338   5.126  1.1170  2.6394  0.8850
19898SOL     OW62585   5.576   1.495   6.148  0.0469 -0.1769  0.4441
19898SOL    HW162586   5.601   1.487   6.240 -0.4774  0.6238  0.6772
19898SOL    HW262587   5.483   1.519   6.151 -0.5476 -2.2326 -0.3622
19899SOL     OW62588   6.944   7.143   1.260 -0.8235 -0.0176  0.1476
19899SOL    HW162589   6.963   7.064   1.208 -0.0944 -0.2985  0.8279
19899SOL    HW262590   7.007   7.140   1.332  0.0551  1.8373 -0.4932
19900SOL     OW62591   1.973   2.721   6.542 -0.3510  0.3727 -0.1907
19900SOL    HW162592   1.977   2.676   6.626 -1.0237 -0.0359 -0.3728
19900SOL    HW262593   2.057   2.767   6.536 -0.3257  0.4634  0.7309
19901SOL     OW62594   1.880   1.791   6.023  0.1688  0.1604 -0.5655
19901SOL    HW162595   1.788   1.769   6.017 -0.5403  2.8439 -1.1364
19901SOL    HW262596   1.902   1.781   6.115 -1.0871  0.7266 -0.1806
19902SOL     OW62597   2.965   7.680   2.950 -0.0455 -0.0006  0.4454
19902SOL    HW162598   2.985   7.773   2.960 -1.7925  0.3782  0.7816
19902SOL    HW262599   2.870   7.677   2.941  0.2151 -1.3352 -4.2964
19903SOL     OW62600   8.119   7.717   9.147 -0.1688 -0.5589  0.0044
19903SOL    HW162601   8.063   7.714   9.069  2.4552 -1.6506 -1.9889
19903SOL    HW262602   8.138   7.810   9.160 -1.3171 -0.2961 -0.0898
19904SOL     OW62603   2.122   4.120   8.939 -0.1172 -0.3349  0.1307
19904SOL    HW162604   2.146   4.210   8.961  0.0704 -0.7911  1.9497
19904SOL    HW262605   2.177   4.098   8.864  1.4348  0.3586  1.0198
19905SOL     OW62606   7.583   2.331   2.201  0.2526  0.0311 -0.1450
19905SOL    HW162607   7.553   2.388   2.271 -0.7457 -1.7841  0.9766
19905SOL    HW262608   7.522   2.346   2.129  0.2459  0.6393 -0.0165
19906SOL     OW62609   1.518   1.163   7.839  0.2014 -0.0799 -0.1926
19906SOL    HW162610   1.446   1.200   7.889 -1.6898 -2.8087 -0.6637
19906SOL    HW262611   1.508   1.199   7.751 -2.6146 -2.6478 -1.0923
19907SOL     OW62612   6.627   3.654   1.784  0.4080 -0.1012  0.3863
19907SOL    HW162613   6.711   3.635   1.741 -0.3579  0.2317 -1.3619
19907SOL    HW262614   6.648   3.662   1.876  2.0322 -1.6785  0.2078
19908SOL     OW62615   5.783   6.135   8.344  0.2464 -0.0792 -0.3330
19908SOL    HW162616   5.712   6.142   8.408 -0.2228  1.8136 -0.9988
19908SOL    HW262617   5.852   6.193   8.378  0.8170 -0.6145 -0.5458
19909SOL     OW62618   3.903   2.062   6.235 -0.1513 -0.3449 -0.3376
19909SOL    HW162619   3.857   2.039   6.154  1.2528 -2.0006 -0.7420
19909SOL    HW262620   3.840   2.113   6.285 -0.8230  1.3487 -2.7580
19910SOL     OW62621   4.380   8.425   6.416  0.0796 -0.6256 -0.0137
19910SOL    HW162622   4.436   8.347   6.414  1.3521  0.2657 -1.0768
19910SOL    HW262623   4.392   8.465   6.330  0.6609  1.5504  1.0165
19911SOL     OW62624   5.714   1.493   1.243 -0.3750 -0.5457 -0.0469
19911SOL    HW162625   5.740   1.501   1.334  0.8540  0.4476 -0.4666
19911SOL    HW262626   5.781   1.437   1.203 -0.6120 -0.5378 -0.4651
19912SOL     OW62627   2.470   2.309   1.643 -0.3191 -0.2021  0.1222
19912SOL    HW162628   2.398   2.364   1.673  0.3603 -0.0358  1.4989
19912SOL    HW262629   2.432   2.221   1.637 -1.0639  0.1640 -0.8362
19913SOL     OW62630   3.042   0.253   8.928 -0.0708 -0.0486  0.0749
19913SOL    HW162631   3.067   0.340   8.897  0.9837 -0.3492  0.0526
19913SOL    HW262632   3.082   0.246   9.015  0.2330 -0.6868 -0.1135
19914SOL     OW62633   4.242   4.397   3.054  0.5978 -0.0963  0.7254
19914SOL    HW162634   4.300   4.335   3.100 -0.9065  0.3387  3.4111
19914SOL    HW262635   4.168   4.409   3.113 -1.0896  1.2538 -1.4992
19915SOL     OW62636   8.022   3.810   7.806 -0.5985  0.1744 -0.0656
19915SOL    HW162637   8.100   3.758   7.788  1.3554  2.4495  1.2862
19915SOL    HW262638   8.037   3.894   7.763 -1.6828  1.1187  1.2969
19916SOL     OW62639   2.026   2.169   2.057  0.1687  0.4299 -0.1230
19916SOL    HW162640   2.065   2.137   2.138 -1.8296 -0.4043  0.5983
19916SOL    HW262641   2.042   2.100   1.994  0.2034  0.2594  0.0700
19917SOL     OW62642   7.366   3.482   2.743  0.0480 -0.1975 -0.1301
19917SOL    HW162643   7.378   3.480   2.648  0.3111 -1.6785 -0.0985
19917SOL    HW262644   7.425   3.414   2.776 -0.6047 -0.2310  1.0239
19918SOL     OW62645   5.871   7.734   0.904 -0.1665  0.3929  0.2717
19918SOL    HW162646   5.890   7.702   0.992  0.7261 -1.7725 -0.6514
19918SOL    HW262647   5.888   7.828   0.909  1.9308  0.0042  1.8879
19919SOL     OW62648   4.906   7.338   4.199 -0.1115 -0.3027  0.1180
19919SOL    HW162649   4.878   7.429   4.193 -2.4331 -0.8072  1.6461
19919SOL    HW262650   4.922   7.324   4.292  1.1357 -1.2318 -0.2113
19920SOL     OW62651   1.467   7.918   4.504 -0.1230 -0.4488 -0.0488
19920SOL    HW162652   1.448   7.862   4.429 -0.7955 -0.3358  0.0283
19920SOL    HW262653   1.409   7.993   4.493  0.1974 -0.1493  0.2741
19921SOL     OW62654   5.731   6.473   3.787  0.4008  0.3565 -0.1442
19921SOL    HW162655   5.804   6.413   3.803 -0.4803 -0.2737  1.8217
19921SOL    HW262656   5.665   6.419   3.744  0.1088  0.2450  0.4374
19922SOL     OW62657   4.112   0.540   0.874 -0.1063 -0.3529  0.4463
19922SOL    HW162658   4.134   0.604   0.806  1.6128 -0.3546  0.9543
19922SOL    HW262659   4.025   0.567   0.904  0.9654  2.4473  1.3803
19923SOL     OW62660   7.078   3.121   2.021 -0.2701  0.9516  0.5362
19923SOL    HW162661   6.986   3.110   2.045 -0.3156  2.8168  1.3938
19923SOL    HW262662   7.074   3.169   1.938 -0.0546  0.5282  0.2771
19924SOL     OW62663   2.778   3.215   0.966 -0.4060 -0.6257  0.2613
19924SOL    HW162664   2.810   3.250   1.049 -1.3541 -0.9354  0.7844
19924SOL    HW262665   2.855   3.210   0.910  1.1966 -4.1308  2.3706
19925SOL     OW62666   2.767   3.385   4.086  0.1404 -0.7403  0.2841
19925SOL    HW162667   2.726   3.468   4.063  0.8350 -0.8618 -1.5717
19925SOL    HW262668   2.852   3.409   4.123  0.5918 -0.6165 -0.8037
19926SOL     OW62669   8.231   7.115   4.192  0.0181 -0.0323  0.4544
19926SOL    HW162670   8.265   7.204   4.192  1.1052 -0.4344  1.2339
19926SOL    HW262671   8.257   7.080   4.106 -1.7717  0.8761 -0.5008
19927SOL     OW62672   5.801   3.644   2.167  0.1086 -0.4663 -0.0796
19927SOL    HW162673   5.713   3.613   2.188 -1.2260  1.4270 -2.3163
19927SOL    HW262674   5.811   3.623   2.074  1.3557  0.8093 -0.2582
19928SOL     OW62675   6.660   1.469   6.849  0.0950 -0.4441 -0.4256
19928SOL    HW162676   6.578   1.514   6.870  1.0345  0.4994  1.4265
19928SOL    HW262677   6.633   1.393   6.798 -1.7629  0.8192 -1.4092
19929SOL     OW62678   1.366   0.093   2.112 -0.3319 -0.2142  0.1270
19929SOL    HW162679   1.305   0.020   2.104  1.8077 -2.0435 -0.2530
19929SOL    HW262680   1.360   0.139   2.028 -0.8396 -0.6463 -0.0781
19930SOL     OW62681   4.571   4.797   7.863 -0.2027 -0.1753  0.1567
19930SOL    HW162682   4.628   4.824   7.936  0.3628 -1.1782  0.1064
19930SOL    HW262683   4.630   4.786   7.789 -0.7393  0.5694 -0.4058
19931SOL     OW62684   2.255   4.761   7.558  0.1710  0.3801 -0.3083
19931SOL    HW162685   2.254   4.666   7.573 -1.2537  0.0954 -1.8799
19931SOL    HW262686   2.250   4.771   7.463 -1.0942  2.0050 -0.1303
19932SOL     OW62687   2.528   6.675   8.095 -0.2684 -0.9140  0.3050
19932SOL    HW162688   2.488   6.590   8.112  0.7718 -1.1395  1.8991
19932SOL    HW262689   2.492   6.733   8.162  0.8881 -0.7549  0.8217
19933SOL     OW62690   6.006   4.683   5.087  0.2581  0.5639  0.1630
19933SOL    HW162691   5.924   4.703   5.042 -0.3510  0.0464  1.0369
19933SOL    HW262692   6.019   4.589   5.072 -0.7244  0.0423  2.2671
19934SOL     OW62693   9.052   1.339   3.884  0.4105 -0.6012  0.3641
19934SOL    HW162694   8.960   1.320   3.863 -0.0826  2.0460 -0.2718
19934SOL    HW262695   9.091   1.364   3.801  1.5125 -0.9229  0.7664
19935SOL     OW62696   3.829   1.230   4.474 -0.2733 -0.3668  0.5472
19935SOL    HW162697   3.795   1.184   4.550 -1.6332  0.3003  0.3714
19935SOL    HW262698   3.768   1.303   4.461  0.9797  0.6135 -0.0644
19936SOL     OW62699   7.338   5.383   7.192 -0.1836  0.1049 -0.1636
19936SOL    HW162700   7.263   5.323   7.200  0.4706 -0.7938 -0.6164
19936SOL    HW262701   7.353   5.390   7.098 -0.0605  0.7609 -0.1042
19937SOL     OW62702   0.258   7.726   2.873  0.0996 -0.3465  0.1483
19937SOL    HW162703   0.301   7.811   2.886  0.2141 -0.3546 -0.1702
19937SOL    HW262704   0.315   7.680   2.812 -1.1753  0.2603 -1.5728
19938SOL     OW62705   4.965   1.248   4.657  0.4807  0.4490  0.8526
19938SOL    HW162706   5.032   1.245   4.726  2.3365  3.2642 -0.6304
19938SOL    HW262707   5.004   1.200   4.584  0.1572  0.6888  0.5179
19939SOL     OW62708   6.269   8.449   6.648  0.5387 -0.3268  0.3944
19939SOL    HW162709   6.191   8.395   6.657  0.5619 -0.8430 -1.8834
19939SOL    HW262710   6.315   8.439   6.731 -1.3183 -0.7672  1.4226
19940SOL     OW62711   6.665   5.606   8.179 -0.0447 -0.3475  0.3130
19940SOL    HW162712   6.599   5.597   8.110  0.1518 -0.1767  0.0980
19940SOL    HW262713   6.748   5.602   8.132  0.1123 -1.1746  0.6481
19941SOL     OW62714   9.057   4.275   5.075 -0.0443 -0.1686  0.0070
19941SOL    HW162715   9.038   4.355   5.123  2.0091  0.9271 -0.9193
19941SOL    HW262716   9.101   4.304   4.995  2.5152 -2.2670  0.5233
19942SOL     OW62717   2.773   3.933   7.880 -0.2803  0.1718  0.3716
19942SOL    HW162718   2.820   3.849   7.879  1.2679  0.9977  1.1428
19942SOL    HW262719   2.725   3.934   7.798  0.5935 -0.9685 -0.1804
19943SOL     OW62720   6.563   2.768   6.029  0.2591 -0.1680 -0.0646
19943SOL    HW162721   6.484   2.776   6.083 -1.2273  4.5998 -2.3439
19943SOL    HW262722   6.632   2.811   6.080  0.5105 -1.1680  0.4638
19944SOL     OW62723   2.062   1.227   0.785 -0.6314  0.4458  0.2112
19944SOL    HW162724   2.154   1.215   0.809 -0.6098 -0.9866 -0.5288
19944SOL    HW262725   2.025   1.278   0.857  1.0956  2.4919 -0.2443
19945SOL     OW62726   7.789   2.908   6.452  0.5950 -0.6664 -0.1168
19945SOL    HW162727   7.714   2.967   6.462  1.3872  0.9811 -2.8160
19945SOL    HW262728   7.865   2.961   6.477  0.9590 -2.3489  2.7076
19946SOL     OW62729   5.165   8.248   7.336  0.0361 -0.2503 -0.0305
19946SOL    HW162730   5.201   8.307   7.402 -1.0475 -0.9296  1.2471
19946SOL    HW262731   5.211   8.270   7.255  1.1933  0.8330  0.8819
19947SOL     OW62732   0.308   0.587   8.372  0.1853  0.5428 -0.8511
19947SOL    HW162733   0.285   0.526   8.302 -0.4522  1.4935 -1.4981
19947SOL    HW262734   0.261   0.667   8.350  0.0080  0.8821  0.6513
19948SOL     OW62735   7.301   1.400   6.674  0.4783  0.0089 -0.2772
19948SOL    HW162736   7.222   1.433   6.632  1.1229  2.3504  0.1824
19948SOL    HW262737   7.270   1.350   6.749 -0.5760  0.5196 -0.3562
19949SOL     OW62738   8.054   7.826   8.136 -0.3016  0.7305  0.1753
19949SOL    HW162739   8.112   7.864   8.070 -1.0225  1.4691 -0.0455
19949SOL    HW262740   8.105   7.754   8.173  0.5173  0.9680 -0.4456
19950SOL     OW62741   0.296   2.367   2.357  0.1227  0.2475 -0.4482
19950SOL    HW162742   0.323   2.455   2.382  0.2685  0.0572  0.0905
19950SOL    HW262743   0.252   2.377   2.273 -0.6282  0.9568  0.0178
19951SOL     OW62744   1.904   2.299   4.333  0.1641  0.3040 -0.9390
19951SOL    HW162745   1.853   2.295   4.252  0.7306  0.7951 -1.3328
19951SOL    HW262746   1.950   2.215   4.337 -1.1993 -0.4521 -0.2014
19952SOL     OW62747   6.828   8.061   7.058  0.1503 -0.2950  0.0286
19952SOL    HW162748   6.751   8.115   7.039 -0.9783 -1.6636  0.4763
19952SOL    HW262749   6.887   8.119   7.107 -0.8730  0.6136  0.2330
19953SOL     OW62750   0.906   2.574   3.718  0.4331  0.2186 -0.4060
19953SOL    HW162751   0.927   2.594   3.809  1.8064  0.5487 -0.7709
19953SOL    HW262752   0.959   2.496   3.698 -1.3797 -1.0926 -0.3574
19954SOL     OW62753   8.970   7.336   3.199 -0.2130  0.2245 -0.1281
19954SOL    HW162754   8.915   7.300   3.269 -0.1209  1.6860  0.7411
19954SOL    HW262755   8.915   7.334   3.121 -0.6984 -0.4294  0.2206
19955SOL     OW62756   3.530   6.256   7.310 -0.3154 -0.2108 -0.1737
19955SOL    HW162757   3.493   6.234   7.396 -0.3774  1.2571  0.2042
19955SOL    HW262758   3.607   6.201   7.302 -0.0445 -0.0298  1.0362
19956SOL     OW62759   4.468   2.640   9.142 -0.2363 -0.3598 -0.3976
19956SOL    HW162760   4.469   2.672   9.232  0.3533  1.8247 -1.1069
19956SOL    HW262761   4.385   2.672   9.106 -0.0719 -0.4603 -0.8759
19957SOL     OW62762   9.159   2.861   3.071 -0.2652 -0.0122 -0.5582
19957SOL    HW162763   9.171   2.870   2.976 -0.5280  1.9107 -0.4553
19957SOL    HW262764   9.244   2.834   3.104  0.2134  0.6573 -1.2168
19958SOL     OW62765   3.249   7.271   3.206 -0.0964  0.0707  0.2212
19958SOL    HW162766   3.216   7.220   3.279  0.3687 -0.2494  0.2146
19958SOL    HW262767   3.173   7.318   3.172 -0.6391 -1.0271 -0.1102
19959SOL     OW62768   5.321   5.356   1.734 -0.9343 -0.5692 -0.3188
19959SOL    HW162769   5.313   5.308   1.816  0.8540 -0.3048  0.0495
19959SOL    HW262770   5.396   5.415   1.747 -1.0951  0.0370 -1.8594
19960SOL     OW62771   4.197   2.009   4.912  0.3602 -0.3054 -0.5176
19960SOL    HW162772   4.167   2.046   4.829 -1.3366  1.4519  0.7702
19960SOL    HW262773   4.233   1.923   4.889 -2.5524 -1.0788 -2.7177
19961SOL     OW62774   0.013   8.163   8.658  0.4747  0.3669  0.0315
19961SOL    HW162775   0.030   8.222   8.585 -1.1840  0.0814 -0.6490
19961SOL    HW262776  -0.033   8.217   8.722 -0.2225  0.0541 -0.1947
19962SOL     OW62777   3.258   0.395   4.231 -0.1549 -0.0295 -0.3401
19962SOL    HW162778   3.208   0.401   4.312 -1.9479 -2.5566 -1.1242
19962SOL    HW262779   3.346   0.424   4.254 -0.4567 -1.1552  2.6592
19963SOL     OW62780   8.772   2.686   7.590 -0.1847 -0.3932  0.0856
19963SOL    HW162781   8.779   2.662   7.682 -0.7903  1.5065  0.6575
19963SOL    HW262782   8.679   2.677   7.569  0.0096 -1.2480 -0.4959
19964SOL     OW62783   7.578   8.401   1.366 -0.2538 -0.5410 -0.1473
19964SOL    HW162784   7.500   8.453   1.387  0.4756  0.1553  0.9283
19964SOL    HW262785   7.544   8.323   1.322 -1.4696  0.2593 -0.6738
19965SOL     OW62786   3.778   2.955   0.840  0.2279  0.3137 -0.1800
19965SOL    HW162787   3.763   3.022   0.772  0.8239  1.5731  0.8814
19965SOL    HW262788   3.802   3.006   0.918  2.3902 -1.2036  0.2200
19966SOL     OW62789   3.497   7.617   1.568  0.3163  0.2275 -0.3092
19966SOL    HW162790   3.428   7.579   1.622  0.8132  1.3701  1.2168
19966SOL    HW262791   3.469   7.600   1.478 -2.5337  1.5656  0.2024
19967SOL     OW62792   6.313   2.066   4.110  0.2115  0.3901 -0.3185
19967SOL    HW162793   6.267   2.091   4.190 -0.2915  0.4864 -0.6355
19967SOL    HW262794   6.368   2.142   4.089  2.5465 -0.6584  1.4853
19968SOL     OW62795   2.846   1.723   3.854 -0.3967  0.5026  0.2011
19968SOL    HW162796   2.940   1.727   3.837 -0.3558 -0.7546  0.0349
19968SOL    HW262797   2.817   1.814   3.849  0.7677  0.8836  0.0363
19969SOL     OW62798   7.953   3.776   8.474  0.2365  0.5501 -0.2611
19969SOL    HW162799   7.900   3.838   8.424  2.4075  2.7883 -0.0024
19969SOL    HW262800   7.931   3.794   8.565 -0.3033 -0.2531 -0.2193
19970SOL     OW62801   6.945   7.550   4.136 -0.0174  0.2014 -0.7320
19970SOL    HW162802   7.007   7.552   4.063 -1.1080 -0.8492 -1.7148
19970SOL    HW262803   6.903   7.636   4.134  2.6524  1.7229  1.1505
19971SOL     OW62804   0.840   3.213   8.238  0.4966 -0.3101 -0.0897
19971SOL    HW162805   0.797   3.293   8.269  0.4317 -0.2665 -0.2934
19971SOL    HW262806   0.807   3.201   8.149 -0.8383 -1.5167  0.5232
19972SOL     OW62807   0.641   4.010   1.075  0.2837  0.6306  0.2956
19972SOL    HW162808   0.632   4.042   1.165  1.8518  0.9511  0.3570
19972SOL    HW262809   0.697   4.074   1.032 -0.0459  0.2136 -0.7871
19973SOL     OW62810   5.461   1.931   0.273  0.7467  0.1953  0.2835
19973SOL    HW162811   5.411   1.852   0.291 -0.5532  1.1499  1.0303
19973SOL    HW262812   5.494   1.959   0.358  0.2653  1.0545  0.1981
19974SOL     OW62813   3.198   7.202   0.004  0.0616  0.3501 -0.3182
19974SOL    HW162814   3.289   7.223   0.025  0.1362 -0.7954  0.5773
19974SOL    HW262815   3.193   7.107   0.007 -1.3018  0.4090  0.1942
19975SOL     OW62816   2.603   4.505   6.242  0.0204 -0.1127  0.2245
19975SOL    HW162817   2.561   4.586   6.273 -0.2853 -1.1813  2.9088
19975SOL    HW262818   2.574   4.496   6.151 -3.1661  0.7707  1.0216
19976SOL     OW62819   5.012   6.927   1.909  0.2125  0.3640  0.8166
19976SOL    HW162820   5.084   6.917   1.846  0.3011  1.2023  0.7781
19976SOL    HW262821   5.054   6.960   1.988 -0.2395  1.8410  0.4826
19977SOL     OW62822   2.680   1.826   0.809  0.1827 -0.2253 -0.2415
19977SOL    HW162823   2.685   1.861   0.898 -2.1240 -0.4198  0.0171
19977SOL    HW262824   2.656   1.902   0.755  0.3343 -0.3677 -0.5121
19978SOL     OW62825   0.854   1.702   4.950 -0.0696 -0.8208 -0.5909
19978SOL    HW162826   0.771   1.698   4.904  0.1286 -0.0168 -1.0388
19978SOL    HW262827   0.841   1.649   5.028 -1.0352 -0.6294 -0.6105
19979SOL     OW62828   7.690   1.965   2.216  0.2022 -0.2305  0.2123
19979SOL    HW162829   7.614   1.954   2.274  0.5145  0.9882  0.8794
19979SOL    HW262830   7.687   2.057   2.190  0.4310 -0.6034 -1.2346
19980SOL     OW62831   1.350   2.014   6.369  0.7319  0.2177 -0.1431
19980SOL    HW162832   1.428   1.960   6.376 -0.7956 -2.0431  0.7643
19980SOL    HW262833   1.339   2.052   6.457 -0.2226 -1.0723  0.3197
19981SOL     OW62834   6.307   8.954   8.391  0.6830  0.0416  0.8010
19981SOL    HW162835   6.305   9.029   8.332 -2.0038 -0.1460  0.5037
19981SOL    HW262836   6.236   8.971   8.453  1.7715 -1.0066  2.3985
19982SOL     OW62837   5.498   7.318   2.822  0.0288  0.0987  0.7815
19982SOL    HW162838   5.509   7.242   2.880  0.9456  0.9628  1.7876
19982SOL    HW262839   5.587   7.340   2.794 -0.3925 -0.2495 -0.9361
19983SOL     OW62840   8.080   3.243   3.372 -0.2626  0.1634 -0.2139
19983SOL    HW162841   8.134   3.164   3.376  0.9520  0.8687 -1.9624
19983SOL    HW262842   8.130   3.309   3.420 -0.8645  0.1323  0.4792
19984SOL     OW62843   7.328   3.024   2.087  0.2187  0.6926 -0.3437
19984SOL    HW162844   7.363   3.096   2.139 -0.4439  0.5810  0.2694
19984SOL    HW262845   7.242   3.054   2.058 -0.3568 -0.1079  0.4919
19985SOL     OW62846   2.777   1.972   1.045  0.7107 -0.1888  0.3010
19985SOL    HW162847   2.745   1.934   1.127  0.9875 -1.1120 -0.0105
19985SOL    HW262848   2.724   2.051   1.034  1.1560  0.3475  1.7339
19986SOL     OW62849   0.279   9.139   3.328  0.4338  0.1177  0.1687
19986SOL    HW162850   0.230   9.104   3.403  0.7810 -0.5268  0.1003
19986SOL    HW262851   0.342   9.200   3.367  1.9209 -1.6382  0.6223
19987SOL     OW62852   3.545   5.665   0.631 -0.1866  0.2292  0.3829
19987SOL    HW162853   3.623   5.678   0.685  0.5857 -1.0239 -0.3836
19987SOL    HW262854   3.569   5.699   0.545 -0.7200  0.4334  0.3112
19988SOL     OW62855   7.051   6.480   4.477 -0.4418  0.1502 -0.2508
19988SOL    HW162856   7.015   6.422   4.411 -0.8854  0.1108  0.0257
19988SOL    HW262857   6.980   6.541   4.497 -0.0568  0.6440 -0.3713
19989SOL     OW62858   5.012   8.396   4.765 -0.2743  0.3273 -0.3322
19989SOL    HW162859   4.963   8.477   4.781 -1.4148 -0.4769  0.3261
19989SOL    HW262860   5.101   8.415   4.797 -0.1728  1.7362 -1.3594
19990SOL     OW62861   4.768   0.606   7.084  0.2040  0.6247 -0.1225
19990SOL    HW162862   4.744   0.690   7.122 -2.1461  0.1185 -0.3732
19990SOL    HW262863   4.771   0.546   7.158  0.6337  0.6408 -0.1193
19991SOL     OW62864   7.046   3.639   3.760 -0.9119  0.2478  0.0710
19991SOL    HW162865   7.089   3.605   3.839 -2.3826  2.3636  1.9273
19991SOL    HW262866   7.011   3.562   3.716  0.7703 -1.0908  0.9548
19992SOL     OW62867   2.895   4.503   7.679 -0.1934  0.0219  0.1336
19992SOL    HW162868   2.816   4.506   7.734  0.4756 -0.3574  1.1438
19992SOL    HW262869   2.954   4.567   7.719 -0.2605  0.8767 -1.0806
19993SOL     OW62870   6.213   6.520   1.611  0.4756  0.0502 -0.3263
19993SOL    HW162871   6.122   6.530   1.580 -0.1511 -0.4216  1.2756
19993SOL    HW262872   6.254   6.604   1.590 -0.9298  1.0777  0.7611
19994SOL     OW62873   0.806   7.567   6.524 -0.1385 -0.1325 -0.2159
19994SOL    HW162874   0.856   7.632   6.574  0.5150  0.5069 -1.6361
19994SOL    HW262875   0.739   7.619   6.479  0.0126 -0.5153 -0.8949
19995SOL     OW62876   5.202   5.667   3.277  0.0188  0.1059 -0.2281
19995SOL    HW162877   5.166   5.675   3.365 -0.6924 -0.0537 -0.4973
19995SOL    HW262878   5.128   5.639   3.223  0.6286 -0.5713 -0.7333
19996SOL     OW62879   6.163   3.108   4.125  0.0534  0.9946 -0.1348
19996SOL    HW162880   6.182   3.015   4.134 -0.2410  0.9097 -0.3898
19996SOL    HW262881   6.142   3.137   4.214  0.5828  0.9192  0.0194
19997SOL     OW62882   0.500   3.928   0.862 -0.2975 -0.1094  0.3525
19997SOL    HW162883   0.433   3.996   0.861 -1.1558 -0.9375 -0.7851
19997SOL    HW262884   0.566   3.961   0.923  0.3755  2.7947 -1.6780
19998SOL     OW62885   9.052   2.778   8.335  0.0752 -0.0119  0.4978
19998SOL    HW162886   9.042   2.698   8.387 -1.1264 -0.8559 -0.9775
19998SOL    HW262887   9.132   2.763   8.284 -1.0710 -1.0950 -1.0825
19999SOL     OW62888   3.669   3.608   2.043 -0.0133  0.5242 -0.3190
19999SOL    HW162889   3.755   3.566   2.040  0.7713  1.9733  0.6683
19999SOL    HW262890   3.677   3.674   2.112 -1.9671  0.6017 -0.1187
20000SOL     OW62891   8.586   7.670   2.909 -0.4242 -0.4764  0.3554
20000SOL    HW162892   8.558   7.579   2.923  0.9670 -0.7861  1.3734
20000SOL    HW262893   8.670   7.676   2.954 -0.1214  1.1203 -0.3552
20001SOL     OW62894   1.744   8.705   7.562  0.0576  0.1381  0.2116
20001SOL    HW162895   1.734   8.638   7.494 -0.9425  0.6716 -0.1894
20001SOL    HW262896   1.767   8.785   7.513 -0.2962  0.4386  0.5346
20002SOL     OW62897   0.691   0.137   4.317  0.0377  0.0847  0.1139
20002SOL    HW162898   0.604   0.111   4.286 -0.3040  1.2529  0.0445
20002SOL    HW262899   0.697   0.099   4.405 -0.6100  0.1151  0.1792
20003SOL     OW62900   6.240   7.466   5.837  0.1177  0.7413  0.3362
20003SOL    HW162901   6.321   7.469   5.888  0.5673  2.2796 -0.4145
20003SOL    HW262902   6.262   7.508   5.754 -1.1298  0.0771 -0.3639
20004SOL     OW62903   3.529   1.410   7.933  0.8268 -0.0108  0.1203
20004SOL    HW162904   3.447   1.456   7.953  1.2541  1.0423 -0.4681
20004SOL    HW262905   3.508   1.353   7.860  0.2368 -0.9429  0.9909
20005SOL     OW62906   4.653   6.432   5.351 -0.0045  0.3817 -0.4318
20005SOL    HW162907   4.657   6.525   5.332 -0.6230  0.1013 -2.0598
20005SOL    HW262908   4.560   6.410   5.343  0.3045 -0.6341 -1.4787
20006SOL     OW62909   7.881   5.318   5.502  0.3967  0.1474  0.0980
20006SOL    HW162910   7.862   5.370   5.423  0.4859 -0.4141 -0.2999
20006SOL    HW262911   7.976   5.319   5.509  0.4117 -0.1315 -0.0337
20007SOL     OW62912   7.017   7.739   5.660 -0.6865  0.2467  0.2356
20007SOL    HW162913   6.938   7.734   5.605  0.4256  0.2459 -1.4356
20007SOL    HW262914   6.994   7.801   5.729 -1.7333  1.2255 -0.9535
20008SOL     OW62915   3.051   1.053   2.347 -0.4214  0.1870 -0.2284
20008SOL    HW162916   3.110   1.038   2.273 -1.2988  0.2701 -0.9619
20008SOL    HW262917   3.018   1.141   2.333 -0.6882  0.1551  0.2038
20009SOL     OW62918   4.354   1.397   2.018  0.0486 -0.0256  0.4326
20009SOL    HW162919   4.393   1.403   2.105 -1.0086  0.6680  0.8793
20009SOL    HW262920   4.284   1.332   2.029 -0.8481  0.9147  0.4159
20010SOL     OW62921   6.250   3.984   7.009  0.0193  0.1905 -0.2139
20010SOL    HW162922   6.227   4.050   6.943  0.8843  1.7250  0.9595
20010SOL    HW262923   6.333   4.013   7.045  0.7472 -1.9098 -0.0599
20011SOL     OW62924   7.370   1.856   1.100 -0.7041  0.1572 -0.1111
20011SOL    HW162925   7.414   1.941   1.093  2.8282 -1.4618  0.2414
20011SOL    HW262926   7.340   1.838   1.011  0.6966  0.7875 -0.7519
20012SOL     OW62927   5.769   7.008   8.186 -0.2378  0.4843  0.5851
20012SOL    HW162928   5.741   6.949   8.256 -1.2954  0.3609  0.0786
20012SOL    HW262929   5.814   6.952   8.123 -0.8942  0.2853  0.2939
20013SOL     OW62930   4.150   0.482   9.111 -0.1833 -0.1335  0.0239
20013SOL    HW162931   4.177   0.390   9.106 -0.9060 -0.5531  2.4322
20013SOL    HW262932   4.057   0.478   9.136 -0.5830  1.2687 -1.1184
20014SOL     OW62933   2.566   1.453   8.614 -0.4280 -0.1157 -0.2595
20014SOL    HW162934   2.489   1.470   8.669 -1.0445 -1.0377 -0.8184
20014SOL    HW262935   2.542   1.377   8.561  1.4869 -1.5687  0.7866
20015SOL     OW62936   8.122   7.736   6.998 -0.2530 -0.3250 -0.2252
20015SOL    HW162937   8.059   7.665   7.009  2.0607 -2.3543  1.0326
20015SOL    HW262938   8.071   7.816   7.008 -3.0952 -1.7395 -2.2719
20016SOL     OW62939   1.194   2.630   8.400  0.2252 -0.3376  0.1522
20016SOL    HW162940   1.129   2.567   8.429  0.3298 -0.6222 -0.2299
20016SOL    HW262941   1.163   2.714   8.434  0.2380 -0.6308  0.9097
20017SOL     OW62942   4.593   7.243   6.176  0.0691  0.1154 -0.4548
20017SOL    HW162943   4.675   7.208   6.212  0.8074  1.1309 -1.1116
20017SOL    HW262944   4.595   7.336   6.198 -1.9512 -0.2131  1.4165
20018SOL     OW62945   2.395   3.931   2.364 -0.1882  0.7348  0.1615
20018SOL    HW162946   2.413   4.024   2.353  0.7248  0.6019  0.4726
20018SOL    HW262947   2.306   3.919   2.329 -0.9492  1.9963  1.5695
20019SOL     OW62948   4.959   0.521   2.481  0.0059  0.3195  0.0532
20019SOL    HW162949   4.926   0.571   2.556  0.4331  0.6158  0.0448
20019SOL    HW262950   4.997   0.442   2.519 -1.2658 -0.3517  0.0217
20020SOL     OW62951   2.403   5.886   6.153 -0.0156  0.0478 -0.4576
20020SOL    HW162952   2.446   5.804   6.179  0.8310  0.7578  0.4294
20020SOL    HW262953   2.313   5.860   6.133  0.4028 -1.2073 -0.8395
20021SOL     OW62954   5.302   3.430   7.514 -0.0018  0.1335 -0.7839
20021SOL    HW162955   5.371   3.494   7.502  1.4822 -0.8660  1.6503
20021SOL    HW262956   5.302   3.412   7.608 -2.1320 -1.5114 -1.0123
20022SOL     OW62957   4.032   5.092   1.420 -0.2743 -0.1051  0.4215
20022SOL    HW162958   3.952   5.047   1.446 -0.7061  0.3481 -0.0908
20022SOL    HW262959   4.095   5.070   1.488 -0.8927 -0.3028  0.9420
20023SOL     OW62960   3.388   8.820   4.791 -0.4587 -0.0863  0.2530
20023SOL    HW162961   3.442   8.748   4.761  0.2237 -0.1074  1.5005
20023SOL    HW262962   3.426   8.898   4.750 -0.3224 -0.2674  0.0385
20024SOL     OW62963   2.814   6.760   3.513 -0.0341  0.0377  0.1367
20024SOL    HW162964   2.728   6.725   3.536 -0.6194  0.6802 -0.9948
20024SOL    HW262965   2.876   6.697   3.549 -1.0253 -1.3645 -0.5168
20025SOL     OW62966   0.679   4.732   7.038  0.3917 -0.1672  0.2072
20025SOL    HW162967   0.699   4.826   7.039  0.8227 -0.2386 -0.6458
20025SOL    HW262968   0.620   4.720   6.963  1.3493 -0.7524 -0.4799
20026SOL     OW62969   1.187   1.639   6.267 -0.0806 -0.5710  0.2433
20026SOL    HW162970   1.163   1.550   6.240 -0.8943 -0.4094  0.4288
20026SOL    HW262971   1.107   1.690   6.257 -0.4104 -0.4538  2.7901
20027SOL     OW62972   8.662   2.004   3.269 -0.3748 -0.0738  0.3035
20027SOL    HW162973   8.743   1.959   3.294 -0.3764 -1.4159 -1.8057
20027SOL    HW262974   8.684   2.097   3.273  1.7232 -0.4136 -1.4525
20028SOL     OW62975   0.204   6.004   5.589  0.1998 -0.5706 -0.4480
20028SOL    HW162976   0.153   5.975   5.664 -0.3671 -0.8576 -0.9368
20028SOL    HW262977   0.195   6.100   5.590 -2.0943 -0.7153 -1.7110
20029SOL     OW62978   7.785   7.701   3.313  0.1963  0.0331 -0.3841
20029SOL    HW162979   7.866   7.661   3.342  0.6974  0.7318 -0.7842
20029SOL    HW262980   7.758   7.757   3.386 -0.5161 -1.0177  0.1838
20030SOL     OW62981   1.744   1.584   8.510  0.2756  0.0982  0.1261
20030SOL    HW162982   1.675   1.573   8.575 -1.0471 -2.0853 -1.4816
20030SOL    HW262983   1.706   1.643   8.445  1.4803  2.0438  1.1126
20031SOL     OW62984   6.213   6.923   7.002  0.3122  0.2994 -1.1165
20031SOL    HW162985   6.172   6.898   6.919  0.0743  0.2996 -0.9991
20031SOL    HW262986   6.265   7.001   6.981  0.2470  0.3030 -1.2625
20032SOL     OW62987   4.405   0.824   1.827  0.3391 -0.1122 -0.1891
20032SOL    HW162988   4.450   0.768   1.764  0.0186 -0.5701 -0.0118
20032SOL    HW262989   4.327   0.855   1.781  0.8634  0.7484 -0.5252
20033SOL     OW62990   7.789   7.733   3.599  0.2234  0.1326 -0.0064
20033SOL    HW162991   7.861   7.782   3.638  1.1995  0.5067 -2.0959
20033SOL    HW262992   7.714   7.793   3.604  1.2875  1.7992 -2.1236
20034SOL     OW62993   1.150   1.891   8.547 -0.1056 -0.4993  0.2287
20034SOL    HW162994   1.218   1.834   8.512 -1.5267 -2.4161  0.4641
20034SOL    HW262995   1.138   1.861   8.637  0.3543  1.3940  0.9695
20035SOL     OW62996   2.178   7.843   5.659  0.1143  0.5540 -0.1669
20035SOL    HW162997   2.176   7.928   5.702  2.1133 -0.8920  3.1301
20035SOL    HW262998   2.101   7.797   5.692 -0.0596  0.4760 -0.6615
20036SOL     OW62999   6.295   4.354   5.777 -0.0631  0.5034  0.1910
20036SOL    HW163000   6.299   4.378   5.869  0.5660 -2.2185  0.9367
20036SOL    HW263001   6.386   4.343   5.751 -0.2968 -0.4055 -0.2759
20037SOL     OW63002   2.268   3.634   7.428 -0.1422 -0.4229  0.1048
20037SOL    HW163003   2.347   3.608   7.474 -0.0021  3.0782  2.2076
20037SOL    HW263004   2.299   3.684   7.353 -0.1054  2.8967  2.1343
20038SOL     OW63005   3.730   7.755   3.970 -0.6307  0.0635  0.3204
20038SOL    HW163006   3.717   7.666   4.001  0.5469  0.2230  1.3815
20038SOL    HW263007   3.738   7.808   4.049 -1.1647  1.0956 -0.2861
20039SOL     OW63008   0.020   6.112   1.727  0.2863 -0.3137  0.0255
20039SOL    HW163009  -0.009   6.076   1.811  1.5137 -1.9528 -0.2030
20039SOL    HW263010   0.026   6.206   1.742 -0.7863 -0.4375  1.3711
20040SOL     OW63011   0.749   0.847   1.521  0.0276  0.0283 -0.0574
20040SOL    HW163012   0.808   0.775   1.542 -0.2479 -0.1732  0.0284
20040SOL    HW263013   0.751   0.853   1.426 -0.0641 -0.1893 -0.0726
20041SOL     OW63014   8.266   6.882   1.098  0.5961  0.1541 -0.1757
20041SOL    HW163015   8.266   6.841   1.184 -2.0594 -0.5605 -0.4326
20041SOL    HW263016   8.264   6.809   1.036  0.6874  0.6538 -0.7824
20042SOL     OW63017   1.985   4.749   4.106  0.2891  0.7467 -0.0632
20042SOL    HW163018   2.063   4.709   4.146  0.5611  0.5815 -0.7376
20042SOL    HW263019   1.924   4.760   4.178  0.4602 -0.2845  0.2632
20043SOL     OW63020   0.183   2.137   1.590 -0.0703  0.4834 -0.8062
20043SOL    HW163021   0.127   2.207   1.621  0.5284  0.6643 -0.0998
20043SOL    HW263022   0.147   2.113   1.504 -2.1490 -0.4387  0.2527
20044SOL     OW63023   3.194   2.138   4.759 -0.5297 -0.4187 -0.2173
20044SOL    HW163024   3.161   2.178   4.840 -0.6054  1.0905 -0.9673
20044SOL    HW263025   3.231   2.054   4.788 -3.4987 -1.4739  0.8938
20045SOL     OW63026   7.705   7.881   9.062  0.2375  0.6886  0.2806
20045SOL    HW163027   7.750   7.945   9.117  0.4751  0.3000  0.5477
20045SOL    HW263028   7.629   7.854   9.114  0.2402  0.6202  0.2502
20046SOL     OW63029   6.208   1.610   2.606  0.2021 -0.3869 -0.2492
20046SOL    HW163030   6.287   1.627   2.656 -0.3080  0.0694  0.4169
20046SOL    HW263031   6.237   1.555   2.533  1.0071 -0.7979  0.3665
20047SOL     OW63032   6.104   3.805   1.165 -0.2664 -0.3876  0.4648
20047SOL    HW163033   6.104   3.771   1.075 -0.0038  0.8226 -0.0102
20047SOL    HW263034   6.150   3.738   1.216  3.1094  0.6160 -1.0013
20048SOL     OW63035   8.982   8.178   8.833 -0.1853  0.0752 -0.6230
20048SOL    HW163036   8.978   8.272   8.817  0.2838  0.1453 -0.3456
20048SOL    HW263037   8.909   8.142   8.783 -0.7889  0.6579 -0.1712
20049SOL     OW63038   1.971   5.829   1.557  0.5404  0.3551  0.9112
20049SOL    HW163039   1.982   5.865   1.469 -0.6432 -1.7271 -0.1738
20049SOL    HW263040   1.933   5.901   1.608 -1.2543  0.8548 -1.0045
20050SOL     OW63041   5.644   8.054   7.559  0.5155 -0.0595 -0.1900
20050SOL    HW163042   5.628   8.142   7.525  2.7287  0.4942  0.0696
20050SOL    HW263043   5.589   8.048   7.637  0.5874  1.2298 -0.0235
20051SOL     OW63044   4.720   4.596   5.290  0.1207 -0.2083 -0.0424
20051SOL    HW163045   4.739   4.600   5.384  0.9707  0.3544 -0.2263
20051SOL    HW263046   4.751   4.680   5.256  0.7418 -0.7967 -0.9817
20052SOL     OW63047   7.586   1.530   8.612  0.3549 -0.0176 -0.2237
20052SOL    HW163048   7.651   1.573   8.667  0.6642 -0.5714 -0.1508
20052SOL    HW263049   7.637   1.490   8.542 -0.0346  0.6524 -0.9015
20053SOL     OW63050   9.247   0.268   8.867  0.6315  0.2045  0.0537
20053SOL    HW163051   9.255   0.321   8.787 -0.7810  1.8954  0.9628
20053SOL    HW263052   9.333   0.226   8.876  0.6310 -0.5592 -2.6670
20054SOL     OW63053   3.881   0.408   2.454  0.2294 -0.5849 -0.5247
20054SOL    HW163054   3.924   0.451   2.380 -0.8192 -0.5895 -1.1610
20054SOL    HW263055   3.952   0.382   2.512  1.1088 -1.0023 -1.7549
20055SOL     OW63056   5.641   1.331   0.087 -0.7664  0.6433  0.0038
20055SOL    HW163057   5.580   1.266   0.052 -1.7803  1.3112  0.4695
20055SOL    HW263058   5.631   1.406   0.030  0.6082  0.3102 -0.6983
20056SOL     OW63059   7.515   4.363   1.176  0.3348  0.1544  0.3885
20056SOL    HW163060   7.586   4.328   1.229  0.1387  0.5555  0.9181
20056SOL    HW263061   7.453   4.290   1.169  0.9344 -0.3057 -0.3539
20057SOL     OW63062   0.137   3.999   8.695 -0.1596 -0.1309 -0.4322
20057SOL    HW163063   0.054   4.046   8.687 -0.1656 -0.1535 -0.5060
20057SOL    HW263064   0.193   4.036   8.626 -0.2470 -0.4027 -0.6504
20058SOL     OW63065   3.254   6.230   3.927 -0.5554 -0.7205 -0.1927
20058SOL    HW163066   3.346   6.257   3.931 -0.5089 -0.9448  0.3182
20058SOL    HW263067   3.242   6.176   4.005 -0.9682 -1.1673 -0.5665
20059SOL     OW63068   7.208   5.878   3.568  0.0812 -0.2912  0.5917
20059SOL    HW163069   7.129   5.873   3.513 -0.1967  1.2432  0.8091
20059SOL    HW263070   7.199   5.806   3.630 -1.4308  0.1742  0.9510
20060SOL     OW63071   8.664   2.992   2.243  0.1733  0.0110 -0.9245
20060SOL    HW163072   8.617   2.909   2.236  0.0461 -0.0407  0.2884
20060SOL    HW263073   8.598   3.059   2.227 -0.3492 -0.0615  0.7523
20061SOL     OW63074   8.317   5.526   6.028  0.4242  0.6902 -0.3940
20061SOL    HW163075   8.247   5.586   6.054  0.4354  0.4493  0.2189
20061SOL    HW263076   8.306   5.450   6.086 -0.6375 -0.6692 -2.2693
20062SOL     OW63077   2.426   2.187   4.367 -0.2707  0.5283  0.7471
20062SOL    HW163078   2.427   2.099   4.328 -1.7104  1.6504 -2.0633
20062SOL    HW263079   2.396   2.172   4.457 -0.5111 -1.8520  0.3442
20063SOL     OW63080   6.676   4.581   7.293  0.1057 -0.1965  0.2303
20063SOL    HW163081   6.750   4.561   7.350 -0.0689  0.9057  0.8719
20063SOL    HW263082   6.600   4.585   7.351 -0.2027  0.1920 -0.1855
20064SOL     OW63083   8.637   8.255   7.111 -0.1954  0.2422 -0.6750
20064SOL    HW163084   8.639   8.345   7.142  2.4349 -0.0150  0.0895
20064SOL    HW263085   8.568   8.214   7.164  0.2064  1.2455  0.6977
20065SOL     OW63086   5.232   2.728   7.895 -0.2968  0.3992  0.0769
20065SOL    HW163087   5.311   2.724   7.949 -0.8039  2.0981  0.9940
20065SOL    HW263088   5.249   2.800   7.834 -0.6707 -0.0026 -0.5039
20066SOL     OW63089   1.864   2.495   4.820  0.5739  0.3149  0.4007
20066SOL    HW163090   1.871   2.444   4.740  0.6334 -0.1641  0.7067
20066SOL    HW263091   1.777   2.536   4.815 -1.3018 -3.0130  1.9826
20067SOL     OW63092   2.772   1.043   7.549 -0.3578  0.3926 -0.4823
20067SOL    HW163093   2.722   0.983   7.494 -0.7837 -0.2117  0.5311
20067SOL    HW263094   2.719   1.053   7.628 -0.5045  2.4466 -0.7889
20068SOL     OW63095   0.887   2.540   5.603  0.1001  0.5345  0.1609
20068SOL    HW163096   0.962   2.541   5.543 -0.4579 -0.0937 -0.5581
20068SOL    HW263097   0.817   2.498   5.554  0.2296 -1.9964  1.9713
20069SOL     OW63098   0.017   6.868   5.894  0.1766  0.7949  0.5543
20069SOL    HW163099   0.088   6.853   5.832 -0.6028  2.0592 -0.7193
20069SOL    HW263100   0.039   6.815   5.970  1.0867 -0.9908 -0.8695
20070SOL     OW63101   2.909   6.934   6.511  0.2046  0.0795 -0.6162
20070SOL    HW163102   2.883   6.988   6.436 -0.9956  0.8017  0.2740
20070SOL    HW263103   2.964   6.992   6.564  1.5591 -0.6244 -1.2174
20071SOL     OW63104   7.157   4.889   7.958  0.1218 -0.0980  0.1159
20071SOL    HW163105   7.235   4.929   7.996 -0.3093 -1.2844  2.4585
20071SOL    HW263106   7.125   4.830   8.026 -0.9182 -2.2052 -2.0503
20072SOL     OW63107   1.665   0.376   1.964 -0.4648 -0.4228 -0.6610
20072SOL    HW163108   1.626   0.321   1.896 -1.8754  1.3021 -1.3241
20072SOL    HW263109   1.728   0.319   2.007 -0.0736 -1.8183 -2.9033
20073SOL     OW63110   7.849   1.289   8.632 -0.1924  0.1110 -0.8025
20073SOL    HW163111   7.938   1.288   8.667 -1.0796  0.6968  1.7229
20073SOL    HW263112   7.818   1.199   8.643 -0.9046  0.5623  1.3246
20074SOL     OW63113   8.354   3.904   0.453  0.1080  0.6409 -0.2482
20074SOL    HW163114   8.448   3.888   0.459 -0.1431 -0.3716  1.8487
20074SOL    HW263115   8.323   3.842   0.388  0.9274  1.2698 -1.2632
20075SOL     OW63116   3.008   1.654   6.567 -0.4189 -0.1846  0.2244
20075SOL    HW163117   3.085   1.675   6.513  0.0505 -0.1010  0.9161
20075SOL    HW263118   3.044   1.611   6.644 -0.8472  1.6430  1.5246
20076SOL     OW63119   8.687   0.215   7.886 -0.0540  0.6497 -0.0886
20076SOL    HW163120   8.635   0.135   7.892  0.0065  0.4365 -1.8597
20076SOL    HW263121   8.681   0.240   7.794  1.1575  1.8599  0.1380
20077SOL     OW63122   2.938   0.864   7.055 -0.3128 -0.3605  0.1884
20077SOL    HW163123   3.002   0.935   7.066 -0.1585 -0.5603  0.5914
20077SOL    HW263124   2.858   0.899   7.093  0.0722 -0.8377  1.5201
20078SOL     OW63125   4.083   7.815   3.276  0.2033  0.0248 -0.0893
20078SOL    HW163126   3.996   7.840   3.308 -0.2963 -0.3124 -1.1560
20078SOL    HW263127   4.138   7.814   3.354 -1.4468 -2.9832  1.1781
20079SOL     OW63128   4.730   5.068   1.778  0.4571 -0.2022 -0.2277
20079SOL    HW163129   4.704   5.159   1.765  0.1982 -0.4415 -1.6002
20079SOL    HW263130   4.654   5.026   1.817  1.2268  0.5404  2.2141
20080SOL     OW63131   2.286   7.706   6.159 -0.2697 -0.0999  0.4689
20080SOL    HW163132   2.330   7.784   6.192 -1.7469  0.5796  0.8893
20080SOL    HW263133   2.239   7.735   6.081  1.2663 -1.1773 -0.9257
20081SOL     OW63134   1.765   3.487   1.528  0.2499 -0.2587  0.6357
20081SOL    HW163135   1.790   3.420   1.464  0.2032  0.5265 -0.2122
20081SOL    HW263136   1.725   3.437   1.599 -0.6265 -1.0727 -0.3970
20082SOL     OW63137   5.800   5.175   7.829 -0.0926 -0.3732  0.5569
20082SOL    HW163138   5.874   5.211   7.781 -1.0135 -1.4230 -1.8180
20082SOL    HW263139   5.835   5.097   7.872  0.6082  0.2553  1.1692
20083SOL     OW63140   6.094   5.787   7.343  0.5863 -0.3093  0.2100
20083SOL    HW163141   6.013   5.736   7.342  0.9646 -0.9604  1.1863
20083SOL    HW263142   6.082   5.849   7.415  1.3859 -1.1801  1.1363
20084SOL     OW63143   3.567   4.784   6.732 -0.5561  0.0109  0.2389
20084SOL    HW163144   3.547   4.852   6.668 -0.0227 -0.1453 -0.0998
20084SOL    HW263145   3.663   4.783   6.737 -0.5253 -1.0601 -0.1468
20085SOL     OW63146   5.436   1.135   2.152 -0.8619 -0.1453 -0.5633
20085SOL    HW163147   5.476   1.161   2.069 -0.2576 -3.1830 -1.3186
20085SOL    HW263148   5.510   1.117   2.210 -1.1273 -2.1092 -0.7641
20086SOL     OW63149   7.858   7.373   0.093 -0.1596  0.4046  0.6615
20086SOL    HW163150   7.808   7.421   0.027  0.9072  0.3510 -0.2203
20086SOL    HW263151   7.943   7.416   0.095  1.3850 -2.2450 -1.2560
20087SOL     OW63152   6.424   2.199   3.510 -0.5522  0.7586 -0.3480
20087SOL    HW163153   6.375   2.163   3.584  2.0477 -0.0065  1.1135
20087SOL    HW263154   6.404   2.141   3.437  1.2066 -2.0642  1.2194
20088SOL     OW63155   7.685   4.585   3.295  0.3174 -0.1254 -0.3909
20088SOL    HW163156   7.746   4.614   3.228 -0.4829  0.4988 -0.8632
20088SOL    HW263157   7.736   4.589   3.377  0.3243  2.4954 -0.4402
20089SOL     OW63158   1.967   9.091   8.884 -0.3641 -0.1523  0.6917
20089SOL    HW163159   1.895   9.135   8.929  1.4796  1.0717  2.6323
20089SOL    HW263160   1.936   9.001   8.872 -1.3592 -0.3427  3.7016
20090SOL     OW63161   7.455   8.046   7.033 -0.5384  0.2132 -0.9291
20090SOL    HW163162   7.385   7.983   7.048 -0.2003 -1.0142 -3.8370
20090SOL    HW263163   7.531   7.992   7.010  0.6871  1.6174 -0.3814
20091SOL     OW63164   0.928   0.975   6.440  0.4611  0.4004  0.5792
20091SOL    HW163165   1.002   0.941   6.391  0.5838 -1.2531  1.8284
20091SOL    HW263166   0.959   0.980   6.530 -1.1748 -1.2046  1.2953
20092SOL     OW63167   8.508   1.093   3.281 -0.5625 -0.4245 -0.3085
20092SOL    HW163168   8.501   1.020   3.219  1.1892  0.1905 -1.2892
20092SOL    HW263169   8.574   1.066   3.343 -0.9211 -0.2359  0.1605
20093SOL     OW63170   3.336   1.317   2.488  0.4799 -0.2013  0.9058
20093SOL    HW163171   3.383   1.250   2.439 -0.8158  0.0798 -0.8313
20093SOL    HW263172   3.399   1.390   2.496 -0.0020  0.7928 -2.7362
20094SOL     OW63173   0.231   8.743   7.346 -0.0719  0.1804  0.0438
20094SOL    HW163174   0.177   8.683   7.396  1.5845 -0.1115  1.5757
20094SOL    HW263175   0.240   8.702   7.260 -1.2398 -0.3606  0.1698
20095SOL     OW63176   0.343   1.266   7.293  0.2492  0.1401 -0.6390
20095SOL    HW163177   0.393   1.191   7.260 -0.4064 -1.6821  2.1218
20095SOL    HW263178   0.319   1.241   7.382  0.2499  3.8118  0.5635
20096SOL     OW63179   7.047   3.989   5.278  0.3456  0.0502  0.6326
20096SOL    HW163180   6.984   3.971   5.208  1.1481 -1.2097  0.2007
20096SOL    HW263181   7.025   3.925   5.346  0.3967  0.4070  0.9852
20097SOL     OW63182   4.580   1.561   2.980  0.1251  0.3399 -0.2448
20097SOL    HW163183   4.503   1.599   2.938 -0.4069 -1.8272 -1.3942
20097SOL    HW263184   4.558   1.558   3.073 -1.0716  0.0037 -0.5276
20098SOL     OW63185   1.289   4.216   0.896 -0.3907 -0.0324  0.5991
20098SOL    HW163186   1.275   4.307   0.924 -0.3189  0.1225  0.1265
20098SOL    HW263187   1.210   4.194   0.847  0.7114  0.6615 -1.5944
20099SOL     OW63188   3.945   9.105   9.086  0.4344  0.4182  0.2833
20099SOL    HW163189   4.002   9.030   9.099  2.2631  1.6212 -0.4579
20099SOL    HW263190   3.946   9.151   9.170  1.8681  1.2827 -0.1861
20100SOL     OW63191   4.654   9.149   7.902  0.5455 -0.2867 -0.0612
20100SOL    HW163192   4.713   9.094   7.953  0.9400  0.0598 -0.1448
20100SOL    HW263193   4.700   9.164   7.820  0.6335  0.5321  0.1290
20101SOL     OW63194   1.353   6.673   7.460 -0.2791  0.2578  0.3478
20101SOL    HW163195   1.313   6.602   7.510  2.2647  0.2758  2.6684
20101SOL    HW263196   1.425   6.632   7.413  0.3028  1.0479  0.5247
20102SOL     OW63197   0.666   2.446   8.379 -0.2723 -0.2397 -0.2075
20102SOL    HW163198   0.608   2.456   8.455 -0.5030 -1.4632 -0.2042
20102SOL    HW263199   0.684   2.536   8.351 -0.7542  0.2093  0.8634
20103SOL     OW63200   2.642   0.644   7.791  0.5380  0.0550  0.4394
20103SOL    HW163201   2.624   0.551   7.781 -0.1241  0.0537  1.4407
20103SOL    HW263202   2.565   0.687   7.755  0.9712  0.2279 -0.2863
20104SOL     OW63203   1.021   3.738   6.513 -0.6050 -0.2939  0.0729
20104SOL    HW163204   0.954   3.736   6.445  0.8445 -0.4199 -1.4021
20104SOL    HW263205   1.052   3.828   6.513  0.5815 -0.6904 -0.6466
20105SOL     OW63206   2.244   4.073   1.129 -0.1462  0.1927  0.2399
20105SOL    HW163207   2.150   4.088   1.116  0.0559  1.4623  0.0938
20105SOL    HW263208   2.282   4.079   1.042  0.2697  1.4063  0.4781
20106SOL     OW63209   2.474   1.030   2.824  0.3066  0.1868  0.1434
20106SOL    HW163210   2.423   0.953   2.847 -0.9300  1.0248  0.2963
20106SOL    HW263211   2.417   1.080   2.765 -0.1240  2.3768  2.2483
20107SOL     OW63212   2.705   9.036   4.435 -0.2133  0.1461 -0.3473
20107SOL    HW163213   2.711   9.104   4.367  0.5264 -0.4734 -0.9231
20107SOL    HW263214   2.777   8.976   4.415 -1.0349 -0.9774 -0.0392
20108SOL     OW63215   5.144   6.390   7.307 -0.3203  0.0443  0.3184
20108SOL    HW163216   5.136   6.424   7.396 -0.0811  0.3991  0.2069
20108SOL    HW263217   5.073   6.433   7.259 -1.7238 -1.6591  0.7816
20109SOL     OW63218   4.743   6.582   2.186  0.5581 -0.4867 -0.0442
20109SOL    HW163219   4.787   6.546   2.264  0.9040  0.5175  0.2346
20109SOL    HW263220   4.811   6.631   2.140 -0.0162  0.2078 -0.1682
20110SOL     OW63221   5.129   9.216   2.651  0.2779  0.5166  0.3385
20110SOL    HW163222   5.213   9.250   2.622  0.2290  0.6898  0.3957
20110SOL    HW263223   5.116   9.255   2.738 -0.9415  2.4129 -0.6279
20111SOL     OW63224   1.050   1.822   3.822  0.5850  0.2790  0.2018
20111SOL    HW163225   1.104   1.845   3.898 -0.1069  0.5340  0.6234
20111SOL    HW263226   1.025   1.906   3.784 -1.2278  0.2620  1.2340
20112SOL     OW63227   5.350   5.006   3.273 -0.0227 -0.0601 -0.0055
20112SOL    HW163228   5.442   4.981   3.274  0.1426  0.3902 -1.4674
20112SOL    HW263229   5.323   4.993   3.182 -1.2593  0.3339  0.2905
20113SOL     OW63230   3.865   4.537   3.471  0.7315 -0.1990  0.1630
20113SOL    HW163231   3.804   4.468   3.497 -0.1526  0.5786  0.2246
20113SOL    HW263232   3.823   4.579   3.396  1.7854 -0.4352 -0.5852
20114SOL     OW63233   6.146   3.409   6.465 -0.4461 -0.0072 -0.4120
20114SOL    HW163234   6.169   3.331   6.514  0.9096  0.1157 -0.8161
20114SOL    HW263235   6.191   3.399   6.381  0.7818  1.7458 -0.0230
20115SOL     OW63236   3.636   3.307   2.516 -0.7622  0.5920 -0.1799
20115SOL    HW163237   3.602   3.222   2.491  1.4051 -0.3565 -0.0795
20115SOL    HW263238   3.610   3.318   2.608 -0.9220 -0.0114 -0.1536
20116SOL     OW63239   2.774   9.234   4.227  0.8547  0.7092 -0.5664
20116SOL    HW163240   2.794   9.327   4.228  1.3938  0.6057 -1.3253
20116SOL    HW263241   2.840   9.195   4.170 -1.1595  0.2988 -2.7816
20117SOL     OW63242   4.772   8.490   2.068  0.1242  0.3641 -0.0551
20117SOL    HW163243   4.827   8.558   2.029  1.2844  0.0606  0.9693
20117SOL    HW263244   4.726   8.535   2.139  1.4768 -0.0228  1.1293
20118SOL     OW63245   0.183   8.023   3.878 -0.4262  0.3505  1.1028
20118SOL    HW163246   0.196   7.936   3.915 -0.1062  0.1589  0.5556
20118SOL    HW263247   0.272   8.053   3.856 -0.6979 -0.5845 -1.8061
20119SOL     OW63248   4.915   6.370   6.221  0.0485 -0.4170  0.6123
20119SOL    HW163249   4.876   6.292   6.183 -2.8654  1.3317 -0.2682
20119SOL    HW263250   4.939   6.424   6.146  0.6856  0.1735  1.2249
20120SOL     OW63251   4.351   3.787   7.309 -0.5368  0.4081  0.0824
20120SOL    HW163252   4.424   3.748   7.357 -0.0278 -0.6573 -1.4694
20120SOL    HW263253   4.390   3.816   7.226 -1.7853  0.2136 -0.5911
20121SOL     OW63254   5.092   7.613   4.350 -0.0830 -0.7021 -0.0879
20121SOL    HW163255   5.155   7.576   4.289  0.2994 -0.8720  0.4120
20121SOL    HW263256   5.116   7.578   4.436 -0.2999 -0.0583  0.2443
20122SOL     OW63257   6.531   8.913   0.462  0.1399  0.6367  0.7177
20122SOL    HW163258   6.580   8.849   0.513  2.7947  1.8824 -0.1400
20122SOL    HW263259   6.489   8.861   0.394 -0.8871 -0.6237  2.2300
20123SOL     OW63260   7.323   2.701   0.879  0.1799 -0.0296 -0.0023
20123SOL    HW163261   7.323   2.771   0.945 -1.5014  3.2506 -3.1622
20123SOL    HW263262   7.231   2.680   0.866  0.4358 -0.3144 -1.5439
20124SOL     OW63263   9.127   7.293   7.258  0.2019 -0.5347 -0.3113
20124SOL    HW163264   9.209   7.259   7.221  0.3940 -0.4964  0.0712
20124SOL    HW263265   9.115   7.377   7.214 -0.2329 -1.0452 -1.2033
20125SOL     OW63266   4.274   8.549   4.986 -0.0961  0.0999 -0.3534
20125SOL    HW163267   4.268   8.601   4.906 -0.4963  0.1329 -0.3047
20125SOL    HW263268   4.273   8.614   5.057 -1.1414  0.0019 -0.2721
20126SOL     OW63269   7.177   6.351   6.098  0.1095 -0.4582  0.2832
20126SOL    HW163270   7.130   6.409   6.158 -1.5658  1.3330 -2.5488
20126SOL    HW263271   7.121   6.345   6.021  2.3031 -2.3096 -1.2938
20127SOL     OW63272   1.959   5.381   0.221 -0.1423  0.0353 -0.5830
20127SOL    HW163273   2.051   5.397   0.242  0.0837 -1.1969 -0.5583
20127SOL    HW263274   1.950   5.408   0.130 -0.2935  2.1554  0.0045
20128SOL     OW63275   8.405   6.095   4.439 -0.1637 -0.3513 -0.5190
20128SOL    HW163276   8.480   6.099   4.499 -0.6962  1.3687  0.1024
20128SOL    HW263277   8.432   6.033   4.371  0.9834 -1.3389  0.7769
20129SOL     OW63278   0.399   6.585   3.229  0.1230 -0.4017  0.3209
20129SOL    HW163279   0.360   6.602   3.143  0.4872 -1.3948 -0.0585
20129SOL    HW263280   0.493   6.576   3.211  0.1171 -1.3061  0.7075
20130SOL     OW63281   6.610   7.665   1.930  0.5319 -0.0968 -0.6872
20130SOL    HW163282   6.685   7.677   1.987  0.3566 -0.5495 -0.3531
20130SOL    HW263283   6.554   7.603   1.977  0.2200 -0.2026 -1.1898
20131SOL     OW63284   4.872   2.536   2.303  0.1631  0.6688 -0.6222
20131SOL    HW163285   4.801   2.590   2.337 -0.4947 -0.2955 -0.4105
20131SOL    HW263286   4.901   2.581   2.224 -0.1468  1.4924 -0.2803
20132SOL     OW63287   1.247   5.987   3.881 -0.0970 -0.0478 -0.6062
20132SOL    HW163288   1.220   5.967   3.971 -1.3331  1.0160 -0.7272
20132SOL    HW263289   1.257   6.082   3.879 -0.3445 -0.0328 -1.6742
20133SOL     OW63290   5.031   1.621   3.608 -0.1310 -0.4205 -0.4845
20133SOL    HW163291   4.990   1.554   3.554  1.1637 -1.5256 -0.1732
20133SOL    HW263292   4.958   1.666   3.650 -1.0738 -1.0096 -1.4311
20134SOL     OW63293   0.335   6.144   1.767  0.0214  0.5881  0.0503
20134SOL    HW163294   0.254   6.170   1.810  0.3046  0.3179  0.7561
20134SOL    HW263295   0.339   6.049   1.778 -0.2550  0.4124 -1.1967
20135SOL     OW63296   0.900   8.425   2.359 -0.0007 -0.0619  0.1585
20135SOL    HW163297   0.930   8.494   2.419  0.0777 -0.7308  0.9078
20135SOL    HW263298   0.849   8.366   2.414 -0.9313 -0.0693 -0.6881
20136SOL     OW63299   0.163   6.764   4.560 -0.3628  0.1646 -0.2433
20136SOL    HW163300   0.203   6.717   4.633 -1.4598 -0.7486 -0.1878
20136SOL    HW263301   0.233   6.777   4.497  0.2967 -0.2189  0.4049
20137SOL     OW63302   4.723   6.147   1.931 -0.1164  0.0568  0.6655
20137SOL    HW163303   4.819   6.151   1.935 -0.0142 -1.9616  0.8369
20137SOL    HW263304   4.695   6.216   1.991  1.2782 -1.3192  3.0527
20138SOL     OW63305   5.898   5.411   5.740 -0.6582 -0.7672  0.1566
20138SOL    HW163306   5.902   5.501   5.773  0.1909 -0.4067 -0.8679
20138SOL    HW263307   5.823   5.373   5.785 -1.8061  0.8302 -0.2923
20139SOL     OW63308   8.967   8.811   0.392  0.5915 -0.2431  0.2245
20139SOL    HW163309   8.993   8.770   0.309 -1.0669 -0.1086 -0.4109
20139SOL    HW263310   9.034   8.784   0.454  3.2575  1.5510 -1.6277
20140SOL     OW63311   2.448   4.560   3.889  0.1000  0.3985 -0.3192
20140SOL    HW163312   2.440   4.481   3.836 -0.7441  0.2116  0.0768
20140SOL    HW263313   2.368   4.563   3.941  0.7265  0.7835  0.6710
20141SOL     OW63314   3.725   2.041   8.256 -0.5551  0.4755  0.3119
20141SOL    HW163315   3.816   2.047   8.227 -0.1796 -1.0058  1.0920
20141SOL    HW263316   3.689   1.967   8.208 -0.9430  0.2098  0.9993
20142SOL     OW63317   0.583   2.251   3.967 -0.1119 -0.0425  0.5662
20142SOL    HW163318   0.611   2.225   4.055  2.7808 -1.7597 -0.7232
20142SOL    HW263319   0.628   2.334   3.952  1.3800 -0.9162 -0.0798
20143SOL     OW63320   4.623   0.844   1.496 -0.0164  0.4718  0.2783
20143SOL    HW163321   4.549   0.783   1.490 -0.4459  0.8654  1.2509
20143SOL    HW263322   4.593   0.910   1.558  0.8442  1.1026  0.0320
20144SOL     OW63323   6.599   0.096   5.038 -0.1338  0.2083 -0.1136
20144SOL    HW163324   6.686   0.078   5.003  1.1780  1.8738  2.0128
20144SOL    HW263325   6.603   0.187   5.069 -2.4181  0.1352  0.6509
20145SOL     OW63326   1.306   4.016   7.734  0.2497  0.2230 -0.0733
20145SOL    HW163327   1.371   4.083   7.712 -1.3341  1.7579 -0.3120
20145SOL    HW263328   1.330   3.989   7.823  2.1164 -0.4166 -0.7186
20146SOL     OW63329   2.389   1.909   4.953 -0.1212  0.3081 -0.6313
20146SOL    HW163330   2.363   1.925   5.043  0.4040  1.6402 -0.7000
20146SOL    HW263331   2.311   1.932   4.901 -1.1434 -2.3819 -0.4551
20147SOL     OW63332   1.863   8.128   5.010  0.0749  0.3153  0.3074
20147SOL    HW163333   1.956   8.123   4.993 -0.1320 -0.4586 -0.6486
20147SOL    HW263334   1.841   8.046   5.054 -0.2654  0.2335 -0.0090
20148SOL     OW63335   3.846   1.441   0.907 -0.5491  0.3474  0.0002
20148SOL    HW163336   3.839   1.439   1.003 -0.8484 -1.4452 -0.0226
20148SOL    HW263337   3.901   1.518   0.888  0.7774 -0.1156  1.7011
20149SOL     OW63338   7.610   0.860   9.096  0.4757 -0.0368  0.3391
20149SOL    HW163339   7.698   0.892   9.116  0.6997  0.0131 -0.6618
20149SOL    HW263340   7.566   0.934   9.054 -0.5217  0.3917  2.0538
20150SOL     OW63341   1.919   6.276   9.063  0.3602 -0.2846 -0.2151
20150SOL    HW163342   2.012   6.296   9.073  0.2261  0.3769 -0.2156
20150SOL    HW263343   1.896   6.313   8.978 -0.1050  0.3757  0.1832
20151SOL     OW63344   2.338   2.614   5.270 -0.3443  0.2846 -0.2570
20151SOL    HW163345   2.306   2.650   5.187 -1.2430  1.6782  0.6591
20151SOL    HW263346   2.322   2.520   5.263  0.0369  0.3104 -1.8490
20152SOL     OW63347   8.193   9.156   8.700  0.5495  0.8004  0.1697
20152SOL    HW163348   8.174   9.131   8.791  0.2804  0.6654  0.0797
20152SOL    HW263349   8.141   9.236   8.687 -0.0307  0.3864 -0.1035
20153SOL     OW63350   4.956   4.545   3.818  0.2196  0.0242  0.7622
20153SOL    HW163351   4.949   4.492   3.898 -0.1822  0.4557  1.0197
20153SOL    HW263352   4.904   4.498   3.753  1.8089 -1.1700  0.2778
20154SOL     OW63353   7.495   7.587   6.328  0.0430  0.1774 -0.8739
20154SOL    HW163354   7.503   7.535   6.408 -0.5477  0.5255 -0.5812
20154SOL    HW263355   7.436   7.658   6.352 -0.1532  0.2731 -1.6265
20155SOL     OW63356   4.897   1.597   5.801  0.1657  0.0162 -0.0771
20155SOL    HW163357   4.871   1.628   5.887 -1.6056 -1.4246 -0.0406
20155SOL    HW263358   4.815   1.584   5.754  1.0730  0.5324 -1.9341
20156SOL     OW63359   5.256   3.283   0.925  0.2540  0.1461  0.3966
20156SOL    HW163360   5.227   3.192   0.915  1.3425 -0.5620  2.9783
20156SOL    HW263361   5.349   3.281   0.903 -0.3921  1.4735 -3.1543
20157SOL     OW63362   5.828   8.727   9.161  0.3929 -0.2586 -0.7087
20157SOL    HW163363   5.733   8.724   9.160  0.2830 -0.5356  2.1094
20157SOL    HW263364   5.853   8.673   9.236  2.5496  2.4163  0.6956
20158SOL     OW63365   0.096   8.137   9.159  0.1818 -0.2995  0.3635
20158SOL    HW163366   0.010   8.126   9.120 -0.2988 -1.4230  1.6623
20158SOL    HW263367   0.111   8.056   9.207  2.0033 -0.1491  0.1115
20159SOL     OW63368   1.562   4.064   4.181 -0.0589  0.1591  0.1807
20159SOL    HW163369   1.532   4.026   4.098  0.6689  0.4082 -0.2054
20159SOL    HW263370   1.519   4.150   4.183 -0.4517 -0.0353  0.2959
20160SOL     OW63371   6.901   3.266   3.127  0.3553  0.1974 -0.0828
20160SOL    HW163372   6.817   3.223   3.113 -0.5855  2.1607 -0.9438
20160SOL    HW263373   6.952   3.245   3.048 -0.8292  2.1441 -1.4686
20161SOL     OW63374   1.524   7.287   7.968  0.3161 -0.2331  0.8833
20161SOL    HW163375   1.502   7.376   7.995 -2.2518 -0.8999  1.2521
20161SOL    HW263376   1.610   7.271   8.007  0.6992  1.9586  1.0555
20162SOL     OW63377   2.343   4.066   0.858 -0.1948 -0.3813  0.3451
20162SOL    HW163378   2.283   4.110   0.797 -0.2421  2.2986  2.1492
20162SOL    HW263379   2.426   4.114   0.848  0.7458 -1.9856  0.1576
20163SOL     OW63380   4.082   1.706   4.448 -0.3889 -0.0195  0.3158
20163SOL    HW163381   4.043   1.621   4.431  0.0433 -0.4741  1.5063
20163SOL    HW263382   4.039   1.737   4.528  0.7511  0.0450  0.9232
20164SOL     OW63383   7.228   3.929   0.559 -0.2497 -0.1254 -0.3840
20164SOL    HW163384   7.265   3.979   0.485  0.8654 -0.4061 -0.0402
20164SOL    HW263385   7.150   3.888   0.523 -0.3313  0.6271 -1.1063
20165SOL     OW63386   5.469   1.804   8.679 -0.2619 -0.1151 -0.0330
20165SOL    HW163387   5.391   1.857   8.696  1.4885  2.6792 -0.0800
20165SOL    HW263388   5.515   1.801   8.762  0.0673 -0.8757 -0.2370
20166SOL     OW63389   8.747   4.189   4.702 -0.2886  0.1632 -0.7875
20166SOL    HW163390   8.786   4.268   4.667 -0.5071 -0.4704 -2.5744
20166SOL    HW263391   8.813   4.121   4.688 -0.1488 -0.0170  0.6080
20167SOL     OW63392   1.109   0.794   1.630 -0.2544 -0.5819 -1.0185
20167SOL    HW163393   1.197   0.758   1.617  0.5925  0.8852  0.3792
20167SOL    HW263394   1.068   0.733   1.691  1.3523  0.8978  1.7494
20168SOL     OW63395   4.980   0.680   6.042  0.0536 -0.1063 -0.2384
20168SOL    HW163396   5.048   0.731   5.998  0.5316  0.5788  1.2625
20168SOL    HW263397   4.898   0.711   6.004  0.3868  1.3068  0.1667
20169SOL     OW63398   8.419   6.268   1.805 -0.8559  0.0851 -0.0846
20169SOL    HW163399   8.454   6.299   1.721 -0.3153 -2.6584 -0.9576
20169SOL    HW263400   8.473   6.313   1.871  1.5654 -0.8373 -1.3274
20170SOL     OW63401   2.234   3.333   4.394  0.1219 -0.3702  0.7703
20170SOL    HW163402   2.311   3.349   4.340 -0.4357 -0.6658 -0.1417
20170SOL    HW263403   2.198   3.251   4.362  0.9947 -1.7396  3.0782
20171SOL     OW63404   5.148   9.013   0.872 -0.2624 -0.2579  0.1854
20171SOL    HW163405   5.071   8.965   0.840 -0.8091  1.1529 -0.7039
20171SOL    HW263406   5.169   8.971   0.956 -2.4120 -0.2703  0.7776
20172SOL     OW63407   1.822   0.187   2.683 -0.2473 -0.3677  0.4024
20172SOL    HW163408   1.736   0.193   2.723  0.3073 -0.8728  1.7159
20172SOL    HW263409   1.807   0.134   2.604 -1.4633  1.1970 -0.4853
20173SOL     OW63410   7.294   9.198   7.452 -0.0230 -0.2787 -0.4293
20173SOL    HW163411   7.287   9.290   7.477  1.8589  0.4972 -2.4261
20173SOL    HW263412   7.246   9.192   7.369 -1.0160 -1.3794  0.1870
20174SOL     OW63413   1.164   5.993   4.189  0.4534  0.2503  0.3465
20174SOL    HW163414   1.210   6.065   4.233  0.9133  0.2548 -0.1277
20174SOL    HW263415   1.184   5.916   4.242  1.5459  0.1386 -0.2011
20175SOL     OW63416   3.351   1.834   2.169  0.1225  0.1114  0.1363
20175SOL    HW163417   3.306   1.840   2.253  1.5927  0.1669  0.9582
20175SOL    HW263418   3.284   1.856   2.104 -1.5841 -1.8124  1.1112
20176SOL     OW63419   5.505   5.840   2.543  0.2328 -0.5686 -0.4347
20176SOL    HW163420   5.584   5.814   2.590  1.0417  2.8087  0.4006
20176SOL    HW263421   5.536   5.860   2.454  0.0087 -0.6996 -0.5429
20177SOL     OW63422   7.153   8.009   2.891  0.0391 -0.3131  0.0187
20177SOL    HW163423   7.208   7.991   2.968 -1.2177  1.1134  1.3130
20177SOL    HW263424   7.213   8.050   2.828  0.4159  1.7988  1.6396
20178SOL     OW63425   7.296   2.629   4.414 -0.2231  0.2943 -0.2031
20178SOL    HW163426   7.289   2.716   4.374 -0.9826  0.6018  0.5577
20178SOL    HW263427   7.358   2.582   4.359  0.0507  1.2559 -0.7421
20179SOL     OW63428   2.489   4.405   7.037 -0.3459 -0.3776 -0.4276
20179SOL    HW163429   2.394   4.403   7.022 -0.1491 -2.2836 -1.7193
20179SOL    HW263430   2.509   4.499   7.046 -2.4334  0.0361  0.7006
20180SOL     OW63431   7.133   5.551   8.558 -0.0812  0.0246  0.2741
20180SOL    HW163432   7.179   5.499   8.492  0.5471  2.7086 -1.5545
20180SOL    HW263433   7.159   5.512   8.641 -0.5039 -3.1805 -0.9500
20181SOL     OW63434   8.864   8.307   1.450  0.0817  0.4870  0.5575
20181SOL    HW163435   8.820   8.368   1.511  3.0128  3.7720 -0.2853
20181SOL    HW263436   8.796   8.284   1.387 -1.8826  0.5629  2.4946
20182SOL     OW63437   3.882   8.516   7.944  0.4829 -0.4243 -0.7660
20182SOL    HW163438   3.842   8.430   7.932  1.2540 -0.7454 -1.1633
20182SOL    HW263439   3.809   8.575   7.961 -0.0640 -1.1457 -0.5649
20183SOL     OW63440   3.397   6.780   8.372  0.1501  0.3129 -0.0392
20183SOL    HW163441   3.469   6.744   8.319  0.7529 -0.1563  1.0422
20183SOL    HW263442   3.378   6.710   8.435 -1.2083  0.4776 -0.2536
20184SOL     OW63443   6.593   0.724   3.391  0.5747 -0.8703 -0.5373
20184SOL    HW163444   6.560   0.711   3.302 -0.1245 -2.2939 -0.0902
20184SOL    HW263445   6.683   0.756   3.379  0.4968 -1.0554 -1.7443
20185SOL     OW63446   8.035   6.539   1.988 -0.0579  0.2733  0.5636
20185SOL    HW163447   8.019   6.503   2.075  0.0017  0.5952  0.7102
20185SOL    HW263448   7.960   6.598   1.973 -1.0965 -1.2286 -0.4054
20186SOL     OW63449   1.221   6.308   7.875  0.3573  0.8561 -0.3517
20186SOL    HW163450   1.148   6.267   7.829  0.2789  0.1119  0.4230
20186SOL    HW263451   1.179   6.359   7.944  0.5676  0.4748  0.0578
20187SOL     OW63452   2.695   7.145   7.121  0.5550 -0.0911 -0.6237
20187SOL    HW163453   2.700   7.050   7.117 -0.5555 -0.2763  1.1134
20187SOL    HW263454   2.784   7.175   7.099  1.4301 -1.6223  0.6196
20188SOL     OW63455   7.003   7.129   4.184 -0.8185 -0.1878  0.2221
20188SOL    HW163456   7.062   7.196   4.150  0.6836 -1.0311  1.0918
20188SOL    HW263457   6.920   7.175   4.196 -0.4565  0.9546 -1.3144
20189SOL     OW63458   4.534   5.954   3.545  0.0426  0.1144 -0.3715
20189SOL    HW163459   4.623   5.927   3.569  0.4368 -1.3527 -3.1432
20189SOL    HW263460   4.477   5.903   3.602  0.9434 -1.9373 -1.2271
20190SOL     OW63461   3.070   2.409   1.380  0.1319 -0.2242 -0.4684
20190SOL    HW163462   3.033   2.368   1.459  0.7824  0.4810  0.2158
20190SOL    HW263463   3.146   2.355   1.358  1.7901  1.2752  1.2096
20191SOL     OW63464   2.662   2.334   7.237  0.0679  0.3051 -0.1776
20191SOL    HW163465   2.603   2.375   7.175 -0.3742  1.0605  0.7181
20191SOL    HW263466   2.630   2.362   7.323 -0.2429 -1.9004  0.4870
20192SOL     OW63467   0.501   3.534   6.100 -0.1454 -0.2856  0.5973
20192SOL    HW163468   0.454   3.487   6.032 -0.6401 -0.2866  0.9349
20192SOL    HW263469   0.433   3.580   6.149  0.3331  0.9229  0.1726
20193SOL     OW63470   6.500   0.165   7.087 -0.0019 -0.6184 -0.2470
20193SOL    HW163471   6.590   0.131   7.088  0.3645  0.3224  0.6636
20193SOL    HW263472   6.449   0.097   7.131  0.2954 -1.0703 -0.5880
20194SOL     OW63473   0.293   8.300   8.523 -0.4844  0.1620 -0.1293
20194SOL    HW163474   0.349   8.316   8.599 -2.1764  0.5566  1.0915
20194SOL    HW263475   0.284   8.204   8.520  0.1654  0.0993 -0.2954
20195SOL     OW63476   9.191   0.081   7.493 -0.2718 -0.3139 -0.4580
20195SOL    HW163477   9.260   0.069   7.558 -1.1923  1.9358  1.0398
20195SOL    HW263478   9.235   0.119   7.418  0.7049 -2.3832 -0.9983
20196SOL     OW63479   8.553   7.457   7.172  0.1803 -0.5310  0.0625
20196SOL    HW163480   8.562   7.519   7.100  0.0046  0.0047  0.4959
20196SOL    HW263481   8.544   7.511   7.250  1.2359 -1.0984  0.6055
20197SOL     OW63482   0.761   6.534   4.570 -0.0419 -0.0480  0.6162
20197SOL    HW163483   0.787   6.442   4.580  2.7145  0.4564 -0.8994
20197SOL    HW263484   0.681   6.530   4.518  0.3956 -1.6101 -0.0148
20198SOL     OW63485   4.599   2.050   0.520 -0.2508 -0.2255  0.1093
20198SOL    HW163486   4.656   2.100   0.462  0.9853 -1.5091  0.1352
20198SOL    HW263487   4.654   1.977   0.551 -2.1773 -2.1329 -0.6633
20199SOL     OW63488   2.502   6.357   7.251 -0.3849 -0.5406  0.2642
20199SOL    HW163489   2.500   6.390   7.161  0.8882 -1.2548 -0.0529
20199SOL    HW263490   2.500   6.262   7.241  1.1829 -0.6687  0.9025
20200SOL     OW63491   5.095   3.271   6.924 -0.1807  0.1847 -0.3268
20200SOL    HW163492   5.132   3.311   6.845  0.1835  0.1985 -0.1533
20200SOL    HW263493   5.099   3.340   6.990 -0.7163  0.2513 -0.3612
20201SOL     OW63494   3.313   1.770   6.918  0.0310 -0.3393  0.3071
20201SOL    HW163495   3.380   1.810   6.973 -0.2673  0.4255  0.1285
20201SOL    HW263496   3.237   1.761   6.975 -0.2596  0.3991  0.0567
20202SOL     OW63497   6.110   0.978   0.899  0.1844  0.0502  0.0586
20202SOL    HW163498   6.157   0.926   0.834  0.6634 -1.0963  1.2740
20202SOL    HW263499   6.167   1.052   0.918  0.0071  0.4359 -0.8521
20203SOL     OW63500   7.768   0.865   8.757  0.5063  0.0367  0.1307
20203SOL    HW163501   7.789   0.905   8.673 -1.1931  0.6109 -0.0573
20203SOL    HW263502   7.798   0.929   8.822 -0.6297  0.8667 -0.1307
20204SOL     OW63503   8.752   7.270   6.190 -0.7432 -0.0257 -0.1296
20204SOL    HW163504   8.677   7.321   6.159 -1.3229  1.4173  3.2102
20204SOL    HW263505   8.825   7.333   6.190 -0.7224 -0.0358  1.1670
20205SOL     OW63506   8.277   0.178   8.939 -0.3619  0.9191  0.0676
20205SOL    HW163507   8.363   0.174   8.982 -1.2380 -0.7150  1.8099
20205SOL    HW263508   8.297   0.183   8.846  1.6279  3.2164  0.4997
20206SOL     OW63509   7.532   8.222   8.549 -0.2393 -0.0103  0.1649
20206SOL    HW163510   7.580   8.254   8.625 -0.5593 -0.4336  0.5480
20206SOL    HW263511   7.441   8.249   8.565 -0.2657  0.1199 -0.1876
20207SOL     OW63512   8.229   5.240   7.517 -0.0073 -0.1460  0.0786
20207SOL    HW163513   8.172   5.272   7.446 -0.7572 -1.9740 -0.1878
20207SOL    HW263514   8.317   5.243   7.479 -0.5938 -3.3572 -1.9411
20208SOL     OW63515   0.530   1.113   3.979 -0.6091 -0.0730  0.1485
20208SOL    HW163516   0.489   1.145   4.059 -2.6314  1.0757 -1.2490
20208SOL    HW263517   0.480   1.034   3.956 -0.5807  0.0642 -0.3975
20209SOL     OW63518   3.765   4.472   2.602  0.0849 -0.1273  0.1197
20209SOL    HW163519   3.764   4.510   2.514  1.9573  0.5630  0.3507
20209SOL    HW263520   3.679   4.432   2.612 -2.4089  4.5498  0.0637
20210SOL     OW63521   3.241   6.138   6.720  0.1739  0.2560 -0.2195
20210SOL    HW163522   3.194   6.181   6.792 -0.8415 -1.2579  0.0640
20210SOL    HW263523   3.176   6.129   6.651  0.7926  0.5034 -0.8535
20211SOL     OW63524   8.928   9.182   5.616 -0.9190 -0.3440 -0.3484
20211SOL    HW163525   8.855   9.215   5.563 -0.4206 -1.8989 -2.1126
20211SOL    HW263526   8.893   9.105   5.660 -0.5188 -0.7561 -0.7419
20212SOL     OW63527   5.393   4.800   6.563  0.5708  0.3634  0.2724
20212SOL    HW163528   5.436   4.792   6.648  0.4201  1.5013  0.4623
20212SOL    HW263529   5.358   4.712   6.546  0.0586  0.2775  1.6721
20213SOL     OW63530   2.531   3.714   0.417 -0.2384  0.3302  0.3901
20213SOL    HW163531   2.564   3.644   0.360  1.5095  2.1870 -1.0368
20213SOL    HW263532   2.496   3.779   0.356 -1.5385  0.8783  1.6679
20214SOL     OW63533   0.395   7.740   3.848 -0.3543  0.6124 -0.1582
20214SOL    HW163534   0.387   7.809   3.782  0.8859  0.9097 -0.0264
20214SOL    HW263535   0.420   7.662   3.798 -0.5672  0.5548 -0.1737
20215SOL     OW63536   6.671   3.795   6.145  0.2210  0.1895  0.3851
20215SOL    HW163537   6.578   3.792   6.123 -0.2116  0.3700  2.0522
20215SOL    HW263538   6.707   3.715   6.107 -0.7281 -0.1658  0.1959
20216SOL     OW63539   8.805   8.289   0.883 -0.4243  0.1449 -0.5710
20216SOL    HW163540   8.804   8.226   0.811 -2.0871 -1.4771  0.8109
20216SOL    HW263541   8.716   8.321   0.888 -0.0106  1.2612 -0.0558
20217SOL     OW63542   1.181   9.074   2.741 -0.7635  0.7283  0.2176
20217SOL    HW163543   1.246   9.015   2.780 -1.0431  0.4573  0.2709
20217SOL    HW263544   1.153   9.029   2.661  1.5217  2.3052 -1.6095
20218SOL     OW63545   1.617   6.314   2.624  0.3656 -0.4889  0.3921
20218SOL    HW163546   1.680   6.384   2.604 -0.4407  0.1408 -0.0418
20218SOL    HW263547   1.627   6.298   2.717  0.8333 -0.0502  0.4219
20219SOL     OW63548   6.326   7.431   2.287 -0.0543 -0.4561 -1.1519
20219SOL    HW163549   6.310   7.525   2.289  1.3452 -0.1630 -2.4334
20219SOL    HW263550   6.272   7.396   2.358 -1.6027  1.1429 -1.4638
20220SOL     OW63551   0.429   8.844   4.602 -0.3192  0.4827 -0.4327
20220SOL    HW163552   0.467   8.756   4.601 -0.2871  0.4935 -0.0138
20220SOL    HW263553   0.408   8.861   4.694  0.6743  1.3449 -0.3532
20221SOL     OW63554   3.678   5.516   8.371  0.2724 -0.0032  0.5898
20221SOL    HW163555   3.609   5.484   8.428  0.8906 -1.6416  0.4655
20221SOL    HW263556   3.638   5.517   8.283 -0.3607  1.5605  0.8493
20222SOL     OW63557   4.981   2.018   1.391  0.2811 -0.0418 -0.4446
20222SOL    HW163558   5.016   2.092   1.441  0.1405  0.5180 -1.1656
20222SOL    HW263559   5.027   1.942   1.426  2.4884  0.6845 -1.5545
20223SOL     OW63560   7.120   7.689   9.136  0.5273 -0.2530  0.0300
20223SOL    HW163561   7.086   7.640   9.061 -0.9440  2.8934 -1.5385
20223SOL    HW263562   7.164   7.765   9.098  1.3323  0.5434  2.3499
20224SOL     OW63563   0.654   3.177   1.023  0.3870 -0.0253 -0.1887
20224SOL    HW163564   0.609   3.104   0.981 -0.4946  0.6266 -0.4050
20224SOL    HW263565   0.685   3.231   0.951  1.5249 -0.4601 -0.0383
20225SOL     OW63566   0.214   7.828   7.274 -0.4550 -0.3012 -0.0273
20225SOL    HW163567   0.238   7.817   7.182 -0.0956 -0.9267  0.1360
20225SOL    HW263568   0.189   7.920   7.281  1.1860  0.2136 -0.3771
20226SOL     OW63569   4.453   2.444   0.429 -0.6725  0.3224 -0.0397
20226SOL    HW163570   4.384   2.398   0.478 -2.0397  1.1553 -1.1053
20226SOL    HW263571   4.448   2.408   0.341  1.2551 -0.6181  0.1902
20227SOL     OW63572   3.238   9.148   6.598 -0.3415  0.1414 -0.3445
20227SOL    HW163573   3.166   9.117   6.543  0.1278  0.4607 -1.1529
20227SOL    HW263574   3.233   9.094   6.676 -1.0923 -0.2482 -0.6488
20228SOL     OW63575   7.105   0.539   6.886 -0.3519 -0.2058 -0.2805
20228SOL    HW163576   7.065   0.596   6.951  1.5009 -0.0124  0.7633
20228SOL    HW263577   7.177   0.591   6.849 -0.7228 -0.6829 -1.7592
20229SOL     OW63578   1.629   8.000   4.741 -0.3233  1.1495 -0.7828
20229SOL    HW163579   1.582   8.084   4.746 -2.6819 -0.0701 -1.2950
20229SOL    HW263580   1.593   7.957   4.663  0.8417 -0.3452 -0.5306
20230SOL     OW63581   7.173   6.354   5.015  0.0888  0.0746 -0.3554
20230SOL    HW163582   7.200   6.347   5.107  1.2645 -0.6211 -0.7289
20230SOL    HW263583   7.253   6.378   4.968 -0.5486  0.6559 -1.1697
20231SOL     OW63584   3.184   8.572   8.155  0.0469 -0.0768  0.1463
20231SOL    HW163585   3.268   8.531   8.173  0.7984  0.4611 -1.9323
20231SOL    HW263586   3.120   8.502   8.165  1.0110 -1.0992 -0.6337
20232SOL     OW63587   2.803   8.810   6.023  0.4675  0.3849 -0.1686
20232SOL    HW163588   2.800   8.722   6.060 -1.1388  1.0882  1.5328
20232SOL    HW263589   2.871   8.855   6.074  0.0194  0.6329  0.2168
20233SOL     OW63590   1.102   8.907   2.534  0.2622  0.2030 -0.5230
20233SOL    HW163591   1.039   8.959   2.485 -0.2041 -0.7504 -0.9772
20233SOL    HW263592   1.164   8.876   2.468 -0.6360 -1.4771 -0.6532
20234SOL     OW63593   3.035   6.748   0.494  0.0373  0.1034  0.4872
20234SOL    HW163594   2.966   6.707   0.547  0.5996 -1.4595  0.0661
20234SOL    HW263595   3.061   6.825   0.544  0.2291 -1.0715  2.2947
20235SOL     OW63596   2.167   6.010   3.411  0.0045  0.6738  0.1851
20235SOL    HW163597   2.082   6.054   3.419 -0.1169  0.2662  1.2699
20235SOL    HW263598   2.179   5.966   3.495  0.4724 -0.7452 -0.6044
20236SOL     OW63599   3.889   0.238   1.287 -0.2362 -0.1061  0.3542
20236SOL    HW163600   3.931   0.152   1.295 -1.7734 -1.4314 -3.4124
20236SOL    HW263601   3.942   0.283   1.221 -0.3674  1.2291  1.1490
20237SOL     OW63602   6.657   5.236   3.692  0.2091  0.5360  0.4380
20237SOL    HW163603   6.606   5.186   3.756 -2.4080 -0.3997 -2.1705
20237SOL    HW263604   6.733   5.181   3.674 -1.9039 -2.0590 -1.3188
20238SOL     OW63605   7.319   4.438   0.065  0.7653  0.3184  0.1720
20238SOL    HW163606   7.362   4.401   0.142 -1.1042 -1.6402  0.3453
20238SOL    HW263607   7.285   4.363   0.017 -0.4042  1.6476 -1.1907
20239SOL     OW63608   7.871   3.695   7.434  0.3653  0.3728  0.0033
20239SOL    HW163609   7.899   3.624   7.491 -0.2604  1.2256  1.4268
20239SOL    HW263610   7.855   3.768   7.494  0.8849  1.6822 -1.4053
20240SOL     OW63611   9.055   6.523   0.866 -0.1049  0.6843 -0.1042
20240SOL    HW163612   9.015   6.491   0.946  0.2106 -0.8559 -0.5291
20240SOL    HW263613   9.128   6.463   0.849  0.9570  2.0571 -0.5838
20241SOL     OW63614   3.006   6.394   4.167 -0.1575 -0.5656  0.5439
20241SOL    HW163615   3.002   6.313   4.116  2.9294 -1.6775  1.8280
20241SOL    HW263616   2.981   6.368   4.256 -0.7787  0.2843  0.6278
20242SOL     OW63617   3.505   7.711   0.818  0.1753  0.0576 -0.2361
20242SOL    HW163618   3.587   7.752   0.845  0.1138 -0.6113  1.0356
20242SOL    HW263619   3.437   7.760   0.863  0.0254 -0.6460  0.3247
20243SOL     OW63620   4.389   2.179   5.671 -0.0058  0.4929  0.2294
20243SOL    HW163621   4.359   2.267   5.650  0.5868  0.3511 -1.3290
20243SOL    HW263622   4.309   2.126   5.669 -0.1984  0.7884 -0.0578
20244SOL     OW63623   8.314   1.525   5.726  0.4375  0.0697 -0.4340
20244SOL    HW163624   8.395   1.573   5.740 -0.2918  0.6742  2.5731
20244SOL    HW263625   8.273   1.567   5.651  0.6884  3.0720  0.9665
20245SOL     OW63626   4.101   2.226   8.417  0.2778  0.4122 -0.3426
20245SOL    HW163627   4.055   2.166   8.476  0.5126  0.3867 -0.1828
20245SOL    HW263628   4.148   2.169   8.356  1.7705  0.3760  0.7686
20246SOL     OW63629   1.661   6.902   2.733 -0.5659 -0.0675 -0.2342
20246SOL    HW163630   1.595   6.834   2.747  0.0215 -0.4635  0.7106
20246SOL    HW263631   1.743   6.863   2.762 -0.4984  1.6274  2.1963
20247SOL     OW63632   1.876   1.754   2.758 -0.0664 -0.3384 -0.0214
20247SOL    HW163633   1.836   1.669   2.776  1.0292 -0.7160  0.7199
20247SOL    HW263634   1.969   1.735   2.746  0.0629  0.6442 -0.7485
20248SOL     OW63635   1.552   6.410   8.123 -0.4139  0.1701 -0.1012
20248SOL    HW163636   1.530   6.325   8.085  0.3427  0.1712 -0.5572
20248SOL    HW263637   1.531   6.473   8.054 -1.8053  0.4555  0.5438
20249SOL     OW63638   1.587   8.590   8.636  0.4572 -0.3718 -0.5635
20249SOL    HW163639   1.578   8.495   8.644 -1.5594 -0.3993 -2.2121
20249SOL    HW263640   1.651   8.602   8.565  0.5469 -0.5137 -0.5070
20250SOL     OW63641   2.269   5.192   3.550  0.0100 -0.2365  0.1549
20250SOL    HW163642   2.189   5.140   3.548 -0.6690  0.6918  1.5673
20250SOL    HW263643   2.239   5.282   3.559  1.1945  0.2525 -0.6580
20251SOL     OW63644   5.023   5.931   1.986  0.2624 -0.5835 -0.6809
20251SOL    HW163645   5.003   6.023   1.975 -0.5183 -0.3706  1.8480
20251SOL    HW263646   4.951   5.885   1.943 -2.1082  0.1237  2.1900
20252SOL     OW63647   7.536   3.547   7.405  0.8504  0.4552 -0.0641
20252SOL    HW163648   7.573   3.489   7.472  1.2748 -0.0192 -0.6895
20252SOL    HW263649   7.608   3.560   7.343  0.9345  2.1289  0.3542
20253SOL     OW63650   8.650   1.714   2.863  0.2026 -0.3290  0.0892
20253SOL    HW163651   8.618   1.675   2.781 -0.2210 -1.1535  0.6342
20253SOL    HW263652   8.570   1.733   2.912  0.2982  2.3384 -0.6072
20254SOL     OW63653   1.140   7.371   2.388 -0.1732  0.2853 -0.2890
20254SOL    HW163654   1.188   7.427   2.449 -0.1910 -0.5060  0.4636
20254SOL    HW263655   1.185   7.287   2.392 -1.1976 -0.2672 -0.0829
20255SOL     OW63656   2.611   6.768   1.669  0.0728 -0.3506  0.3208
20255SOL    HW163657   2.702   6.748   1.646  0.4923 -0.7269  2.1720
20255SOL    HW263658   2.569   6.682   1.676 -1.6650 -0.2739 -4.5739
20256SOL     OW63659   7.243   5.847   0.668  0.5415 -0.2961  0.1187
20256SOL    HW163660   7.150   5.837   0.652  0.6620 -2.2595  0.4322
20256SOL    HW263661   7.279   5.759   0.660  1.9863  0.0084  2.3213
20257SOL     OW63662   6.620   3.510   7.013  0.1811  0.2792  0.0310
20257SOL    HW163663   6.697   3.534   7.065 -0.2615  0.0740  0.8143
20257SOL    HW263664   6.554   3.576   7.036 -0.3293 -0.3723  0.4899
20258SOL     OW63665   2.315   7.296   1.666  0.0806  0.0344  0.2938
20258SOL    HW163666   2.294   7.214   1.710 -2.4177  0.4086 -0.0681
20258SOL    HW263667   2.358   7.269   1.585 -0.6576 -0.9443  0.2104
20259SOL     OW63668   4.652   2.213   5.790  0.3514 -0.5054 -0.6532
20259SOL    HW163669   4.692   2.300   5.788  1.0305 -0.7255  1.3997
20259SOL    HW263670   4.566   2.226   5.750 -0.0323  1.3971  0.6432
20260SOL     OW63671   3.046   0.568   0.867 -0.0699 -0.3661  0.5586
20260SOL    HW163672   2.993   0.637   0.828  0.5715 -0.7233 -0.9983
20260SOL    HW263673   3.037   0.494   0.807 -0.0091 -1.3418  1.7139
20261SOL     OW63674   6.229   7.566   7.238 -0.2754 -0.4259 -0.6338
20261SOL    HW163675   6.172   7.608   7.174 -1.2282 -1.4349 -0.4828
20261SOL    HW263676   6.183   7.577   7.322  0.1203 -0.6028 -0.3906
20262SOL     OW63677   3.910   3.540   0.649 -0.0880 -0.2100  0.3539
20262SOL    HW163678   3.914   3.517   0.556  0.1411 -0.7996  0.5040
20262SOL    HW263679   3.937   3.460   0.695 -1.1355 -0.2473  0.9613
20263SOL     OW63680   0.232   8.482   5.410 -0.2496  0.5043 -0.2959
20263SOL    HW163681   0.314   8.439   5.385  0.1613  0.3095  1.2582
20263SOL    HW263682   0.260   8.561   5.457 -0.8999 -0.1279  1.2328
20264SOL     OW63683   5.412   4.898   0.115  0.0225 -0.0005  0.0671
20264SOL    HW163684   5.419   4.890   0.020  1.3937 -0.0451  0.1471
20264SOL    HW263685   5.496   4.866   0.148 -0.6755 -0.6222  1.3438
20265SOL     OW63686   7.906   8.157   2.436  0.3676  0.6069 -0.5893
20265SOL    HW163687   7.853   8.153   2.356  0.4511  0.7049 -0.6493
20265SOL    HW263688   7.869   8.089   2.492 -1.6552  2.4675  0.4753
20266SOL     OW63689   3.995   0.307   7.215 -0.9330 -0.1615  0.3226
20266SOL    HW163690   4.001   0.387   7.266  0.7245 -1.1504  1.7951
20266SOL    HW263691   4.076   0.304   7.164 -0.8450 -1.0258  0.4891
20267SOL     OW63692   0.958   6.192   4.324 -0.8770 -0.5401  0.5570
20267SOL    HW163693   1.042   6.171   4.363 -1.1579  0.1379  1.5532
20267SOL    HW263694   0.915   6.107   4.313 -0.7620 -0.7502  1.6500
20268SOL     OW63695   7.904   0.240   0.888 -0.1617 -0.0787 -0.5831
20268SOL    HW163696   7.904   0.146   0.872  0.5040 -0.2448  0.2630
20268SOL    HW263697   7.991   0.257   0.925 -0.4619  0.7791 -0.2572
20269SOL     OW63698   7.321   7.287   4.753 -0.1566 -0.1328 -0.1509
20269SOL    HW163699   7.289   7.322   4.837  0.3694 -1.3181  0.5572
20269SOL    HW263700   7.301   7.194   4.756  0.1169 -0.2399 -1.2402
20270SOL     OW63701   7.413   0.277   4.377  0.1772  0.0151  0.0001
20270SOL    HW163702   7.376   0.365   4.373  0.1401  0.0128  0.2812
20270SOL    HW263703   7.337   0.219   4.375  0.2164 -0.0226 -0.5413
20271SOL     OW63704   5.792   0.944   2.516  0.0496  0.1354  0.5821
20271SOL    HW163705   5.873   0.995   2.515  0.3772 -0.3886 -0.3500
20271SOL    HW263706   5.727   1.002   2.557  0.6620  0.9104  0.4637
20272SOL     OW63707   7.166   1.990   0.756  0.3324 -0.5068 -0.1146
20272SOL    HW163708   7.081   1.975   0.715  0.3991 -0.2432 -0.3431
20272SOL    HW263709   7.170   2.084   0.771  0.3659 -0.5783  0.3722
20273SOL     OW63710   2.232   6.363   2.124  0.3390 -0.4484  0.1613
20273SOL    HW163711   2.139   6.355   2.101 -0.2418  0.6192  1.9256
20273SOL    HW263712   2.263   6.272   2.128 -1.2365 -0.9767  1.7514
20274SOL     OW63713   7.246   3.020   1.274 -0.4220 -0.6736 -0.3642
20274SOL    HW163714   7.247   2.934   1.315 -1.0467 -0.8672 -0.7456
20274SOL    HW263715   7.229   3.081   1.345  4.4324 -0.3017  0.8639
20275SOL     OW63716   2.576   2.450   8.547  0.1998 -0.6619 -0.1088
20275SOL    HW163717   2.594   2.542   8.566  0.5315 -0.7929  0.2322
20275SOL    HW263718   2.612   2.436   8.459 -0.7487 -0.2217 -0.5853
20276SOL     OW63719   5.805   5.051   2.427 -0.2874  0.2994 -0.3287
20276SOL    HW163720   5.738   5.083   2.487  0.6187  0.8421  0.4094
20276SOL    HW263721   5.818   5.123   2.365 -0.8435 -0.0592 -0.8769
20277SOL     OW63722   1.202   8.993   8.344 -0.1293 -0.4774  0.1569
20277SOL    HW163723   1.242   8.989   8.257 -0.3131 -0.8471  0.0870
20277SOL    HW263724   1.219   9.082   8.374 -1.6929  0.2807 -1.0441
20278SOL     OW63725   5.934   4.096   5.868  0.0942  0.1762  0.1447
20278SOL    HW163726   5.919   4.006   5.842 -0.0722 -0.0554  0.9895
20278SOL    HW263727   5.971   4.138   5.791  1.0002 -0.8299  0.0069
20279SOL     OW63728   3.256   4.131   0.849 -0.0470  0.4871  0.4269
20279SOL    HW163729   3.304   4.104   0.927 -2.0693 -0.5186  1.4264
20279SOL    HW263730   3.251   4.226   0.856  2.7712  0.7690 -0.3849
20280SOL     OW63731   7.082   2.736   1.983  0.1039 -0.4190  0.0433
20280SOL    HW163732   7.043   2.808   1.934 -0.1544 -0.1294  0.6669
20280SOL    HW263733   7.027   2.660   1.961 -0.9907  0.0367  1.1073
20281SOL     OW63734   4.251   8.305   5.259 -0.5005  0.2194 -0.3797
20281SOL    HW163735   4.171   8.320   5.308 -0.9742 -0.8434 -0.8065
20281SOL    HW263736   4.223   8.301   5.168  0.0970  0.1975 -0.5676
20282SOL     OW63737   1.375   2.886   0.083  0.1843 -0.3359  0.5849
20282SOL    HW163738   1.344   2.872   0.172  0.5599 -0.7213  0.6609
20282SOL    HW263739   1.307   2.850   0.027 -0.9054  1.5152  0.6450
20283SOL     OW63740   6.558   1.510   1.481  0.1443 -0.2570  0.0291
20283SOL    HW163741   6.595   1.428   1.514 -1.0535 -1.1506 -0.7599
20283SOL    HW263742   6.598   1.521   1.395  1.0005  0.4906  0.5108
20284SOL     OW63743   2.411   4.305   3.734 -0.9384  0.2320 -0.0820
20284SOL    HW163744   2.424   4.210   3.733 -1.3811  0.1424  1.1220
20284SOL    HW263745   2.384   4.327   3.645  1.0902 -0.4793 -0.9321
20285SOL     OW63746   2.676   6.415   4.621 -0.7528 -0.3105 -0.5657
20285SOL    HW163747   2.755   6.468   4.611  1.2415 -2.4191  2.4630
20285SOL    HW263748   2.615   6.473   4.668  0.3526  0.2032  0.2791
20286SOL     OW63749   7.866   1.419   4.291 -0.0365 -0.0577 -0.3604
20286SOL    HW163750   7.884   1.326   4.276  1.1135  0.0790  0.0306
20286SOL    HW263751   7.946   1.463   4.261 -0.6641  0.8261 -0.7542
20287SOL     OW63752   4.384   0.769   0.917  0.9751 -0.1639 -0.2114
20287SOL    HW163753   4.433   0.773   0.835  0.6903  0.1217 -0.3701
20287SOL    HW263754   4.398   0.679   0.949  1.2864 -0.1992 -0.4463
20288SOL     OW63755   8.360   0.649   1.784  0.3616 -0.0566 -0.0848
20288SOL    HW163756   8.391   0.713   1.721 -2.8551  1.3539 -0.4475
20288SOL    HW263757   8.408   0.668   1.865 -1.0511  3.4950  0.0755
20289SOL     OW63758   0.325   8.479   7.827  0.0409  0.0958  0.6104
20289SOL    HW163759   0.362   8.428   7.899 -0.9169 -0.7410  0.5385
20289SOL    HW263760   0.266   8.418   7.783 -0.4535  1.0136 -0.0296
20290SOL     OW63761   5.426   6.317   3.446  0.3797  0.5082 -0.8666
20290SOL    HW163762   5.461   6.404   3.429 -2.0343  1.5577 -0.8369
20290SOL    HW263763   5.443   6.267   3.366 -0.0433  1.6534 -1.6926
20291SOL     OW63764   7.670   0.027   6.465 -0.6461 -0.0498  0.0027
20291SOL    HW163765   7.646   0.046   6.375 -1.7220  1.4010  0.5566
20291SOL    HW263766   7.722   0.102   6.492 -2.2241  0.6579  1.2550
20292SOL     OW63767   6.418   9.065   3.257 -0.6332  0.3848 -0.3533
20292SOL    HW163768   6.455   9.151   3.240 -0.7289  0.1292 -2.0480
20292SOL    HW263769   6.461   9.007   3.193 -0.9440 -0.7270  0.4021
20293SOL     OW63770   9.161   9.192   5.244 -0.1307 -0.6723  0.3472
20293SOL    HW163771   9.116   9.276   5.239 -1.6940 -1.4669  0.5871
20293SOL    HW263772   9.108   9.140   5.304  0.1207 -2.2416 -0.7450
20294SOL     OW63773   6.530   7.740   6.683 -0.0302 -0.6520 -0.4636
20294SOL    HW163774   6.511   7.833   6.693  0.4149 -0.5177 -0.8336
20294SOL    HW263775   6.624   7.733   6.697  0.1902 -0.8260 -1.9124
20295SOL     OW63776   6.793   8.271   1.408  0.2422  0.5249 -0.2872
20295SOL    HW163777   6.863   8.329   1.378  0.7238 -0.5077 -1.2493
20295SOL    HW263778   6.807   8.264   1.502  3.0705 -1.6578 -0.7385
20296SOL     OW63779   8.184   0.911   7.899  0.3599  0.2824 -0.0114
20296SOL    HW163780   8.170   0.819   7.879 -0.0338  0.2049  0.5732
20296SOL    HW263781   8.098   0.952   7.884  0.2061  0.3225  0.9200
20297SOL     OW63782   1.819   6.868   9.033  0.1574  0.2437  0.4301
20297SOL    HW163783   1.891   6.815   9.000  2.1322  3.4644 -0.9872
20297SOL    HW263784   1.862   6.947   9.068 -2.5146  0.7939  2.8302
20298SOL     OW63785   1.499   8.414   9.042  0.0346 -0.8661  0.0532
20298SOL    HW163786   1.491   8.380   9.131  0.8078 -1.5907 -0.1420
20298SOL    HW263787   1.476   8.340   8.986 -1.3884 -0.1369 -0.3510
20299SOL     OW63788   6.188   8.431   0.702 -0.3812 -0.3138 -0.5795
20299SOL    HW163789   6.253   8.408   0.636  0.5839  0.6869 -0.0143
20299SOL    HW263790   6.150   8.513   0.670 -0.0267  0.0862  0.0267
20300SOL     OW63791   7.933   6.046   2.863 -0.5078 -0.0157  0.0310
20300SOL    HW163792   7.911   5.967   2.813  1.0299 -0.7227  0.4186
20300SOL    HW263793   7.953   6.111   2.796  1.7112 -1.0050 -0.3397
20301SOL     OW63794   2.573   8.165   1.838  1.1276  0.5518 -0.1048
20301SOL    HW163795   2.506   8.105   1.871  0.1827  1.8114  0.3467
20301SOL    HW263796   2.649   8.109   1.820  0.3640 -0.7281  0.5304
20302SOL     OW63797   6.214   2.829   3.750 -0.1459  0.1127 -0.4454
20302SOL    HW163798   6.178   2.742   3.735 -0.4420  0.2206 -0.3540
20302SOL    HW263799   6.206   2.874   3.666  2.5555 -0.8504 -1.3476
20303SOL     OW63800   4.671   2.066   3.492 -0.2703 -0.7341  0.1805
20303SOL    HW163801   4.760   2.097   3.509 -1.5041  2.8085  1.0371
20303SOL    HW263802   4.633   2.054   3.579 -1.2287 -0.1864 -0.1486
20304SOL     OW63803   3.014   3.265   2.333  0.2768 -0.4523  0.0901
20304SOL    HW163804   3.043   3.337   2.276  0.4400  0.7584  1.6254
20304SOL    HW263805   2.952   3.306   2.394  0.3662 -1.6102  1.0014
20305SOL     OW63806   1.695   5.676   1.907  0.8038 -0.2526  0.1122
20305SOL    HW163807   1.689   5.587   1.942  0.3568  0.1585  1.1281
20305SOL    HW263808   1.787   5.687   1.883  1.0718 -0.6376  0.9453
20306SOL     OW63809   6.330   5.801   1.927 -0.4445  0.2508  0.3859
20306SOL    HW163810   6.244   5.764   1.950 -1.1258  1.0974 -0.7085
20306SOL    HW263811   6.310   5.877   1.873  1.0245 -1.6073 -3.0582
20307SOL     OW63812   4.030   5.173   8.399  0.4317  0.1583  0.0322
20307SOL    HW163813   3.985   5.254   8.376  0.6904 -0.5602 -3.6715
20307SOL    HW263814   4.123   5.191   8.382  0.8976 -0.0836  2.0755
20308SOL     OW63815   8.057   2.790   4.184  0.6581  0.2135 -0.0907
20308SOL    HW163816   8.134   2.778   4.241 -0.3805  1.3367  1.6275
20308SOL    HW263817   7.987   2.742   4.228  0.0461  0.2680 -0.9780
20309SOL     OW63818   1.849   4.292   4.911 -0.1419  0.2392 -0.1406
20309SOL    HW163819   1.875   4.311   4.821  0.8515  0.1254  0.1064
20309SOL    HW263820   1.878   4.202   4.926 -1.2671 -0.1246 -0.0376
20310SOL     OW63821   3.837   1.457   6.920 -0.4371  0.0454  0.1547
20310SOL    HW163822   3.781   1.448   6.843 -0.2418 -0.4946  0.0729
20310SOL    HW263823   3.917   1.409   6.898  0.7124  2.1005 -0.3457
20311SOL     OW63824   1.799   5.376   4.584  0.3045 -0.6293  0.1811
20311SOL    HW163825   1.784   5.466   4.556 -0.1131  0.0677  2.4745
20311SOL    HW263826   1.767   5.323   4.510 -0.5345  1.0695 -0.7358
20312SOL     OW63827   6.349   2.804   6.225  0.2855 -0.5327 -0.3327
20312SOL    HW163828   6.255   2.817   6.230 -0.0421 -2.3375 -1.0280
20312SOL    HW263829   6.365   2.722   6.271  1.4394 -0.5361 -0.6853
20313SOL     OW63830   3.846   4.458   0.454 -0.1686 -0.2059 -0.3423
20313SOL    HW163831   3.767   4.476   0.403 -0.9084  0.8743  1.0938
20313SOL    HW263832   3.828   4.376   0.500  0.3722 -1.0130 -1.5387
20314SOL     OW63833   1.855   5.641   6.144 -0.2836 -0.1592 -0.7289
20314SOL    HW163834   1.841   5.655   6.050 -1.5398 -0.7221 -0.6558
20314SOL    HW263835   1.825   5.721   6.185  0.4095  0.1473 -0.8040
20315SOL     OW63836   0.801   7.391   0.827 -0.5403 -0.2354  0.0724
20315SOL    HW163837   0.860   7.355   0.761 -0.6958  1.8963 -1.2945
20315SOL    HW263838   0.859   7.427   0.894 -0.2858  0.7732 -0.6730
20316SOL     OW63839   0.826   7.874   5.899 -0.4755  0.2639 -0.1679
20316SOL    HW163840   0.761   7.839   5.838 -1.9068  0.1964  1.3296
20316SOL    HW263841   0.867   7.797   5.938 -0.9605  0.2636  0.3648
20317SOL     OW63842   5.979   0.211   3.330  0.0889 -0.2780 -0.1402
20317SOL    HW163843   6.016   0.208   3.242 -1.3693  0.6800 -0.8318
20317SOL    HW263844   5.955   0.303   3.343 -0.3606 -0.5304  0.9872
20318SOL     OW63845   7.615   9.201   2.001 -0.2469 -0.1045 -0.1621
20318SOL    HW163846   7.681   9.223   1.935  0.3282  0.1962  0.4938
20318SOL    HW263847   7.666   9.161   2.072 -0.9213 -0.9212 -0.1224
20319SOL     OW63848   8.462   8.413   3.523 -0.1343 -0.5191 -0.0824
20319SOL    HW163849   8.536   8.392   3.466  2.4260  2.2350  1.9398
20319SOL    HW263850   8.401   8.460   3.466  0.5880 -1.0516 -1.3453
20320SOL     OW63851   9.036   6.564   4.682  0.2812 -0.2124  0.9412
20320SOL    HW163852   8.988   6.606   4.610  0.7479  2.1455  1.9121
20320SOL    HW263853   8.975   6.498   4.715 -0.1561 -1.0003 -1.2121
20321SOL     OW63854   3.577   1.174   6.952  0.6112 -1.0939 -0.4176
20321SOL    HW163855   3.565   1.124   7.033 -0.0865 -2.9735 -1.6145
20321SOL    HW263856   3.502   1.235   6.950  0.1449 -1.6441 -0.0683
20322SOL     OW63857   5.089   1.116   5.382 -0.0850 -0.0953 -0.0871
20322SOL    HW163858   5.022   1.151   5.440 -0.1784  0.1542 -0.3410
20322SOL    HW263859   5.116   1.191   5.328  1.7679  0.3038  1.2669
20323SOL     OW63860   7.426   2.341   4.410 -0.4879 -1.0295 -0.2632
20323SOL    HW163861   7.513   2.360   4.447  0.8647 -4.0392 -1.5063
20323SOL    HW263862   7.425   2.388   4.327  0.5850 -2.0109 -0.8691
20324SOL     OW63863   8.969   0.514   3.708 -0.2471  0.0723 -0.5871
20324SOL    HW163864   8.941   0.464   3.784 -0.5340 -1.2017 -1.5072
20324SOL    HW263865   9.065   0.506   3.709 -0.2738 -0.2371 -0.5682
20325SOL     OW63866   2.165   6.129   5.734 -0.6398 -0.0410 -0.2650
20325SOL    HW163867   2.079   6.156   5.764 -0.4009 -0.2947  0.6718
20325SOL    HW263868   2.201   6.208   5.691 -0.7360  0.5355  0.6843
20326SOL     OW63869   6.270   7.207   2.689  0.3654 -0.4602 -0.4311
20326SOL    HW163870   6.205   7.222   2.758  1.0337 -0.9718  0.3265
20326SOL    HW263871   6.353   7.194   2.735  1.3195  1.6177 -1.4430
20327SOL     OW63872   6.657   6.930   6.871 -0.3258  0.6370 -0.6343
20327SOL    HW163873   6.704   6.891   6.945 -0.1005  2.8807  0.4764
20327SOL    HW263874   6.705   6.900   6.794  0.3202 -0.5625  0.1912
20328SOL     OW63875   8.347   5.095   1.777  0.3467  0.4876 -0.0025
20328SOL    HW163876   8.421   5.034   1.782 -0.4561 -0.4606  0.9743
20328SOL    HW263877   8.277   5.051   1.826 -1.3738  0.6365 -2.1857
20329SOL     OW63878   4.745   6.731   8.260 -1.1586 -0.1972  0.3929
20329SOL    HW163879   4.758   6.781   8.341  0.2071 -0.4745  0.3555
20329SOL    HW263880   4.701   6.651   8.288  1.5461 -1.4721  1.2910
20330SOL     OW63881   0.276   0.972   5.959  0.2782 -0.0698 -0.1470
20330SOL    HW163882   0.258   0.929   6.042  0.9717 -1.9920 -0.9404
20330SOL    HW263883   0.253   0.907   5.893  1.3450  0.7923 -1.4111
20331SOL     OW63884   9.251   2.904   0.985  0.4755 -0.6302 -0.1302
20331SOL    HW163885   9.217   2.990   0.959  0.8344 -0.3629  0.2797
20331SOL    HW263886   9.338   2.921   1.020  0.2308 -1.0482  0.7211
20332SOL     OW63887   0.069   0.325   1.612 -0.0657 -0.0566  0.2486
20332SOL    HW163888   0.148   0.271   1.605  0.3539  0.7368 -3.0072
20332SOL    HW263889  -0.003   0.265   1.596  0.1643 -0.2267 -0.1787
20333SOL     OW63890   6.826   4.460   1.724  0.5484  0.2035  0.0712
20333SOL    HW163891   6.773   4.536   1.749 -0.9223 -0.2917 -1.3681
20333SOL    HW263892   6.913   4.496   1.706  0.7034  1.0749  2.2278
20334SOL     OW63893   7.044   5.902   6.762  0.2227  0.1880 -0.0027
20334SOL    HW163894   7.092   5.980   6.732  0.7461 -0.8856 -2.2330
20334SOL    HW263895   7.112   5.835   6.772 -0.5835 -1.1681 -2.5289
20335SOL     OW63896   8.332   0.175   2.361  0.1600  0.2505  0.1343
20335SOL    HW163897   8.293   0.259   2.385  0.9820  0.1464  1.9800
20335SOL    HW263898   8.302   0.160   2.271 -0.3790  2.2837 -0.0868
20336SOL     OW63899   2.688   9.176   0.092  0.4282 -0.1315 -0.0286
20336SOL    HW163900   2.600   9.208   0.076 -0.0087 -1.3302 -0.1613
20336SOL    HW263901   2.723   9.234   0.159  0.3419  1.6846 -1.4887
20337SOL     OW63902   7.191   3.056   7.213 -0.1624 -0.1924  0.3877
20337SOL    HW163903   7.188   3.006   7.131 -0.4252  1.2712 -0.5509
20337SOL    HW263904   7.185   2.990   7.282 -1.1290 -1.3892 -0.7848
20338SOL     OW63905   9.222   7.801   2.552  0.2222  0.2699 -0.3581
20338SOL    HW163906   9.218   7.882   2.501  0.8266  0.1606 -0.5790
20338SOL    HW263907   9.190   7.825   2.639 -0.1091  0.6235 -0.5766
20339SOL     OW63908   8.309   7.926   4.969  0.8315 -0.2905 -0.1473
20339SOL    HW163909   8.269   7.839   4.972  0.4499 -0.0908  1.3540
20339SOL    HW263910   8.306   7.956   5.060  2.0610  0.7978 -0.4510
20340SOL     OW63911   5.748   5.387   5.000  0.0392  0.1777  0.1364
20340SOL    HW163912   5.747   5.292   4.985 -1.0781 -0.0625  1.4828
20340SOL    HW263913   5.814   5.400   5.068 -0.3988  0.2512  0.5514
20341SOL     OW63914   8.395   7.629   2.002 -0.0821  0.5106  0.5605
20341SOL    HW163915   8.418   7.602   2.091  0.3219  0.3441  0.4038
20341SOL    HW263916   8.423   7.721   1.998 -1.4199  0.9719  1.0795
20342SOL     OW63917   2.834   7.349   4.246 -0.6678 -0.0719  0.3636
20342SOL    HW163918   2.786   7.266   4.252 -1.5022  0.4487  1.1117
20342SOL    HW263919   2.887   7.352   4.326  1.2359 -0.9830 -0.7882
20343SOL     OW63920   6.501   0.092   1.685 -0.1355 -0.1622 -0.6139
20343SOL    HW163921   6.452   0.138   1.753  0.9189 -1.4375  1.1042
20343SOL    HW263922   6.484   0.142   1.605  0.5917  2.9303  1.0001
20344SOL     OW63923   5.364   7.940   3.651  0.3746  0.5875 -0.2610
20344SOL    HW163924   5.448   7.896   3.635 -0.3815 -1.2429  0.5993
20344SOL    HW263925   5.371   8.022   3.601  2.4553  0.2476 -0.6358
20345SOL     OW63926   2.154   6.375   3.609 -0.2095  0.5720 -0.2655
20345SOL    HW163927   2.193   6.453   3.649  0.5704  0.2450 -0.3683
20345SOL    HW263928   2.225   6.311   3.608 -0.5762  0.1661 -1.0446
20346SOL     OW63929   4.824   5.033   4.688 -0.2989  0.6139 -0.5682
20346SOL    HW163930   4.765   5.052   4.615  0.8928 -0.6437 -1.9399
20346SOL    HW263931   4.908   5.072   4.662  1.2266 -3.0086 -1.8266
20347SOL     OW63932   5.278   4.709   7.236 -0.4391 -0.0249 -0.3930
20347SOL    HW163933   5.215   4.648   7.274 -0.5079  0.6402  0.5999
20347SOL    HW263934   5.358   4.656   7.225 -1.1230 -0.8603 -1.6283
20348SOL     OW63935   5.458   0.412   2.032  0.6192  0.3446  0.0053
20348SOL    HW163936   5.461   0.389   1.939  0.3262  2.7209 -0.6412
20348SOL    HW263937   5.439   0.505   2.033 -2.1727 -0.1146  2.5172
20349SOL     OW63938   5.827   2.804   0.201  0.1312 -0.0600  0.3641
20349SOL    HW163939   5.790   2.889   0.225 -2.1226 -1.2893  1.6207
20349SOL    HW263940   5.908   2.798   0.252  0.3271  1.3075  0.2533
20350SOL     OW63941   1.096   3.254   3.221  0.0237  0.0260  0.2005
20350SOL    HW163942   1.068   3.275   3.310 -1.6702 -1.5483  0.1170
20350SOL    HW263943   1.112   3.160   3.223  1.7271  0.2646 -0.7568
20351SOL     OW63944   4.919   1.250   0.091  0.5995  0.4307 -0.8628
20351SOL    HW163945   4.941   1.219   0.003  1.0267  0.5440 -0.8016
20351SOL    HW263946   5.001   1.289   0.123  1.0861 -1.5386  0.4374
20352SOL     OW63947   7.194   6.688   6.294 -0.7777  0.4697 -0.0712
20352SOL    HW163948   7.180   6.712   6.202  1.8711 -1.0150 -1.0015
20352SOL    HW263949   7.142   6.609   6.306 -0.8619  0.4713 -0.4109
20353SOL     OW63950   1.007   9.100   6.896  0.2289  0.3625 -0.4742
20353SOL    HW163951   1.085   9.070   6.849  0.7407  0.4109  0.3252
20353SOL    HW263952   1.005   9.047   6.976  0.0906  1.1521  0.0596
20354SOL     OW63953   0.735   3.177   2.858  0.6610  0.3914 -0.3313
20354SOL    HW163954   0.679   3.185   2.935  1.2613 -1.3961  0.3514
20354SOL    HW263955   0.674   3.180   2.784 -0.2038 -0.1925  0.3302
20355SOL     OW63956   1.455   5.565   7.275  0.2670  0.4305  0.0935
20355SOL    HW163957   1.545   5.532   7.276  0.6728  1.4806  0.7671
20355SOL    HW263958   1.431   5.567   7.183  0.9670  0.1981 -0.0994
20356SOL     OW63959   8.965   0.570   7.485  0.1882 -0.1915  0.2060
20356SOL    HW163960   8.870   0.574   7.499  0.1838 -0.3859  0.2281
20356SOL    HW263961   9.000   0.531   7.565  0.5325  1.9924  1.2044
20357SOL     OW63962   4.349   4.173   5.283  0.4658  0.0305 -0.0098
20357SOL    HW163963   4.310   4.115   5.349  2.1972  0.6914  1.7074
20357SOL    HW263964   4.353   4.259   5.326  4.2723 -0.1187  0.2650
20358SOL     OW63965   5.776   3.773   5.298 -0.1112 -0.3438  0.2265
20358SOL    HW163966   5.777   3.703   5.233  0.6985  0.7158 -0.9385
20358SOL    HW263967   5.867   3.780   5.328 -0.1013  0.4783  0.0281
20359SOL     OW63968   8.901   0.518   0.928 -0.1084 -0.1890 -0.8336
20359SOL    HW163969   8.963   0.582   0.894  0.4849 -0.6496 -0.6229
20359SOL    HW263970   8.934   0.496   1.015 -1.2328  0.4623 -0.2076
20360SOL     OW63971   2.061   2.097   4.450 -0.3021  0.2549 -0.0199
20360SOL    HW163972   2.067   2.090   4.545  2.1388  0.6036 -0.1018
20360SOL    HW263973   2.136   2.048   4.417 -1.1617  0.0513 -1.7912
20361SOL     OW63974   7.551   5.802   5.765  0.4086  0.3725  0.7154
20361SOL    HW163975   7.603   5.807   5.685 -0.0621 -1.6674  0.2419
20361SOL    HW263976   7.616   5.801   5.835  0.9502 -0.4775  0.2163
20362SOL     OW63977   2.109   0.090   3.248  0.7016  0.3938 -0.4984
20362SOL    HW163978   2.176   0.053   3.191 -0.5142 -0.1823 -1.6001
20362SOL    HW263979   2.033   0.102   3.191 -0.9368 -1.2200  1.2159
20363SOL     OW63980   0.513   3.104   1.741  0.3665  0.2670 -0.2995
20363SOL    HW163981   0.441   3.060   1.786  1.4637 -1.1908  0.1068
20363SOL    HW263982   0.518   3.190   1.781 -0.9422  0.2821 -0.1291
20364SOL     OW63983   1.595   2.025   0.178 -0.0937 -0.5001 -0.3004
20364SOL    HW163984   1.501   2.020   0.197 -0.1980  0.1550 -0.6047
20364SOL    HW263985   1.631   2.083   0.245 -0.1277  0.2371 -0.9003
20365SOL     OW63986   2.202   7.134   1.340  0.3753 -0.0700  0.1684
20365SOL    HW163987   2.214   7.039   1.345  1.2342  0.0526  0.5438
20365SOL    HW263988   2.128   7.151   1.399  1.0009 -0.3787  1.0738
20366SOL     OW63989   4.128   9.154   4.191 -0.1729 -0.4212 -0.3699
20366SOL    HW163990   4.032   9.148   4.191 -0.2386  0.4742  0.1487
20366SOL    HW263991   4.147   9.245   4.214  0.8087 -1.1227  1.9403
20367SOL     OW63992   7.365   2.790   8.321 -0.2456  0.9735  0.0619
20367SOL    HW163993   7.425   2.855   8.358  3.1231 -2.2922  1.0003
20367SOL    HW263994   7.401   2.771   8.234  0.2581 -1.1026  0.6698
20368SOL     OW63995   1.448   7.822   1.461  0.1337  0.3487  0.1872
20368SOL    HW163996   1.395   7.785   1.531  1.2067  0.0062  0.8400
20368SOL    HW263997   1.491   7.747   1.421 -1.2365  0.4145 -1.5468
20369SOL     OW63998   5.051   1.508   0.987 -0.2119 -0.5389  0.4310
20369SOL    HW163999   5.027   1.463   1.067 -0.8199 -1.3978 -0.2162
20369SOL    HW264000   5.129   1.560   1.010 -1.1534  0.2707  1.9019
20370SOL     OW64001   1.636   1.442   0.228 -0.0793 -0.1336  0.2294
20370SOL    HW164002   1.570   1.379   0.200  0.7548 -0.3110 -1.4627
20370SOL    HW264003   1.611   1.524   0.184  1.8880 -0.6948 -2.2017
20371SOL     OW64004   6.649   5.173   4.696 -0.2672  0.3663 -0.2194
20371SOL    HW164005   6.722   5.194   4.755 -0.1100 -0.0181 -0.2732
20371SOL    HW264006   6.616   5.089   4.727 -0.7769  0.6014 -0.1175
20372SOL     OW64007   1.321   5.354   4.144  0.0601 -0.2585  0.2182
20372SOL    HW164008   1.237   5.312   4.126 -0.2411 -0.1145  1.2446
20372SOL    HW264009   1.375   5.285   4.183  0.0660 -0.0840  0.5210
20373SOL     OW64010   1.320   6.384   2.651  0.2248 -0.8352  0.1031
20373SOL    HW164011   1.344   6.310   2.706  0.2611  0.0909  1.3673
20373SOL    HW264012   1.403   6.415   2.614  0.6172  0.3127  1.8428
20374SOL     OW64013   3.827   1.474   3.829 -0.2419 -0.0589 -0.3364
20374SOL    HW164014   3.823   1.569   3.831  1.3045  0.0733 -1.3415
20374SOL    HW264015   3.865   1.454   3.743  0.5106 -1.5077  0.2979
20375SOL     OW64016   4.693   7.658   8.347 -0.1252 -0.1126  0.0379
20375SOL    HW164017   4.657   7.629   8.431  0.6156  1.8882  1.0995
20375SOL    HW264018   4.622   7.705   8.305 -0.0207  0.2635  0.2756
20376SOL     OW64019   3.690   4.558   3.233 -0.5726  0.2467 -0.9349
20376SOL    HW164020   3.620   4.533   3.173 -0.2101 -0.1929 -1.1872
20376SOL    HW264021   3.764   4.580   3.176  0.3644 -1.9272 -0.6652
20377SOL     OW64022   3.128   0.170   7.096  0.8733  0.1283  0.1311
20377SOL    HW164023   3.131   0.254   7.142 -1.7188  0.9314 -0.9807
20377SOL    HW264024   3.168   0.188   7.011 -1.0039  0.7142 -0.6758
20378SOL     OW64025   0.191   1.792   2.701  0.1278 -0.5881 -0.1905
20378SOL    HW164026   0.125   1.840   2.751  0.4104  0.8375 -1.1243
20378SOL    HW264027   0.270   1.798   2.754  0.0986 -0.2260 -0.1856
20379SOL     OW64028   4.151   6.564   2.767 -0.3114 -0.4142 -0.0228
20379SOL    HW164029   4.108   6.636   2.813  0.2298 -0.6876  0.9437
20379SOL    HW264030   4.217   6.532   2.829  0.1584 -1.0660 -0.8413
20380SOL     OW64031   2.394   0.196   5.822  0.3647  0.0028  0.0023
20380SOL    HW164032   2.429   0.109   5.838  2.2631  0.8266  0.6153
20380SOL    HW264033   2.354   0.221   5.906 -0.2523 -0.2866 -0.1978
20381SOL     OW64034   8.093   8.316   7.670  0.1353 -0.2920  0.2510
20381SOL    HW164035   8.041   8.397   7.677 -1.3158 -1.0914 -0.7424
20381SOL    HW264036   8.042   8.260   7.611  1.1930 -1.8787  0.7854
20382SOL     OW64037   6.425   4.430   8.589  0.1759  0.5590  0.3264
20382SOL    HW164038   6.452   4.438   8.681 -0.8529  0.0322  0.7052
20382SOL    HW264039   6.359   4.498   8.578  1.1665  1.4260 -0.3955
20383SOL     OW64040   4.446   1.222   2.685 -0.3340 -0.4222  0.2436
20383SOL    HW164041   4.497   1.278   2.628 -0.3974  0.5728  1.1251
20383SOL    HW264042   4.454   1.134   2.648  3.0782 -0.5743  1.0589
20384SOL     OW64043   1.447   1.933   7.238  0.2815 -0.2941  0.0501
20384SOL    HW164044   1.467   1.844   7.208  0.5361 -0.2868  0.1970
20384SOL    HW264045   1.450   1.986   7.159  4.7428  0.4427  0.4690
20385SOL     OW64046   6.704   7.355   6.068  0.4198 -0.1975  0.1933
20385SOL    HW164047   6.666   7.269   6.084  2.2148 -0.5841  3.1789
20385SOL    HW264048   6.766   7.341   5.997 -0.1889 -1.0785 -0.1793
20386SOL     OW64049   7.527   0.020   1.485 -0.1992 -0.6532  0.2397
20386SOL    HW164050   7.490   0.107   1.498 -1.7300 -1.6162  3.8901
20386SOL    HW264051   7.464  -0.025   1.429  0.4964  0.4689 -1.4889
20387SOL     OW64052   3.698   7.264   0.382 -0.7859  0.6868  0.5239
20387SOL    HW164053   3.641   7.193   0.353  0.5383  0.3516 -1.4789
20387SOL    HW264054   3.639   7.339   0.394 -1.5827  0.9119 -3.3345
20388SOL     OW64055   4.923   1.119   2.887 -0.0282  0.4302  0.4157
20388SOL    HW164056   4.903   1.036   2.845  1.0508 -0.3851  1.4332
20388SOL    HW264057   4.904   1.105   2.980 -0.0421  1.3891  0.5771
20389SOL     OW64058   8.128   2.232   5.040  0.5085  0.6861  0.8271
20389SOL    HW164059   8.156   2.308   4.988  1.8529 -0.5433 -0.3302
20389SOL    HW264060   8.181   2.160   5.007 -1.8233 -1.1250  0.7842
20390SOL     OW64061   7.645   3.699   9.013  0.4974  0.1879  0.6873
20390SOL    HW164062   7.630   3.739   8.927 -0.3291  1.6704  1.4837
20390SOL    HW264063   7.579   3.630   9.019 -0.3925  1.0217  0.6913
20391SOL     OW64064   1.969   3.467   6.624 -0.3147  0.3392 -0.1266
20391SOL    HW164065   1.885   3.499   6.659  0.5973  0.3110  2.2688
20391SOL    HW264066   1.958   3.372   6.621 -1.1872  0.4409 -2.2590
20392SOL     OW64067   2.365   2.955   0.070 -0.2220  0.0560  0.5206
20392SOL    HW164068   2.307   2.882   0.046 -1.5385  0.8703  1.1334
20392SOL    HW264069   2.313   3.033   0.052  1.0030  0.8477  0.3269
20393SOL     OW64070   1.722   3.405   8.007 -0.4835  0.7096  0.0331
20393SOL    HW164071   1.790   3.470   8.024  1.0697 -1.3890  2.5393
20393SOL    HW264072   1.763   3.321   8.027 -3.2237 -0.8582 -0.3789
20394SOL     OW64073   0.825   7.781   3.955 -0.0160  0.0278  0.4320
20394SOL    HW164074   0.837   7.809   4.046 -0.2407 -1.0543  0.8120
20394SOL    HW264075   0.854   7.856   3.903  1.9784 -0.0372  1.3588
20395SOL     OW64076   7.619   9.148   9.216  0.1535 -0.1616  0.1375
20395SOL    HW164077   7.711   9.169   9.201  0.4297 -1.3064  0.0994
20395SOL    HW264078   7.591   9.209   9.284  0.7337  0.6651 -0.3457
20396SOL     OW64079   1.982   4.800   5.819  0.2810 -0.5992 -0.3170
20396SOL    HW164080   2.022   4.787   5.733 -1.4508  0.1709 -1.2985
20396SOL    HW264081   1.950   4.890   5.817 -0.9201 -0.9805  0.6342
20397SOL     OW64082   1.589   2.633   8.857 -0.3490  0.4196  0.1044
20397SOL    HW164083   1.561   2.670   8.774 -0.7462  1.9356  0.8726
20397SOL    HW264084   1.531   2.558   8.871 -1.1142  0.9088 -0.3861
20398SOL     OW64085   7.775   2.774   8.162 -0.3373  0.0057  0.5848
20398SOL    HW164086   7.756   2.684   8.187 -2.2150  0.3898  0.6611
20398SOL    HW264087   7.694   2.807   8.124  0.9084  1.0450 -1.3759
20399SOL     OW64088   7.162   5.341   4.505  0.1579  0.3059  0.5202
20399SOL    HW164089   7.140   5.434   4.499  1.7668  0.6561 -0.6828
20399SOL    HW264090   7.119   5.301   4.429 -0.7834 -0.0171  1.2027
20400SOL     OW64091   0.966   7.807   5.423 -0.4711  0.2903 -0.2561
20400SOL    HW164092   0.885   7.826   5.376 -1.3153  0.3830  1.1830
20400SOL    HW264093   1.013   7.891   5.424 -1.8975  1.1463  1.7302
20401SOL     OW64094   1.291   4.177   2.731 -0.5098 -0.6608  0.2962
20401SOL    HW164095   1.230   4.176   2.805  1.0889 -1.6982  1.6659
20401SOL    HW264096   1.378   4.180   2.771  0.4148  2.3458 -1.5946
20402SOL     OW64097   7.921   2.555   3.034 -0.0313  0.4333  0.0645
20402SOL    HW164098   7.970   2.478   3.004 -0.3884  0.1178  0.2759
20402SOL    HW264099   7.985   2.608   3.082  0.3182  0.4798 -0.4521
20403SOL     OW64100   8.423   2.156   4.337  0.4002 -0.0900  0.5390
20403SOL    HW164101   8.358   2.219   4.306  0.5059 -0.9729 -1.6668
20403SOL    HW264102   8.430   2.173   4.431 -0.9897  1.8505  0.3564
20404SOL     OW64103   3.768   9.212   4.724 -0.6869 -0.0706 -0.2556
20404SOL    HW164104   3.842   9.182   4.778  0.9252  0.0150 -2.2685
20404SOL    HW264105   3.711   9.136   4.717 -0.3473 -0.4193  0.6155
20405SOL     OW64106   1.912   3.553   5.142 -0.3448 -0.2490  0.2607
20405SOL    HW164107   2.008   3.561   5.142 -0.0201 -2.9380  0.7850
20405SOL    HW264108   1.883   3.609   5.213  0.8986  0.2337  0.4212
20406SOL     OW64109   3.900   1.797   4.154 -0.6764 -0.0731 -0.2426
20406SOL    HW164110   3.933   1.708   4.166  1.3342  0.2731 -2.5386
20406SOL    HW264111   3.869   1.800   4.063 -0.4669  1.6400 -0.2991
20407SOL     OW64112   1.635   2.600   2.361 -0.0626 -0.3905  0.4495
20407SOL    HW164113   1.590   2.532   2.311  1.5107  0.1460 -1.8405
20407SOL    HW264114   1.600   2.682   2.327  1.0532 -0.0097  0.1797
20408SOL     OW64115   9.175   3.202   1.148  0.3221  0.3922 -0.1186
20408SOL    HW164116   9.095   3.189   1.199  1.1503 -0.7400  0.9629
20408SOL    HW264117   9.245   3.202   1.214  1.3628 -0.3440 -1.1847
20409SOL     OW64118   2.335   6.262   3.285  0.3131 -0.3265 -0.7624
20409SOL    HW164119   2.333   6.176   3.244  1.7556 -0.3948 -0.7301
20409SOL    HW264120   2.243   6.288   3.290 -0.2594 -2.3148  0.2036
20410SOL     OW64121   7.544   7.027   0.685 -0.2103 -0.2060  0.6269
20410SOL    HW164122   7.542   6.982   0.600  1.2415  2.3682 -0.9075
20410SOL    HW264123   7.559   6.957   0.748 -2.6920 -2.4148 -0.9962
20411SOL     OW64124   7.741   3.576   2.088  0.6354  0.2710  0.1748
20411SOL    HW164125   7.832   3.545   2.084  0.9660  1.3553 -2.3868
20411SOL    HW264126   7.748   3.671   2.092 -0.3135  0.5757 -3.1090
20412SOL     OW64127   3.946   6.658   2.400 -0.1447 -0.5052  0.1927
20412SOL    HW164128   3.896   6.617   2.329 -1.2157  0.6369  0.2623
20412SOL    HW264129   3.891   6.731   2.430  0.6532 -0.4529  1.6458
20413SOL     OW64130   7.910   5.112   6.200 -0.0247 -0.5402  0.2641
20413SOL    HW164131   7.845   5.165   6.155 -1.2626 -1.5138  0.8597
20413SOL    HW264132   7.880   5.022   6.189  0.9771 -0.9753  0.9474
20414SOL     OW64133   7.621   8.571   5.334  0.2271 -0.0637 -0.2892
20414SOL    HW164134   7.598   8.633   5.403  2.2154  1.3683 -0.8158
20414SOL    HW264135   7.576   8.603   5.256  0.9453  0.5374 -0.4714
20415SOL     OW64136   2.190   8.141   5.768  0.0107  0.8454  0.4273
20415SOL    HW164137   2.228   8.175   5.850 -0.3632  0.0730  0.9359
20415SOL    HW264138   2.234   8.191   5.699  2.4984 -0.4656  0.9399
20416SOL     OW64139   1.048   8.833   4.556  0.3965 -0.4045  0.3825
20416SOL    HW164140   0.953   8.839   4.568  0.2235 -0.3989 -0.9019
20416SOL    HW264141   1.059   8.765   4.489  1.2476  0.2898 -0.1967
20417SOL     OW64142   7.562   2.092   1.965 -0.1147 -0.1260  0.1912
20417SOL    HW164143   7.652   2.063   1.976 -0.6613 -1.6018  1.2010
20417SOL    HW264144   7.568   2.186   1.950  1.6530 -0.3900 -1.0673
20418SOL     OW64145   2.637   0.777   6.893  0.0510  0.2946  0.4288
20418SOL    HW164146   2.568   0.733   6.843 -0.2174  1.7801 -0.5719
20418SOL    HW264147   2.627   0.742   6.982 -0.9231 -0.7381 -0.0572
20419SOL     OW64148   6.783   5.570   4.874 -0.3531  0.5057 -0.3983
20419SOL    HW164149   6.763   5.561   4.968 -1.3298  0.7211 -0.5757
20419SOL    HW264150   6.723   5.638   4.843  0.6227  1.1181 -0.9912
20420SOL     OW64151   1.377   2.476   4.794 -0.0968  0.2486  0.0035
20420SOL    HW164152   1.452   2.444   4.745 -0.1325 -0.5456  0.4417
20420SOL    HW264153   1.362   2.410   4.862 -0.8568  0.6607  0.2612
20421SOL     OW64154   8.129   7.751   3.064 -0.3015 -0.5866  0.0189
20421SOL    HW164155   8.087   7.829   3.101  0.6067  0.1580 -0.4850
20421SOL    HW264156   8.221   7.760   3.085 -0.4389 -2.6363  1.8680
20422SOL     OW64157   6.928   3.703   5.513  0.2642  0.4403  0.1942
20422SOL    HW164158   6.837   3.734   5.522  0.0218 -0.4540  1.0003
20422SOL    HW264159   6.923   3.633   5.448  0.5904  1.1699 -0.6366
20423SOL     OW64160   5.928   5.215   1.355  0.6176  0.4426 -0.1187
20423SOL    HW164161   5.883   5.211   1.440 -1.0270  2.3593 -0.8029
20423SOL    HW264162   5.863   5.183   1.292  1.7472 -0.7631 -0.7191
20424SOL     OW64163   7.199   8.677   1.067 -0.0103  0.5342 -0.0742
20424SOL    HW164164   7.282   8.697   1.110  0.2105  4.0347 -1.7542
20424SOL    HW264165   7.224   8.649   0.979 -0.5405  2.3723 -0.8482
20425SOL     OW64166   2.783   4.338   2.311  0.7822 -0.0306  0.2684
20425SOL    HW164167   2.866   4.295   2.290  0.7578  0.0386  0.0206
20425SOL    HW264168   2.786   4.420   2.263  0.9092  0.3364  0.8923
20426SOL     OW64169   6.330   7.312   5.527 -0.0953  0.0681 -0.5499
20426SOL    HW164170   6.240   7.280   5.537 -0.5360  1.2406 -0.6524
20426SOL    HW264171   6.359   7.333   5.616  0.5726 -1.5226 -0.3473
20427SOL     OW64172   4.496   5.420   4.292 -0.4644  0.1385  0.4170
20427SOL    HW164173   4.489   5.442   4.199  0.8855 -0.3535  0.1872
20427SOL    HW264174   4.451   5.492   4.337 -1.7343  0.0375 -0.6366
20428SOL     OW64175   4.858   3.340   8.738 -0.3489 -0.5558  0.3912
20428SOL    HW164176   4.870   3.426   8.697 -1.3902  0.4032  2.0214
20428SOL    HW264177   4.766   3.319   8.724 -0.0572 -1.5402 -0.1731
20429SOL     OW64178   4.013   0.255   5.220  0.7623  0.0984 -0.1321
20429SOL    HW164179   4.106   0.275   5.230  0.2036  2.3082  1.4080
20429SOL    HW264180   3.993   0.197   5.293  0.1013  3.2053  2.3514
20430SOL     OW64181   6.138   7.430   0.375  0.0669  0.3636  0.1120
20430SOL    HW164182   6.187   7.371   0.316 -1.2877 -0.4351 -0.2609
20430SOL    HW264183   6.080   7.478   0.316 -1.2780 -0.4131  0.7669
20431SOL     OW64184   4.637   5.336   3.170  0.0445 -0.3154  0.0851
20431SOL    HW164185   4.591   5.297   3.244 -1.5691 -0.0843 -0.7459
20431SOL    HW264186   4.729   5.329   3.193 -0.4025 -0.0042  2.2358
20432SOL     OW64187   2.826   8.396   5.237  0.2538  0.0188 -0.0832
20432SOL    HW164188   2.805   8.455   5.309 -0.6293  0.7557 -0.9141
20432SOL    HW264189   2.741   8.374   5.199  0.5635 -1.7714  0.1809
20433SOL     OW64190   2.553   6.792   6.691 -0.2388  0.6820  0.5347
20433SOL    HW164191   2.482   6.834   6.643  0.7740  0.8952 -0.8598
20433SOL    HW264192   2.631   6.841   6.665  0.4480  0.3281  1.8698
20434SOL     OW64193   0.967   7.658   6.003  0.0987 -0.5912 -0.9193
20434SOL    HW164194   1.032   7.625   5.940  0.4044 -0.8480 -0.4792
20434SOL    HW264195   0.980   7.604   6.081 -1.4286 -1.4216 -1.2066
20435SOL     OW64196   8.097   5.151   1.366  0.0697 -0.2491 -0.2600
20435SOL    HW164197   8.030   5.113   1.422  1.2901 -0.1984  1.2931
20435SOL    HW264198   8.177   5.103   1.388  0.8303  0.5726 -1.1260
20436SOL     OW64199   6.727   6.209   5.398  0.5028 -0.0016  0.2199
20436SOL    HW164200   6.720   6.229   5.305 -0.7558 -0.9242  0.1059
20436SOL    HW264201   6.708   6.292   5.442 -1.1212 -0.0531 -0.3227
20437SOL     OW64202   9.207   3.940   1.327  0.0177 -0.2445  0.2458
20437SOL    HW164203   9.157   3.933   1.408 -1.3101  1.0392 -0.4245
20437SOL    HW264204   9.141   3.946   1.258  1.0684 -3.6096 -1.2630
20438SOL     OW64205   0.646   2.906   6.263  0.0589 -0.0193 -0.3466
20438SOL    HW164206   0.563   2.914   6.216  0.6405  1.2511 -1.2207
20438SOL    HW264207   0.681   2.821   6.238  0.0437  0.3661 -1.7258
20439SOL     OW64208   4.873   7.278   2.366  0.0756  0.4560 -0.5998
20439SOL    HW164209   4.782   7.248   2.370  0.2813 -0.0897  0.2175
20439SOL    HW264210   4.922   7.212   2.415  0.6704  1.6307  0.4705
20440SOL     OW64211   6.408   0.102   5.249 -0.1470 -0.0356  0.0987
20440SOL    HW164212   6.461   0.097   5.170  0.8472  0.9235  0.6727
20440SOL    HW264213   6.326   0.143   5.221  0.1801  0.2581 -0.4363
20441SOL     OW64214   1.505   8.772   7.712  0.0545 -0.4667  0.3078
20441SOL    HW164215   1.547   8.728   7.638  0.1307  0.2189 -0.0661
20441SOL    HW264216   1.507   8.708   7.783  1.3156 -0.6055  0.1629
20442SOL     OW64217   8.240   5.727   6.886  0.0826 -0.4848  0.0250
20442SOL    HW164218   8.325   5.744   6.846  0.1553 -0.8928  0.0023
20442SOL    HW264219   8.176   5.754   6.820  0.2002 -1.1723 -0.3778
20443SOL     OW64220   3.331   8.260   2.920  0.3475  0.2934  0.0313
20443SOL    HW164221   3.376   8.226   2.842 -0.3156  0.3713 -0.3876
20443SOL    HW264222   3.329   8.354   2.907  0.2936  0.3126  0.1797
20444SOL     OW64223   0.457   2.558   1.273  0.0708 -0.3341 -0.0668
20444SOL    HW164224   0.508   2.607   1.337  2.0756 -0.4835 -1.4502
20444SOL    HW264225   0.377   2.533   1.319  1.0832  0.2203  2.1022
20445SOL     OW64226   9.261   6.558   2.457 -0.1923 -0.0274  0.1408
20445SOL    HW164227   9.176   6.537   2.418 -0.1265  0.8122 -0.4680
20445SOL    HW264228   9.312   6.477   2.446 -0.8279 -0.4624  0.3085
20446SOL     OW64229   1.227   4.334   3.357  0.4120  0.4144 -0.9351
20446SOL    HW164230   1.199   4.304   3.443  1.0336  0.4156 -0.7287
20446SOL    HW264231   1.185   4.419   3.346  0.3748  0.4379 -0.6098
20447SOL     OW64232   2.104   8.983   0.127  0.1963 -0.1304  0.4908
20447SOL    HW164233   2.102   9.056   0.189 -0.5337 -1.3039  1.9165
20447SOL    HW264234   2.021   8.989   0.080  0.7007  0.6929 -0.3390
20448SOL     OW64235   4.794   0.062   6.972 -0.0809  0.5295 -0.2573
20448SOL    HW164236   4.753   0.063   7.059  1.1007  0.3325  0.3208
20448SOL    HW264237   4.884   0.090   6.988  1.5239 -3.6858 -0.6879
20449SOL     OW64238   7.861   7.987   1.233 -0.5074  0.6025 -0.3596
20449SOL    HW164239   7.946   7.986   1.189 -0.3668  0.2269 -0.0818
20449SOL    HW264240   7.799   7.956   1.167 -0.6085  1.8847 -0.9096
20450SOL     OW64241   6.884   6.904   3.959  0.4024  0.1032 -0.3220
20450SOL    HW164242   6.803   6.854   3.960  0.7757 -0.5002 -0.1789
20450SOL    HW264243   6.861   6.988   4.000  0.2460 -0.6670  1.2416
20451SOL     OW64244   4.512   5.194   3.382 -0.0700 -0.2531  0.2862
20451SOL    HW164245   4.571   5.121   3.398 -0.0160 -0.8030 -2.1297
20451SOL    HW264246   4.434   5.155   3.343 -0.0045  0.9648 -1.1494
20452SOL     OW64247   4.141   1.173   5.093  0.6417 -0.0362 -0.1170
20452SOL    HW164248   4.141   1.106   5.024 -0.3716 -1.0773  0.8463
20452SOL    HW264249   4.123   1.255   5.046  3.5513 -0.0839 -1.5572
20453SOL     OW64250   7.463   2.220   7.409 -0.5590  0.5275  0.5384
20453SOL    HW164251   7.389   2.264   7.452  1.2131  2.7363  1.5166
20453SOL    HW264252   7.533   2.223   7.473  1.1639  0.8473 -1.2725
20454SOL     OW64253   0.035   2.540   3.309  0.2589 -0.0141 -0.1111
20454SOL    HW164254  -0.004   2.456   3.286 -0.6694  0.6057 -0.8587
20454SOL    HW264255   0.083   2.567   3.230  0.4084  0.2438  0.0639
20455SOL     OW64256   3.217   3.518   7.962  0.0324  0.1230 -0.5122
20455SOL    HW164257   3.241   3.548   8.050  0.1614  1.2904 -0.9320
20455SOL    HW264258   3.199   3.599   7.914 -2.7914 -0.5816 -0.7874
20456SOL     OW64259   6.636   5.405   0.796  0.4206  0.0234 -0.3498
20456SOL    HW164260   6.554   5.380   0.752 -0.1058  0.6119  0.2644
20456SOL    HW264261   6.646   5.498   0.777  0.3081  0.2296  0.5687
20457SOL     OW64262   2.974   8.252   1.283  0.4662 -0.0637 -0.1727
20457SOL    HW164263   2.902   8.290   1.232  0.6536  0.9946  0.3251
20457SOL    HW264264   3.004   8.324   1.339  0.4059 -1.1388  1.2870
20458SOL     OW64265   6.221   3.860   2.907  0.2957 -0.3522  0.6673
20458SOL    HW164266   6.270   3.778   2.898 -0.7141 -1.0301  1.1490
20458SOL    HW264267   6.142   3.846   2.854 -0.2665 -0.0123  1.3975
20459SOL     OW64268   4.160   6.756   2.551  0.0682  0.4396  0.0753
20459SOL    HW164269   4.086   6.731   2.496  2.4592 -0.0530 -3.1809
20459SOL    HW264270   4.166   6.685   2.616 -0.1883 -1.4416 -1.8561
20460SOL     OW64271   2.456   3.157   0.716 -0.2181 -0.0371  0.4355
20460SOL    HW164272   2.388   3.143   0.781 -0.3939 -0.7124  0.1104
20460SOL    HW264273   2.493   3.242   0.738 -0.5691 -0.0671  1.1505
20461SOL     OW64274   4.935   6.229   8.360  0.1140 -0.1392  0.0368
20461SOL    HW164275   4.876   6.269   8.297  1.0567 -1.5499 -1.8397
20461SOL    HW264276   5.012   6.285   8.361  0.1113 -0.1332 -0.1083
20462SOL     OW64277   6.320   1.888   6.399 -0.3039  0.9013 -0.6777
20462SOL    HW164278   6.412   1.889   6.423 -0.8766  0.5277  1.7808
20462SOL    HW264279   6.273   1.891   6.482 -2.5157 -0.0677 -1.8026
20463SOL     OW64280   8.139   8.204   3.442  0.0527  0.0287 -0.3373
20463SOL    HW164281   8.069   8.254   3.483  0.3356  0.2475 -0.1146
20463SOL    HW264282   8.094   8.134   3.395 -0.3585  0.5538 -0.7516
20464SOL     OW64283   1.786   0.526   8.991  0.2956  0.0552 -0.1771
20464SOL    HW164284   1.743   0.611   8.978 -0.4208 -0.1805  0.5210
20464SOL    HW264285   1.829   0.507   8.908  1.0349  1.4113 -0.1364
20465SOL     OW64286   1.934   7.132   1.986  0.1421  0.9511 -0.6565
20465SOL    HW164287   2.028   7.113   1.986  0.1169  0.7796  0.1190
20465SOL    HW264288   1.915   7.157   2.076 -0.8272 -0.3360 -0.4742
20466SOL     OW64289   5.872   3.953   0.360  0.0420 -0.0761  0.3328
20466SOL    HW164290   5.789   3.904   0.355 -0.1630  0.3184 -0.1337
20466SOL    HW264291   5.869   4.014   0.287  1.6210 -1.3913 -0.8982
20467SOL     OW64292   5.812   1.186   7.197 -0.1771  0.2530  0.1757
20467SOL    HW164293   5.828   1.249   7.268  1.8620  0.8604 -0.7553
20467SOL    HW264294   5.898   1.146   7.181 -1.1303 -1.7910 -0.2219
20468SOL     OW64295   9.193   1.974   6.305  0.0942 -0.0257 -0.6400
20468SOL    HW164296   9.209   1.893   6.353 -1.4152  0.5815  1.0167
20468SOL    HW264297   9.098   1.983   6.305  0.2470  2.4714  0.5759
20469SOL     OW64298   4.608   3.812   4.818 -0.1298  0.3550 -0.0377
20469SOL    HW164299   4.658   3.893   4.821  0.1066  0.2193  3.4362
20469SOL    HW264300   4.517   3.841   4.824 -0.2559  0.4227 -1.8447
20470SOL     OW64301   7.912   6.875   0.084  0.4671 -0.1157 -0.3272
20470SOL    HW164302   7.899   6.855  -0.009  0.2706  1.2026 -0.6044
20470SOL    HW264303   7.996   6.922   0.087  1.0660 -1.1964  0.3332
20471SOL     OW64304   2.066   0.429   4.425 -0.3996 -0.7076 -0.6473
20471SOL    HW164305   2.065   0.413   4.331 -0.9533  1.4086 -1.0607
20471SOL    HW264306   1.988   0.385   4.458 -0.6841 -0.7412 -1.3367
20472SOL     OW64307   2.624   1.147   8.893  0.6982 -0.3878 -0.4854
20472SOL    HW164308   2.670   1.139   8.810  0.5950 -1.6846 -0.4303
20472SOL    HW264309   2.674   1.092   8.954 -1.3966 -2.6529 -0.6539
20473SOL     OW64310   6.179   7.152   5.304  0.0926  0.4871  0.3926
20473SOL    HW164311   6.131   7.120   5.381  1.3459  1.1537  1.4878
20473SOL    HW264312   6.164   7.085   5.237 -0.3837 -0.5137  1.4645
20474SOL     OW64313   8.466   1.048   5.138 -0.1058  0.0806  0.1023
20474SOL    HW164314   8.442   1.135   5.106 -2.0720 -0.3813  0.2017
20474SOL    HW264315   8.412   1.036   5.217 -1.5633 -2.0569 -1.1180
20475SOL     OW64316   6.683   4.234   8.240  0.0265 -0.2149  0.0167
20475SOL    HW164317   6.697   4.174   8.313  0.2838 -0.6679 -0.4003
20475SOL    HW264318   6.590   4.226   8.220 -0.4863  1.2971  1.4835
20476SOL     OW64319   2.288   4.398   6.257 -0.0345 -0.1531 -0.1803
20476SOL    HW164320   2.288   4.493   6.247  1.0754 -0.0823  0.2680
20476SOL    HW264321   2.304   4.364   6.169  1.6955  0.1751 -0.0359
20477SOL     OW64322   5.876   7.994   0.851  0.6539 -0.2716 -0.5708
20477SOL    HW164323   5.953   8.050   0.848  0.0738  0.5561 -0.4510
20477SOL    HW264324   5.836   8.003   0.764 -0.9582  1.7428  0.2856
20478SOL     OW64325   1.682   8.810   2.327  0.0189  0.0541  0.2497
20478SOL    HW164326   1.666   8.816   2.421 -0.9483 -0.2431  0.1129
20478SOL    HW264327   1.601   8.844   2.287  0.1696 -0.4296 -0.4739
20479SOL     OW64328   1.002   4.877   3.106 -0.1286 -0.4378 -0.1181
20479SOL    HW164329   0.970   4.916   3.025 -0.1148 -0.6826 -0.2426
20479SOL    HW264330   1.019   4.785   3.083  1.9065 -0.0431 -0.4279
20480SOL     OW64331   7.756   2.196   2.966  0.2907  0.3165 -0.3812
20480SOL    HW164332   7.691   2.239   2.910  0.6240 -0.5932 -1.5261
20480SOL    HW264333   7.839   2.212   2.920  0.5070 -0.8874 -0.4269
20481SOL     OW64334   4.271   2.610   0.165  0.1409  0.0243  0.8346
20481SOL    HW164335   4.344   2.646   0.215  1.3436  0.0972 -0.8581
20481SOL    HW264336   4.290   2.516   0.160  1.5345  0.3455 -1.6381
20482SOL     OW64337   4.490   7.118   1.589 -0.4726 -0.4676 -0.1385
20482SOL    HW164338   4.479   7.183   1.659  0.2485  0.4151 -0.8141
20482SOL    HW264339   4.456   7.037   1.626  1.6505 -0.5195  2.0049
20483SOL     OW64340   4.006   6.555   3.506  0.2967 -0.1650  0.1962
20483SOL    HW164341   3.958   6.635   3.529  0.7970  0.1211  0.2685
20483SOL    HW264342   3.940   6.486   3.505  0.2655 -0.2544  2.7777
20484SOL     OW64343   8.343   8.456   6.892 -0.2512 -0.0776  0.1179
20484SOL    HW164344   8.275   8.494   6.948  0.2464 -0.6858  1.1624
20484SOL    HW264345   8.310   8.467   6.803 -0.0615  2.9886  0.3068
20485SOL     OW64346   7.214   0.093   0.364 -0.0330 -0.1834  0.1335
20485SOL    HW164347   7.127   0.076   0.400  0.2421 -0.8387  0.5105
20485SOL    HW264348   7.216   0.187   0.349 -1.3780 -0.3532 -1.3892
20486SOL     OW64349   3.783   6.273   2.482  0.1874  0.5374 -0.2285
20486SOL    HW164350   3.753   6.200   2.536 -0.4895 -0.6504 -2.1267
20486SOL    HW264351   3.857   6.237   2.433 -0.1623  1.1153 -1.1942
20487SOL     OW64352   4.576   2.853   3.685  0.1107  0.9832  0.2326
20487SOL    HW164353   4.595   2.759   3.684 -0.2635  0.8856 -1.5114
20487SOL    HW264354   4.576   2.877   3.777  1.2685 -0.5084  0.6508
20488SOL     OW64355   4.820   0.449   2.257  0.0699  0.0140  0.2215
20488SOL    HW164356   4.783   0.364   2.282 -1.5658  0.6645  0.1342
20488SOL    HW264357   4.890   0.464   2.321 -1.0352 -0.4393  1.6075
20489SOL     OW64358   1.901   1.114   7.498 -0.2961 -0.0844 -0.0677
20489SOL    HW164359   1.871   1.045   7.557 -0.1306 -1.4245 -1.4893
20489SOL    HW264360   1.997   1.114   7.507 -0.3938  1.6699  1.7161
20490SOL     OW64361   8.940   1.759   4.526  0.2699 -0.0534  0.2330
20490SOL    HW164362   8.911   1.684   4.579 -1.6070 -0.6574 -1.5490
20490SOL    HW264363   9.021   1.788   4.569  0.2231 -2.1135  1.8822
20491SOL     OW64364   0.180   5.099   1.979  0.7135  0.1205  0.0585
20491SOL    HW164365   0.249   5.126   1.918  1.0442 -0.7204  0.0541
20491SOL    HW264366   0.221   5.105   2.065  1.2550 -1.7328 -0.0447
20492SOL     OW64367   0.947   3.671   0.551 -0.1587 -0.3049  0.2288
20492SOL    HW164368   1.023   3.714   0.512 -0.1371 -0.4449  0.1150
20492SOL    HW264369   0.874   3.729   0.531 -0.5745 -1.4743 -2.0861
20493SOL     OW64370   7.580   0.507   3.373 -0.7314 -0.1419  0.0935
20493SOL    HW164371   7.535   0.591   3.384  2.1243  1.6298 -0.5821
20493SOL    HW264372   7.539   0.467   3.297 -2.4322  0.4029  0.6734
20494SOL     OW64373   5.761   7.417   7.394 -0.2553  0.1478  0.2808
20494SOL    HW164374   5.786   7.458   7.477 -0.7488 -0.3693  0.6821
20494SOL    HW264375   5.845   7.395   7.352  0.0890  2.5954 -0.4865
20495SOL     OW64376   0.987   2.363   7.769  0.4232 -0.0870 -0.5627
20495SOL    HW164377   1.065   2.320   7.733 -0.7735 -2.6275 -0.3762
20495SOL    HW264378   0.914   2.307   7.741 -1.2711  1.7839 -0.1072
20496SOL     OW64379   2.995   1.800   4.767  0.3825  0.2608  0.5433
20496SOL    HW164380   3.089   1.812   4.780  0.4210 -0.5908  1.1560
20496SOL    HW264381   2.957   1.816   4.854 -0.0273  0.4688  0.3271
20497SOL     OW64382   1.931   5.449   1.665 -0.8825 -0.0125 -0.4602
20497SOL    HW164383   1.856   5.392   1.680 -0.7664 -0.3468 -1.1266
20497SOL    HW264384   1.936   5.459   1.570 -0.6502  0.7721 -0.3716
20498SOL     OW64385   3.189   8.890   4.500  0.3990 -0.4595 -0.2786
20498SOL    HW164386   3.226   8.932   4.578  0.5218 -1.5185  0.2502
20498SOL    HW264387   3.168   8.963   4.442 -0.9290  0.4679  1.2712
20499SOL     OW64388   2.296   6.292   5.057 -0.3457  0.1781  0.2138
20499SOL    HW164389   2.224   6.260   5.111 -0.4374 -0.2664 -0.1640
20499SOL    HW264390   2.270   6.271   4.967 -0.0937  0.7089  0.0141
20500SOL     OW64391   3.843   7.007   6.844 -0.2211 -0.1996 -0.6238
20500SOL    HW164392   3.783   6.958   6.900  0.7089  1.8736  2.4502
20500SOL    HW264393   3.925   6.957   6.845 -0.3023 -0.3262 -0.3811
20501SOL     OW64394   9.033   6.985   3.804  0.5299  0.6702 -0.0626
20501SOL    HW164395   8.952   7.035   3.797 -1.3692 -2.3202 -0.7785
20501SOL    HW264396   9.087   7.018   3.732 -0.3191  2.1361 -0.0837
20502SOL     OW64397   5.380   9.187   4.124 -0.3789 -0.0098 -0.3320
20502SOL    HW164398   5.421   9.100   4.123 -1.6675 -0.7285 -3.3675
20502SOL    HW264399   5.390   9.219   4.035 -1.8919  2.0075  0.1549
20503SOL     OW64400   4.910   8.839   5.419  0.3749 -0.7339 -0.0270
20503SOL    HW164401   4.948   8.786   5.489  0.6203 -0.2266  0.2205
20503SOL    HW264402   4.825   8.866   5.453  1.4049  1.3921  1.0090
20504SOL     OW64403   4.553   2.817   0.706 -0.1520  0.2515 -0.3111
20504SOL    HW164404   4.550   2.831   0.612 -1.1914  0.5381 -0.2404
20504SOL    HW264405   4.466   2.785   0.729  0.5124 -1.1992  0.3487
20505SOL     OW64406   2.292   4.928   2.538 -0.2527  0.4686 -0.0576
20505SOL    HW164407   2.347   4.850   2.545 -0.3921  0.3717 -0.0462
20505SOL    HW264408   2.338   4.994   2.590  0.1245  0.5429 -0.4876
20506SOL     OW64409   7.795   3.104   4.943 -0.3904 -0.6423 -0.1545
20506SOL    HW164410   7.890   3.099   4.932 -0.4061 -1.3971 -0.0049
20506SOL    HW264411   7.761   3.035   4.886 -0.7293 -1.6224  1.1801
20507SOL     OW64412   0.366   7.500   3.065 -0.7188  0.4483 -0.2494
20507SOL    HW164413   0.415   7.544   2.996 -0.6483 -1.5930 -1.5829
20507SOL    HW264414   0.431   7.448   3.112 -1.0784  0.3445  0.1426
20508SOL     OW64415   3.154   0.547   5.783  0.4763  0.5490 -0.0129
20508SOL    HW164416   3.217   0.578   5.718 -0.0099  0.7740 -0.3818
20508SOL    HW264417   3.070   0.545   5.737  0.2964 -0.2289  0.3323
20509SOL     OW64418   5.800   8.920   4.563 -0.5312 -0.0513 -0.4157
20509SOL    HW164419   5.856   8.875   4.626 -0.6287 -0.1360 -0.3892
20509SOL    HW264420   5.760   8.992   4.613 -0.0704  0.3066 -0.5595
20510SOL     OW64421   4.535   6.623   1.439 -0.1746  0.2224 -0.1797
20510SOL    HW164422   4.575   6.695   1.390  0.0380  1.0825  1.1906
20510SOL    HW264423   4.458   6.662   1.480  1.2102  0.3903  2.4842
20511SOL     OW64424   0.285   0.924   8.596 -0.5865 -0.9847 -0.7330
20511SOL    HW164425   0.375   0.893   8.601 -0.2469  0.0701  0.0819
20511SOL    HW264426   0.258   0.932   8.688 -1.4740 -1.1553 -0.9663
20512SOL     OW64427   9.065   4.087   5.892 -0.4047 -0.2003  0.0671
20512SOL    HW164428   9.090   4.008   5.844 -0.7727 -0.3062  0.0479
20512SOL    HW264429   9.052   4.154   5.825 -1.6417 -0.5379 -0.0588
20513SOL     OW64430   8.297   7.269   0.114 -0.0905 -0.2145  0.0602
20513SOL    HW164431   8.313   7.265   0.208 -0.9024  0.8921  0.2707
20513SOL    HW264432   8.204   7.293   0.107  0.5318  2.1620 -0.9683
20514SOL     OW64433   3.657   3.343   4.722 -0.1953  0.4884 -0.3381
20514SOL    HW164434   3.574   3.310   4.756 -0.7826 -1.2555 -3.1208
20514SOL    HW264435   3.678   3.418   4.777 -2.0178 -0.8676  2.3964
20515SOL     OW64436   0.708   2.365   6.931 -0.0398 -0.3832  0.5018
20515SOL    HW164437   0.744   2.278   6.914  0.5260 -0.8575  3.6582
20515SOL    HW264438   0.627   2.367   6.879  0.5672 -2.2564 -0.6354
20516SOL     OW64439   6.445   7.290   8.441  0.6176  0.7981  0.7086
20516SOL    HW164440   6.439   7.207   8.394  2.7996  0.0424  1.6559
20516SOL    HW264441   6.463   7.355   8.373 -2.9777  0.9670 -0.3226
20517SOL     OW64442   7.655   5.819   6.935 -0.2077 -0.0722 -0.4337
20517SOL    HW164443   7.666   5.893   6.993  0.0636 -0.4620  0.0198
20517SOL    HW264444   7.732   5.821   6.878  0.8003 -1.0954  0.8238
20518SOL     OW64445   5.749   8.226   2.154  0.0106 -0.1566  0.4185
20518SOL    HW164446   5.754   8.209   2.248 -1.1151  1.7081  0.8615
20518SOL    HW264447   5.837   8.255   2.130 -0.0981  0.8915  1.2433
20519SOL     OW64448   0.458   7.393   1.755 -0.3830  0.6679 -0.4682
20519SOL    HW164449   0.518   7.408   1.681 -1.7967  0.7461 -1.6481
20519SOL    HW264450   0.376   7.366   1.713 -1.2521  0.8139  1.0945
20520SOL     OW64451   3.378   0.487   2.146  0.1401 -0.3680  0.0722
20520SOL    HW164452   3.401   0.398   2.174  0.5119 -0.2281  0.2092
20520SOL    HW264453   3.435   0.503   2.070  1.6899  0.5875  1.3775
20521SOL     OW64454   6.189   9.237   2.683  0.1064 -0.6313  0.2928
20521SOL    HW164455   6.251   9.164   2.683  0.6143 -0.2464 -1.1621
20521SOL    HW264456   6.237   9.309   2.642 -0.5754  0.3657  1.1765
20522SOL     OW64457   1.576   1.540   8.710  0.1206  0.2113 -0.2677
20522SOL    HW164458   1.603   1.448   8.709 -1.6489 -0.3444 -0.3208
20522SOL    HW264459   1.604   1.572   8.796  1.7150 -0.0416 -0.6681
20523SOL     OW64460   3.570   3.474   4.221  0.2914 -0.1412  0.3761
20523SOL    HW164461   3.658   3.470   4.182 -0.3931  1.2584 -1.4456
20523SOL    HW264462   3.584   3.511   4.308  1.3924  1.7020 -0.5158
20524SOL     OW64463   6.878   6.508   4.865 -0.1484 -0.0537 -0.3000
20524SOL    HW164464   6.904   6.418   4.883  0.3818 -0.3833 -2.4434
20524SOL    HW264465   6.810   6.501   4.799 -1.0123  1.0876  0.4311
20525SOL     OW64466   6.285   3.835   6.475  0.4099 -0.4459 -0.3854
20525SOL    HW164467   6.359   3.814   6.533 -0.2588 -0.1706  0.6031
20525SOL    HW264468   6.288   3.930   6.466 -0.7972 -0.2189  1.0804
20526SOL     OW64469   5.440   2.969   2.949 -0.3707 -0.0879  0.0019
20526SOL    HW164470   5.399   2.884   2.969  0.4830 -0.7033 -0.7966
20526SOL    HW264471   5.476   2.997   3.033  1.3285 -1.6428 -0.1249
20527SOL     OW64472   6.475   8.549   2.381 -0.4286  0.0506  0.2666
20527SOL    HW164473   6.490   8.614   2.312  0.8048  0.0771  0.5328
20527SOL    HW264474   6.403   8.584   2.433 -1.6600 -0.1639 -1.2252
20528SOL     OW64475   3.518   5.737   3.100  0.1045 -0.4861  0.5989
20528SOL    HW164476   3.466   5.661   3.076 -0.1350 -0.3673  0.7317
20528SOL    HW264477   3.470   5.812   3.063  0.5527 -0.4300  0.1147
20529SOL     OW64478   2.826   5.115   3.250 -0.3132 -0.0180 -0.6263
20529SOL    HW164479   2.909   5.160   3.240 -0.0595 -0.4904 -0.6717
20529SOL    HW264480   2.828   5.044   3.185 -0.5444 -0.3299 -0.3039
20530SOL     OW64481   4.508   4.851   0.688 -1.1221  0.1808  0.1460
20530SOL    HW164482   4.472   4.874   0.602  0.1250 -1.4737 -0.8976
20530SOL    HW264483   4.453   4.779   0.719 -1.4330  0.6280  0.6532
20531SOL     OW64484   7.829   2.149   8.230  0.1101  0.0904 -0.2983
20531SOL    HW164485   7.769   2.135   8.303  1.2245 -0.1092  0.6001
20531SOL    HW264486   7.871   2.065   8.216  2.7070  0.9548  1.4228
20532SOL     OW64487   4.179   0.897   1.672 -0.1622 -0.0688  0.0575
20532SOL    HW164488   4.104   0.846   1.702 -1.2253  0.9306 -0.7850
20532SOL    HW264489   4.182   0.883   1.577 -0.1147  0.9575 -0.1027
20533SOL     OW64490   7.980   6.820   3.126 -0.6231  0.1128  0.5028
20533SOL    HW164491   7.931   6.775   3.058 -0.8608  0.3471  0.5155
20533SOL    HW264492   8.027   6.750   3.172  1.1100  0.1359 -1.1274
20534SOL     OW64493   1.233   1.894   2.142 -0.0770  0.4947 -0.1540
20534SOL    HW164494   1.197   1.974   2.105  0.0055  1.0102  0.8328
20534SOL    HW264495   1.323   1.891   2.109 -0.2700  0.4865 -0.6793
20535SOL     OW64496   9.004   5.729   2.002 -0.7813 -0.4164 -0.3788
20535SOL    HW164497   8.963   5.674   1.934  0.9823 -1.6634 -0.4935
20535SOL    HW264498   9.025   5.667   2.072 -0.2660  0.4231  0.2119
20536SOL     OW64499   7.838   8.120   7.675 -0.7106 -0.4839 -0.1165
20536SOL    HW164500   7.777   8.181   7.633  0.3660 -0.3052 -1.4703
20536SOL    HW264501   7.807   8.115   7.766 -1.4358  1.2648 -0.2254
20537SOL     OW64502   4.763   7.743   8.691  0.3866  0.2286 -0.3059
20537SOL    HW164503   4.790   7.815   8.635 -0.0028  1.7952  1.4439
20537SOL    HW264504   4.684   7.774   8.734 -1.1635 -2.1556 -1.2136
20538SOL     OW64505   8.282   4.515   5.060  0.1055  0.9719  0.2334
20538SOL    HW164506   8.313   4.441   5.008  1.1813  1.3387  0.3292
20538SOL    HW264507   8.305   4.492   5.150 -1.7647  0.3306  0.6015
20539SOL     OW64508   7.561   8.150   6.721  0.4600 -0.6547  0.3444
20539SOL    HW164509   7.535   8.059   6.707  0.2386 -0.2587 -2.5735
20539SOL    HW264510   7.479   8.197   6.735  0.4322 -0.7029  0.3436
20540SOL     OW64511   3.245   0.023   6.241 -0.2492  0.5179 -0.2832
20540SOL    HW164512   3.244   0.059   6.329  0.2857  1.1115 -0.5133
20540SOL    HW264513   3.159   0.045   6.205 -0.3829  0.4771  0.0039
20541SOL     OW64514   2.858   4.539   6.110 -0.7169  0.0085  0.1525
20541SOL    HW164515   2.793   4.543   6.181 -0.5390 -0.9476  0.3796
20541SOL    HW264516   2.825   4.473   6.050 -0.7453  0.6472 -0.5568
20542SOL     OW64517   8.794   0.920   1.365 -0.0954 -0.1614  0.2049
20542SOL    HW164518   8.764   0.890   1.280 -0.8103 -0.0933  0.4230
20542SOL    HW264519   8.738   0.874   1.428  1.6763 -1.6716  0.7339
20543SOL     OW64520   5.485   3.229   9.076  0.0065 -0.4823 -0.4071
20543SOL    HW164521   5.405   3.196   9.037 -0.7334  1.6035 -0.7553
20543SOL    HW264522   5.457   3.273   9.157  1.2923 -3.0815  1.6408
20544SOL     OW64523   1.923   0.621   5.553 -0.2478  0.2848  0.0467
20544SOL    HW164524   1.925   0.712   5.582  0.5189  0.1034  0.5956
20544SOL    HW264525   1.833   0.608   5.522 -0.0408  1.5575 -1.1615
20545SOL     OW64526   3.200   6.414   2.049 -0.0048  0.3642 -0.1991
20545SOL    HW164527   3.151   6.369   2.118  2.3408  0.8302  1.9044
20545SOL    HW264528   3.242   6.344   1.999  2.3149  0.0351  2.0424
20546SOL     OW64529   6.020   2.744   0.959 -0.3461  0.6777  0.5059
20546SOL    HW164530   6.004   2.839   0.963 -1.0279  0.7068 -1.4468
20546SOL    HW264531   5.955   2.706   1.018 -0.5277  1.4001  0.7806
20547SOL     OW64532   4.363   4.810   3.498 -0.1055  0.2656  0.4130
20547SOL    HW164533   4.416   4.748   3.549  0.5984  0.9218  0.5059
20547SOL    HW264534   4.413   4.823   3.418  0.8447  2.2691  1.2535
20548SOL     OW64535   3.893   6.886   1.376  0.9138  0.4270 -0.2043
20548SOL    HW164536   3.815   6.873   1.431  1.3684  1.8007  0.8326
20548SOL    HW264537   3.859   6.892   1.287  0.0560 -0.9310 -0.0105
20549SOL     OW64538   0.813   2.044   6.314  0.2520 -0.2851  0.0057
20549SOL    HW164539   0.902   2.044   6.279  1.0459  0.4203  1.9000
20549SOL    HW264540   0.824   2.047   6.409 -1.8031 -1.6928  0.3505
20550SOL     OW64541   8.701   7.291   5.603 -0.3253 -0.9380 -0.2524
20550SOL    HW164542   8.629   7.265   5.660 -0.6896  0.9675  0.2308
20550SOL    HW264543   8.779   7.260   5.647 -0.7386 -1.5772  0.0515
20551SOL     OW64544   3.570   5.002   3.598 -0.1996 -0.5610  0.0536
20551SOL    HW164545   3.630   4.988   3.670  0.5013  0.4678 -0.3000
20551SOL    HW264546   3.579   5.095   3.576  0.5502 -1.0818 -2.1516
20552SOL     OW64547   7.852   2.257   8.878 -0.3648 -0.0534  0.3811
20552SOL    HW164548   7.931   2.242   8.930 -0.3745 -1.4894  0.0098
20552SOL    HW264549   7.884   2.292   8.795 -0.1732  0.0178  0.4829
20553SOL     OW64550   8.341   4.367   5.609 -0.2269 -0.1437 -0.1881
20553SOL    HW164551   8.354   4.287   5.558 -0.1685 -0.8492  0.9027
20553SOL    HW264552   8.326   4.337   5.699  1.3249  1.1282  0.5452
20554SOL     OW64553   4.095   5.118   4.406  0.5773  0.2182  0.4428
20554SOL    HW164554   4.021   5.120   4.466  1.3853  1.4393  1.4515
20554SOL    HW264555   4.056   5.127   4.319 -0.5095 -0.0558  0.8846
20555SOL     OW64556   1.849   5.022   5.775  0.6913  0.3029 -0.8715
20555SOL    HW164557   1.755   5.025   5.759  0.4264 -0.0109  0.4447
20555SOL    HW264558   1.862   5.083   5.848  1.8169  1.7757 -2.2273
20556SOL     OW64559   8.911   0.873   7.605 -0.2382 -0.0473  0.0755
20556SOL    HW164560   8.836   0.890   7.548 -0.7630  0.5434  0.9045
20556SOL    HW264561   8.906   0.942   7.671  3.1168  2.2916 -1.8331
20557SOL     OW64562   3.571   3.793   6.560 -0.3976  0.0440  0.1519
20557SOL    HW164563   3.660   3.779   6.593 -0.7552 -0.5971  0.8876
20557SOL    HW264564   3.572   3.755   6.472  0.7538  2.3796 -0.9250
20558SOL     OW64565   1.409   9.008   0.631  0.3837  0.0074  0.0554
20558SOL    HW164566   1.429   8.935   0.573 -0.6951 -0.6951  0.5385
20558SOL    HW264567   1.486   9.015   0.688  1.0720  0.1477 -0.8731
20559SOL     OW64568   5.832   8.588   5.616  0.3658 -0.0098 -0.1515
20559SOL    HW164569   5.783   8.635   5.683 -0.0481 -0.9489  0.2309
20559SOL    HW264570   5.809   8.631   5.534 -0.3836  0.1502  0.1340
20560SOL     OW64571   0.811   4.231   2.841 -0.3247 -0.0637  0.2535
20560SOL    HW164572   0.739   4.220   2.778 -0.6165 -0.9799  0.7244
20560SOL    HW264573   0.781   4.187   2.920 -0.4722  2.1197  1.4938
20561SOL     OW64574   4.175   3.419   3.697  0.4430  0.0344 -0.5233
20561SOL    HW164575   4.209   3.330   3.690  0.1400 -0.3418  1.8507
20561SOL    HW264576   4.080   3.409   3.685  0.5095  0.1687 -1.1508
20562SOL     OW64577   3.296   5.143   0.312 -0.3218  0.2752  0.0806
20562SOL    HW164578   3.273   5.079   0.243  0.7323 -1.5937  1.3742
20562SOL    HW264579   3.293   5.092   0.393  0.0404  2.0386  1.2463
20563SOL     OW64580   4.694   3.315   5.836  0.3965  0.5908 -0.3259
20563SOL    HW164581   4.663   3.230   5.869  1.6925  0.2868  0.1827
20563SOL    HW264582   4.659   3.378   5.899  2.3821  0.0671  1.4282
20564SOL     OW64583   6.693   2.526   4.291 -0.0437  0.9153 -0.7314
20564SOL    HW164584   6.788   2.524   4.278 -0.1405 -0.5301 -1.4954
20564SOL    HW264585   6.665   2.609   4.253  1.0049  1.8323  0.4014
20565SOL     OW64586   7.977   8.978   0.663  0.2700  0.8540  0.0925
20565SOL    HW164587   7.913   9.041   0.629 -0.2803 -0.0979 -0.6862
20565SOL    HW264588   7.924   8.905   0.696  0.9310 -0.4294 -1.5286
20566SOL     OW64589   2.517   2.895   7.597  0.3566  0.2965  1.0307
20566SOL    HW164590   2.484   2.982   7.573  0.7436 -0.0278 -0.8345
20566SOL    HW264591   2.439   2.839   7.600  0.3770  0.1280 -0.6127
20567SOL     OW64592   4.775   5.850   4.401 -0.0701 -0.2703  0.2226
20567SOL    HW164593   4.771   5.795   4.322 -0.5399 -1.0318  0.7589
20567SOL    HW264594   4.753   5.938   4.370 -1.3577 -0.7532 -0.3314
20568SOL     OW64595   2.596   2.789   6.890 -0.5566 -0.4348  0.3581
20568SOL    HW164596   2.633   2.709   6.853 -1.0596 -0.8752  0.7930
20568SOL    HW264597   2.671   2.848   6.898 -0.3876 -0.3960 -1.1477
20569SOL     OW64598   1.062   3.590   7.725 -0.4613  0.1568 -0.1270
20569SOL    HW164599   1.151   3.574   7.755 -0.8802  0.6108  1.5179
20569SOL    HW264600   1.062   3.568   7.632  1.1526 -0.6087  0.0338
20570SOL     OW64601   3.812   5.098   5.549  0.6581  0.1888 -0.4271
20570SOL    HW164602   3.803   5.043   5.628 -0.4992 -0.9224 -1.2931
20570SOL    HW264603   3.887   5.061   5.503  1.3053  0.8086  0.1003
20571SOL     OW64604   3.584   2.728   8.446  0.6571  0.4844  0.0573
20571SOL    HW164605   3.601   2.646   8.491  2.7059  0.3330 -0.8719
20571SOL    HW264606   3.656   2.785   8.472 -0.2906  1.7255  0.0403
20572SOL     OW64607   7.678   7.449   5.174 -0.0571  0.0506  0.6662
20572SOL    HW164608   7.773   7.460   5.177 -0.1817  1.0740  1.4765
20572SOL    HW264609   7.659   7.424   5.084  0.9705 -0.0097  0.4584
20573SOL     OW64610   1.221   8.041   2.410 -0.3329 -0.2036 -0.6655
20573SOL    HW164611   1.206   7.965   2.353 -0.3088  0.3139 -1.3727
20573SOL    HW264612   1.134   8.071   2.434 -0.3452 -1.0270  0.4159
20574SOL     OW64613   8.482   4.762   0.914 -0.0108 -0.6458  0.4518
20574SOL    HW164614   8.421   4.772   0.841 -0.2024 -1.0501  0.5522
20574SOL    HW264615   8.462   4.675   0.950 -0.6419 -0.0368  1.6372
20575SOL     OW64616   0.142   4.347   4.493 -0.7345  0.1656  0.1202
20575SOL    HW164617   0.114   4.267   4.536 -0.1843  0.8945  1.9688
20575SOL    HW264618   0.196   4.318   4.420 -1.8545 -1.1419 -0.2193
20576SOL     OW64619   2.583   8.436   8.421 -0.5051  0.3511 -0.2084
20576SOL    HW164620   2.536   8.433   8.338 -0.1071  0.1702 -0.4258
20576SOL    HW264621   2.550   8.361   8.471 -2.3203  1.6347  0.6533
20577SOL     OW64622   8.146   6.695   2.486 -0.0276  0.0809 -0.3088
20577SOL    HW164623   8.058   6.715   2.455  0.4995  2.0328 -0.6804
20577SOL    HW264624   8.133   6.658   2.574 -1.1956  1.1328 -0.0046
20578SOL     OW64625   3.652   1.523   6.691 -0.0124 -0.1699 -0.3321
20578SOL    HW164626   3.677   1.613   6.668  2.2467 -0.5188  0.5569
20578SOL    HW264627   3.668   1.473   6.611 -2.5482  0.3497 -1.2701
20579SOL     OW64628   1.320   5.751   3.334 -0.2664 -0.4112  0.0573
20579SOL    HW164629   1.354   5.744   3.423  0.4446 -0.8915 -0.2415
20579SOL    HW264630   1.394   5.727   3.278 -0.3801  0.9003 -0.7110
20580SOL     OW64631   7.173   3.781   1.847  0.3286 -0.4597 -0.2150
20580SOL    HW164632   7.232   3.844   1.806 -1.1739  1.2882  0.1797
20580SOL    HW264633   7.176   3.704   1.789  0.3221  0.9032 -2.0978
20581SOL     OW64634   7.052   9.035   2.589  0.5219  0.1179  0.4196
20581SOL    HW164635   7.078   8.953   2.631  2.3730 -0.5953 -1.8870
20581SOL    HW264636   7.024   9.009   2.501  0.0243  1.8507  0.0233
20582SOL     OW64637   6.837   2.306   2.994 -0.2209  0.2977 -0.6423
20582SOL    HW164638   6.915   2.259   2.965  0.6725  2.8983 -2.8507
20582SOL    HW264639   6.795   2.246   3.056  3.0040 -1.6002 -0.0263
20583SOL     OW64640   1.259   2.623   8.756 -0.2414 -0.0526  1.1332
20583SOL    HW164641   1.194   2.684   8.720 -2.5419 -3.2625 -0.6887
20583SOL    HW264642   1.236   2.616   8.849 -3.0779 -1.4942  0.4497
20584SOL     OW64643   6.117   7.573   6.461 -0.5922  0.3509 -0.3723
20584SOL    HW164644   6.156   7.506   6.404 -0.4713 -1.0662  1.2593
20584SOL    HW264645   6.038   7.531   6.496 -0.8492  1.2987  0.2162
20585SOL     OW64646   7.500   6.699   8.831 -0.0459 -0.5637 -0.1603
20585SOL    HW164647   7.546   6.783   8.832 -0.1506 -0.4588 -1.6195
20585SOL    HW264648   7.441   6.703   8.906  1.4917 -0.2496  1.1069
20586SOL     OW64649   2.665   8.888   6.597  0.0189  0.7640  0.0714
20586SOL    HW164650   2.694   8.840   6.520  0.2053  0.1440  0.5194
20586SOL    HW264651   2.588   8.841   6.628 -0.5308  1.4792 -0.1983
20587SOL     OW64652   7.420   2.788   2.668  0.5312 -0.2208 -0.2746
20587SOL    HW164653   7.370   2.735   2.606 -0.6165  0.6780 -0.1615
20587SOL    HW264654   7.354   2.822   2.729  1.2977  0.9380 -0.0633
20588SOL     OW64655   0.774   2.900   2.378  0.3284  0.1272 -0.1099
20588SOL    HW164656   0.796   2.822   2.327 -0.1288  0.4974 -0.8916
20588SOL    HW264657   0.854   2.953   2.375  1.4921 -1.3057  2.4147
20589SOL     OW64658   2.553   2.824   2.574 -0.2287 -0.1640 -0.0891
20589SOL    HW164659   2.524   2.914   2.558 -1.7183 -0.2455  1.7543
20589SOL    HW264660   2.647   2.831   2.588 -0.5384  1.4367  1.6946
20590SOL     OW64661   4.227   7.436   3.820 -0.0234  0.2172 -0.0986
20590SOL    HW164662   4.198   7.516   3.864  0.1985  0.8216 -1.0244
20590SOL    HW264663   4.179   7.366   3.864 -0.6485  0.9114  0.3521
20591SOL     OW64664   0.425   7.712   2.230 -0.0102  0.1638 -0.6059
20591SOL    HW164665   0.335   7.741   2.218 -0.3784 -0.9271 -0.5663
20591SOL    HW264666   0.453   7.683   2.143  1.0592  2.4923 -1.1106
20592SOL     OW64667   6.510   4.691   3.264  0.0421 -0.1248 -0.1521
20592SOL    HW164668   6.596   4.668   3.231  0.5104  1.8513 -0.4173
20592SOL    HW264669   6.517   4.681   3.359 -0.0830 -1.9271 -0.3097
20593SOL     OW64670   7.353   7.885   8.033 -0.0889 -0.4511  0.3819
20593SOL    HW164671   7.432   7.908   7.984 -0.2307 -0.6315  0.0631
20593SOL    HW264672   7.371   7.798   8.068  0.6028  0.2860  1.9182
20594SOL     OW64673   1.928   3.547   1.929  0.0009 -0.0709  0.1840
20594SOL    HW164674   1.858   3.610   1.908 -0.2383  0.0586  1.3398
20594SOL    HW264675   1.882   3.468   1.957  0.3094 -0.6208 -0.8131
20595SOL     OW64676   3.650   1.212   3.167 -0.1898 -0.3706  0.0068
20595SOL    HW164677   3.665   1.229   3.260 -1.4451  0.3626  0.0830
20595SOL    HW264678   3.702   1.133   3.149  0.2856 -0.3614  1.2492
20596SOL     OW64679   8.313   7.055   2.663  0.4703 -0.0560 -0.4777
20596SOL    HW164680   8.351   7.041   2.576 -1.5131 -1.9446 -1.1317
20596SOL    HW264681   8.281   7.145   2.661  0.4679 -0.0702 -1.7162
20597SOL     OW64682   4.542   8.221   4.204  0.2473 -0.4843  0.5680
20597SOL    HW164683   4.509   8.145   4.253 -0.4367 -1.0841 -0.7801
20597SOL    HW264684   4.626   8.242   4.247 -0.8276 -0.2550  2.7059
20598SOL     OW64685   2.933   6.018   5.696  0.0134 -0.1326 -0.2920
20598SOL    HW164686   2.969   5.929   5.695 -0.1502 -0.2372  1.2772
20598SOL    HW264687   2.843   6.008   5.665  0.3181 -0.3311 -1.1645
20599SOL     OW64688   2.700   7.024   1.520 -0.1497 -0.2051  0.1954
20599SOL    HW164689   2.673   6.940   1.557 -0.9014  0.2712  0.7630
20599SOL    HW264690   2.626   7.083   1.537  0.5230  0.6764  0.1544
20600SOL     OW64691   3.133   2.634   3.449  0.5965  0.3231 -0.2899
20600SOL    HW164692   3.095   2.710   3.494 -0.3421 -0.1447 -0.2770
20600SOL    HW264693   3.172   2.582   3.520  1.0461  0.6826 -0.2736
20601SOL     OW64694   0.399   7.038   1.618  0.1580 -0.2044  0.1944
20601SOL    HW164695   0.403   7.109   1.554  1.2477 -0.6474 -0.2480
20601SOL    HW264696   0.389   7.083   1.702  0.9738  0.4959 -0.0630
20602SOL     OW64697   2.639   4.704   5.040 -0.1314 -0.1767  1.0811
20602SOL    HW164698   2.582   4.747   5.104  0.2639 -0.1503  1.4197
20602SOL    HW264699   2.706   4.661   5.093 -0.4106 -1.0421  0.7334
20603SOL     OW64700   9.168   6.979   5.185 -0.1186 -0.3822  0.4077
20603SOL    HW164701   9.099   6.973   5.118  0.2776  1.0064 -0.1487
20603SOL    HW264702   9.244   6.938   5.145 -0.1770 -0.4857  0.4032
20604SOL     OW64703   1.617   2.841   5.630  0.2828  0.6855  0.5808
20604SOL    HW164704   1.593   2.842   5.537  1.3172  0.6859  0.3020
20604SOL    HW264705   1.582   2.759   5.663  0.5403  0.3459  0.0162
20605SOL     OW64706   6.861   8.367   7.458  0.9496  0.3195 -0.3207
20605SOL    HW164707   6.821   8.440   7.504  0.2017 -1.9708  3.0242
20605SOL    HW264708   6.788   8.305   7.444  2.1669 -1.4056  0.5623
20606SOL     OW64709   7.348   3.388   4.473 -0.2258 -0.5183 -0.3605
20606SOL    HW164710   7.377   3.420   4.388 -1.5316  0.9637 -0.2827
20606SOL    HW264711   7.264   3.431   4.489 -0.0003 -0.7076  1.6993
20607SOL     OW64712   4.257   6.779   0.492  0.1763  0.2229 -0.2164
20607SOL    HW164713   4.205   6.713   0.537  0.5475 -0.1283 -0.2925
20607SOL    HW264714   4.336   6.788   0.546 -0.7633  2.1426  0.9653
20608SOL     OW64715   6.671   3.222   8.086 -0.3423  0.3738 -0.4633
20608SOL    HW164716   6.595   3.204   8.141 -0.4161 -0.1879 -0.7374
20608SOL    HW264717   6.743   3.177   8.129  0.0142  1.5765  0.2351
20609SOL     OW64718   4.211   7.089   3.859  0.1746 -0.4739  0.5209
20609SOL    HW164719   4.304   7.112   3.858 -0.5604  3.6994 -3.1025
20609SOL    HW264720   4.169   7.160   3.907 -1.3438 -0.8599 -0.1692
20610SOL     OW64721   7.059   7.190   8.599 -0.2665  0.5930  0.0427
20610SOL    HW164722   7.004   7.151   8.531 -0.3352 -0.8659  0.8868
20610SOL    HW264723   7.004   7.188   8.678  0.3909  0.7051  0.5119
20611SOL     OW64724   1.530   6.491   6.852 -0.1394 -0.4094  0.0559
20611SOL    HW164725   1.479   6.474   6.931 -1.5358 -0.1858 -0.7401
20611SOL    HW264726   1.506   6.581   6.827  0.5884 -0.3342 -0.3866
20612SOL     OW64727   3.429   4.790   3.797 -0.4899  0.2342  0.3424
20612SOL    HW164728   3.429   4.884   3.814 -2.0701  0.3254 -0.0165
20612SOL    HW264729   3.349   4.758   3.838 -0.1386 -0.9083  0.1796
20613SOL     OW64730   2.169   2.530   4.540 -0.6721  0.6181 -0.0417
20613SOL    HW164731   2.204   2.618   4.527 -0.8664  0.8396  0.8280
20613SOL    HW264732   2.074   2.541   4.535 -0.8189  0.8689  2.1106
20614SOL     OW64733   3.507   5.190   4.570 -0.6482 -0.3884  0.3869
20614SOL    HW164734   3.580   5.252   4.561  0.0323 -1.0712  1.0727
20614SOL    HW264735   3.465   5.192   4.484 -1.3729  1.8719  0.7092
20615SOL     OW64736   3.485   1.893   1.258 -0.3551  0.1668  0.4071
20615SOL    HW164737   3.531   1.842   1.324  0.0189  0.3738  0.3073
20615SOL    HW264738   3.550   1.954   1.224 -0.6165  0.2526  0.0456
20616SOL     OW64739   2.238   6.767   6.140 -0.1931  0.3728  0.4079
20616SOL    HW164740   2.223   6.691   6.197  1.0024  0.2025  0.5229
20616SOL    HW264741   2.238   6.842   6.200  1.1953  0.1802  0.6832
20617SOL     OW64742   8.399   8.699   4.109  0.0837 -0.3461 -0.1845
20617SOL    HW164743   8.413   8.649   4.190  1.0161  0.9557  0.4987
20617SOL    HW264744   8.308   8.726   4.114 -0.6766 -2.5374 -0.9382
20618SOL     OW64745   3.829   0.052   0.005  0.2872 -0.0622  0.8458
20618SOL    HW164746   3.792   0.104  -0.067 -0.8061 -0.0777  1.3748
20618SOL    HW264747   3.765  -0.017   0.019  1.4433 -1.2207  0.5515
20619SOL     OW64748   5.532   4.453   0.104 -0.2300 -0.0874  0.2318
20619SOL    HW164749   5.481   4.507   0.165 -1.1073 -2.0242  1.3164
20619SOL    HW264750   5.488   4.463   0.020  0.5018  1.9743  0.0403
20620SOL     OW64751   4.026   1.236   6.959 -0.5388  0.4036  0.1762
20620SOL    HW164752   3.960   1.179   6.998 -0.8751 -0.8089 -2.0098
20620SOL    HW264753   4.097   1.177   6.934  0.7708  1.4953  1.1821
20621SOL     OW64754   8.432   6.688   3.241 -0.5252  0.4620 -0.0119
20621SOL    HW164755   8.523   6.685   3.213 -0.0832 -1.0418  1.4540
20621SOL    HW264756   8.430   6.757   3.308 -0.1234 -0.4765  0.9918
20622SOL     OW64757   4.271   4.219   0.873  0.8760  0.4142 -0.1020
20622SOL    HW164758   4.279   4.277   0.797  0.8906  0.1457 -0.3078
20622SOL    HW264759   4.273   4.131   0.836  4.2225  0.1271  0.4594
20623SOL     OW64760   5.962   6.698   1.089 -0.2418  0.2593  0.4415
20623SOL    HW164761   5.881   6.728   1.049  0.0778  2.0364  1.0404
20623SOL    HW264762   6.028   6.708   1.021 -0.4779 -1.2164 -0.0560
20624SOL     OW64763   0.762   7.612   8.431 -0.2206  0.1749  0.2468
20624SOL    HW164764   0.816   7.685   8.462  2.0256 -0.9678 -0.7071
20624SOL    HW264765   0.723   7.644   8.350 -0.6479  0.8675  0.7126
20625SOL     OW64766   3.277   0.969   6.756 -0.1528 -0.1043  0.5981
20625SOL    HW164767   3.280   1.063   6.774 -2.3769 -0.0039  0.7046
20625SOL    HW264768   3.283   0.962   6.661 -2.8090  0.4294  0.3000
20626SOL     OW64769   5.603   9.177   1.284 -0.3691 -0.0892  0.7495
20626SOL    HW164770   5.605   9.267   1.249  1.7056  0.0616  1.1305
20626SOL    HW264771   5.590   9.189   1.378 -1.6986 -0.2972  0.6114
20627SOL     OW64772   7.923   5.954   4.994  0.2076 -0.2035  0.3036
20627SOL    HW164773   7.857   5.944   5.062  2.0660 -0.9544  2.0618
20627SOL    HW264774   7.963   6.039   5.012  0.7401 -0.4230  0.1719
20628SOL     OW64775   4.154   1.955   8.553 -0.6868 -0.2432 -0.5247
20628SOL    HW164776   4.085   1.895   8.525  0.2183 -2.0070  0.8143
20628SOL    HW264777   4.235   1.904   8.544 -0.1252 -0.1963  2.9843
20629SOL     OW64778   2.293   5.096   8.728  0.3274 -0.3706 -0.2549
20629SOL    HW164779   2.311   5.008   8.760  1.1048 -0.6740 -1.4456
20629SOL    HW264780   2.355   5.152   8.776 -0.9990 -0.2496  1.4139
20630SOL     OW64781   6.671   3.398   6.757  0.3476  0.0050 -0.5007
20630SOL    HW164782   6.658   3.431   6.846  1.0964 -0.0227 -0.3808
20630SOL    HW264783   6.584   3.406   6.716  0.3122  1.2920 -0.2091
20631SOL     OW64784   8.460   3.261   3.750 -0.4539 -0.1274 -0.4731
20631SOL    HW164785   8.520   3.306   3.809 -1.3562  0.6806 -0.1321
20631SOL    HW264786   8.516   3.220   3.685  0.4540  0.8461 -0.3304
20632SOL     OW64787   2.200   3.185   6.643 -0.2557  0.3648  0.3616
20632SOL    HW164788   2.157   3.164   6.726 -0.4076 -0.2250  0.1372
20632SOL    HW264789   2.132   3.175   6.577  0.4552 -1.7152 -0.1439
20633SOL     OW64790   1.062   7.173   9.031 -0.3391  0.4906 -0.4048
20633SOL    HW164791   0.983   7.184   8.979 -1.3157  0.8168  1.0894
20633SOL    HW264792   1.031   7.172   9.122  1.3936  0.8781  0.2249
20634SOL     OW64793   5.135   0.985   1.669 -0.0602  0.2703 -0.1472
20634SOL    HW164794   5.066   0.990   1.602 -0.2908 -1.3714 -0.0784
20634SOL    HW264795   5.175   0.900   1.655  0.3875  0.2124  1.3354
20635SOL     OW64796   5.030   6.329   4.843  0.2309 -0.5715 -0.6120
20635SOL    HW164797   4.991   6.281   4.770  0.2270  0.0160 -1.0018
20635SOL    HW264798   5.032   6.266   4.915 -0.3364 -0.9661 -0.9363
20636SOL     OW64799   8.039   3.481   8.317 -0.2162 -0.3399 -0.4307
20636SOL    HW164800   7.989   3.562   8.326 -0.2788 -0.5274  1.4521
20636SOL    HW264801   8.129   3.506   8.338 -0.0280 -0.5400 -0.9935
20637SOL     OW64802   8.320   0.246   1.870 -0.6551  0.3107 -0.1486
20637SOL    HW164803   8.343   0.304   1.797  1.6878  0.3186  0.5118
20637SOL    HW264804   8.305   0.161   1.829 -0.9002  0.6568 -0.7898
20638SOL     OW64805   6.911   3.783   7.360 -0.1080 -1.1161  0.0707
20638SOL    HW164806   6.881   3.694   7.343  1.3689 -1.5405 -0.4568
20638SOL    HW264807   7.004   3.774   7.379  0.1545  0.3500 -0.3741
20639SOL     OW64808   1.398   6.365   2.244  0.3466 -0.0201  0.0464
20639SOL    HW164809   1.338   6.296   2.216  0.4195  0.5696 -1.6412
20639SOL    HW264810   1.476   6.318   2.275  0.7347 -0.7081 -1.8651
20640SOL     OW64811   5.338   5.293   4.668  0.2848 -0.6058 -0.1337
20640SOL    HW164812   5.254   5.337   4.683  1.0925  0.8931  0.2906
20640SOL    HW264813   5.315   5.210   4.627 -1.3655  0.0521 -0.6456
20641SOL     OW64814   4.072   4.215   0.535  0.4509  0.0323 -0.3493
20641SOL    HW164815   4.032   4.129   0.542 -1.1239  0.5075 -2.3996
20641SOL    HW264816   4.042   4.262   0.613 -0.2897 -0.6734 -0.1986
20642SOL     OW64817   3.200   8.094   5.346 -0.2356  0.1019  0.0385
20642SOL    HW164818   3.202   8.125   5.437 -0.6110  1.1748 -0.2997
20642SOL    HW264819   3.166   8.169   5.296 -0.0150 -0.4652 -0.9891
20643SOL     OW64820   7.580   4.587   2.555 -0.2010 -0.0685  0.2179
20643SOL    HW164821   7.650   4.651   2.566 -0.7312  0.7858 -1.1003
20643SOL    HW264822   7.609   4.530   2.484 -0.0688 -0.8303  0.8735
20644SOL     OW64823   7.440   1.101   5.627  0.6411  0.1154  0.0031
20644SOL    HW164824   7.506   1.033   5.640  2.4530  1.8203  0.3218
20644SOL    HW264825   7.474   1.176   5.677 -1.7715  0.9567  0.5199
20645SOL     OW64826   7.736   6.407   7.832  0.0132  0.0580 -0.3235
20645SOL    HW164827   7.803   6.472   7.851  0.5633 -0.8411  0.8912
20645SOL    HW264828   7.775   6.323   7.856 -1.1442 -0.6031 -0.6518
20646SOL     OW64829   1.445   3.017   1.309 -0.0987 -0.0334 -0.3385
20646SOL    HW164830   1.443   3.001   1.215  1.6407  0.1472 -0.4267
20646SOL    HW264831   1.384   3.089   1.322  0.5632  0.7753 -1.5161
20647SOL     OW64832   9.066   8.022   2.435 -0.2740 -0.0203 -0.3418
20647SOL    HW164833   9.041   8.049   2.346 -1.8481  0.0420  0.0845
20647SOL    HW264834   8.994   8.053   2.490  0.2246 -0.8868  0.8308
20648SOL     OW64835   4.982   2.106   5.924  0.0633 -0.6213  0.3604
20648SOL    HW164836   5.075   2.106   5.900  0.7398  1.2782  2.5157
20648SOL    HW264837   4.950   2.192   5.895 -0.8995 -1.0723  0.0599
20649SOL     OW64838   3.149   0.136   3.184 -0.1863 -0.0886  0.1397
20649SOL    HW164839   3.101   0.108   3.261 -0.2498 -2.0761 -0.5668
20649SOL    HW264840   3.226   0.079   3.182 -0.1916 -0.0849 -1.2576
20650SOL     OW64841   9.121   3.569   6.111 -0.0661 -0.1004  0.4423
20650SOL    HW164842   9.075   3.513   6.174 -2.6119  0.8583 -0.4567
20650SOL    HW264843   9.153   3.642   6.164 -1.3858  0.2410  0.8070
20651SOL     OW64844   7.617   6.342   8.093  0.1747  0.0796  0.0777
20651SOL    HW164845   7.669   6.363   8.015 -0.9356  0.1226 -0.6757
20651SOL    HW264846   7.603   6.426   8.136 -1.1131  0.4130 -0.9231
20652SOL     OW64847   0.399   0.088   1.912 -0.6475 -0.3265  0.2224
20652SOL    HW164848   0.364   0.100   2.000 -0.4885 -2.4792  0.6382
20652SOL    HW264849   0.485   0.048   1.926  0.1656  0.9642 -0.8828
20653SOL     OW64850   2.118   1.515   4.951  0.0159  0.2969  0.0446
20653SOL    HW164851   2.100   1.564   4.871 -0.2175 -0.3506 -0.3073
20653SOL    HW264852   2.058   1.550   5.016 -1.3622 -0.6817 -0.6617
20654SOL     OW64853   1.084   0.492   2.285 -0.1790 -0.4153  0.4606
20654SOL    HW164854   1.090   0.479   2.380  0.9853  0.1147  0.4744
20654SOL    HW264855   1.034   0.573   2.275 -1.8267 -1.3745  0.5487
20655SOL     OW64856   0.257   6.721   1.698 -0.1099  0.3359  0.4912
20655SOL    HW164857   0.199   6.734   1.773 -0.2449 -0.5472  0.5499
20655SOL    HW264858   0.217   6.649   1.649  1.7271 -1.4168  1.3844
20656SOL     OW64859   5.612   1.280   4.743  0.1580  0.3087 -0.4155
20656SOL    HW164860   5.595   1.303   4.834  0.4611 -1.8563  0.2436
20656SOL    HW264861   5.525   1.279   4.702 -0.3815 -1.7361  0.6612
20657SOL     OW64862   3.613   7.088   5.138  0.0633 -0.6107 -0.8187
20657SOL    HW164863   3.580   7.008   5.097 -0.5565 -0.3880 -0.7607
20657SOL    HW264864   3.535   7.142   5.152  0.0579 -1.1822  1.8208
20658SOL     OW64865   7.309   9.111   0.984  0.1647  0.0256  0.2378
20658SOL    HW164866   7.246   9.053   1.027  1.1210 -1.9357 -0.8905
20658SOL    HW264867   7.367   9.140   1.055  0.5826 -1.6303  0.6107
20659SOL     OW64868   7.008   6.487   6.281  0.5062 -0.3270 -0.0006
20659SOL    HW164869   6.990   6.404   6.326  0.3475 -1.2426 -1.6711
20659SOL    HW264870   6.921   6.523   6.263  0.5747  0.1774  0.6677
20660SOL     OW64871   2.608   2.508   3.100 -0.3297  0.1586  0.1156
20660SOL    HW164872   2.662   2.586   3.103 -0.8002  0.4829  0.2264
20660SOL    HW264873   2.520   2.538   3.120 -0.1690 -0.7390  2.4891
20661SOL     OW64874   6.131   5.087   0.646 -0.0113  0.1173 -1.0359
20661SOL    HW164875   6.138   5.030   0.569 -0.7643 -0.1598 -0.9033
20661SOL    HW264876   6.089   5.167   0.613  1.0877  0.6410 -1.2327
20662SOL     OW64877   7.582   3.355   2.094  0.1676  0.0777  0.2221
20662SOL    HW164878   7.631   3.436   2.081 -0.0442  0.0025 -1.1594
20662SOL    HW264879   7.625   3.313   2.169  0.1557  1.5389  1.0655
20663SOL     OW64880   5.246   2.482   0.128  0.3133 -0.3587  0.3031
20663SOL    HW164881   5.312   2.541   0.162 -2.2070  1.6229  2.1927
20663SOL    HW264882   5.236   2.415   0.196  0.4107 -0.6651  0.0153
20664SOL     OW64883   3.995   1.397   3.623  0.1251  0.5045  0.1253
20664SOL    HW164884   4.017   1.489   3.609 -0.3486  0.5362 -0.4587
20664SOL    HW264885   4.080   1.352   3.619  0.4290  0.9813  1.0481
20665SOL     OW64886   3.394   5.916   3.783 -0.0003  0.1882 -0.0532
20665SOL    HW164887   3.445   5.835   3.787 -0.4875 -0.0902  1.0199
20665SOL    HW264888   3.460   5.986   3.785  0.3760 -0.1729  0.6658
20666SOL     OW64889   6.060   2.114   6.273  0.3128  0.7098 -0.4214
20666SOL    HW164890   6.021   2.110   6.360  1.5187 -2.0524  0.1056
20666SOL    HW264891   5.989   2.095   6.213  0.2925 -2.0877  0.3665
20667SOL     OW64892   1.634   8.094   6.200 -0.4552 -0.0312  0.2338
20667SOL    HW164893   1.624   8.088   6.105  1.2936  0.5908 -0.0258
20667SOL    HW264894   1.639   8.003   6.229 -1.7095 -0.2475 -0.1523
20668SOL     OW64895   6.986   6.259   3.603  0.0997  0.2428 -0.2411
20668SOL    HW164896   6.913   6.266   3.665  0.9557  0.5202  0.7722
20668SOL    HW264897   7.052   6.319   3.638  1.9463 -2.0810  0.5069
20669SOL     OW64898   5.019   3.059   2.389 -0.3452 -0.2818 -0.1087
20669SOL    HW164899   5.084   3.000   2.349  0.2694  0.5394 -0.3600
20669SOL    HW264900   5.070   3.112   2.450 -1.0333 -0.5369  0.6973
20670SOL     OW64901   7.140   8.527   8.189 -0.2513 -0.1322  0.4335
20670SOL    HW164902   7.217   8.512   8.244 -1.0850  1.1600  2.0628
20670SOL    HW264903   7.116   8.618   8.207 -0.7406  0.2482 -1.9012
20671SOL     OW64904   4.238   2.102   5.280 -0.1551 -0.4445 -0.0980
20671SOL    HW164905   4.214   2.188   5.316 -1.9043 -0.8109 -0.3146
20671SOL    HW264906   4.321   2.118   5.235  0.1553  0.8582  0.8587
20672SOL     OW64907   2.266   5.451   8.472 -0.1655  0.1595 -0.0091
20672SOL    HW164908   2.247   5.427   8.381  1.9340 -1.9973  0.0181
20672SOL    HW264909   2.224   5.382   8.524 -0.1275  0.5615  0.5609
20673SOL     OW64910   4.126   0.065   4.954  0.4090  0.0222  0.6624
20673SOL    HW164911   4.134   0.123   4.878 -0.0199 -1.0719 -0.2505
20673SOL    HW264912   4.081   0.118   5.020 -0.0860  0.6988 -0.1912
20674SOL     OW64913   2.355   3.247   5.707 -0.2231 -0.1969  0.0875
20674SOL    HW164914   2.379   3.339   5.717 -0.7454 -0.2775  3.0718
20674SOL    HW264915   2.268   3.241   5.747 -0.1753 -2.0173 -0.0040
20675SOL     OW64916   8.423   0.596   7.546 -0.1949 -0.3197  0.5155
20675SOL    HW164917   8.356   0.665   7.549 -0.6501 -0.7813  1.1034
20675SOL    HW264918   8.390   0.527   7.604  1.1278 -0.2574  1.3917
20676SOL     OW64919   8.821   3.874   5.217 -0.2907 -0.5557 -0.0242
20676SOL    HW164920   8.846   3.785   5.240  1.7085  0.1328  0.6454
20676SOL    HW264921   8.899   3.911   5.175 -1.4652  0.5334 -1.3683
20677SOL     OW64922   3.134   5.693   6.853  0.0354 -0.0883 -0.2202
20677SOL    HW164923   3.228   5.706   6.843  0.3022 -0.5089  1.4328
20677SOL    HW264924   3.095   5.749   6.785  1.4402  0.7833 -0.3522
20678SOL     OW64925   8.727   7.438   2.503  0.2485 -0.3915 -0.5416
20678SOL    HW164926   8.721   7.533   2.497  1.0828 -0.3819 -1.3507
20678SOL    HW264927   8.687   7.406   2.422  2.2551 -0.6153 -1.5168
20679SOL     OW64928   6.030   2.244   7.919  0.4229  0.2028  0.5306
20679SOL    HW164929   6.110   2.250   7.866 -0.7586  0.2456 -1.2982
20679SOL    HW264930   5.998   2.155   7.905 -0.3328  0.4687  0.5461
20680SOL     OW64931   7.088   7.392   8.356 -0.5030 -0.1803 -0.3079
20680SOL    HW164932   7.014   7.356   8.405  0.9849 -1.2070  1.3076
20680SOL    HW264933   7.136   7.315   8.324  0.1738  0.4538 -0.8579
20681SOL     OW64934   5.043   8.408   9.149  0.1355 -0.0631 -0.3550
20681SOL    HW164935   5.015   8.316   9.149  0.3161 -0.1519 -1.9281
20681SOL    HW264936   5.031   8.436   9.239 -0.0771 -1.5865  0.1317
20682SOL     OW64937   0.735   4.720   0.379  0.1220 -0.0471 -0.0930
20682SOL    HW164938   0.680   4.723   0.458  1.7290  0.3565  1.0598
20682SOL    HW264939   0.711   4.638   0.336 -0.3184 -0.6066  1.1754
20683SOL     OW64940   8.161   1.180   3.574  0.6394 -0.0268  0.3505
20683SOL    HW164941   8.186   1.154   3.663 -0.4371  0.6156  0.8660
20683SOL    HW264942   8.207   1.263   3.559  0.6941 -0.0521  0.3805
20684SOL     OW64943   4.356   1.411   0.969  0.4055  0.1113  0.2360
20684SOL    HW164944   4.387   1.501   0.975 -1.7645  0.9084  0.6871
20684SOL    HW264945   4.334   1.399   0.877 -3.4077  1.6919  0.7249
20685SOL     OW64946   7.453   0.650   7.402  0.1923  0.2575  0.1139
20685SOL    HW164947   7.547   0.661   7.387  0.7607 -2.5647  1.0594
20685SOL    HW264948   7.416   0.647   7.314  0.9960  1.0869 -0.2764
20686SOL     OW64949   3.124   3.102   8.219  0.0140 -0.5970 -0.5631
20686SOL    HW164950   3.046   3.132   8.173 -0.0813 -0.4185 -0.2868
20686SOL    HW264951   3.176   3.058   8.152 -0.0405 -0.1807 -0.8781
20687SOL     OW64952   7.835   8.712   5.519 -0.2744  0.4461  0.2154
20687SOL    HW164953   7.883   8.740   5.441 -0.8944  0.0094 -0.3432
20687SOL    HW264954   7.756   8.766   5.519  0.0690  0.9627  0.9672
20688SOL     OW64955   3.518   2.625   0.335 -0.6896 -0.0058  0.2278
20688SOL    HW164956   3.513   2.539   0.294 -0.8862  0.9345 -1.8576
20688SOL    HW264957   3.490   2.686   0.267 -0.5574  1.7278  1.6365
20689SOL     OW64958   8.026   5.841   7.410 -0.6030 -0.2854 -0.2259
20689SOL    HW164959   8.071   5.893   7.477 -2.0505 -1.0414  1.3745
20689SOL    HW264960   8.006   5.905   7.341 -0.6893  0.9063  0.8603
20690SOL     OW64961   0.187   8.376   2.383 -0.3502  0.1114 -0.6362
20690SOL    HW164962   0.095   8.357   2.369 -0.6449  1.9410 -1.5255
20690SOL    HW264963   0.228   8.361   2.297  0.1100 -0.2780 -0.3531
20691SOL     OW64964   3.345   4.698   7.836  0.2622  0.2921  0.4388
20691SOL    HW164965   3.348   4.602   7.834  0.8661  0.3112 -0.7825
20691SOL    HW264966   3.436   4.724   7.849  0.4045  0.6876 -1.1028
20692SOL     OW64967   3.587   5.609   4.920 -0.4806 -0.3975  0.9981
20692SOL    HW164968   3.653   5.670   4.953 -0.4609 -0.1374  0.4879
20692SOL    HW264969   3.594   5.532   4.977  1.2872 -0.9762  0.0782
20693SOL     OW64970   7.489   6.196   6.072 -0.5538  0.5931 -0.0530
20693SOL    HW164971   7.476   6.102   6.088  1.4728  0.4978  1.5296
20693SOL    HW264972   7.518   6.201   5.982 -0.4219 -0.3446 -0.0796
20694SOL     OW64973   2.150   5.810   6.120 -0.1110 -0.4912 -0.1989
20694SOL    HW164974   2.110   5.749   6.182 -0.0666 -0.6627 -0.3398
20694SOL    HW264975   2.192   5.754   6.055  0.8982 -0.3130  0.2892
20695SOL     OW64976   8.359   0.161   5.448  0.5292 -0.7423  0.0301
20695SOL    HW164977   8.274   0.171   5.405  0.4906  0.4161  0.3513
20695SOL    HW264978   8.376   0.067   5.444 -1.3696 -1.1955  1.1124
20696SOL     OW64979   0.746   3.143   5.355 -0.2494  0.3520 -0.3439
20696SOL    HW164980   0.814   3.133   5.288 -0.1717  0.6891 -0.3134
20696SOL    HW264981   0.691   3.065   5.344 -0.7262  0.8068 -1.3659
20697SOL     OW64982   3.625   2.992   9.253  0.2658 -0.3001 -0.0183
20697SOL    HW164983   3.621   3.079   9.291  0.3283  0.1761 -1.0584
20697SOL    HW264984   3.631   2.933   9.328  1.7768  0.6652  0.6886
20698SOL     OW64985   5.734   4.799   7.601 -0.0764  0.0799  0.3125
20698SOL    HW164986   5.667   4.771   7.538 -0.6038  0.1866  0.8177
20698SOL    HW264987   5.723   4.740   7.675  0.3784  0.1160  0.4129
20699SOL     OW64988   2.096   6.966   8.580  0.5056 -0.2183 -0.3145
20699SOL    HW164989   2.186   6.999   8.579  0.7218 -0.7875  0.0234
20699SOL    HW264990   2.100   6.881   8.537 -0.2767  0.7088 -2.3461
20700SOL     OW64991   1.680   8.517   5.881  0.0087  0.3714 -0.3446
20700SOL    HW164992   1.621   8.483   5.947 -0.0630 -0.5512 -0.8656
20700SOL    HW264993   1.757   8.460   5.885 -0.1034  0.1386 -1.2162
20701SOL     OW64994   3.877   8.143   3.108 -0.5317 -0.4108 -0.4863
20701SOL    HW164995   3.809   8.094   3.154 -0.1401  0.1798  0.7605
20701SOL    HW264996   3.830   8.198   3.045 -1.2398  0.1446  0.5045
20702SOL     OW64997   9.261   2.512   4.191 -0.3231  0.0917 -0.7909
20702SOL    HW164998   9.261   2.547   4.102  0.3960 -0.3340 -0.9742
20702SOL    HW264999   9.312   2.431   4.185  0.3969  0.4484  0.1502
20703SOL     OW65000   2.774   3.842   4.798  0.5113  0.3667 -0.2389
20703SOL    HW165001   2.689   3.841   4.753 -0.0403 -1.7130  0.7037
20703SOL    HW265002   2.804   3.933   4.792 -0.2927  0.5535 -3.3120
20704SOL     OW65003   2.187   1.257   5.014 -0.2348 -0.2381  0.1206
20704SOL    HW165004   2.180   1.352   5.012 -2.2739 -0.3348 -1.5548
20704SOL    HW265005   2.191   1.234   5.107 -0.6665  1.4331  0.5768
20705SOL     OW65006   5.443   6.173   1.834  0.1879 -0.3502  0.0685
20705SOL    HW165007   5.425   6.197   1.743 -0.4188  0.1491  0.3070
20705SOL    HW265008   5.381   6.103   1.854  1.0870 -1.2499 -0.2361
20706SOL     OW65009   3.137   5.874   9.100  0.3943  0.1079  0.7203
20706SOL    HW165010   3.200   5.802   9.111  0.0059 -0.1317  1.4131
20706SOL    HW265011   3.056   5.830   9.074  0.1479  0.2919  1.1771
20707SOL     OW65012   6.230   2.759   7.632 -0.2033 -1.0269 -0.1624
20707SOL    HW165013   6.146   2.786   7.670  0.4511  0.9179  0.0032
20707SOL    HW265014   6.274   2.841   7.611  1.2263 -2.0244 -1.2416
20708SOL     OW65015   7.686   3.872   2.489 -0.1628  0.4584 -0.3175
20708SOL    HW165016   7.643   3.945   2.444 -0.5328 -0.5642 -1.6858
20708SOL    HW265017   7.613   3.821   2.526 -0.0866 -0.4987 -1.4234
20709SOL     OW65018   6.029   2.306   1.083 -0.0813 -0.0548 -0.9042
20709SOL    HW165019   6.076   2.285   1.002  0.8468 -0.6080 -0.2415
20709SOL    HW265020   5.938   2.314   1.055  0.2821  0.2509 -2.0850
20710SOL     OW65021   5.025   1.936   8.096  0.3370  0.1940 -0.3059
20710SOL    HW165022   5.053   1.873   8.031  0.3704 -1.0964  0.9044
20710SOL    HW265023   5.096   1.939   8.160 -0.3478  0.2344  0.4819
20711SOL     OW65024   2.093   9.110   7.988 -0.3127 -0.1254 -0.4152
20711SOL    HW165025   2.065   9.156   7.908 -1.6028 -1.7380 -0.9425
20711SOL    HW265026   2.026   9.133   8.052 -1.2199 -1.5595 -0.8084
20712SOL     OW65027   8.439   1.873   2.012  0.0178 -0.2756  0.6982
20712SOL    HW165028   8.521   1.829   1.987 -0.1182  0.2779 -0.7975
20712SOL    HW265029   8.464   1.964   2.028 -0.5752  0.4205 -1.8524
20713SOL     OW65030   0.028   2.449   5.592  0.8160  0.1188  0.7133
20713SOL    HW165031   0.123   2.453   5.586  0.9556 -1.4248  1.5139
20713SOL    HW265032   0.007   2.357   5.577 -0.4646  0.2482  1.5743
20714SOL     OW65033   2.052   1.027   4.577 -0.4527  0.1038 -0.0442
20714SOL    HW165034   1.994   0.975   4.633  0.5794  0.8885  1.8439
20714SOL    HW265035   2.125   1.051   4.634  1.5221 -0.4505 -2.1895
20715SOL     OW65036   1.875   2.997   7.806 -0.0865  0.1130 -0.0631
20715SOL    HW165037   1.922   2.976   7.725  0.8401 -0.3269  0.5705
20715SOL    HW265038   1.928   3.065   7.847 -1.3067  1.3535 -0.4872
20716SOL     OW65039   1.724   6.533   7.525 -0.4789  0.3029  0.7242
20716SOL    HW165040   1.750   6.613   7.479  0.1618  0.5469  1.4986
20716SOL    HW265041   1.757   6.544   7.614  0.6601 -1.3049  0.5536
20717SOL     OW65042   1.384   5.761   3.581  1.2859 -0.1196  0.1401
20717SOL    HW165043   1.313   5.748   3.644 -0.1939  1.8725 -1.0176
20717SOL    HW265044   1.462   5.773   3.635  0.5578 -1.0430  1.4806
20718SOL     OW65045   5.933   4.119   6.349  0.9304  0.3336 -0.1771
20718SOL    HW165046   5.955   4.201   6.393  0.6588  0.1484  0.3152
20718SOL    HW265047   6.007   4.101   6.292  0.7817  1.1711 -0.6492
20719SOL     OW65048   0.631   3.878   7.516 -0.2061 -0.4164  0.3047
20719SOL    HW165049   0.651   3.785   7.520  2.3615  0.0266 -0.3021
20719SOL    HW265050   0.686   3.918   7.583 -1.6975  0.6457  0.9593
20720SOL     OW65051   1.268   8.067   3.421  0.1298 -0.1213  0.0146
20720SOL    HW165052   1.269   8.091   3.514 -2.7138 -0.7915  0.3040
20720SOL    HW265053   1.212   8.133   3.380 -1.2247 -1.6212 -0.6158
20721SOL     OW65054   0.546   7.568   1.296 -0.1733 -0.3102  0.1981
20721SOL    HW165055   0.582   7.485   1.264  0.3982 -0.0593  0.1753
20721SOL    HW265056   0.512   7.612   1.218  0.0830 -0.2519  0.1194
20722SOL     OW65057   3.023   2.641   6.912 -0.4041  0.1318 -0.8019
20722SOL    HW165058   3.017   2.560   6.963  0.0533  0.5705 -0.0305
20722SOL    HW265059   3.021   2.612   6.821  2.5180 -1.0298 -0.6189
20723SOL     OW65060   1.392   5.135   2.955  0.2126  0.3342  0.1446
20723SOL    HW165061   1.483   5.165   2.961  0.4554 -0.4400  0.5481
20723SOL    HW265062   1.366   5.120   3.046 -0.0724 -0.1578 -0.0170
20724SOL     OW65063   7.594   2.841   5.533 -0.2263  0.1130 -0.2790
20724SOL    HW165064   7.524   2.813   5.476  0.8103 -0.3482 -1.3681
20724SOL    HW265065   7.667   2.782   5.514  0.5192  0.6680  0.6913
20725SOL     OW65066   7.054   6.819   3.726  0.2160 -0.2079  0.4540
20725SOL    HW165067   7.139   6.780   3.710  0.0243 -0.5799  0.3349
20725SOL    HW265068   6.998   6.785   3.655 -0.2182 -0.5488  0.9558
20726SOL     OW65069   7.794   1.082   3.926 -0.1676 -0.7234  0.0256
20726SOL    HW165070   7.718   1.036   3.962 -0.0897 -0.7574  0.1490
20726SOL    HW265071   7.757   1.144   3.863 -0.2340 -1.2796 -0.4829
20727SOL     OW65072   3.982   7.374   2.606 -0.2443 -0.4302 -0.1494
20727SOL    HW165073   4.034   7.452   2.624 -1.0840 -0.0749  0.8418
20727SOL    HW265074   3.928   7.397   2.531 -0.8874  0.1398  0.4873
20728SOL     OW65075   5.605   1.124   2.588  0.0007 -0.2220  0.7574
20728SOL    HW165076   5.616   1.209   2.632  1.4064  0.1456 -0.2349
20728SOL    HW265077   5.618   1.143   2.495  0.8859 -1.6204  0.5741
20729SOL     OW65078   7.598   5.421   6.523 -0.9088 -0.3138 -0.1947
20729SOL    HW165079   7.571   5.451   6.610 -0.7329  0.5223 -0.4175
20729SOL    HW265080   7.601   5.326   6.530 -0.3197 -0.2308  0.8909
20730SOL     OW65081   4.885   5.200   3.727 -0.9710 -0.1510 -0.5213
20730SOL    HW165082   4.830   5.259   3.676 -1.1479 -0.5616 -0.8206
20730SOL    HW265083   4.970   5.202   3.682 -0.1267  1.9212  1.0197
20731SOL     OW65084   8.020   0.519   0.243 -0.6102 -0.2145  0.8564
20731SOL    HW165085   8.102   0.470   0.235  1.2013  2.6317  0.7926
20731SOL    HW265086   8.016   0.571   0.163 -1.3508  1.3060  1.8561
20732SOL     OW65087   5.733   5.342   2.954 -0.1209  0.2683 -0.6006
20732SOL    HW165088   5.641   5.317   2.948 -0.4816  1.7348 -1.6068
20732SOL    HW265089   5.739   5.392   3.036  0.0253 -0.7130  0.0047
20733SOL     OW65090   7.284   0.855   8.697  0.1375  0.2070 -0.4712
20733SOL    HW165091   7.299   0.814   8.782  0.2647  2.4478  0.6711
20733SOL    HW265092   7.295   0.949   8.713 -0.6178  0.7769 -2.8007
20734SOL     OW65093   2.279   1.049   3.144  0.2641  0.1594  0.2106
20734SOL    HW165094   2.350   1.110   3.124 -0.4435  1.0906  0.4480
20734SOL    HW265095   2.256   1.069   3.235 -0.0795 -0.3738  0.2462
20735SOL     OW65096   5.651   7.602   5.630 -0.0480  0.1961  0.6893
20735SOL    HW165097   5.582   7.624   5.567 -0.6579 -0.7170  1.0099
20735SOL    HW265098   5.725   7.574   5.577 -0.0358  0.8484  0.3503
20736SOL     OW65099   3.745   6.725   8.684  0.2869 -0.5293 -0.1926
20736SOL    HW165100   3.685   6.660   8.647 -1.9318  1.2555  0.0614
20736SOL    HW265101   3.802   6.749   8.611 -1.6933  0.3290 -1.5709
20737SOL     OW65102   0.462   2.092   2.365 -0.4005 -0.4754 -0.4183
20737SOL    HW165103   0.448   1.997   2.361  1.7818 -0.8158 -1.1764
20737SOL    HW265104   0.419   2.125   2.286 -1.8744 -0.6811  0.2561
20738SOL     OW65105   6.912   5.597   0.909 -0.5472  0.8324 -0.5239
20738SOL    HW165106   6.869   5.582   0.993 -0.1948 -3.1415 -0.8586
20738SOL    HW265107   6.841   5.592   0.845 -0.6282  2.5573 -0.6142
20739SOL     OW65108   0.448   6.333   4.664 -0.6172 -0.5836  0.4320
20739SOL    HW165109   0.527   6.295   4.625 -0.3501 -1.0790  1.4163
20739SOL    HW265110   0.417   6.267   4.725 -0.4519  0.5446  1.7925
20740SOL     OW65111   8.854   8.106   2.598 -0.0356  0.0978 -0.1273
20740SOL    HW165112   8.831   8.199   2.586 -0.5262 -0.0159 -0.1206
20740SOL    HW265113   8.901   8.104   2.681  0.2343  0.3819 -0.2710
20741SOL     OW65114   0.836   7.372   8.512 -0.1302 -0.2488 -0.0581
20741SOL    HW165115   0.822   7.461   8.478  1.3236  0.6985  1.6688
20741SOL    HW265116   0.777   7.366   8.587  1.3509  0.1116  1.1761
20742SOL     OW65117   5.075   7.450   5.596 -0.3538  0.3249  0.1117
20742SOL    HW165118   4.981   7.442   5.614 -0.1646  0.5349  1.2948
20742SOL    HW265119   5.080   7.504   5.517 -1.2427 -0.3986 -0.4600
20743SOL     OW65120   1.165   6.899   8.866  0.3594 -0.1168  0.0601
20743SOL    HW165121   1.155   6.899   8.771 -0.9201  1.3504  0.1526
20743SOL    HW265122   1.159   6.991   8.891 -2.0689 -0.6489  1.7882
20744SOL     OW65123   3.052   2.195   4.975  0.3819 -0.0488 -0.6071
20744SOL    HW165124   3.006   2.231   4.899 -3.4272 -0.7964  1.0981
20744SOL    HW265125   3.059   2.269   5.036 -0.5046 -0.3857 -0.0744
20745SOL     OW65126   2.288   3.908   3.078  0.4848  0.1826 -0.0781
20745SOL    HW165127   2.357   3.845   3.062  2.9244  2.4914  0.6323
20745SOL    HW265128   2.276   3.908   3.173 -1.2911 -0.9159 -0.2600
20746SOL     OW65129   3.214   5.123   4.128  0.1197  0.6557  0.2877
20746SOL    HW165130   3.194   5.173   4.049 -0.2767 -0.4484 -0.3337
20746SOL    HW265131   3.129   5.098   4.164  0.2807  1.4712  1.3024
20747SOL     OW65132   4.560   6.725   8.942 -0.2489  0.1372 -0.7615
20747SOL    HW165133   4.480   6.744   8.990 -0.9018 -1.8082 -1.0283
20747SOL    HW265134   4.613   6.805   8.952 -1.9956  1.2785 -0.1912
20748SOL     OW65135   5.489   9.006   2.630 -0.1787 -0.2894 -0.2136
20748SOL    HW165136   5.520   8.916   2.638 -0.0126 -0.2132  0.0094
20748SOL    HW265137   5.418   9.001   2.566  0.2900 -0.4705 -0.7282
20749SOL     OW65138   2.685   2.749   6.065 -0.2446  0.4054  0.3793
20749SOL    HW165139   2.716   2.779   5.979  1.0106 -1.8729 -0.0404
20749SOL    HW265140   2.672   2.655   6.054 -0.3931  0.1168  2.6186
20750SOL     OW65141   2.681   2.586   4.438  0.4956 -1.0158 -0.6017
20750SOL    HW165142   2.654   2.500   4.470 -1.6465 -0.0714  0.3139
20750SOL    HW265143   2.605   2.617   4.387  1.3595  0.1823 -1.2018
20751SOL     OW65144   4.204   5.363   1.778 -0.1106  0.2772 -0.1500
20751SOL    HW165145   4.274   5.311   1.739 -0.1324 -0.8162  1.1574
20751SOL    HW265146   4.149   5.298   1.823 -0.6012  1.3608  0.8590
20752SOL     OW65147   0.512   2.353   6.380 -0.1933  0.2346 -0.1724
20752SOL    HW165148   0.560   2.317   6.306 -1.0526 -1.8401  0.1803
20752SOL    HW265149   0.423   2.369   6.347 -0.4655 -0.2967  0.2743
20753SOL     OW65150   3.758   6.087   8.693 -0.2573 -0.2130 -0.0945
20753SOL    HW165151   3.707   6.008   8.677  0.4416 -0.5247 -0.8641
20753SOL    HW265152   3.775   6.122   8.605  1.8369 -0.7733  0.0320
20754SOL     OW65153   3.392   1.117   2.308 -0.3578 -0.6864  0.2449
20754SOL    HW165154   3.315   1.061   2.305 -0.3239 -0.7225 -0.0068
20754SOL    HW265155   3.465   1.060   2.284 -0.4803 -0.2748 -1.1956
20755SOL     OW65156   3.434   2.855   4.901 -0.2610 -0.1324  0.0901
20755SOL    HW165157   3.461   2.776   4.853 -0.3758 -0.0210 -0.1575
20755SOL    HW265158   3.358   2.888   4.853  1.6221  1.9002 -1.6940
20756SOL     OW65159   8.855   4.286   0.925  0.0845 -0.0341  0.6133
20756SOL    HW165160   8.919   4.220   0.950  0.0878 -0.6429 -0.8717
20756SOL    HW265161   8.855   4.349   0.997  0.2158 -1.5514  1.9893
20757SOL     OW65162   8.757   0.094   6.863 -0.1676 -0.2972  0.0380
20757SOL    HW165163   8.804   0.177   6.864 -1.2298  0.3346 -0.4468
20757SOL    HW265164   8.800   0.043   6.795  0.2554 -0.0046  0.0797
20758SOL     OW65165   6.327   3.024   0.912  0.1310 -0.5294 -0.7363
20758SOL    HW165166   6.299   2.936   0.886 -1.4298 -0.2689 -0.0478
20758SOL    HW265167   6.389   3.009   0.984 -1.5821 -1.0624  0.6983
20759SOL     OW65168   0.893   3.233   4.336  0.3904 -0.6881  0.3908
20759SOL    HW165169   0.920   3.143   4.351  0.6716 -0.4384  1.4661
20759SOL    HW265170   0.878   3.269   4.424 -2.4785 -0.5030 -0.0811
20760SOL     OW65171   1.117   2.793   6.578  0.0786  0.1471 -0.8780
20760SOL    HW165172   1.050   2.727   6.560  0.0972 -0.0226 -0.3314
20760SOL    HW265173   1.089   2.834   6.660  1.5657 -1.1483  0.3395
20761SOL     OW65174   5.390   2.842   6.723  0.5665 -0.4508 -0.1426
20761SOL    HW165175   5.298   2.849   6.699  0.7000  1.1660 -0.3190
20761SOL    HW265176   5.402   2.751   6.748 -0.9512 -0.8107 -0.6355
20762SOL     OW65177   2.613   8.346   7.079 -0.2556 -0.5380  0.2655
20762SOL    HW165178   2.532   8.337   7.030  0.3998 -0.1723 -0.9331
20762SOL    HW265179   2.656   8.261   7.072 -0.4011 -0.6418  0.6431
20763SOL     OW65180   5.642   7.630   0.514  0.0811  0.1915  0.6328
20763SOL    HW165181   5.639   7.647   0.608  1.3344  1.3510  0.4860
20763SOL    HW265182   5.551   7.640   0.485 -0.0472  1.5956  1.4480
20764SOL     OW65183   4.740   1.106   4.692  0.0713 -0.1334  0.3966
20764SOL    HW165184   4.811   1.170   4.679 -0.0169 -0.1070  0.0392
20764SOL    HW265185   4.743   1.051   4.614  1.4602 -1.8569  1.5968
20765SOL     OW65186   6.408   1.062   2.147 -0.1393 -0.0932  0.4635
20765SOL    HW165187   6.433   0.998   2.214  1.4947  0.6873  0.6506
20765SOL    HW265188   6.374   1.137   2.196  0.5354  0.2576  0.4062
20766SOL     OW65189   4.723   3.574   4.091 -0.4085  0.1064 -0.7331
20766SOL    HW165190   4.647   3.627   4.114  0.6657  1.2731  0.2419
20766SOL    HW265191   4.711   3.554   3.998 -2.9884 -1.6040 -0.1485
20767SOL     OW65192   1.489   7.404   6.518  0.0133 -0.5882 -0.0578
20767SOL    HW165193   1.516   7.353   6.442  0.2143 -1.6118  0.6798
20767SOL    HW265194   1.568   7.410   6.571 -0.1180  0.1481  0.0586
20768SOL     OW65195   2.038   6.045   2.164 -0.2367 -0.7089  0.2671
20768SOL    HW165196   2.058   5.983   2.094  2.7576  0.7292 -0.3535
20768SOL    HW265197   1.963   6.094   2.132 -0.5849 -1.8220 -0.7106
20769SOL     OW65198   8.091   4.402   6.693  0.3792  0.1965 -0.2543
20769SOL    HW165199   8.103   4.496   6.707  0.2735 -0.1853  3.1521
20769SOL    HW265200   8.175   4.364   6.716 -0.1842 -0.6903  0.3686
20770SOL     OW65201   7.500   6.442   4.521 -0.3889  0.1772 -0.0258
20770SOL    HW165202   7.571   6.430   4.458  0.8944  0.2235  1.3587
20770SOL    HW265203   7.509   6.533   4.550 -1.3733  0.3559 -0.2191
20771SOL     OW65204   1.859   3.231   3.246 -0.1906 -0.5053 -0.2371
20771SOL    HW165205   1.865   3.288   3.323 -0.6270 -0.5067 -0.1987
20771SOL    HW265206   1.779   3.259   3.202 -0.7150 -1.4762  0.0887
20772SOL     OW65207   2.621   5.253   5.196  0.3741  0.1374 -0.7064
20772SOL    HW165208   2.669   5.170   5.187  1.0280  0.1188  2.1737
20772SOL    HW265209   2.688   5.320   5.187  0.4528  0.2132  0.3536
20773SOL     OW65210   5.519   2.435   6.150  0.1588 -0.1814 -0.7836
20773SOL    HW165211   5.557   2.431   6.062  2.0067  2.5104 -0.2384
20773SOL    HW265212   5.581   2.387   6.204  0.0747 -0.1313 -0.6439
20774SOL     OW65213   7.375   1.411   2.852  0.2007  0.4856  0.3014
20774SOL    HW165214   7.376   1.428   2.946  0.7450  1.3646  0.1440
20774SOL    HW265215   7.360   1.497   2.812  0.0091  0.1285 -0.4203
20775SOL     OW65216   2.436   0.668   6.473 -0.5969 -0.6436 -0.0813
20775SOL    HW165217   2.526   0.650   6.446 -0.0844  0.1028  1.0220
20775SOL    HW265218   2.424   0.761   6.454 -0.3294 -0.1762  1.8279
20776SOL     OW65219   8.088   3.551   2.828 -0.4590  0.0909  0.0327
20776SOL    HW165220   8.165   3.500   2.853 -0.1410  1.3095  1.7116
20776SOL    HW265221   8.020   3.486   2.813  0.4646 -0.9222  0.0680
20777SOL     OW65222   4.023   2.512   6.431 -0.0153  0.2867  0.3554
20777SOL    HW165223   3.967   2.506   6.507  0.6829  1.9331  1.0503
20777SOL    HW265224   4.044   2.422   6.409 -0.2880 -0.2217  2.0720
20778SOL     OW65225   0.614   3.192   4.172 -0.5334  0.2157  0.0584
20778SOL    HW165226   0.590   3.227   4.086  2.2729  1.0897 -0.4868
20778SOL    HW265227   0.599   3.265   4.232 -0.8343  0.1807  0.0285
20779SOL     OW65228   3.097   2.966   1.556  0.0101 -0.1338 -0.0826
20779SOL    HW165229   3.042   3.005   1.625 -2.0686  0.6083 -2.0405
20779SOL    HW265230   3.082   2.872   1.565  0.1307 -0.0864  0.7496
20780SOL     OW65231   8.572   0.553   1.294  0.4393 -0.8569  0.1090
20780SOL    HW165232   8.497   0.605   1.324  1.1401  0.5292 -0.4338
20780SOL    HW265233   8.612   0.520   1.375 -0.2864 -0.9331  0.4444
20781SOL     OW65234   1.969   8.665   4.485  0.4857 -0.1564 -1.0793
20781SOL    HW165235   2.056   8.628   4.465  1.5442 -0.2657  2.8975
20781SOL    HW265236   1.915   8.588   4.504  0.2550  0.0358 -0.9645
20782SOL     OW65237   6.165   1.944   7.821  0.5321  0.0221 -0.8125
20782SOL    HW165238   6.078   1.979   7.839 -0.0870 -0.9511 -1.8143
20782SOL    HW265239   6.222   1.987   7.885 -0.5395  1.2776 -0.6609
20783SOL     OW65240   6.075   2.295   5.980  0.2471  0.2595 -0.0246
20783SOL    HW165241   6.052   2.209   6.016 -0.0035  0.6460  0.7573
20783SOL    HW265242   5.999   2.319   5.926 -0.4747  0.7711  1.1847
20784SOL     OW65243   0.690   1.149   2.089  0.0351  0.4093  0.0326
20784SOL    HW165244   0.703   1.133   2.182  2.4894 -0.8773 -0.4336
20784SOL    HW265245   0.707   1.242   2.077  1.5740  0.2295  0.6505
20785SOL     OW65246   8.710   8.189   8.747 -0.3134  0.4307 -0.2228
20785SOL    HW165247   8.686   8.264   8.693  2.4042  0.0093 -2.2681
20785SOL    HW265248   8.675   8.113   8.701 -0.1536  0.2210 -0.0042
20786SOL     OW65249   3.935   3.702   3.069  0.1560 -0.0429  0.2004
20786SOL    HW165250   3.863   3.666   3.120  0.6654 -2.0778 -0.4494
20786SOL    HW265251   3.976   3.766   3.128 -1.0876 -0.1224  1.2032
20787SOL     OW65252   2.630   5.940   6.738  0.0858  0.4557  0.1942
20787SOL    HW165253   2.612   5.879   6.809  0.7277 -0.5711 -0.4915
20787SOL    HW265254   2.558   5.927   6.677  0.4098  0.0997 -0.1224
20788SOL     OW65255   4.689   5.877   1.569 -0.1160 -0.0155  0.4156
20788SOL    HW165256   4.678   5.852   1.477  1.9027 -1.6485  0.5480
20788SOL    HW265257   4.665   5.970   1.571 -0.2381  0.0639 -1.7392
20789SOL     OW65258   9.216   1.865   1.703  0.4836  0.5611 -0.0103
20789SOL    HW165259   9.259   1.836   1.623  1.1123 -0.3355  0.6342
20789SOL    HW265260   9.229   1.793   1.765 -0.5787  0.9484  0.6922
20790SOL     OW65261   1.289   0.052   8.320 -0.4728  0.2725 -0.2250
20790SOL    HW165262   1.235   0.107   8.377  1.6805  0.8309  1.4558
20790SOL    HW265263   1.326  -0.014   8.380 -1.0673 -1.5168 -1.7431
20791SOL     OW65264   0.386   2.468   6.753  0.5274  0.3341  0.1336
20791SOL    HW165265   0.297   2.501   6.741  0.3608 -0.0590  0.2877
20791SOL    HW265266   0.427   2.531   6.811  0.9962  1.6600 -1.5547
20792SOL     OW65267   0.812   7.087   5.730  0.0989  0.4083 -0.1325
20792SOL    HW165268   0.851   7.039   5.804  0.2529  0.9063  0.1101
20792SOL    HW265269   0.759   7.155   5.771  0.8412  1.2150 -0.4766
20793SOL     OW65270   3.350   3.154   2.723 -0.6504 -0.0492  0.2501
20793SOL    HW165271   3.374   3.063   2.740 -0.3499  0.0367  0.2828
20793SOL    HW265272   3.299   3.151   2.642  0.2958 -0.1108 -0.3483
20794SOL     OW65273   3.934   1.513   4.191 -0.1535  0.4665  0.2766
20794SOL    HW165274   3.976   1.509   4.277 -2.0167  1.8334  1.3274
20794SOL    HW265275   3.877   1.435   4.188 -0.2054  0.5024  0.3388
20795SOL     OW65276   4.800   1.615   6.072 -0.3493 -0.0583 -0.1902
20795SOL    HW165277   4.878   1.671   6.068  1.5069 -2.5528 -2.2385
20795SOL    HW265278   4.814   1.562   6.150 -0.7532  0.4431  0.2328
20796SOL     OW65279   2.841   5.260   4.269 -0.2769  0.4193 -0.4457
20796SOL    HW165280   2.762   5.313   4.264  0.6014  1.8997  0.7495
20796SOL    HW265281   2.854   5.244   4.362 -0.3980 -1.7698 -0.7504
20797SOL     OW65282   1.916   2.393   3.215 -0.4222  0.3981  0.4710
20797SOL    HW165283   1.831   2.351   3.226 -0.1866 -0.2789 -0.2138
20797SOL    HW265284   1.943   2.415   3.304 -1.7500  1.5390  0.6234
20798SOL     OW65285   2.248   3.562   2.683  0.2745  0.4474  0.3442
20798SOL    HW165286   2.235   3.573   2.778  2.7003  0.8380  0.7013
20798SOL    HW265287   2.180   3.501   2.656  0.5061 -0.9569  2.6670
20799SOL     OW65288   3.534   4.174   0.004  0.6805  0.1382 -0.4541
20799SOL    HW165289   3.583   4.117   0.063  0.6631  0.9436  0.3615
20799SOL    HW265290   3.595   4.195  -0.066  1.2327  0.4515  0.1135
20800SOL     OW65291   5.962   4.689   4.308 -0.2440 -0.1172  0.5897
20800SOL    HW165292   6.023   4.671   4.237 -0.6700 -2.6639  0.7894
20800SOL    HW265293   5.876   4.690   4.267 -0.3348  0.3094  0.7838
20801SOL     OW65294   7.576   0.264   0.246  0.1213 -0.8630  0.0298
20801SOL    HW165295   7.623   0.347   0.257 -0.0030 -0.5881 -1.2583
20801SOL    HW265296   7.588   0.243   0.153  0.1327 -2.2904  0.3370
20802SOL     OW65297   6.596   0.806   0.761 -0.2615 -0.0603  0.1833
20802SOL    HW165298   6.615   0.863   0.836  1.8773  1.6760 -1.5603
20802SOL    HW265299   6.601   0.863   0.685  0.8603 -2.3304 -1.5776
20803SOL     OW65300   1.277   8.842   1.531 -0.1391 -0.0618 -0.1368
20803SOL    HW165301   1.247   8.756   1.561 -1.3111  0.5020  0.3544
20803SOL    HW265302   1.360   8.855   1.576  0.3786 -1.2022 -0.7066
20804SOL     OW65303   1.769   0.538   5.077  0.0190  0.3981 -0.2905
20804SOL    HW165304   1.822   0.521   5.155 -0.4943 -0.3398 -0.0878
20804SOL    HW265305   1.827   0.515   5.004 -0.0801 -0.6510 -0.0647
20805SOL     OW65306   2.404   3.986   4.777 -0.4068 -0.5063  0.1226
20805SOL    HW165307   2.354   4.006   4.855  1.6529 -0.2485  1.4639
20805SOL    HW265308   2.430   3.894   4.789  1.5114  0.0756  0.7436
20806SOL     OW65309   3.221   2.201   2.735 -0.1395  0.7801 -0.1041
20806SOL    HW165310   3.300   2.172   2.781 -0.7554 -2.1787 -0.7389
20806SOL    HW265311   3.177   2.258   2.799  2.8867  3.4366 -0.1126
20807SOL     OW65312   7.770   7.522   9.160 -0.2419 -0.3149  0.1189
20807SOL    HW165313   7.675   7.529   9.151 -0.2363  1.2936  1.0710
20807SOL    HW265314   7.805   7.587   9.100  0.1629  0.7186  1.4253
20808SOL     OW65315   8.683   7.981   8.029 -0.1501  0.2425 -0.0449
20808SOL    HW165316   8.772   8.008   8.052 -0.1128  0.7623 -0.7662
20808SOL    HW265317   8.640   7.968   8.114  0.5079  0.3225  0.3128
20809SOL     OW65318   6.939   1.489   1.833  0.7386 -0.2501  0.9138
20809SOL    HW165319   6.847   1.510   1.818  0.7488 -0.5984  0.3407
20809SOL    HW265320   6.967   1.444   1.753  1.3040 -0.4795  1.2351
20810SOL     OW65321   6.817   7.745   1.487 -0.2459 -0.3223 -0.5316
20810SOL    HW165322   6.726   7.762   1.514 -0.6575 -0.1859 -1.9276
20810SOL    HW265323   6.867   7.746   1.569 -1.2512  1.2140  0.1118
20811SOL     OW65324   4.030   1.673   0.263 -0.0098  0.3624  0.0130
20811SOL    HW165325   4.113   1.686   0.308 -0.5424 -1.1893  1.5629
20811SOL    HW265326   3.965   1.708   0.324 -0.6280 -0.1990 -0.3168
20812SOL     OW65327   4.817   1.358   6.182  0.8744  0.3460 -0.0116
20812SOL    HW165328   4.787   1.306   6.257  1.5917  1.0202  0.7706
20812SOL    HW265329   4.792   1.306   6.105 -0.9609  0.2076  0.6332
20813SOL     OW65330   4.116   1.141   0.651 -0.1130 -0.0115 -0.0239
20813SOL    HW165331   4.104   1.120   0.743 -0.7938 -1.7847 -0.4666
20813SOL    HW265332   4.209   1.164   0.643  0.2816 -1.2063  0.8784
20814SOL     OW65333   6.745   7.306   5.531 -0.3813 -0.1896  0.4963
20814SOL    HW165334   6.703   7.284   5.448  0.3778  0.5834 -0.1240
20814SOL    HW265335   6.839   7.308   5.510 -0.1625 -0.2979  1.4480
20815SOL     OW65336   4.794   7.737   4.881 -0.4655  0.9432  0.3569
20815SOL    HW165337   4.872   7.787   4.857  0.5008 -0.4820  0.4119
20815SOL    HW265338   4.722   7.784   4.839  0.4955  1.8903 -0.3028
20816SOL     OW65339   3.768   6.004   3.653 -0.3504 -0.0762  0.5476
20816SOL    HW165340   3.835   6.009   3.585 -1.5762 -1.3619 -0.7970
20816SOL    HW265341   3.809   5.951   3.722 -0.2788 -1.6793 -0.6680
20817SOL     OW65342   5.096   4.954   9.212 -0.2026  0.0439  0.0741
20817SOL    HW165343   5.045   4.995   9.142 -1.4818 -1.9061 -0.2126
20817SOL    HW265344   5.187   4.963   9.184 -0.5908  0.7306 -1.0314
20818SOL     OW65345   3.596   7.920   6.990 -0.0489 -0.2362 -0.3606
20818SOL    HW165346   3.561   8.002   7.024 -0.1889 -0.0280 -0.9863
20818SOL    HW265347   3.553   7.909   6.905  0.1176 -0.8557 -0.3671
20819SOL     OW65348   6.355   1.845   8.296  0.3110  0.5021 -0.2310
20819SOL    HW165349   6.287   1.778   8.299 -0.8084  1.6273  0.2974
20819SOL    HW265350   6.417   1.814   8.230 -0.0951 -1.1174  0.1276
20820SOL     OW65351   2.778   5.658   1.578 -0.2915 -0.0330 -0.3036
20820SOL    HW165352   2.772   5.575   1.626 -1.8421  0.5454  0.5600
20820SOL    HW265353   2.688   5.682   1.559  0.0697  1.8822  0.1890
20821SOL     OW65354   0.059   1.631   0.680  0.1697 -0.2692 -0.3368
20821SOL    HW165355   0.028   1.541   0.671  0.4833 -0.4474  0.3552
20821SOL    HW265356   0.010   1.667   0.754  0.7534 -0.1765  0.0077
20822SOL     OW65357   1.581   5.729   6.063  0.5555 -0.5156 -0.5793
20822SOL    HW165358   1.566   5.645   6.105 -0.8749 -0.4560 -0.9096
20822SOL    HW265359   1.561   5.714   5.970 -0.0961  0.2473 -0.5853
20823SOL     OW65360   2.955   9.022   2.663  0.0767 -0.5541 -0.4371
20823SOL    HW165361   2.946   8.959   2.734 -0.1384  0.1394  0.1708
20823SOL    HW265362   3.010   9.091   2.700 -0.5316  0.1058 -0.7346
20824SOL     OW65363   2.544   7.687   7.834 -0.3318 -0.5898 -0.5492
20824SOL    HW165364   2.614   7.702   7.896 -0.4628  0.1329 -0.5685
20824SOL    HW265365   2.464   7.686   7.887 -0.4440  0.0316 -0.6947
20825SOL     OW65366   4.175   5.271   5.809 -0.5732  0.2219 -0.1727
20825SOL    HW165367   4.111   5.271   5.880 -0.9677  0.6160 -0.5274
20825SOL    HW265368   4.128   5.234   5.734 -0.6558  1.3114 -0.6728
20826SOL     OW65369   7.150   1.956   6.594  0.0478  0.3834  0.3171
20826SOL    HW165370   7.159   2.001   6.678  1.2104  1.9245 -0.5831
20826SOL    HW265371   7.057   1.958   6.575 -0.2547 -0.1559  1.6318
20827SOL     OW65372   6.115   3.359   1.993 -0.0610  0.2376  0.2501
20827SOL    HW165373   6.044   3.416   2.023  0.7029  0.6682  1.3109
20827SOL    HW265374   6.186   3.419   1.971 -0.2062 -0.1536 -1.3811
20828SOL     OW65375   1.344   7.643   7.817 -0.1511  0.1657 -0.3802
20828SOL    HW165376   1.402   7.583   7.865  0.7688 -0.8294 -2.5878
20828SOL    HW265377   1.266   7.591   7.797 -0.5816  0.6095  0.1240
20829SOL     OW65378   3.822   5.418   6.326  0.2884 -0.6432  0.1048
20829SOL    HW165379   3.886   5.481   6.294 -1.2780  0.7505 -0.4811
20829SOL    HW265380   3.836   5.415   6.420  0.0776  1.0171  0.2176
20830SOL     OW65381   2.282   7.310   1.161  0.5957  0.1722  1.2016
20830SOL    HW165382   2.307   7.293   1.070  0.3507  2.1860  0.6905
20830SOL    HW265383   2.245   7.228   1.192 -0.0531 -0.3534 -0.7936
20831SOL     OW65384   7.540   2.019   0.823  0.5818 -0.3304  0.3703
20831SOL    HW165385   7.612   2.015   0.760 -0.1191 -1.0959 -0.3869
20831SOL    HW265386   7.489   1.939   0.808 -2.4814  1.8102 -1.5530
20832SOL     OW65387   6.930   0.883   4.529  1.0786 -0.3175 -0.5779
20832SOL    HW165388   6.848   0.928   4.508 -0.8523 -3.0082  0.4930
20832SOL    HW265389   6.949   0.910   4.619  1.3049  0.2218 -0.7861
20833SOL     OW65390   2.731   7.302   7.358  0.1644  0.4620  0.3511
20833SOL    HW165391   2.825   7.317   7.348  0.1803  0.4432  0.4694
20833SOL    HW265392   2.707   7.249   7.282  0.3056  0.2256  0.4674
20834SOL     OW65393   8.664   3.149   7.445  0.4873 -0.1883  0.3331
20834SOL    HW165394   8.619   3.131   7.528 -0.7045  0.5050 -0.1344
20834SOL    HW265395   8.674   3.063   7.404 -1.3170 -0.3059  0.0287
20835SOL     OW65396   7.273   3.315   1.148  0.1122  0.3482  0.1902
20835SOL    HW165397   7.185   3.294   1.179  0.6918  0.9142  2.4486
20835SOL    HW265398   7.290   3.254   1.077 -1.8904 -0.1281  0.0905
20836SOL     OW65399   0.699   5.242   0.553  0.2178  0.6195  0.0685
20836SOL    HW165400   0.724   5.329   0.583  0.3632  0.2939  0.9195
20836SOL    HW265401   0.755   5.182   0.603  1.4618  0.0899 -1.8350
20837SOL     OW65402   2.375   6.169   8.799 -0.4014 -0.5055 -0.0328
20837SOL    HW165403   2.341   6.149   8.886  0.1243  0.0337  0.3092
20837SOL    HW265404   2.364   6.264   8.790  0.6261 -0.3776 -0.0695
20838SOL     OW65405   6.837   7.222   2.034  0.0710 -0.0943 -0.1722
20838SOL    HW165406   6.792   7.300   2.069 -1.0940 -0.5761 -0.5258
20838SOL    HW265407   6.794   7.207   1.950  1.1425 -0.4021 -0.6656
20839SOL     OW65408   8.524   0.526   3.926 -0.2321  0.0271 -0.6517
20839SOL    HW165409   8.435   0.559   3.913 -0.7005 -0.8816  0.1132
20839SOL    HW265410   8.557   0.510   3.837 -0.7798  0.4894 -0.9456
20840SOL     OW65411   2.829   5.497   5.782 -0.1180  0.7539  0.0577
20840SOL    HW165412   2.843   5.565   5.715 -0.1528  0.2456 -0.4764
20840SOL    HW265413   2.797   5.545   5.858  3.4889  1.9063  1.0751
20841SOL     OW65414   6.795   3.030   4.954  0.0752 -0.8084 -0.1566
20841SOL    HW165415   6.748   2.948   4.971  0.8020 -1.1625  0.1995
20841SOL    HW265416   6.877   3.003   4.915 -0.3689 -0.1439 -1.6206
20842SOL     OW65417   0.076   6.309   4.216 -0.0732 -0.1650 -0.2804
20842SOL    HW165418   0.080   6.343   4.305  0.5366 -0.7962 -0.0546
20842SOL    HW265419   0.011   6.239   4.220 -1.1156  0.7440 -0.6791
20843SOL     OW65420   3.149   2.758   4.762  0.0660 -0.4667  0.1642
20843SOL    HW165421   3.081   2.741   4.697  1.4053 -0.4185 -1.3015
20843SOL    HW265422   3.163   2.853   4.759 -1.8971  0.0265  2.7039
20844SOL     OW65423   1.148   7.794   2.653  0.3167 -0.0700 -0.2465
20844SOL    HW165424   1.090   7.723   2.625  2.2566 -1.5126 -0.8051
20844SOL    HW265425   1.190   7.824   2.573  0.7066  0.6152  0.2076
20845SOL     OW65426   5.371   5.956   9.098  0.1108 -0.4568 -0.3207
20845SOL    HW165427   5.282   5.949   9.133 -0.2330  0.4937 -0.9719
20845SOL    HW265428   5.373   5.896   9.024  0.9656 -2.7936  1.4846
20846SOL     OW65429   9.259   3.004   6.151 -0.1329  0.5688 -0.0090
20846SOL    HW165430   9.313   2.926   6.136 -0.4529  0.3780 -0.1697
20846SOL    HW265431   9.200   3.007   6.075  0.7477  1.6964 -0.6874
20847SOL     OW65432   2.203   2.791   5.553 -0.1189 -0.0816 -0.3060
20847SOL    HW165433   2.233   2.710   5.511  0.3367 -0.1882  0.2065
20847SOL    HW265434   2.157   2.838   5.484 -1.1221 -1.1557 -0.3995
20848SOL     OW65435   9.032   0.701   8.959  0.7164  0.5646 -0.4133
20848SOL    HW165436   9.079   0.769   8.910  0.6745  1.0429  0.1911
20848SOL    HW265437   9.033   0.625   8.901  3.3423  0.1416  0.0721
20849SOL     OW65438   9.083   9.210   5.855  0.3069  0.2093  0.6795
20849SOL    HW165439   9.091   9.118   5.881 -2.7897 -0.2076  0.5087
20849SOL    HW265440   9.023   9.209   5.781  1.2070  2.3086 -0.1524
20850SOL     OW65441   1.259   2.723   3.917 -0.6321 -0.1791 -0.2122
20850SOL    HW165442   1.184   2.668   3.941 -1.1266 -0.2041 -1.7457
20850SOL    HW265443   1.262   2.720   3.822  0.7456  0.6087 -0.2178
20851SOL     OW65444   7.936   3.689   8.039  0.3610  0.4760 -0.2355
20851SOL    HW165445   8.009   3.721   8.094  0.4345  1.1479 -0.7101
20851SOL    HW265446   7.948   3.734   7.955 -0.2525  0.1215 -0.5165
20852SOL     OW65447   0.857   2.566   0.555 -0.2124  0.6693  0.0142
20852SOL    HW165448   0.774   2.523   0.576 -0.9076  2.1107  0.3801
20852SOL    HW265449   0.866   2.557   0.460 -2.0458  2.5603 -0.4101
20853SOL     OW65450   0.368   6.839   2.769 -0.0924 -0.0990  0.3109
20853SOL    HW165451   0.393   6.783   2.695  1.2024  0.3608  0.3668
20853SOL    HW265452   0.287   6.881   2.742  0.3912  0.1086 -0.8792
20854SOL     OW65453   4.790   1.816   8.459  0.5381  0.2524 -0.0640
20854SOL    HW165454   4.778   1.790   8.550  0.0661  0.2909 -0.1084
20854SOL    HW265455   4.725   1.764   8.411 -0.7538  1.7955 -0.0999
20855SOL     OW65456   7.620   8.275   3.281 -0.5258  0.5399 -0.6570
20855SOL    HW165457   7.644   8.275   3.374  0.2114 -3.2329 -0.7247
20855SOL    HW265458   7.527   8.301   3.281 -0.1123  2.2889  0.8826
20856SOL     OW65459   8.583   7.337   4.654 -0.2570 -0.1168 -0.4306
20856SOL    HW165460   8.555   7.265   4.711 -0.5157  1.0225  0.9359
20856SOL    HW265461   8.522   7.408   4.673  1.6174  1.3860  0.2734
20857SOL     OW65462   4.356   4.281   0.529  0.4197  0.1620  0.2059
20857SOL    HW165463   4.405   4.249   0.453 -1.0985 -0.7996 -0.4083
20857SOL    HW265464   4.265   4.263   0.508  0.0403 -1.5847  2.9292
20858SOL     OW65465   1.347   2.260   4.987  0.1545  0.0009  0.1682
20858SOL    HW165466   1.292   2.335   5.011  1.3101  0.9677 -0.0514
20858SOL    HW265467   1.387   2.232   5.069  0.1185 -0.0390  0.1721
20859SOL     OW65468   0.625   2.650   7.897  0.1659 -0.3024  0.1481
20859SOL    HW165469   0.657   2.611   7.816 -2.4990 -3.0889  0.2889
20859SOL    HW265470   0.676   2.608   7.966 -1.0231 -1.8373  0.1439
20860SOL     OW65471   2.533   3.644   1.461 -0.6374  0.1666  0.3933
20860SOL    HW165472   2.494   3.599   1.535 -2.6148  0.7987 -0.1868
20860SOL    HW265473   2.551   3.575   1.397 -0.1689 -0.2169  0.9347
20861SOL     OW65474   3.238   6.296   3.302  0.2312  0.0233  0.7389
20861SOL    HW165475   3.295   6.233   3.346  0.1539 -0.3912  0.2560
20861SOL    HW265476   3.242   6.375   3.356 -0.0670 -0.5590  1.6234
20862SOL     OW65477   5.912   8.270   8.094 -0.1815  0.5719  0.1900
20862SOL    HW165478   5.898   8.343   8.154 -0.0721  2.1411 -1.5748
20862SOL    HW265479   5.898   8.308   8.007 -1.7587 -1.9068 -0.7667
20863SOL     OW65480   4.446   1.939   2.802  0.2400 -0.2127 -0.1425
20863SOL    HW165481   4.363   1.985   2.797 -0.4491 -1.0587  2.0953
20863SOL    HW265482   4.511   2.002   2.773 -1.0780  0.7600 -1.0772
20864SOL     OW65483   7.464   1.198   7.269  0.4592  0.0636 -0.9544
20864SOL    HW165484   7.543   1.192   7.322 -1.1817 -0.4138  1.6055
20864SOL    HW265485   7.446   1.292   7.263 -0.4193  0.0836  1.1740
20865SOL     OW65486   7.659   5.492   5.677 -0.1162 -0.6068  0.4784
20865SOL    HW165487   7.635   5.458   5.764  2.2908  0.5363  1.6774
20865SOL    HW265488   7.575   5.515   5.637 -1.3355 -1.6485  2.2776
20866SOL     OW65489   0.285   0.378   5.088  0.5281 -0.0194  0.1424
20866SOL    HW165490   0.287   0.285   5.111  0.3359 -0.0048  0.2221
20866SOL    HW265491   0.206   0.411   5.131  0.6780  0.2129  0.2384
20867SOL     OW65492   2.009   6.965   4.935 -0.0401  0.4057  1.0877
20867SOL    HW165493   1.978   7.048   4.971  0.3113  1.4597 -0.8605
20867SOL    HW265494   1.939   6.937   4.876  0.6762  0.4046  0.2022
20868SOL     OW65495   4.714   6.572   2.598  0.1247  0.2230 -0.3152
20868SOL    HW165496   4.717   6.570   2.502  2.1282  0.1713 -0.2932
20868SOL    HW265497   4.797   6.533   2.625 -0.5242  0.0034  1.4631
20869SOL     OW65498   0.767   7.943   1.733  0.3577 -0.3829  0.1530
20869SOL    HW165499   0.837   7.996   1.770 -0.6229  0.0922  1.4314
20869SOL    HW265500   0.706   7.930   1.806 -0.6175 -1.2240 -0.7706
20870SOL     OW65501   5.629   7.427   1.043 -0.2040 -0.1478 -0.1713
20870SOL    HW165502   5.542   7.387   1.037  0.5259 -1.7050 -0.8849
20870SOL    HW265503   5.628   7.473   1.127 -2.5123  1.8855 -1.1859
20871SOL     OW65504   1.463   8.576   1.276  0.6182 -0.1015  0.2420
20871SOL    HW165505   1.541   8.564   1.331 -0.4291 -0.4586  1.7235
20871SOL    HW265506   1.492   8.555   1.188  2.5444  1.1454  0.5369
20872SOL     OW65507   9.136   0.100   1.824  0.2302  0.3447 -0.0133
20872SOL    HW165508   9.139   0.106   1.729  0.3259 -0.7454 -0.0987
20872SOL    HW265509   9.225   0.121   1.852  0.6203 -0.8359 -0.2919
20873SOL     OW65510   2.992   9.082   8.217  0.1177  0.3615  0.0385
20873SOL    HW165511   2.926   9.141   8.180 -1.1754 -0.7959  0.4231
20873SOL    HW265512   2.979   9.088   8.311  0.1133 -0.3823  0.0855
20874SOL     OW65513   6.709   6.478   7.973  0.4825 -0.1010 -0.2722
20874SOL    HW165514   6.646   6.469   8.044  0.4740 -2.2374 -0.5058
20874SOL    HW265515   6.730   6.572   7.972 -2.5187  0.6741 -0.0879
20875SOL     OW65516   2.031   8.800   1.434  0.3858  0.4702  0.4407
20875SOL    HW165517   2.122   8.773   1.437  0.6105  0.9692 -1.0651
20875SOL    HW265518   2.033   8.895   1.442 -0.0886  0.4211  1.3382
20876SOL     OW65519   2.388   1.195   0.874  0.3268 -0.4782  0.0041
20876SOL    HW165520   2.330   1.230   0.942  0.1081  0.2971 -0.5678
20876SOL    HW265521   2.380   1.100   0.883  0.8418 -0.4168  1.5124
20877SOL     OW65522   0.873   1.623   7.494 -0.1761  0.1782 -0.1613
20877SOL    HW165523   0.796   1.671   7.525 -0.3726 -0.3310  0.1397
20877SOL    HW265524   0.866   1.626   7.399 -0.0175  1.0220 -0.1528
20878SOL     OW65525   6.321   0.467   0.313  0.6580 -0.2856 -0.4371
20878SOL    HW165526   6.347   0.388   0.362 -0.0874 -0.1048  0.2602
20878SOL    HW265527   6.226   0.468   0.318  0.6413  0.4165 -0.8402
20879SOL     OW65528   4.293   3.586   6.091  0.1468 -0.1562  0.1253
20879SOL    HW165529   4.213   3.543   6.121 -0.7612 -0.1810 -2.1093
20879SOL    HW265530   4.324   3.636   6.166 -1.5867 -0.6996  1.2483
20880SOL     OW65531   5.488   0.386   5.409  0.3019  0.2853  0.1556
20880SOL    HW165532   5.446   0.470   5.391 -0.1599  0.0188 -0.0234
20880SOL    HW265533   5.564   0.384   5.350  0.7320  0.8882  0.6821
20881SOL     OW65534   3.808   7.253   4.072 -0.1681  0.2179  0.2801
20881SOL    HW165535   3.828   7.345   4.058 -1.3246  0.7937  2.0530
20881SOL    HW265536   3.796   7.245   4.166 -0.5169 -1.6598  0.1169
20882SOL     OW65537   6.080   0.941   1.319 -0.0991  0.0004 -0.4530
20882SOL    HW165538   6.169   0.964   1.291  0.6221 -0.4438  1.3444
20882SOL    HW265539   6.075   0.846   1.310  0.1683 -0.1599  0.8831
20883SOL     OW65540   3.532   7.315   7.470 -0.4542  0.2706 -0.6186
20883SOL    HW165541   3.448   7.274   7.453 -0.9566 -0.4052  2.7649
20883SOL    HW265542   3.513   7.409   7.469 -1.4901  0.1129  0.8474
20884SOL     OW65543   7.000   2.063   3.236  0.3019  0.1034 -0.2457
20884SOL    HW165544   7.033   2.086   3.148 -0.6885 -1.8183 -1.1834
20884SOL    HW265545   7.041   1.979   3.255 -0.8448 -0.3353  0.3604
20885SOL     OW65546   2.276   1.229   3.913 -0.3546 -0.2474  0.0106
20885SOL    HW165547   2.368   1.209   3.929 -0.3129  0.2147  0.3647
20885SOL    HW265548   2.277   1.320   3.882 -0.6762 -0.2982 -0.1464
20886SOL     OW65549   5.378   6.954   5.732 -0.1185 -0.5884 -0.2887
20886SOL    HW165550   5.426   6.899   5.794 -0.4015  0.1750  0.6224
20886SOL    HW265551   5.393   7.044   5.762 -1.3271 -0.2792 -0.5556
20887SOL     OW65552   6.834   8.484   0.017  0.1317  0.1535 -0.3665
20887SOL    HW165553   6.805   8.548  -0.047  1.9742  1.4518  0.0073
20887SOL    HW265554   6.754   8.440   0.046 -0.8319 -0.1716 -3.1652
20888SOL     OW65555   7.934   6.362   1.403 -0.0109 -0.7125 -0.6755
20888SOL    HW165556   7.948   6.442   1.454  0.5302 -2.2738  1.7864
20888SOL    HW265557   7.849   6.375   1.361 -0.0736  1.0053 -0.0820
20889SOL     OW65558   2.146   7.250   7.176 -0.4693 -0.2043  0.1271
20889SOL    HW165559   2.061   7.261   7.134 -0.2735  0.0944 -0.1907
20889SOL    HW265560   2.208   7.241   7.104  0.3099  3.3004  0.2103
20890SOL     OW65561   5.341   4.558   6.384 -0.2622 -0.4674  0.1759
20890SOL    HW165562   5.250   4.555   6.413 -0.6432 -1.9228 -1.0580
20890SOL    HW265563   5.367   4.467   6.375  0.7842 -0.0821 -1.0793
20891SOL     OW65564   2.117   5.014   4.139  0.3737  0.1339 -0.0851
20891SOL    HW165565   2.191   5.016   4.078  0.3429  1.2948 -0.1052
20891SOL    HW265566   2.047   4.969   4.091  0.2591  1.2826 -1.0206
20892SOL     OW65567   4.507   1.010   5.861  0.0458  0.1411  0.1639
20892SOL    HW165568   4.491   1.035   5.952  2.2971 -2.7209  1.4941
20892SOL    HW265569   4.447   0.938   5.844 -0.2523  0.5512 -0.6005
20893SOL     OW65570   2.656   8.724   0.531 -0.1451  0.0351  0.6310
20893SOL    HW165571   2.670   8.658   0.599  1.0698  1.4150  1.7611
20893SOL    HW265572   2.739   8.770   0.524 -0.3961  0.2556 -1.4730
20894SOL     OW65573   0.637   2.257   4.239 -0.7062  0.2752  0.2170
20894SOL    HW165574   0.626   2.172   4.281  0.2475 -0.2396 -0.5290
20894SOL    HW265575   0.615   2.321   4.307 -0.6619 -0.5528  1.0239
20895SOL     OW65576   0.088   2.695   3.953 -0.3711 -0.4737 -0.3009
20895SOL    HW165577   0.156   2.641   3.912  0.0954 -0.2761  0.2064
20895SOL    HW265578   0.110   2.785   3.928 -0.1009 -0.3541  0.3558
20896SOL     OW65579   7.975   7.202   0.571 -0.2605  0.0036  0.1030
20896SOL    HW165580   7.999   7.151   0.494  0.3280  0.0620  0.2447
20896SOL    HW265581   8.016   7.287   0.557  1.5353 -0.5939  1.3812
20897SOL     OW65582   5.543   4.626   9.121 -0.5012 -0.4020  1.0974
20897SOL    HW165583   5.627   4.671   9.108 -0.3241 -1.3093 -1.6549
20897SOL    HW265584   5.478   4.689   9.089 -0.5009 -1.0086 -0.1503
20898SOL     OW65585   5.398   3.793   1.883  0.2848  0.3087 -0.2006
20898SOL    HW165586   5.448   3.719   1.848 -0.3955 -0.2400 -0.0150
20898SOL    HW265587   5.399   3.858   1.812  1.4443  0.4022 -0.1185
20899SOL     OW65588   3.800   4.463   1.409 -0.1173  0.4430  0.6643
20899SOL    HW165589   3.881   4.415   1.428  0.3384 -0.0228 -2.0541
20899SOL    HW265590   3.809   4.491   1.318 -2.1010  2.3169  0.9532
20900SOL     OW65591   6.071   3.692   6.334 -0.0797 -0.4297 -0.1840
20900SOL    HW165592   6.133   3.762   6.356 -0.2479 -0.5219  0.6295
20900SOL    HW265593   6.093   3.621   6.394  1.0573 -1.6667 -1.9668
20901SOL     OW65594   3.231   2.920   8.040  0.2396 -0.6472  0.7537
20901SOL    HW165595   3.237   2.970   7.959  2.8258 -1.7884  0.1226
20901SOL    HW265596   3.314   2.936   8.085 -0.0938 -2.0016  1.9425
20902SOL     OW65597   9.083   6.716   7.925 -0.4296  0.5627 -0.0526
20902SOL    HW165598   9.168   6.756   7.906 -0.9619  1.9480  0.3849
20902SOL    HW265599   9.049   6.765   7.999 -2.0108  0.6449 -0.7877
20903SOL     OW65600   3.513   9.098   4.176  0.4437 -0.1950  0.1267
20903SOL    HW165601   3.480   9.010   4.196  0.0148 -0.3155 -1.0802
20903SOL    HW265602   3.570   9.086   4.100  1.0411  0.4562  0.4588
20904SOL     OW65603   8.759   4.719   0.802  0.1734 -0.4763  0.3040
20904SOL    HW165604   8.819   4.658   0.845 -0.8405 -2.7831 -1.3648
20904SOL    HW265605   8.681   4.718   0.858  0.5718  0.2682  0.9040
20905SOL     OW65606   8.597   5.548   1.415  0.1628 -0.6071 -0.1842
20905SOL    HW165607   8.629   5.533   1.326  1.5228  2.9978 -0.4659
20905SOL    HW265608   8.530   5.481   1.428  2.7623 -3.9316 -2.2937
20906SOL     OW65609   2.731   1.274   5.385  0.0472 -0.2003  0.7356
20906SOL    HW165610   2.657   1.319   5.426  0.3020  0.0976  0.8710
20906SOL    HW265611   2.782   1.344   5.344 -0.4220 -0.5290 -0.4543
20907SOL     OW65612   6.737   2.272   8.428 -0.2611 -0.8137  0.0280
20907SOL    HW165613   6.662   2.220   8.456 -0.2828 -1.1017 -0.5573
20907SOL    HW265614   6.699   2.356   8.399 -0.1307 -0.0339  1.9873
20908SOL     OW65615   7.316   1.020   4.386  0.0985  0.0467 -0.4750
20908SOL    HW165616   7.350   1.044   4.472 -2.5173  2.0700  0.1140
20908SOL    HW265617   7.345   1.091   4.329  1.4822 -1.0875 -1.2700
20909SOL     OW65618   7.385   5.935   6.837 -0.6659 -0.3685  0.3340
20909SOL    HW165619   7.367   5.843   6.818 -0.3181  0.0083 -2.2344
20909SOL    HW265620   7.451   5.932   6.906  0.3221 -2.1212 -0.5893
20910SOL     OW65621   3.554   5.863   7.166  0.8286  0.2303 -0.2895
20910SOL    HW165622   3.497   5.932   7.132  0.4005 -0.8664 -1.8939
20910SOL    HW265623   3.511   5.833   7.246 -1.5596 -1.3773 -2.0518
20911SOL     OW65624   8.065   5.950   0.857  0.3542 -0.1425 -0.4872
20911SOL    HW165625   8.093   6.035   0.890  0.9346 -0.7462  0.6577
20911SOL    HW265626   8.105   5.944   0.770 -1.5628  1.6618 -1.5699
20912SOL     OW65627   5.661   2.142   1.905 -1.0903  0.0575 -0.2468
20912SOL    HW165628   5.741   2.091   1.888 -0.3196  1.3304 -0.6380
20912SOL    HW265629   5.620   2.152   1.819 -0.0160  1.9820 -0.5979
20913SOL     OW65630   7.655   0.693   1.558 -0.0397  0.5321 -0.3054
20913SOL    HW165631   7.717   0.676   1.488 -0.8886 -1.2197 -0.6915
20913SOL    HW265632   7.663   0.618   1.616 -1.3722  0.5607 -0.0557
20914SOL     OW65633   7.482   6.486   1.517  0.3450  0.0126  0.0801
20914SOL    HW165634   7.466   6.403   1.562  0.6944  0.1867  0.5218
20914SOL    HW265635   7.520   6.543   1.583  0.4338  0.4168 -0.3145
20915SOL     OW65636   0.654   6.646   8.016  0.3673  0.1189 -0.2776
20915SOL    HW165637   0.680   6.584   7.947 -0.0802 -0.7099  0.2791
20915SOL    HW265638   0.628   6.725   7.969  0.3656 -0.3290 -1.0488
20916SOL     OW65639   6.538   8.546   4.524  0.1773 -0.2944  0.0536
20916SOL    HW165640   6.594   8.599   4.581 -0.5896 -0.2481  0.7909
20916SOL    HW265641   6.567   8.567   4.436  0.9800  0.1116  0.4003
20917SOL     OW65642   5.382   1.424   3.286 -0.4236 -0.2615 -0.2574
20917SOL    HW165643   5.437   1.398   3.359  0.5388  1.1082 -0.4703
20917SOL    HW265644   5.351   1.341   3.249  1.6732 -1.0920 -0.2647
20918SOL     OW65645   5.666   5.826   8.633  0.3535 -0.0170 -0.1845
20918SOL    HW165646   5.680   5.833   8.727  0.4725  1.0976 -0.2692
20918SOL    HW265647   5.622   5.742   8.621 -1.4099  0.6585  1.0776
20919SOL     OW65648   1.516   6.844   1.239  0.0467  0.1102  0.6219
20919SOL    HW165649   1.476   6.761   1.213  0.9842 -0.5895  1.3868
20919SOL    HW265650   1.584   6.860   1.174 -1.3936  1.3163 -0.6956
20920SOL     OW65651   9.005   6.855   3.030 -0.0356 -0.2580 -0.2001
20920SOL    HW165652   9.076   6.881   3.088  0.4019  0.5601 -1.0675
20920SOL    HW265653   8.970   6.937   2.996  0.1559 -0.7097 -1.5803
20921SOL     OW65654   4.929   5.457   0.034  0.6883 -0.5380  0.7608
20921SOL    HW165655   4.841   5.483   0.060  0.7731  0.5383  0.0464
20921SOL    HW265656   4.950   5.382   0.089 -0.1098  0.1056  1.9751
20922SOL     OW65657   8.726   3.163   5.534  0.7411  0.2502  0.0111
20922SOL    HW165658   8.777   3.084   5.554 -0.6215 -1.0298 -1.2362
20922SOL    HW265659   8.662   3.170   5.605 -0.5049 -1.0660 -0.9099
20923SOL     OW65660   3.737   3.097   4.660 -0.6903  0.5581 -0.1768
20923SOL    HW165661   3.697   3.176   4.697 -2.1520 -0.5825  0.8093
20923SOL    HW265662   3.680   3.075   4.586 -0.5633  0.1761 -0.1594
20924SOL     OW65663   6.813   3.488   5.303  0.0136 -0.3470  0.0808
20924SOL    HW165664   6.736   3.507   5.249 -0.3555 -0.1615  0.6642
20924SOL    HW265665   6.785   3.419   5.363 -1.3672  3.0174  3.7017
20925SOL     OW65666   1.133   7.762   7.980 -0.3819 -0.0801  0.1852
20925SOL    HW165667   1.229   7.759   7.980 -0.3280  1.1749  1.1481
20925SOL    HW265668   1.107   7.698   8.047 -0.1824  0.3820  0.7061
20926SOL     OW65669   9.244   2.332   1.701 -0.2724  0.1188  0.2130
20926SOL    HW165670   9.290   2.402   1.747 -0.3608 -0.6192  1.4908
20926SOL    HW265671   9.213   2.372   1.620  2.4996  0.6974 -0.6821
20927SOL     OW65672   1.851   1.975   3.352  0.2342 -0.0990  0.4763
20927SOL    HW165673   1.889   2.026   3.423 -0.1978  0.7968  0.0815
20927SOL    HW265674   1.785   1.919   3.394 -1.2533  1.6565  0.6008
20928SOL     OW65675   8.696   9.177   9.258  0.5753 -0.3349  0.6305
20928SOL    HW165676   8.663   9.088   9.245 -0.2162 -0.1143  1.0942
20928SOL    HW265677   8.632   9.218   9.316  0.3893  0.8669 -0.4001
20929SOL     OW65678   1.166   3.715   2.831 -0.3089 -0.0933  0.3655
20929SOL    HW165679   1.130   3.671   2.755  1.5641  0.6702 -1.0426
20929SOL    HW265680   1.089   3.739   2.884 -1.6283 -0.9510 -1.0966
20930SOL     OW65681   5.609   0.697   7.638  0.3004  0.3958 -0.4999
20930SOL    HW165682   5.648   0.670   7.555 -2.0107 -2.7341 -0.7761
20930SOL    HW265683   5.663   0.655   7.705  0.2421  0.1313 -0.6171
20931SOL     OW65684   5.995   7.131   8.703  0.1712  0.0466  0.0203
20931SOL    HW165685   6.000   7.040   8.733 -1.9451  0.0426  0.4673
20931SOL    HW265686   6.058   7.135   8.631 -1.2039 -2.3732 -1.4436
20932SOL     OW65687   8.752   7.613   0.062  0.1307  0.3319  0.0699
20932SOL    HW165688   8.730   7.538   0.118  0.3065  0.3390  0.1459
20932SOL    HW265689   8.721   7.587  -0.025 -1.5135  0.9199  0.4448
20933SOL     OW65690   0.603   5.801   5.013  0.1682  0.1219 -0.0607
20933SOL    HW165691   0.567   5.729   5.066 -1.2775  0.0936 -1.0380
20933SOL    HW265692   0.641   5.861   5.077 -1.5523  0.1066  1.0421
20934SOL     OW65693   2.973   8.131   3.297  0.3853  0.4257  0.6367
20934SOL    HW165694   3.040   8.077   3.255 -2.2393 -2.3311 -0.3560
20934SOL    HW265695   2.964   8.095   3.385 -1.3584 -0.9288 -0.0228
20935SOL     OW65696   9.052   1.545   4.356  0.5518  0.9764  0.4581
20935SOL    HW165697   8.994   1.484   4.401  1.4409  0.2546  0.6345
20935SOL    HW265698   9.013   1.631   4.373 -1.1771  0.4369 -0.4661
20936SOL     OW65699   1.473   8.096   8.135  0.1413  0.0783 -0.2389
20936SOL    HW165700   1.514   8.180   8.160 -0.1221 -0.2998  1.6023
20936SOL    HW265701   1.389   8.121   8.098  0.1559  0.6479  0.0947
20937SOL     OW65702   3.860   1.038   3.142 -0.5272  0.5915 -0.3631
20937SOL    HW165703   3.937   1.059   3.195 -0.8607  0.0146  0.3664
20937SOL    HW265704   3.870   0.945   3.122 -0.6984  0.6732 -0.8406
20938SOL     OW65705   5.589   3.116   1.359  0.4695 -0.2228 -0.5031
20938SOL    HW165706   5.621   3.045   1.304  1.0812 -0.1257 -0.2850
20938SOL    HW265707   5.665   3.139   1.413  0.1551  0.3239 -0.2970
20939SOL     OW65708   5.926   3.479   2.380 -0.3389  0.2586  0.3507
20939SOL    HW165709   5.898   3.547   2.318  2.0476 -0.2117 -1.3517
20939SOL    HW265710   5.903   3.397   2.337 -0.3606 -0.0613  0.9648
20940SOL     OW65711   3.260   2.600   6.408 -0.3900  0.5464  0.4120
20940SOL    HW165712   3.324   2.611   6.478 -0.3036 -0.4990  0.5152
20940SOL    HW265713   3.207   2.679   6.411  1.1566  1.6362  0.0548
20941SOL     OW65714   7.326   4.083   0.043  0.4154 -0.7208 -0.5788
20941SOL    HW165715   7.354   4.135  -0.033 -0.5732  2.0987  0.8501
20941SOL    HW265716   7.263   4.020   0.007  1.2443 -0.6221 -2.3062
20942SOL     OW65717   6.055   9.055   2.340 -0.0138 -0.2873 -0.8059
20942SOL    HW165718   6.045   8.988   2.407  0.4007 -0.8124 -1.2596
20942SOL    HW265719   5.971   9.099   2.337  0.3603  0.6567  1.0135
20943SOL     OW65720   2.505   4.625   0.213 -0.3983 -0.4403  0.5288
20943SOL    HW165721   2.599   4.639   0.206 -0.2942 -0.7978  1.1207
20943SOL    HW265722   2.482   4.576   0.134  0.0772 -1.1578  0.8275
20944SOL     OW65723   3.377   7.209   5.149 -0.7100  0.1353 -0.2957
20944SOL    HW165724   3.293   7.255   5.153 -1.2380 -0.3856 -3.0364
20944SOL    HW265725   3.355   7.123   5.113  0.7719 -0.7946  0.9202
20945SOL     OW65726   0.672   7.000   4.016 -0.4760  0.7059  0.5009
20945SOL    HW165727   0.694   7.041   3.932 -0.0901 -0.5502 -0.0339
20945SOL    HW265728   0.651   6.910   3.994  0.1786  0.2055  1.8172
20946SOL     OW65729   4.441   1.044   2.377  0.4343 -0.7298  0.3561
20946SOL    HW165730   4.491   0.974   2.335 -0.2683 -1.6540  1.0110
20946SOL    HW265731   4.402   1.002   2.453 -0.3082  0.2974  0.5534
20947SOL     OW65732   6.224   6.212   8.707 -0.0769  0.0780 -0.6306
20947SOL    HW165733   6.278   6.134   8.692 -1.7910 -1.3932  0.3476
20947SOL    HW265734   6.134   6.178   8.709 -0.8112  1.9283  0.8170
20948SOL     OW65735   7.075   2.705   4.866 -0.3183 -0.3089  0.2281
20948SOL    HW165736   7.121   2.693   4.948  0.7198 -1.4670 -0.5008
20948SOL    HW265737   7.131   2.665   4.800 -0.6534  1.4512 -1.2023
20949SOL     OW65738   2.745   3.350   9.182 -0.6074 -0.1242 -0.3284
20949SOL    HW165739   2.756   3.408   9.107 -0.2216  0.1754 -0.0479
20949SOL    HW265740   2.819   3.371   9.240 -1.7470  0.7699  0.8574
20950SOL     OW65741   0.097   4.439   1.660 -0.4199  0.4047 -0.5677
20950SOL    HW165742   0.066   4.517   1.615  1.0758  0.5478 -1.4375
20950SOL    HW265743   0.091   4.369   1.595  1.1857  0.4809 -0.8407
20951SOL     OW65744   0.561   0.249   3.725 -0.1678  0.4738 -0.0160
20951SOL    HW165745   0.577   0.344   3.727  1.0010  0.3206 -1.2479
20951SOL    HW265746   0.635   0.213   3.677 -0.1431 -1.1825  1.1995
20952SOL     OW65747   7.876   1.753   0.675 -0.0573  0.4326  0.2889
20952SOL    HW165748   7.829   1.837   0.679  1.1106  1.0531  1.5820
20952SOL    HW265749   7.912   1.741   0.762  0.0886 -1.2726  0.0273
20953SOL     OW65750   6.993   5.308   2.648  0.1961 -0.1362 -0.7895
20953SOL    HW165751   6.929   5.237   2.657 -0.6076  0.6268 -0.3745
20953SOL    HW265752   7.056   5.275   2.583  0.4584 -1.6598  0.1817
20954SOL     OW65753   4.768   6.792   5.002 -0.4950 -0.3107  0.4537
20954SOL    HW165754   4.779   6.887   4.999 -0.6251 -0.3256 -1.0334
20954SOL    HW265755   4.856   6.758   5.018 -0.1230  0.0118 -0.7680
20955SOL     OW65756   1.782   2.760   1.342  0.1729  0.4295 -0.7415
20955SOL    HW165757   1.689   2.758   1.321  0.1134 -3.4192 -0.8351
20955SOL    HW265758   1.785   2.779   1.436 -0.9149 -1.0214 -0.3584
20956SOL     OW65759   3.543   7.863   8.684 -0.1974  0.3051 -0.2724
20956SOL    HW165760   3.629   7.830   8.658  0.2347  0.9753  0.2865
20956SOL    HW265761   3.543   7.955   8.657  0.3771  1.1234  2.2444
20957SOL     OW65762   8.863   2.214   1.496 -0.5131  0.1422  0.3494
20957SOL    HW165763   8.928   2.146   1.514  0.5453  1.0931  0.2444
20957SOL    HW265764   8.846   2.208   1.403  1.2351  1.3901 -0.1065
20958SOL     OW65765   8.029   7.735   3.978  0.1923 -0.6221 -0.1411
20958SOL    HW165766   8.117   7.696   3.977 -0.1540 -1.4409  0.0618
20958SOL    HW265767   8.037   7.813   3.924  0.6442 -1.6139 -1.5918
20959SOL     OW65768   1.795   1.321   0.900  0.5359 -0.0058  0.1292
20959SOL    HW165769   1.775   1.374   0.824 -0.0854  0.5962  0.6969
20959SOL    HW265770   1.763   1.373   0.975  4.6118  1.2844  1.2007
20960SOL     OW65771   8.659   7.338   0.243 -0.0859 -0.2621  0.3514
20960SOL    HW165772   8.744   7.357   0.281 -1.1308  0.4095  2.5126
20960SOL    HW265773   8.629   7.260   0.289 -1.1358  0.2075  0.4959
20961SOL     OW65774   3.719   2.270   0.542 -0.5240 -0.1542 -0.2691
20961SOL    HW165775   3.627   2.265   0.515  0.2318 -1.0282 -2.9400
20961SOL    HW265776   3.753   2.346   0.496 -0.0697  0.7686  1.4841
20962SOL     OW65777   0.320   2.688   9.243 -0.1987 -0.4623 -0.5970
20962SOL    HW165778   0.392   2.749   9.226  0.3891 -0.4096  1.7758
20962SOL    HW265779   0.241   2.740   9.229  0.1130 -0.5641 -3.4194
20963SOL     OW65780   4.491   8.251   3.933  0.0637 -0.2469 -0.4909
20963SOL    HW165781   4.500   8.248   4.028  0.4316  0.0508 -0.5111
20963SOL    HW265782   4.398   8.268   3.918  0.1089  0.3254 -0.1632
20964SOL     OW65783   7.821   8.474   6.969 -0.5015  0.1729 -0.5787
20964SOL    HW165784   7.774   8.398   6.935  0.0933  0.5383 -2.2978
20964SOL    HW265785   7.752   8.537   6.990 -0.9836 -0.7122  0.6241
20965SOL     OW65786   3.963   5.577   1.810  0.2088 -0.3592 -0.5163
20965SOL    HW165787   3.939   5.655   1.859  1.7825  0.1346 -0.4846
20965SOL    HW265788   3.882   5.525   1.807 -0.4749  0.5667  0.7500
20966SOL     OW65789   4.268   4.823   1.902 -0.0241  0.2384 -0.2735
20966SOL    HW165790   4.206   4.795   1.835  0.6142 -0.5121 -0.5765
20966SOL    HW265791   4.277   4.747   1.960 -0.6970  0.9387  0.7750
20967SOL     OW65792   3.653   2.038   5.607 -0.3927 -0.3448  0.5949
20967SOL    HW165793   3.659   1.950   5.570 -0.2040  0.4914 -1.5121
20967SOL    HW265794   3.610   2.026   5.691  0.2178 -2.5189  0.6591
20968SOL     OW65795   2.340   8.893   0.615 -0.4491  0.1229 -0.2367
20968SOL    HW165796   2.426   8.924   0.642 -0.3962 -0.8442  0.7424
20968SOL    HW265797   2.358   8.834   0.541 -0.3773  0.8094 -0.7719
20969SOL     OW65798   0.966   0.914   5.965 -0.0393 -0.4158 -0.2139
20969SOL    HW165799   0.959   0.962   6.047 -1.0686  0.5117 -0.8060
20969SOL    HW265800   0.914   0.835   5.979 -0.5226 -0.0791 -0.0877
20970SOL     OW65801   6.475   7.752   0.661  0.0162  0.1452  0.6689
20970SOL    HW165802   6.557   7.758   0.710  0.4997 -1.6356  0.1245
20970SOL    HW265803   6.435   7.671   0.692 -1.2717  0.6905  0.4878
20971SOL     OW65804   1.401   2.774   6.973  0.2292 -0.2049  0.2841
20971SOL    HW165805   1.452   2.851   6.945  2.1459 -0.9032  1.6285
20971SOL    HW265806   1.395   2.784   7.068  0.5862 -1.7290  0.4879
20972SOL     OW65807   7.329   2.777   1.831 -0.0633  0.0039  0.0570
20972SOL    HW165808   7.264   2.782   1.901 -1.4219 -1.0292 -1.0751
20972SOL    HW265809   7.297   2.838   1.765  0.3957 -0.1373 -0.2972
20973SOL     OW65810   2.566   6.009   8.928  0.1509 -0.0522  0.3561
20973SOL    HW165811   2.581   5.915   8.921  0.8580  0.0713  0.2115
20973SOL    HW265812   2.484   6.023   8.881  0.2938 -0.5242 -0.0438
20974SOL     OW65813   3.559   2.121   6.129 -0.2344  0.4010  0.2218
20974SOL    HW165814   3.582   2.031   6.107 -3.3106 -0.1924 -1.0820
20974SOL    HW265815   3.597   2.174   6.060  2.4436  0.3277  1.5189
20975SOL     OW65816   0.199   7.304   6.019  0.3667 -0.2749 -0.5686
20975SOL    HW165817   0.159   7.370   5.962 -0.2395 -1.1200 -1.1480
20975SOL    HW265818   0.125   7.256   6.056  0.8009 -0.7870 -0.3460
20976SOL     OW65819   8.806   1.139   3.131  0.5052 -0.3411  0.3936
20976SOL    HW165820   8.797   1.179   3.217 -0.7983 -1.0756  0.6183
20976SOL    HW265821   8.723   1.157   3.087  0.5513 -1.3150 -0.1210
20977SOL     OW65822   9.091   8.202   0.477 -0.2450  0.7455 -0.2538
20977SOL    HW165823   9.137   8.125   0.442 -1.1117  0.3158 -0.4853
20977SOL    HW265824   9.089   8.187   0.571 -2.9845 -1.0639 -0.4871
20978SOL     OW65825   0.656   1.465   0.356 -0.0649 -0.5167 -0.4428
20978SOL    HW165826   0.642   1.425   0.270  1.2793  2.1955 -2.0924
20978SOL    HW265827   0.750   1.483   0.358 -0.6142  3.4264 -0.4722
20979SOL     OW65828   2.039   6.788   0.905 -0.0884 -0.0999  0.0134
20979SOL    HW165829   2.084   6.708   0.931 -0.2034 -0.3588 -0.5692
20979SOL    HW265830   2.086   6.858   0.951  1.1836 -0.3145 -0.9093
20980SOL     OW65831   5.507   2.788   2.419 -0.1074 -0.0052 -0.0938
20980SOL    HW165832   5.546   2.769   2.504 -2.3759 -1.2932  0.7362
20980SOL    HW265833   5.490   2.882   2.420 -0.0975 -0.0039  0.8662
20981SOL     OW65834   4.570   6.018   1.267  0.0262  0.3438  0.6813
20981SOL    HW165835   4.518   5.945   1.300  1.3783  0.4965  3.4004
20981SOL    HW265836   4.509   6.068   1.214 -1.3570 -1.8782  0.0160
20982SOL     OW65837   0.653   3.469   8.085 -0.3637  0.5376  0.7139
20982SOL    HW165838   0.634   3.395   8.027  0.4337  1.2667 -0.5214
20982SOL    HW265839   0.749   3.475   8.085 -0.4279  1.6666  0.6690
20983SOL     OW65840   2.484   3.249   2.895  0.2764  0.0474  0.0333
20983SOL    HW165841   2.407   3.306   2.897  0.6244  0.5190  0.7942
20983SOL    HW265842   2.451   3.164   2.866 -0.5425  0.2324  0.3883
20984SOL     OW65843   5.461   3.835   4.320 -0.1399 -0.4958 -0.5729
20984SOL    HW165844   5.516   3.891   4.266  3.3332 -2.2604  0.8251
20984SOL    HW265845   5.496   3.844   4.408 -0.1377 -3.8756 -0.0782
20985SOL     OW65846   1.738   1.403   2.318  0.1138 -0.1210  0.4063
20985SOL    HW165847   1.709   1.479   2.368  1.8325  1.1638 -0.4641
20985SOL    HW265848   1.745   1.333   2.383 -1.6146  0.3926  1.1993
20986SOL     OW65849   3.967   2.895   3.488 -0.8669 -0.1306 -0.3916
20986SOL    HW165850   3.956   2.872   3.396  0.2337 -2.4127 -0.0326
20986SOL    HW265851   3.885   2.870   3.529 -0.2167 -2.2577 -0.2685
20987SOL     OW65852   8.165   3.566   2.301  0.5092  0.1501 -0.4204
20987SOL    HW165853   8.243   3.520   2.332  0.2024 -0.2733 -0.2632
20987SOL    HW265854   8.167   3.650   2.346  0.7800  0.0692 -0.2808
20988SOL     OW65855   6.444   2.014   5.959 -0.0788 -0.4040  0.1717
20988SOL    HW165856   6.515   1.951   5.971 -1.0602 -1.3403  1.4203
20988SOL    HW265857   6.462   2.083   6.024  1.2921  0.9580 -1.5596
20989SOL     OW65858   0.079   8.512   2.609 -0.6533  0.1500  0.2027
20989SOL    HW165859   0.056   8.602   2.583  0.3610 -0.0935 -1.7471
20989SOL    HW265860   0.117   8.474   2.530 -2.1265 -2.4101  0.6330
20990SOL     OW65861   1.064   8.868   7.990 -0.1675  0.2005 -0.0318
20990SOL    HW165862   1.050   8.798   8.054  1.2955  0.6060  0.7772
20990SOL    HW265863   1.157   8.888   7.997  0.0412  0.2686 -2.3124
20991SOL     OW65864   2.529   1.603   2.779  0.4136  0.4989 -0.2309
20991SOL    HW165865   2.472   1.533   2.811  0.8246 -0.5512 -1.6892
20991SOL    HW265866   2.531   1.666   2.851 -1.8304  0.1346  0.2349
20992SOL     OW65867   9.219   1.183   9.210 -0.1901  0.2612 -0.2302
20992SOL    HW165868   9.262   1.237   9.276 -2.3438  0.8089  0.8106
20992SOL    HW265869   9.224   1.234   9.130  1.6449  0.0037 -0.3235
20993SOL     OW65870   8.189   8.456   0.703  0.6483 -0.5899 -0.9431
20993SOL    HW165871   8.171   8.418   0.617  1.2757 -1.3164 -0.7670
20993SOL    HW265872   8.267   8.510   0.690  0.9020 -0.9133 -0.7770
20994SOL     OW65873   7.826   7.398   1.570  0.6578  0.6682  0.3175
20994SOL    HW165874   7.857   7.308   1.568  1.6618  0.9756  0.9039
20994SOL    HW265875   7.893   7.448   1.523 -0.4295  0.9744 -0.9500
20995SOL     OW65876   4.451   5.220   5.809  0.4206  0.3224  0.3556
20995SOL    HW165877   4.360   5.249   5.801  0.5537  0.2813 -2.8680
20995SOL    HW265878   4.447   5.141   5.862 -1.2064  1.1185  1.4826
20996SOL     OW65879   4.411   2.440   5.882  0.1705  0.1819  0.2888
20996SOL    HW165880   4.326   2.482   5.892  0.2229  0.2747  0.3450
20996SOL    HW265881   4.453   2.450   5.968 -0.2244 -0.8757  0.6176
20997SOL     OW65882   8.970   7.948   1.572  0.5308 -0.1427  0.1254
20997SOL    HW165883   8.981   7.853   1.578  2.0788 -0.0382 -0.7317
20997SOL    HW265884   8.937   7.962   1.483 -0.4927  0.0825  0.5243
20998SOL     OW65885   5.180   3.981   9.178  0.5358  0.1540 -0.3236
20998SOL    HW165886   5.269   4.013   9.170  0.3467  1.0588  0.8955
20998SOL    HW265887   5.126   4.050   9.140  0.3557 -0.6207 -1.5456
20999SOL     OW65888   6.507   1.007   8.639 -0.1208 -0.1046  0.4671
20999SOL    HW165889   6.413   1.019   8.651 -0.3581 -0.1268 -1.0837
20999SOL    HW265890   6.544   1.011   8.727 -1.8053 -2.2138  1.3612
21000SOL     OW65891   8.248   4.257   8.832 -0.0810  0.0133  0.1146
21000SOL    HW165892   8.246   4.346   8.870 -2.0677  0.0544  0.0221
21000SOL    HW265893   8.341   4.233   8.833  0.2531  1.0053  2.7023
21001SOL     OW65894   7.907   2.221   6.953  0.0493 -0.1133 -0.2318
21001SOL    HW165895   7.912   2.138   7.000 -2.7421 -0.0473  0.3547
21001SOL    HW265896   7.864   2.199   6.870  0.1487  0.6063 -0.4834
21002SOL     OW65897   3.790   0.702   4.065 -0.4226  1.1500  0.3188
21002SOL    HW165898   3.824   0.668   3.982  0.6266 -0.0811  1.2225
21002SOL    HW265899   3.714   0.647   4.084 -0.8210  1.6029  0.0567
21003SOL     OW65900   0.014   1.539   4.198 -0.0237 -0.2668 -0.0722
21003SOL    HW165901  -0.055   1.548   4.265  0.3932 -0.2294  0.3554
21003SOL    HW265902   0.024   1.444   4.187 -0.1000 -0.2730 -0.0890
21004SOL     OW65903   0.823   1.335   1.013 -0.4564 -0.0929  0.2276
21004SOL    HW165904   0.807   1.338   1.108 -2.1034  0.8372 -0.0454
21004SOL    HW265905   0.762   1.399   0.976 -0.5104 -1.1086 -1.5611
21005SOL     OW65906   3.362   5.239   2.980 -0.0104 -0.0574 -0.3583
21005SOL    HW165907   3.440   5.199   3.019 -0.2785 -0.2263  0.0116
21005SOL    HW265908   3.332   5.174   2.916  0.6007  0.3483 -1.0775
21006SOL     OW65909   3.539   0.938   1.242 -0.3053  0.0263 -0.2359
21006SOL    HW165910   3.592   1.002   1.291  0.9170  0.5722 -2.1642
21006SOL    HW265911   3.469   0.990   1.204  0.7325  0.3014 -1.8694
21007SOL     OW65912   2.504   6.648   1.301  0.3894 -0.0034  0.2303
21007SOL    HW165913   2.479   6.670   1.211  0.0571 -0.3195  0.2407
21007SOL    HW265914   2.574   6.584   1.291  0.4991  0.1215  0.1971
21008SOL     OW65915   1.815   7.758   1.474  0.1617  0.0853 -0.1849
21008SOL    HW165916   1.757   7.707   1.418  2.6444 -3.3413  0.0745
21008SOL    HW265917   1.769   7.761   1.558 -0.5331 -0.7807 -0.5166
21009SOL     OW65918   8.156   3.722   8.939  0.6219 -0.0665 -0.2499
21009SOL    HW165919   8.161   3.808   8.897  4.2118 -0.3268 -0.6810
21009SOL    HW265920   8.069   3.689   8.915 -0.9647  3.4191  0.0686
21010SOL     OW65921   5.089   2.619   5.815  0.6033 -0.2593 -0.2674
21010SOL    HW165922   5.159   2.667   5.859 -0.5995  0.2101  1.2161
21010SOL    HW265923   5.019   2.683   5.804 -0.0604 -1.0300 -0.6207
21011SOL     OW65924   5.303   8.539   6.952 -0.4204  0.6091 -0.1242
21011SOL    HW165925   5.233   8.590   6.911  0.7182  1.8538 -0.5888
21011SOL    HW265926   5.266   8.511   7.036 -2.3475 -0.9165 -1.3873
21012SOL     OW65927   0.660   8.148   2.104  0.2104 -0.4995 -0.3401
21012SOL    HW165928   0.613   8.177   2.183  2.1771 -3.0282  1.9537
21012SOL    HW265929   0.691   8.229   2.064 -0.8110  0.9102  1.5231
21013SOL     OW65930   6.408   2.038   5.359  0.2534  0.6369 -0.2006
21013SOL    HW165931   6.444   2.002   5.278  3.1461 -0.9471  1.5729
21013SOL    HW265932   6.453   2.122   5.371 -0.4326  1.0387 -0.3815
21014SOL     OW65933   6.456   5.515   6.339  0.2817 -0.1260  0.1722
21014SOL    HW165934   6.372   5.487   6.376  0.2383 -1.9055 -1.1480
21014SOL    HW265935   6.505   5.433   6.328  0.5429  0.3377 -3.0103
21015SOL     OW65936   5.219   7.926   8.309  0.4125  0.3353 -0.2637
21015SOL    HW165937   5.257   7.967   8.387  0.6217  4.2301 -2.1852
21015SOL    HW265938   5.125   7.933   8.321  0.3736 -1.0702  0.5042
21016SOL     OW65939   7.933   0.446   0.708  0.2653  0.7588  0.1503
21016SOL    HW165940   7.891   0.413   0.629  0.1066  1.0352  0.1156
21016SOL    HW265941   7.918   0.378   0.773 -0.7124  1.0825  0.2859
21017SOL     OW65942   2.025   2.287   7.089 -0.0507 -0.5104  0.3885
21017SOL    HW165943   2.106   2.323   7.127  0.8732 -0.9805 -1.0528
21017SOL    HW265944   2.035   2.302   6.995 -2.0620  0.2049  0.2474
21018SOL     OW65945   1.979   6.005   4.115  0.2006  0.3096  0.2147
21018SOL    HW165946   2.062   6.037   4.079 -0.7000  0.4314 -1.9122
21018SOL    HW265947   2.003   5.929   4.168  1.5730 -0.4026 -1.3514
21019SOL     OW65948   1.853   5.612   4.797  0.3789 -0.7469  0.8279
21019SOL    HW165949   1.874   5.644   4.885  0.6615 -0.4689  0.6602
21019SOL    HW265950   1.764   5.577   4.805  0.8671 -1.8658  1.5247
21020SOL     OW65951   6.225   8.789   3.486  0.0035  0.6301  0.4936
21020SOL    HW165952   6.268   8.819   3.566 -0.4522  0.4700  0.8028
21020SOL    HW265953   6.295   8.751   3.434 -0.0507 -1.5563  1.8839
21021SOL     OW65954   8.807   6.888   2.378  0.1657  0.1347 -0.5965
21021SOL    HW165955   8.804   6.914   2.286  1.4065 -1.2943 -1.0834
21021SOL    HW265956   8.722   6.915   2.413  0.1727  1.9013 -1.8009
21022SOL     OW65957   3.795   4.188   8.326  0.4262 -0.3744  0.2649
21022SOL    HW165958   3.828   4.134   8.253  2.4300 -1.0447  1.5792
21022SOL    HW265959   3.719   4.140   8.358  0.5719 -1.0054 -0.2916
21023SOL     OW65960   7.123   7.357   3.343 -0.3213  0.3116 -0.1292
21023SOL    HW165961   7.163   7.443   3.353  0.3327 -0.1393  1.4218
21023SOL    HW265962   7.120   7.343   3.248 -0.0292  1.8335 -0.3925
21024SOL     OW65963   5.969   7.464   3.688  0.1601 -0.2941  0.3764
21024SOL    HW165964   5.910   7.515   3.633 -1.5042 -3.4951 -1.1364
21024SOL    HW265965   5.926   7.465   3.774 -1.7517 -1.7656 -0.4647
21025SOL     OW65966   6.064   3.635   7.182 -0.1153  0.1770  0.1131
21025SOL    HW165967   6.144   3.596   7.217  0.3484  0.6200 -0.4210
21025SOL    HW265968   6.055   3.597   7.095 -0.7349 -0.2004  0.3345
21026SOL     OW65969   2.818   0.552   1.570 -0.4631  0.0120 -0.2304
21026SOL    HW165970   2.901   0.574   1.611 -0.4474  0.1922 -0.3550
21026SOL    HW265971   2.843   0.503   1.491 -0.4112  1.0599 -0.8989
21027SOL     OW65972   1.800   7.670   4.875  0.6314  0.3522  0.1895
21027SOL    HW165973   1.860   7.685   4.802  0.8830 -1.3743 -0.0107
21027SOL    HW265974   1.713   7.668   4.834  0.4647  2.1792  0.3815
21028SOL     OW65975   5.917   2.380   5.770 -0.3492  0.0408  0.6960
21028SOL    HW165976   5.995   2.424   5.736  1.1335 -1.3384  2.1846
21028SOL    HW265977   5.844   2.420   5.721  1.3351  0.6436 -1.4543
21029SOL     OW65978   1.565   6.944   3.758 -0.6033 -0.9622 -0.1884
21029SOL    HW165979   1.616   6.971   3.835 -0.5965 -2.1915  0.2680
21029SOL    HW265980   1.492   6.894   3.795 -0.9623 -1.0172 -0.9602
21030SOL     OW65981   0.726   0.083   2.383 -0.1097 -0.8095 -0.7198
21030SOL    HW165982   0.672   0.162   2.381 -2.7376 -2.2828  2.6039
21030SOL    HW265983   0.772   0.088   2.467  2.1563 -1.4228 -1.8466
21031SOL     OW65984   1.534   8.484   2.617  0.3897 -0.0018 -0.4055
21031SOL    HW165985   1.607   8.489   2.555  0.2888 -1.2058 -0.6446
21031SOL    HW265986   1.457   8.472   2.562  0.1679  0.0233 -0.1010
21032SOL     OW65987   7.105   7.492   5.749  0.1688  0.1486  0.6676
21032SOL    HW165988   7.065   7.577   5.731  0.5224  0.1267 -0.2733
21032SOL    HW265989   7.178   7.513   5.807  0.3822  0.5260  0.2772
21033SOL     OW65990   2.948   2.287   4.754  0.1896  0.0141 -0.0922
21033SOL    HW165991   2.877   2.230   4.725  1.0364 -0.4466 -1.3293
21033SOL    HW265992   2.908   2.374   4.757 -0.4435 -0.2438 -0.7192
21034SOL     OW65993   4.570   5.576   6.340  0.3434  0.1269  0.1351
21034SOL    HW165994   4.510   5.638   6.299 -1.5949 -0.1214  2.3995
21034SOL    HW265995   4.566   5.596   6.434  1.2304 -2.0871  0.7112
21035SOL     OW65996   8.872   8.221   7.415 -0.2838 -0.0479  0.0954
21035SOL    HW165997   8.791   8.178   7.388 -0.2208 -0.9778  1.2821
21035SOL    HW265998   8.844   8.287   7.479 -0.0895 -0.5792  0.7369
21036SOL     OW65999   9.195   2.998   6.658  0.1374 -0.8357 -0.3206
21036SOL    HW166000   9.217   3.084   6.694 -0.0695 -0.6928 -0.5307
21036SOL    HW266001   9.212   2.936   6.730 -0.1710 -0.5671 -0.0144
21037SOL     OW66002   3.886   4.170   3.560  0.3465  0.5264 -0.6539
21037SOL    HW166003   3.874   4.173   3.465 -1.3966  0.2192 -0.4767
21037SOL    HW266004   3.813   4.220   3.595  0.9836  0.6624  0.5408
21038SOL     OW66005   0.196   6.037   3.422  0.1032 -0.3395 -0.0093
21038SOL    HW166006   0.251   6.038   3.501  0.4316 -0.3916 -0.2321
21038SOL    HW266007   0.112   6.002   3.452  0.0139  0.2478  0.4471
21039SOL     OW66008   8.209   7.336   1.080  0.3179 -0.4728 -0.1776
21039SOL    HW166009   8.296   7.377   1.087  0.1642 -0.1485 -0.1538
21039SOL    HW266010   8.158   7.399   1.029  0.5532 -1.3832 -1.5854
21040SOL     OW66011   6.953   2.927   1.219 -0.3732 -0.3015 -0.2670
21040SOL    HW166012   7.004   2.956   1.294  0.5893 -0.7774 -0.7207
21040SOL    HW266013   6.971   2.833   1.213  0.5368 -0.0736 -1.7985
21041SOL     OW66014   2.289   5.862   7.278 -0.6734  0.0357 -0.1720
21041SOL    HW166015   2.258   5.859   7.188 -0.8108  1.6879 -0.2020
21041SOL    HW266016   2.228   5.806   7.327 -1.6225  0.4938 -0.8117
21042SOL     OW66017   5.081   2.049   1.114  0.3139 -0.1186 -0.1031
21042SOL    HW166018   5.019   2.038   1.186 -1.2873  0.9703 -1.2209
21042SOL    HW266019   5.167   2.047   1.154 -0.3696 -2.5103  1.4425
21043SOL     OW66020   1.096   5.972   1.906 -0.0235 -1.1169 -0.3496
21043SOL    HW166021   1.113   5.968   2.000  2.1548 -0.8351 -0.6825
21043SOL    HW266022   1.002   5.990   1.900 -0.0598 -0.2363  1.7774
21044SOL     OW66023   4.591   9.218   5.359  0.0092 -0.1340 -0.7782
21044SOL    HW166024   4.680   9.198   5.331  0.0862  1.0124 -1.4007
21044SOL    HW266025   4.535   9.173   5.295  0.1603  0.0819 -1.0636
21045SOL     OW66026   5.207   2.446   5.309 -0.2777  0.1960  0.4568
21045SOL    HW166027   5.246   2.454   5.222  0.6149 -1.5676  0.6447
21045SOL    HW266028   5.203   2.536   5.342  0.0525  0.8155 -1.0939
21046SOL     OW66029   4.462   3.260   7.172 -0.3012 -0.0905 -0.5116
21046SOL    HW166030   4.461   3.234   7.264 -0.2251  1.1859 -0.1243
21046SOL    HW266031   4.369   3.269   7.149 -0.3315 -0.7641 -0.6799
21047SOL     OW66032   8.610   2.792   4.531 -0.2038 -0.5365 -0.5491
21047SOL    HW166033   8.594   2.711   4.482 -2.2809 -0.6141  0.1873
21047SOL    HW266034   8.657   2.763   4.609 -0.9667 -1.0539 -0.2693
21048SOL     OW66035   3.304   3.874   8.710  0.1842 -0.0927 -0.3718
21048SOL    HW166036   3.270   3.951   8.663  0.0608 -0.0858 -0.2712
21048SOL    HW266037   3.320   3.810   8.641  0.0015 -0.0828 -0.4247
21049SOL     OW66038   8.742   9.055   6.983 -0.1236  0.1739 -0.1405
21049SOL    HW166039   8.683   9.047   6.908 -1.1293  2.3090  0.3444
21049SOL    HW266040   8.754   9.149   6.994  3.0535 -0.1471  0.0964
21050SOL     OW66041   3.819   2.562   3.637 -0.5146  0.4414  0.2018
21050SOL    HW166042   3.728   2.540   3.616 -0.1567  0.6545 -1.7305
21050SOL    HW266043   3.812   2.631   3.703 -1.7749  0.8563 -0.3289
21051SOL     OW66044   7.420   2.161   2.367 -0.2425  0.1911 -0.4855
21051SOL    HW166045   7.468   2.096   2.419  0.4884  0.9596 -0.1912
21051SOL    HW266046   7.482   2.192   2.302 -0.0480  1.7875  0.4090
21052SOL     OW66047   9.257   5.088   4.941  0.2146  0.0236  0.1446
21052SOL    HW166048   9.349   5.113   4.952  0.5133  0.0170 -1.9804
21052SOL    HW266049   9.222   5.152   4.879 -1.0992 -0.2836  0.5285
21053SOL     OW66050   6.533   2.817   4.515  0.0064 -0.2650 -0.5345
21053SOL    HW166051   6.593   2.849   4.448  0.2350  0.6137  0.0753
21053SOL    HW266052   6.578   2.832   4.598 -0.1460 -1.6216 -0.1737
21054SOL     OW66053   9.227   5.462   7.887 -0.2586  0.3080  0.1598
21054SOL    HW166054   9.300   5.512   7.921 -0.6957  2.0100 -1.2333
21054SOL    HW266055   9.149   5.505   7.923 -0.6483  0.6335 -1.0309
21055SOL     OW66056   0.192   1.068   6.471  0.2907 -0.6322 -0.3139
21055SOL    HW166057   0.268   1.088   6.525 -1.6337  0.2988  2.2710
21055SOL    HW266058   0.182   1.143   6.413 -0.8099  1.1741  2.0540
21056SOL     OW66059   7.615   6.481   8.716  0.5909  0.2960  0.0193
21056SOL    HW166060   7.581   6.422   8.783 -0.7521  0.3026 -0.6083
21056SOL    HW266061   7.572   6.565   8.735  2.3871  1.0758  0.8355
21057SOL     OW66062   3.551   2.545   4.015  0.0950  0.2071 -0.7092
21057SOL    HW166063   3.646   2.547   4.029 -0.0886  0.3492  0.7300
21057SOL    HW266064   3.518   2.489   4.086 -1.0120  1.1868 -0.4168
21058SOL     OW66065   5.549   2.151   2.159 -0.1990  0.0694  0.6202
21058SOL    HW166066   5.541   2.131   2.066  0.8483  0.2069  0.4917
21058SOL    HW266067   5.638   2.183   2.169  0.0842 -1.0079  1.8595
21059SOL     OW66068   8.609   1.950   1.592  0.1763  0.0188 -0.2576
21059SOL    HW166069   8.628   1.862   1.558 -0.6920  0.0676 -0.8792
21059SOL    HW266070   8.673   1.961   1.663  2.9619  0.4337 -2.6290
21060SOL     OW66071   6.297   0.832   5.495  0.4387 -0.0089  0.2644
21060SOL    HW166072   6.247   0.813   5.574  0.2713  0.3424  0.2453
21060SOL    HW266073   6.236   0.880   5.438  0.5263 -0.3443 -0.1190
21061SOL     OW66074   1.346   2.444   6.449 -0.0790 -0.2766  0.1342
21061SOL    HW166075   1.312   2.458   6.360  0.5647  0.9110  0.0602
21061SOL    HW266076   1.441   2.451   6.440 -0.0384  0.4290  1.0017
21062SOL     OW66077   4.456   6.586   3.794  0.3038 -0.1139  0.2203
21062SOL    HW166078   4.368   6.599   3.758  0.9107  0.8648 -0.9763
21062SOL    HW266079   4.503   6.666   3.771  0.9545  0.2757  2.6248
21063SOL     OW66080   2.213   8.813   5.098  0.2350  0.3853  0.2932
21063SOL    HW166081   2.153   8.740   5.084 -1.0888  1.4490  0.2162
21063SOL    HW266082   2.270   8.784   5.170  0.3063 -1.0283 -0.2986
21064SOL     OW66083   3.563   5.144   5.454 -0.3099  0.1993  0.0396
21064SOL    HW166084   3.653   5.121   5.477 -0.3318 -0.1861 -0.2592
21064SOL    HW266085   3.524   5.171   5.537 -0.0620 -0.1074  0.2576
21065SOL     OW66086   1.517   0.653   8.594  0.3484  0.0933  0.2496
21065SOL    HW166087   1.566   0.573   8.577 -0.5255 -0.5663  0.7105
21065SOL    HW266088   1.548   0.682   8.680 -0.6680 -0.8246  0.9598
21066SOL     OW66089   3.672   5.980   6.601 -0.0750  0.6851  0.1864
21066SOL    HW166090   3.673   6.003   6.508  1.9401  0.1766  0.0534
21066SOL    HW266091   3.711   5.892   6.605 -2.2806 -0.3445  1.3008
21067SOL     OW66092   3.166   0.895   2.925 -0.2364  0.2438  0.3449
21067SOL    HW166093   3.095   0.904   2.988 -0.3120  3.1670 -0.0131
21067SOL    HW266094   3.123   0.870   2.843 -0.2252 -2.7246  1.1332
21068SOL     OW66095   7.147   1.199   6.435 -0.0130  0.0017 -0.7287
21068SOL    HW166096   7.138   1.155   6.519  1.3975  1.1208  0.0575
21068SOL    HW266097   7.128   1.291   6.454  0.7976  0.3498 -1.5183
21069SOL     OW66098   1.463   0.547   5.774  0.2076  0.2989 -0.4833
21069SOL    HW166099   1.445   0.505   5.690 -0.0101  0.2834 -0.4299
21069SOL    HW266100   1.443   0.640   5.759  1.2423  0.4878 -0.7669
21070SOL     OW66101   2.266   0.018   1.613  0.3249 -0.8803 -0.8131
21070SOL    HW166102   2.259   0.108   1.645 -0.2781 -0.6868 -1.4599
21070SOL    HW266103   2.354   0.013   1.574 -0.7079  0.4210 -3.6009
21071SOL     OW66104   1.877   1.237   2.869  0.0276  0.1806 -0.1505
21071SOL    HW166105   1.960   1.193   2.890  0.6262  1.5139  0.4564
21071SOL    HW266106   1.844   1.266   2.954  1.5741  4.1284 -0.6315
21072SOL     OW66107   2.014   1.944   8.364  0.0461 -0.5650  0.3204
21072SOL    HW166108   1.937   1.888   8.369 -1.5822  1.4112 -1.0414
21072SOL    HW266109   1.997   2.015   8.425  0.9215 -0.2322  0.1955
21073SOL     OW66110   0.624   1.772   1.218  0.3431 -0.2674 -0.2554
21073SOL    HW166111   0.598   1.862   1.198  3.2800  0.5779 -0.8474
21073SOL    HW266112   0.684   1.748   1.148  0.8829 -2.0970  0.7636
21074SOL     OW66113   6.828   5.756   0.162  0.3784 -0.1390  0.2679
21074SOL    HW166114   6.866   5.671   0.184 -0.3947 -0.7637 -0.6680
21074SOL    HW266115   6.757   5.735   0.101 -0.0662  1.1559  0.3008
21075SOL     OW66116   8.540   2.245   6.894 -0.1841 -0.2788  0.5596
21075SOL    HW166117   8.552   2.323   6.949 -2.0880  0.3983  0.1198
21075SOL    HW266118   8.519   2.281   6.807 -2.2747 -1.2085  0.6218
21076SOL     OW66119   6.846   6.428   1.758  0.0648  0.0159  0.1341
21076SOL    HW166120   6.831   6.516   1.725 -0.3700 -0.1130 -0.0159
21076SOL    HW266121   6.794   6.372   1.701  0.6223 -0.3782 -0.0031
21077SOL     OW66122   6.779   8.743   7.441  0.3435  0.1744  0.3889
21077SOL    HW166123   6.764   8.721   7.533  0.9297  0.8188  0.6520
21077SOL    HW266124   6.701   8.791   7.414  0.3674  0.3906  0.6943
21078SOL     OW66125   5.847   3.179   4.446  0.1003  0.5624 -0.1749
21078SOL    HW166126   5.848   3.158   4.539 -0.3805  0.4494 -0.1925
21078SOL    HW266127   5.781   3.248   4.437 -0.9249 -0.4432 -0.6369
21079SOL     OW66128   9.000   0.439   4.051 -0.1241 -0.4108 -0.1597
21079SOL    HW166129   9.087   0.457   4.086  0.3477  0.3304 -1.6376
21079SOL    HW266130   8.943   0.441   4.128  0.8044  1.4913  0.5643
21080SOL     OW66131   3.324   2.573   5.467  0.0463 -0.4506  0.6846
21080SOL    HW166132   3.337   2.564   5.562 -1.6108  3.2037  1.4483
21080SOL    HW266133   3.406   2.610   5.435  0.5054 -1.4145  0.7350
21081SOL     OW66134   8.452   7.894   2.112 -0.0004  0.3496 -0.0144
21081SOL    HW166135   8.357   7.894   2.128  0.1759  1.1490  1.1770
21081SOL    HW266136   8.483   7.813   2.154 -0.0025  0.7085  0.6922
21082SOL     OW66137   8.234   6.659   7.854  0.3175  0.1547  0.0735
21082SOL    HW166138   8.195   6.727   7.910 -0.7690 -0.3797 -0.0020
21082SOL    HW266139   8.262   6.706   7.776 -0.1493  0.5765  0.1481
21083SOL     OW66140   2.346   5.834   4.901  0.4284 -0.5401 -0.1949
21083SOL    HW166141   2.287   5.907   4.915 -0.1563 -1.0472  0.0637
21083SOL    HW266142   2.340   5.783   4.982  1.5073 -0.4062 -0.0096
21084SOL     OW66143   2.173   7.355   4.692  0.1109 -0.7244  0.1168
21084SOL    HW166144   2.091   7.314   4.718 -1.5649  1.3189 -1.5337
21084SOL    HW266145   2.187   7.326   4.602  0.5364 -0.1233 -0.0158
21085SOL     OW66146   8.456   9.216   2.052  0.0838  0.0713  0.4317
21085SOL    HW166147   8.388   9.257   2.107  0.3128 -1.0016  1.5427
21085SOL    HW266148   8.460   9.126   2.082  3.3227  0.5181  1.7357
21086SOL     OW66149   7.754   6.175   4.275  0.1049 -0.3868 -0.0590
21086SOL    HW166150   7.710   6.195   4.193  2.0604  0.9075 -0.8824
21086SOL    HW266151   7.684   6.151   4.335 -1.7169  1.6147 -1.2252
21087SOL     OW66152   2.462   1.994   6.770  0.2336 -0.0324  0.3043
21087SOL    HW166153   2.367   2.002   6.782  0.0683  1.0121 -1.3845
21087SOL    HW266154   2.473   1.914   6.719  0.4541 -1.1611  2.0291
21088SOL     OW66155   3.643   3.295   3.153  0.0653 -0.7191 -0.0243
21088SOL    HW166156   3.645   3.390   3.168 -1.4851 -1.0249  2.8149
21088SOL    HW266157   3.587   3.284   3.076 -1.6134  0.6311  0.9268
21089SOL     OW66158   2.979   6.207   8.953  0.1671  0.5616  0.4003
21089SOL    HW166159   2.947   6.291   8.921 -1.9702 -0.2995  0.1377
21089SOL    HW266160   3.075   6.216   8.952  0.0037  3.1702  0.9246
21090SOL     OW66161   7.775   6.128   0.720 -0.5359 -0.7056  0.2413
21090SOL    HW166162   7.781   6.047   0.669 -0.8510 -0.9543  0.5956
21090SOL    HW266163   7.865   6.150   0.742 -0.3421 -0.3030 -0.8753
21091SOL     OW66164   5.379   8.878   6.820  0.1012  0.0328  0.1819
21091SOL    HW166165   5.474   8.890   6.815  0.3631 -1.2763  1.4103
21091SOL    HW266166   5.359   8.816   6.750  0.0493  0.8116 -0.4980
21092SOL     OW66167   0.424   1.630   7.449  0.1636 -0.5185  0.1151
21092SOL    HW166168   0.353   1.581   7.492 -0.5349 -0.4865 -0.9544
21092SOL    HW266169   0.492   1.564   7.433  0.8439 -0.3365  2.0908
21093SOL     OW66170   8.407   8.343   6.564 -0.0040  0.1634  0.1943
21093SOL    HW166171   8.487   8.335   6.615 -0.0126 -0.7723  0.0919
21093SOL    HW266172   8.346   8.281   6.605 -0.8820  1.3063  0.6425
21094SOL     OW66173   6.617   8.445   0.455  0.2094  0.0511 -0.0412
21094SOL    HW166174   6.661   8.530   0.449 -1.0156  0.8235  1.2684
21094SOL    HW266175   6.681   8.388   0.498  0.5686  0.6931  0.3001
21095SOL     OW66176   2.173   6.578   6.319 -0.3725  0.2286 -0.2498
21095SOL    HW166177   2.101   6.595   6.379 -1.7543  2.1629 -2.2780
21095SOL    HW266178   2.179   6.483   6.314 -1.3105  0.0402  1.6192
21096SOL     OW66179   5.274   4.237   4.428 -0.5117  0.3612 -0.1480
21096SOL    HW166180   5.368   4.221   4.433 -0.3287  1.4304  0.0897
21096SOL    HW266181   5.237   4.154   4.396  0.4279 -0.2946  0.4036
21097SOL     OW66182   1.043   7.282   0.623  0.5800  0.2329 -0.3012
21097SOL    HW166183   0.969   7.224   0.608 -0.2008  1.1309 -0.0365
21097SOL    HW266184   1.086   7.290   0.538 -0.2513  0.5396 -0.7007
21098SOL     OW66185   1.009   7.593   4.065  0.6686  0.7695 -0.1392
21098SOL    HW166186   0.931   7.628   4.021 -0.9366 -2.7193 -0.4578
21098SOL    HW266187   1.082   7.639   4.025 -1.0275  1.3669 -2.8024
21099SOL     OW66188   1.446   4.186   5.817  0.1054  0.1395  0.8096
21099SOL    HW166189   1.382   4.213   5.752  0.3268 -0.4370  0.3441
21099SOL    HW266190   1.394   4.142   5.885 -0.1492  0.9291  1.1328
21100SOL     OW66191   7.309   6.961   0.288 -0.2998 -0.0240 -0.5880
21100SOL    HW166192   7.364   6.891   0.253 -0.7079 -0.2173 -0.8603
21100SOL    HW266193   7.219   6.931   0.272 -0.5208 -0.2707  0.9114
21101SOL     OW66194   6.325   3.073   6.310  0.2106 -0.0993 -0.2248
21101SOL    HW166195   6.404   3.127   6.316  0.8312 -1.2031  2.5305
21101SOL    HW266196   6.357   2.986   6.286 -0.3315 -0.2637 -0.3577
21102SOL     OW66197   9.192   2.980   2.493  0.5983  0.2261 -0.1695
21102SOL    HW166198   9.267   2.990   2.434  0.5532 -1.4512 -0.5518
21102SOL    HW266199   9.139   2.911   2.453 -1.8186  2.1620 -0.5659
21103SOL     OW66200   7.367   5.103   9.039  0.2602  0.2454 -0.3598
21103SOL    HW166201   7.311   5.027   9.056 -1.3868  1.5729  0.4994
21103SOL    HW266202   7.455   5.067   9.035 -0.4032 -1.6439  0.4835
21104SOL     OW66203   8.276   6.773   7.531  0.3557  0.4326  0.5800
21104SOL    HW166204   8.280   6.807   7.442  0.7909  0.3114  0.5482
21104SOL    HW266205   8.354   6.808   7.574  1.9665 -2.1013 -0.0510
21105SOL     OW66206   7.100   8.784   6.444  0.3997 -0.3632 -0.1618
21105SOL    HW166207   7.178   8.729   6.449  1.1451  0.7230  0.6913
21105SOL    HW266208   7.096   8.828   6.529 -2.2724 -1.8354  0.5800
21106SOL     OW66209   1.297   1.407   2.927 -0.0480 -0.2222  0.0780
21106SOL    HW166210   1.341   1.489   2.902 -1.4302  0.8568  0.9778
21106SOL    HW266211   1.219   1.404   2.872  0.4633 -1.4403 -0.6029
21107SOL     OW66212   6.649   5.692   8.916  0.9083  0.4015 -0.3599
21107SOL    HW166213   6.743   5.683   8.901  0.7678  0.6120 -1.4220
21107SOL    HW266214   6.638   5.782   8.946  1.0198  0.4420 -0.4373
21108SOL     OW66215   2.496   1.051   6.988 -0.5773 -0.4743 -0.5949
21108SOL    HW166216   2.434   0.979   6.978 -2.4962  0.9419  0.3981
21108SOL    HW266217   2.468   1.116   6.923 -0.3645  0.3250  0.0951
21109SOL     OW66218   3.635   1.216   0.133  0.0929 -0.0612 -0.3377
21109SOL    HW166219   3.657   1.293   0.186 -1.1876  1.1901 -1.5283
21109SOL    HW266220   3.539   1.210   0.138  0.0527 -0.6612 -1.4754
21110SOL     OW66221   0.786   1.034   0.664  0.2907 -0.0672 -0.0181
21110SOL    HW166222   0.761   1.000   0.750 -0.4206 -0.5429 -0.4004
21110SOL    HW266223   0.808   1.126   0.680 -0.2693 -0.0280  0.5980
21111SOL     OW66224   6.872   7.158   4.640 -0.9105  0.1360 -0.0457
21111SOL    HW166225   6.813   7.139   4.567 -1.1181 -0.0826  0.1752
21111SOL    HW266226   6.858   7.251   4.658  0.4735  0.6604 -1.4537
21112SOL     OW66227   7.541   6.409   5.618  0.2414  0.0950 -0.0240
21112SOL    HW166228   7.464   6.462   5.597  1.6201  1.8305 -1.0600
21112SOL    HW266229   7.508   6.339   5.674 -1.8834  1.4611  0.5681
21113SOL     OW66230   6.360   8.813   3.934  0.2800  0.5282  0.0780
21113SOL    HW166231   6.320   8.881   3.988  1.5281  0.5533  1.0036
21113SOL    HW266232   6.308   8.734   3.952  0.3061  0.6809  0.8572
21114SOL     OW66233   7.248   7.041   0.929 -0.0539  0.1686 -0.3712
21114SOL    HW166234   7.162   7.081   0.916  0.4607  2.5326  2.4107
21114SOL    HW266235   7.303   7.081   0.862 -0.8094 -0.4085 -1.3681
21115SOL     OW66236   5.876   0.661   3.304 -0.0188 -0.6915 -0.1959
21115SOL    HW166237   5.904   0.657   3.212  0.2219 -0.3708 -0.1409
21115SOL    HW266238   5.843   0.574   3.323  1.1270 -1.1522 -0.2157
21116SOL     OW66239   5.737   6.263   1.220  0.0652  0.1242 -0.0276
21116SOL    HW166240   5.747   6.283   1.313  3.7186  0.3893 -0.3162
21116SOL    HW266241   5.726   6.168   1.216 -1.8225  0.2790  0.6837
21117SOL     OW66242   3.855   3.515   4.301  0.1974 -0.6254  0.2112
21117SOL    HW166243   3.875   3.529   4.208  1.6099  1.6495  0.7791
21117SOL    HW266244   3.938   3.492   4.341 -0.3850 -1.5037  0.9637
21118SOL     OW66245   7.708   5.160   3.038  0.5716 -0.0372 -0.0289
21118SOL    HW166246   7.648   5.167   2.964  0.4413  1.3846  0.1792
21118SOL    HW266247   7.778   5.222   3.019  0.3349  0.6449  1.2026
21119SOL     OW66248   0.379   6.385   1.090  0.0195 -0.0206  0.2762
21119SOL    HW166249   0.371   6.420   1.001  0.2734 -0.0900  0.2236
21119SOL    HW266250   0.471   6.359   1.096 -0.0295 -0.1327  0.5164
21120SOL     OW66251   1.822   0.860   7.631  0.3747  0.5471 -0.6331
21120SOL    HW166252   1.790   0.864   7.541 -1.3606  1.3183 -0.0256
21120SOL    HW266253   1.745   0.878   7.685  0.1741 -4.4169  1.2823
21121SOL     OW66254   0.472   8.366   5.343 -0.0632  1.0115  0.1570
21121SOL    HW166255   0.481   8.359   5.248  1.1724  1.0451  0.2579
21121SOL    HW266256   0.538   8.430   5.368  1.1328 -0.6003  1.2834
21122SOL     OW66257   7.616   1.810   7.809  0.1652  0.1759 -0.2981
21122SOL    HW166258   7.541   1.782   7.862 -0.1467  0.8306 -0.3954
21122SOL    HW266259   7.665   1.870   7.866 -0.0243  0.6707 -0.6517
21123SOL     OW66260   4.829   3.819   6.937  0.4579 -0.3150 -0.3485
21123SOL    HW166261   4.741   3.857   6.938  0.8581  0.6357  0.7638
21123SOL    HW266262   4.823   3.744   6.996  0.1789 -0.8058 -0.9836
21124SOL     OW66263   4.993   3.307   5.419  0.0944 -0.2412 -0.2042
21124SOL    HW166264   5.045   3.237   5.458 -0.7331 -0.9325 -0.2891
21124SOL    HW266265   4.905   3.293   5.455 -0.4271 -0.1979 -1.4258
21125SOL     OW66266   7.558   0.411   1.344  0.2688  0.5539  0.4982
21125SOL    HW166267   7.526   0.327   1.379 -0.6117  0.1949 -1.0900
21125SOL    HW266268   7.645   0.392   1.311 -0.0453  0.1651 -0.1329
21126SOL     OW66269   6.045   2.990   8.927  0.1715  0.5234  0.2951
21126SOL    HW166270   6.109   2.929   8.891  0.2334  0.9944 -0.4304
21126SOL    HW266271   6.098   3.064   8.957 -0.1255  2.1506 -2.7633
21127SOL     OW66272   4.045   8.567   5.228  0.5895  0.1608  1.2013
21127SOL    HW166273   4.112   8.634   5.238 -0.1447  0.7273  2.5996
21127SOL    HW266274   3.972   8.611   5.185  0.9283 -0.3410  0.0828
21128SOL     OW66275   6.923   3.171   4.032  0.2282 -0.4618  0.1578
21128SOL    HW166276   6.849   3.112   4.017 -0.2448 -0.3350  1.8006
21128SOL    HW266277   6.907   3.207   4.119  0.4239  2.2047 -0.8218
21129SOL     OW66278   5.256   6.220   3.028  0.0781 -0.3163 -0.2622
21129SOL    HW166279   5.197   6.225   3.103 -0.5878 -0.6342 -0.7477
21129SOL    HW266280   5.310   6.143   3.045 -0.7764 -1.0113 -0.5866
21130SOL     OW66281   0.802   7.676   1.677 -0.3438 -0.1640 -0.2130
21130SOL    HW166282   0.804   7.636   1.764 -0.2638  0.1651 -0.0618
21130SOL    HW266283   0.816   7.769   1.693 -1.9830  0.1520 -0.4170
21131SOL     OW66284   3.039   6.918   5.802 -0.0509  0.2032  0.1081
21131SOL    HW166285   3.099   6.992   5.791  1.9079 -1.0407  1.7713
21131SOL    HW266286   3.035   6.879   5.715  0.4961  1.0839 -0.3392
21132SOL     OW66287   8.051   2.382   1.827 -0.2517  0.0846  0.2941
21132SOL    HW166288   7.975   2.380   1.885  1.0676  2.4745  2.2824
21132SOL    HW266289   8.031   2.451   1.764  0.6788  1.6096  1.5879
21133SOL     OW66290   0.745   5.985   2.733 -0.5547 -0.2415 -0.2067
21133SOL    HW166291   0.679   5.926   2.770 -1.8174  1.8158  0.9652
21133SOL    HW266292   0.725   6.071   2.770  1.7696  0.7960 -1.1578
21134SOL     OW66293   2.527   0.652   4.941 -0.1433 -0.0798  0.4034
21134SOL    HW166294   2.611   0.694   4.922 -0.2604 -0.0634 -0.0942
21134SOL    HW266295   2.472   0.673   4.865  0.1118 -1.9998 -0.3588
21135SOL     OW66296   3.346   3.075   1.868  0.4362 -0.3609 -0.0348
21135SOL    HW166297   3.426   3.121   1.893  0.2350 -0.1795  0.2790
21135SOL    HW266298   3.276   3.129   1.903  0.0405  0.9908 -2.6811
21136SOL     OW66299   9.238   3.408   7.566 -0.0460 -0.1179 -0.0688
21136SOL    HW166300   9.148   3.382   7.547  0.2038 -0.2039 -1.2314
21136SOL    HW266301   9.289   3.328   7.556  0.2975  0.1474 -0.5216
21137SOL     OW66302   5.875   6.692   0.711 -0.5292  0.7799  0.6841
21137SOL    HW166303   5.956   6.642   0.718 -1.8413 -2.0699 -2.1963
21137SOL    HW266304   5.885   6.743   0.630 -0.2090  3.5355  2.3086
21138SOL     OW66305   0.360   8.683   1.731  0.1798  0.4159  0.2363
21138SOL    HW166306   0.326   8.600   1.764  0.0563 -0.0771 -1.0637
21138SOL    HW266307   0.450   8.663   1.703 -0.3216  0.3071 -1.4375
21139SOL     OW66308   2.594   3.820   5.990 -0.1841 -0.2319 -0.0689
21139SOL    HW166309   2.529   3.751   6.004  0.1922 -0.9838 -1.8103
21139SOL    HW266310   2.617   3.814   5.897  1.4467  0.8407  0.2117
21140SOL     OW66311   4.525   1.062   0.426  0.2502  0.1329  0.0032
21140SOL    HW166312   4.561   0.999   0.364  2.4932  0.4636  0.8617
21140SOL    HW266313   4.486   1.130   0.371  2.7456  0.7466 -1.1438
21141SOL     OW66314   9.067   2.744   3.990  0.2085 -0.1009  0.3516
21141SOL    HW166315   9.152   2.710   3.962  1.3549  2.7105  0.1512
21141SOL    HW266316   9.004   2.698   3.935  1.4631 -2.7491  0.9555
21142SOL     OW66317   6.584   2.840   7.006 -0.1949 -0.2543 -0.5095
21142SOL    HW166318   6.634   2.836   7.088 -0.9276 -2.8133 -0.1025
21142SOL    HW266319   6.615   2.920   6.963  2.9518 -0.7790  0.5305
21143SOL     OW66320   4.089   7.435   6.717 -0.0395  0.1113  0.3113
21143SOL    HW166321   4.053   7.509   6.669  0.2411  0.9643  1.3865
21143SOL    HW266322   4.184   7.444   6.707 -0.0104 -0.2982  0.1801
21144SOL     OW66323   3.644   0.273   1.701 -0.4760  0.8298 -0.0929
21144SOL    HW166324   3.673   0.182   1.710  1.8087  1.5140  0.2314
21144SOL    HW266325   3.642   0.289   1.607 -0.9744  0.4217 -0.1518
21145SOL     OW66326   0.783   6.563   0.046  0.5650  0.0446  0.0197
21145SOL    HW166327   0.877   6.546   0.057  0.3731 -0.0841  1.6535
21145SOL    HW266328   0.768   6.550  -0.048  1.8688 -1.4894 -0.0321
21146SOL     OW66329   1.641   7.505   7.519 -0.6525 -0.1741  0.4941
21146SOL    HW166330   1.568   7.489   7.580 -0.8082  1.9183  0.9324
21146SOL    HW266331   1.711   7.540   7.574 -0.2409  0.2765 -0.3032
21147SOL     OW66332   3.487   8.258   5.990  0.6422  0.1198  0.0331
21147SOL    HW166333   3.392   8.257   6.002  0.7838 -1.6864  1.4837
21147SOL    HW266334   3.516   8.337   6.036 -0.1141  0.5112 -0.1463
21148SOL     OW66335   6.825   4.146   1.283  0.1752 -0.8807  0.6299
21148SOL    HW166336   6.872   4.229   1.293  0.4866 -1.0391  0.4756
21148SOL    HW266337   6.837   4.101   1.367  1.2899 -1.4325  0.1867
21149SOL     OW66338   4.978   8.110   8.110  0.0629  0.2461  0.1737
21149SOL    HW166339   5.039   8.183   8.101  1.9040 -1.0682  1.3325
21149SOL    HW266340   5.013   8.057   8.182 -2.5421 -0.5124  1.0047
21150SOL     OW66341   8.383   8.637   1.624 -0.2118  0.6967 -0.0236
21150SOL    HW166342   8.370   8.658   1.532  0.4468  1.0042 -0.0502
21150SOL    HW266343   8.337   8.554   1.636 -0.3379  0.6760 -0.6222
21151SOL     OW66344   5.895   7.946   7.640 -0.1744 -0.1320  0.3340
21151SOL    HW166345   5.801   7.964   7.644 -0.0845  0.0735  2.1024
21151SOL    HW266346   5.932   8.025   7.600 -0.7739 -0.4142 -0.8425
21152SOL     OW66347   2.519   5.696   4.745 -0.7917  0.0958  0.3465
21152SOL    HW166348   2.457   5.647   4.690 -0.0600 -1.1815  0.6174
21152SOL    HW266349   2.463   5.744   4.806 -1.5603  0.2175 -0.4231
21153SOL     OW66350   0.176   5.346   4.068  0.2276 -0.2339  0.1419
21153SOL    HW166351   0.225   5.269   4.038 -1.5126 -1.6087  0.6627
21153SOL    HW266352   0.210   5.418   4.014  2.4143 -1.1859  0.1319
21154SOL     OW66353   3.158   3.381   0.474  0.2415  0.1489  0.2661
21154SOL    HW166354   3.216   3.416   0.541 -0.9655  0.0424  1.3975
21154SOL    HW266355   3.086   3.340   0.522  0.5033 -2.0311 -1.0371
21155SOL     OW66356   3.082   5.793   4.895  0.0502 -0.8190 -0.0053
21155SOL    HW166357   3.168   5.758   4.874  0.6709  0.1960  0.7650
21155SOL    HW266358   3.099   5.877   4.937 -1.3605  1.0745 -2.8662
21156SOL     OW66359   0.731   4.103   5.718  0.6915 -0.4666  0.0320
21156SOL    HW166360   0.776   4.171   5.769  1.3841  0.7312 -2.0394
21156SOL    HW266361   0.797   4.036   5.703  0.8293 -0.2714 -0.2419
21157SOL     OW66362   8.603   8.039   1.884  0.3941  0.6877  0.4787
21157SOL    HW166363   8.584   7.996   1.967 -0.1222 -0.1060 -0.0338
21157SOL    HW266364   8.677   8.096   1.903  0.7239  0.0035  1.3157
21158SOL     OW66365   7.989   1.754   0.953 -0.2096  0.4089 -0.2056
21158SOL    HW166366   8.069   1.741   1.004 -0.5872  0.0324  0.3043
21158SOL    HW266367   7.929   1.795   1.014  0.3969  3.1206 -1.3051
21159SOL     OW66368   3.340   8.252   0.981  0.2191 -0.6268  0.7103
21159SOL    HW166369   3.256   8.216   1.008  0.4781  0.6013  3.4439
21159SOL    HW266370   3.318   8.320   0.916 -1.1322  0.9012  2.6675
21160SOL     OW66371   6.677   7.682   2.860 -0.1177  0.1903 -0.6589
21160SOL    HW166372   6.630   7.659   2.941  0.0119  1.4973 -0.1815
21160SOL    HW266373   6.615   7.666   2.790 -2.0029  3.3757  0.0588
21161SOL     OW66374   6.506   4.034   8.633  0.0048  0.4937 -0.0837
21161SOL    HW166375   6.472   3.946   8.647  0.4430  0.6539  2.4938
21161SOL    HW266376   6.428   4.087   8.616 -0.3690 -0.1915 -0.5595
21162SOL     OW66377   5.889   6.004   5.118  0.0049  0.0091  0.4027
21162SOL    HW166378   5.859   6.078   5.066  1.1369  0.8590  0.9297
21162SOL    HW266379   5.877   6.031   5.208 -0.4672 -0.8428  0.6125
21163SOL     OW66380   8.310   8.227   1.303 -0.0098 -0.1957  0.0234
21163SOL    HW166381   8.378   8.273   1.352  0.2208  0.5375 -0.9663
21163SOL    HW266382   8.334   8.239   1.211 -0.9724 -0.7174 -0.3090
21164SOL     OW66383   1.970   2.727   7.135  0.4227  0.5338 -0.1024
21164SOL    HW166384   1.897   2.666   7.146  1.3011 -0.5110  0.0535
21164SOL    HW266385   1.975   2.741   7.040  0.3742  0.1640 -0.1614
21165SOL     OW66386   7.470   0.878   0.510 -0.7367 -0.0898 -0.3236
21165SOL    HW166387   7.525   0.892   0.432  0.1275 -1.2310  0.0579
21165SOL    HW266388   7.523   0.911   0.583 -0.8612 -0.5377 -0.0302
21166SOL     OW66389   1.297   3.005   4.349  0.1717 -0.0108 -0.0620
21166SOL    HW166390   1.358   3.058   4.298 -1.5111  1.9717 -0.1664
21166SOL    HW266391   1.227   3.066   4.372 -2.1365 -2.3460 -0.5495
21167SOL     OW66392   4.488   7.674   5.050  0.3652  0.1550 -1.0567
21167SOL    HW166393   4.399   7.690   5.017 -0.4789  0.8620  1.3186
21167SOL    HW266394   4.529   7.761   5.051  0.6993 -0.0004 -1.0802
21168SOL     OW66395   0.555   0.789   7.092  0.3371 -0.4643  0.7716
21168SOL    HW166396   0.617   0.816   7.024  0.6816 -3.1781 -0.0990
21168SOL    HW266397   0.609   0.740   7.155 -0.6188 -1.2754  0.9714
21169SOL     OW66398   2.701   8.620   5.825  0.2057  0.0053  0.2922
21169SOL    HW166399   2.727   8.632   5.733 -3.1915  0.3004 -0.7849
21169SOL    HW266400   2.695   8.709   5.860  0.5976 -0.0564  0.5205
21170SOL     OW66401   1.923   0.060   5.913 -0.2876 -0.1114 -0.0440
21170SOL    HW166402   1.967   0.076   5.829  1.0112  2.1131  0.9618
21170SOL    HW266403   1.993   0.070   5.979 -1.6239  0.0607  1.3990
21171SOL     OW66404   7.610   4.720   1.097  0.3557  0.3310  0.7570
21171SOL    HW166405   7.558   4.655   1.049  0.3872  0.1402  0.9805
21171SOL    HW266406   7.675   4.750   1.033  0.2209  0.2825  0.5956
21172SOL     OW66407   0.867   0.352   5.274 -0.3497 -0.4574 -0.3739
21172SOL    HW166408   0.897   0.387   5.358 -2.3774  1.3559 -0.3130
21172SOL    HW266409   0.867   0.257   5.286  1.4705 -0.3462  0.8945
21173SOL     OW66410   4.374   7.841   6.799 -0.4423 -0.2945  0.2166
21173SOL    HW166411   4.393   7.854   6.892  0.6417 -1.9589  0.2515
21173SOL    HW266412   4.442   7.890   6.753  1.0999 -2.2151  0.3438
21174SOL     OW66413   2.952   5.563   2.024 -0.0038  0.2449 -0.0572
21174SOL    HW166414   2.907   5.635   1.980  1.1845  0.0291 -1.7390
21174SOL    HW266415   3.045   5.586   2.018  0.2391  0.1746  2.3863
21175SOL     OW66416   5.507   8.907   3.415  0.2175  0.0568 -0.2285
21175SOL    HW166417   5.432   8.872   3.464  1.1634  0.2434  1.4135
21175SOL    HW266418   5.552   8.830   3.382 -0.0787 -0.1002 -0.2740
21176SOL     OW66419   2.600   8.661   2.940  0.0907 -0.2639  0.3113
21176SOL    HW166420   2.686   8.621   2.927 -0.1638 -0.7417  0.0809
21176SOL    HW266421   2.549   8.633   2.864 -0.3335 -0.1578  0.5562
21177SOL     OW66422   0.469   7.721   4.120 -0.5700  0.1439 -0.3224
21177SOL    HW166423   0.442   7.724   4.028 -1.4718 -1.3782 -0.1434
21177SOL    HW266424   0.536   7.653   4.123 -1.1899 -0.4523  0.2837
21178SOL     OW66425   4.171   3.011   5.592 -0.5466  0.4307  0.4544
21178SOL    HW166426   4.124   3.058   5.661 -1.9718 -0.1554 -0.0648
21178SOL    HW266427   4.103   2.961   5.547  0.7848 -1.5122  0.4843
21179SOL     OW66428   6.754   8.629   2.906 -0.0239 -0.3868 -0.5170
21179SOL    HW166429   6.782   8.571   2.836 -0.2521 -2.4990  1.0391
21179SOL    HW266430   6.832   8.681   2.927  1.4937 -2.8906  0.5914
21180SOL     OW66431   6.650   7.227   1.784  0.8288  0.1481  0.8962
21180SOL    HW166432   6.653   7.200   1.693 -0.6446 -0.5752  1.0351
21180SOL    HW266433   6.639   7.146   1.834  0.4431  0.6345  1.6251
21181SOL     OW66434   4.922   5.961   8.260 -0.5603 -0.6810 -0.3346
21181SOL    HW166435   4.947   6.047   8.295 -0.5889 -1.3566  1.4288
21181SOL    HW266436   4.998   5.934   8.208 -0.4367  0.2819 -0.6810
21182SOL     OW66437   5.004   1.708   4.056  0.2142  0.3528 -0.0014
21182SOL    HW166438   5.048   1.658   3.986  1.5480  0.9114  0.4033
21182SOL    HW266439   4.944   1.646   4.096  1.0290 -0.6041 -0.2331
21183SOL     OW66440   3.199   1.932   2.741 -0.1540  1.1028 -0.3010
21183SOL    HW166441   3.189   2.026   2.731 -1.2243  0.8756 -1.5467
21183SOL    HW266442   3.195   1.897   2.652  2.7338  0.0696 -0.1216
21184SOL     OW66443   6.261   7.147   1.263  0.0666  0.2882  0.2779
21184SOL    HW166444   6.221   7.061   1.249  1.0261 -0.0565 -0.4192
21184SOL    HW266445   6.206   7.207   1.212 -0.8626  0.1709  1.1161
21185SOL     OW66446   0.887   7.858   3.588  0.0555 -0.0873 -0.0412
21185SOL    HW166447   0.922   7.909   3.661  0.6585  0.5416 -0.7456
21185SOL    HW266448   0.942   7.780   3.583 -1.4081 -1.3087  1.5907
21186SOL     OW66449   2.376   8.912   8.391 -0.2311 -0.1896 -0.8033
21186SOL    HW166450   2.468   8.887   8.388  0.5537  2.0018  1.4285
21186SOL    HW266451   2.363   8.966   8.314  1.2505  1.8976  0.3115
21187SOL     OW66452   6.226   4.423   5.383  0.0410 -0.2081 -0.1540
21187SOL    HW166453   6.150   4.395   5.434 -1.2289  1.5101 -1.0221
21187SOL    HW266454   6.193   4.430   5.294  1.1147  0.9236 -0.4838
21188SOL     OW66455   0.031   5.090   8.495  0.1938 -0.1254  0.5488
21188SOL    HW166456  -0.010   5.005   8.475 -1.6313  0.5921  1.0559
21188SOL    HW266457   0.071   5.117   8.412 -2.3816  0.1880 -0.6931
21189SOL     OW66458   7.901   2.264   8.557  0.2366  0.3005  0.1119
21189SOL    HW166459   7.824   2.217   8.526 -0.3296  1.1021  0.2636
21189SOL    HW266460   7.898   2.348   8.511 -0.9866  1.8092  2.6778
21190SOL     OW66461   5.519   8.817   3.049  0.4234  0.3407 -0.6077
21190SOL    HW166462   5.489   8.906   3.065  1.5282  0.2583  2.4605
21190SOL    HW266463   5.438   8.765   3.047 -0.1549  1.2309 -1.3963
21191SOL     OW66464   4.295   0.411   3.854 -0.3908  0.0348 -0.1378
21191SOL    HW166465   4.272   0.342   3.792 -0.7037  0.0034  0.0142
21191SOL    HW266466   4.312   0.365   3.936 -2.2234  0.2646  0.4171
21192SOL     OW66467   0.276   2.509   3.862  0.2487  0.0264  0.4086
21192SOL    HW166468   0.298   2.487   3.953 -3.3819  0.1316  1.5082
21192SOL    HW266469   0.223   2.435   3.833 -0.9698  1.2402 -0.5902
21193SOL     OW66470   4.683   1.509   8.298 -0.4806 -0.2902  0.1559
21193SOL    HW166471   4.695   1.457   8.219  0.7780 -0.2822  0.3315
21193SOL    HW266472   4.680   1.446   8.369 -1.0791 -0.2578  0.1678
21194SOL     OW66473   8.209   1.984   6.515 -0.2524  0.1894 -0.0763
21194SOL    HW166474   8.155   2.023   6.584  1.2492 -0.7693  1.7299
21194SOL    HW266475   8.163   1.903   6.492 -0.5204  0.2780  0.1414
21195SOL     OW66476   2.420   1.254   7.744  0.3521 -0.3483  0.1944
21195SOL    HW166477   2.488   1.316   7.718  1.8328 -1.4253  1.3167
21195SOL    HW266478   2.402   1.275   7.836 -0.1214 -0.6966  0.1885
21196SOL     OW66479   5.082   8.284   4.493 -0.6348  0.0364  0.0499
21196SOL    HW166480   5.008   8.339   4.518 -1.3724 -0.1254 -1.6272
21196SOL    HW266481   5.134   8.340   4.434 -0.3298 -0.3986 -0.1023
21197SOL     OW66482   6.566   3.918   3.749 -0.4715  0.1979 -0.2357
21197SOL    HW166483   6.612   3.908   3.832  0.4850 -3.0466 -1.0124
21197SOL    HW266484   6.615   3.986   3.703  1.3497 -0.6239  0.3929
21198SOL     OW66485   5.111   7.608   7.687  0.1390 -0.3061  0.6162
21198SOL    HW166486   5.171   7.681   7.676  0.3615 -0.4066  1.1347
21198SOL    HW266487   5.167   7.534   7.710 -0.1922 -0.3602  1.2796
21199SOL     OW66488   6.863   8.028   4.418 -0.0575  0.1470 -0.2497
21199SOL    HW166489   6.918   8.067   4.351 -0.7301 -0.1496 -0.9887
21199SOL    HW266490   6.840   8.100   4.476 -0.1950  0.5850 -0.8443
21200SOL     OW66491   1.689   5.374   7.818 -0.1716  0.5359 -0.2674
21200SOL    HW166492   1.752   5.386   7.747  2.2756  2.1893  1.9811
21200SOL    HW266493   1.662   5.282   7.811  1.7401  0.0276 -1.9493
21201SOL     OW66494   8.031   5.299   7.352 -0.4286  0.1666 -0.1377
21201SOL    HW166495   7.997   5.227   7.299 -0.1702 -0.4492  0.5134
21201SOL    HW266496   8.041   5.372   7.291  2.0478 -1.1792 -1.4812
21202SOL     OW66497   5.295   1.171   7.699  0.2219 -0.3496  0.0935
21202SOL    HW166498   5.245   1.091   7.713 -0.1551 -0.0624  0.3967
21202SOL    HW266499   5.267   1.230   7.768 -0.5019  0.5366 -0.9268
21203SOL     OW66500   0.100   4.783   1.388  0.0532  0.0627  0.1987
21203SOL    HW166501   0.074   4.781   1.480 -1.6737  2.2628 -0.1423
21203SOL    HW266502   0.021   4.754   1.340  0.1629  1.0933 -0.6485
21204SOL     OW66503   3.770   0.910   7.505  0.1602 -0.2059 -0.0690
21204SOL    HW166504   3.768   0.859   7.424 -1.0152  0.0719 -0.2313
21204SOL    HW266505   3.854   0.887   7.546  2.6130  2.3999 -3.1232
21205SOL     OW66506   1.416   1.048   2.749 -0.3791  0.1797 -0.2418
21205SOL    HW166507   1.410   0.957   2.722 -1.2980  0.6363 -1.7679
21205SOL    HW266508   1.473   1.089   2.684 -0.0565  0.7113  0.3632
21206SOL     OW66509   8.035   3.558   7.599 -0.4113 -0.0717 -0.2344
21206SOL    HW166510   8.070   3.544   7.687  0.2259 -0.9351 -0.6033
21206SOL    HW266511   8.106   3.600   7.551 -1.1903  1.5518 -0.0221
21207SOL     OW66512   0.651   0.490   1.875 -0.2547  0.6347  0.1812
21207SOL    HW166513   0.741   0.467   1.856 -0.8793 -3.4066  1.2892
21207SOL    HW266514   0.605   0.479   1.791 -0.1726 -0.1288  0.2336
21208SOL     OW66515   6.670   6.823   5.516  0.4093  0.0565 -0.2373
21208SOL    HW166516   6.617   6.777   5.451  0.1015 -0.2685  0.2356
21208SOL    HW266517   6.647   6.916   5.505  0.7685  0.0655 -0.9545
21209SOL     OW66518   3.414   8.715   8.864 -0.3383 -0.4735  0.3233
21209SOL    HW166519   3.436   8.706   8.957  0.3036 -0.2349  0.2018
21209SOL    HW266520   3.498   8.731   8.821 -0.9064  2.5409  0.0786
21210SOL     OW66521   5.979   3.752   4.910  0.3403  0.6282  0.1419
21210SOL    HW166522   5.951   3.699   4.835 -1.1793  2.2366 -0.4813
21210SOL    HW266523   6.075   3.743   4.911  0.1689 -1.9764  0.0043
21211SOL     OW66524   6.821   8.583   4.124  0.0992  0.3179 -0.0148
21211SOL    HW166525   6.763   8.643   4.077 -0.2574  0.4877  0.6255
21211SOL    HW266526   6.774   8.500   4.123  0.5483  0.0711 -0.8176
21212SOL     OW66527   9.110   0.128   1.540 -0.4180  0.8618  0.0897
21212SOL    HW166528   9.098   0.036   1.516  0.2658  0.0268  2.6121
21212SOL    HW266529   9.040   0.174   1.495 -0.1487 -0.6924 -2.1025
21213SOL     OW66530   2.649   3.918   6.587 -0.9325 -0.0523  0.4611
21213SOL    HW166531   2.559   3.952   6.588 -0.6047  0.8436  1.6002
21213SOL    HW266532   2.688   3.951   6.668  0.8677  0.7463 -0.6755
21214SOL     OW66533   7.791   4.131   5.277 -0.9408 -0.5941  0.2495
21214SOL    HW166534   7.854   4.134   5.349  0.2077 -2.2910 -0.6209
21214SOL    HW266535   7.844   4.117   5.198 -2.1254  1.6922 -1.0386
21215SOL     OW66536   4.723   5.596   3.956  0.4686 -0.8158  0.1988
21215SOL    HW166537   4.807   5.574   3.916 -0.0504 -2.0444 -0.2935
21215SOL    HW266538   4.690   5.512   3.988 -0.2441 -0.2337  1.0214
21216SOL     OW66539   7.676   2.478   5.640  0.3215  0.3065 -0.3078
21216SOL    HW166540   7.752   2.438   5.682  0.1968  0.6134  0.2207
21216SOL    HW266541   7.652   2.551   5.698 -0.5872  0.0009 -0.2809
21217SOL     OW66542   3.574   6.448   7.051 -0.0523  0.3496 -0.1857
21217SOL    HW166543   3.661   6.488   7.050  0.8920 -1.3304  2.5599
21217SOL    HW266544   3.580   6.381   7.120 -4.2222  1.8250  1.9031
21218SOL     OW66545   0.207   5.023   2.886 -0.1382 -0.8297  0.4620
21218SOL    HW166546   0.266   5.084   2.931 -0.1613 -1.1654  0.9567
21218SOL    HW266547   0.120   5.055   2.909 -0.1513 -0.4570 -0.0992
21219SOL     OW66548   5.481   3.593   6.484  0.1259  0.4560  0.6143
21219SOL    HW166549   5.569   3.559   6.467  0.6816  2.2896 -0.4861
21219SOL    HW266550   5.427   3.557   6.414  0.3814  0.6790  0.3007
21220SOL     OW66551   4.239   0.632   0.274 -0.1880  0.4035  0.1309
21220SOL    HW166552   4.156   0.585   0.261 -0.2595  0.4129  0.5302
21220SOL    HW266553   4.213   0.714   0.315 -0.0995  0.9620 -0.8969
21221SOL     OW66554   4.783   5.352   1.855 -0.7505 -0.0940 -0.8308
21221SOL    HW166555   4.866   5.304   1.857 -0.5350  0.1562 -2.3477
21221SOL    HW266556   4.772   5.385   1.944  0.3109 -0.8944 -0.3726
21222SOL     OW66557   0.869   3.254   2.582 -0.2484 -0.8403  0.0454
21222SOL    HW166558   0.784   3.216   2.562 -0.9385  0.8750 -0.4397
21222SOL    HW266559   0.897   3.210   2.663 -2.3285 -0.2944  1.1094
21223SOL     OW66560   3.102   7.013   1.822 -0.1550  0.4054  0.3811
21223SOL    HW166561   3.076   7.101   1.795 -0.8664  0.0148 -0.2385
21223SOL    HW266562   3.088   6.959   1.744  0.2372 -0.2683  0.7664
21224SOL     OW66563   3.318   1.107   2.853 -0.1401  0.4144  1.0016
21224SOL    HW166564   3.242   1.134   2.802 -0.2236  0.7904  1.3127
21224SOL    HW266565   3.297   1.020   2.885 -0.3463  0.4267  0.8979
21225SOL     OW66566   5.863   1.015   3.884 -0.0559  0.7566  0.0991
21225SOL    HW166567   5.837   0.945   3.943  1.0565 -0.6782 -1.0430
21225SOL    HW266568   5.825   0.990   3.799  2.5846  0.0552 -0.9597
21226SOL     OW66569   7.259   7.858   7.109  0.0718  0.5944 -0.9095
21226SOL    HW166570   7.279   7.799   7.035 -0.6676 -2.1793  0.9392
21226SOL    HW266571   7.164   7.864   7.110  0.1253  1.4912 -0.7960
21227SOL     OW66572   5.385   3.088   7.956 -0.1917  0.5014  0.1678
21227SOL    HW166573   5.305   3.062   8.002  0.5733 -1.4590  0.4974
21227SOL    HW266574   5.379   3.043   7.872  0.3091  0.7775 -0.0176
21228SOL     OW66575   0.259   4.934   0.397 -0.2564 -0.5637 -0.7324
21228SOL    HW166576   0.279   4.902   0.309  0.1959 -0.8497 -0.5357
21228SOL    HW266577   0.321   5.006   0.410  1.6923 -2.3001  0.3827
21229SOL     OW66578   4.337   5.383   6.976  0.3249 -0.3189  0.2068
21229SOL    HW166579   4.388   5.405   7.054  2.4555 -0.4556 -1.0703
21229SOL    HW266580   4.338   5.287   6.973 -2.2917 -0.4803  1.5355
21230SOL     OW66581   2.966   3.693   3.969 -0.6671 -0.0507 -0.2750
21230SOL    HW166582   3.045   3.645   3.990  0.6592  2.2626  0.3868
21230SOL    HW266583   2.902   3.667   4.035 -0.1879 -1.2627 -0.2771
21231SOL     OW66584   5.595   1.854   5.807  0.0502  0.0787 -0.5471
21231SOL    HW166585   5.535   1.820   5.741  0.9881  0.7922 -1.8022
21231SOL    HW266586   5.539   1.905   5.866 -0.7541 -0.3499 -0.9160
21232SOL     OW66587   8.020   8.393   1.976  0.0287 -0.0761 -0.2126
21232SOL    HW166588   8.011   8.298   1.969  0.8697 -0.3349  1.6053
21232SOL    HW266589   8.106   8.406   2.017  0.0058  1.4814 -0.5941
21233SOL     OW66590   2.621   1.331   3.573 -0.7910  0.3195 -0.3210
21233SOL    HW166591   2.629   1.421   3.604  3.1114 -0.2875  0.8845
21233SOL    HW266592   2.615   1.279   3.653 -0.0404 -0.6768 -0.9033
21234SOL     OW66593   6.614   4.256   6.905  0.1145 -0.1007  0.3012
21234SOL    HW166594   6.690   4.293   6.949 -0.5586 -0.1623  1.5485
21234SOL    HW266595   6.650   4.206   6.832  1.0837  2.5497 -1.1600
21235SOL     OW66596   1.402   0.458   5.527  0.1798  0.1702  0.5230
21235SOL    HW166597   1.354   0.376   5.516  1.0328 -0.3756  0.7363
21235SOL    HW266598   1.491   0.437   5.498  0.6256  0.7807  1.4107
21236SOL     OW66599   3.187   3.250   8.795  1.0141  0.1235 -0.3012
21236SOL    HW166600   3.148   3.272   8.880 -0.6929  0.5459 -1.1650
21236SOL    HW266601   3.196   3.155   8.798  1.5326  0.1842  0.5780
21237SOL     OW66602   6.194   5.631   6.743 -0.2888 -0.3037  0.4733
21237SOL    HW166603   6.231   5.695   6.805 -1.4174 -0.9123  1.8292
21237SOL    HW266604   6.106   5.613   6.777 -1.0284 -0.5266 -1.4428
21238SOL     OW66605   9.075   0.937   6.202  0.8607  0.4682 -0.0483
21238SOL    HW166606   9.092   1.030   6.211  0.5131  0.6388 -0.9945
21238SOL    HW266607   9.050   0.926   6.110  0.6737 -0.5188  0.1063
21239SOL     OW66608   7.538   7.319   6.166  0.6898 -0.0511  0.9627
21239SOL    HW166609   7.513   7.402   6.206  1.5926  0.2002  1.0253
21239SOL    HW266610   7.549   7.259   6.240 -0.1017 -0.2752  0.9083
21240SOL     OW66611   5.185   3.910   3.509 -0.3203  0.4890 -0.4033
21240SOL    HW166612   5.138   3.973   3.455 -1.8444 -0.2629 -0.0213
21240SOL    HW266613   5.140   3.913   3.594 -0.2989 -0.9248 -0.3185
21241SOL     OW66614   6.486   6.116   1.306  0.0664  0.2980  0.2700
21241SOL    HW166615   6.414   6.065   1.269  0.1737 -1.1152  1.8965
21241SOL    HW266616   6.451   6.153   1.387  1.1130 -0.3421  1.0493
21242SOL     OW66617   3.806   0.026   6.093  0.1121  0.2374 -0.3044
21242SOL    HW166618   3.796  -0.066   6.118  1.2842  0.5512  1.4234
21242SOL    HW266619   3.750   0.074   6.153  0.4154  0.7539 -0.4295
21243SOL     OW66620   5.237   5.072   1.551  0.2454 -0.5199  0.3554
21243SOL    HW166621   5.272   5.093   1.637  2.9864 -0.0166 -0.7489
21243SOL    HW266622   5.247   4.977   1.543 -0.4165 -0.6233  0.7418
21244SOL     OW66623   3.493   5.435   7.855 -0.0136  0.2332 -0.6004
21244SOL    HW166624   3.586   5.449   7.839  0.2529  0.5590  1.0098
21244SOL    HW266625   3.479   5.466   7.945 -1.7029  0.3097 -0.8498
21245SOL     OW66626   4.362   3.047   5.385 -0.7301  0.3398  0.0706
21245SOL    HW166627   4.289   3.030   5.444 -2.5596  1.9303 -1.5951
21245SOL    HW266628   4.421   2.973   5.398 -1.8098 -0.1704  2.6743
21246SOL     OW66629   0.331   6.877   0.386 -0.6961  0.1353 -0.3875
21246SOL    HW166630   0.331   6.793   0.340 -0.1925  0.2383 -0.5793
21246SOL    HW266631   0.421   6.888   0.417 -1.3496 -0.6166  1.9106
21247SOL     OW66632   6.018   8.423   9.114  0.7122  0.0075  0.7002
21247SOL    HW166633   6.037   8.437   9.022  0.7747  1.5192  0.9194
21247SOL    HW266634   6.067   8.344   9.137  1.4731  0.1664 -0.3304
21248SOL     OW66635   2.942   5.880   5.426  0.4676 -0.3680 -0.4603
21248SOL    HW166636   3.016   5.939   5.431  0.6315 -0.6131  0.1343
21248SOL    HW266637   2.948   5.840   5.339  0.8604 -0.1679 -0.5241
21249SOL     OW66638   0.229   7.283   1.658  0.1065  0.1829  0.5737
21249SOL    HW166639   0.167   7.303   1.728 -0.2093  0.5332  0.2004
21249SOL    HW266640   0.181   7.302   1.577  0.5689  0.0837  0.2698
21250SOL     OW66641   4.683   5.832   6.803  0.2920  0.4631 -0.0031
21250SOL    HW166642   4.735   5.755   6.779 -0.9694 -0.6298  0.6872
21250SOL    HW266643   4.733   5.873   6.873  1.1003  0.4365 -0.5474
21251SOL     OW66644   0.177   4.055   1.084 -0.0090  0.1016 -0.2343
21251SOL    HW166645   0.158   4.131   1.139  1.7374 -0.0776  0.6887
21251SOL    HW266646   0.203   3.986   1.146  0.0236 -0.7467 -1.1620
21252SOL     OW66647   9.074   2.947   8.566 -0.2762  0.3984 -0.7857
21252SOL    HW166648   9.156   2.992   8.546 -0.1751  0.2727 -0.6520
21252SOL    HW266649   9.056   2.893   8.489  1.6579 -2.4106  0.5531
21253SOL     OW66650   6.080   0.094   0.500 -0.1402 -0.4961 -0.1659
21253SOL    HW166651   6.173   0.074   0.513  0.1824  0.8847 -0.0952
21253SOL    HW266652   6.038   0.066   0.581  0.3339 -0.5195  0.0788
21254SOL     OW66653   7.341   6.600   4.031 -0.5114  0.1911  0.0848
21254SOL    HW166654   7.406   6.637   3.971 -0.7542  0.0696 -0.2560
21254SOL    HW266655   7.257   6.624   3.993 -0.6703  0.3634  0.5361
21255SOL     OW66656   4.516   2.238   7.964 -0.4214  0.1252 -0.4580
21255SOL    HW166657   4.534   2.313   7.907  0.0848 -0.2671 -0.8282
21255SOL    HW266658   4.462   2.180   7.910  0.0628 -0.2506 -0.5442
21256SOL     OW66659   6.290   5.328   2.446  0.1131 -0.1218  0.3140
21256SOL    HW166660   6.280   5.321   2.541  1.3023 -1.8428  0.3542
21256SOL    HW266661   6.250   5.248   2.412 -1.3381  1.0212 -0.7551
21257SOL     OW66662   3.364   9.183   7.976 -0.1587  0.1012 -0.2177
21257SOL    HW166663   3.421   9.121   7.930  0.6389  0.4044  0.3245
21257SOL    HW266664   3.314   9.128   8.037 -0.8805 -0.2407 -1.0982
21258SOL     OW66665   0.947   5.644   0.841 -0.4856  0.2061 -0.1288
21258SOL    HW166666   0.938   5.730   0.801  1.9881  0.8999  0.6024
21258SOL    HW266667   1.003   5.595   0.781 -0.0136 -0.1096  0.5635
21259SOL     OW66668   2.670   5.712   5.278  0.3296 -0.1211  0.7226
21259SOL    HW166669   2.715   5.676   5.202  0.0273  0.6418  0.1714
21259SOL    HW266670   2.688   5.650   5.349  0.7792 -0.7296  0.0800
21260SOL     OW66671   2.069   1.066   2.950 -0.4615  0.0156 -0.1664
21260SOL    HW166672   2.094   0.988   2.901  0.1649  0.3208 -0.3381
21260SOL    HW266673   2.127   1.067   3.026  0.4535  1.0156 -0.8458
21261SOL     OW66674   2.528   8.540   2.410  0.2599  0.4353  0.1732
21261SOL    HW166675   2.550   8.600   2.482 -0.6994  0.6998  0.2626
21261SOL    HW266676   2.490   8.464   2.454  0.6729  0.1249  0.0026
21262SOL     OW66677   3.800   4.376   7.753  0.7047 -0.2736  0.1044
21262SOL    HW166678   3.761   4.301   7.709  0.8183 -1.4497  1.8857
21262SOL    HW266679   3.749   4.451   7.723  0.5584 -1.0335 -1.6819
21263SOL     OW66680   6.935   4.224   1.545 -0.3426 -0.0909  0.2913
21263SOL    HW166681   6.985   4.226   1.626  0.7491  0.9393 -0.3569
21263SOL    HW266682   6.862   4.284   1.560 -2.5752 -3.0063  1.8956
21264SOL     OW66683   3.139   5.553   2.637 -0.6523 -0.5234 -0.0740
21264SOL    HW166684   3.157   5.474   2.687 -0.6279 -0.2900  0.2869
21264SOL    HW266685   3.121   5.620   2.703  0.3295  0.0183 -0.3444
21265SOL     OW66686   4.632   0.927   4.188 -0.4304  0.1938  0.3362
21265SOL    HW166687   4.695   0.904   4.120 -2.0484 -0.2973 -1.0452
21265SOL    HW266688   4.594   0.843   4.215 -1.8763  0.6370 -0.2545
21266SOL     OW66689   1.330   6.251   1.818  0.3229  0.0893  0.2248
21266SOL    HW166690   1.312   6.161   1.844  1.3751 -1.0191 -2.5376
21266SOL    HW266691   1.350   6.246   1.725 -0.2252  3.3068 -0.1828
21267SOL     OW66692   2.749   3.006   5.393  0.3918 -0.2462  0.1057
21267SOL    HW166693   2.660   2.979   5.417  0.4957  0.4227  1.3482
21267SOL    HW266694   2.798   3.002   5.475  1.3679 -0.0525 -0.4524
21268SOL     OW66695   1.324   1.831   8.230 -0.6406 -0.1932 -0.0712
21268SOL    HW166696   1.386   1.877   8.173  0.3877 -0.1995  0.9858
21268SOL    HW266697   1.238   1.845   8.190 -0.0019  0.1609 -1.3589
21269SOL     OW66698   1.027   5.277   4.772 -0.9538 -0.1959  0.6386
21269SOL    HW166699   0.972   5.335   4.824 -0.1938 -0.6076  1.9547
21269SOL    HW266700   1.112   5.277   4.818  0.2711  0.6922 -1.5046
21270SOL     OW66701   1.028   8.364   5.515 -0.0788 -0.0188 -0.8077
21270SOL    HW166702   1.067   8.411   5.588  0.7540 -0.2347 -1.0981
21270SOL    HW266703   1.089   8.378   5.443  0.6051 -2.1830 -0.7026
21271SOL     OW66704   6.496   0.803   7.361  0.1187  0.5088 -0.4423
21271SOL    HW166705   6.530   0.742   7.295 -0.0569 -0.0817  0.0003
21271SOL    HW266706   6.484   0.749   7.439  0.1414  1.1607  0.0173
21272SOL     OW66707   7.881   5.204   3.500 -0.2123 -0.3658  0.0900
21272SOL    HW166708   7.830   5.211   3.420 -0.5520  0.8329  0.3875
21272SOL    HW266709   7.890   5.294   3.531 -2.0322 -0.9111  2.5800
21273SOL     OW66710   7.317   5.037   8.396  0.3450 -0.2027 -0.2948
21273SOL    HW166711   7.322   5.127   8.366  0.5363  0.1848  0.8263
21273SOL    HW266712   7.245   5.036   8.460  1.0567 -0.5699  0.5311
21274SOL     OW66713   6.960   0.629   5.878  0.2171 -0.3095  0.5591
21274SOL    HW166714   7.017   0.662   5.810 -0.7085  1.7367  0.7125
21274SOL    HW266715   6.888   0.691   5.882  0.9144  0.5350  4.3540
21275SOL     OW66716   0.244   1.620   6.830  0.0650  0.2153  0.2442
21275SOL    HW166717   0.340   1.611   6.834  0.1721 -1.0731 -2.6013
21275SOL    HW266718   0.228   1.713   6.845  1.7298  0.4149  1.0339
21276SOL     OW66719   8.880   6.114   1.879 -0.0639 -0.1239  0.2339
21276SOL    HW166720   8.888   6.057   1.803  1.7221 -0.5044  0.6517
21276SOL    HW266721   8.861   6.054   1.952  0.7422 -0.0886  0.4880
21277SOL     OW66722   3.564   7.944   2.921  0.4493 -0.3978  0.1230
21277SOL    HW166723   3.599   7.903   2.842  0.7868  0.4909 -0.2025
21277SOL    HW266724   3.469   7.938   2.911  0.4370  1.3525 -1.2733
21278SOL     OW66725   0.528   7.349   4.296  0.2132  0.4220  0.1386
21278SOL    HW166726   0.503   7.286   4.228 -1.0405  0.2985  0.6851
21278SOL    HW266727   0.447   7.393   4.319  0.5416  0.1892  1.8346
21279SOL     OW66728   1.519   2.319   7.551 -0.4766 -0.6595 -0.0733
21279SOL    HW166729   1.560   2.243   7.511  2.6386  1.0280 -0.4144
21279SOL    HW266730   1.590   2.362   7.599 -2.3244  1.4955  0.9313
21280SOL     OW66731   2.482   5.681   3.305 -0.1957  0.1386 -0.1630
21280SOL    HW166732   2.566   5.636   3.311 -1.1100 -1.6928 -0.3568
21280SOL    HW266733   2.419   5.612   3.282 -1.6885  1.5261 -0.4574
21281SOL     OW66734   1.542   3.731   5.754  0.1856  0.0855 -0.4637
21281SOL    HW166735   1.520   3.775   5.837  1.8281  0.8658 -0.4068
21281SOL    HW266736   1.585   3.650   5.781 -1.0947 -0.6637 -0.5813
21282SOL     OW66737   0.352   8.466   6.252  0.1146  0.2868  0.0375
21282SOL    HW166738   0.270   8.447   6.207 -0.5547  0.7544  1.0158
21282SOL    HW266739   0.338   8.435   6.342  0.6112  1.2908  0.4844
21283SOL     OW66740   6.995   8.444   0.433 -0.0340 -0.7250  0.9277
21283SOL    HW166741   7.007   8.497   0.354 -1.2250 -0.4462  0.9299
21283SOL    HW266742   7.052   8.485   0.498 -0.0148 -0.1912  0.5758
21284SOL     OW66743   3.529   2.927   3.795  0.2807  0.2286 -0.2458
21284SOL    HW166744   3.558   2.928   3.886 -2.2443  0.8205  0.6226
21284SOL    HW266745   3.466   2.856   3.790  0.2667  0.3026 -1.5063
21285SOL     OW66746   8.731   1.312   6.679  0.7660 -0.4578  0.0359
21285SOL    HW166747   8.655   1.344   6.631  0.5277  0.2354  0.8404
21285SOL    HW266748   8.780   1.261   6.615  0.4069  0.3430 -0.9096
21286SOL     OW66749   2.904   5.118   1.488 -0.0492  0.3465  0.5667
21286SOL    HW166750   2.820   5.102   1.532 -0.3469 -0.5563 -0.2838
21286SOL    HW266751   2.959   5.043   1.514  0.2426  0.5407  0.5156
21287SOL     OW66752   6.079   0.390   1.405  0.1305 -0.0458  0.6862
21287SOL    HW166753   6.166   0.425   1.419  0.9845 -1.2201 -1.2099
21287SOL    HW266754   6.083   0.300   1.437  0.0122 -0.4869 -0.4807
21288SOL     OW66755   8.366   4.460   5.318  0.2652 -0.8871  0.0742
21288SOL    HW166756   8.356   4.527   5.385  1.0077 -1.1245  0.4375
21288SOL    HW266757   8.457   4.468   5.290 -0.5262  0.5352 -2.3491
21289SOL     OW66758   5.140   3.325   1.798 -0.1169  0.2095  0.3527
21289SOL    HW166759   5.125   3.400   1.740  0.0454  0.7323  0.9721
21289SOL    HW266760   5.053   3.304   1.833 -0.2887 -0.3942 -0.4134
21290SOL     OW66761   4.165   5.343   1.153 -0.1249 -0.0309  0.1149
21290SOL    HW166762   4.208   5.261   1.130  0.0478 -0.4836  1.9190
21290SOL    HW266763   4.110   5.321   1.228  1.0688  1.7710  1.6104
21291SOL     OW66764   6.475   0.201   8.990 -0.0811 -0.0246  0.0396
21291SOL    HW166765   6.570   0.201   8.978  0.1800 -1.0518  1.7311
21291SOL    HW266766   6.463   0.185   9.084 -1.9254  1.0098  0.0196
21292SOL     OW66767   5.607   9.202   4.377 -0.7954 -0.2748 -0.3756
21292SOL    HW166768   5.565   9.272   4.428 -2.1569 -0.4497 -1.2072
21292SOL    HW266769   5.683   9.177   4.430 -0.7942  1.1857  0.3886
21293SOL     OW66770   5.148   0.804   2.732 -0.0388 -0.3627 -0.1193
21293SOL    HW166771   5.181   0.714   2.723  1.0001  0.1096 -1.2655
21293SOL    HW266772   5.227   0.858   2.732 -0.5543  0.4803  2.0866
21294SOL     OW66773   0.600   0.199   7.134 -0.3481 -0.3632 -0.0424
21294SOL    HW166774   0.558   0.114   7.122 -2.6321  0.6891 -0.1397
21294SOL    HW266775   0.602   0.238   7.047  0.7092 -0.3176 -0.0050
21295SOL     OW66776   3.405   8.184   3.967 -0.2551  0.2932 -0.2601
21295SOL    HW166777   3.316   8.190   4.001  0.4455  1.7988  1.5138
21295SOL    HW266778   3.420   8.091   3.954 -0.9099 -0.3561  2.8808
21296SOL     OW66779   1.279   6.982   1.902  0.7816 -0.3435 -0.2049
21296SOL    HW166780   1.342   7.037   1.856 -0.0402  0.3544 -0.5118
21296SOL    HW266781   1.251   7.035   1.977  1.2450 -1.0203  0.4709
21297SOL     OW66782   5.213   4.442   3.776  0.0725 -0.4992  0.4112
21297SOL    HW166783   5.278   4.474   3.838  1.8272  0.5796 -1.8215
21297SOL    HW266784   5.132   4.488   3.798  0.7153  0.0569  1.6711
21298SOL     OW66785   0.851   8.360   1.863  0.1685  0.4372  0.1141
21298SOL    HW166786   0.761   8.344   1.892 -0.0474 -0.1227 -0.8260
21298SOL    HW266787   0.888   8.272   1.852  1.1553  0.6563  1.4371
21299SOL     OW66788   4.526   2.050   7.243 -0.0411  0.6326 -0.5436
21299SOL    HW166789   4.554   2.035   7.154 -0.8859 -0.3322 -0.6721
21299SOL    HW266790   4.606   2.068   7.292  0.3636  1.8451 -1.6021
21300SOL     OW66791   1.492   6.710   3.120 -0.4294 -0.1129 -0.2124
21300SOL    HW166792   1.562   6.666   3.169 -0.5127  0.4833  0.4642
21300SOL    HW266793   1.510   6.804   3.132  0.0950  0.0594 -2.1360
21301SOL     OW66794   2.063   9.101   1.621  0.0390  0.2507  0.2206
21301SOL    HW166795   2.007   9.133   1.692  0.4996  0.1489  0.6324
21301SOL    HW266796   2.141   9.156   1.626  0.4653 -0.3682  0.3789
21302SOL     OW66797   3.967   4.325   0.759  0.0385 -0.2264  0.2336
21302SOL    HW166798   3.878   4.347   0.789 -0.0529 -1.5879  1.0573
21302SOL    HW266799   4.024   4.357   0.829  0.2841  1.2254 -0.5905
21303SOL     OW66800   0.526   8.957   7.211  0.5667  0.5160  0.1893
21303SOL    HW166801   0.464   9.029   7.221  0.0568  0.3969 -1.7008
21303SOL    HW266802   0.487   8.901   7.144  2.5443  0.2756 -0.8618
21304SOL     OW66803   0.052   4.246   2.430 -0.3781 -0.2533 -0.8597
21304SOL    HW166804  -0.029   4.207   2.396 -1.5068 -0.7597  2.0592
21304SOL    HW266805   0.122   4.192   2.395 -1.5198 -1.5154 -1.2722
21305SOL     OW66806   3.442   4.120   2.977 -0.4120  0.2567 -0.0462
21305SOL    HW166807   3.484   4.058   2.917 -0.3232  0.4573 -0.1912
21305SOL    HW266808   3.469   4.206   2.946 -1.0140  0.3955 -0.2009
21306SOL     OW66809   8.000   7.329   1.258 -0.2464 -0.1355 -0.2418
21306SOL    HW166810   8.070   7.359   1.200  0.0845  0.0915  0.2759
21306SOL    HW266811   8.041   7.320   1.344 -0.3429 -2.0122 -0.3456
21307SOL     OW66812   3.099   1.728   6.072  0.1039  0.0730  0.6412
21307SOL    HW166813   3.182   1.733   6.120  0.5788 -2.3418  0.1975
21307SOL    HW266814   3.092   1.636   6.045 -0.9399  0.9199 -2.4553
21308SOL     OW66815   2.500   7.187   3.991  0.3435  0.2977 -0.1492
21308SOL    HW166816   2.550   7.248   3.936  1.3829  0.2293  0.6939
21308SOL    HW266817   2.426   7.161   3.936 -1.0728  3.5182 -0.0360
21309SOL     OW66818   3.716   6.321   2.073 -0.3068  0.0625  0.4556
21309SOL    HW166819   3.711   6.412   2.101  0.8435  0.0116  0.8770
21309SOL    HW266820   3.628   6.286   2.090 -0.2633  0.6210  1.9706
21310SOL     OW66821   8.639   8.371   7.921  0.4705 -0.4652 -0.0491
21310SOL    HW166822   8.576   8.443   7.929  1.0405 -0.0361  0.6624
21310SOL    HW266823   8.627   8.320   8.001  1.8765  0.3262  0.6972
21311SOL     OW66824   8.797   6.581   0.754  0.2827  0.0987  0.3737
21311SOL    HW166825   8.726   6.547   0.809 -0.1714  0.9600  0.3409
21311SOL    HW266826   8.875   6.536   0.786 -0.3137 -1.0780  0.2177
21312SOL     OW66827   6.400   3.737   0.594  0.1670  0.0168 -0.2766
21312SOL    HW166828   6.386   3.681   0.670 -0.9823  1.1516  0.3783
21312SOL    HW266829   6.359   3.690   0.521 -0.4813 -0.1563  0.1943
21313SOL     OW66830   6.789   6.217   8.628 -0.7148  0.2836 -0.1973
21313SOL    HW166831   6.877   6.181   8.641 -0.7094  0.3098 -0.1603
21313SOL    HW266832   6.749   6.160   8.563 -0.8143  0.0298  0.0829
21314SOL     OW66833   3.679   7.450   9.089 -0.1410  0.1693  0.1377
21314SOL    HW166834   3.673   7.450   9.185 -0.1434  0.4470  0.1377
21314SOL    HW266835   3.600   7.405   9.060  0.5717 -1.2402  0.3160
21315SOL     OW66836   4.700   9.235   2.136  0.1278 -0.0022 -0.2691
21315SOL    HW166837   4.760   9.228   2.062  1.0574  0.2864  0.4264
21315SOL    HW266838   4.709   9.152   2.182  2.7568  1.2666  1.8108
21316SOL     OW66839   8.375   8.311   4.777  0.2454 -0.0305 -0.1431
21316SOL    HW166840   8.437   8.247   4.745 -0.8328 -1.6942  0.9240
21316SOL    HW266841   8.339   8.272   4.857 -1.5384  1.2177 -0.2620
21317SOL     OW66842   0.949   7.915   8.841 -0.1949  0.1190  0.2757
21317SOL    HW166843   0.990   7.862   8.772  0.2737  0.5855  0.1882
21317SOL    HW266844   1.009   7.988   8.854 -0.6258  0.4061  0.6946
21318SOL     OW66845   2.398   5.233   4.322  0.3101  0.6498  0.7405
21318SOL    HW166846   2.470   5.291   4.298 -0.1932  0.9368 -0.1244
21318SOL    HW266847   2.323   5.267   4.273  0.1990 -1.2966 -0.5646
21319SOL     OW66848   6.234   7.559   6.942  0.2370  0.7940  0.0048
21319SOL    HW166849   6.288   7.578   6.866  0.3685 -2.3869 -0.8428
21319SOL    HW266850   6.237   7.639   6.995  3.0974  1.8561 -1.5575
21320SOL     OW66851   3.788   8.672   4.032  0.1319 -0.0841 -0.0934
21320SOL    HW166852   3.699   8.700   4.008  0.5379  1.8006  0.4380
21320SOL    HW266853   3.790   8.579   4.011 -1.8862 -0.1139 -0.3714
21321SOL     OW66854   2.095   7.293   5.274 -0.3315 -0.0835  0.5297
21321SOL    HW166855   2.006   7.311   5.304 -0.2183  2.7195 -0.4721
21321SOL    HW266856   2.084   7.261   5.185 -0.3637 -0.8503  0.8043
21322SOL     OW66857   8.742   4.181   6.390  0.5549  0.7251  0.2713
21322SOL    HW166858   8.767   4.258   6.339  0.2072  1.0498  0.5873
21322SOL    HW266859   8.703   4.122   6.326  1.0770  0.6884 -0.0232
21323SOL     OW66860   6.868   8.275   2.952 -0.3422  0.0971  0.2387
21323SOL    HW166861   6.950   8.299   2.994  0.0026 -1.6520  0.6701
21323SOL    HW266862   6.800   8.321   3.002  0.3055  0.8987  0.3942
21324SOL     OW66863   2.997   5.261   4.522  0.0581  0.8522  0.6182
21324SOL    HW166864   3.083   5.296   4.546  0.3247 -0.3014  1.4293
21324SOL    HW266865   2.947   5.262   4.604 -0.3017  0.4186  0.4124
21325SOL     OW66866   7.581   6.656   7.384 -0.1953  0.1403  0.4405
21325SOL    HW166867   7.665   6.619   7.411  0.3240 -0.0645 -1.3341
21325SOL    HW266868   7.537   6.586   7.336 -1.1518  0.4251  0.8629
21326SOL     OW66869   0.210   0.422   4.438  0.0741 -0.3744 -0.8391
21326SOL    HW166870   0.195   0.491   4.503 -0.1526 -0.8783 -0.3523
21326SOL    HW266871   0.279   0.457   4.381  1.4582 -0.5672  0.6478
21327SOL     OW66872   5.085   8.211   0.499 -0.4565  0.3758  0.8167
21327SOL    HW166873   5.170   8.168   0.508  0.5894  2.6624  3.3394
21327SOL    HW266874   5.049   8.210   0.588 -3.4195 -1.0078 -0.2627
21328SOL     OW66875   8.142   5.802   3.919  0.2590  0.1680 -0.3349
21328SOL    HW166876   8.089   5.722   3.920 -0.8032  0.8511  0.4827
21328SOL    HW266877   8.201   5.791   3.845 -1.0546 -0.6064 -1.3038
21329SOL     OW66878   5.652   8.947   4.846 -0.3735  0.5471  0.2697
21329SOL    HW166879   5.747   8.933   4.848 -0.4772 -0.1923  0.0814
21329SOL    HW266880   5.642   9.034   4.806  0.1740  0.0023 -1.0973
21330SOL     OW66881   6.189   2.904   1.374 -0.0486 -0.0874  0.0056
21330SOL    HW166882   6.258   2.888   1.439  0.1228  1.0113  0.1209
21330SOL    HW266883   6.107   2.891   1.422 -0.0435 -3.5217 -0.6370
21331SOL     OW66884   5.913   5.762   7.964  0.1941 -0.0245  0.4012
21331SOL    HW166885   5.824   5.731   7.985  0.8649 -1.8862  0.6770
21331SOL    HW266886   5.930   5.729   7.876 -0.7705  3.6392 -1.3262
21332SOL     OW66887   6.502   0.131   6.152 -0.2292 -0.0983  0.2388
21332SOL    HW166888   6.549   0.209   6.125  0.7948  0.0708  2.3482
21332SOL    HW266889   6.447   0.159   6.225 -1.9654 -0.7946 -0.7201
21333SOL     OW66890   2.154   8.476   0.821  0.3035  0.5152 -0.3330
21333SOL    HW166891   2.152   8.571   0.825 -0.4861  0.4592  2.2777
21333SOL    HW266892   2.065   8.450   0.796  0.4541  0.4463 -0.8075
21334SOL     OW66893   5.130   6.665   4.595 -0.1477  0.7324  0.0254
21334SOL    HW166894   5.173   6.610   4.529 -0.8430 -0.6577  0.6722
21334SOL    HW266895   5.110   6.604   4.666 -1.5559  1.7015  0.4970
21335SOL     OW66896   4.685   1.060   8.585  0.3906  0.2497  0.3832
21335SOL    HW166897   4.610   1.100   8.629  0.6312 -0.4489  1.4678
21335SOL    HW266898   4.664   1.067   8.492 -1.3187 -0.4617  0.6690
21336SOL     OW66899   4.043   3.654   0.161 -0.5336  0.6459 -0.1789
21336SOL    HW166900   3.987   3.697   0.226 -0.2306  0.5353  0.1595
21336SOL    HW266901   3.992   3.655   0.081 -0.1750  2.4520 -0.4135
21337SOL     OW66902   2.590   4.879   8.666  0.8637 -0.5301 -0.0847
21337SOL    HW166903   2.539   4.917   8.738  2.1585  0.0650  0.5503
21337SOL    HW266904   2.604   4.788   8.693 -0.3182 -0.8678 -0.5385
21338SOL     OW66905   7.454   1.474   7.269  0.2409 -0.1767  0.1161
21338SOL    HW166906   7.541   1.513   7.276  0.1475  0.2354 -0.8832
21338SOL    HW266907   7.396   1.548   7.251 -0.0433 -0.6733 -1.0792
21339SOL     OW66908   4.586   5.702   9.206  0.4777 -0.0311  0.7394
21339SOL    HW166909   4.646   5.659   9.267  3.4346  1.1324 -1.1228
21339SOL    HW266910   4.578   5.642   9.133 -0.1189  0.1155  0.6775
21340SOL     OW66911   6.001   8.377   4.358  0.1683 -0.5356 -0.0434
21340SOL    HW166912   5.928   8.322   4.385 -0.8043  1.4719  1.7523
21340SOL    HW266913   5.981   8.400   4.267 -0.2619 -1.7418 -0.2776
21341SOL     OW66914   5.052   2.203   4.720 -0.2668 -0.1943 -0.4304
21341SOL    HW166915   4.960   2.198   4.695 -0.1018 -0.7157 -0.9394
21341SOL    HW266916   5.069   2.122   4.768 -0.4938  0.6429  1.1531
21342SOL     OW66917   3.398   1.005   3.188 -0.4379  0.5069 -0.1740
21342SOL    HW166918   3.352   1.082   3.222 -1.7592 -0.1834 -0.3151
21342SOL    HW266919   3.335   0.934   3.198  0.7592 -0.5686 -0.0390
21343SOL     OW66920   2.222   8.753   2.762 -0.1032  0.1795  0.2747
21343SOL    HW166921   2.160   8.779   2.830 -1.1885  0.3469 -0.7582
21343SOL    HW266922   2.168   8.737   2.685  1.0811 -0.2650 -0.4856
21344SOL     OW66923   6.233   6.256   4.499  0.4961 -0.3906 -0.1573
21344SOL    HW166924   6.146   6.296   4.489 -0.4434 -2.2139  0.3726
21344SOL    HW266925   6.235   6.226   4.589  1.1281 -1.6167 -0.5663
21345SOL     OW66926   1.845   4.787   2.699 -1.3961 -0.1789  0.6783
21345SOL    HW166927   1.818   4.872   2.734 -0.3361  0.0554  0.9640
21345SOL    HW266928   1.917   4.760   2.755 -1.3432 -0.9989  0.2230
21346SOL     OW66929   1.126   1.769   4.845  0.2048  0.0333 -0.1712
21346SOL    HW166930   1.042   1.733   4.873  0.5828 -0.5992  0.1539
21346SOL    HW266931   1.125   1.859   4.878 -0.8742  0.4549 -1.2720
21347SOL     OW66932   1.903   8.791   7.361  0.5473 -0.4125  0.1923
21347SOL    HW166933   1.952   8.873   7.355 -1.0317  0.5080 -0.6236
21347SOL    HW266934   1.959   8.734   7.414  3.6335 -0.2303 -2.4972
21348SOL     OW66935   1.798   3.501   2.634  0.1426 -0.2412 -0.4251
21348SOL    HW166936   1.735   3.452   2.686 -1.3541  1.0808 -0.9330
21348SOL    HW266937   1.793   3.590   2.668  0.1900  0.3326 -1.8874
21349SOL     OW66938   3.185   7.754   1.402  0.1691 -0.1737  0.1183
21349SOL    HW166939   3.096   7.788   1.415 -0.4985 -2.4012  2.0180
21349SOL    HW266940   3.229   7.822   1.350 -2.1321  1.7574  0.5079
21350SOL     OW66941   1.565   4.542   6.089 -0.2733  0.9059 -0.2385
21350SOL    HW166942   1.611   4.500   6.017 -1.9445 -1.1683 -0.2104
21350SOL    HW266943   1.608   4.508   6.168 -0.4398  0.6928 -0.2378
21351SOL     OW66944   2.927   0.580   5.642 -0.1616 -0.2475 -0.4113
21351SOL    HW166945   2.862   0.634   5.687  0.8469 -0.7168  1.7348
21351SOL    HW266946   2.876   0.506   5.608 -1.1171  0.6424 -0.9747
21352SOL     OW66947   3.446   0.373   5.377  0.2270  0.1576  0.0723
21352SOL    HW166948   3.520   0.398   5.432  1.7011  0.7106 -2.0484
21352SOL    HW266949   3.481   0.307   5.317 -1.0329  0.2495 -0.8081
21353SOL     OW66950   4.514   8.155   0.780 -0.0644 -0.4538  0.5386
21353SOL    HW166951   4.514   8.062   0.802  0.4527 -0.5371  0.2173
21353SOL    HW266952   4.591   8.166   0.725  0.9775  0.5304  2.1069
21354SOL     OW66953   1.483   5.358   1.217  0.7700  0.8291 -0.2677
21354SOL    HW166954   1.502   5.267   1.240 -0.2284  0.6311 -0.2081
21354SOL    HW266955   1.478   5.403   1.301  0.2776  0.7388 -0.2474
21355SOL     OW66956   7.332   7.440   7.172 -0.1894 -0.1067  0.2863
21355SOL    HW166957   7.316   7.358   7.125  1.0608  0.1742 -0.6933
21355SOL    HW266958   7.278   7.504   7.126  0.3573 -0.0084 -0.2383
21356SOL     OW66959   4.956   8.098   7.463 -0.1824 -0.5640  0.1851
21356SOL    HW166960   5.026   8.164   7.460 -0.7629  0.0495 -0.1320
21356SOL    HW266961   5.002   8.016   7.481  0.8674 -0.5099 -1.9065
21357SOL     OW66962   2.832   4.255   0.696 -0.4288  0.3193  0.4522
21357SOL    HW166963   2.888   4.206   0.756 -0.5401  0.2285  0.4827
21357SOL    HW266964   2.889   4.321   0.658 -0.7595  1.5088  1.9559
21358SOL     OW66965   6.190   6.794   0.918  0.1224  0.1561  0.1823
21358SOL    HW166966   6.247   6.788   0.841 -2.2247  0.5836 -1.7119
21358SOL    HW266967   6.229   6.864   0.971  0.1570  2.0821 -2.2115
21359SOL     OW66968   2.154   5.659   5.338  0.3099  0.4715  0.2734
21359SOL    HW166969   2.196   5.697   5.261  0.9718  0.2118  0.4998
21359SOL    HW266970   2.212   5.681   5.411 -0.6760  1.3448  0.8251
21360SOL     OW66971   7.457   6.283   7.579  0.2222 -0.6835  0.0767
21360SOL    HW166972   7.454   6.314   7.489  0.9625  0.8861  0.5524
21360SOL    HW266973   7.545   6.248   7.590  0.1292 -0.8849  0.1931
21361SOL     OW66974   8.109   2.254   8.402 -0.6267 -0.0248 -0.0943
21361SOL    HW166975   8.060   2.204   8.336 -1.8176 -0.5285  1.1116
21361SOL    HW266976   8.053   2.251   8.480  0.1049  1.7064  0.5411
21362SOL     OW66977   8.279   1.418   3.531  0.4299 -0.4639  0.3364
21362SOL    HW166978   8.311   1.479   3.598 -0.0978 -0.2980  0.4478
21362SOL    HW266979   8.284   1.468   3.449 -0.9513  0.0989  0.5735
21363SOL     OW66980   2.691   8.060   4.769 -0.0397 -0.3803  0.3735
21363SOL    HW166981   2.654   8.138   4.729 -1.4206 -0.6291  1.1039
21363SOL    HW266982   2.765   8.091   4.821  0.8167  0.1325 -1.0931
21364SOL     OW66983   6.457   0.642   6.074  0.6555 -0.2938  0.0315
21364SOL    HW166984   6.481   0.561   6.030 -0.3887 -0.2656 -0.6230
21364SOL    HW266985   6.408   0.614   6.152 -1.3666 -0.3170 -1.1741
21365SOL     OW66986   8.303   5.346   1.310  0.3069 -0.3853  0.1903
21365SOL    HW166987   8.234   5.284   1.287  0.8166 -0.8008 -0.2579
21365SOL    HW266988   8.352   5.302   1.379  0.2787 -0.2038  0.3260
21366SOL     OW66989   3.182   1.143   9.103  0.2833 -0.8599 -0.0692
21366SOL    HW166990   3.183   1.220   9.046  0.9580 -0.5391  0.3726
21366SOL    HW266991   3.100   1.153   9.153 -1.1836 -1.9982 -2.0931
21367SOL     OW66992   7.800   3.608   2.549  0.3373  0.1559  0.0150
21367SOL    HW166993   7.836   3.648   2.629  1.9621  0.0983 -0.6380
21367SOL    HW266994   7.772   3.683   2.496  0.8669  0.3029 -0.0707
21368SOL     OW66995   6.440   3.695   0.125  0.0548 -0.5630  0.1692
21368SOL    HW166996   6.351   3.716   0.156  0.4281  0.2771  0.7314
21368SOL    HW266997   6.489   3.775   0.142  0.7662 -0.8027 -0.7485
21369SOL     OW66998   6.137   4.344   6.152  0.3352 -0.4186  0.1751
21369SOL    HW166999   6.100   4.352   6.240 -0.2008  2.1695 -0.1976
21369SOL    HW267000   6.230   4.360   6.163  0.2536  0.0036  0.2685
21370SOL     OW67001   0.707   0.847   1.246  0.4153  0.2324  1.0354
21370SOL    HW167002   0.624   0.835   1.199  0.5133 -1.3458  1.1867
21370SOL    HW267003   0.743   0.928   1.212 -0.1730 -0.1480 -0.6028
21371SOL     OW67004   8.654   8.090   5.456  0.3709  0.7825  0.3494
21371SOL    HW167005   8.599   8.153   5.503 -0.7223 -0.7129  1.1430
21371SOL    HW267006   8.725   8.143   5.420  0.8248  2.1207  3.0078
21372SOL     OW67007   0.983   1.244   7.751 -0.1424 -0.0506  0.0168
21372SOL    HW167008   1.062   1.241   7.698  0.3753  0.6515  0.7192
21372SOL    HW267009   1.008   1.294   7.828 -0.7849 -1.2818  1.0715
21373SOL     OW67010   6.303   7.207   3.744  0.3563 -0.5690  0.3467
21373SOL    HW167011   6.381   7.157   3.768 -0.3326 -2.6914 -1.4656
21373SOL    HW267012   6.230   7.153   3.773 -0.4769  0.8717  1.0449
21374SOL     OW67013   1.068   0.341   7.878 -0.7919  0.2191  0.4217
21374SOL    HW167014   1.078   0.433   7.853 -0.9079  0.4233  1.1165
21374SOL    HW267015   0.990   0.339   7.934 -0.6835 -0.2697  0.5643
21375SOL     OW67016   3.863   8.986   6.264 -0.3944  0.1052  0.4907
21375SOL    HW167017   3.874   9.002   6.357  0.0541  0.3296  0.4020
21375SOL    HW267018   3.951   8.995   6.227 -0.4904 -0.4357  0.1134
21376SOL     OW67019   3.035   3.024   1.993  0.0071 -0.8464 -0.8134
21376SOL    HW167020   3.089   2.948   1.971  0.0686 -0.9193 -0.4187
21376SOL    HW267021   3.082   3.098   1.956  0.2409 -0.9405 -0.7097
21377SOL     OW67022   6.822   1.000   0.496  0.0606  0.1541  0.7243
21377SOL    HW167023   6.905   1.045   0.481 -0.2484  0.6195  0.3699
21377SOL    HW267024   6.757   1.055   0.452 -0.4023 -0.3365  0.7886
21378SOL     OW67025   7.870   6.553   8.652 -0.0226 -0.4285 -0.4604
21378SOL    HW167026   7.781   6.538   8.682  0.2205  0.4768  0.8170
21378SOL    HW267027   7.883   6.648   8.661  0.2474 -0.1445 -3.0727
21379SOL     OW67028   0.169   1.517   1.531  0.1644 -0.2272  0.2757
21379SOL    HW167029   0.082   1.479   1.517  0.4098 -1.4288  1.7128
21379SOL    HW267030   0.157   1.611   1.518 -0.9712 -0.5351 -1.1611
21380SOL     OW67031   4.994   8.484   2.251 -1.4451 -0.1819  0.6469
21380SOL    HW167032   4.919   8.497   2.192 -1.3351  0.7945  0.6983
21380SOL    HW267033   5.056   8.431   2.200 -2.1227 -0.9171  0.5716
21381SOL     OW67034   0.965   3.506   3.633  0.1432  0.3200 -0.6443
21381SOL    HW167035   1.000   3.592   3.655  0.9154  0.3434 -1.8963
21381SOL    HW267036   0.905   3.486   3.705 -1.0114  2.4486 -0.9244
21382SOL     OW67037   6.000   2.339   3.405  0.2541  0.2002  0.3553
21382SOL    HW167038   6.002   2.257   3.356  0.0522  0.1490  0.4311
21382SOL    HW267039   6.092   2.366   3.412  0.2145  0.7045 -0.8663
21383SOL     OW67040   1.284   6.718   5.232 -0.0920  0.4024  0.2543
21383SOL    HW167041   1.371   6.748   5.260  0.3233  1.2918 -1.8264
21383SOL    HW267042   1.294   6.698   5.139 -2.3163  1.4675 -0.2879
21384SOL     OW67043   5.508   9.011   8.328  0.1928  0.0108  0.0683
21384SOL    HW167044   5.599   8.985   8.341  0.3979  0.4667 -0.4639
21384SOL    HW267045   5.476   8.951   8.261 -0.1565 -0.7177  0.8649
21385SOL     OW67046   4.604   5.308   6.371 -0.1323 -0.1787  0.1208
21385SOL    HW167047   4.664   5.329   6.442  1.1751 -0.2697 -0.9228
21385SOL    HW267048   4.574   5.394   6.339 -0.2943 -0.1230  0.4211
21386SOL     OW67049   2.935   4.247   3.603 -0.2326 -0.2919  0.3333
21386SOL    HW167050   2.916   4.180   3.537 -1.4625 -1.2268  1.5776
21386SOL    HW267051   2.857   4.303   3.602  0.0225  0.0640  0.5356
21387SOL     OW67052   7.589   6.988   8.777  0.4764 -0.1455 -0.2236
21387SOL    HW167053   7.504   7.030   8.787 -0.4929 -2.3413  1.6488
21387SOL    HW267054   7.589   6.954   8.687 -0.2911  0.5230 -0.4847
21388SOL     OW67055   7.079   1.602   5.281  0.3685  0.2306  0.0145
21388SOL    HW167056   7.118   1.642   5.204  1.7158 -2.2740 -0.7084
21388SOL    HW267057   7.060   1.512   5.254  1.3009 -0.8752  2.7012
21389SOL     OW67058   8.114   6.335   7.254  0.5085 -0.4470 -0.2802
21389SOL    HW167059   8.029   6.378   7.265 -0.2761 -1.6112 -1.5284
21389SOL    HW267060   8.145   6.364   7.168  1.0375 -0.6119 -0.1506
21390SOL     OW67061   6.803   8.132   4.031 -0.3042 -0.0554  0.2840
21390SOL    HW167062   6.748   8.203   4.063 -0.4794 -0.1741  0.2475
21390SOL    HW267063   6.888   8.145   4.074 -0.1342  0.5527 -0.2194
21391SOL     OW67064   5.307   0.399   6.316  0.5303  0.0148  0.4040
21391SOL    HW167065   5.248   0.419   6.388  0.8500 -0.9543  0.9487
21391SOL    HW267066   5.287   0.465   6.249 -2.0877 -1.0806  0.0212
21392SOL     OW67067   1.841   3.512   0.845 -0.2284 -0.2299  0.2390
21392SOL    HW167068   1.774   3.517   0.912 -0.8963 -0.1147 -0.4238
21392SOL    HW267069   1.829   3.425   0.806  1.7934 -1.3453  1.9289
21393SOL     OW67070   4.043   6.478   1.028  0.0293 -0.1137  0.5712
21393SOL    HW167071   4.013   6.481   1.119 -2.1097  0.0755 -0.0987
21393SOL    HW267072   3.965   6.496   0.976  0.9041 -1.5463 -1.3602
21394SOL     OW67073   7.780   8.200   0.956  0.1142  0.0429 -0.0384
21394SOL    HW167074   7.869   8.225   0.979  0.3258  0.5478 -1.3241
21394SOL    HW267075   7.732   8.282   0.948 -0.5445 -0.2334  0.8897
21395SOL     OW67076   7.174   1.231   3.190 -0.3988  0.1899 -0.0530
21395SOL    HW167077   7.217   1.283   3.258 -1.2978 -0.5590  1.1356
21395SOL    HW267078   7.092   1.276   3.173 -0.7744 -0.3379  0.3337
21396SOL     OW67079   2.483   8.023   0.524 -0.8027 -0.0974 -0.2926
21396SOL    HW167080   2.470   8.117   0.518  1.5514  0.6673  3.2272
21396SOL    HW267081   2.475   7.992   0.434  3.7490  4.3203 -2.7503
21397SOL     OW67082   1.313   4.929   0.753  0.9458  0.1853 -0.4554
21397SOL    HW167083   1.304   4.969   0.667  1.8128  0.8265 -0.2578
21397SOL    HW267084   1.372   4.987   0.801 -0.1633  0.2895  0.8501
21398SOL     OW67085   0.022   5.444   2.622 -0.0071 -0.1219  0.7624
21398SOL    HW167086  -0.045   5.507   2.645  0.6982  1.1535 -0.4825
21398SOL    HW267087   0.104   5.486   2.647  0.5351 -0.1384 -0.8445
21399SOL     OW67088   6.752   2.371   4.001  0.4602 -0.9790  0.1206
21399SOL    HW167089   6.657   2.362   4.005  0.1994  0.6161 -1.2108
21399SOL    HW267090   6.784   2.319   4.074 -1.5443  0.1068  1.9158
21400SOL     OW67091   7.694   7.271   5.482 -0.7631 -0.1301  0.2617
21400SOL    HW167092   7.662   7.239   5.567 -0.2794 -0.2919  0.3838
21400SOL    HW267093   7.627   7.333   5.454 -2.8109 -2.6981 -0.9591
21401SOL     OW67094   0.039   2.004   0.318 -0.2285  0.0358 -0.3080
21401SOL    HW167095   0.089   1.932   0.280  0.9029  0.8634 -0.4402
21401SOL    HW267096  -0.042   2.008   0.267 -0.6968 -1.6649  0.2525
21402SOL     OW67097   3.362   6.175   2.601  0.2847 -0.3617  0.5175
21402SOL    HW167098   3.334   6.243   2.663  2.2590  0.0672  1.0005
21402SOL    HW267099   3.370   6.222   2.518 -0.1555 -0.4417  0.4237
21403SOL     OW67100   7.668   2.859   2.735 -0.2119 -0.1216  0.0990
21403SOL    HW167101   7.578   2.851   2.705  0.1565  0.2473 -1.1547
21403SOL    HW267102   7.665   2.925   2.805 -0.8067  0.3876 -0.3990
21404SOL     OW67103   6.710   5.401   6.221 -0.6682  0.1830  0.2813
21404SOL    HW167104   6.644   5.345   6.262 -0.3407  0.9040  1.8407
21404SOL    HW267105   6.699   5.386   6.127 -0.7066 -2.3846  0.6246
21405SOL     OW67106   3.550   5.738   2.601  0.0424 -0.0071  0.5452
21405SOL    HW167107   3.587   5.717   2.687 -0.3067  1.3652  1.0643
21405SOL    HW267108   3.613   5.702   2.539  1.2205  0.4877  1.3968
21406SOL     OW67109   0.733   5.392   4.621 -0.1434 -0.2363 -0.0214
21406SOL    HW167110   0.733   5.330   4.548 -2.8827  0.0912 -0.4172
21406SOL    HW267111   0.747   5.338   4.699  2.5856 -0.6250 -0.6947
21407SOL     OW67112   3.246   1.590   7.415 -0.0835 -0.1019 -0.5618
21407SOL    HW167113   3.209   1.504   7.394 -0.2993 -0.7993  2.2566
21407SOL    HW267114   3.334   1.588   7.378 -1.1334 -0.2569 -3.2506
21408SOL     OW67115   5.188   5.301   8.489  0.4833  0.2581  0.1112
21408SOL    HW167116   5.177   5.253   8.571 -1.9918 -0.2168 -0.4152
21408SOL    HW267117   5.280   5.326   8.488  1.8461 -3.9747  0.6647
21409SOL     OW67118   6.867   1.278   5.621  0.0156  0.1107 -0.3917
21409SOL    HW167119   6.933   1.277   5.690 -2.2696  0.8202  1.9577
21409SOL    HW267120   6.849   1.185   5.603  0.6983 -0.0811 -0.1083
21410SOL     OW67121   0.573   7.057   2.687  0.2649 -0.1788 -0.3293
21410SOL    HW167122   0.576   7.007   2.605 -1.3067 -0.7785 -0.0480
21410SOL    HW267123   0.522   7.003   2.747 -0.6003  1.2783  0.3085
21411SOL     OW67124   7.133   2.238   1.927 -0.5198  0.0627  0.0582
21411SOL    HW167125   7.123   2.234   2.022  1.1119  0.9940  0.3095
21411SOL    HW267126   7.144   2.148   1.899  1.5212 -0.0645  1.1068
21412SOL     OW67127   1.585   5.294   7.129 -0.1245  0.4333  0.1356
21412SOL    HW167128   1.548   5.379   7.106 -0.3241  0.4436  0.5019
21412SOL    HW267129   1.603   5.252   7.044 -1.2088  0.3153 -0.0419
21413SOL     OW67130   6.324   4.972   5.680 -0.4786 -0.0269 -0.6683
21413SOL    HW167131   6.250   4.957   5.621 -1.5169  0.8179  0.3772
21413SOL    HW267132   6.356   4.884   5.700 -2.6056 -0.5986  0.5759
21414SOL     OW67133   1.500   4.215   1.508  0.4394 -0.2510  0.3176
21414SOL    HW167134   1.594   4.208   1.524  1.3678  0.2537 -3.7667
21414SOL    HW267135   1.478   4.305   1.532  2.0491  0.9709 -2.3029
21415SOL     OW67136   3.491   2.999   6.529  0.7536 -0.3268  0.0732
21415SOL    HW167137   3.422   2.938   6.554  0.8113 -0.2091  0.5246
21415SOL    HW267138   3.501   2.986   6.435 -0.4522  0.2367 -0.1566
21416SOL     OW67139   0.638   0.860   6.668  0.5291 -0.0415 -0.5300
21416SOL    HW167140   0.684   0.778   6.651 -0.9004 -0.8086 -0.8723
21416SOL    HW267141   0.635   0.905   6.584  0.5589 -0.0358 -0.5281
21417SOL     OW67142   2.490   8.162   5.275 -0.0204 -0.1316 -0.4551
21417SOL    HW167143   2.410   8.205   5.305  0.2328 -0.9217  1.5779
21417SOL    HW267144   2.520   8.215   5.202 -1.7709  0.8603 -0.5102
21418SOL     OW67145   6.689   5.279   4.408 -0.3851  0.4251 -1.4331
21418SOL    HW167146   6.706   5.363   4.451 -0.0029 -0.4319  0.1538
21418SOL    HW267147   6.618   5.240   4.458 -0.4159 -0.3085 -2.0251
21419SOL     OW67148   3.379   8.959   5.429 -0.6118  0.3480 -0.0211
21419SOL    HW167149   3.319   9.033   5.425  1.4162  2.1629  1.3145
21419SOL    HW267150   3.427   8.963   5.346 -1.3096 -0.2587 -0.4742
21420SOL     OW67151   7.126   5.496   3.176  0.0092  0.1892  0.1131
21420SOL    HW167152   7.125   5.564   3.109 -1.1749  1.3802  1.2612
21420SOL    HW267153   7.215   5.496   3.210  0.1402  0.8627 -0.2202
21421SOL     OW67154   8.612   4.780   4.487  0.8207  0.3554  0.1310
21421SOL    HW167155   8.664   4.714   4.441 -2.0092 -0.8057 -1.7555
21421SOL    HW267156   8.658   4.863   4.471  2.0348 -0.5701 -1.5140
21422SOL     OW67157   4.320   0.801   5.856 -0.3353  0.4588 -0.2367
21422SOL    HW167158   4.278   0.750   5.926 -0.2875 -0.6981 -1.0184
21422SOL    HW267159   4.248   0.849   5.815 -0.6996 -0.4485 -0.6881
21423SOL     OW67160   7.463   0.127   2.137 -0.2273  0.0222 -0.1104
21423SOL    HW167161   7.491   0.115   2.228  0.6168  1.8685 -0.0996
21423SOL    HW267162   7.534   0.090   2.085  1.1162  2.2982 -0.0314
21424SOL     OW67163   6.671   2.969   4.009  0.1061 -0.0034  0.1392
21424SOL    HW167164   6.702   2.994   4.096  0.6262  0.7239 -0.2417
21424SOL    HW267165   6.589   3.017   3.997  0.8650  1.2094 -0.4042
21425SOL     OW67166   2.051   2.829   6.057 -0.2841  0.0512  0.2346
21425SOL    HW167167   2.078   2.813   5.966  0.5030 -0.0220  0.4734
21425SOL    HW267168   1.987   2.760   6.075 -0.7322  0.2942 -0.3802
21426SOL     OW67169   6.034   4.353   6.462 -0.2809 -0.4052 -0.2310
21426SOL    HW167170   6.021   4.444   6.439 -1.3315 -0.8014 -1.2773
21426SOL    HW267171   6.077   4.356   6.548  0.4988  1.0589 -0.6447
21427SOL     OW67172   6.363   2.111   2.406 -0.0664  0.5027  0.4962
21427SOL    HW167173   6.318   2.044   2.457 -3.0135  2.2564  0.4055
21427SOL    HW267174   6.344   2.088   2.315  0.9905  0.1491  0.3511
21428SOL     OW67175   7.597   8.695   4.549  0.0724  0.6241  0.3741
21428SOL    HW167176   7.525   8.658   4.600  0.2580  0.4225  0.4948
21428SOL    HW267177   7.676   8.659   4.590  0.1882 -1.8647 -1.7655
21429SOL     OW67178   6.040   4.807   1.868  0.3216  0.6563 -0.3757
21429SOL    HW167179   6.133   4.815   1.887  0.4656  0.0442 -0.7985
21429SOL    HW267180   6.017   4.719   1.900 -0.0088  0.6289 -0.6878
21430SOL     OW67181   2.545   3.770   1.854  0.3564  0.2877  0.8702
21430SOL    HW167182   2.565   3.859   1.881 -0.1289  0.4901  0.5710
21430SOL    HW267183   2.500   3.731   1.929 -0.6771  0.7408  0.5143
21431SOL     OW67184   5.122   6.045   0.199 -0.4871 -0.0023  0.2236
21431SOL    HW167185   5.041   6.075   0.239 -1.1566  1.2022 -1.8887
21431SOL    HW267186   5.170   6.125   0.178 -0.3378 -0.5422 -1.6419
21432SOL     OW67187   0.366   3.496   8.612  0.0101  0.0902 -0.5905
21432SOL    HW167188   0.291   3.435   8.610  1.2713 -1.5849  0.2185
21432SOL    HW267189   0.337   3.571   8.561 -0.6391 -2.3457 -4.2196
21433SOL     OW67190   1.932   5.848   1.026  0.2189 -0.0662 -0.3600
21433SOL    HW167191   2.015   5.845   0.979  0.1269  0.9878 -0.6089
21433SOL    HW267192   1.866   5.849   0.956  0.0155 -0.4069 -0.1728
21434SOL     OW67193   5.953   0.879   1.571 -0.4373  0.1215  0.2457
21434SOL    HW167194   6.016   0.879   1.644 -1.4518  1.8029  1.1770
21434SOL    HW267195   6.006   0.899   1.494  0.8572 -2.7646  0.2367
21435SOL     OW67196   1.178   2.963   7.134 -0.2316 -0.5601 -0.2289
21435SOL    HW167197   1.256   2.915   7.161 -1.3886 -2.2669  0.2200
21435SOL    HW267198   1.193   3.052   7.166  0.3460 -1.4773  2.3470
21436SOL     OW67199   6.021   6.391   5.201 -0.1368  0.0293 -0.4216
21436SOL    HW167200   6.019   6.365   5.293 -0.1499  1.0202 -0.1319
21436SOL    HW267201   5.935   6.368   5.167  0.0847 -0.9251 -0.3590
21437SOL     OW67202   5.371   9.260   0.532  0.5686  0.0708 -0.3569
21437SOL    HW167203   5.303   9.231   0.471 -1.2885 -2.1802  2.5243
21437SOL    HW267204   5.327   9.321   0.591  0.7910 -1.7302  1.8143
21438SOL     OW67205   6.634   4.626   6.779  0.3001 -0.0779 -0.6488
21438SOL    HW167206   6.641   4.668   6.865  0.6573  2.1339 -1.6743
21438SOL    HW267207   6.638   4.699   6.716 -0.2988 -1.5802 -2.5439
21439SOL     OW67208   2.258   2.482   2.330 -0.0359 -0.2930 -0.6709
21439SOL    HW167209   2.220   2.446   2.410 -0.5519 -1.1026 -1.2643
21439SOL    HW267210   2.326   2.420   2.305  0.2039  0.0182 -0.7988
21440SOL     OW67211   2.465   6.160   4.190  0.5385  0.0924 -0.5290
21440SOL    HW167212   2.443   6.084   4.244 -1.5796  0.4596 -0.7806
21440SOL    HW267213   2.559   6.153   4.175  0.4730 -2.2199 -0.1746
21441SOL     OW67214   4.506   5.592   8.245  0.1350 -0.4029  0.6376
21441SOL    HW167215   4.520   5.533   8.171  0.4110  1.5862 -0.9994
21441SOL    HW267216   4.584   5.647   8.247 -0.8809  1.0967  0.9031
21442SOL     OW67217   4.436   4.077   6.550  0.2244  0.5967  0.4866
21442SOL    HW167218   4.506   4.103   6.610  0.1196  1.0642  0.4088
21442SOL    HW267219   4.455   3.986   6.528  1.5179  1.0880 -0.5183
21443SOL     OW67220   6.755   0.895   5.091  0.2175 -0.2010 -0.0676
21443SOL    HW167221   6.826   0.834   5.107 -0.0257 -0.9631 -1.6996
21443SOL    HW267222   6.778   0.939   5.009 -1.5245 -1.0532 -1.0772
21444SOL     OW67223   8.228   3.398   6.652  0.6036 -0.0549 -0.2790
21444SOL    HW167224   8.271   3.392   6.567 -1.3060  0.4216 -1.3303
21444SOL    HW267225   8.279   3.464   6.700  1.0338  0.5263 -1.4881
21445SOL     OW67226   7.776   1.035   6.662 -0.3787  0.0253 -0.0067
21445SOL    HW167227   7.825   1.070   6.589 -2.3045  0.6841 -1.0616
21445SOL    HW267228   7.811   0.946   6.675  0.7166  0.2995 -1.0022
21446SOL     OW67229   2.328   7.946   5.317 -0.0760 -0.1744  0.0032
21446SOL    HW167230   2.247   7.998   5.325 -0.6547 -0.9274 -0.7791
21446SOL    HW267231   2.394   8.010   5.289 -0.7082  0.2115 -0.6597
21447SOL     OW67232   5.060   1.863   6.486  0.1507 -0.4468 -0.1613
21447SOL    HW167233   5.011   1.938   6.519  0.5131 -0.4797  0.4450
21447SOL    HW267234   5.072   1.806   6.562 -0.1610 -1.1471 -0.6221
21448SOL     OW67235   5.014   8.476   1.033  0.2942 -0.0034  0.0297
21448SOL    HW167236   4.952   8.441   1.096  1.6613 -4.2795 -0.6380
21448SOL    HW267237   5.085   8.512   1.086  0.2880 -1.2635  0.9433
21449SOL     OW67238   0.705   6.297   1.082  0.2394  0.4381 -0.3108
21449SOL    HW167239   0.678   6.385   1.106 -0.0328  0.1277  0.5571
21449SOL    HW267240   0.713   6.250   1.166 -2.0202 -1.0643 -0.8579
21450SOL     OW67241   6.002   9.171   0.257 -0.5371 -0.1634  0.5687
21450SOL    HW167242   5.915   9.206   0.237 -1.1029 -0.4091  2.4311
21450SOL    HW267243   6.017   9.195   0.348 -0.6185 -3.9419  1.7627
21451SOL     OW67244   4.288   0.443   7.479 -0.2151 -0.3052  0.2539
21451SOL    HW167245   4.332   0.520   7.515  1.7217 -0.9528 -0.6407
21451SOL    HW267246   4.262   0.393   7.557  0.2922  0.2770  0.8153
21452SOL     OW67247   0.162   0.001   7.619 -0.0933 -0.0854 -0.2267
21452SOL    HW167248   0.190  -0.063   7.554  1.4762  0.6636 -0.3378
21452SOL    HW267249   0.235   0.063   7.624 -0.8361  0.7187  1.1392
21453SOL     OW67250   4.678   1.433   8.549 -0.3395  0.4970 -0.5654
21453SOL    HW167251   4.607   1.369   8.556  0.5393 -0.4723 -0.2403
21453SOL    HW267252   4.712   1.442   8.638  0.2352  0.5929 -0.7853
21454SOL     OW67253   7.346   8.967   0.576  0.1761 -0.3117  0.2011
21454SOL    HW167254   7.338   8.903   0.506  1.7927  0.2805 -0.5821
21454SOL    HW267255   7.270   8.951   0.632 -0.2040 -1.9650 -0.7151
21455SOL     OW67256   0.404   2.060   6.134 -0.2654  0.0055 -0.7434
21455SOL    HW167257   0.473   2.124   6.114  0.8448 -1.3351 -1.3469
21455SOL    HW267258   0.423   2.031   6.223 -0.4018  0.0520 -0.6983
21456SOL     OW67259   0.837   2.878   8.527 -0.4245 -0.7337  0.5844
21456SOL    HW167260   0.835   2.974   8.535 -0.6018 -0.7293  0.5013
21456SOL    HW267261   0.791   2.847   8.604 -0.4903 -0.7478  0.5390
21457SOL     OW67262   0.203   0.709   9.140  0.5601 -0.4017 -0.4868
21457SOL    HW167263   0.188   0.751   9.055 -0.4251 -0.4719 -0.3663
21457SOL    HW267264   0.192   0.616   9.123  0.0760 -0.3958 -0.2369
21458SOL     OW67265   5.380   8.723   6.561  0.2883  0.2140  0.2038
21458SOL    HW167266   5.422   8.750   6.479  0.2873  1.0583  0.4671
21458SOL    HW267267   5.419   8.639   6.581  1.0083  0.4512 -0.1627
21459SOL     OW67268   5.472   2.330   2.353  0.2207 -0.3837  0.3490
21459SOL    HW167269   5.494   2.264   2.287  2.0122  1.5532 -1.1248
21459SOL    HW267270   5.377   2.322   2.365 -0.0019 -1.4237 -1.7710
21460SOL     OW67271   2.986   3.674   4.940 -0.2319  0.5065  0.1141
21460SOL    HW167272   3.024   3.751   4.981  0.4750  0.7852 -1.0229
21460SOL    HW267273   2.926   3.708   4.875  2.5233  0.2864 -2.7807
21461SOL     OW67274   4.015   2.570   7.736 -0.2964 -0.4376 -0.3414
21461SOL    HW167275   3.920   2.581   7.734 -0.0941  1.8069 -0.3145
21461SOL    HW267276   4.048   2.638   7.677  1.2327 -2.8403 -2.4608
21462SOL     OW67277   2.291   7.089   3.798  0.3499  0.3019  0.0496
21462SOL    HW167278   2.323   7.093   3.708 -0.7854 -2.1105 -0.5401
21462SOL    HW267279   2.197   7.076   3.789  0.1893  0.2602  1.5904
21463SOL     OW67280   4.065   2.812   8.319  0.2726 -0.2443 -0.5047
21463SOL    HW167281   4.034   2.738   8.372 -0.2883 -0.0541 -0.5608
21463SOL    HW267282   4.138   2.777   8.269  1.5694 -0.1568  1.2155
21464SOL     OW67283   2.137   5.458   7.449  0.2774  0.2340  0.3769
21464SOL    HW167284   2.138   5.501   7.364 -2.5489 -2.2575 -1.1341
21464SOL    HW267285   2.172   5.370   7.432 -0.8471 -0.4952  1.6224
21465SOL     OW67286   7.989   1.168   4.400 -0.2345 -0.0594 -0.3175
21465SOL    HW167287   8.007   1.216   4.481 -1.0813 -0.1534 -0.0683
21465SOL    HW267288   7.961   1.081   4.428  0.4947 -0.4432 -0.7493
21466SOL     OW67289   2.526   5.775   6.921  0.4856 -0.3358 -0.4628
21466SOL    HW167290   2.556   5.793   7.010 -1.5701  0.0309  0.1979
21466SOL    HW267291   2.516   5.680   6.919  0.8271 -0.3744 -0.3997
21467SOL     OW67292   8.151   3.097   4.792  0.1361  0.4728  0.3524
21467SOL    HW167293   8.157   3.023   4.851 -0.4091 -0.0600 -0.2388
21467SOL    HW267294   8.226   3.152   4.813 -0.6701  0.8854  2.3101
21468SOL     OW67295   5.071   3.827   7.057  0.0617  0.1154  0.5651
21468SOL    HW167296   5.026   3.876   7.126 -0.4878 -0.0472  0.3334
21468SOL    HW267297   5.001   3.804   6.996  0.6644  0.9158 -0.4457
21469SOL     OW67298   6.771   1.139   3.026  0.1768 -0.2519 -0.3710
21469SOL    HW167299   6.778   1.068   2.962  3.9402  0.2922 -0.8366
21469SOL    HW267300   6.822   1.108   3.101 -0.3603  0.9337  0.5133
21470SOL     OW67301   3.586   3.112   0.481 -0.3155  0.1626  0.2320
21470SOL    HW167302   3.563   3.190   0.431 -0.7993  0.3454  0.7293
21470SOL    HW267303   3.595   3.043   0.415 -1.3819  0.3030 -0.0820
21471SOL     OW67304   4.601   6.838   3.983 -0.3698  0.2117  0.0473
21471SOL    HW167305   4.616   6.829   3.889  1.5290 -2.4185  0.4949
21471SOL    HW267306   4.561   6.755   4.009  0.8248  0.1397  1.8131
21472SOL     OW67307   1.774   5.137   2.121  0.2835  0.5139  0.2614
21472SOL    HW167308   1.856   5.124   2.075  0.5969 -0.6297  1.0808
21472SOL    HW267309   1.746   5.225   2.098  1.6345  0.8387 -0.1758
21473SOL     OW67310   4.960   5.295   5.444  0.7212 -0.3820  0.3436
21473SOL    HW167311   4.955   5.311   5.538 -1.3941 -0.0789  0.2415
21473SOL    HW267312   4.876   5.253   5.423  1.1591 -0.4523 -1.3965
21474SOL     OW67313   4.030   3.214   2.736  0.2783 -0.1179  0.2307
21474SOL    HW167314   4.008   3.142   2.794  1.1450  0.6774  1.5856
21474SOL    HW267315   4.049   3.287   2.794 -1.1105  1.3857 -1.1125
21475SOL     OW67316   1.069   5.473   5.230 -0.3896  0.4153  0.2023
21475SOL    HW167317   1.051   5.472   5.324 -0.2207  0.0233  0.2300
21475SOL    HW267318   1.011   5.406   5.194  2.3038 -2.3162  0.5266
21476SOL     OW67319   5.921   2.888   1.470 -0.1517 -0.3911  0.4081
21476SOL    HW167320   5.924   2.892   1.565 -1.7389 -0.6482  0.4921
21476SOL    HW267321   5.865   2.813   1.450  0.6149 -0.6885 -0.7476
21477SOL     OW67322   8.477   8.326   5.322 -0.1733 -0.0270 -0.6648
21477SOL    HW167323   8.485   8.233   5.302  2.4081 -0.2152  0.7528
21477SOL    HW267324   8.402   8.332   5.381 -0.5194 -1.1730 -0.9746
21478SOL     OW67325   7.399   6.051   1.925  0.5508  0.0311  0.8985
21478SOL    HW167326   7.348   6.053   1.844  0.7361  0.4050  0.7868
21478SOL    HW267327   7.351   5.991   1.982  0.8686 -0.8924  0.2169
21479SOL     OW67328   4.428   6.086   7.316  0.2485 -0.1939  0.2863
21479SOL    HW167329   4.451   6.063   7.226  0.5946 -0.4870  0.4471
21479SOL    HW267330   4.505   6.132   7.350 -1.0524  2.8543 -0.5821
21480SOL     OW67331   5.140   0.065   3.696 -0.3517  0.4580  0.0318
21480SOL    HW167332   5.120  -0.018   3.653  0.3005 -0.0922  0.7838
21480SOL    HW267333   5.076   0.071   3.768  0.2545  0.1176  0.6036
21481SOL     OW67334   7.828   3.935   0.627 -0.0010 -0.4937 -0.0925
21481SOL    HW167335   7.895   3.889   0.678  0.4577 -1.1049 -1.1986
21481SOL    HW267336   7.783   3.991   0.691 -0.3263 -2.1846  1.2149
21482SOL     OW67337   4.038   2.530   1.962  0.5008  1.1211 -0.2356
21482SOL    HW167338   3.993   2.505   1.881  0.5710  2.2127 -0.6284
21482SOL    HW267339   4.025   2.625   1.968 -0.2587  0.9429  1.4998
21483SOL     OW67340   4.638   8.890   5.515  0.2874  0.4816  0.1034
21483SOL    HW167341   4.624   8.980   5.545  2.0970  0.4159  1.3265
21483SOL    HW267342   4.687   8.849   5.587  1.9329 -0.6639 -1.5701
21484SOL     OW67343   8.217   6.781   1.898 -0.5224  0.7117  0.0002
21484SOL    HW167344   8.180   6.707   1.947  0.9513  0.2016  0.4049
21484SOL    HW267345   8.291   6.810   1.951  0.6194  0.6859 -1.5027
21485SOL     OW67346   1.773   0.905   3.118  0.3753  0.1608 -0.2494
21485SOL    HW167347   1.726   0.842   3.064  0.2933 -0.6239  0.7221
21485SOL    HW267348   1.816   0.963   3.055  0.3006 -0.7462 -1.1565
21486SOL     OW67349   5.055   4.044   3.326  0.5995 -0.3418  0.0331
21486SOL    HW167350   4.977   4.094   3.348 -0.1089 -1.6605  0.6457
21486SOL    HW267351   5.036   4.005   3.241  1.6141  1.2948 -0.9981
21487SOL     OW67352   5.761   4.897   2.761  0.1578  0.0546 -0.7542
21487SOL    HW167353   5.840   4.884   2.709  0.3488 -1.3449 -0.1627
21487SOL    HW267354   5.707   4.820   2.743 -0.7490  0.6256 -0.5663
21488SOL     OW67355   6.637   3.500   5.084  0.4495 -0.2339 -0.0936
21488SOL    HW167356   6.559   3.478   5.134  0.6114  0.4395  0.4741
21488SOL    HW267357   6.611   3.491   4.993  0.1023 -1.3258  0.1019
21489SOL     OW67358   1.469   3.043   0.451  0.1174  0.6609 -0.0678
21489SOL    HW167359   1.510   3.124   0.482  0.7288 -0.0111  0.9657
21489SOL    HW267360   1.385   3.070   0.416  0.1046  1.6968  0.7147
21490SOL     OW67361   8.470   3.931   4.025 -0.3192 -0.0942 -1.0077
21490SOL    HW167362   8.462   3.968   4.113  1.1534 -0.1798 -0.8154
21490SOL    HW267363   8.402   3.864   4.022 -0.9665  0.5041 -0.2529
21491SOL     OW67364   3.451   6.060   7.720  0.1486 -0.1051  0.3574
21491SOL    HW167365   3.424   6.108   7.642 -0.6178 -0.3036  0.4900
21491SOL    HW267366   3.513   5.995   7.688 -1.7669 -1.6198 -0.4618
21492SOL     OW67367   0.617   8.604   3.550  0.7884 -0.0475 -0.2187
21492SOL    HW167368   0.624   8.532   3.613  0.9729 -2.6107 -2.9483
21492SOL    HW267369   0.708   8.627   3.531  0.8141 -0.8380 -1.1333
21493SOL     OW67370   4.397   5.565   1.057  0.1911  0.1774  0.0406
21493SOL    HW167371   4.491   5.558   1.068  0.4142  0.4259 -1.4512
21493SOL    HW267372   4.364   5.476   1.068  0.7828 -0.1534 -0.7465
21494SOL     OW67373   3.765   2.044   1.541 -0.5351 -0.1306 -0.4177
21494SOL    HW167374   3.826   1.979   1.507 -1.0777 -0.3546 -1.0015
21494SOL    HW267375   3.735   2.091   1.463 -1.9651 -0.7811 -0.2924
21495SOL     OW67376   7.973   8.838   4.613  0.3397  0.0450 -0.6852
21495SOL    HW167377   8.032   8.778   4.660 -1.3359 -0.4727  0.8844
21495SOL    HW267378   8.030   8.886   4.553  2.2054 -1.0303  0.1467
21496SOL     OW67379   8.126   3.195   1.084 -0.0247 -0.4137 -0.2164
21496SOL    HW167380   8.144   3.285   1.059  1.7201 -1.3296 -2.7045
21496SOL    HW267381   8.210   3.161   1.114 -1.1126 -0.6987  2.8607
21497SOL     OW67382   5.375   8.964   0.593  0.0296  0.1864 -0.4480
21497SOL    HW167383   5.343   8.922   0.673  0.0860  0.3297 -0.3495
21497SOL    HW267384   5.407   9.049   0.622  0.0645  0.2324 -0.6215
21498SOL     OW67385   1.420   5.940   0.056 -0.0524 -0.0529  0.2338
21498SOL    HW167386   1.334   5.898   0.066 -0.2480 -0.0091 -0.9923
21498SOL    HW267387   1.406   6.004  -0.014  1.1754 -0.6144 -0.5550
21499SOL     OW67388   7.858   4.204   2.316 -0.3064 -0.4414  0.2348
21499SOL    HW167389   7.941   4.250   2.332 -0.1083 -1.4171  2.3635
21499SOL    HW267390   7.821   4.191   2.403 -3.1676  0.6945 -0.7132
21500SOL     OW67391   8.648   8.982   7.974 -0.0306 -0.2628 -0.1680
21500SOL    HW167392   8.659   9.012   8.064 -1.2669  1.8106 -0.6332
21500SOL    HW267393   8.592   8.906   7.981 -0.4095  0.0899  0.8059
21501SOL     OW67394   8.111   8.081   0.092 -0.2127 -0.5361 -0.0190
21501SOL    HW167395   8.055   8.036   0.155  1.2884 -1.7836  0.4959
21501SOL    HW267396   8.181   8.118   0.145  1.5096 -2.2653 -0.9524
21502SOL     OW67397   8.907   0.760   4.652 -0.7046 -0.0104 -0.3908
21502SOL    HW167398   8.831   0.796   4.605 -1.4885  0.1485  0.9470
21502SOL    HW267399   8.905   0.803   4.737 -0.0820 -1.2509  0.2758
21503SOL     OW67400   7.169   1.643   4.278  0.6588  0.2928  0.3633
21503SOL    HW167401   7.231   1.634   4.205  0.0155 -0.6501 -0.0861
21503SOL    HW267402   7.087   1.606   4.245  0.7836 -1.7431  2.0910
21504SOL     OW67403   7.553   1.370   2.647  0.1150  0.1523  0.5215
21504SOL    HW167404   7.494   1.357   2.721  0.7130  0.9157  1.1552
21504SOL    HW267405   7.616   1.298   2.653 -0.6728 -0.5979 -0.0887
21505SOL     OW67406   2.176   8.078   2.620  0.1531  0.0153  0.4246
21505SOL    HW167407   2.215   8.101   2.536  1.6916  0.3521  1.1913
21505SOL    HW267408   2.088   8.118   2.618 -1.1654 -2.6583 -2.2507
21506SOL     OW67409   3.966   1.658   1.086  0.2376  0.2551 -0.0263
21506SOL    HW167410   4.031   1.728   1.089  1.1320 -0.5136 -0.9590
21506SOL    HW267411   3.992   1.597   1.155  0.0410  0.3428  0.1265
21507SOL     OW67412   0.721   2.890   6.535  0.4874 -0.0838 -0.1529
21507SOL    HW167413   0.802   2.839   6.530  1.3758  1.2585  0.0514
21507SOL    HW267414   0.703   2.914   6.444  0.0350 -0.7978 -0.2561
21508SOL     OW67415   7.863   4.027   3.709 -0.3528  0.3770 -0.0351
21508SOL    HW167416   7.822   4.035   3.623  0.0216 -3.0805 -0.6872
21508SOL    HW267417   7.951   3.993   3.690  0.2615  0.9117  1.6905
21509SOL     OW67418   2.061   8.878   4.648 -0.5668  0.0805 -0.3826
21509SOL    HW167419   2.006   8.827   4.708 -0.6357 -0.0356 -0.5446
21509SOL    HW267420   2.062   8.828   4.567  0.5121 -0.3796 -0.1091
21510SOL     OW67421   3.696   4.255   6.161 -0.1011 -0.5153 -0.3255
21510SOL    HW167422   3.779   4.263   6.207  0.2266  0.1547 -1.0151
21510SOL    HW267423   3.707   4.179   6.103 -0.5872 -1.4890  0.8218
21511SOL     OW67424   3.232   4.622   8.833  0.1578 -0.0659  0.2139
21511SOL    HW167425   3.152   4.574   8.810  1.3674 -2.0384 -0.1411
21511SOL    HW267426   3.243   4.685   8.761  0.0428 -1.2605 -0.8957
21512SOL     OW67427   6.116   1.693   5.773 -0.2134  0.4002  0.4764
21512SOL    HW167428   6.162   1.711   5.854  0.4434 -0.0998  0.2205
21512SOL    HW267429   6.084   1.603   5.782  1.7284 -0.4611 -0.6577
21513SOL     OW67430   5.550   8.726   3.983 -0.3757 -0.2001  0.1118
21513SOL    HW167431   5.482   8.744   4.049 -1.9861  0.2139 -1.5809
21513SOL    HW267432   5.586   8.812   3.962 -0.1892 -0.2780  0.1103
21514SOL     OW67433   0.327   7.112   6.263 -0.4582 -0.4174  0.2780
21514SOL    HW167434   0.269   7.171   6.216 -2.0858 -1.9303  0.2826
21514SOL    HW267435   0.279   7.091   6.344  0.6530 -0.7511  0.8759
21515SOL     OW67436   5.348   8.113   6.254  0.0634  0.3144 -0.3142
21515SOL    HW167437   5.311   8.154   6.176 -1.9591  0.0969  0.4825
21515SOL    HW267438   5.360   8.022   6.229  0.3766  0.4526 -0.6824
21516SOL     OW67439   1.536   6.852   8.304  0.3824  0.3252  0.4025
21516SOL    HW167440   1.554   6.940   8.338 -0.5588 -0.1531  2.2739
21516SOL    HW267441   1.528   6.798   8.383  0.8578 -1.4359 -0.7154
21517SOL     OW67442   4.243   4.245   6.471 -0.4779 -0.5756  0.1528
21517SOL    HW167443   4.309   4.213   6.533 -0.4473 -0.2799  0.2744
21517SOL    HW267444   4.183   4.171   6.460  0.3367 -1.1368 -0.6184
21518SOL     OW67445   7.420   3.284   1.386 -0.3914  0.3198  0.7346
21518SOL    HW167446   7.374   3.282   1.302  0.6295  0.6459  0.1363
21518SOL    HW267447   7.441   3.193   1.404 -0.2335  0.2898  0.4091
21519SOL     OW67448   3.993   5.784   9.008 -0.4566  0.0050 -0.1349
21519SOL    HW167449   3.916   5.810   9.057  0.1722 -0.2473  1.0278
21519SOL    HW267450   4.061   5.772   9.074  0.1626 -1.3007 -0.9544
21520SOL     OW67451   2.316   7.438   5.343  0.5338 -0.1889  0.1840
21520SOL    HW167452   2.245   7.377   5.324 -1.7477  2.5016 -0.6312
21520SOL    HW267453   2.349   7.412   5.429  0.8635 -3.4860 -0.7926
21521SOL     OW67454   6.885   3.672   1.715  0.4943  0.6152 -0.0527
21521SOL    HW167455   6.945   3.607   1.679 -1.1433 -1.1957  0.3206
21521SOL    HW267456   6.928   3.702   1.795  2.2442  1.6154 -1.2982
21522SOL     OW67457   5.056   0.934   0.188  0.5959 -0.0011 -0.1574
21522SOL    HW167458   5.013   0.885   0.119 -0.0161 -0.3851  0.4809
21522SOL    HW267459   4.989   0.944   0.256  0.9953  0.8930  0.1245
21523SOL     OW67460   6.545   7.745   7.258  0.3472 -0.1102 -0.1827
21523SOL    HW167461   6.500   7.810   7.312 -1.5679  1.2178 -3.1274
21523SOL    HW267462   6.619   7.792   7.220 -0.6842  0.2888 -1.8289
21524SOL     OW67463   5.512   4.584   3.735  0.1467 -0.1935  0.2017
21524SOL    HW167464   5.527   4.590   3.830  0.3109  1.2876  0.1025
21524SOL    HW267465   5.508   4.490   3.718  0.1468 -0.4950  1.6729
21525SOL     OW67466   4.436   4.053   2.082 -0.6532  0.4172  0.3946
21525SOL    HW167467   4.454   4.056   1.988  1.2775 -1.4395  0.6410
21525SOL    HW267468   4.426   4.145   2.108  0.0301  1.0201 -1.3854
21526SOL     OW67469   3.274   2.417   8.322  0.6014 -0.1716 -0.1836
21526SOL    HW167470   3.234   2.423   8.236 -0.4269 -0.3960  0.2596
21526SOL    HW267471   3.368   2.405   8.305  0.2319 -1.6965 -1.2770
21527SOL     OW67472   7.428   5.796   9.165 -0.0168  0.3545  0.6316
21527SOL    HW167473   7.429   5.701   9.158 -2.7138  0.1618  1.5724
21527SOL    HW267474   7.497   5.816   9.229  2.4476 -0.6185 -1.5211
21528SOL     OW67475   3.522   3.683   8.768  0.3282 -0.0982 -0.1235
21528SOL    HW167476   3.501   3.775   8.787  0.6042 -0.2286  0.8789
21528SOL    HW267477   3.499   3.637   8.849  0.3932 -0.8810 -0.5468
21529SOL     OW67478   6.821   3.073   2.106  0.4390  0.4637  0.2625
21529SOL    HW167479   6.803   2.992   2.153  0.8161 -1.7686 -3.0382
21529SOL    HW267480   6.755   3.076   2.037  2.7453  0.6865 -2.1367
21530SOL     OW67481   1.993   6.082   7.206 -0.2133 -0.4445 -0.1893
21530SOL    HW167482   1.898   6.090   7.195  0.0200 -0.8407 -3.3054
21530SOL    HW267483   2.022   6.028   7.133  2.6331  1.0709 -0.3382
21531SOL     OW67484   7.587   8.239   2.347  0.3891 -0.4857  0.5567
21531SOL    HW167485   7.535   8.181   2.403  0.3245 -0.6917  0.2869
21531SOL    HW267486   7.650   8.181   2.305  2.9541  0.1519  3.2095
21532SOL     OW67487   5.972   1.907   2.646  0.3772  0.4041  0.2067
21532SOL    HW167488   5.975   1.969   2.719  0.3701  1.7393 -0.8941
21532SOL    HW267489   5.891   1.928   2.599  0.3021 -0.5451 -0.1174
21533SOL     OW67490   3.654   4.522   5.500  0.2813 -0.0711  0.3695
21533SOL    HW167491   3.728   4.502   5.557 -0.0230 -0.3196  0.6855
21533SOL    HW267492   3.650   4.618   5.498  0.6290 -0.0592  0.3247
21534SOL     OW67493   4.498   6.082   0.697  0.0999 -0.1288  0.7278
21534SOL    HW167494   4.525   6.096   0.606  0.8392  0.7268  1.0578
21534SOL    HW267495   4.452   6.163   0.720  0.7813  0.0787  1.4035
21535SOL     OW67496   6.271   4.732   9.162 -0.2354 -0.3531 -0.0350
21535SOL    HW167497   6.199   4.795   9.152 -0.4007 -0.0908  2.3336
21535SOL    HW267498   6.350   4.786   9.160 -0.0891 -0.5645 -1.9127
21536SOL     OW67499   6.159   7.067   8.314  0.2224 -0.8738  0.4145
21536SOL    HW167500   6.085   7.013   8.342 -1.5395  1.9188  1.6566
21536SOL    HW267501   6.123   7.123   8.246  1.1746  0.4756  0.9686
21537SOL     OW67502   2.668   5.237   6.890 -0.3624  0.2312 -0.4815
21537SOL    HW167503   2.745   5.204   6.845  0.3550  1.4413 -0.1962
21537SOL    HW267504   2.598   5.175   6.868  0.8707 -1.3519 -0.0377
21538SOL     OW67505   7.736   2.745   2.348 -0.2860  0.1653 -0.5529
21538SOL    HW167506   7.808   2.807   2.335 -0.2947  0.5611  1.0617
21538SOL    HW267507   7.668   2.797   2.391 -1.3057 -0.3602 -1.4738
21539SOL     OW67508   9.216   2.786   1.260  0.2469  0.4890 -0.7434
21539SOL    HW167509   9.240   2.869   1.218  0.1582  0.3720 -1.0271
21539SOL    HW267510   9.180   2.733   1.189  0.6169  0.0844 -0.6301
21540SOL     OW67511   3.115   3.039   5.904 -0.5309 -0.9511 -0.5423
21540SOL    HW167512   3.050   3.082   5.959  2.2420  3.4591 -0.2504
21540SOL    HW267513   3.121   3.093   5.826  0.5570 -3.0799 -2.0491
21541SOL     OW67514   2.877   3.302   3.850 -0.2966 -0.1036 -0.0601
21541SOL    HW167515   2.821   3.333   3.922 -0.4723  1.0886 -0.6719
21541SOL    HW267516   2.957   3.271   3.892 -0.7692 -0.3019  0.7103
21542SOL     OW67517   4.864   2.879   1.425  0.0139 -0.5515 -0.6039
21542SOL    HW167518   4.930   2.868   1.494  1.1283  1.2674 -1.3136
21542SOL    HW267519   4.800   2.940   1.463  0.4295  0.1550 -1.0253
21543SOL     OW67520   2.859   8.645   8.775 -0.1744  0.0218 -0.2952
21543SOL    HW167521   2.775   8.639   8.730 -0.0486  0.1252 -0.5426
21543SOL    HW267522   2.844   8.705   8.848  0.4390  2.4547 -2.0622
21544SOL     OW67523   7.431   8.519   7.144  0.0886 -0.0658  0.4266
21544SOL    HW167524   7.363   8.458   7.116  0.7578 -0.8995  0.5836
21544SOL    HW267525   7.389   8.572   7.212 -0.5163 -0.3080  0.2457
21545SOL     OW67526   3.102   6.757   2.137  0.7635  0.0263  0.7556
21545SOL    HW167527   3.124   6.674   2.180  2.5454  0.9776  1.7964
21545SOL    HW267528   3.039   6.799   2.196 -0.1425 -0.5721  0.2254
21546SOL     OW67529   1.254   3.587   3.973  0.1830  0.1863  0.1918
21546SOL    HW167530   1.247   3.601   4.067  1.0182  0.0680  0.2784
21546SOL    HW267531   1.346   3.565   3.959  0.0864  0.3109 -0.6671
21547SOL     OW67532   3.356   1.361   0.744  0.2207  1.2427 -0.0897
21547SOL    HW167533   3.329   1.396   0.658 -0.3815  0.7474 -0.1112
21547SOL    HW267534   3.443   1.398   0.758  1.1297 -0.0884 -1.7458
21548SOL     OW67535   5.518   2.265   5.626 -0.3087  0.6131  0.6168
21548SOL    HW167536   5.587   2.203   5.601 -0.7745 -0.4761  1.8870
21548SOL    HW267537   5.564   2.347   5.642  0.5842  0.1292  0.6133
21549SOL     OW67538   3.643   0.742   2.008 -0.8038 -0.0952  0.3630
21549SOL    HW167539   3.653   0.698   2.092 -2.2723  1.4529  1.4278
21549SOL    HW267540   3.663   0.675   1.943  1.9103 -0.9428  1.9100
21550SOL     OW67541   2.828   0.365   4.953 -0.6100 -0.5173  0.4472
21550SOL    HW167542   2.915   0.339   4.924 -0.3481  0.0964  0.6427
21550SOL    HW267543   2.778   0.377   4.873  0.1806  1.4178  0.1793
21551SOL     OW67544   3.397   1.581   1.389  0.1607 -0.3391 -0.1848
21551SOL    HW167545   3.394   1.485   1.385 -0.4526 -0.3800  0.8698
21551SOL    HW267546   3.307   1.606   1.409  0.4152  0.4337  0.0086
21552SOL     OW67547   6.294   0.202   2.579 -0.0316  0.0373 -0.2909
21552SOL    HW167548   6.369   0.260   2.569  0.1797 -0.0585  0.6679
21552SOL    HW267549   6.229   0.255   2.624  0.4728 -0.7131  1.3730
21553SOL     OW67550   7.032   4.451   3.610 -0.4661 -0.2145  0.4476
21553SOL    HW167551   6.972   4.416   3.544  1.4302 -1.2725 -0.7975
21553SOL    HW267552   7.070   4.528   3.568  1.2146 -1.2484 -0.0235
21554SOL     OW67553   3.345   2.713   1.530  0.4187  0.4920  0.5488
21554SOL    HW167554   3.383   2.628   1.508 -0.3586  0.3355 -0.2684
21554SOL    HW267555   3.256   2.693   1.560  0.6396  0.9223  1.5395
21555SOL     OW67556   6.550   5.946   5.179  0.0419  0.4295  0.0736
21555SOL    HW167557   6.488   6.011   5.210 -0.1145  0.7802 -0.9347
21555SOL    HW267558   6.633   5.970   5.220 -0.7828 -1.1401  2.9551
21556SOL     OW67559   7.559   5.995   3.240  0.4806  0.2088 -0.5024
21556SOL    HW167560   7.614   6.074   3.236 -0.3760  0.9734  1.7167
21556SOL    HW267561   7.522   5.996   3.328 -0.6474 -1.9658 -0.9020
21557SOL     OW67562   4.490   1.003   6.430  0.0985 -0.9560 -0.0820
21557SOL    HW167563   4.516   0.974   6.343  2.4627  0.5779  0.0330
21557SOL    HW267564   4.552   0.961   6.489  0.7372  0.7291  0.4926
21558SOL     OW67565   4.876   7.670   5.123 -0.1486  0.2217  0.5864
21558SOL    HW167566   4.839   7.706   5.042  2.4107  2.0618  0.0921
21558SOL    HW267567   4.909   7.584   5.097  0.1544  0.5667 -0.2327
21559SOL     OW67568   3.079   4.090   6.344  0.1749  0.0784  0.1179
21559SOL    HW167569   3.008   4.032   6.373 -0.3638  0.2756 -0.7831
21559SOL    HW267570   3.053   4.177   6.374 -0.4016  0.2889 -0.9487
21560SOL     OW67571   8.974   8.480   0.982 -0.4325  0.1684  0.2473
21560SOL    HW167572   8.910   8.419   0.946 -0.0920 -0.3550  0.5108
21560SOL    HW267573   8.960   8.476   1.077 -1.0175  1.1920  0.2150
21561SOL     OW67574   3.803   7.928   8.009  0.1007  0.4313  0.4540
21561SOL    HW167575   3.789   7.998   8.072  1.7854 -0.0649  1.4537
21561SOL    HW267576   3.857   7.864   8.056 -2.6504 -2.3512  0.1469
21562SOL     OW67577   1.223   4.272   0.312  0.2845  0.3082 -0.3725
21562SOL    HW167578   1.143   4.266   0.365  1.0329 -1.4262  0.6219
21562SOL    HW267579   1.273   4.343   0.352  0.5320 -0.5259  0.8254
21563SOL     OW67580   5.225   6.628   8.151  0.0420 -0.1331 -0.0735
21563SOL    HW167581   5.250   6.540   8.124  0.3408 -0.2482  0.5475
21563SOL    HW267582   5.308   6.670   8.175 -0.1746  0.0741  0.3241
21564SOL     OW67583   5.550   7.529   7.301 -0.7206 -0.6423 -0.0099
21564SOL    HW167584   5.637   7.503   7.332 -0.1623  1.1846  0.0615
21564SOL    HW267585   5.491   7.509   7.374 -0.0470 -0.1206  0.6893
21565SOL     OW67586   4.328   2.153   4.176 -0.4987 -0.1038 -0.2553
21565SOL    HW167587   4.374   2.192   4.101 -0.8530 -0.0236 -0.4358
21565SOL    HW267588   4.243   2.127   4.140 -1.2809  1.3441  0.4784
21566SOL     OW67589   3.224   8.301   6.961 -0.2221  0.0211 -0.0112
21566SOL    HW167590   3.250   8.210   6.947  0.1077  0.1365 -0.1479
21566SOL    HW267591   3.134   8.295   6.994 -0.9324 -0.2649 -1.8825
21567SOL     OW67592   6.960   5.657   9.135 -0.0580  0.1375  0.2834
21567SOL    HW167593   7.003   5.596   9.194  0.2366  0.0988  0.0329
21567SOL    HW267594   6.918   5.600   9.069  1.5944  0.2250 -0.9072
21568SOL     OW67595   8.239   2.275   4.155 -0.3753 -0.0090  0.3405
21568SOL    HW167596   8.164   2.334   4.144  0.7267  1.0566 -2.2656
21568SOL    HW267597   8.313   2.322   4.117  1.2450 -1.8216  1.0756
21569SOL     OW67598   8.002   1.863   6.854 -0.5019  0.1059 -0.2037
21569SOL    HW167599   8.084   1.911   6.841 -0.6397  1.0413  2.0021
21569SOL    HW267600   7.935   1.918   6.815 -0.5540  1.3881  1.6013
21570SOL     OW67601   9.152   5.674   3.902  0.3869  0.4571 -0.8525
21570SOL    HW167602   9.110   5.759   3.913  1.9818  1.2731 -0.6706
21570SOL    HW267603   9.245   5.691   3.919  0.6126 -1.5382  0.1894
21571SOL     OW67604   8.076   2.716   1.110  0.6883 -0.0169  0.3311
21571SOL    HW167605   8.008   2.776   1.139  1.0321  0.3529  0.3732
21571SOL    HW267606   8.050   2.692   1.021 -0.4171 -1.2225  0.9319
21572SOL     OW67607   0.530   6.529   2.458 -0.0050 -0.4178  0.3573
21572SOL    HW167608   0.590   6.601   2.479  0.9360 -0.0595 -3.0641
21572SOL    HW267609   0.443   6.565   2.476  0.5878 -0.0596  2.9173
21573SOL     OW67610   2.276   1.734   8.395  0.1130  0.1706  0.2510
21573SOL    HW167611   2.311   1.660   8.344  1.0843  0.5085  0.3949
21573SOL    HW267612   2.181   1.721   8.394  0.2852 -1.3148  0.6193
21574SOL     OW67613   3.881   0.648   6.535 -0.2980  0.8977 -0.1199
21574SOL    HW167614   3.971   0.641   6.567 -0.5999  0.3238  0.6355
21574SOL    HW267615   3.827   0.620   6.609 -0.9598 -1.6476 -1.4478
21575SOL     OW67616   8.231   4.165   1.520  0.1631  0.6018  0.0811
21575SOL    HW167617   8.267   4.120   1.444 -1.3820  0.9143 -0.8775
21575SOL    HW267618   8.137   4.163   1.507 -0.0612  2.0667  1.1879
21576SOL     OW67619   9.157   3.733   8.362  1.0463 -0.5646 -0.2962
21576SOL    HW167620   9.193   3.777   8.439  1.1417 -0.9497 -0.1142
21576SOL    HW267621   9.218   3.754   8.291 -0.1111  1.4621 -0.7606
21577SOL     OW67622   1.653   2.156   3.657  0.1461  0.2945 -0.0445
21577SOL    HW167623   1.591   2.227   3.638 -2.0108 -1.2590  0.6696
21577SOL    HW267624   1.684   2.175   3.745 -0.5326  0.3162  0.2014
21578SOL     OW67625   2.849   0.653   3.635 -0.4661  0.5566  0.2143
21578SOL    HW167626   2.813   0.586   3.577 -2.2996 -0.0973  2.0001
21578SOL    HW267627   2.825   0.736   3.594 -1.9241  0.1036  0.1107
21579SOL     OW67628   1.679   7.971   4.148 -0.1004  0.5888  0.5009
21579SOL    HW167629   1.752   7.994   4.205 -0.4655  1.8036  0.4939
21579SOL    HW267630   1.713   7.900   4.093  0.7541  0.4793  1.1583
21580SOL     OW67631   2.864   8.817   3.528  0.5697  1.0138 -0.0440
21580SOL    HW167632   2.935   8.761   3.560 -0.7110  0.0656  1.2812
21580SOL    HW267633   2.819   8.763   3.462 -1.8337 -0.4353  2.5732
21581SOL     OW67634   2.031   8.328   1.773 -0.1933  0.0086 -0.2000
21581SOL    HW167635   1.961   8.308   1.835  0.4860 -0.9531  0.2796
21581SOL    HW267636   2.055   8.243   1.736 -0.9964  0.6143 -2.2709
21582SOL     OW67637   1.234   7.995   6.750 -0.0783 -0.1969 -0.4026
21582SOL    HW167638   1.202   8.043   6.673  0.0017 -1.4191 -1.2239
21582SOL    HW267639   1.278   7.918   6.714  2.4394  0.5926  0.7582
21583SOL     OW67640   6.659   2.046   8.284 -0.4667 -0.3657  0.0969
21583SOL    HW167641   6.607   2.097   8.346 -0.2495 -0.8577  0.7004
21583SOL    HW267642   6.654   2.095   8.202 -1.8283 -0.3624  0.1565
21584SOL     OW67643   5.524   3.733   3.272 -0.1219 -0.0746  0.7980
21584SOL    HW167644   5.608   3.776   3.259  0.1361 -0.8765 -0.3477
21584SOL    HW267645   5.474   3.754   3.192 -0.3067 -1.1596  0.6108
21585SOL     OW67646   1.922   4.769   2.443  0.2529  0.0258  0.0799
21585SOL    HW167647   1.906   4.778   2.537 -0.5976  1.4179 -0.1526
21585SOL    HW267648   1.983   4.840   2.423  0.2440 -0.1171 -0.4585
21586SOL     OW67649   6.848   7.116   7.118 -0.5516 -0.2662  0.2168
21586SOL    HW167650   6.844   7.020   7.113  0.7795 -0.3267 -0.1314
21586SOL    HW267651   6.776   7.140   7.176 -1.7586 -1.3680 -0.7495
21587SOL     OW67652   0.982   4.692   1.866 -0.1773 -0.2591 -0.5366
21587SOL    HW167653   1.064   4.700   1.817  0.1219  1.3719  0.1598
21587SOL    HW267654   0.945   4.781   1.864 -2.2307 -1.0853 -1.3177
21588SOL     OW67655   2.169   4.649   6.209 -0.2770  0.0812  0.0637
21588SOL    HW167656   2.118   4.644   6.290 -0.7257  1.3922 -0.1146
21588SOL    HW267657   2.103   4.655   6.139  0.1042  1.0414 -0.2251
21589SOL     OW67658   7.843   1.624   2.556 -0.0968  0.4578 -0.2624
21589SOL    HW167659   7.861   1.540   2.598 -0.5410 -0.1763 -1.2949
21589SOL    HW267660   7.798   1.676   2.622 -1.4201 -0.7664 -0.1662
21590SOL     OW67661   0.351   2.091   1.802 -0.1266 -0.0166 -0.2605
21590SOL    HW167662   0.434   2.097   1.755  0.3834 -0.2217  0.5908
21590SOL    HW267663   0.284   2.104   1.734  0.5991  0.3991 -0.9146
21591SOL     OW67664   6.232   5.180   7.418  0.0129  0.2286 -0.2274
21591SOL    HW167665   6.325   5.200   7.424  0.2835 -1.3942  1.9422
21591SOL    HW267666   6.190   5.265   7.406  1.7455  0.9897 -1.1955
21592SOL     OW67667   3.125   2.756   8.295  0.0350  0.5056  0.1583
21592SOL    HW167668   3.139   2.689   8.228  0.9395 -1.7428  2.4378
21592SOL    HW267669   3.173   2.832   8.263  0.6143 -0.5475 -1.6380
21593SOL     OW67670   5.673   8.793   5.222  0.4537  0.1721 -0.4519
21593SOL    HW167671   5.695   8.728   5.156  1.6368  0.5878 -0.4886
21593SOL    HW267672   5.588   8.765   5.256 -0.4846  0.2860 -2.5487
21594SOL     OW67673   5.304   7.044   8.526  0.5480  0.0527  0.0591
21594SOL    HW167674   5.367   7.117   8.530  0.2627  0.2741  3.0134
21594SOL    HW267675   5.226   7.083   8.487  1.6051  0.2725 -1.9251
21595SOL     OW67676   3.213   3.042   7.811 -0.2503 -0.1294 -0.4819
21595SOL    HW167677   3.215   3.137   7.812 -0.4692 -0.1227  0.8454
21595SOL    HW267678   3.278   3.017   7.745 -1.5986  0.9401 -2.2781
21596SOL     OW67679   4.501   6.132   4.968  0.7017 -0.5627  0.3857
21596SOL    HW167680   4.594   6.116   4.981  1.0675 -0.8379 -2.1971
21596SOL    HW267681   4.483   6.103   4.879 -1.6510  0.4914  0.4350
21597SOL     OW67682   8.556   8.838   9.014 -0.6467  0.1626  0.1780
21597SOL    HW167683   8.557   8.933   9.020  0.3340  0.1085  1.1379
21597SOL    HW267684   8.574   8.819   8.922  0.8404  0.9099  0.2838
21598SOL     OW67685   5.963   6.126   6.607  0.3407 -0.2861  0.2913
21598SOL    HW167686   6.047   6.083   6.592 -0.3565 -1.5644 -0.1130
21598SOL    HW267687   5.949   6.119   6.701  0.9018  0.3767  0.4327
21599SOL     OW67688   3.009   4.045   0.793 -0.3619  0.0357 -0.3134
21599SOL    HW167689   3.091   4.082   0.823 -1.3380  0.6214  1.8001
21599SOL    HW267690   3.025   3.951   0.789  1.1124  0.3172 -2.3924
21600SOL     OW67691   6.073   2.597   5.678  0.3065  0.1531  0.5464
21600SOL    HW167692   6.057   2.597   5.583  1.0856 -1.3780  0.3836
21600SOL    HW267693   6.165   2.625   5.686  0.3810 -0.1605  0.8063
21601SOL     OW67694   6.923   5.201   3.558 -0.0681  0.4207 -0.1768
21601SOL    HW167695   6.947   5.216   3.467  1.9591  0.7989  0.3604
21601SOL    HW267696   6.990   5.248   3.608  0.1081 -1.4894  1.5064
21602SOL     OW67697   4.884   1.130   5.652  0.0618  0.5112  0.2483
21602SOL    HW167698   4.881   1.177   5.569 -1.8356 -0.2072 -0.1470
21602SOL    HW267699   4.918   1.193   5.715  2.0929  0.9038 -1.1261
21603SOL     OW67700   7.292   8.798   5.118 -0.5348 -0.4909  0.1819
21603SOL    HW167701   7.199   8.781   5.131 -0.2900 -2.3206 -0.2455
21603SOL    HW267702   7.304   8.888   5.149 -1.8574 -1.2001  3.1195
21604SOL     OW67703   8.218   2.740   8.834  0.3022 -0.1259  0.6093
21604SOL    HW167704   8.300   2.783   8.859  0.9509 -0.6164 -0.5736
21604SOL    HW267705   8.149   2.799   8.864  1.1528  1.7281 -0.9031
21605SOL     OW67706   5.906   1.109   4.436  0.5461  0.3537 -0.4294
21605SOL    HW167707   5.843   1.040   4.457  2.2207 -0.7770  1.1461
21605SOL    HW267708   5.852   1.181   4.402 -1.5021 -0.8054  0.1943
21606SOL     OW67709   7.308   6.144   8.630 -0.4920  0.0847  0.1381
21606SOL    HW167710   7.314   6.126   8.537  1.3850  3.1755 -0.4803
21606SOL    HW267711   7.348   6.068   8.672  0.3688 -0.5155 -1.6796
21607SOL     OW67712   4.280   0.699   2.528  0.0122 -0.4421  0.8465
21607SOL    HW167713   4.235   0.616   2.544 -1.0697  0.2067  1.2458
21607SOL    HW267714   4.276   0.711   2.433 -0.9747 -0.2236  0.9125
21608SOL     OW67715   1.134   6.384   1.009 -0.4872  0.4688 -0.5740
21608SOL    HW167716   1.087   6.347   1.084  0.9923  0.0725  0.1897
21608SOL    HW267717   1.137   6.478   1.026 -0.3304  0.4016 -0.2262
21609SOL     OW67718   8.999   5.748   1.300  0.0268  0.2558 -0.0247
21609SOL    HW167719   8.913   5.763   1.339  0.2449  0.7595  0.2591
21609SOL    HW267720   8.980   5.693   1.223 -0.3774 -0.9367  0.8923
21610SOL     OW67721   5.144   0.460   6.508 -0.0329 -0.5596 -0.0024
21610SOL    HW167722   5.111   0.390   6.564 -2.8296  0.3278 -0.3688
21610SOL    HW267723   5.140   0.538   6.564  3.9046 -0.6396  0.7163
21611SOL     OW67724   6.629   7.191   9.038 -0.2764  0.6775  0.1071
21611SOL    HW167725   6.709   7.148   9.069 -0.1908  2.3681  2.5102
21611SOL    HW267726   6.567   7.183   9.110 -2.3521 -0.5656 -1.6982
21612SOL     OW67727   4.322   4.108   7.055 -0.5140 -0.4384  0.5352
21612SOL    HW167728   4.291   4.087   6.967  1.1876 -1.0873  0.0385
21612SOL    HW267729   4.257   4.069   7.113 -1.0118 -1.1155 -0.4310
21613SOL     OW67730   3.873   0.569   7.196 -0.2083  0.2315  0.0731
21613SOL    HW167731   3.961   0.573   7.233 -0.2597 -0.3909  0.2835
21613SOL    HW267732   3.886   0.544   7.104 -0.1932 -0.6431  0.3018
21614SOL     OW67733   4.572   4.596   6.643 -0.6602 -0.1744 -0.2414
21614SOL    HW167734   4.612   4.599   6.556 -2.6991  2.2598 -1.2084
21614SOL    HW267735   4.490   4.549   6.630 -1.3875  0.9629  0.1434
21615SOL     OW67736   5.208   2.873   1.982  0.5905 -0.8299  0.2869
21615SOL    HW167737   5.285   2.931   1.975  0.4051  0.1728  4.1270
21615SOL    HW267738   5.241   2.796   2.027 -0.3472 -1.0541  0.6062
21616SOL     OW67739   5.938   3.002   3.867  0.0604  0.5062 -0.8577
21616SOL    HW167740   6.004   2.947   3.825 -0.2813  0.4381 -1.3108
21616SOL    HW267741   5.987   3.079   3.896  0.7567 -0.4914  0.7557
21617SOL     OW67742   1.996   1.649   8.777 -0.2870 -0.2717  0.5590
21617SOL    HW167743   1.978   1.623   8.868 -1.8086 -2.7165 -0.3308
21617SOL    HW267744   1.958   1.737   8.770  1.6521  0.8724  2.7411
21618SOL     OW67745   1.764   2.320   5.019  0.1436  0.1239 -0.0579
21618SOL    HW167746   1.700   2.377   5.063  0.5007  1.2018 -0.8928
21618SOL    HW267747   1.794   2.371   4.945  0.7683 -1.0286 -0.6224
21619SOL     OW67748   4.557   4.115   4.691 -0.2644  0.4434  0.5097
21619SOL    HW167749   4.500   4.172   4.742  0.4588  0.3002  1.5195
21619SOL    HW267750   4.498   4.062   4.638 -1.0393  0.6735  1.1272
21620SOL     OW67751   1.263   4.841   1.169 -0.2228 -0.2074 -0.1217
21620SOL    HW167752   1.317   4.821   1.092 -1.6187 -1.9905 -0.7020
21620SOL    HW267753   1.176   4.861   1.134 -0.7051 -0.3418  0.9547
21621SOL     OW67754   7.084   2.165   6.376 -0.1507 -0.2587 -0.2754
21621SOL    HW167755   7.033   2.123   6.446 -0.5574 -0.0800 -0.4630
21621SOL    HW267756   7.111   2.249   6.414  0.5716 -0.6301  0.0613
21622SOL     OW67757   5.058   0.088   8.114  0.0675 -0.3442  0.3983
21622SOL    HW167758   5.097   0.039   8.043  1.5750 -0.6037  1.3593
21622SOL    HW267759   5.041   0.023   8.182  1.1481  0.2601  1.2916
21623SOL     OW67760   6.783   3.385   3.784  0.4787 -0.2493  0.7341
21623SOL    HW167761   6.812   3.346   3.867  2.2957  1.5825  1.0503
21623SOL    HW267762   6.746   3.469   3.808 -1.1352 -0.6596 -0.1525
21624SOL     OW67763   5.420   5.887   1.609  0.0270 -0.0512 -0.2248
21624SOL    HW167764   5.391   5.918   1.695 -0.8702  0.2051 -0.6064
21624SOL    HW267765   5.513   5.911   1.605  0.0436  0.0431  0.6231
21625SOL     OW67766   4.182   6.309   8.621 -0.1289 -0.5626  0.1066
21625SOL    HW167767   4.242   6.353   8.562 -2.3534  2.4007 -0.1786
21625SOL    HW267768   4.237   6.277   8.692  1.7951  2.6303  0.2411
21626SOL     OW67769   7.893   1.400   2.664  0.4100  0.0447  0.0344
21626SOL    HW167770   7.847   1.316   2.663 -0.8092  0.6873 -0.6207
21626SOL    HW267771   7.971   1.385   2.611  0.2265 -0.6847 -0.0443
21627SOL     OW67772   2.584   7.882   8.810 -0.9103 -0.1246 -0.2664
21627SOL    HW167773   2.668   7.901   8.768 -0.1444 -2.3235  0.1646
21627SOL    HW267774   2.588   7.929   8.893  0.8398 -1.8063  0.6848
21628SOL     OW67775   0.834   2.182   1.867  0.0570  0.3553 -0.6799
21628SOL    HW167776   0.871   2.205   1.781 -0.5174 -0.3407 -1.1253
21628SOL    HW267777   0.763   2.246   1.880 -0.6647 -0.2971 -1.3024
21629SOL     OW67778   8.223   0.849   3.439  0.1559 -0.1024  0.1684
21629SOL    HW167779   8.153   0.900   3.480  1.0783 -0.6465  2.6108
21629SOL    HW267780   8.223   0.876   3.347 -2.5526  0.6530  0.3195
21630SOL     OW67781   8.826   4.584   2.274 -0.2769 -0.0808 -0.6750
21630SOL    HW167782   8.911   4.623   2.251 -0.3476 -0.5794 -1.8518
21630SOL    HW267783   8.847   4.495   2.302 -0.4155 -0.2538 -1.1091
21631SOL     OW67784   7.646   4.821   8.208 -0.4609 -0.2912  0.0955
21631SOL    HW167785   7.703   4.896   8.224  1.9942 -1.9956 -0.0615
21631SOL    HW267786   7.647   4.809   8.112 -0.5853 -0.6969  0.1394
21632SOL     OW67787   4.931   4.229   3.734  0.1248 -0.0976  0.1015
21632SOL    HW167788   4.928   4.191   3.822  1.7763 -0.2578  0.1184
21632SOL    HW267789   5.020   4.210   3.703  0.8998  3.2516 -0.1168
21633SOL     OW67790   6.484   2.466   9.184  0.0896 -0.2710 -0.4250
21633SOL    HW167791   6.564   2.431   9.145  0.5988  2.0227 -1.6540
21633SOL    HW267792   6.420   2.397   9.175  1.8872 -2.1718  0.5480
21634SOL     OW67793   7.105   5.928   2.056  0.0073  0.4604  0.3419
21634SOL    HW167794   7.043   6.000   2.069  0.0599  0.0072  3.7853
21634SOL    HW267795   7.064   5.874   1.987 -2.0660  1.6140  0.5814
21635SOL     OW67796   2.097   0.987   4.316  0.5649 -0.5066  0.8116
21635SOL    HW167797   2.091   1.003   4.410 -0.0164  0.6196  0.5999
21635SOL    HW267798   2.170   1.042   4.287 -0.2380  0.3627  0.3756
21636SOL     OW67799   6.152   1.279   1.889  0.2634  0.0839 -0.0452
21636SOL    HW167800   6.082   1.305   1.829 -0.3534 -1.8190 -0.2359
21636SOL    HW267801   6.230   1.322   1.855 -0.6424  1.5312 -0.3623
21637SOL     OW67802   5.388   4.343   2.090 -0.1059 -0.1638 -0.1135
21637SOL    HW167803   5.341   4.334   2.008 -1.2759 -1.2489  0.6574
21637SOL    HW267804   5.333   4.300   2.155  0.6552  0.9114  1.3039
21638SOL     OW67805   0.827   7.334   6.429 -0.2091 -0.2905  0.4345
21638SOL    HW167806   0.873   7.297   6.504 -1.2037  0.5935  1.5204
21638SOL    HW267807   0.829   7.429   6.443 -1.5501 -0.1769  0.0494
21639SOL     OW67808   3.046   8.740   3.125 -0.4457  0.0662 -0.0438
21639SOL    HW167809   3.126   8.690   3.108 -0.3972  0.2003 -0.2028
21639SOL    HW267810   3.026   8.721   3.217  0.0835  0.4871  0.1605
21640SOL     OW67811   5.560   5.235   6.216 -0.5778 -0.3188 -0.2152
21640SOL    HW167812   5.600   5.249   6.302 -0.8582  0.7901 -0.2483
21640SOL    HW267813   5.608   5.161   6.179 -0.0557 -0.4295  0.6542
21641SOL     OW67814   2.712   6.467   1.242 -0.2694 -0.4663  0.0038
21641SOL    HW167815   2.784   6.493   1.299  0.2144 -4.0916  1.3138
21641SOL    HW267816   2.751   6.460   1.155  0.7160 -1.3208  0.5001
21642SOL     OW67817   0.227   8.646   0.190 -0.3110  0.3415  0.1715
21642SOL    HW167818   0.218   8.551   0.194  1.4440  0.1763  0.9599
21642SOL    HW267819   0.187   8.670   0.106 -0.3556 -1.1476 -0.2681
21643SOL     OW67820   6.773   4.136   5.563  0.3359  0.2567  0.6555
21643SOL    HW167821   6.720   4.197   5.615 -1.4177 -1.0307  0.4737
21643SOL    HW267822   6.782   4.059   5.619 -0.6439 -0.7222 -0.4670
21644SOL     OW67823   0.370   5.640   2.586  0.8027 -0.0030  1.0083
21644SOL    HW167824   0.287   5.634   2.634  0.3815 -2.5340  0.0985
21644SOL    HW267825   0.413   5.556   2.600  1.5158 -0.1423 -1.4707
21645SOL     OW67826   5.957   6.398   1.140  0.3318 -0.4474 -0.7299
21645SOL    HW167827   5.874   6.361   1.170  0.5303 -0.3599 -0.0384
21645SOL    HW267828   5.935   6.485   1.109  0.3053 -0.0137  0.4313
21646SOL     OW67829   7.497   3.760   8.732  0.5118 -0.2650  0.6210
21646SOL    HW167830   7.427   3.779   8.795  0.3127  0.1600  0.2830
21646SOL    HW267831   7.452   3.754   8.648  0.7777 -0.8169  0.5173
21647SOL     OW67832   7.381   4.323   8.567 -0.3535 -0.2111  0.1801
21647SOL    HW167833   7.361   4.367   8.649 -1.6497 -0.9677  0.3014
21647SOL    HW267834   7.460   4.367   8.534 -0.5292  0.9173  1.2046
21648SOL     OW67835   6.011   5.325   9.016  0.1739  0.7100  0.1815
21648SOL    HW167836   5.985   5.329   8.924 -1.0863  0.3731  0.4950
21648SOL    HW267837   6.046   5.237   9.027 -1.7499 -0.0641  0.4992
21649SOL     OW67838   4.599   5.089   8.478 -0.3048 -0.0150  0.0544
21649SOL    HW167839   4.660   5.077   8.550 -0.1938  1.1777  0.1896
21649SOL    HW267840   4.595   5.184   8.466  0.2363 -0.2186 -1.9988
21650SOL     OW67841   6.625   1.178   1.233  0.1951 -0.0501  0.5045
21650SOL    HW167842   6.630   1.200   1.140 -0.5215  1.4722  0.8110
21650SOL    HW267843   6.711   1.139   1.252  0.6731  0.4213 -0.5884
21651SOL     OW67844   4.792   0.184   5.035 -0.3751 -0.4895 -0.3289
21651SOL    HW167845   4.831   0.124   4.971  0.6976 -1.4988  1.2004
21651SOL    HW267846   4.805   0.141   5.119 -2.4290  0.4370  0.5298
21652SOL     OW67847   5.892   1.337   6.334 -0.5661 -0.3866  0.3144
21652SOL    HW167848   5.806   1.321   6.372 -0.2845  0.0289  1.1364
21652SOL    HW267849   5.899   1.432   6.329 -0.4830 -0.4254 -0.5323
21653SOL     OW67850   8.625   4.219   1.136 -0.2641  0.3621 -0.0086
21653SOL    HW167851   8.652   4.134   1.103 -0.2241  0.2786  0.2353
21653SOL    HW267852   8.591   4.265   1.060  0.2594  0.3473 -0.2602
21654SOL     OW67853   7.308   7.108   5.526 -0.7419 -0.0790  0.9501
21654SOL    HW167854   7.295   7.084   5.434 -1.2328  0.8546  0.7595
21654SOL    HW267855   7.261   7.042   5.576 -0.1972 -0.7837  0.5519
21655SOL     OW67856   2.758   7.669   0.334  0.2868 -0.2305 -0.1694
21655SOL    HW167857   2.807   7.618   0.270  0.1084 -0.2038 -0.3307
21655SOL    HW267858   2.732   7.606   0.401 -1.5593 -0.7627 -1.3184
21656SOL     OW67859   0.316   3.260   8.341  0.3033  0.2115  0.3535
21656SOL    HW167860   0.244   3.282   8.400 -0.8860  1.5558 -1.4652
21656SOL    HW267861   0.345   3.345   8.306  1.6229 -0.4545 -0.2429
21657SOL     OW67862   0.960   1.987   3.337  0.3874  0.9532  0.2100
21657SOL    HW167863   0.946   2.081   3.324  1.1866  1.3686  2.1337
21657SOL    HW267864   0.872   1.952   3.352  0.0585  1.3156 -0.7595
21658SOL     OW67865   1.673   0.750   6.122  0.1613  0.9639  0.2514
21658SOL    HW167866   1.596   0.699   6.097  1.2191 -0.9086  0.6607
21658SOL    HW267867   1.726   0.754   6.042  1.0318 -0.3934  0.7273
21659SOL     OW67868   0.580   3.197   2.254 -0.1269 -0.0769  0.1666
21659SOL    HW167869   0.596   3.213   2.347  0.6752  0.1417 -0.0014
21659SOL    HW267870   0.541   3.279   2.222 -2.1568 -0.7780  0.6800
21660SOL     OW67871   8.412   8.383   3.150  0.0087  0.0735  0.2422
21660SOL    HW167872   8.390   8.321   3.080 -1.5446  0.2095  0.5858
21660SOL    HW267873   8.469   8.447   3.108  0.0997 -0.5320 -0.5836
21661SOL     OW67874   6.634   7.159   4.964  0.0006 -0.0959 -0.1762
21661SOL    HW167875   6.583   7.195   4.891 -1.6145  0.0175  0.9538
21661SOL    HW267876   6.611   7.066   4.965  1.4139 -0.4763 -0.8907
21662SOL     OW67877   1.030   5.441   3.160 -0.1457 -0.5806 -0.1324
21662SOL    HW167878   0.946   5.438   3.205  0.0947  0.6775  0.4493
21662SOL    HW267879   1.057   5.533   3.166  1.2517 -0.9558 -0.3293
21663SOL     OW67880   3.105   9.194   5.693  0.1727 -0.6012 -0.4630
21663SOL    HW167881   3.172   9.138   5.655  0.8932 -0.1051  0.0421
21663SOL    HW267882   3.026   9.175   5.642  0.6206 -1.3981 -0.8866
21664SOL     OW67883   0.774   8.364   5.058 -0.0591 -0.2347  0.3375
21664SOL    HW167884   0.819   8.343   5.140 -0.3867 -1.5233  0.2116
21664SOL    HW267885   0.682   8.368   5.082 -0.3911 -2.6129 -0.2755
21665SOL     OW67886   5.890   0.012   6.690 -0.2622 -0.0971 -0.1880
21665SOL    HW167887   5.858  -0.005   6.601 -0.9047 -0.4443  0.1066
21665SOL    HW267888   5.975  -0.033   6.693  0.0201  0.3745 -0.7969
21666SOL     OW67889   7.312   4.556   0.527 -0.5510  0.0641  0.2113
21666SOL    HW167890   7.218   4.571   0.521 -0.5044  0.6250  0.7424
21666SOL    HW267891   7.342   4.619   0.593  0.0686 -0.6354  0.6230
21667SOL     OW67892   5.700   7.310   8.343 -0.0120  1.0511 -0.0883
21667SOL    HW167893   5.704   7.215   8.335 -0.7854  1.0753 -0.9121
21667SOL    HW267894   5.768   7.332   8.406 -0.7098 -0.1864  1.1587
21668SOL     OW67895   8.954   2.240   2.033  0.1884  0.0116  0.2710
21668SOL    HW167896   9.013   2.200   1.969 -0.7830  1.1406 -1.3832
21668SOL    HW267897   8.882   2.177   2.042  0.6568 -0.4625  0.8065
21669SOL     OW67898   5.946   2.471   8.793  0.5936  0.5115 -0.2926
21669SOL    HW167899   6.010   2.432   8.734  1.8282  0.6195  0.9134
21669SOL    HW267900   5.899   2.396   8.831 -0.5897  0.4621 -1.7679
21670SOL     OW67901   8.070   6.991   2.457 -0.1008 -0.0790  0.1732
21670SOL    HW167902   8.033   6.959   2.375  1.7464  0.8605 -1.1120
21670SOL    HW267903   8.087   6.912   2.509 -0.1720 -0.7967 -0.8686
21671SOL     OW67904   5.490   0.152   4.566  0.0905 -0.5055 -0.2822
21671SOL    HW167905   5.428   0.158   4.494 -1.5833 -0.1073  1.1188
21671SOL    HW267906   5.436   0.131   4.642  1.6273  0.2306  1.0800
21672SOL     OW67907   7.175   3.577   4.650  0.0077  0.1409  0.2581
21672SOL    HW167908   7.202   3.493   4.686  0.6859  1.0449  1.9679
21672SOL    HW267909   7.206   3.642   4.714  0.3499  1.7704 -1.4606
21673SOL     OW67910   3.151   7.358   3.750 -0.3548 -0.1670  0.2051
21673SOL    HW167911   3.100   7.420   3.803  1.2404 -0.0863  1.7531
21673SOL    HW267912   3.187   7.411   3.679 -0.4512  0.2970  0.4988
21674SOL     OW67913   5.771   5.232   1.112  0.1297  0.2721  0.1321
21674SOL    HW167914   5.855   5.219   1.068  0.6141  0.8927  0.8458
21674SOL    HW267915   5.714   5.270   1.045  0.5757  0.3431 -0.2144
21675SOL     OW67916   3.532   4.359   0.464 -0.6252 -0.0003 -0.0597
21675SOL    HW167917   3.556   4.330   0.552 -5.2656 -1.6679  0.9716
21675SOL    HW267918   3.486   4.442   0.479  0.2937  0.7365 -1.2168
21676SOL     OW67919   1.076   6.662   1.417 -0.1505  0.0240 -0.1552
21676SOL    HW167920   1.013   6.678   1.488 -0.3551  0.5198 -0.4422
21676SOL    HW267921   1.038   6.706   1.341  0.1288 -0.4023 -0.5424
21677SOL     OW67922   3.638   2.526   9.001 -0.0220 -0.0602 -0.4828
21677SOL    HW167923   3.605   2.451   9.051 -3.1255  1.5439  0.1094
21677SOL    HW267924   3.629   2.600   9.060  0.5523  1.1949 -1.9048
21678SOL     OW67925   4.709   4.137   8.681 -0.2905 -0.4530 -0.0541
21678SOL    HW167926   4.738   4.122   8.590  2.5239 -0.5307  0.7530
21678SOL    HW267927   4.764   4.078   8.733 -1.0577  0.4091  1.8006
21679SOL     OW67928   6.014   7.458   0.933 -0.0016 -0.1072  0.3597
21679SOL    HW167929   6.106   7.458   0.906 -0.3406 -0.7836 -0.8284
21679SOL    HW267930   5.988   7.550   0.931  0.1165 -0.0907 -1.1948
21680SOL     OW67931   2.164   7.484   4.977 -0.2780 -0.1319  0.2759
21680SOL    HW167932   2.098   7.427   4.938 -1.4404  0.2897  1.5626
21680SOL    HW267933   2.243   7.429   4.982 -0.3204 -0.4677 -1.7827
21681SOL     OW67934   7.759   8.502   9.078  0.2269  0.0406  0.6567
21681SOL    HW167935   7.757   8.495   9.173 -1.2110  0.8989  0.7262
21681SOL    HW267936   7.667   8.507   9.052  0.5818 -0.4280 -0.8046
21682SOL     OW67937   4.333   6.839   3.351  0.0711  0.3518  0.5250
21682SOL    HW167938   4.370   6.859   3.437  0.8938 -0.7466  0.4451
21682SOL    HW267939   4.328   6.743   3.349 -0.4047  0.3861 -0.4620
21683SOL     OW67940   0.000   1.735   8.437  0.2659 -0.6256  0.6448
21683SOL    HW167941  -0.056   1.672   8.392 -1.6112  2.2105 -1.3220
21683SOL    HW267942  -0.027   1.730   8.529 -1.4278 -1.0866  0.1494
21684SOL     OW67943   6.716   0.293   1.427  0.1486 -0.0086 -0.3400
21684SOL    HW167944   6.736   0.263   1.338  3.9102 -1.0260  0.6526
21684SOL    HW267945   6.801   0.320   1.463 -1.2195  0.4682  2.9163
21685SOL     OW67946   8.984   0.470   3.454 -0.2333  0.4640  0.6209
21685SOL    HW167947   8.971   0.504   3.542 -0.6018 -0.0446  0.7673
21685SOL    HW267948   8.945   0.383   3.456 -1.3846  0.9311 -0.3993
21686SOL     OW67949   5.773   2.831   0.713  0.4741 -0.2446  0.3754
21686SOL    HW167950   5.703   2.767   0.705 -0.1870  0.2309  1.9683
21686SOL    HW267951   5.771   2.857   0.805  1.4511  1.2379  0.0076
21687SOL     OW67952   3.373   3.912   3.313  0.2573 -0.2801 -0.2626
21687SOL    HW167953   3.429   3.871   3.247  2.6028  0.5835  1.0627
21687SOL    HW267954   3.317   3.972   3.263  0.9963 -0.6558 -1.5921
21688SOL     OW67955   2.564   5.362   0.551  0.5637  0.0924 -0.1903
21688SOL    HW167956   2.529   5.450   0.539  0.4738 -0.1270 -1.8376
21688SOL    HW267957   2.654   5.366   0.518 -0.1394 -0.8931 -2.4663
21689SOL     OW67958   2.297   8.312   0.636 -0.2773  0.3461 -0.2537
21689SOL    HW167959   2.226   8.250   0.615  0.5277 -1.6138  2.2886
21689SOL    HW267960   2.254   8.381   0.686 -0.3695 -1.2651  2.0085
21690SOL     OW67961   0.671   0.470   1.573 -0.8181 -0.7314 -0.0752
21690SOL    HW167962   0.616   0.543   1.601 -0.0703 -0.4336  0.6394
21690SOL    HW267963   0.749   0.511   1.535 -0.1760 -1.1472  0.7673
21691SOL     OW67964   6.412   6.469   8.428  0.3647  0.2685 -0.1176
21691SOL    HW167965   6.467   6.472   8.507  0.2733  3.1073 -0.0539
21691SOL    HW267966   6.330   6.430   8.457  1.2922 -1.3475  0.4698
21692SOL     OW67967   2.725   1.858   2.645 -0.5047 -0.0268  0.0349
21692SOL    HW167968   2.702   1.951   2.648 -0.7015 -0.0936  0.9346
21692SOL    HW267969   2.642   1.813   2.631 -0.4554 -0.0809 -0.0789
21693SOL     OW67970   6.809   1.892   8.686  0.1758  0.0113 -0.2917
21693SOL    HW167971   6.893   1.903   8.641  0.4574  1.1207  0.4820
21693SOL    HW267972   6.831   1.887   8.779 -0.7096  1.9163  0.0678
21694SOL     OW67973   5.874   8.147   8.673  0.0292  0.6303 -0.0282
21694SOL    HW167974   5.882   8.240   8.651 -0.5062  0.5261 -0.6667
21694SOL    HW267975   5.893   8.144   8.767 -2.1843  1.7017  0.5223
21695SOL     OW67976   4.966   3.209   4.226  0.7692 -0.0947 -0.0611
21695SOL    HW167977   5.025   3.137   4.250 -1.2655 -2.1671 -0.9503
21695SOL    HW267978   4.911   3.221   4.303  0.6683  0.0394 -0.1553
21696SOL     OW67979   1.962   6.383   2.097 -0.3266 -0.1566 -0.3401
21696SOL    HW167980   1.918   6.464   2.122 -1.1223 -0.9583  0.9760
21696SOL    HW267981   1.891   6.319   2.087  0.4683 -1.5669  2.1790
21697SOL     OW67982   2.102   6.594   1.889 -0.1693 -0.3044 -0.0578
21697SOL    HW167983   2.128   6.505   1.865  1.6495  0.2909 -0.4669
21697SOL    HW267984   2.103   6.595   1.984  0.6924 -0.5072 -0.0566
21698SOL     OW67985   8.989   8.464   0.498 -0.4821 -0.2655 -0.3396
21698SOL    HW167986   9.018   8.373   0.489 -1.9224 -0.5971 -2.0775
21698SOL    HW267987   8.931   8.478   0.424 -1.7697  1.5181  0.9288
21699SOL     OW67988   3.186   0.876   0.317 -0.0192 -0.0597  0.1393
21699SOL    HW167989   3.129   0.896   0.243  1.2494  0.1949 -0.8231
21699SOL    HW267990   3.227   0.960   0.339 -0.2950 -0.1550  1.0635
21700SOL     OW67991   3.261   6.990   3.928  0.4303  0.0943 -0.7283
21700SOL    HW167992   3.189   7.018   3.871  1.6372  0.2035 -2.2852
21700SOL    HW267993   3.278   6.899   3.903  0.3446 -0.1758  0.1659
21701SOL     OW67994   6.473   5.969   0.002  0.1295 -0.3194 -0.1917
21701SOL    HW167995   6.396   5.939  -0.046  0.7398 -3.0773  0.3582
21701SOL    HW267996   6.439   6.033   0.064 -1.9277 -2.0017  0.5499
21702SOL     OW67997   6.365   4.422   5.021  0.9297  0.0205  0.3812
21702SOL    HW167998   6.423   4.346   5.023  1.5215  0.4732  1.1306
21702SOL    HW267999   6.424   4.497   5.011  0.9524  0.8622  4.6490
21703SOL     OW68000   0.820   1.778   1.685  0.1617  0.3164  0.4462
21703SOL    HW168001   0.747   1.814   1.735 -0.9405  1.3680 -1.7652
21703SOL    HW268002   0.856   1.709   1.741 -1.3613  0.9772  2.3672
21704SOL     OW68003   0.732   7.571   0.077 -0.0602  0.2632 -0.1540
21704SOL    HW168004   0.812   7.622   0.087  0.4120 -0.5988  0.6540
21704SOL    HW268005   0.740   7.501   0.142  0.5402 -2.3785 -2.8717
21705SOL     OW68006   1.669   4.902   3.020  0.1997 -0.2694 -0.3027
21705SOL    HW168007   1.676   4.819   2.973  1.0849  0.8438 -2.2676
21705SOL    HW268008   1.681   4.969   2.952 -2.1586  1.5246  0.8791
21706SOL     OW68009   3.720   7.134   5.537 -0.0320  0.3038 -0.3499
21706SOL    HW168010   3.627   7.128   5.559 -0.0590 -0.9031 -0.7556
21706SOL    HW268011   3.721   7.181   5.453 -0.2443  0.6203 -0.1780
21707SOL     OW68012   8.902   6.174   3.876  0.0094  0.1579  0.2741
21707SOL    HW168013   8.837   6.152   3.943  0.3409  1.3613  1.0149
21707SOL    HW268014   8.866   6.251   3.832  0.9418  0.8766  0.7363
21708SOL     OW68015   1.144   5.094   5.093  0.3542  0.7975  0.0300
21708SOL    HW168016   1.186   5.009   5.080  0.0729  0.8526 -1.3578
21708SOL    HW268017   1.050   5.075   5.088  0.2712  1.0840  0.4554
21709SOL     OW68018   0.167   2.614   8.853  0.0998 -0.0031  0.5127
21709SOL    HW168019   0.194   2.561   8.928  0.4288 -0.6629 -0.0602
21709SOL    HW268020   0.191   2.561   8.777 -0.9630  0.3072 -0.0464
21710SOL     OW68021   7.212   0.897   6.209 -0.4882  0.0179  0.0475
21710SOL    HW168022   7.190   0.982   6.171 -0.5712 -0.2295 -0.4720
21710SOL    HW268023   7.275   0.916   6.278  0.4310  0.3882 -0.8693
21711SOL     OW68024   8.090   0.939   8.788 -0.2822 -0.1308  0.0086
21711SOL    HW168025   8.076   0.848   8.761  0.1551 -0.1486 -0.1566
21711SOL    HW268026   8.174   0.963   8.750 -0.2633  0.2545  0.2892
21712SOL     OW68027   6.014   6.083   0.754  0.2078  0.4182 -0.0780
21712SOL    HW168028   5.947   6.139   0.794  0.0425  0.8954 -1.0037
21712SOL    HW268029   6.000   6.092   0.660 -0.2341 -1.6840 -0.2712
21713SOL     OW68030   5.859   0.273   4.118 -0.0307  0.2394 -0.1203
21713SOL    HW168031   5.860   0.356   4.069  0.8908  1.2238  1.4670
21713SOL    HW268032   5.946   0.236   4.104  0.6540  1.0898  1.5953
21714SOL     OW68033   8.124   8.967   6.218  0.2376  0.1298  0.0896
21714SOL    HW168034   8.100   8.994   6.129 -0.7287 -0.1033  0.2640
21714SOL    HW268035   8.218   8.947   6.213  0.0382 -0.6114 -1.0640
21715SOL     OW68036   7.901   7.497   4.426 -0.2286 -0.1824 -0.1757
21715SOL    HW168037   7.943   7.581   4.407  0.5105  0.0374  2.0706
21715SOL    HW268038   7.814   7.505   4.387 -0.2820  1.7717  0.2163
21716SOL     OW68039   9.135   5.452   4.506  0.6629 -0.0016 -0.9388
21716SOL    HW168040   9.218   5.498   4.493  0.8939 -0.6844 -1.9304
21716SOL    HW268041   9.069   5.518   4.485  0.9724  0.1989 -1.3065
21717SOL     OW68042   0.593   7.152   6.448 -0.1634  0.1677  0.2183
21717SOL    HW168043   0.578   7.101   6.368 -0.0883  0.8620 -0.2502
21717SOL    HW268044   0.653   7.221   6.421 -0.4764  0.6641  0.7724
21718SOL     OW68045   4.954   7.924   8.363 -0.3115 -0.4403  0.0448
21718SOL    HW168046   4.943   7.829   8.372 -1.7887 -0.3090 -0.0857
21718SOL    HW268047   4.868   7.960   8.384  0.0901  0.8387 -0.4040
21719SOL     OW68048   5.174   1.918   3.036  0.2056  0.0481 -0.4495
21719SOL    HW168049   5.254   1.869   3.018 -0.2796 -0.2152 -2.0656
21719SOL    HW268050   5.112   1.853   3.068  0.9075  0.4293  1.8989
21720SOL     OW68051   3.024   0.293   3.972  0.4618  0.0239  0.4242
21720SOL    HW168052   2.964   0.336   3.911  0.2712 -0.2799  0.3960
21720SOL    HW268053   3.110   0.328   3.950  0.5026 -0.6459 -0.5081
21721SOL     OW68054   8.082   0.560   3.848  0.4664 -0.1358 -0.0907
21721SOL    HW168055   8.138   0.521   3.781  0.5502 -0.0383 -0.0784
21721SOL    HW268056   8.085   0.499   3.921 -0.4492 -0.7582 -0.5547
21722SOL     OW68057   2.523   7.011   0.998  0.3693 -0.0647 -0.0532
21722SOL    HW168058   2.453   6.968   0.949 -0.7854 -0.2941  1.7047
21722SOL    HW268059   2.603   6.970   0.966 -0.4612 -1.2342 -0.7115
21723SOL     OW68060   0.949   1.700   5.754 -0.3663  0.5965 -0.2611
21723SOL    HW168061   0.953   1.668   5.664  0.4843  0.9201 -0.3484
21723SOL    HW268062   0.996   1.635   5.805 -2.2030 -0.4250  0.2276
21724SOL     OW68063   0.974   5.396   3.507 -0.5537  0.2909  0.0211
21724SOL    HW168064   0.977   5.397   3.602 -0.3559 -0.8605  0.0353
21724SOL    HW268065   0.992   5.487   3.482  0.6574  0.3617  1.0546
21725SOL     OW68066   7.119   6.274   4.277  0.2605  0.5322 -0.1799
21725SOL    HW168067   7.185   6.228   4.225  1.0140 -0.2553  1.3897
21725SOL    HW268068   7.161   6.289   4.362 -1.9780 -1.2451  1.3808
21726SOL     OW68069   4.996   7.047   7.045  0.3585  0.0074  0.3242
21726SOL    HW168070   4.925   7.102   7.011  0.2933 -0.6357 -0.6425
21726SOL    HW268071   5.076   7.096   7.023  0.2658  0.1459  0.2900
21727SOL     OW68072   2.450   3.716   4.854 -0.0397 -0.5805 -0.1786
21727SOL    HW168073   2.467   3.638   4.801 -1.2313 -0.7257 -0.3776
21727SOL    HW268074   2.439   3.683   4.943 -0.5382 -0.6547 -0.2618
21728SOL     OW68075   8.977   8.930   6.836 -0.3473  0.7221 -0.4268
21728SOL    HW168076   8.960   8.836   6.842  1.4512  0.3587 -0.3503
21728SOL    HW268077   8.927   8.969   6.908 -0.0353 -0.3472  0.3836
21729SOL     OW68078   5.340   1.401   2.805  0.3134  0.2285  0.3292
21729SOL    HW168079   5.278   1.451   2.751  0.1509  0.7512  0.9883
21729SOL    HW268080   5.346   1.316   2.761  0.2654  0.6779 -0.5672
21730SOL     OW68081   7.071   6.483   1.925  0.0343 -0.6406 -0.0101
21730SOL    HW168082   6.990   6.455   1.883 -1.1646  1.7725  0.4890
21730SOL    HW268083   7.109   6.547   1.864 -0.2941  0.8312  1.2544
21731SOL     OW68084   3.585   6.658   2.907  0.7246  0.4453  0.1493
21731SOL    HW168085   3.658   6.663   2.968  1.4560 -1.2458 -0.5425
21731SOL    HW268086   3.542   6.744   2.915  1.9191  0.9592  1.6018
21732SOL     OW68087   1.389   6.919   4.502  0.2493  0.1868 -0.0632
21732SOL    HW168088   1.345   7.003   4.509  1.4706  0.7709  1.0144
21732SOL    HW268089   1.475   6.940   4.465 -0.0237 -0.8044 -1.3112
21733SOL     OW68090   4.371   1.674   3.530 -0.3940  0.4995  0.5455
21733SOL    HW168091   4.439   1.699   3.592  0.3315  0.0942 -0.0685
21733SOL    HW268092   4.348   1.755   3.484  0.7244  0.3850 -0.2514
21734SOL     OW68093   3.260   2.173   8.435 -0.3105 -0.0151  0.4579
21734SOL    HW168094   3.272   2.124   8.354  1.1651 -0.6192  1.0117
21734SOL    HW268095   3.235   2.261   8.407  1.9858  0.3233 -0.7539
21735SOL     OW68096   7.384   1.942   3.956 -0.1373 -0.2372 -0.1314
21735SOL    HW168097   7.378   1.892   4.037 -1.3478  3.3386  2.2548
21735SOL    HW268098   7.459   2.000   3.969 -0.0940  0.1357 -1.7764
21736SOL     OW68099   6.534   7.942   2.517 -0.3079 -0.0143  0.1887
21736SOL    HW168100   6.567   7.927   2.429 -2.0855 -0.4989 -0.4435
21736SOL    HW268101   6.605   7.915   2.575  0.8902  0.3245 -1.0886
21737SOL     OW68102   1.612   2.126   9.184 -0.2886 -0.1634  0.0617
21737SOL    HW168103   1.643   2.108   9.273  0.2472  1.1645  0.1698
21737SOL    HW268104   1.538   2.066   9.172 -0.3031 -0.4490  1.3566
21738SOL     OW68105   1.916   4.396   1.797  0.0656  0.3519  0.0976
21738SOL    HW168106   1.994   4.450   1.809  0.6233 -0.6092  0.9429
21738SOL    HW268107   1.945   4.307   1.818 -1.5790  0.1602  1.8461
21739SOL     OW68108   0.790   2.278   1.323 -0.2804  0.0134 -0.3456
21739SOL    HW168109   0.834   2.360   1.301 -2.0361  1.3105  0.6971
21739SOL    HW268110   0.703   2.286   1.284 -0.5077 -1.3245 -0.1640
21740SOL     OW68111   8.296   6.392   1.519 -0.2448 -0.0672 -0.4245
21740SOL    HW168112   8.247   6.319   1.481 -0.9286  1.4225 -2.6557
21740SOL    HW268113   8.252   6.410   1.602 -1.7506 -0.5673 -1.0701
21741SOL     OW68114   0.368   4.399   3.280  0.6369  0.4320  0.3251
21741SOL    HW168115   0.279   4.431   3.298  1.5681  2.7771  1.0966
21741SOL    HW268116   0.381   4.416   3.187 -0.3165 -1.6488 -0.2524
21742SOL     OW68117   2.622   0.845   0.240  0.3996  0.5885  0.1665
21742SOL    HW168118   2.590   0.921   0.191 -0.0874  0.3694  0.1406
21742SOL    HW268119   2.543   0.808   0.281  0.4196 -0.6994 -0.8999
21743SOL     OW68120   0.271   8.302   4.281 -0.0726 -0.3170  0.4338
21743SOL    HW168121   0.273   8.322   4.188  0.5991 -2.1981 -0.0098
21743SOL    HW268122   0.180   8.281   4.300  0.0707 -1.6967 -0.2644
21744SOL     OW68123   2.745   4.818   6.507 -0.0801  0.7960 -0.1415
21744SOL    HW168124   2.701   4.837   6.424 -1.6233 -3.2947 -0.5006
21744SOL    HW268125   2.835   4.795   6.482 -0.0784  1.1355 -0.4529
21745SOL     OW68126   1.850   5.867   2.793  0.1250 -0.1741 -0.6079
21745SOL    HW168127   1.791   5.816   2.738  1.3593 -0.9126 -1.2900
21745SOL    HW268128   1.932   5.871   2.744  0.1377  2.3816 -0.5267
21746SOL     OW68129   7.914   3.611   8.897  1.1174 -0.1993  0.3582
21746SOL    HW168130   7.857   3.637   8.824 -0.5274 -0.7522  1.4018
21746SOL    HW268131   7.862   3.551   8.948  2.6017 -0.5786  1.4894
21747SOL     OW68132   1.986   7.681   5.727  0.0325  0.0700  0.2910
21747SOL    HW168133   2.007   7.598   5.683  1.3085 -0.0005  1.0027
21747SOL    HW268134   1.898   7.702   5.696  0.7867 -0.0603 -2.1839
21748SOL     OW68135   5.270   5.881   3.822  0.6631 -0.2605 -0.0475
21748SOL    HW168136   5.355   5.898   3.781  0.8898 -0.1392  0.4641
21748SOL    HW268137   5.267   5.785   3.832 -0.5073 -0.5965 -2.7006
21749SOL     OW68138   5.227   4.504   7.543  0.5933 -0.0879  0.0487
21749SOL    HW168139   5.254   4.444   7.613 -0.9886  0.0844  0.8351
21749SOL    HW268140   5.278   4.583   7.560  0.4764 -0.1655  0.8173
21750SOL     OW68141   0.455   8.210   7.300  0.0561 -0.4524  0.4284
21750SOL    HW168142   0.454   8.218   7.395  0.9982  2.3127  0.3117
21750SOL    HW268143   0.466   8.300   7.268  0.9409 -1.3848 -2.2533
21751SOL     OW68144   6.975   5.237   8.523  0.5967  0.2102  0.4777
21751SOL    HW168145   7.017   5.225   8.609  0.0986  1.1451  0.8647
21751SOL    HW268146   7.048   5.248   8.462  1.1402 -3.8458  0.1358
21752SOL     OW68147   4.104   0.055   0.949  0.2150  1.1069 -0.5200
21752SOL    HW168148   4.063  -0.022   0.910  0.0759 -0.3756  2.3019
21752SOL    HW268149   4.093   0.124   0.883 -1.3164 -0.7878 -2.3817
21753SOL     OW68150   6.285   2.051   8.773 -0.0769  0.2964 -1.2518
21753SOL    HW168151   6.289   2.081   8.683 -0.2521  0.9139 -1.0617
21753SOL    HW268152   6.257   1.960   8.767  0.4553  0.1670 -1.8432
21754SOL     OW68153   2.456   6.509   5.874  0.4686 -0.5184  0.5638
21754SOL    HW168154   2.418   6.589   5.839 -0.2384 -1.1128 -0.0443
21754SOL    HW268155   2.543   6.504   5.832  1.0210  0.5455  1.5341
21755SOL     OW68156   1.542   1.296   7.595 -0.1174  0.0799 -0.7034
21755SOL    HW168157   1.615   1.336   7.643  1.9035 -0.0708 -3.4111
21755SOL    HW268158   1.478   1.367   7.586  0.9755  1.0919 -0.7259
21756SOL     OW68159   1.351   6.401   4.095  0.4212 -0.0308 -0.3299
21756SOL    HW168160   1.383   6.487   4.067  2.3829 -0.4371  0.5300
21756SOL    HW268161   1.389   6.388   4.182 -0.6140 -1.3868 -0.0430
21757SOL     OW68162   5.842   5.807   2.072 -0.3961  0.4115  0.0658
21757SOL    HW168163   5.883   5.835   2.154 -0.0086 -0.8068  0.3047
21757SOL    HW268164   5.867   5.875   2.009 -0.6520  1.3323  0.9243
21758SOL     OW68165   6.599   2.772   4.210 -0.0902  0.0306  0.2341
21758SOL    HW168166   6.519   2.819   4.235 -0.9789 -0.6874 -1.1272
21758SOL    HW268167   6.633   2.820   4.135 -0.1793 -0.6209 -0.2289
21759SOL     OW68168   5.701   5.220   8.136  0.8614  0.2412 -0.6234
21759SOL    HW168169   5.632   5.234   8.072 -2.6024  0.0795  2.7268
21759SOL    HW268170   5.744   5.305   8.144 -0.6222  1.0654 -1.0979
21760SOL     OW68171   2.718   9.071   2.536  0.1280 -0.2815  0.2192
21760SOL    HW168172   2.723   9.140   2.470  0.2786 -2.7287 -2.5406
21760SOL    HW268173   2.804   9.071   2.577 -0.0081  1.3839  0.5844
21761SOL     OW68174   1.529   1.773   2.978 -0.3831  0.2648 -0.8105
21761SOL    HW168175   1.447   1.813   2.949  0.1518  0.2707 -2.4105
21761SOL    HW268176   1.595   1.842   2.967  0.2157 -0.4355 -1.7231
21762SOL     OW68177   4.813   8.971   7.456 -0.1646  0.2878 -0.4168
21762SOL    HW168178   4.741   8.922   7.495 -0.4327  0.3873 -0.7796
21762SOL    HW268179   4.851   8.911   7.391  1.0007 -0.2963  0.7686
21763SOL     OW68180   4.957   9.127   2.458  0.1337 -0.7279  0.2995
21763SOL    HW168181   4.881   9.140   2.514 -0.8598 -0.7219 -1.0131
21763SOL    HW268182   5.021   9.192   2.489 -0.7205 -0.1212  0.8260
21764SOL     OW68183   1.344   1.317   1.653  0.2028  0.1120 -0.2069
21764SOL    HW168184   1.327   1.322   1.559  2.2081 -0.5448 -0.6572
21764SOL    HW268185   1.410   1.248   1.662 -1.2613 -1.1389  1.8994
21765SOL     OW68186   8.712   7.529   4.011 -0.6594 -0.0882 -0.6412
21765SOL    HW168187   8.671   7.534   4.097  1.5879  0.9504  0.4351
21765SOL    HW268188   8.642   7.551   3.950 -1.5763  2.4117  1.1495
21766SOL     OW68189   5.830   2.635   7.035  0.0182 -0.4282  0.1679
21766SOL    HW168190   5.752   2.689   7.044 -0.5798 -1.1910 -0.3073
21766SOL    HW268191   5.798   2.545   7.043  0.7085 -0.7856 -0.8929
21767SOL     OW68192   2.016   3.959   5.620 -0.2850 -0.1581 -0.2042
21767SOL    HW168193   2.105   3.962   5.655 -0.7663  0.0656  1.0410
21767SOL    HW268194   2.028   3.947   5.526  1.0508 -0.5176 -0.0089
21768SOL     OW68195   8.528   5.078   4.778 -0.1095 -0.2721 -0.2688
21768SOL    HW168196   8.494   4.991   4.797 -1.9074  0.6400  0.9943
21768SOL    HW268197   8.457   5.137   4.803  1.3309  1.5990 -0.3988
21769SOL     OW68198   3.130   8.085   3.984 -0.1417 -0.0934 -0.7650
21769SOL    HW168199   3.120   7.992   3.963 -0.9743 -0.4880  1.1835
21769SOL    HW268200   3.054   8.105   4.038 -0.2906  1.8988 -1.6413
21770SOL     OW68201   5.080   4.149   6.978 -0.2233  0.2118 -0.0731
21770SOL    HW168202   5.075   4.100   6.896  1.0876 -0.0706 -0.0008
21770SOL    HW268203   5.132   4.093   7.036  1.6924  1.8548 -0.1162
21771SOL     OW68204   6.673   4.437   9.264  0.0020 -0.4443  0.1046
21771SOL    HW168205   6.743   4.421   9.327  1.3796 -0.6194 -1.4218
21771SOL    HW268206   6.620   4.357   9.265 -1.1430  0.2559  2.3691
21772SOL     OW68207   7.869   8.236   1.333  0.5654 -0.3526 -0.1552
21772SOL    HW168208   7.842   8.287   1.257  0.7675  0.1525  0.1051
21772SOL    HW268209   7.857   8.145   1.307 -0.3393 -0.1618 -0.4237
21773SOL     OW68210   4.568   4.001   0.009 -0.2337  0.2624 -0.2043
21773SOL    HW168211   4.574   3.915   0.051 -0.1564  0.4010  0.0709
21773SOL    HW268212   4.487   4.038   0.042 -0.4444  0.1502 -0.5977
21774SOL     OW68213   1.962   5.884   0.665  0.0067 -0.2401  0.1480
21774SOL    HW168214   2.029   5.818   0.647  0.3153 -0.0193  0.4828
21774SOL    HW268215   1.888   5.835   0.701 -0.1098 -0.5158 -0.4395
21775SOL     OW68216   3.716   1.689   6.989 -0.0558 -0.4006  0.0656
21775SOL    HW168217   3.756   1.604   6.975 -0.8367 -0.5909 -1.2017
21775SOL    HW268218   3.769   1.749   6.936 -0.2113 -0.3021  0.0211
21776SOL     OW68219   6.165   5.005   1.675  0.2724 -0.0801 -0.1109
21776SOL    HW168220   6.088   4.951   1.691  0.1976 -0.0401 -0.3273
21776SOL    HW268221   6.229   4.975   1.739  0.1160 -0.1919 -0.0055
21777SOL     OW68222   6.616   3.732   0.852  1.2441 -0.0235  0.2630
21777SOL    HW168223   6.541   3.673   0.847 -0.1443  1.6478  0.2638
21777SOL    HW268224   6.692   3.675   0.853  0.0684 -1.7216 -1.6707
21778SOL     OW68225   1.411   0.228   4.248 -0.2983 -0.5187  0.8032
21778SOL    HW168226   1.453   0.309   4.276 -2.7408  0.6898  1.2313
21778SOL    HW268227   1.339   0.256   4.191 -0.0061 -2.5338 -0.7068
21779SOL     OW68228   0.337   7.576   8.510  0.2390 -0.1013  0.4962
21779SOL    HW168229   0.262   7.552   8.564  0.5204  0.8016  1.3287
21779SOL    HW268230   0.370   7.656   8.550  1.9441 -0.7373  0.4328
21780SOL     OW68231   3.685   6.568   7.372  0.3808 -0.6881 -0.0724
21780SOL    HW168232   3.618   6.500   7.373 -0.4202  0.1027  0.3545
21780SOL    HW268233   3.641   6.645   7.336  1.1402 -0.2371 -0.0584
21781SOL     OW68234   2.805   7.605   2.255 -0.2658  0.1388  0.3674
21781SOL    HW168235   2.822   7.511   2.249 -1.2455 -0.0668  0.6662
21781SOL    HW268236   2.729   7.612   2.312 -1.1445  1.0054 -0.8600
21782SOL     OW68237   6.067   2.845   6.245  1.0426  0.4259  0.5527
21782SOL    HW168238   6.004   2.851   6.317 -0.4117 -0.0733 -0.6159
21782SOL    HW268239   6.029   2.779   6.186  1.0164  2.3431 -1.7281
21783SOL     OW68240   6.914   5.560   0.515 -0.3050  0.2490  0.3533
21783SOL    HW168241   6.935   5.633   0.573  1.2127 -1.0480  1.5612
21783SOL    HW268242   6.993   5.548   0.462 -1.4780  1.0700 -1.6803
21784SOL     OW68243   8.899   1.457   2.367  0.1445  0.2451 -0.0898
21784SOL    HW168244   8.967   1.495   2.311  0.7627 -1.1136 -0.2890
21784SOL    HW268245   8.891   1.520   2.439 -0.7728  2.1006 -1.7096
21785SOL     OW68246   8.754   0.207   2.803  0.1166 -0.2694  0.5906
21785SOL    HW168247   8.840   0.248   2.811 -0.1535  0.4632 -0.0984
21785SOL    HW268248   8.761   0.152   2.725  0.2069 -0.8431  1.0024
21786SOL     OW68249   3.774   0.008   1.607  0.3588 -0.2561  0.2568
21786SOL    HW168250   3.687  -0.014   1.573  0.2962  0.1047  0.1788
21786SOL    HW268251   3.831   0.003   1.530  0.5219 -1.0941  0.4214
21787SOL     OW68252   8.957   5.635   3.445  0.9299 -0.1990  0.0667
21787SOL    HW168253   8.973   5.651   3.538  0.4908 -0.9942  0.2904
21787SOL    HW268254   8.987   5.545   3.431  0.8295 -0.1442 -0.5188
21788SOL     OW68255   8.757   0.539   0.227 -0.2429  0.2401 -0.2108
21788SOL    HW168256   8.799   0.577   0.150  1.5089  1.9662  1.5030
21788SOL    HW268257   8.745   0.447   0.204  0.2533  0.6901 -2.5105
21789SOL     OW68258   7.409   3.706   8.486 -0.3725 -0.1286  0.5123
21789SOL    HW168259   7.434   3.752   8.406  1.1552 -0.4274  0.7980
21789SOL    HW268260   7.319   3.676   8.468 -0.4572  0.7343 -0.6532
21790SOL     OW68261   3.740   6.864   6.295 -0.2148 -0.1925 -0.4743
21790SOL    HW168262   3.668   6.897   6.349 -2.7149 -3.1992 -1.6436
21790SOL    HW268263   3.702   6.853   6.208  2.0589 -0.7700 -1.4767
21791SOL     OW68264   8.155   8.940   3.590 -0.1159  0.6395 -0.5738
21791SOL    HW168265   8.167   8.929   3.496 -1.2943  0.5220 -0.7171
21791SOL    HW268266   8.089   8.875   3.614  1.0737 -0.2196  0.5775
21792SOL     OW68267   1.974   7.614   7.042 -0.0438 -0.3369 -0.8764
21792SOL    HW168268   1.940   7.531   7.008 -1.3779  0.6329 -2.0521
21792SOL    HW268269   2.068   7.609   7.028  0.0716 -2.1073  0.1704
21793SOL     OW68270   4.175   2.487   3.983  0.1771 -0.0823 -0.3863
21793SOL    HW168271   4.157   2.566   3.934  1.3919  0.8774  0.6320
21793SOL    HW268272   4.094   2.437   3.981 -0.1856  0.5183 -2.2296
21794SOL     OW68273   4.763   2.965   1.943  0.6081 -0.8150 -0.8669
21794SOL    HW168274   4.829   2.979   2.011  0.1344  2.0194 -0.8626
21794SOL    HW268275   4.809   2.919   1.873  1.4037 -2.7848  0.8458
21795SOL     OW68276   1.896   5.503   3.488 -0.2549  0.3852  0.2924
21795SOL    HW168277   1.927   5.542   3.407  2.6178 -0.7068  0.7530
21795SOL    HW268278   1.811   5.463   3.465  0.9979 -0.9159 -2.5242
21796SOL     OW68279   1.734   6.278   0.176 -0.3047 -0.3179 -0.0307
21796SOL    HW168280   1.772   6.336   0.241 -2.2678  0.5735  0.4149
21796SOL    HW268281   1.804   6.216   0.154  1.6631  1.8107 -0.0735
21797SOL     OW68282   5.023   4.016   1.087  0.2073 -0.2539 -0.5443
21797SOL    HW168283   5.071   3.934   1.099 -1.6950 -1.3342  0.2907
21797SOL    HW268284   4.965   3.999   1.013  1.0417  1.0114 -1.5281
21798SOL     OW68285   7.686   0.566   6.133 -0.7209 -0.0497  0.4230
21798SOL    HW168286   7.727   0.568   6.047 -3.4138 -0.8011 -1.0146
21798SOL    HW268287   7.661   0.657   6.149 -1.0560 -0.0451 -0.0780
21799SOL     OW68288   0.408   8.850   6.918  0.8519 -0.0585 -0.0878
21799SOL    HW168289   0.360   8.915   6.970 -2.5723 -2.2920 -0.1815
21799SOL    HW268290   0.381   8.866   6.828  0.2342 -1.3435 -0.1511
21800SOL     OW68291   4.276   4.793   6.509 -0.3188 -0.8834 -0.1186
21800SOL    HW168292   4.370   4.795   6.527 -0.3349 -3.1011  0.4563
21800SOL    HW268293   4.236   4.816   6.593 -0.2750 -4.1788  0.9514
21801SOL     OW68294   5.686   3.334   7.559 -0.1415  0.1711 -0.3710
21801SOL    HW168295   5.734   3.377   7.630  0.3263 -0.0238 -0.5644
21801SOL    HW268296   5.731   3.250   7.547 -0.6144 -0.0710 -0.4675
21802SOL     OW68297   5.044   6.882   4.756  0.7486  0.2033 -0.7036
21802SOL    HW168298   4.958   6.914   4.728  0.3661 -0.9974 -1.0063
21802SOL    HW268299   5.060   6.806   4.700  2.2691  0.7210 -1.0249
21803SOL     OW68300   2.727   0.872   5.084  0.0637 -0.3418  0.4636
21803SOL    HW168301   2.660   0.854   5.150 -0.1712  0.9499  0.6039
21803SOL    HW268302   2.684   0.931   5.022  0.9255  0.0962  0.2799
21804SOL     OW68303   4.873   6.873   3.704 -0.3254  0.4707  0.0002
21804SOL    HW168304   4.894   6.961   3.735 -0.5889 -0.0655  1.7864
21804SOL    HW268305   4.910   6.869   3.616 -1.2308  2.7168 -0.5459
21805SOL     OW68306   3.098   1.877   4.507 -0.2874 -0.0826 -0.0945
21805SOL    HW168307   3.093   1.973   4.505 -1.3975 -0.1235 -1.6754
21805SOL    HW268308   3.048   1.852   4.585 -0.7299  0.6077 -0.1468
21806SOL     OW68309   6.596   4.477   1.486 -0.3061  0.0510  0.5031
21806SOL    HW168310   6.599   4.477   1.391 -1.8123  1.2627  0.4157
21806SOL    HW268311   6.663   4.413   1.513 -1.6453 -2.2926 -1.3917
21807SOL     OW68312   7.990   2.589   1.667 -0.0515  0.0374 -0.0644
21807SOL    HW168313   7.913   2.616   1.718  0.9449 -0.3159  1.7059
21807SOL    HW268314   7.989   2.646   1.591 -0.4534  2.0731  1.3821
21808SOL     OW68315   8.892   9.160   3.821 -0.9673  0.3288 -0.3369
21808SOL    HW168316   8.976   9.115   3.821 -0.8141  0.6093 -0.6563
21808SOL    HW268317   8.828   9.090   3.803 -0.9460 -0.1091  1.1290
21809SOL     OW68318   3.061   9.101   3.662  0.2826  0.1533  0.0372
21809SOL    HW168319   2.987   9.110   3.722  0.0679 -0.7275 -0.0738
21809SOL    HW268320   3.126   9.051   3.712  0.9469  1.2045  0.2505
21810SOL     OW68321   1.954   0.983   3.694  0.2872 -0.4305  0.8201
21810SOL    HW168322   1.865   1.007   3.721  0.0661 -0.2238 -0.0400
21810SOL    HW268323   1.991   0.937   3.769 -0.7284 -0.9691  1.0104
21811SOL     OW68324   1.379   9.006   4.919  0.7523  0.3202 -0.3359
21811SOL    HW168325   1.443   8.935   4.929  1.3590  1.0821  1.7985
21811SOL    HW268326   1.373   9.045   5.006 -1.3171  1.4213 -0.9114
21812SOL     OW68327   2.883   0.708   7.918 -0.0126 -0.0983  0.3326
21812SOL    HW168328   2.847   0.633   7.965 -1.0315  0.6876  0.8419
21812SOL    HW268329   2.828   0.718   7.841  0.4229 -0.1642  0.0075
21813SOL     OW68330   4.967   5.995   7.941  0.7887 -0.0116 -0.5025
21813SOL    HW168331   5.038   5.986   8.005  1.5104  1.2669 -1.0916
21813SOL    HW268332   4.920   5.912   7.946  2.9097 -1.3209 -0.7877
21814SOL     OW68333   6.941   7.852   5.892  0.3436 -0.1776  0.2918
21814SOL    HW168334   6.996   7.910   5.944 -0.7499  0.8542  0.3202
21814SOL    HW268335   6.858   7.849   5.939 -0.9537  1.4102 -1.7589
21815SOL     OW68336   5.958   9.069   6.294 -0.0573  0.4971  0.3680
21815SOL    HW168337   5.934   8.977   6.307 -1.6481  0.5982 -1.4105
21815SOL    HW268338   6.045   9.065   6.254 -0.0622 -0.2400  0.4097
21816SOL     OW68339   8.071   6.424   3.000  0.0513  0.3719 -0.1360
21816SOL    HW168340   8.062   6.331   3.021  0.9538  0.4172  0.5679
21816SOL    HW268341   8.112   6.462   3.078  0.2302  1.2466 -0.6356
21817SOL     OW68342   6.894   8.269   1.692  0.0414 -0.2384 -0.1417
21817SOL    HW168343   6.919   8.180   1.718 -0.3849  0.0748  1.4468
21817SOL    HW268344   6.974   8.321   1.704  0.3785 -0.4438 -1.3743
21818SOL     OW68345   3.667   5.207   3.086  0.2131  0.0396 -0.1995
21818SOL    HW168346   3.687   5.125   3.131  1.8299  1.0074  0.9569
21818SOL    HW268347   3.739   5.217   3.023 -0.2423  0.3386 -0.6774
21819SOL     OW68348   4.645   6.651   0.771  0.6983 -0.2818 -0.2024
21819SOL    HW168349   4.696   6.684   0.697 -0.9209  1.4926 -0.6286
21819SOL    HW268350   4.667   6.710   0.843 -0.8916  0.7166 -0.4793
21820SOL     OW68351   1.485   2.523   3.785  0.0414 -0.4034  0.4635
21820SOL    HW168352   1.404   2.564   3.755 -0.7628 -1.0731  1.6347
21820SOL    HW268353   1.550   2.592   3.779 -0.9697  0.6297  1.0316
21821SOL     OW68354   1.910   8.921   3.203  0.1789  0.2928 -0.5201
21821SOL    HW168355   1.903   8.859   3.275 -0.2340  1.4792  0.5038
21821SOL    HW268356   2.003   8.923   3.181  0.2210 -0.5235 -0.4388
21822SOL     OW68357   4.930   4.378   4.067 -0.3045 -0.0833 -0.0711
21822SOL    HW168358   4.979   4.296   4.076 -0.0447 -0.0979 -1.3739
21822SOL    HW268359   4.839   4.350   4.057 -0.4092 -0.1263  0.8705
21823SOL     OW68360   7.536   2.631   5.836  0.2669 -0.6740  0.4243
21823SOL    HW168361   7.578   2.613   5.920  2.5595  0.8855 -0.2796
21823SOL    HW268362   7.473   2.701   5.855  2.1126  1.0258  0.6117
21824SOL     OW68363   1.530   5.047   3.431  0.2679 -0.3187 -0.0158
21824SOL    HW168364   1.495   4.989   3.364 -1.5121  0.2735  0.3437
21824SOL    HW268365   1.530   4.994   3.511  1.2341 -0.6398 -0.2101
21825SOL     OW68366   4.822   2.172   7.091  0.0631 -0.2698 -0.4141
21825SOL    HW168367   4.761   2.117   7.041 -1.0820  0.6251 -0.0677
21825SOL    HW268368   4.907   2.131   7.078 -0.6634 -1.8484 -0.5514
21826SOL     OW68369   2.317   4.812   7.278 -0.4910  0.0664 -0.1055
21826SOL    HW168370   2.274   4.803   7.193 -0.7267 -0.4793  0.0698
21826SOL    HW268371   2.401   4.852   7.258 -0.5425 -0.0671 -0.5959
21827SOL     OW68372   4.292   4.865   9.217  0.4053 -0.3792  0.0638
21827SOL    HW168373   4.340   4.802   9.272 -0.5160 -0.1870  1.1368
21827SOL    HW268374   4.203   4.829   9.213 -0.2636  1.0667  1.1012
21828SOL     OW68375   2.028   6.638   5.815  0.0685 -0.6128 -0.3182
21828SOL    HW168376   2.064   6.579   5.881  0.5190 -0.8638 -0.7758
21828SOL    HW268377   1.995   6.713   5.865 -1.1618 -1.5483  0.3427
21829SOL     OW68378   6.701   6.933   3.080  0.1609  0.4335  0.1804
21829SOL    HW168379   6.721   6.992   3.007  1.0551  1.5452  1.2634
21829SOL    HW268380   6.772   6.869   3.080 -1.8144 -1.9948 -2.2017
21830SOL     OW68381   4.052   4.046   6.407 -0.6408 -0.3937 -0.2881
21830SOL    HW168382   4.090   3.995   6.336 -0.1180 -1.7052  0.8851
21830SOL    HW268383   3.975   3.995   6.433 -0.6781 -0.0613  0.2543
21831SOL     OW68384   3.015   7.527   9.189 -0.0233  0.3938 -0.0745
21831SOL    HW168385   2.974   7.600   9.141 -0.4230  1.9772  2.4641
21831SOL    HW268386   3.094   7.507   9.139 -0.6001  1.6661 -1.5821
21832SOL     OW68387   8.661   1.887   7.746 -0.2010 -0.0219  0.0989
21832SOL    HW168388   8.567   1.878   7.759 -0.2239 -0.9998 -0.6191
21832SOL    HW268389   8.669   1.932   7.662 -0.0306  0.4419  0.3634
21833SOL     OW68390   0.427   0.409   4.230 -0.1781 -0.7541 -1.0663
21833SOL    HW168391   0.408   0.316   4.214  1.3058 -1.0499 -1.2110
21833SOL    HW268392   0.502   0.408   4.289  0.3936  0.3534 -1.7431
21834SOL     OW68393   6.711   5.095   3.254  0.0726  0.1010  0.1517
21834SOL    HW168394   6.790   5.146   3.241  0.6428 -1.0796 -1.4290
21834SOL    HW268395   6.743   5.006   3.273 -0.8777 -0.0202  1.2752
21835SOL     OW68396   5.305   9.013   1.311  0.1311 -0.6367  0.7811
21835SOL    HW168397   5.344   9.099   1.293 -0.8220 -0.1749  0.8511
21835SOL    HW268398   5.216   9.033   1.340  0.1997 -1.6100  1.7035
21836SOL     OW68399   6.180   0.031   8.372  0.3488  0.1246  0.0053
21836SOL    HW168400   6.108   0.089   8.347  0.6533  1.1486  1.3373
21836SOL    HW268401   6.221   0.006   8.290 -2.0065 -1.1803 -0.8582
21837SOL     OW68402   3.962   3.223   3.022 -0.1598  0.2544 -0.1514
21837SOL    HW168403   3.885   3.229   2.965 -0.6449 -2.8412 -0.0249
21837SOL    HW268404   3.926   3.227   3.110 -0.1794 -0.8997 -0.0933
21838SOL     OW68405   3.909   0.513   8.105 -0.2841  0.3109 -0.2261
21838SOL    HW168406   3.841   0.514   8.172 -0.6698  0.9232 -0.6269
21838SOL    HW268407   3.948   0.425   8.112 -0.7497  0.1495  0.3656
21839SOL     OW68408   8.473   1.524   8.328  0.2979 -0.1152  0.2083
21839SOL    HW168409   8.538   1.561   8.268  2.2917  0.2437  2.4015
21839SOL    HW268410   8.466   1.432   8.302  2.9613 -0.5863  0.7770
21840SOL     OW68411   4.695   1.426   0.162 -0.1728 -0.5448  0.2845
21840SOL    HW168412   4.766   1.361   0.164 -0.3943 -0.8451 -0.9503
21840SOL    HW268413   4.660   1.421   0.073 -1.6161 -0.2553  0.8003
21841SOL     OW68414   5.716   3.545   3.504 -0.0784 -0.2917  0.0292
21841SOL    HW168415   5.623   3.568   3.507 -0.7671 -2.2171 -2.4887
21841SOL    HW268416   5.750   3.593   3.428  0.7841 -0.2665  0.4211
21842SOL     OW68417   1.373   6.370   5.126  0.0520 -0.1402  0.8814
21842SOL    HW168418   1.455   6.404   5.091  1.2119 -1.9234  1.7169
21842SOL    HW268419   1.400   6.309   5.195 -2.0274  0.4590  2.3307
21843SOL     OW68420   1.555   7.525   8.349 -0.2398  0.2726 -0.6112
21843SOL    HW168421   1.535   7.593   8.413  1.1751  0.7751 -0.6755
21843SOL    HW268422   1.482   7.464   8.356 -0.8022  1.0356  0.4906
21844SOL     OW68423   5.163   3.253   4.539  0.3006 -0.6820  0.3779
21844SOL    HW168424   5.114   3.335   4.540 -1.7965 -1.8828  0.6425
21844SOL    HW268425   5.193   3.244   4.449  2.1528  1.2217  0.7236
21845SOL     OW68426   5.452   4.922   5.357 -0.1058  0.1608 -0.5430
21845SOL    HW168427   5.486   5.001   5.315 -0.7194  0.4025 -0.5864
21845SOL    HW268428   5.394   4.954   5.426  2.4104 -0.1566  1.9172
21846SOL     OW68429   2.222   8.214   8.290 -0.0257 -0.2231  0.0638
21846SOL    HW168430   2.199   8.198   8.198  0.8604 -0.4371 -0.1348
21846SOL    HW268431   2.258   8.131   8.321  1.5387  0.3863 -0.0052
21847SOL     OW68432   3.736   1.873   0.084 -0.6255 -0.5564  0.8825
21847SOL    HW168433   3.817   1.879   0.034 -0.5409 -1.5807  0.8747
21847SOL    HW268434   3.677   1.935   0.042 -0.0430 -0.2420  0.5164
21848SOL     OW68435   2.710   7.769   4.473 -0.0519  0.3027 -0.2257
21848SOL    HW168436   2.727   7.858   4.502 -0.1303  0.1950  0.1584
21848SOL    HW268437   2.676   7.724   4.551  0.4165 -0.1851 -0.2958
21849SOL     OW68438   2.891   4.851   7.528  0.2248  0.1094  0.0229
21849SOL    HW168439   2.927   4.875   7.442 -1.2348  0.8978 -0.3989
21849SOL    HW268440   2.802   4.821   7.509  0.1580 -0.4784  1.1893
21850SOL     OW68441   7.381   0.050   3.080  0.4488  0.3650  0.6275
21850SOL    HW168442   7.391  -0.044   3.063  0.2128  0.6893 -1.6218
21850SOL    HW268443   7.347   0.055   3.170  1.4248 -1.6330  1.1555
21851SOL     OW68444   8.351   3.517   8.979 -0.0173 -0.1099  0.1620
21851SOL    HW168445   8.291   3.591   8.983 -0.5320 -0.5169  0.1017
21851SOL    HW268446   8.429   3.552   8.936 -0.7444  0.0865 -1.0620
21852SOL     OW68447   1.525   6.569   7.905  0.0441  1.0520 -0.1153
21852SOL    HW168448   1.487   6.545   7.820 -0.9748  1.0987  0.3148
21852SOL    HW268449   1.509   6.663   7.913  0.5373  1.1363 -0.0586
21853SOL     OW68450   4.902   2.677   1.041 -0.1570 -0.0852 -0.4099
21853SOL    HW168451   4.952   2.728   1.105 -1.8022 -0.7523  1.5159
21853SOL    HW268452   4.928   2.713   0.957  0.3625  2.4858  0.7396
21854SOL     OW68453   5.962   6.475   4.704  0.4632  0.2413  0.3091
21854SOL    HW168454   5.990   6.500   4.616 -0.6726 -0.4414 -0.2687
21854SOL    HW268455   5.867   6.465   4.697  0.6197 -2.7054  0.8315
21855SOL     OW68456   7.897   6.620   4.795  0.3486  0.7256  0.2075
21855SOL    HW168457   7.936   6.706   4.779  2.5261 -0.0633  1.0039
21855SOL    HW268458   7.915   6.570   4.715 -0.0645  0.7139  0.1205
21856SOL     OW68459   8.013   0.412   8.829  0.4133 -0.4884 -0.4491
21856SOL    HW168460   7.931   0.456   8.808  2.0008  2.6854 -0.7027
21856SOL    HW268461   8.030   0.435   8.920  0.9634 -1.2170 -0.3602
21857SOL     OW68462   0.773   8.355   2.979  0.3891  0.2456 -0.5097
21857SOL    HW168463   0.795   8.294   2.910 -0.3097 -0.2689 -0.2964
21857SOL    HW268464   0.696   8.402   2.946 -0.1885 -0.2796  0.0678
21858SOL     OW68465   4.670   6.268   7.083  0.0886 -0.5577 -0.1551
21858SOL    HW168466   4.644   6.177   7.067  1.7994 -1.2078  0.4673
21858SOL    HW268467   4.720   6.265   7.164  0.0798  0.9766 -0.0611
21859SOL     OW68468   4.145   6.055   5.271 -0.1994  0.0546  0.0015
21859SOL    HW168469   4.194   6.102   5.203 -1.0266 -0.0934 -0.7142
21859SOL    HW268470   4.176   5.964   5.265 -1.8841 -0.4690 -1.7665
21860SOL     OW68471   4.015   4.614   8.761 -0.2789 -0.1297  0.2224
21860SOL    HW168472   4.106   4.599   8.790 -0.1872 -1.6308 -0.7081
21860SOL    HW268473   3.974   4.527   8.768 -1.5285  0.4400  0.1889
21861SOL     OW68474   9.192   3.816   2.967  0.2813 -0.4156 -0.6620
21861SOL    HW168475   9.240   3.840   2.887  1.1239 -1.1672 -0.3929
21861SOL    HW268476   9.115   3.873   2.966  0.7471  0.2298 -1.5374
21862SOL     OW68477   0.861   7.023   2.543  0.5507  0.2155  0.4180
21862SOL    HW168478   0.878   7.084   2.614 -1.5120  0.4241  0.7966
21862SOL    HW268479   0.812   7.074   2.479 -0.2932 -0.7560  0.2657
21863SOL     OW68480   5.103   2.005   7.093 -0.9057  0.2179  0.2464
21863SOL    HW168481   5.152   2.041   7.167 -0.7309 -0.5183  0.5060
21863SOL    HW268482   5.141   1.918   7.080 -1.5189  0.0043 -0.1505
21864SOL     OW68483   4.990   5.937   3.201  0.3900 -0.2767 -0.0626
21864SOL    HW168484   5.020   5.901   3.118 -0.9842 -0.9247 -0.3081
21864SOL    HW268485   5.045   5.896   3.267  0.5364 -0.8659 -0.5461
21865SOL     OW68486   2.968   2.852   7.459  0.0543 -0.0025 -0.0591
21865SOL    HW168487   2.984   2.896   7.543  0.7063 -1.8024  0.7980
21865SOL    HW268488   2.887   2.804   7.472 -0.1380  0.1497 -0.6674
21866SOL     OW68489   5.810   5.349   7.536  0.3124 -0.0478  0.7877
21866SOL    HW168490   5.767   5.264   7.528  2.1727 -0.8604 -1.7983
21866SOL    HW268491   5.878   5.336   7.602 -0.2662 -0.1601  1.3680
21867SOL     OW68492   4.549   3.955   8.109  0.4931  0.1802  0.1900
21867SOL    HW168493   4.499   3.917   8.181  0.4966 -1.0735 -0.4413
21867SOL    HW268494   4.514   4.044   8.099 -1.5758 -0.6393 -0.1959
21868SOL     OW68495   0.701   3.271   5.012  0.4683  0.1499 -0.7719
21868SOL    HW168496   0.634   3.284   5.079  0.3890 -1.6285 -0.4678
21868SOL    HW268497   0.656   3.224   4.942  0.7346  1.3499 -1.7833
21869SOL     OW68498   3.022   7.993   6.590  0.1778  0.1316 -0.0805
21869SOL    HW168499   3.061   7.932   6.528 -1.2541 -0.9251  0.0112
21869SOL    HW268500   3.037   8.080   6.551  1.5355 -0.3166 -0.5998
21870SOL     OW68501   3.288   3.994   7.249  0.7983  0.1937 -0.1472
21870SOL    HW168502   3.371   3.963   7.285 -0.1549 -1.8053  0.4556
21870SOL    HW268503   3.278   3.948   7.166  1.3346  2.1776 -1.3875
21871SOL     OW68504   1.577   7.293   2.365 -0.0955  0.0195 -0.2121
21871SOL    HW168505   1.560   7.228   2.434  0.1959 -1.1650 -1.2351
21871SOL    HW268506   1.621   7.365   2.411 -1.2877 -0.0660  1.1204
21872SOL     OW68507   3.543   0.318   0.548 -0.4602 -0.5272  0.0170
21872SOL    HW168508   3.600   0.324   0.625  0.3426 -0.5723 -0.5596
21872SOL    HW268509   3.476   0.384   0.563  0.9425  1.0187 -0.2570
21873SOL     OW68510   5.409   1.424   4.998  0.0726 -0.1008 -0.3362
21873SOL    HW168511   5.383   1.350   5.054  0.8218 -0.8770 -0.9903
21873SOL    HW268512   5.497   1.448   5.029  0.0431  0.1846 -0.4686
21874SOL     OW68513   3.015   8.072   8.478  0.4716  0.0066 -0.0552
21874SOL    HW168514   2.928   8.079   8.516 -0.3413  1.9406 -2.0839
21874SOL    HW268515   3.020   7.982   8.444 -1.2120  0.2336 -0.9728
21875SOL     OW68516   8.874   4.481   9.053 -0.2586 -0.4024  0.5251
21875SOL    HW168517   8.906   4.475   9.143 -1.8791 -2.0034  1.0421
21875SOL    HW268518   8.802   4.543   9.057  0.0684  0.0044  0.1910
21876SOL     OW68519   4.239   2.790   8.700 -0.2211 -0.1510  0.8609
21876SOL    HW168520   4.147   2.778   8.675 -0.0651 -1.1594  0.7289
21876SOL    HW268521   4.246   2.747   8.785  0.4850 -1.5088  0.1398
21877SOL     OW68522   1.810   6.365   8.780  0.1853  0.2629  0.0854
21877SOL    HW168523   1.776   6.293   8.726 -1.9714  0.9361  0.4515
21877SOL    HW268524   1.819   6.438   8.719  4.2864 -0.6796 -0.7428
21878SOL     OW68525   6.753   3.755   8.539 -0.0250 -0.1926  0.2265
21878SOL    HW168526   6.780   3.825   8.598 -3.1759  0.0977  1.5379
21878SOL    HW268527   6.712   3.689   8.596 -2.4717 -0.2769 -1.4608
21879SOL     OW68528   2.031   1.707   6.953 -0.7234 -0.2569 -0.4727
21879SOL    HW168529   2.023   1.613   6.936 -0.0563 -0.3637 -0.2236
21879SOL    HW268530   1.966   1.724   7.021 -1.3171 -0.3995 -0.9900
21880SOL     OW68531   6.940   5.095   7.142 -0.1820 -0.1901  0.1591
21880SOL    HW168532   6.889   5.024   7.182  0.3028  0.1190  1.3808
21880SOL    HW268533   6.997   5.051   7.079  0.1542 -0.9119  0.9418
21881SOL     OW68534   2.452   5.414   6.114  0.3830  0.1340 -0.3248
21881SOL    HW168535   2.530   5.359   6.126  0.9238  0.5624 -1.6597
21881SOL    HW268536   2.383   5.352   6.090  0.3875 -0.2151  0.5499
21882SOL     OW68537   1.404   5.144   4.269 -0.2810  0.2476  0.3866
21882SOL    HW168538   1.466   5.073   4.287 -0.0064  0.6255  0.9594
21882SOL    HW268539   1.334   5.132   4.334  0.1044  0.8957  0.9371
21883SOL     OW68540   7.377   5.977   1.012 -0.1742 -0.1802 -0.3836
21883SOL    HW168541   7.379   5.881   1.010 -1.8081 -0.2656  0.4183
21883SOL    HW268542   7.457   6.003   0.967 -0.6249 -1.9098 -2.3609
21884SOL     OW68543   6.386   4.318   8.309 -0.0872  0.2427  0.2914
21884SOL    HW168544   6.392   4.374   8.231 -1.1914  0.7993  0.5836
21884SOL    HW268545   6.462   4.342   8.362 -1.0692  2.2494  0.8909
21885SOL     OW68546   6.021   4.043   8.374 -0.1870 -0.6918  0.0336
21885SOL    HW168547   6.040   4.039   8.468 -1.4618 -0.9657  0.2914
21885SOL    HW268548   6.107   4.054   8.333  0.1858  3.0269  1.3906
21886SOL     OW68549   3.353   6.341   0.673 -0.0861 -0.4378  0.6697
21886SOL    HW168550   3.285   6.408   0.680  0.0024 -0.5066  3.8482
21886SOL    HW268551   3.365   6.327   0.579 -4.3884 -0.3889 -0.0718
21887SOL     OW68552   9.111   4.951   0.951 -0.9264  0.1686  0.0969
21887SOL    HW168553   9.058   4.896   0.893 -0.5522 -0.9854  0.8219
21887SOL    HW268554   9.088   5.041   0.927 -1.9556 -0.3053 -0.7379
21888SOL     OW68555   6.294   3.223   7.945  0.3006 -0.4565 -0.0893
21888SOL    HW168556   6.334   3.209   8.031  1.0730 -0.6056 -0.4619
21888SOL    HW268557   6.293   3.318   7.934  2.1344 -0.4698 -0.7735
21889SOL     OW68558   5.338   5.631   8.331  0.0388  0.2074 -0.3219
21889SOL    HW168559   5.395   5.590   8.265  1.2280  0.2697  0.6232
21889SOL    HW268560   5.382   5.713   8.352 -1.3588  1.1189 -0.8430
21890SOL     OW68561   3.475   3.206   4.908  0.1250  0.5732  0.0050
21890SOL    HW168562   3.539   3.169   4.968  0.6754 -0.0138 -0.9068
21890SOL    HW268563   3.392   3.169   4.935  0.6685 -1.5119 -0.9422
21891SOL     OW68564   8.696   3.156   8.678 -0.6067 -0.2615  0.7463
21891SOL    HW168565   8.783   3.194   8.683  0.0985 -1.8409  1.1659
21891SOL    HW268566   8.681   3.120   8.766 -0.5662 -2.2706 -0.0296
21892SOL     OW68567   0.541   6.386   3.495  0.4899 -0.6690  0.4977
21892SOL    HW168568   0.582   6.301   3.513  0.0927 -0.8522  0.5366
21892SOL    HW268569   0.474   6.367   3.430 -0.3243 -0.5743  1.2931
21893SOL     OW68570   0.428   0.292   0.941 -0.7887 -0.2522  0.4628
21893SOL    HW168571   0.348   0.281   0.890  0.6240  0.6062 -2.1548
21893SOL    HW268572   0.398   0.317   1.028 -3.3444  0.4979 -0.5397
21894SOL     OW68573   2.272   0.454   4.002 -0.2351 -0.3805 -0.0959
21894SOL    HW168574   2.365   0.478   4.010 -0.3273 -0.0032 -0.1236
21894SOL    HW268575   2.272   0.379   3.943 -0.1175  0.8867 -1.7876
21895SOL     OW68576   2.236   8.779   0.853  0.0247  0.4683  0.2379
21895SOL    HW168577   2.314   8.779   0.909  0.7957  0.0750 -0.8142
21895SOL    HW268578   2.270   8.790   0.764 -1.2418  2.0740 -0.0904
21896SOL     OW68579   5.171   3.079   6.515 -0.2925 -1.0677 -0.1413
21896SOL    HW168580   5.086   3.054   6.479  0.1961 -2.0897 -0.6133
21896SOL    HW268581   5.174   3.034   6.600 -0.1215 -1.2143 -0.2270
21897SOL     OW68582   6.337   0.564   2.312 -0.5797  0.1286 -0.0228
21897SOL    HW168583   6.328   0.478   2.272  0.4525 -0.1213  0.2369
21897SOL    HW268584   6.372   0.546   2.400 -1.3419  0.7525  0.4228
21898SOL     OW68585   3.222   6.041   4.621  0.0080 -0.1780 -0.0746
21898SOL    HW168586   3.248   6.095   4.696 -1.8581  0.4237  0.1933
21898SOL    HW268587   3.270   5.959   4.633  3.8967  1.7236 -1.1554
21899SOL     OW68588   4.548   2.646   1.541  0.8906 -0.6026 -0.4120
21899SOL    HW168589   4.623   2.627   1.598  1.2657 -1.2930 -1.1159
21899SOL    HW268590   4.475   2.599   1.581  0.9668 -0.4122 -0.0475
21900SOL     OW68591   2.723   2.705   7.512 -0.0300 -0.2134 -0.1655
21900SOL    HW168592   2.720   2.630   7.572  1.9077 -0.4775 -0.3304
21900SOL    HW268593   2.669   2.772   7.554  1.0486 -0.4826  1.7817
21901SOL     OW68594   9.253   3.359   1.833  0.7521 -0.1724  0.0301
21901SOL    HW168595   9.223   3.442   1.796 -0.4664 -1.0975 -1.1341
21901SOL    HW268596   9.333   3.338   1.785 -1.3975 -1.9346 -3.1345
21902SOL     OW68597   1.669   1.337   8.195 -0.3296  1.0020 -0.1342
21902SOL    HW168598   1.703   1.420   8.160 -1.0518  1.9197  1.2657
21902SOL    HW268599   1.711   1.329   8.281 -0.0771 -0.2326 -0.3615
21903SOL     OW68600   8.183   8.423   6.397  0.0651  0.4108 -0.2823
21903SOL    HW168601   8.190   8.495   6.459  0.7255  0.2945 -0.2101
21903SOL    HW268602   8.139   8.461   6.321 -0.7215  0.5595  0.2403
21904SOL     OW68603   0.112   2.290   6.577  1.0679 -0.1701 -0.0890
21904SOL    HW168604   0.105   2.285   6.482  0.2444 -2.1330  0.0192
21904SOL    HW268605   0.072   2.374   6.601 -0.1604 -0.3706 -1.3601
21905SOL     OW68606   3.931   2.997   0.185 -0.0073 -0.0781  0.4692
21905SOL    HW168607   3.972   3.006   0.270  0.0655  0.5955  0.3657
21905SOL    HW268608   3.989   2.939   0.136 -0.0651 -0.4865  0.8836
21906SOL     OW68609   1.266   7.428   7.492 -0.0061  0.0846 -0.1771
21906SOL    HW168610   1.173   7.451   7.489 -0.2192 -0.7423 -0.4178
21906SOL    HW268611   1.272   7.365   7.564  0.1763 -0.6152 -0.7885
21907SOL     OW68612   5.467   3.575   0.868  0.2242 -0.2887  0.0435
21907SOL    HW168613   5.559   3.594   0.850 -0.2035 -0.2263 -2.3085
21907SOL    HW268614   5.464   3.560   0.963  2.7602 -0.9457  0.0803
21908SOL     OW68615   0.448   0.136   4.191  0.0223  0.4238 -1.0837
21908SOL    HW168616   0.514   0.132   4.121  1.3342  0.2216  0.1285
21908SOL    HW268617   0.392   0.060   4.175  0.5387  0.1572 -1.7028
21909SOL     OW68618   7.611   0.116   4.454  0.7359  0.2029 -0.0777
21909SOL    HW168619   7.537   0.164   4.416  0.2170 -1.7021 -1.6018
21909SOL    HW268620   7.617   0.150   4.544 -0.0942  2.4894 -0.8157
21910SOL     OW68621   2.338   2.371   6.035  0.2647  0.6537 -0.2808
21910SOL    HW168622   2.268   2.349   5.974 -1.4815  3.2805  0.6010
21910SOL    HW268623   2.384   2.288   6.051 -0.9493 -0.6350 -2.9300
21911SOL     OW68624   0.274   6.648   4.312 -0.3303  0.2417 -0.4713
21911SOL    HW168625   0.184   6.670   4.289 -0.0166  0.0913 -1.9434
21911SOL    HW268626   0.286   6.558   4.281  0.6828  0.6872 -1.4581
21912SOL     OW68627   8.116   0.137   5.312 -0.5850 -0.1397 -0.5677
21912SOL    HW168628   8.155   0.131   5.225  0.1423  0.0714 -0.2721
21912SOL    HW268629   8.077   0.224   5.315  1.1362  0.6693 -0.0177
21913SOL     OW68630   4.499   1.794   4.614 -0.2732  0.5112 -0.0285
21913SOL    HW168631   4.455   1.744   4.545  1.3948 -0.4916 -0.4107
21913SOL    HW268632   4.563   1.733   4.651  0.7397  1.8796  0.5515
21914SOL     OW68633   9.074   0.184   2.452 -0.1370  0.1844 -0.1377
21914SOL    HW168634   9.000   0.125   2.467 -0.8687  1.4171  1.3009
21914SOL    HW268635   9.047   0.239   2.379  0.1955 -0.6720 -0.9189
21915SOL     OW68636   6.903   1.987   6.525  0.7641  0.3830  0.1280
21915SOL    HW168637   6.857   2.020   6.602  0.2302  0.3598 -0.1782
21915SOL    HW268638   6.844   1.922   6.488  1.2308  0.0443 -0.0320
21916SOL     OW68639   4.869   8.663   0.361 -0.1612 -0.0539  0.0043
21916SOL    HW168640   4.873   8.759   0.359  0.8972 -0.0939 -1.3000
21916SOL    HW268641   4.778   8.643   0.339 -0.2304  0.6457 -0.3832
21917SOL     OW68642   7.682   3.117   2.245  0.2640  0.1195 -0.5281
21917SOL    HW168643   7.666   3.134   2.338  2.0462 -1.5825  0.1554
21917SOL    HW268644   7.629   3.041   2.225  0.7114 -0.1800 -0.5974
21918SOL     OW68645   5.648   0.926   4.906 -0.0309  0.3274 -0.4302
21918SOL    HW168646   5.577   0.905   4.846  0.1277  0.0550 -0.5226
21918SOL    HW268647   5.716   0.964   4.851 -0.0607  0.4862 -0.3580
21919SOL     OW68648   1.999   4.572   0.652  0.7309 -0.6854  0.1469
21919SOL    HW168649   2.033   4.484   0.668  0.6744 -0.5088  1.3431
21919SOL    HW268650   1.975   4.604   0.739 -1.6819 -0.4616 -0.5342
21920SOL     OW68651   1.510   7.595   2.475  0.3527  0.1206  0.5346
21920SOL    HW168652   1.538   7.678   2.515 -0.6262  1.3761 -1.2605
21920SOL    HW268653   1.561   7.589   2.394  0.4285 -1.0806  0.6469
21921SOL     OW68654   8.101   2.277   6.353 -0.1843 -0.2339  0.3950
21921SOL    HW168655   8.023   2.296   6.301  0.8359 -1.2028 -1.5953
21921SOL    HW268656   8.174   2.286   6.292  1.2156 -0.2529  1.9700
21922SOL     OW68657   5.363   7.379   1.047  0.6905 -0.1018 -0.1062
21922SOL    HW168658   5.350   7.438   0.973 -2.7072  0.2868  0.6301
21922SOL    HW268659   5.314   7.300   1.024 -0.8656  0.2115  1.8251
21923SOL     OW68660   0.196   0.811   1.496 -1.0060  0.0116 -0.2196
21923SOL    HW168661   0.273   0.781   1.447 -1.1183  0.8528 -0.9412
21923SOL    HW268662   0.185   0.903   1.469 -0.3849  0.8872  2.2564
21924SOL     OW68663   3.075   6.810   5.552 -0.2500  0.0604  0.3228
21924SOL    HW168664   3.074   6.714   5.545 -0.7029  0.1527 -1.4353
21924SOL    HW268665   3.000   6.838   5.500  0.4172  1.4108  0.0521
21925SOL     OW68666   3.442   5.851   5.683  0.0859  0.1367  0.3902
21925SOL    HW168667   3.484   5.840   5.768  2.5051 -0.3882 -0.7571
21925SOL    HW268668   3.371   5.787   5.683  2.1008 -2.3022  0.8814
21926SOL     OW68669   8.337   8.860   5.136 -0.5676 -0.5158  0.2167
21926SOL    HW168670   8.250   8.868   5.174 -0.5358 -1.1754  0.4409
21926SOL    HW268671   8.389   8.818   5.204 -0.4181 -1.3791 -0.4052
21927SOL     OW68672   1.941   8.463   6.014  0.2819  0.1633  0.1876
21927SOL    HW168673   1.887   8.511   6.077 -1.3844  0.6361 -1.4991
21927SOL    HW268674   1.922   8.371   6.032 -2.1176  0.3086 -1.0675
21928SOL     OW68675   6.235   0.995   8.704 -0.2489 -0.2953 -0.0743
21928SOL    HW168676   6.249   1.074   8.756 -0.5667  0.2885 -0.8484
21928SOL    HW268677   6.141   0.980   8.705 -0.2053 -0.5862 -0.0447
21929SOL     OW68678   5.069   3.889   5.804 -0.1624 -0.0327 -0.1094
21929SOL    HW168679   5.152   3.869   5.847 -0.7601 -1.0445  0.6034
21929SOL    HW268680   5.003   3.884   5.874 -0.6688  2.2833 -0.3258
21930SOL     OW68681   2.215   4.400   5.808  0.0331 -0.1093 -0.8394
21930SOL    HW168682   2.134   4.351   5.793  0.6737 -1.0030 -1.5646
21930SOL    HW268683   2.245   4.371   5.895  1.3212 -2.4692 -1.9653
21931SOL     OW68684   4.278   1.687   7.731 -0.1673  0.2497  0.0877
21931SOL    HW168685   4.325   1.691   7.648  0.9214 -1.9938  0.5106
21931SOL    HW268686   4.347   1.681   7.797 -0.9875 -0.8267  0.8972
21932SOL     OW68687   8.114   1.070   8.490 -0.4639  0.1162  0.2172
21932SOL    HW168688   8.131   1.133   8.420  1.1481  1.8549  2.0215
21932SOL    HW268689   8.104   1.124   8.569  0.6069 -1.8410  1.8004
21933SOL     OW68690   1.658   7.368   7.214  0.4603  0.0358 -0.4605
21933SOL    HW168691   1.713   7.408   7.282  0.0418  1.0628 -0.7056
21933SOL    HW268692   1.622   7.290   7.255  1.3717 -0.1511  0.0087
21934SOL     OW68693   6.359   3.326   5.013 -0.5595  0.7065  0.3947
21934SOL    HW168694   6.303   3.333   5.091 -1.7189  0.6392 -0.4063
21934SOL    HW268695   6.387   3.235   5.011  0.0816  0.8810  1.1336
21935SOL     OW68696   7.407   2.840   3.641  0.4001 -0.3380  0.4840
21935SOL    HW168697   7.409   2.764   3.582  1.7155  0.7619 -0.9957
21935SOL    HW268698   7.412   2.802   3.729  1.3075 -1.9800 -0.2165
21936SOL     OW68699   8.664   3.889   8.217 -0.3824 -0.0312  0.3378
21936SOL    HW168700   8.706   3.963   8.172  0.0161 -0.4609 -0.0078
21936SOL    HW268701   8.695   3.895   8.307  1.0132 -0.7613 -0.0711
21937SOL     OW68702   9.237   2.411   2.953  0.0485 -0.7799 -0.1748
21937SOL    HW168703   9.280   2.482   2.906  0.8258 -0.7972  0.4894
21937SOL    HW268704   9.230   2.340   2.888  2.7779 -1.4806  0.1462
21938SOL     OW68705   7.698   1.548   6.291  0.6978  0.4634 -0.2584
21938SOL    HW168706   7.785   1.589   6.292  0.2837  1.4223  1.7693
21938SOL    HW268707   7.640   1.616   6.256  0.4167  0.7223  0.6728
21939SOL     OW68708   2.191   5.624   1.615  0.2835  0.2282 -0.2013
21939SOL    HW168709   2.169   5.626   1.708 -0.9697 -3.4578 -0.2411
21939SOL    HW268710   2.109   5.643   1.570  0.1882 -0.8012 -0.4908
21940SOL     OW68711   3.398   5.944   0.586  0.2121 -0.7130  0.8027
21940SOL    HW168712   3.379   5.979   0.673 -2.3206 -2.3993  1.0287
21940SOL    HW268713   3.391   5.849   0.596 -0.0115 -0.9520 -1.2181
21941SOL     OW68714   2.788   2.019   3.180  0.3511 -0.0512 -0.7030
21941SOL    HW168715   2.775   2.094   3.121  1.2147  0.6486 -0.0212
21941SOL    HW268716   2.722   2.031   3.248 -0.2148 -0.5069 -1.1557
21942SOL     OW68717   7.010   4.428   8.607  0.0194  0.2005 -0.2331
21942SOL    HW168718   6.996   4.339   8.638 -1.0311  0.8082  1.1794
21942SOL    HW268719   7.037   4.477   8.685 -1.6597  1.5809 -0.4567
21943SOL     OW68720   2.723   7.140   4.478  0.6658 -0.2588 -0.2314
21943SOL    HW168721   2.647   7.094   4.514 -0.1617  1.8062  0.7726
21943SOL    HW268722   2.726   7.112   4.386 -1.1347 -0.6072 -0.2219
21944SOL     OW68723   9.127   8.681   0.607 -0.5885  0.2119  0.3300
21944SOL    HW168724   9.064   8.615   0.577 -2.1727  2.0630 -0.6949
21944SOL    HW268725   9.204   8.667   0.552 -1.7884  0.6503 -1.5821
21945SOL     OW68726   0.557   6.479   4.320 -0.0934  0.3383 -0.2500
21945SOL    HW168727   0.560   6.561   4.272 -1.0864  0.9060  0.6140
21945SOL    HW268728   0.644   6.440   4.308  0.0620  1.0321 -1.4815
21946SOL     OW68729   2.927   6.888   4.716  0.0373  0.3507 -0.1444
21946SOL    HW168730   2.992   6.822   4.739 -0.2679  0.2456  0.4168
21946SOL    HW268731   2.879   6.849   4.642  0.5517  0.3955 -0.5065
21947SOL     OW68732   6.611   8.217   6.735  0.0723 -0.1728  0.8294
21947SOL    HW168733   6.566   8.156   6.678  1.7333 -0.1204 -0.6152
21947SOL    HW268734   6.584   8.191   6.824  0.1933 -2.5661  0.2397
21948SOL     OW68735   7.776   7.754   6.029 -0.4220  0.3563 -0.3349
21948SOL    HW168736   7.686   7.768   6.060  0.1101  1.7824  0.6777
21948SOL    HW268737   7.806   7.677   6.077 -0.8132  0.4147  0.0127
21949SOL     OW68738   4.686   2.718   4.937  0.6970  0.0235  0.0731
21949SOL    HW168739   4.605   2.680   4.904  0.6103 -0.2354  0.5734
21949SOL    HW268740   4.663   2.756   5.022  0.9165  0.6804 -0.1535
21950SOL     OW68741   1.727   8.158   4.495 -0.3909  0.1463 -0.2480
21950SOL    HW168742   1.687   8.241   4.521 -0.6646  0.0060 -0.2194
21950SOL    HW268743   1.789   8.138   4.565  0.3331  0.7752 -0.6914
21951SOL     OW68744   3.936   4.957   6.052 -0.2747  0.2471  0.1015
21951SOL    HW168745   3.938   5.022   6.122 -0.7281 -0.5517  0.8852
21951SOL    HW268746   3.875   4.891   6.083 -1.4920  0.4995 -1.6433
21952SOL     OW68747   1.920   6.120   6.420  0.0903 -0.1379 -0.5461
21952SOL    HW168748   1.928   6.036   6.465  1.1989 -0.1023 -0.6526
21952SOL    HW268749   1.965   6.107   6.337 -0.3203  0.3590 -0.8506
21953SOL     OW68750   1.296   2.633   6.746  0.0392  0.8508 -0.4057
21953SOL    HW168751   1.237   2.687   6.693  0.5123  2.7793  0.8945
21953SOL    HW268752   1.310   2.685   6.825  0.3716 -1.3277  1.0625
21954SOL     OW68753   4.343   6.734   7.393 -0.3803  0.4790  0.5954
21954SOL    HW168754   4.406   6.695   7.332  0.6389 -0.2808  2.0490
21954SOL    HW268755   4.396   6.795   7.445 -0.7281 -0.4164  2.0642
21955SOL     OW68756   7.742   3.977   8.929 -0.5323 -0.3694  0.2815
21955SOL    HW168757   7.711   3.903   8.982 -0.8379 -0.6865 -0.3255
21955SOL    HW268758   7.691   4.052   8.960 -1.6973 -0.8181 -0.4784
21956SOL     OW68759   3.553   4.775   0.155 -0.5403 -0.2581  0.1710
21956SOL    HW168760   3.484   4.737   0.209 -0.3381  1.0098  1.3668
21956SOL    HW268761   3.507   4.823   0.086 -0.9417  1.6520  1.6944
21957SOL     OW68762   8.936   2.146   2.440 -0.2517  0.9381 -0.4887
21957SOL    HW168763   9.002   2.076   2.441  0.0442  1.1258 -2.3162
21957SOL    HW268764   8.873   2.117   2.374 -0.9240  1.7035 -0.1937
21958SOL     OW68765   3.997   0.751   4.290 -0.5088 -0.1615 -0.3057
21958SOL    HW168766   3.967   0.810   4.359 -0.4247 -0.3981 -0.0635
21958SOL    HW268767   3.918   0.732   4.238 -1.1956 -2.1306  1.3262
21959SOL     OW68768   6.616   9.133   4.817  0.2659  0.3938 -0.1579
21959SOL    HW168769   6.593   9.198   4.884  0.9146  0.5291 -0.0627
21959SOL    HW268770   6.600   9.176   4.734  2.3571  1.3251 -0.1303
21960SOL     OW68771   9.260   0.777   2.325 -0.1180  0.4077 -0.2194
21960SOL    HW168772   9.325   0.717   2.362 -0.2235 -1.0124 -2.1778
21960SOL    HW268773   9.290   0.864   2.353  1.3385 -0.3768  0.8094
21961SOL     OW68774   2.120   0.812   2.524 -0.5231 -0.5981  0.0411
21961SOL    HW168775   2.123   0.770   2.610 -0.9352 -0.4010  0.1547
21961SOL    HW268776   2.027   0.812   2.501 -0.4502 -0.3414 -0.2538
21962SOL     OW68777   0.398   7.782   1.717 -0.4005 -0.1261  0.1193
21962SOL    HW168778   0.307   7.778   1.747  0.2147 -0.1694  2.1351
21962SOL    HW268779   0.442   7.711   1.765  0.9252  0.6284  0.0759
21963SOL     OW68780   6.562   6.793   0.310  0.5682  0.6428 -1.0959
21963SOL    HW168781   6.506   6.804   0.234  1.1051  0.6888 -1.4897
21963SOL    HW268782   6.526   6.717   0.356 -1.8925  2.6148  0.5284
21964SOL     OW68783   7.826   7.336   4.666 -0.2334  0.1047  0.2569
21964SOL    HW168784   7.835   7.382   4.582 -1.2868  0.3825  0.2818
21964SOL    HW268785   7.898   7.274   4.666 -0.3853 -0.1124 -1.0031
21965SOL     OW68786   5.695   2.671   2.232 -0.5938 -0.2582  0.7713
21965SOL    HW168787   5.648   2.657   2.314 -1.2399 -0.0601  0.4483
21965SOL    HW268788   5.715   2.764   2.230  0.2871 -0.4326  1.1472
21966SOL     OW68789   0.602   8.657   1.673 -0.0657  0.0204 -0.6195
21966SOL    HW168790   0.673   8.657   1.738 -0.4525  1.5490 -0.1583
21966SOL    HW268791   0.633   8.716   1.604 -0.6706  0.2896 -0.6641
21967SOL     OW68792   9.013   0.309   4.811  0.3665  0.2038 -0.2850
21967SOL    HW168793   9.005   0.236   4.749 -0.2394  0.4577 -0.5150
21967SOL    HW268794   8.958   0.284   4.885  1.4108 -0.2839  0.3431
21968SOL     OW68795   3.111   8.654   6.655  0.4146 -0.5260 -0.0799
21968SOL    HW168796   3.069   8.570   6.673 -1.3012  0.3392  0.1772
21968SOL    HW268797   3.195   8.649   6.701 -0.1510 -1.6653  0.8921
21969SOL     OW68798   2.564   3.892   3.359 -0.1203 -0.3263 -0.2165
21969SOL    HW168799   2.630   3.874   3.426 -0.5657 -3.3040 -0.4723
21969SOL    HW268800   2.613   3.896   3.277 -0.0714 -1.0172 -0.2239
21970SOL     OW68801   6.704   2.148   9.009  0.1386  0.0077 -0.0661
21970SOL    HW168802   6.762   2.156   8.933 -0.4231 -0.1865 -0.5189
21970SOL    HW268803   6.655   2.230   9.010  0.8993  0.4721  0.7275
21971SOL     OW68804   3.266   4.270   8.737  0.0104  0.3393 -0.3799
21971SOL    HW168805   3.233   4.343   8.685 -0.0433 -1.0207 -2.4220
21971SOL    HW268806   3.245   4.192   8.684  0.4159 -1.1249  1.4943
21972SOL     OW68807   8.395   1.837   5.316  0.6909 -0.2366 -0.0144
21972SOL    HW168808   8.387   1.760   5.372  1.1439 -0.5116 -0.3164
21972SOL    HW268809   8.309   1.846   5.276  0.3031  0.0920  0.8819
21973SOL     OW68810   5.448   3.715   7.257 -0.3648  0.0003 -0.4520
21973SOL    HW168811   5.527   3.660   7.260  0.1281  0.6009 -1.9119
21973SOL    HW268812   5.455   3.770   7.335 -1.6913 -3.0012  2.0227
21974SOL     OW68813   0.069   8.191   3.647 -0.3136 -0.3044  0.0719
21974SOL    HW168814   0.101   8.138   3.720 -0.9314 -1.6334 -0.5905
21974SOL    HW268815  -0.025   8.172   3.642  0.0993 -2.2780 -2.6203
21975SOL     OW68816   8.094   1.809   3.023 -0.2708 -0.2660 -0.2531
21975SOL    HW168817   8.031   1.827   2.953 -1.4148  0.1476  0.8564
21975SOL    HW268818   8.083   1.716   3.043 -2.5818  0.3707  1.8293
21976SOL     OW68819   7.286   9.190   0.723  0.0703  0.4424  0.1750
21976SOL    HW168820   7.315   9.114   0.673 -0.5023  0.6616 -0.5067
21976SOL    HW268821   7.270   9.155   0.811 -0.4773 -0.3044 -0.2009
21977SOL     OW68822   9.231   2.665   6.346  0.4828  1.3047  0.2858
21977SOL    HW168823   9.143   2.687   6.376  0.9945  2.0066  1.3670
21977SOL    HW268824   9.222   2.649   6.252 -1.1319 -0.5288  0.6949
21978SOL     OW68825   4.582   0.169   1.871 -0.8594  0.0378 -0.0637
21978SOL    HW168826   4.665   0.180   1.825 -1.2470 -1.2505 -1.1314
21978SOL    HW268827   4.605   0.170   1.964  0.4834 -1.2442 -0.3540
21979SOL     OW68828   8.232   8.913   4.847 -0.4585 -0.2044  0.0124
21979SOL    HW168829   8.202   8.824   4.830 -2.9975  0.8240 -1.4299
21979SOL    HW268830   8.164   8.951   4.902  0.1323  1.1389 -0.1505
21980SOL     OW68831   5.567   2.834   7.872  0.1663 -0.1974 -0.2518
21980SOL    HW168832   5.562   2.829   7.777 -1.4961 -0.8085 -0.1762
21980SOL    HW268833   5.568   2.742   7.901  0.2307 -0.0220  0.3177
21981SOL     OW68834   8.504   8.402   8.587 -0.0583  0.3104  0.2721
21981SOL    HW168835   8.436   8.337   8.605  0.3691  0.3189  2.1743
21981SOL    HW268836   8.514   8.449   8.670  1.2372  1.2786 -0.4061
21982SOL     OW68837   0.360   2.655   6.312  0.1566 -0.2661  0.0331
21982SOL    HW168838   0.316   2.574   6.285 -1.9792  0.4689  1.0688
21982SOL    HW268839   0.359   2.651   6.408  0.9658  0.5271  0.0818
21983SOL     OW68840   2.858   7.440   5.268 -0.2020  0.1144  0.0197
21983SOL    HW168841   2.795   7.481   5.209  0.4224 -0.2931 -0.9640
21983SOL    HW268842   2.810   7.427   5.349 -1.1056  0.6480 -0.4100
21984SOL     OW68843   8.798   0.736   7.000  0.2731  0.0997 -0.1824
21984SOL    HW168844   8.844   0.680   7.063 -0.3342 -1.5805 -1.1645
21984SOL    HW268845   8.767   0.675   6.933  0.0471  1.7112 -1.5935
21985SOL     OW68846   6.769   0.295   6.198  0.6647  0.4535 -1.2655
21985SOL    HW168847   6.801   0.348   6.125 -0.8461 -0.0804 -2.3656
21985SOL    HW268848   6.832   0.312   6.269  1.2941  2.2076 -2.1708
21986SOL     OW68849   8.819   0.526   4.923  0.0087 -0.3639  0.0570
21986SOL    HW168850   8.852   0.493   4.839 -1.0229  0.1254 -0.5540
21986SOL    HW268851   8.895   0.570   4.962  0.3822 -0.1772 -0.8421
21987SOL     OW68852   0.194   3.152   9.086  0.5375  0.3916  0.1229
21987SOL    HW168853   0.159   3.142   8.997  1.1342  2.3004 -0.3844
21987SOL    HW268854   0.282   3.116   9.082  0.4968  0.3080 -0.0146
21988SOL     OW68855   4.416   1.218   0.240 -0.6841 -0.2417  0.0327
21988SOL    HW168856   4.354   1.289   0.227  0.9727  1.7344  2.1671
21988SOL    HW268857   4.431   1.183   0.152 -1.7067  1.9236 -1.0738
21989SOL     OW68858   0.296   5.632   4.235  0.2216  0.4290  0.4225
21989SOL    HW168859   0.321   5.564   4.298  0.8549  1.2836  1.1398
21989SOL    HW268860   0.380   5.666   4.203 -0.0531  1.6136  0.9157
21990SOL     OW68861   3.398   5.573   7.180  0.4645  0.5506 -0.0369
21990SOL    HW168862   3.322   5.611   7.135  0.8955 -0.1077 -1.3696
21990SOL    HW268863   3.465   5.567   7.112  1.2068 -0.3219  0.7519
21991SOL     OW68864   1.502   6.196   4.836 -0.3147  0.0178  0.4895
21991SOL    HW168865   1.552   6.131   4.786 -0.8247 -0.9479  1.2165
21991SOL    HW268866   1.412   6.184   4.807 -0.4184  0.3595  0.6717
21992SOL     OW68867   7.230   4.145   4.189 -0.1011 -1.0327 -1.2080
21992SOL    HW168868   7.239   4.240   4.183 -1.6671 -0.7164  0.6180
21992SOL    HW268869   7.136   4.130   4.198  0.2909 -2.4571  1.9691
21993SOL     OW68870   3.833   1.903   2.930  0.3477 -0.5918  0.2821
21993SOL    HW168871   3.756   1.957   2.913  1.3708  1.0449  0.6125
21993SOL    HW268872   3.907   1.958   2.904  1.4064 -2.6049 -1.3523
21994SOL     OW68873   2.805   7.144   5.235  0.5848  0.0027  0.5394
21994SOL    HW168874   2.794   7.236   5.259 -0.2498 -0.0828  0.5290
21994SOL    HW268875   2.811   7.144   5.139 -2.4778 -0.1652  0.2364
21995SOL     OW68876   6.167   7.367   6.293  0.5470 -0.1570 -0.3698
21995SOL    HW168877   6.187   7.422   6.218  2.5122 -0.2319  0.0658
21995SOL    HW268878   6.149   7.281   6.256 -1.2265  0.4163 -0.9417
21996SOL     OW68879   4.998   4.346   5.041 -0.1302  0.0361  0.9055
21996SOL    HW168880   5.031   4.260   5.017  0.9623  1.0918 -1.7319
21996SOL    HW268881   4.909   4.330   5.073  0.2568 -2.0914  1.0468
21997SOL     OW68882   7.976   1.302   8.085 -0.1135 -0.2069  0.4402
21997SOL    HW168883   7.915   1.231   8.067  0.2766 -0.4848  0.1791
21997SOL    HW268884   7.993   1.296   8.179  0.7963 -1.1975  0.2365
21998SOL     OW68885   5.188   0.662   6.669  0.0992 -0.0972 -0.1009
21998SOL    HW168886   5.283   0.652   6.666 -0.1630 -3.2864 -1.9495
21998SOL    HW268887   5.169   0.674   6.762  2.2410 -0.1808  0.4007
21999SOL     OW68888   6.500   3.844   3.120 -0.1438  0.2952 -0.4431
21999SOL    HW168889   6.578   3.793   3.100 -0.8698 -1.0827  0.1099
21999SOL    HW268890   6.448   3.787   3.176 -1.3036  1.3990 -0.3527
22000SOL     OW68891   6.062   1.347   7.771  0.6293 -0.1566 -0.5532
22000SOL    HW168892   6.133   1.326   7.831 -0.7851  0.0762  1.2696
22000SOL    HW268893   6.062   1.275   7.708  0.9814 -1.3816  0.8094
22001SOL     OW68894   5.178   4.791   1.265  0.1081  0.0881  0.0094
22001SOL    HW168895   5.177   4.787   1.170 -0.1960  2.1697 -0.1381
22001SOL    HW268896   5.100   4.743   1.293  0.0265 -0.2569 -0.8062
22002SOL     OW68897   7.891   4.934   3.022  0.2007  0.0325  0.0504
22002SOL    HW168898   7.838   5.013   3.032  0.4123  0.3296 -1.1308
22002SOL    HW268899   7.925   4.938   2.933  2.8781  0.2540  1.0076
22003SOL     OW68900   2.452   3.840   8.995 -0.5068 -0.4371  0.6018
22003SOL    HW168901   2.500   3.757   8.996 -0.3105 -0.3251  1.8923
22003SOL    HW268902   2.515   3.904   8.962 -0.1606 -0.5237  1.0838
22004SOL     OW68903   1.151   6.117   5.389  0.4046  0.1166 -0.6630
22004SOL    HW168904   1.070   6.130   5.438  0.2210 -0.5273 -0.7883
22004SOL    HW268905   1.171   6.024   5.400  0.0662 -0.1636 -2.2567
22005SOL     OW68906   3.478   6.987   0.184 -0.4283 -0.1973 -0.7685
22005SOL    HW168907   3.467   7.023   0.272 -1.8391 -0.1844 -0.9338
22005SOL    HW268908   3.551   6.925   0.192 -0.3410  0.0348  0.3277
22006SOL     OW68909   9.118   7.072   0.306 -0.1352  0.4832  0.0162
22006SOL    HW168910   9.183   7.055   0.374  1.0006  2.9716 -0.3667
22006SOL    HW268911   9.169   7.095   0.229 -1.4662  0.4999 -0.8854
22007SOL     OW68912   4.726   7.870   6.230 -0.5197  0.1544 -0.1220
22007SOL    HW168913   4.721   7.821   6.148 -0.5386 -0.5730  0.3058
22007SOL    HW268914   4.817   7.898   6.235 -0.7112  0.9631 -0.8118
22008SOL     OW68915   0.865   6.367   3.135 -0.7082  0.1149  0.0826
22008SOL    HW168916   0.916   6.428   3.081 -1.2218  0.3221 -0.1716
22008SOL    HW268917   0.928   6.335   3.200  0.0826 -0.6029 -0.9907
22009SOL     OW68918   7.185   2.333   3.220 -0.7272 -0.2421  0.0257
22009SOL    HW168919   7.169   2.342   3.126 -1.0647 -0.0615  0.1011
22009SOL    HW268920   7.256   2.268   3.225 -0.0218  0.4810 -0.3921
22010SOL     OW68921   3.653   6.872   0.665  0.0290  0.3646  0.1871
22010SOL    HW168922   3.639   6.964   0.643  0.8523  0.6191  0.6651
22010SOL    HW268923   3.597   6.823   0.605 -2.8223  1.2800  1.8872
22011SOL     OW68924   2.461   4.204   1.222 -0.6002 -0.3219 -0.1752
22011SOL    HW168925   2.463   4.209   1.318  0.0102 -1.5641 -0.1009
22011SOL    HW268926   2.378   4.162   1.202 -0.1164 -1.3679 -0.0870
22012SOL     OW68927   6.604   8.973   4.464 -0.3491 -0.1558 -0.1552
22012SOL    HW168928   6.520   8.957   4.507 -1.3390 -0.3698 -2.0848
22012SOL    HW268929   6.628   9.062   4.492 -1.2350 -0.0596  0.3637
22013SOL     OW68930   4.983   6.751   8.031 -0.3756  0.5786 -0.5910
22013SOL    HW168931   5.071   6.724   8.058 -0.6430  1.4151  1.2824
22013SOL    HW268932   4.927   6.726   8.104 -1.2280  2.6088 -0.4949
22014SOL     OW68933   5.291   5.462   7.121  0.0722  0.0271  0.3508
22014SOL    HW168934   5.283   5.447   7.216 -0.5527 -0.4669  0.2289
22014SOL    HW268935   5.346   5.390   7.091 -0.5632 -0.4036  0.1948
22015SOL     OW68936   3.886   3.793   1.316 -0.5734 -0.0820  0.4029
22015SOL    HW168937   3.798   3.805   1.280 -0.1655  2.2886  0.0186
22015SOL    HW268938   3.895   3.698   1.325 -2.9448 -0.4295 -0.0633
22016SOL     OW68939   7.348   9.076   8.418 -0.5937 -0.3737  0.2003
22016SOL    HW168940   7.359   8.984   8.439 -0.8299 -0.6291 -0.7596
22016SOL    HW268941   7.255   9.085   8.399 -0.4345 -0.0912 -0.4429
22017SOL     OW68942   4.292   6.959   6.359  0.3080 -0.7035 -0.0375
22017SOL    HW168943   4.230   6.905   6.310 -1.7539  0.0403  1.5776
22017SOL    HW268944   4.321   6.904   6.432  0.4243 -0.5681  0.0210
22018SOL     OW68945   4.963   4.562   6.958  0.5607 -0.7204 -0.3584
22018SOL    HW168946   5.044   4.524   6.992  0.9179 -0.3685 -0.7954
22018SOL    HW268947   4.987   4.651   6.932  0.3001 -0.9661 -1.4979
22019SOL     OW68948   2.470   7.900   4.754  0.1174  0.2395  0.2174
22019SOL    HW168949   2.460   7.865   4.842  1.1427 -1.6364 -0.3505
22019SOL    HW268950   2.546   7.959   4.760  0.1408  0.1733  0.5904
22020SOL     OW68951   3.324   2.820   8.501  0.2871  0.3337  0.0999
22020SOL    HW168952   3.365   2.743   8.539  0.5605 -0.2536 -1.3301
22020SOL    HW268953   3.243   2.788   8.462 -0.3870  1.0655  0.8478
22021SOL     OW68954   3.500   1.968   5.860 -0.0726  0.1415 -0.2101
22021SOL    HW168955   3.426   2.015   5.898  0.3098  0.3217  0.3215
22021SOL    HW268956   3.461   1.910   5.795 -0.9736 -1.6013  1.7726
22022SOL     OW68957   1.669   0.400   8.643  0.1903  0.5006 -0.2613
22022SOL    HW168958   1.751   0.425   8.685 -0.5352  0.3159  1.3395
22022SOL    HW268959   1.662   0.306   8.658 -0.9872  0.7415  0.9468
22023SOL     OW68960   5.546   7.643   9.026 -0.0315 -0.8777  0.7942
22023SOL    HW168961   5.637   7.621   9.006 -0.6446 -1.5494 -1.5510
22023SOL    HW268962   5.503   7.558   9.037 -0.9813 -0.7448 -1.3398
22024SOL     OW68963   6.242   1.061   8.437  0.3787 -0.0692 -0.2104
22024SOL    HW168964   6.259   1.155   8.429  2.8616 -0.4044  0.2417
22024SOL    HW268965   6.228   1.046   8.530  0.3466 -0.2048 -0.2365
22025SOL     OW68966   6.495   6.990   3.713  0.5557 -0.3862  0.0243
22025SOL    HW168967   6.454   6.944   3.640  1.7255 -1.2229 -0.1291
22025SOL    HW268968   6.549   7.058   3.672  1.2210 -0.8618  0.0894
22026SOL     OW68969   1.425   0.466   3.840 -0.0041 -0.1861 -0.2691
22026SOL    HW168970   1.441   0.399   3.906 -1.2296 -0.1511  0.0943
22026SOL    HW268971   1.443   0.423   3.757 -1.6367 -1.2638 -0.0996
22027SOL     OW68972   2.065   5.206   2.675  0.0977  0.4084  0.7173
22027SOL    HW168973   2.114   5.254   2.608  1.2851  0.1710  1.3858
22027SOL    HW268974   1.997   5.267   2.703 -0.6194  0.4119 -0.8790
22028SOL     OW68975   6.122   8.734   7.057 -0.3191 -0.2501  0.4408
22028SOL    HW168976   6.043   8.705   7.103 -0.1736 -0.8204  0.3444
22028SOL    HW268977   6.156   8.655   7.016  0.6531 -0.1411  0.9916
22029SOL     OW68978   6.203   3.929   5.932 -0.8015  0.6916  0.0004
22029SOL    HW168979   6.140   3.863   5.962 -0.7957  1.2777  1.3821
22029SOL    HW268980   6.184   4.006   5.986  0.8760  0.9881  0.2225
22030SOL     OW68981   5.993   5.936   3.902  0.3310  0.0315 -0.1081
22030SOL    HW168982   6.068   5.915   3.957  0.1080  1.4650  0.7966
22030SOL    HW268983   6.026   6.000   3.839 -0.0470  0.3994  0.0647
22031SOL     OW68984   8.719   9.090   4.658  1.0572 -0.0802 -0.2616
22031SOL    HW168985   8.676   9.150   4.597 -3.1467 -0.5117  1.8644
22031SOL    HW268986   8.779   9.145   4.708 -0.4061  1.7487 -0.4098
22032SOL     OW68987   1.314   7.977   2.117 -0.3592 -0.0353  0.0407
22032SOL    HW168988   1.351   7.889   2.125 -0.9497 -0.2833  0.1782
22032SOL    HW268989   1.220   7.961   2.103 -0.4635  0.5724  0.0493
22033SOL     OW68990   1.088   7.572   6.740  0.2079  0.4851 -0.3974
22033SOL    HW168991   1.049   7.640   6.685 -0.7039  0.9133  0.7439
22033SOL    HW268992   1.110   7.502   6.678 -3.0765 -0.1144 -1.0989
22034SOL     OW68993   7.830   7.028   3.747  0.3948 -0.2285 -0.4187
22034SOL    HW168994   7.920   7.060   3.737  1.0871 -1.7410  0.6459
22034SOL    HW268995   7.790   7.088   3.810  0.4710  0.7696 -1.2983
22035SOL     OW68996   6.802   3.050   0.452  0.2866 -0.5980 -0.8969
22035SOL    HW168997   6.822   3.133   0.408 -2.1095  1.6080  1.7932
22035SOL    HW268998   6.857   3.050   0.530 -1.4374 -0.2940  0.3655
22036SOL     OW68999   9.163   6.690   1.488 -0.3963 -0.0218 -0.2754
22036SOL    HW169000   9.171   6.676   1.582  2.4900  0.6507 -0.3510
22036SOL    HW269001   9.140   6.783   1.479 -1.6442 -0.3059 -0.2606
22037SOL     OW69002   0.539   2.782   0.903  0.0001  0.2826  0.5154
22037SOL    HW169003   0.510   2.698   0.866  0.8404 -0.1973  0.9197
22037SOL    HW269004   0.557   2.762   0.995  0.5326  0.8310  0.5305
22038SOL     OW69005   1.145   6.264   8.289 -0.1634 -0.2983 -0.0436
22038SOL    HW169006   1.150   6.277   8.383  0.8697 -1.8944  0.1540
22038SOL    HW269007   1.070   6.318   8.261  1.0592  2.2284  1.2539
22039SOL     OW69008   3.305   6.069   3.452  0.0178  0.1508  0.0337
22039SOL    HW169009   3.385   6.017   3.457  0.2235  0.5523  1.4701
22039SOL    HW269010   3.235   6.006   3.439  0.3025 -0.4934  1.4092
22040SOL     OW69011   0.581   2.723   2.060  0.0403 -0.1117  0.2746
22040SOL    HW169012   0.576   2.818   2.050 -1.1213 -0.1938 -0.1255
22040SOL    HW269013   0.638   2.694   1.989 -0.0715  0.2344  0.0414
22041SOL     OW69014   8.884   1.387   6.879 -0.0369 -0.6362 -0.4161
22041SOL    HW169015   8.826   1.358   6.809 -0.6958 -1.4574  0.4446
22041SOL    HW269016   8.848   1.347   6.958 -0.0141  1.2356  0.5893
22042SOL     OW69017   5.931   2.176   7.301  0.6193 -0.0612  0.6293
22042SOL    HW169018   5.962   2.086   7.291 -0.4804 -0.2611 -1.3423
22042SOL    HW269019   5.852   2.168   7.354 -1.0371 -0.6523 -1.7909
22043SOL     OW69020   5.271   4.355   7.285  0.0447 -0.4499 -0.3021
22043SOL    HW169021   5.290   4.262   7.296 -2.1320 -0.7380  1.7984
22043SOL    HW269022   5.220   4.379   7.362 -1.4896  1.9433 -1.9191
22044SOL     OW69023   1.117   6.259   0.691 -0.0999 -0.7180 -0.0314
22044SOL    HW169024   1.170   6.306   0.755  1.4180  0.2942 -1.9243
22044SOL    HW269025   1.123   6.311   0.612 -1.8886 -1.9382 -1.0311
22045SOL     OW69026   8.625   7.920   6.626 -0.1988  0.1068 -0.3690
22045SOL    HW169027   8.565   7.903   6.553 -0.6150  0.0057 -0.0056
22045SOL    HW269028   8.658   7.833   6.650 -1.0137 -0.0088  0.3698
22046SOL     OW69029   3.852   2.875   1.416 -0.7382 -0.5057 -0.1883
22046SOL    HW169030   3.909   2.951   1.427  1.5388 -2.2214  0.9738
22046SOL    HW269031   3.776   2.893   1.470 -1.4382  1.8911 -1.8029
22047SOL     OW69032   2.603   5.491   2.804 -0.7772  0.1458  0.1364
22047SOL    HW169033   2.644   5.414   2.765  0.8981  1.6178 -1.1437
22047SOL    HW269034   2.523   5.505   2.753 -0.3158  0.1067 -0.6112
22048SOL     OW69035   2.781   0.491   1.011  0.2957  0.2565  0.2964
22048SOL    HW169036   2.714   0.512   0.946  0.4202  2.7814  0.8886
22048SOL    HW269037   2.863   0.498   0.963  0.2805 -0.3567  0.1683
22049SOL     OW69038   7.128   1.760   5.957 -0.0683  0.0907  0.7544
22049SOL    HW169039   7.060   1.826   5.970  0.8159  1.0887  0.4840
22049SOL    HW269040   7.130   1.711   6.039 -1.0998  0.0448  0.7611
22050SOL     OW69041   7.037   9.161   0.083 -0.3949 -0.0553  0.0447
22050SOL    HW169042   6.986   9.084   0.059 -1.0252  0.2728  0.3128
22050SOL    HW269043   6.974   9.220   0.125  0.2971  0.1633  0.8094
22051SOL     OW69044   4.231   3.133   3.667  0.2033  0.3754 -0.3655
22051SOL    HW169045   4.289   3.088   3.728  0.4112  0.7152 -0.3114
22051SOL    HW269046   4.145   3.130   3.709  0.2117  0.0253 -0.3657
22052SOL     OW69047   3.505   6.546   4.721 -0.4607 -0.1363  0.8380
22052SOL    HW169048   3.532   6.630   4.682 -3.4885  0.4222 -0.3187
22052SOL    HW269049   3.537   6.481   4.659 -0.3135  0.3536  0.3859
22053SOL     OW69050   5.442   2.618   7.081 -0.0381 -0.6104 -0.2379
22053SOL    HW169051   5.492   2.671   7.018 -0.7662  0.9670  0.4440
22053SOL    HW269052   5.499   2.544   7.101  0.9096 -0.2485 -1.4598
22054SOL     OW69053   8.182   1.603   0.049  0.7689  0.2063 -0.2468
22054SOL    HW169054   8.169   1.697   0.059  0.5043  0.1368  0.0928
22054SOL    HW269055   8.265   1.585   0.092  0.5729  0.2119  0.1450
22055SOL     OW69056   1.557   4.028   5.268 -0.0681  0.4174  0.0707
22055SOL    HW169057   1.463   4.017   5.286 -0.3694  1.6454 -0.6680
22055SOL    HW269058   1.568   4.121   5.251  0.3380 -0.2524 -4.8068
22056SOL     OW69059   7.974   6.007   6.088  0.2704 -0.0903  0.2907
22056SOL    HW169060   8.018   5.948   6.027  1.0006 -0.9781  1.6442
22056SOL    HW269061   8.016   5.990   6.173 -1.3434  0.4497  1.2322
22057SOL     OW69062   4.527   7.329   7.907  0.8478 -0.1329 -0.1955
22057SOL    HW169063   4.526   7.408   7.854 -1.6548  0.5975  0.8172
22057SOL    HW269064   4.558   7.358   7.993 -1.2515  0.0806  0.5399
22058SOL     OW69065   6.535   6.150   6.002  0.0040 -0.1726  0.0934
22058SOL    HW169066   6.526   6.187   5.915 -3.4801  1.1303  0.8515
22058SOL    HW269067   6.623   6.176   6.031  1.0904 -0.3347 -2.8065
22059SOL     OW69068   1.088   8.620   4.827 -0.1236  0.0176 -0.6140
22059SOL    HW169069   1.131   8.537   4.806 -0.8153  0.2246 -3.2111
22059SOL    HW269070   1.087   8.668   4.744  0.0549  2.5712  0.7563
22060SOL     OW69071   3.227   1.875   6.683 -0.0566  0.0561 -0.1422
22060SOL    HW169072   3.135   1.890   6.707 -0.5609 -1.1451 -1.1971
22060SOL    HW269073   3.264   1.829   6.757 -0.9677 -1.5467 -0.6328
22061SOL     OW69074   4.896   2.263   2.301  0.4305 -0.3780  0.2486
22061SOL    HW169075   4.868   2.354   2.292  0.7587 -0.1286  1.5003
22061SOL    HW269076   4.817   2.216   2.328  0.5017 -0.2500  0.6929
22062SOL     OW69077   4.227   1.308   4.410 -0.3921  0.1657 -0.3745
22062SOL    HW169078   4.226   1.218   4.444  0.3224  0.5631  0.7503
22062SOL    HW269079   4.277   1.302   4.329 -0.0150 -0.3933 -0.1076
22063SOL     OW69080   8.372   7.613   6.277  0.0843 -0.7085 -0.4927
22063SOL    HW169081   8.312   7.645   6.344 -1.0865  1.8722 -2.5763
22063SOL    HW269082   8.450   7.669   6.287  0.1523 -0.7351 -0.8728
22064SOL     OW69083   1.407   4.917   3.177  0.1004  0.4421  0.0946
22064SOL    HW169084   1.391   4.823   3.167  0.0535  0.2620  1.6591
22064SOL    HW269085   1.474   4.936   3.112 -0.6574 -0.4365 -0.9928
22065SOL     OW69086   2.122   4.407   8.017 -0.3382 -0.4332  0.7760
22065SOL    HW169087   2.171   4.472   7.967  0.0184 -1.1414  0.1804
22065SOL    HW269088   2.181   4.332   8.024 -0.9954 -0.9578  0.8437
22066SOL     OW69089   1.818   4.067   8.993 -0.1171 -0.8065 -0.2811
22066SOL    HW169090   1.838   4.064   8.900 -0.2962  0.0380 -0.3579
22066SOL    HW269091   1.802   4.160   9.011  1.4052 -0.7321  0.8990
22067SOL     OW69092   1.591   5.154   0.244 -0.1400  0.2733  0.4723
22067SOL    HW169093   1.623   5.191   0.161  0.0070  0.6604  0.7013
22067SOL    HW269094   1.656   5.179   0.309 -0.7263  0.7679  0.8776
22068SOL     OW69095   4.301   1.365   6.753  0.2657 -0.2723  0.0905
22068SOL    HW169096   4.361   1.430   6.789 -0.5368 -0.2027  1.3606
22068SOL    HW269097   4.214   1.400   6.771 -0.1688 -1.2894  0.0440
22069SOL     OW69098   3.034   1.960   0.990  0.0188 -0.4438  0.1353
22069SOL    HW169099   2.945   1.957   1.025 -0.0390 -0.4591 -0.0113
22069SOL    HW269100   3.047   2.050   0.962  0.1998 -0.3441  0.5413
22070SOL     OW69101   7.687   4.432   2.350  0.4738  0.3761  0.3026
22070SOL    HW169102   7.709   4.491   2.277  0.1303  1.3876  0.9927
22070SOL    HW269103   7.752   4.362   2.344  0.5373  0.5093 -0.8843
22071SOL     OW69104   8.787   7.510   2.057  0.7939  0.0271  0.1878
22071SOL    HW169105   8.748   7.533   2.142  1.5317  0.2860  0.4598
22071SOL    HW269106   8.717   7.525   1.994 -0.5436 -2.3176  0.9794
22072SOL     OW69107   3.830   5.301   6.900 -0.1958 -0.2630 -0.0616
22072SOL    HW169108   3.750   5.352   6.882  0.1223  0.6994  1.1001
22072SOL    HW269109   3.885   5.361   6.951  0.6283 -1.4434  0.4728
22073SOL     OW69110   8.904   3.373   7.790  0.1488 -0.3551  0.2891
22073SOL    HW169111   8.915   3.339   7.878 -1.4284  0.2627  0.7618
22073SOL    HW269112   8.810   3.366   7.773 -0.0770  2.3331 -0.1215
22074SOL     OW69113   0.105   7.492   5.757  0.0642  0.0416 -0.1917
22074SOL    HW169114   0.071   7.557   5.818 -0.0733  0.2606 -0.4957
22074SOL    HW269115   0.085   7.528   5.670  0.7317 -0.0042 -0.3755
22075SOL     OW69116   1.875   0.843   2.120 -0.1251  0.1925 -0.1901
22075SOL    HW169117   1.802   0.797   2.161  2.1918 -0.1181  4.2818
22075SOL    HW269118   1.952   0.812   2.168  2.4507  3.4048 -1.8354
22076SOL     OW69119   4.667   5.016   7.584  0.2232 -0.3393 -0.8333
22076SOL    HW169120   4.691   4.942   7.638 -0.7126 -0.4759 -0.5820
22076SOL    HW269121   4.749   5.045   7.544  0.6840 -1.1436 -0.4858
22077SOL     OW69122   1.555   7.374   4.312 -0.1223 -0.0531  0.2183
22077SOL    HW169123   1.506   7.371   4.394 -0.9581  0.1569 -0.2645
22077SOL    HW269124   1.508   7.316   4.253  1.5589 -1.7452  0.4340
22078SOL     OW69125   7.276   6.366   0.645 -0.0362 -0.3027 -0.1469
22078SOL    HW169126   7.292   6.276   0.672  0.9881  0.4002  1.8363
22078SOL    HW269127   7.359   6.395   0.608 -0.4196 -0.2292 -0.9523
22079SOL     OW69128   3.694   0.498   1.042  1.0624  0.1447 -0.0877
22079SOL    HW169129   3.622   0.543   1.087  2.3959  2.0960  0.2487
22079SOL    HW269130   3.659   0.412   1.021 -0.9298  0.5609  1.2030
22080SOL     OW69131   1.390   1.070   6.195  0.1846  0.3823  0.6464
22080SOL    HW169132   1.376   0.987   6.149  0.4393  1.0116 -0.6318
22080SOL    HW269133   1.478   1.063   6.231 -0.1590 -0.2694  1.3637
22081SOL     OW69134   6.876   7.339   5.866  0.1219  0.6015 -0.3258
22081SOL    HW169135   6.943   7.274   5.886 -0.7218 -0.4228 -0.7041
22081SOL    HW269136   6.918   7.400   5.805 -0.0575 -1.6420 -2.8975
22082SOL     OW69137   5.408   5.253   8.226 -0.0416 -0.1853  0.2301
22082SOL    HW169138   5.313   5.248   8.232 -0.2126  2.7067  1.4700
22082SOL    HW269139   5.435   5.165   8.198 -2.9891 -1.2505  0.3899
22083SOL     OW69140   6.251   6.490   6.409 -0.0871  0.3669  0.6160
22083SOL    HW169141   6.268   6.404   6.370 -0.3164  0.5880  0.0262
22083SOL    HW269142   6.164   6.514   6.378 -0.8688 -0.0365  2.3429
22084SOL     OW69143   2.469   8.718   0.958 -0.4914  0.6808 -0.1690
22084SOL    HW169144   2.520   8.762   1.026  0.8296 -0.7567 -0.1679
22084SOL    HW269145   2.462   8.627   0.988  0.1938 -0.0107 -1.9607
22085SOL     OW69146   0.139   4.550   2.965  0.4991  0.1702  0.6333
22085SOL    HW169147   0.232   4.527   2.957  0.8033  1.3255  0.6738
22085SOL    HW269148   0.130   4.632   2.917 -0.7291 -0.4209 -0.2197
22086SOL     OW69149   8.917   7.372   3.933 -0.1686 -0.2520 -0.5711
22086SOL    HW169150   8.845   7.418   3.975 -0.7979 -0.2278 -1.6551
22086SOL    HW269151   8.884   7.284   3.918  0.2742 -0.4411 -0.4419
22087SOL     OW69152   5.724   3.433   1.662 -0.2533  0.3369 -0.3426
22087SOL    HW169153   5.763   3.348   1.640  0.0866  0.0250  1.3252
22087SOL    HW269154   5.746   3.489   1.588  0.6296 -0.6968 -0.8929
22088SOL     OW69155   8.294   2.822   0.599  0.1244  0.5357  0.2669
22088SOL    HW169156   8.214   2.785   0.560  0.5114 -1.0686  0.9057
22088SOL    HW269157   8.263   2.893   0.654 -1.0694 -0.9409  1.6078
22089SOL     OW69158   0.130   2.535   0.767  0.9415  0.2830 -0.2963
22089SOL    HW169159   0.223   2.547   0.747  0.8645 -0.0319 -0.8612
22089SOL    HW269160   0.105   2.615   0.813  2.0924 -0.6714  2.1753
22090SOL     OW69161   6.620   1.527   0.907 -0.3355  0.2953  0.2567
22090SOL    HW169162   6.667   1.444   0.902  0.3429  0.7099 -0.2880
22090SOL    HW269163   6.615   1.558   0.817  1.2909  1.8671  0.6455
22091SOL     OW69164   5.015   5.657   8.729 -0.1329 -0.2761  0.1875
22091SOL    HW169165   4.979   5.569   8.713 -0.9858  0.3005 -1.3030
22091SOL    HW269166   5.009   5.700   8.644  0.5980  1.1195  0.8241
22092SOL     OW69167   8.796   3.037   1.660 -0.0278 -0.3841  0.0299
22092SOL    HW169168   8.774   3.105   1.596  0.4884 -0.5268 -0.3102
22092SOL    HW269169   8.788   3.080   1.745  1.5634  0.5024 -0.2212
22093SOL     OW69170   5.604   1.313   1.597  0.1767  0.0607 -0.1768
22093SOL    HW169171   5.552   1.307   1.516 -0.3113 -0.3154  0.1586
22093SOL    HW269172   5.648   1.228   1.603  1.1264  0.5019 -0.6429
22094SOL     OW69173   0.763   0.607   9.182  0.4662  0.2994 -0.1918
22094SOL    HW169174   0.727   0.575   9.264  1.2882 -0.3866 -0.0866
22094SOL    HW269175   0.800   0.530   9.139  0.5861  0.7492 -0.9235
22095SOL     OW69176   6.735   7.416   7.808 -0.1688  0.5812  0.6001
22095SOL    HW169177   6.675   7.485   7.778 -2.6421 -1.3890  0.5807
22095SOL    HW269178   6.695   7.384   7.889  0.4413 -1.2843  0.2104
22096SOL     OW69179   0.956   6.846   9.164 -0.1066 -0.2677 -0.3012
22096SOL    HW169180   0.952   6.861   9.070 -0.8452 -1.3639 -0.4709
22096SOL    HW269181   0.869   6.871   9.196  0.5572  1.3553  0.3102
22097SOL     OW69182   9.123   2.104   3.423 -0.1570 -0.3124 -0.2494
22097SOL    HW169183   9.066   2.162   3.475 -0.3414  1.1605 -2.0117
22097SOL    HW269184   9.183   2.163   3.378  0.9109 -1.6604 -0.6499
22098SOL     OW69185   7.739   8.452   0.085 -1.0988  0.4483 -0.2512
22098SOL    HW169186   7.739   8.543   0.113  3.5379  0.7737 -0.6160
22098SOL    HW269187   7.778   8.403   0.157 -1.8436 -0.9964 -0.7693
22099SOL     OW69188   3.002   4.911   9.208  0.5096 -0.0260  0.2222
22099SOL    HW169189   3.033   4.830   9.249 -1.0771 -0.2538  1.0074
22099SOL    HW269190   3.066   4.928   9.139  1.4687 -1.3568  0.7455
22100SOL     OW69191   0.364   5.319   5.603  0.1923  0.6592  0.0634
22100SOL    HW169192   0.285   5.372   5.594 -0.8158 -0.8864 -0.5451
22100SOL    HW269193   0.402   5.317   5.515  1.9357  2.8011  0.6546
22101SOL     OW69194   3.553   7.405   2.901 -0.3549 -0.3340  0.8289
22101SOL    HW169195   3.613   7.392   2.828 -1.7318 -1.1643 -0.2162
22101SOL    HW269196   3.585   7.346   2.970 -0.0313 -0.8320  0.2542
22102SOL     OW69197   1.527   7.562   0.454 -0.2169 -0.2445 -0.0651
22102SOL    HW169198   1.515   7.487   0.396  0.2205 -0.9264  0.6964
22102SOL    HW269199   1.620   7.583   0.448  0.2540 -1.5364  1.7713
22103SOL     OW69200   5.706   6.372   4.645 -0.6130  0.3408  0.0741
22103SOL    HW169201   5.642   6.316   4.688  0.4224  0.4032  1.7823
22103SOL    HW269202   5.758   6.313   4.590 -2.0246  0.2828 -1.2854
22104SOL     OW69203   3.687   5.881   9.111 -0.1988 -0.0358 -0.0441
22104SOL    HW169204   3.668   5.954   9.051  0.2864 -0.8478 -1.2129
22104SOL    HW269205   3.604   5.834   9.117 -0.2899  0.1345  0.0565
22105SOL     OW69206   7.574   9.176   8.936  0.2126 -0.8752 -0.4663
22105SOL    HW169207   7.563   9.154   9.028 -0.7564  3.4785  0.6980
22105SOL    HW269208   7.498   9.137   8.892 -0.9388 -0.5613  1.1660
22106SOL     OW69209   3.538   4.407   2.958  0.3297 -0.5684  0.4902
22106SOL    HW169210   3.469   4.460   2.998  0.2226  0.8195 -1.3767
22106SOL    HW269211   3.591   4.470   2.908  0.7501 -2.0850 -1.0926
22107SOL     OW69212   2.534   2.999   1.015 -0.3389 -0.0197 -0.0470
22107SOL    HW169213   2.561   3.019   1.105 -0.6853 -1.4784  0.4033
22107SOL    HW269214   2.580   3.064   0.961  0.0070  0.7647  1.1599
22108SOL     OW69215   3.214   4.573   0.704  0.1708  0.4585 -0.6112
22108SOL    HW169216   3.240   4.515   0.776  0.3344 -0.1367 -1.1321
22108SOL    HW269217   3.294   4.588   0.656 -0.0360  0.4039 -0.9774
22109SOL     OW69218   1.482   4.200   8.893 -0.8187 -0.2677 -0.4877
22109SOL    HW169219   1.459   4.134   8.958  0.6097  0.6054  0.9829
22109SOL    HW269220   1.517   4.149   8.819 -2.0245 -1.2515 -0.4187
22110SOL     OW69221   3.253   2.518   1.801  0.0210  0.4951  0.0398
22110SOL    HW169222   3.304   2.437   1.793  2.6068  1.7416  2.3532
22110SOL    HW269223   3.210   2.512   1.886  0.0369  1.4265  0.1268
22111SOL     OW69224   6.726   8.905   9.036  0.3172 -0.5953  0.1860
22111SOL    HW169225   6.705   8.947   8.953  0.5786  3.0603  1.8052
22111SOL    HW269226   6.821   8.896   9.036  0.1765 -3.1813 -0.8987
22112SOL     OW69227   4.262   8.382   7.808 -0.2515  0.1070  0.1354
22112SOL    HW169228   4.291   8.371   7.899 -0.9407  1.3669  0.5411
22112SOL    HW269229   4.343   8.380   7.757 -0.0601 -4.0931  0.2942
22113SOL     OW69230   0.528   1.430   8.303 -0.7952  0.1591  0.6449
22113SOL    HW169231   0.566   1.431   8.215 -4.8944  0.7328 -1.3846
22113SOL    HW269232   0.559   1.510   8.344  0.4146  0.4105 -0.6727
22114SOL     OW69233   5.760   7.312   6.750 -0.4004 -0.1809  0.4651
22114SOL    HW169234   5.716   7.248   6.694 -1.4326  1.6680 -0.9538
22114SOL    HW269235   5.846   7.325   6.710 -1.7007  2.3330 -1.8810
22115SOL     OW69236   7.639   3.574   5.048 -0.3180  0.3170  0.0179
22115SOL    HW169237   7.675   3.519   4.978  0.6816  0.1583  0.6495
22115SOL    HW269238   7.658   3.664   5.019  2.0857  0.2081  1.0974
22116SOL     OW69239   2.957   0.033   7.978 -0.1996  0.3853 -0.0001
22116SOL    HW169240   3.020   0.092   8.019 -1.1318  1.3073  0.1424
22116SOL    HW269241   2.992   0.017   7.891  0.4393  0.5427  0.2205
22117SOL     OW69242   3.825   7.775   8.630 -0.3423  0.0192 -0.3401
22117SOL    HW169243   3.816   7.711   8.700  1.0767 -0.2731 -0.4086
22117SOL    HW269244   3.906   7.751   8.585 -0.2477  1.3358 -0.9185
22118SOL     OW69245   2.171   1.667   2.465  0.1095  0.7191 -0.1447
22118SOL    HW169246   2.113   1.601   2.502  0.8303  0.4254  0.4891
22118SOL    HW269247   2.197   1.720   2.541  0.6229  0.8794 -0.4322
22119SOL     OW69248   8.242   6.917   0.058  0.6784  0.1442 -0.2169
22119SOL    HW169249   8.334   6.906   0.083  0.3484 -1.3294  0.4538
22119SOL    HW269250   8.193   6.883   0.132 -0.4773  2.3985  0.1273
22120SOL     OW69251   5.554   3.085   8.542 -0.2595  0.4674 -0.4256
22120SOL    HW169252   5.639   3.064   8.504 -0.4001 -1.3613  0.1434
22120SOL    HW269253   5.563   3.064   8.635 -1.4013 -0.1085 -0.4138
22121SOL     OW69254   6.730   3.286   5.463  0.2445 -0.1784 -0.4031
22121SOL    HW169255   6.724   3.266   5.556  1.3707 -1.5147 -0.5824
22121SOL    HW269256   6.714   3.203   5.419 -1.2626  0.6235 -1.4754
22122SOL     OW69257   4.709   5.354   4.081 -0.0332 -0.3251 -0.2413
22122SOL    HW169258   4.671   5.336   4.167 -0.5504  1.6047 -0.0323
22122SOL    HW269259   4.675   5.285   4.024 -1.1198 -0.5861  0.7054
22123SOL     OW69260   5.345   1.170   5.102  0.3110 -0.1807  0.8652
22123SOL    HW169261   5.359   1.078   5.126 -1.7655 -0.7840 -0.0507
22123SOL    HW269262   5.262   1.193   5.144 -0.0403  0.7508 -0.2941
22124SOL     OW69263   4.628   8.796   3.774  0.5831  0.0343 -0.5709
22124SOL    HW169264   4.597   8.886   3.767  1.5003  0.5204  1.0947
22124SOL    HW269265   4.562   8.744   3.728 -0.8211  1.3900 -0.1712
22125SOL     OW69266   0.740   3.051   0.055  0.5960 -0.2377 -0.1884
22125SOL    HW169267   0.761   3.110   0.127  0.2457 -1.3020  0.8183
22125SOL    HW269268   0.824   3.016   0.027  0.7508  0.3197 -0.4407
22126SOL     OW69269   6.794   8.315   6.368  0.0565 -0.5436  0.1599
22126SOL    HW169270   6.829   8.404   6.367  0.8242 -0.8186  0.9743
22126SOL    HW269271   6.708   8.323   6.411  0.0556 -0.1734  0.0911
22127SOL     OW69272   0.565   2.996   8.442 -0.1733  0.3022 -0.6194
22127SOL    HW169273   0.499   2.927   8.440 -0.8178  0.8200  1.0524
22127SOL    HW269274   0.538   3.053   8.514  1.4089  1.2348 -0.7160
22128SOL     OW69275   6.240   5.807   5.048  0.4361  0.8933  0.1683
22128SOL    HW169276   6.198   5.787   5.132 -1.0021 -2.2288 -1.1574
22128SOL    HW269277   6.324   5.761   5.051  0.3969  0.8021 -0.0921
22129SOL     OW69278   5.566   5.353   3.180 -0.4991  0.4218  0.1030
22129SOL    HW169279   5.534   5.432   3.138  0.7190 -0.1065 -1.9837
22129SOL    HW269280   5.540   5.362   3.271 -0.8059  2.9900 -0.1591
22130SOL     OW69281   1.436   8.407   3.924 -0.6525  0.0174  0.8096
22130SOL    HW169282   1.362   8.347   3.922 -1.1976  0.6765 -0.3946
22130SOL    HW269283   1.438   8.445   3.836  0.7550  0.4577  1.0000
22131SOL     OW69284   2.986   6.157   3.321  0.6017  0.5335 -0.7260
22131SOL    HW169285   3.058   6.208   3.360 -1.3084  2.0746  1.0021
22131SOL    HW269286   3.017   6.067   3.321  1.7259  0.8418  2.0293
22132SOL     OW69287   3.942   8.046   2.682 -0.0364  0.3594 -0.2379
22132SOL    HW169288   3.904   7.960   2.660 -0.4102  0.3211  0.5535
22132SOL    HW269289   3.870   8.107   2.671 -0.0546  0.4276  0.2732
22133SOL     OW69290   4.100   1.162   2.362  0.3720 -0.4197  0.2082
22133SOL    HW169291   4.161   1.109   2.413  1.6128  1.8404  1.2055
22133SOL    HW269292   4.057   1.218   2.426 -0.3394  0.3346 -0.8850
22134SOL     OW69293   1.354   5.808   7.267  0.2445  0.0246  0.7620
22134SOL    HW169294   1.259   5.796   7.258  0.4441 -1.3358  0.1867
22134SOL    HW269295   1.387   5.719   7.283  1.6822  0.0336 -1.6850
22135SOL     OW69296   6.370   7.932   4.520  0.0853  0.2756 -0.0397
22135SOL    HW169297   6.451   7.909   4.475  1.2140  1.2901  1.3718
22135SOL    HW269298   6.366   8.028   4.513 -0.9134  0.2485  0.0389
22136SOL     OW69299   3.903   8.092   9.133  0.1777 -0.2466  0.4884
22136SOL    HW169300   3.943   8.168   9.176 -0.7868 -0.9949  2.9354
22136SOL    HW269301   3.957   8.076   9.056 -0.0520  3.3830 -0.6349
22137SOL     OW69302   0.536   1.562   6.824  0.0614 -0.2336 -0.0013
22137SOL    HW169303   0.597   1.587   6.755  0.3606  0.6869  0.5832
22137SOL    HW269304   0.570   1.604   6.903 -1.7395  0.9712  0.1927
22138SOL     OW69305   0.410   7.937   3.654  0.1790  0.1963 -0.5072
22138SOL    HW169306   0.341   7.942   3.588  0.2958 -1.7830 -0.8438
22138SOL    HW269307   0.492   7.935   3.604  0.3079 -0.5578 -0.2821
22139SOL     OW69308   3.131   2.945   3.073  0.4394 -0.5869  0.1427
22139SOL    HW169309   3.063   2.883   3.047 -0.7569  0.5296  0.5301
22139SOL    HW269310   3.211   2.891   3.080 -0.1778 -1.7420 -1.2417
22140SOL     OW69311   0.557   4.732   4.233 -0.3127  1.0423  0.0355
22140SOL    HW169312   0.500   4.750   4.307  1.0021 -0.7917  1.6058
22140SOL    HW269313   0.538   4.641   4.210  1.7730  0.4285  0.5038
22141SOL     OW69314   8.400   2.043   5.538 -0.0543 -0.2900  0.5328
22141SOL    HW169315   8.307   2.066   5.539 -0.3481 -1.3815  0.4703
22141SOL    HW269316   8.407   1.976   5.469  1.5419  2.5741 -2.3276
22142SOL     OW69317   0.720   1.612   4.192  0.0563  0.2184 -0.7863
22142SOL    HW169318   0.810   1.628   4.220 -0.7776  3.4649  0.4364
22142SOL    HW269319   0.710   1.665   4.113 -1.0967  0.8409 -0.2351
22143SOL     OW69320   5.242   0.974   8.675 -0.0271 -0.3097  0.6688
22143SOL    HW169321   5.312   0.909   8.670  0.0006 -0.2621  0.4224
22143SOL    HW269322   5.161   0.923   8.669  0.0053 -0.2391 -0.5194
22144SOL     OW69323   7.193   3.632   1.606 -0.0672 -0.8199 -0.0188
22144SOL    HW169324   7.250   3.689   1.554  0.3693  0.1862  1.4836
22144SOL    HW269325   7.182   3.554   1.553  0.2691  0.1939 -1.6542
22145SOL     OW69326   8.405   3.324   7.018 -0.3073 -0.8258 -0.3087
22145SOL    HW169327   8.333   3.339   7.080 -0.9969 -1.9507 -0.8026
22145SOL    HW269328   8.470   3.276   7.069 -1.4394 -2.9540 -0.7162
22146SOL     OW69329   4.530   0.915   3.233  0.3240 -0.0769  0.0205
22146SOL    HW169330   4.461   0.849   3.227 -1.7580  1.6446  2.6388
22146SOL    HW269331   4.488   0.996   3.203  2.8688  0.1831 -3.3285
22147SOL     OW69332   3.557   6.158   4.569 -0.3237  0.2178 -0.1555
22147SOL    HW169333   3.539   6.132   4.478  0.8830  1.3061 -0.7487
22147SOL    HW269334   3.536   6.251   4.572 -1.1573  0.0184  0.9433
22148SOL     OW69335   3.594   1.759   9.027  0.2528 -0.0044  0.0596
22148SOL    HW169336   3.560   1.767   8.938  0.6181 -1.1082 -0.1923
22148SOL    HW269337   3.688   1.742   9.015  0.3799  0.2372  0.6669
22149SOL     OW69338   6.418   2.645   8.662  0.0305  0.0862 -0.2041
22149SOL    HW169339   6.401   2.623   8.571 -2.3810 -1.8290  0.5905
22149SOL    HW269340   6.467   2.570   8.696 -0.8306 -0.1594  0.5279
22150SOL     OW69341   5.749   8.122   3.245 -0.8332 -0.0949 -0.2350
22150SOL    HW169342   5.704   8.085   3.321 -1.4336 -1.1301 -1.0611
22150SOL    HW269343   5.772   8.046   3.192  1.2732  0.4507 -0.2120
22151SOL     OW69344   5.425   1.090   2.948 -0.0479  0.2466  0.0721
22151SOL    HW169345   5.453   1.001   2.927  0.1686  0.3750 -0.1938
22151SOL    HW269346   5.343   1.101   2.899 -1.0741 -0.4386  1.5457
22152SOL     OW69347   7.452   3.732   6.223  0.0040  0.6922 -0.2889
22152SOL    HW169348   7.413   3.816   6.199  1.5742  1.3911 -0.5272
22152SOL    HW269349   7.538   3.755   6.256  0.1510 -0.7797  0.3965
22153SOL     OW69350   5.016   6.949   0.371 -0.4025  0.2574 -0.4532
22153SOL    HW169351   5.020   6.853   0.377 -0.7852  0.3044  0.8166
22153SOL    HW269352   5.084   6.971   0.307  1.2419 -0.7286  0.8729
22154SOL     OW69353   3.256   7.553   0.099 -0.1643  0.3184  0.6184
22154SOL    HW169354   3.238   7.556   0.005  1.8184 -0.3642  0.1702
22154SOL    HW269355   3.222   7.636   0.133 -0.4908  0.7799 -0.7895
22155SOL     OW69356   2.573   1.777   4.219 -0.0034 -0.0971 -0.0228
22155SOL    HW169357   2.627   1.701   4.197 -1.1331 -1.1051  0.5572
22155SOL    HW269358   2.611   1.812   4.299 -0.3180 -0.9411  0.5125
22156SOL     OW69359   7.545   1.164   5.305  0.0675 -0.3593 -0.2180
22156SOL    HW169360   7.591   1.144   5.386 -0.6836 -0.2846  0.2343
22156SOL    HW269361   7.493   1.242   5.325  0.0362 -0.2129 -0.8330
22157SOL     OW69362   2.704   1.262   9.176 -0.0443 -0.6768  0.0965
22157SOL    HW169363   2.624   1.212   9.190 -0.2091 -0.1701  0.9998
22157SOL    HW269364   2.673   1.350   9.152  0.2415 -0.6401 -0.1387
22158SOL     OW69365   6.323   8.893   4.590 -0.3015 -0.0943 -0.0457
22158SOL    HW169366   6.239   8.920   4.552 -0.1662  0.6966  0.2012
22158SOL    HW269367   6.357   8.828   4.528  0.3847  1.8749 -1.8911
22159SOL     OW69368   3.338   1.921   7.596 -0.5067  0.1461  0.2077
22159SOL    HW169369   3.285   2.001   7.607 -1.2111 -0.2268 -0.3711
22159SOL    HW269370   3.354   1.891   7.685  0.7854  1.5754  0.4872
22160SOL     OW69371   1.144   0.583   7.494 -0.2671  0.3111  0.5775
22160SOL    HW169372   1.098   0.646   7.549 -0.3908  0.4346  0.3346
22160SOL    HW269373   1.139   0.501   7.543 -2.0134 -0.0183 -0.0952
22161SOL     OW69374   4.594   7.753   7.014  0.3904  0.8758  0.1131
22161SOL    HW169375   4.640   7.834   7.038  0.7298  0.1436  2.1378
22161SOL    HW269376   4.623   7.689   7.079 -0.0539 -0.8291 -1.2943
22162SOL     OW69377   8.617   1.047   1.026  0.3016 -0.2418 -0.7262
22162SOL    HW169378   8.531   1.006   1.039  0.9694 -1.2257  0.9671
22162SOL    HW269379   8.605   1.105   0.952 -2.5236  1.5408  0.9456
22163SOL     OW69380   4.724   2.114   1.660 -0.6652  0.6368  0.5246
22163SOL    HW169381   4.766   2.200   1.649  0.1740  0.1278 -0.4522
22163SOL    HW269382   4.690   2.093   1.573 -1.6639  0.3733  0.9714
22164SOL     OW69383   8.951   8.406   3.373  0.2944 -0.6293  0.2191
22164SOL    HW169384   9.021   8.364   3.423  0.4379 -1.6167 -0.7735
22164SOL    HW269385   8.921   8.477   3.429  0.6019 -1.5620  1.6174
22165SOL     OW69386   1.445   3.499   1.147 -0.4258  0.2816 -0.0143
22165SOL    HW169387   1.483   3.573   1.100  0.2002 -0.8302 -1.3251
22165SOL    HW269388   1.499   3.424   1.122 -0.9533 -0.6093  1.3911
22166SOL     OW69389   3.519   2.559   4.494 -0.0829  0.5200  0.8570
22166SOL    HW169390   3.561   2.498   4.554 -0.5024 -1.7102 -0.9928
22166SOL    HW269391   3.425   2.542   4.503 -0.2035  0.8267  0.2600
22167SOL     OW69392   8.362   3.560   6.152 -0.1034  0.3161 -0.1001
22167SOL    HW169393   8.332   3.559   6.062  0.2134 -0.6632 -0.2051
22167SOL    HW269394   8.327   3.479   6.190  0.6153  0.2106  0.3588
22168SOL     OW69395   4.946   2.669   2.064  0.4504  0.5208 -0.2943
22168SOL    HW169396   5.024   2.614   2.064 -0.1854 -0.4354 -1.3752
22168SOL    HW269397   4.945   2.710   1.978  0.8923  2.2499  0.4780
22169SOL     OW69398   3.613   8.403   6.896  0.0625  0.0801 -0.6988
22169SOL    HW169399   3.665   8.483   6.903  1.0621 -0.6552  0.8326
22169SOL    HW269400   3.657   8.351   6.829  0.0925  0.2990 -0.8522
22170SOL     OW69401   6.699   1.499   2.937  0.7142 -0.0492  0.1727
22170SOL    HW169402   6.697   1.574   2.996  1.3908 -0.2683  0.4787
22170SOL    HW269403   6.637   1.437   2.974  0.4965  0.1697  0.1747
22171SOL     OW69404   0.965   6.651   5.938  0.0586 -0.1666 -0.6147
22171SOL    HW169405   1.034   6.687   5.995 -2.1386  0.7299  1.6495
22171SOL    HW269406   1.009   6.638   5.854  2.3494  2.9299 -0.1020
22172SOL     OW69407   4.529   0.063   3.196  0.1219 -0.4744  0.1161
22172SOL    HW169408   4.565  -0.020   3.227 -1.5425 -0.8718  1.1143
22172SOL    HW269409   4.455   0.038   3.141 -1.5250  0.3237  1.8835
22173SOL     OW69410   4.171   1.777   3.882  0.4146 -0.4917  0.5396
22173SOL    HW169411   4.077   1.795   3.893 -0.0988 -1.5517 -1.5982
22173SOL    HW269412   4.207   1.861   3.851  0.2311 -0.0389  1.5068
22174SOL     OW69413   1.491   2.659   5.795 -0.2602  0.0090  0.2997
22174SOL    HW169414   1.399   2.641   5.812  0.3042 -1.4508  2.2181
22174SOL    HW269415   1.518   2.592   5.731 -0.0478 -1.0313  1.4352
22175SOL     OW69416   4.582   4.526   2.211  0.3013  0.4345 -0.2794
22175SOL    HW169417   4.631   4.444   2.216  2.1004  1.3239 -1.9697
22175SOL    HW269418   4.598   4.569   2.296 -1.5388 -1.3414  1.0538
22176SOL     OW69419   4.821   8.975   6.964 -0.4144  0.3463 -0.5783
22176SOL    HW169420   4.775   8.954   7.045  2.0926  1.1627  1.1745
22176SOL    HW269421   4.763   8.943   6.895 -3.1072  0.4919  1.4481
22177SOL     OW69422   6.299   8.146   1.319 -0.4045  1.3634 -0.5958
22177SOL    HW169423   6.375   8.201   1.339 -1.4696  2.0601  1.9433
22177SOL    HW269424   6.225   8.205   1.322 -1.3674  0.1665  0.2204
22178SOL     OW69425   4.183   2.940   4.069  0.3041 -0.6446 -0.5919
22178SOL    HW169426   4.125   3.015   4.079  0.8504 -0.2501 -0.2865
22178SOL    HW269427   4.248   2.968   4.004  0.1235 -1.0984 -0.9708
22179SOL     OW69428   5.981   7.617   2.567 -0.3805  0.2630 -0.1055
22179SOL    HW169429   6.053   7.562   2.538 -1.4244 -1.8480  1.0351
22179SOL    HW269430   6.017   7.666   2.641 -0.2635 -1.3765  0.9815
22180SOL     OW69431   5.387   8.188   3.503  0.3197  0.2537 -0.2732
22180SOL    HW169432   5.365   8.252   3.571 -4.0700  1.1510 -2.1606
22180SOL    HW269433   5.406   8.242   3.426 -0.8497 -0.6652 -1.2327
22181SOL     OW69434   6.071   1.727   4.334  0.0848 -0.0788  0.3846
22181SOL    HW169435   6.019   1.738   4.255  0.0725 -0.2627  0.3652
22181SOL    HW269436   6.008   1.704   4.402 -0.1390  1.7701  0.8613
22182SOL     OW69437   7.278   2.782   7.880  0.2942  0.5114  0.6247
22182SOL    HW169438   7.287   2.859   7.823  1.1326  0.5319  0.7748
22182SOL    HW269439   7.298   2.708   7.823 -0.0984  0.4329  0.5859
22183SOL     OW69440   3.725   8.494   0.823  0.1704  0.0311 -0.4305
22183SOL    HW169441   3.682   8.480   0.907 -0.8440 -0.1876 -0.9760
22183SOL    HW269442   3.713   8.587   0.806 -2.3621 -0.4502 -1.7556
22184SOL     OW69443   8.298   0.695   3.935  0.0394  0.4077  0.4336
22184SOL    HW169444   8.249   0.623   3.975 -0.4841  0.8132  0.5291
22184SOL    HW269445   8.244   0.721   3.859  0.5914  0.2145 -0.0292
22185SOL     OW69446   4.155   1.149   0.068  0.6576 -0.3341  0.1570
22185SOL    HW169447   4.136   1.204   0.144 -1.0831  1.9366 -1.7475
22185SOL    HW269448   4.097   1.074   0.077 -0.2391  0.4000  0.6085
22186SOL     OW69449   5.829   1.740   7.595 -0.3047 -0.0967  0.1122
22186SOL    HW169450   5.884   1.818   7.588 -2.2618  1.3319 -0.2096
22186SOL    HW269451   5.889   1.670   7.619  1.6079  1.3978 -0.1108
22187SOL     OW69452   7.364   1.843   3.712 -0.0626 -0.0763  0.1973
22187SOL    HW169453   7.322   1.912   3.660  0.2538 -0.8477 -1.1130
22187SOL    HW269454   7.381   1.885   3.796 -0.2305  1.3420 -0.4356
22188SOL     OW69455   4.484   8.248   2.451 -0.5155  0.5053  0.4978
22188SOL    HW169456   4.389   8.246   2.457 -0.5767 -3.0786  0.5372
22188SOL    HW269457   4.513   8.205   2.532  0.9626 -0.7822 -0.6549
22189SOL     OW69458   1.234   8.448   5.345  0.0006  0.3909  0.6826
22189SOL    HW169459   1.231   8.544   5.351 -0.7908  0.5148 -1.0396
22189SOL    HW269460   1.327   8.427   5.347  0.1916  1.2175  0.8492
22190SOL     OW69461   7.758   3.116   3.915  0.1314  0.7756 -0.0763
22190SOL    HW169462   7.722   3.035   3.951  1.9496 -0.6580 -1.3108
22190SOL    HW269463   7.683   3.160   3.874 -0.8768 -0.2962  0.5745
22191SOL     OW69464   3.944   5.968   7.545  0.0190  0.4250 -0.2157
22191SOL    HW169465   3.878   5.993   7.609  0.6878 -0.4730  0.8722
22191SOL    HW269466   4.015   6.031   7.557 -1.3665  2.7025 -2.7996
22192SOL     OW69467   8.532   5.503   5.000 -0.7793 -0.1247 -0.0369
22192SOL    HW169468   8.569   5.427   5.045 -1.4999  1.0605  2.7815
22192SOL    HW269469   8.489   5.553   5.070 -2.4270  1.6318 -2.1896
22193SOL     OW69470   1.186   0.271   4.119  0.1650  0.1747  0.0247
22193SOL    HW169471   1.101   0.234   4.096  0.0634  0.6741 -0.4209
22193SOL    HW269472   1.166   0.356   4.158  0.4418  0.1354  0.2578
22194SOL     OW69473   7.801   6.883   9.075  0.7614 -0.1839 -0.5309
22194SOL    HW169474   7.706   6.880   9.066  0.7005 -1.6303  0.3105
22194SOL    HW269475   7.834   6.858   8.988  0.3699 -0.3436 -0.6364
22195SOL     OW69476   6.610   7.829   3.704  0.0925 -0.2893 -0.1222
22195SOL    HW169477   6.615   7.909   3.757  0.4618  0.8868 -1.8516
22195SOL    HW269478   6.532   7.784   3.736 -0.4541  1.0474  0.5106
22196SOL     OW69479   3.719   1.167   2.509  0.5810 -0.1546 -0.4370
22196SOL    HW169480   3.654   1.154   2.578  0.0267  0.6581 -0.7891
22196SOL    HW269481   3.679   1.127   2.431  1.0325 -0.7237 -0.3756
22197SOL     OW69482   4.841   8.493   2.489 -0.2405 -0.3342  0.4352
22197SOL    HW169483   4.884   8.481   2.405  0.3160  0.9606  0.5222
22197SOL    HW269484   4.901   8.451   2.552 -1.0209 -1.9872  0.1460
22198SOL     OW69485   1.939   5.936   5.841 -0.3715 -0.7299 -0.0257
22198SOL    HW169486   1.982   6.022   5.834  0.3142 -0.7469  2.5769
22198SOL    HW269487   2.011   5.874   5.851 -0.8864 -1.2033  0.9636
22199SOL     OW69488   3.983   6.938   7.786  0.0824 -0.1529 -0.5906
22199SOL    HW169489   3.900   6.930   7.740  0.1891  3.5067 -1.7705
22199SOL    HW269490   4.049   6.938   7.716  0.9241 -1.2277  0.1806
22200SOL     OW69491   2.240   7.637   7.088  0.3281 -0.2186 -1.0141
22200SOL    HW169492   2.301   7.578   7.131 -0.5024 -0.0109  0.5205
22200SOL    HW269493   2.294   7.687   7.027  1.9122  0.5904  0.9342
22201SOL     OW69494   3.296   0.588   5.179  0.0930  0.0098 -0.1466
22201SOL    HW169495   3.318   0.618   5.091 -0.4651  0.9430  0.0096
22201SOL    HW269496   3.349   0.642   5.237 -0.8117  0.6180  0.1381
22202SOL     OW69497   5.029   0.308   2.620  0.2526 -0.2382 -0.1931
22202SOL    HW169498   5.000   0.355   2.698 -0.0138  0.1073 -0.4964
22202SOL    HW269499   4.989   0.221   2.628 -1.7772  0.5398 -1.1083
22203SOL     OW69500   0.705   7.543   2.185  0.2408  0.3600 -0.2398
22203SOL    HW169501   0.638   7.532   2.253 -1.4101  1.0181 -1.6763
22203SOL    HW269502   0.742   7.629   2.202  1.2611 -0.3010  0.9896
22204SOL     OW69503   6.501   6.851   1.190 -0.7889  0.6488  0.3784
22204SOL    HW169504   6.594   6.872   1.186 -0.3875 -0.9972  0.3642
22204SOL    HW269505   6.457   6.930   1.159  0.6329  1.1521 -0.4360
22205SOL     OW69506   8.691   7.312   7.450 -0.9880  0.0609  0.1061
22205SOL    HW169507   8.753   7.384   7.446  0.9448 -1.2965  2.7572
22205SOL    HW269508   8.605   7.354   7.444  0.0595  2.5596  1.2933
22206SOL     OW69509   4.342   5.044   4.825  0.1040  0.0134  0.3622
22206SOL    HW169510   4.403   5.096   4.772 -0.3031 -0.1391 -0.2672
22206SOL    HW269511   4.350   4.955   4.790  1.6898 -0.6386  2.2202
22207SOL     OW69512   5.067   1.451   6.655  0.0232  0.0677  0.1304
22207SOL    HW169513   5.078   1.485   6.566  4.1436 -1.7749 -0.3075
22207SOL    HW269514   5.135   1.384   6.663 -0.1268  0.1647  4.6930
22208SOL     OW69515   7.320   0.486   2.312  0.0848 -0.3010  0.2162
22208SOL    HW169516   7.299   0.429   2.238  0.6079  0.0895 -0.2484
22208SOL    HW269517   7.251   0.552   2.312 -0.6088 -1.0143  0.8516
22209SOL     OW69518   6.135   8.001   6.453 -0.2594 -0.5050 -0.2544
22209SOL    HW169519   6.069   7.975   6.389  1.4376 -0.0931 -2.2774
22209SOL    HW269520   6.146   7.924   6.510  0.8340 -2.3550 -2.7926
22210SOL     OW69521   6.659   5.528   4.204  0.5528  0.1416 -0.3304
22210SOL    HW169522   6.706   5.468   4.263  0.8075  0.7585  0.1076
22210SOL    HW269523   6.568   5.526   4.234  0.3274 -0.8746 -1.0294
22211SOL     OW69524   8.788   6.782   5.755  0.0415  0.3213  0.2718
22211SOL    HW169525   8.808   6.725   5.681 -1.5103  0.0149  0.0471
22211SOL    HW269526   8.710   6.831   5.727 -0.3912  0.4160  1.5762
22212SOL     OW69527   6.040   8.265   0.336  0.0320 -0.0152  0.4161
22212SOL    HW169528   6.130   8.292   0.318 -0.1433 -0.0673 -0.5643
22212SOL    HW269529   6.021   8.199   0.270 -0.0344 -1.5379  1.9002
22213SOL     OW69530   5.822   1.758   3.382  0.2749 -0.6708 -0.4459
22213SOL    HW169531   5.744   1.806   3.353  1.0588  1.9082  1.3458
22213SOL    HW269532   5.893   1.793   3.328  0.5599 -1.4722 -0.6124
22214SOL     OW69533   8.387   0.404   4.718  0.5431 -0.2696 -0.2296
22214SOL    HW169534   8.375   0.491   4.757 -1.4745 -0.0284 -1.2664
22214SOL    HW269535   8.427   0.422   4.633  0.8958 -0.4353 -0.0995
22215SOL     OW69536   5.109   7.450   6.242  0.3063  0.3174  0.1927
22215SOL    HW169537   5.144   7.417   6.325  0.9430 -1.0985 -0.5897
22215SOL    HW269538   5.015   7.428   6.245  0.4011 -0.0695  0.3892
22216SOL     OW69539   4.567   5.601   7.164 -0.1046  0.3342  0.2550
22216SOL    HW169540   4.603   5.524   7.119  1.1119  0.1930  1.3991
22216SOL    HW269541   4.494   5.566   7.215  1.1647 -0.3597  1.7062
22217SOL     OW69542   3.570   2.478   5.164  0.2522 -0.6616  0.1006
22217SOL    HW169543   3.543   2.391   5.192  1.0051 -0.4328  1.6537
22217SOL    HW269544   3.594   2.523   5.245 -0.7019  1.2114 -0.5704
22218SOL     OW69545   4.237   2.924   2.150  0.0383 -0.2977 -0.1769
22218SOL    HW169546   4.238   2.983   2.074  0.5902 -0.2002 -0.0945
22218SOL    HW269547   4.315   2.947   2.200  0.2555 -1.0846 -0.1333
22219SOL     OW69548   1.268   4.857   5.010 -0.1585  0.2993 -0.7501
22219SOL    HW169549   1.322   4.829   5.084 -4.0633 -0.0126  2.3560
22219SOL    HW269550   1.315   4.826   4.932  1.8727 -3.9500  1.8085
22220SOL     OW69551   5.321   5.033   4.489  0.5479 -0.1925  0.2142
22220SOL    HW169552   5.296   5.098   4.423 -1.5657  0.5720  1.6289
22220SOL    HW269553   5.417   5.036   4.492  0.5624  1.7516 -0.8650
22221SOL     OW69554   6.073   5.538   0.352  0.1064  0.0125  0.0178
22221SOL    HW169555   6.023   5.573   0.425 -0.0367  0.7551 -0.4267
22221SOL    HW269556   6.037   5.581   0.275 -0.0977 -1.1497 -0.5560
22222SOL     OW69557   9.120   7.876   3.107 -0.6250  0.4244 -0.1468
22222SOL    HW169558   9.132   7.784   3.132  0.5530  0.9384  1.2991
22222SOL    HW269559   9.207   7.915   3.114 -1.0475  1.6131 -1.0271
22223SOL     OW69560   1.072   4.804   1.486 -0.3128 -0.2151 -0.0318
22223SOL    HW169561   1.157   4.760   1.481 -0.0384  0.0122  1.9128
22223SOL    HW269562   1.009   4.733   1.495 -0.2752 -0.3611 -0.8931
22224SOL     OW69563   8.508   2.523   3.512 -0.2869  0.0477  0.5133
22224SOL    HW169564   8.422   2.488   3.536 -0.2916 -1.1252 -1.0788
22224SOL    HW269565   8.520   2.498   3.421  1.1568  1.4308  0.2735
22225SOL     OW69566   5.533   4.159   1.471 -0.2156  0.1280  0.0333
22225SOL    HW169567   5.550   4.189   1.382 -1.0982  0.1999 -0.1180
22225SOL    HW269568   5.604   4.196   1.523  0.2998  0.0952 -0.6341
22226SOL     OW69569   3.294   1.796   0.172 -0.2353  0.1388  0.4766
22226SOL    HW169570   3.286   1.833   0.084  1.1429 -1.5476 -0.4351
22226SOL    HW269571   3.207   1.804   0.211 -1.7748 -1.8113 -2.2160
22227SOL     OW69572   1.534   5.611   5.676 -0.1230 -0.5536  0.0422
22227SOL    HW169573   1.522   5.690   5.729  0.8735  0.2913 -0.9318
22227SOL    HW269574   1.452   5.563   5.685 -0.4445  0.1812  1.3136
22228SOL     OW69575   3.329   0.621   2.925 -0.4652 -0.2603 -0.7493
22228SOL    HW169576   3.364   0.591   3.008 -1.6162 -1.6839 -0.7331
22228SOL    HW269577   3.299   0.711   2.942 -0.2468 -0.3643  0.2265
22229SOL     OW69578   9.143   5.857   2.800 -0.3162 -0.4895  0.3729
22229SOL    HW169579   9.224   5.905   2.783  0.5133 -1.4339  1.5740
22229SOL    HW269580   9.088   5.920   2.847  0.0802 -0.1462  0.3870
22230SOL     OW69581   2.887   5.037   0.625 -0.2762  0.3237  0.6687
22230SOL    HW169582   2.969   5.009   0.665  0.1516  0.9251  0.2291
22230SOL    HW269583   2.840   5.084   0.694  0.2648  0.9804  0.6005
22231SOL     OW69584   7.852   3.097   5.795 -0.1896  0.8659 -0.3608
22231SOL    HW169585   7.890   3.091   5.882  1.2477  0.5544 -0.9812
22231SOL    HW269586   7.765   3.058   5.804  0.1395  0.3608  0.8130
22232SOL     OW69587   6.549   5.347   2.638  0.3419 -0.0069 -0.6514
22232SOL    HW169588   6.477   5.285   2.634  0.4999 -0.2211 -0.2876
22232SOL    HW269589   6.580   5.355   2.548 -0.0065 -0.0680 -0.7741
22233SOL     OW69590   5.415   7.703   4.280 -0.7898  0.3213 -0.5622
22233SOL    HW169591   5.396   7.611   4.298  0.8579 -0.1121 -0.8253
22233SOL    HW269592   5.435   7.742   4.365 -1.1567  0.3544 -0.4911
22234SOL     OW69593   4.713   9.019   6.168  0.9441 -0.2794 -0.2285
22234SOL    HW169594   4.686   9.107   6.196 -2.5624 -0.7824 -1.5496
22234SOL    HW269595   4.704   8.965   6.247  0.9899  0.1094  0.0499
22235SOL     OW69596   5.606   8.165   7.271  0.0107  0.3099  0.7561
22235SOL    HW169597   5.540   8.109   7.231  0.6371 -0.3116  0.5805
22235SOL    HW269598   5.678   8.106   7.293  1.6507  1.3344 -1.4770
22236SOL     OW69599   7.952   5.078   6.475 -0.3064 -0.1174 -0.5306
22236SOL    HW169600   7.929   5.086   6.383 -0.0672 -1.0910 -0.6866
22236SOL    HW269601   7.974   5.168   6.503  0.4249  0.0594 -1.6329
22237SOL     OW69602   2.325   2.632   6.775  0.1709  0.1094 -0.1273
22237SOL    HW169603   2.342   2.637   6.869 -0.9508 -0.6285  0.1372
22237SOL    HW269604   2.391   2.570   6.743 -0.9410 -1.5200  0.6088
22238SOL     OW69605   2.323   8.186   1.524 -0.3766  0.0468 -0.2851
22238SOL    HW169606   2.357   8.275   1.519 -1.1727  0.3020 -1.3584
22238SOL    HW269607   2.234   8.192   1.491 -0.7694 -0.9886  0.5396
22239SOL     OW69608   1.024   7.501   7.231  0.1833 -0.0239  0.1440
22239SOL    HW169609   1.068   7.510   7.147 -1.2181  0.1901 -0.6001
22239SOL    HW269610   1.051   7.579   7.281  2.0535 -0.8014  0.4288
22240SOL     OW69611   7.961   3.372   5.054  0.1564  0.1239 -0.1316
22240SOL    HW169612   7.925   3.296   5.102 -0.0860 -0.1798 -0.7804
22240SOL    HW269613   7.898   3.386   4.983  1.0416 -0.0760 -0.9710
22241SOL     OW69614   4.608   2.348   7.020  0.0517  0.6933 -0.2567
22241SOL    HW169615   4.663   2.303   7.084 -1.4906 -0.2579  0.4630
22241SOL    HW269616   4.570   2.421   7.068  0.1690  0.9560 -0.5620
22242SOL     OW69617   5.659   5.195   8.430  0.0115  0.3658  0.1175
22242SOL    HW169618   5.643   5.176   8.337 -0.9025 -1.2740  0.5623
22242SOL    HW269619   5.604   5.271   8.449 -0.8610 -0.1267 -0.3717
22243SOL     OW69620   5.863   3.401   8.737  0.0455  0.0525  0.1470
22243SOL    HW169621   5.875   3.307   8.749  2.4481  0.2975  0.0739
22243SOL    HW269622   5.878   3.415   8.643 -4.1199  0.0902 -0.6947
22244SOL     OW69623   8.971   7.926   4.589  0.0858  0.4630 -0.5274
22244SOL    HW169624   8.877   7.914   4.596  0.2972 -0.5038  1.1088
22244SOL    HW269625   8.994   7.889   4.504 -0.9626  0.4657 -0.8227
22245SOL     OW69626   0.940   6.161   5.571 -0.0339 -0.3261 -0.0798
22245SOL    HW169627   0.959   6.100   5.642  2.7300 -1.3115 -1.5294
22245SOL    HW269628   0.854   6.134   5.538  0.3170 -2.2793  0.4767
22246SOL     OW69629   4.951   2.970   3.130 -0.8254 -0.3255 -0.0347
22246SOL    HW169630   4.936   3.026   3.206 -1.3890 -1.1836  0.5113
22246SOL    HW269631   5.031   2.922   3.151 -0.3268  0.2845 -0.5141
22247SOL     OW69632   1.474   6.908   5.008 -0.4170  0.0699  0.1486
22247SOL    HW169633   1.451   6.949   5.092  3.6072  0.8626  1.0609
22247SOL    HW269634   1.471   6.980   4.945  0.7015  0.4797  0.5349
22248SOL     OW69635   6.853   4.513   3.802  0.3560  0.0355 -0.2949
22248SOL    HW169636   6.789   4.443   3.812 -0.3074  0.3652 -1.8678
22248SOL    HW269637   6.921   4.476   3.746 -0.0573  0.6639 -1.2335
22249SOL     OW69638   7.023   4.352   2.016 -0.1444 -0.0380  0.2372
22249SOL    HW169639   7.032   4.298   2.094 -0.8860 -1.1308 -0.4239
22249SOL    HW269640   6.974   4.429   2.046  0.9355  0.3142  1.1808
22250SOL     OW69641   4.548   8.226   5.612 -0.2072  0.0689 -0.1052
22250SOL    HW169642   4.564   8.280   5.534 -0.1423 -0.4991 -0.4879
22250SOL    HW269643   4.475   8.170   5.587  0.3154 -0.6535 -0.0351
22251SOL     OW69644   7.461   0.474   8.135  0.1553  0.1613 -0.2197
22251SOL    HW169645   7.523   0.469   8.062  1.6418  0.3937  0.9790
22251SOL    HW269646   7.515   0.464   8.213 -1.5109 -1.1041  0.8495
22252SOL     OW69647   7.920   0.554   5.731  0.0233  0.2679  0.0655
22252SOL    HW169648   7.871   0.482   5.771  0.8300  0.6830  1.8909
22252SOL    HW269649   7.952   0.605   5.805  1.5186  1.1292 -1.1289
22253SOL     OW69650   5.348   3.964   3.843 -0.2232 -0.3877 -0.1784
22253SOL    HW169651   5.283   3.998   3.782  0.3555  2.0429  0.4464
22253SOL    HW269652   5.433   3.985   3.803  0.1611  0.0078  0.8091
22254SOL     OW69653   2.276   6.757   7.891  0.0214 -0.2160 -1.0125
22254SOL    HW169654   2.339   6.814   7.935  0.5031  1.4057 -3.5559
22254SOL    HW269655   2.297   6.669   7.922 -0.2854  0.8178  2.5466
22255SOL     OW69656   6.168   2.040   8.383 -0.3753 -0.2910 -0.1520
22255SOL    HW169657   6.114   1.991   8.445  1.3190  0.5035  2.0702
22255SOL    HW269658   6.241   1.982   8.362  0.6163  0.5009  0.9774
22256SOL     OW69659   4.329   8.251   7.528  0.0876 -0.3789  0.7640
22256SOL    HW169660   4.401   8.286   7.580 -0.2950  0.9886  0.4175
22256SOL    HW269661   4.270   8.326   7.515  0.1249 -0.6786 -1.5446
22257SOL     OW69662   5.413   6.976   1.930 -0.1709  0.0441 -0.1934
22257SOL    HW169663   5.355   7.029   1.985  1.2762 -0.8221  2.3278
22257SOL    HW269664   5.474   7.038   1.891 -1.7294  0.7702 -1.6085
22258SOL     OW69665   0.163   8.023   5.463 -0.2877  0.1110  0.6938
22258SOL    HW169666   0.195   8.033   5.374  1.2269  0.2101  1.2319
22258SOL    HW269667   0.078   8.068   5.463 -0.0567  0.5813 -0.5424
22259SOL     OW69668   6.589   4.187   3.078  0.4301  0.1246 -0.3333
22259SOL    HW169669   6.498   4.168   3.057  0.4219  1.0424 -1.1617
22259SOL    HW269670   6.639   4.136   3.015  0.4689  0.4806 -0.5898
22260SOL     OW69671   5.768   2.301   5.062  0.2008  0.0586  0.5739
22260SOL    HW169672   5.826   2.335   5.130  0.1398 -1.4291  1.4026
22260SOL    HW269673   5.778   2.206   5.067  0.4195 -0.0982 -1.7008
22261SOL     OW69674   8.017   8.860   6.948 -0.8612 -0.3839 -0.8074
22261SOL    HW169675   8.062   8.917   7.010  2.2238 -0.3137 -2.8985
22261SOL    HW269676   7.945   8.913   6.914 -0.0689  1.0606 -0.3117
22262SOL     OW69677   2.340   0.616   2.773 -0.3701  0.3837  1.0546
22262SOL    HW169678   2.375   0.689   2.721  0.0127  0.4133  1.3517
22262SOL    HW269679   2.416   0.561   2.792 -0.3592  0.7767  2.2474
22263SOL     OW69680   9.256   3.531   2.935 -0.5606  0.2554 -0.2383
22263SOL    HW169681   9.187   3.515   2.871 -1.1612  0.3323  0.3769
22263SOL    HW269682   9.237   3.618   2.969  0.5385  0.7738 -0.9133
22264SOL     OW69683   0.552   2.298   1.212 -0.0194  0.3641 -0.1965
22264SOL    HW169684   0.528   2.389   1.227  0.4799  0.2050  1.7843
22264SOL    HW269685   0.509   2.250   1.282 -1.7743 -1.2341 -2.2165
22265SOL     OW69686   8.585   6.227   3.658 -0.3108 -0.0277 -0.1676
22265SOL    HW169687   8.680   6.221   3.654 -0.3481 -0.0434 -1.4542
22265SOL    HW269688   8.557   6.236   3.566 -1.3860  2.8284  0.3329
22266SOL     OW69689   0.661   1.843   4.607 -0.2494  0.1881 -0.0209
22266SOL    HW169690   0.665   1.752   4.637  1.6848  0.6509  1.3372
22266SOL    HW269691   0.574   1.873   4.634  0.8010  0.1449  4.2455
22267SOL     OW69692   4.531   3.338   7.587  0.4424 -0.3633 -0.3143
22267SOL    HW169693   4.461   3.395   7.620  0.2561 -1.3298  1.0994
22267SOL    HW269694   4.484   3.271   7.536  0.3882 -0.6470  0.1007
22268SOL     OW69695   0.123   7.718   5.454 -0.6661 -0.1652  0.4335
22268SOL    HW169696   0.178   7.792   5.480  0.9610  0.1084 -3.1904
22268SOL    HW269697   0.041   7.758   5.426 -0.4259  0.1169  0.1179
22269SOL     OW69698   5.739   1.928   2.468 -0.2887 -0.2178  0.7521
22269SOL    HW169699   5.707   1.917   2.379  1.9483 -0.0137 -0.1316
22269SOL    HW269700   5.708   1.851   2.514 -1.0210 -0.5936 -0.3368
22270SOL     OW69701   6.456   0.716   0.351 -0.5027  0.5974 -0.7458
22270SOL    HW169702   6.466   0.720   0.255  0.0815 -0.3307 -0.7457
22270SOL    HW269703   6.409   0.634   0.366  1.6318 -0.6047 -0.1320
22271SOL     OW69704   4.454   8.541   1.088  0.8156  0.7060  0.2721
22271SOL    HW169705   4.458   8.520   1.182 -0.5475  0.6987  0.3475
22271SOL    HW269706   4.424   8.632   1.086 -3.7801 -0.5704 -0.1180
22272SOL     OW69707   4.825   2.589   3.258 -0.1241 -0.0327 -0.7276
22272SOL    HW169708   4.911   2.604   3.219 -0.4196  1.8100 -0.7754
22272SOL    HW269709   4.774   2.547   3.189  1.0253 -2.2012 -0.3249
22273SOL     OW69710   1.012   0.394   6.029 -0.0615  0.2958 -0.1562
22273SOL    HW169711   0.959   0.372   6.105  1.9723  0.5501  1.4475
22273SOL    HW269712   1.088   0.336   6.035 -0.5631 -0.8158 -2.9452
22274SOL     OW69713   6.838   2.782   0.057 -0.1466  0.4350 -0.1628
22274SOL    HW169714   6.751   2.754   0.026  0.6152 -1.8136 -0.4462
22274SOL    HW269715   6.878   2.825  -0.019 -2.0441  4.4175  0.8098
22275SOL     OW69716   0.734   1.993   7.831  0.6072  0.6023  0.0760
22275SOL    HW169717   0.811   1.998   7.887  0.3687  1.4355  0.3363
22275SOL    HW269718   0.757   1.926   7.766  2.5209  2.4689 -1.3122
22276SOL     OW69719   3.201   9.157   0.889  0.6488  0.3740 -0.6002
22276SOL    HW169720   3.125   9.105   0.864  0.4295  1.1189 -1.4948
22276SOL    HW269721   3.200   9.155   0.985  0.2740 -0.7119 -0.6067
22277SOL     OW69722   4.873   3.482   0.452 -0.6808 -0.4723  0.4101
22277SOL    HW169723   4.813   3.554   0.433  0.2222 -0.2480 -1.9140
22277SOL    HW269724   4.822   3.403   0.433 -0.3353 -0.2844 -1.4712
22278SOL     OW69725   7.022   1.527   8.927 -0.3363  0.1211  0.0042
22278SOL    HW169726   7.017   1.434   8.948  0.6392 -0.0721 -0.6080
22278SOL    HW269727   7.028   1.531   8.832  0.6661  0.7616  0.0818
22279SOL     OW69728   5.799   8.714   7.423 -0.6745 -0.3975  0.1611
22279SOL    HW169729   5.800   8.810   7.423  0.3812 -0.3787 -1.1739
22279SOL    HW269730   5.707   8.692   7.438 -1.3488  0.8851 -1.6289
22280SOL     OW69731   0.617   2.108   5.398 -0.1416  0.2460  0.0251
22280SOL    HW169732   0.631   2.195   5.433  1.9676  1.1008 -2.5978
22280SOL    HW269733   0.665   2.050   5.457 -0.8474  0.9174  1.3019
22281SOL     OW69734   8.599   6.900   7.082  0.0856 -0.0005 -0.4191
22281SOL    HW169735   8.514   6.870   7.047 -0.4200  0.4257  0.4112
22281SOL    HW269736   8.584   6.992   7.106  1.5503  0.9226 -2.7393
22282SOL     OW69737   1.555   4.638   5.433  0.6425  0.0025 -0.0152
22282SOL    HW169738   1.577   4.663   5.523 -0.0767 -0.1458  0.2106
22282SOL    HW269739   1.636   4.604   5.396  0.6431 -1.1511  0.9966
22283SOL     OW69740   0.697   7.545   4.192 -0.6860  0.0431 -0.2071
22283SOL    HW169741   0.621   7.504   4.233 -0.6799  0.4384  0.2022
22283SOL    HW269742   0.769   7.531   4.254 -0.7655  0.9912  0.1080
22284SOL     OW69743   3.542   2.416   8.258 -0.2904 -0.0280  0.4720
22284SOL    HW169744   3.586   2.399   8.342  0.4879 -0.0221  0.0739
22284SOL    HW269745   3.602   2.380   8.192 -0.2257  1.2109 -0.1745
22285SOL     OW69746   7.664   2.498   8.263 -0.4183  0.6587 -0.2907
22285SOL    HW169747   7.608   2.535   8.194 -2.1916  0.7163  1.1329
22285SOL    HW269748   7.621   2.416   8.287  0.3938  0.4555  0.4932
22286SOL     OW69749   0.016   1.938   8.164  0.2773  0.3139  0.1810
22286SOL    HW169750  -0.032   1.857   8.179 -0.8338  1.0302  0.5812
22286SOL    HW269751   0.046   1.932   8.073 -1.3701  0.2422 -0.3829
22287SOL     OW69752   2.504   8.583   5.288 -0.1269 -0.1350  0.0736
22287SOL    HW169753   2.431   8.525   5.310 -0.9649  0.9123  0.1447
22287SOL    HW269754   2.562   8.578   5.364 -1.4880  1.0912  1.2677
22288SOL     OW69755   7.518   4.972   1.866 -0.0468  0.0774 -0.0234
22288SOL    HW169756   7.454   4.945   1.799 -0.5690 -0.2177  0.5829
22288SOL    HW269757   7.488   5.058   1.895 -0.0725  0.0154  0.1366
22289SOL     OW69758   1.436   9.104   5.187 -0.0288  0.1785 -0.2388
22289SOL    HW169759   1.454   9.033   5.249 -1.0025  0.9133  0.9365
22289SOL    HW269760   1.475   9.182   5.227  0.8787  0.3688 -1.4333
22290SOL     OW69761   7.831   2.127   7.494 -0.3338  0.3104  0.6111
22290SOL    HW169762   7.900   2.065   7.516 -0.0104 -0.2036 -1.6071
22290SOL    HW269763   7.875   2.213   7.493  0.0756  0.1032  0.1493
22291SOL     OW69764   3.693   6.529   0.082 -0.3219  0.1842  0.5399
22291SOL    HW169765   3.650   6.473   0.018  0.1652  0.8404 -0.3938
22291SOL    HW269766   3.758   6.472   0.124  0.1050  0.0134 -0.3328
22292SOL     OW69767   4.745   6.770   1.010  0.1156 -0.1951  0.0736
22292SOL    HW169768   4.820   6.826   1.026  1.7783 -2.2111 -0.1870
22292SOL    HW269769   4.762   6.691   1.061 -1.8353 -0.7311 -0.0112
22293SOL     OW69770   2.323   1.939   7.596  0.0090  0.1730  0.3047
22293SOL    HW169771   2.247   1.899   7.553  0.4892 -0.5247  0.0920
22293SOL    HW269772   2.335   1.887   7.676  1.8501 -1.4459 -0.9374
22294SOL     OW69773   0.440   3.238   1.204 -0.0931 -0.0441  0.0333
22294SOL    HW169774   0.451   3.162   1.262  0.5165  0.1230  0.1435
22294SOL    HW269775   0.505   3.226   1.135  0.2998  0.5847  0.2823
22295SOL     OW69776   3.718   7.268   2.718  0.0597  0.4135 -0.3535
22295SOL    HW169777   3.794   7.314   2.682 -0.6607  0.9465 -1.2528
22295SOL    HW269778   3.693   7.207   2.649 -1.6009  1.7428 -1.0047
22296SOL     OW69779   1.386   5.160   6.249  0.4885  0.0699  0.3390
22296SOL    HW169780   1.335   5.080   6.236 -0.7713  0.6492  1.4256
22296SOL    HW269781   1.432   5.145   6.332  1.4565 -0.1282 -0.2317
22297SOL     OW69782   2.109   4.830   7.083 -1.1119  0.0845 -0.0193
22297SOL    HW169783   2.117   4.741   7.051  0.2154  0.4928 -0.9279
22297SOL    HW269784   2.064   4.878   7.013 -0.3168  0.4637 -0.2949
22298SOL     OW69785   8.110   0.092   3.812 -0.2003 -0.5804  0.3676
22298SOL    HW169786   8.167   0.016   3.803 -0.0663 -0.2641 -2.9082
22298SOL    HW269787   8.041   0.077   3.747 -0.2085  2.0236 -0.3181
22299SOL     OW69788   5.860   8.487   8.266 -0.3788 -0.0357 -0.1735
22299SOL    HW169789   5.811   8.456   8.342 -0.9649  1.3222  0.0317
22299SOL    HW269790   5.862   8.582   8.275  3.0104 -0.0062  0.2527
22300SOL     OW69791   9.155   7.232   3.348  0.0075 -0.4542  0.2418
22300SOL    HW169792   9.137   7.295   3.418 -1.5465 -0.6090  0.0094
22300SOL    HW269793   9.113   7.269   3.271  0.0209 -1.2503 -0.1548
22301SOL     OW69794   0.115   2.714   7.906 -0.2069  0.1080  0.1125
22301SOL    HW169795   0.191   2.748   7.859  0.4103 -1.1573  0.1448
22301SOL    HW269796   0.151   2.645   7.963 -1.2363  0.1673  0.8765
22302SOL     OW69797   6.194   5.137   6.547 -0.1265 -0.0308 -0.0996
22302SOL    HW169798   6.118   5.078   6.544 -0.1685  0.0198 -2.8797
22302SOL    HW269799   6.259   5.095   6.492  0.1655  2.0318 -1.4439
22303SOL     OW69800   4.277   0.793   6.338 -0.0370 -0.0185 -0.0584
22303SOL    HW169801   4.281   0.775   6.432  0.4791  0.3579 -0.0071
22303SOL    HW269802   4.183   0.795   6.318 -0.1725  0.7047  0.6107
22304SOL     OW69803   1.833   3.546   8.964  0.1381 -0.1328  0.1729
22304SOL    HW169804   1.829   3.636   8.995 -0.4872 -0.1986  0.2872
22304SOL    HW269805   1.926   3.522   8.970  0.4900  0.8647 -0.9093
22305SOL     OW69806   6.072   0.808   3.965 -0.0034 -0.1003  0.2551
22305SOL    HW169807   6.066   0.814   4.060 -2.4393  0.3368  0.1449
22305SOL    HW269808   6.015   0.735   3.942  1.0901 -0.6454 -0.8446
22306SOL     OW69809   0.312   3.003   7.978 -0.3252  0.2392  0.2945
22306SOL    HW169810   0.247   3.024   8.045 -0.8531 -0.7843  0.1252
22306SOL    HW269811   0.396   3.022   8.020 -0.7237  1.9814  0.3729
22307SOL     OW69812   6.246   1.435   7.468 -0.5426  0.2049  0.0150
22307SOL    HW169813   6.312   1.409   7.405 -0.2178  0.2124  0.3494
22307SOL    HW269814   6.181   1.364   7.466 -1.0351  0.6619 -1.0255
22308SOL     OW69815   7.611   4.259   2.773  0.0228 -0.0728 -0.0203
22308SOL    HW169816   7.520   4.245   2.800 -0.2850  0.9950 -0.4588
22308SOL    HW269817   7.654   4.296   2.851 -0.7902  2.7167 -0.7635
22309SOL     OW69818   6.551   8.319   1.318 -0.4856  0.0267 -0.4672
22309SOL    HW169819   6.629   8.290   1.365 -0.9299 -0.8343 -0.2434
22309SOL    HW269820   6.564   8.288   1.228 -0.5706 -0.1101 -0.4319
22310SOL     OW69821   4.221   3.517   1.668  0.6768  0.5589  0.0163
22310SOL    HW169822   4.264   3.574   1.605  0.0846  2.8955  1.5820
22310SOL    HW269823   4.282   3.510   1.741 -0.2491  1.2710  0.8918
22311SOL     OW69824   3.086   8.593   2.726 -0.1184  0.4962  0.3126
22311SOL    HW169825   3.025   8.522   2.703 -0.8144  1.3387 -0.5158
22311SOL    HW269826   3.088   8.648   2.648  1.7379  0.4812  0.3187
22312SOL     OW69827   4.657   6.401   7.883 -0.2531  0.0300 -0.4833
22312SOL    HW169828   4.624   6.476   7.834 -1.4907 -0.4832 -0.4734
22312SOL    HW269829   4.727   6.365   7.828 -0.6975  0.2750 -1.2179
22313SOL     OW69830   9.253   2.170   5.593  0.1265  0.6900 -0.0905
22313SOL    HW169831   9.182   2.153   5.532 -0.3440  0.1393  0.5965
22313SOL    HW269832   9.323   2.110   5.566 -0.8812 -1.2148  1.2233
22314SOL     OW69833   8.904   7.212   5.381 -0.0961  0.1750 -0.2999
22314SOL    HW169834   8.958   7.144   5.421  0.4197  2.1594  2.7122
22314SOL    HW269835   8.827   7.218   5.438 -1.2435  0.5768 -1.8326
22315SOL     OW69836   2.843   5.341   8.544 -0.0428  0.1690 -0.2820
22315SOL    HW169837   2.782   5.410   8.569 -0.5124  0.2646 -1.6133
22315SOL    HW269838   2.807   5.262   8.585  0.9055  0.7995  1.8659
22316SOL     OW69839   8.247   7.033   9.063  0.1470 -0.4447  0.1943
22316SOL    HW169840   8.250   6.952   9.011  0.8182 -1.1304  1.2630
22316SOL    HW269841   8.217   7.005   9.149 -1.1066  0.7062  0.1537
22317SOL     OW69842   3.608   3.622   7.732 -0.0188  0.1065 -0.0649
22317SOL    HW169843   3.597   3.715   7.711  1.4862  0.2048 -0.5513
22317SOL    HW269844   3.601   3.618   7.827  2.9634  1.2374  0.2960
22318SOL     OW69845   5.873   8.186   4.776 -0.1461  0.0125 -0.4320
22318SOL    HW169846   5.784   8.221   4.766 -0.1612 -0.4515 -2.4911
22318SOL    HW269847   5.930   8.262   4.767 -0.3094  0.2267  0.2880
22319SOL     OW69848   4.283   4.964   6.273  0.5208  0.0460 -0.3241
22319SOL    HW169849   4.261   4.872   6.259 -1.5541  0.5705 -0.7353
22319SOL    HW269850   4.247   4.984   6.359  0.9808  0.4837 -0.2299
22320SOL     OW69851   3.739   5.753   0.768  0.6124  0.3457 -0.1046
22320SOL    HW169852   3.832   5.743   0.787  0.5016 -1.1643 -0.2114
22320SOL    HW269853   3.699   5.772   0.853  0.5617 -2.9496  0.7795
22321SOL     OW69854   1.755   2.568   0.098 -0.1830  0.2366 -0.3281
22321SOL    HW169855   1.697   2.614   0.039 -2.6487 -0.4955  1.3612
22321SOL    HW269856   1.763   2.480   0.062 -0.5495  0.1916 -0.2956
22322SOL     OW69857   2.731   4.276   4.459  0.4359 -0.2548  0.4826
22322SOL    HW169858   2.697   4.187   4.466 -0.6796 -0.0019 -1.0960
22322SOL    HW269859   2.802   4.269   4.396 -1.0739  0.2552 -1.3917
22323SOL     OW69860   3.644   5.566   2.829 -0.2880 -0.2450  0.7153
22323SOL    HW169861   3.594   5.540   2.906 -0.9347  0.9732  0.7219
22323SOL    HW269862   3.672   5.656   2.846  1.0342 -0.5378  0.2587
22324SOL     OW69863   4.881   1.679   1.523  0.4272  0.6118  0.1964
22324SOL    HW169864   4.904   1.591   1.494  0.1797  0.6587 -0.1398
22324SOL    HW269865   4.807   1.704   1.468  2.5738  2.3662 -2.1283
22325SOL     OW69866   4.469   4.014   5.073  0.3986 -0.1679  0.2956
22325SOL    HW169867   4.564   4.021   5.069  0.3152  0.2928 -1.8705
22325SOL    HW269868   4.443   4.084   5.134  1.3201  1.4203 -1.0578
22326SOL     OW69869   4.626   7.543   6.172 -0.5367  0.1248  0.5514
22326SOL    HW169870   4.555   7.540   6.236  1.2165  0.5962  2.6364
22326SOL    HW269871   4.606   7.619   6.117 -1.2997  0.6594  1.5425
22327SOL     OW69872   2.842   5.808   8.079 -0.0715 -0.1729 -0.5073
22327SOL    HW169873   2.810   5.889   8.119  0.0920 -0.2927 -0.1362
22327SOL    HW269874   2.803   5.738   8.131  0.6499 -0.3222 -0.1599
22328SOL     OW69875   1.748   3.458   7.627 -0.0894 -0.0864  0.2985
22328SOL    HW169876   1.807   3.386   7.646  0.0415 -0.2599 -0.6992
22328SOL    HW269877   1.780   3.495   7.545 -1.7010 -0.5599 -0.5893
22329SOL     OW69878   8.457   8.226   8.160 -0.2569 -0.0581 -0.1668
22329SOL    HW169879   8.493   8.289   8.222  1.9895 -1.1368 -0.2857
22329SOL    HW269880   8.411   8.162   8.215 -2.4669  1.4839 -0.0370
22330SOL     OW69881   7.201   6.660   8.260  0.4132 -0.6633 -0.2897
22330SOL    HW169882   7.264   6.653   8.188  1.4706 -0.0981  0.5427
22330SOL    HW269883   7.135   6.721   8.228 -0.1521 -1.8521 -1.4679
22331SOL     OW69884   4.794   8.823   5.720  0.5326  0.9965  0.4269
22331SOL    HW169885   4.751   8.768   5.785 -1.6740  0.7780 -1.0926
22331SOL    HW269886   4.861   8.767   5.681 -1.0827 -0.3557 -0.4761
22332SOL     OW69887   3.012   7.514   7.105  0.2948 -0.1830  0.3360
22332SOL    HW169888   2.995   7.424   7.077  0.2965  0.6827 -2.7604
22332SOL    HW269889   3.098   7.535   7.068 -0.6894  1.8003 -0.9780
22333SOL     OW69890   8.084   4.605   0.535  0.2913  0.0387 -0.8115
22333SOL    HW169891   8.179   4.598   0.534  0.4784  1.9783 -1.3290
22333SOL    HW269892   8.056   4.560   0.455  0.7480 -0.6879 -0.5666
22334SOL     OW69893   2.890   0.902   8.126  0.1289 -0.2735  0.1284
22334SOL    HW169894   2.918   0.835   8.065  1.0616  1.3043 -1.2610
22334SOL    HW269895   2.796   0.912   8.110  0.0824 -0.8740  0.0015
22335SOL     OW69896   1.100   5.208   0.557 -0.0373 -0.0840  0.5193
22335SOL    HW169897   1.080   5.206   0.651  1.7040  0.9126  0.9761
22335SOL    HW269898   1.113   5.116   0.533  1.1829 -0.2686  1.7116
22336SOL     OW69899   7.389   7.619   0.498  0.0533 -0.4887 -0.3122
22336SOL    HW169900   7.438   7.537   0.488  0.0895 -0.3947 -0.9141
22336SOL    HW269901   7.366   7.644   0.409  2.9426  1.9283 -0.5237
22337SOL     OW69902   1.613   0.038   5.258  0.2082 -0.3674  0.2856
22337SOL    HW169903   1.696   0.081   5.234  0.0640  0.4467  1.2043
22337SOL    HW269904   1.575   0.094   5.325 -1.1114 -0.7264 -0.1287
22338SOL     OW69905   4.487   8.299   4.629 -0.0871 -0.0125 -0.5380
22338SOL    HW169906   4.553   8.275   4.564 -0.5465 -1.9276 -0.3718
22338SOL    HW269907   4.533   8.294   4.713 -0.5504 -2.0959 -0.3513
22339SOL     OW69908   6.320   0.768   4.754 -0.2114 -0.5322  0.5043
22339SOL    HW169909   6.358   0.727   4.676  2.1975  0.5499  1.0166
22339SOL    HW269910   6.274   0.697   4.798 -0.4327 -1.4942 -1.1716
22340SOL     OW69911   0.037   1.829   3.716 -1.0475 -0.0752  0.0927
22340SOL    HW169912  -0.055   1.813   3.694 -1.5434  0.2688  1.7991
22340SOL    HW269913   0.068   1.886   3.646 -2.8344  1.7962  0.7127
22341SOL     OW69914   2.832   7.482   4.012 -0.0405 -0.2830 -0.1190
22341SOL    HW169915   2.922   7.515   4.004  0.0344 -0.3727  0.3436
22341SOL    HW269916   2.827   7.446   4.100 -0.2505 -1.1285 -0.4639
22342SOL     OW69917   8.711   2.588   4.366  0.5033 -0.6323  0.3367
22342SOL    HW169918   8.775   2.520   4.383  0.5123 -0.8287 -0.4621
22342SOL    HW269919   8.630   2.541   4.348  0.4772 -0.4332 -0.0791
22343SOL     OW69920   5.466   2.955   5.271 -0.1118  0.2697 -0.6836
22343SOL    HW169921   5.488   2.862   5.271  0.1265  0.3244 -0.4440
22343SOL    HW269922   5.445   2.974   5.362  4.0988  1.4350  0.2414
22344SOL     OW69923   5.545   7.651   3.708 -0.5156 -0.0184  0.4525
22344SOL    HW169924   5.483   7.584   3.737 -1.3316  0.6345  0.2529
22344SOL    HW269925   5.549   7.712   3.782  0.1421 -0.2223  0.5908
22345SOL     OW69926   7.142   9.032   1.391 -0.4775 -0.5842 -0.0997
22345SOL    HW169927   7.095   8.982   1.458  0.7894 -1.6133  0.0601
22345SOL    HW269928   7.099   9.117   1.390 -0.2374 -0.3766  2.3751
22346SOL     OW69929   3.336   3.556   7.608 -0.2077 -0.2071  0.4136
22346SOL    HW169930   3.285   3.505   7.546 -0.3032  0.1952  0.1595
22346SOL    HW269931   3.426   3.551   7.575 -0.3188  0.3359  0.0155
22347SOL     OW69932   1.844   9.077   2.739  0.0591 -0.5723  0.0386
22347SOL    HW169933   1.845   9.152   2.678  0.0774 -0.2839  0.3925
22347SOL    HW269934   1.880   9.112   2.820  2.2060 -1.5417 -0.4384
22348SOL     OW69935   2.815   5.790   1.932  0.4780 -0.4055  0.3999
22348SOL    HW169936   2.723   5.762   1.930 -0.5959  2.7246 -0.1628
22348SOL    HW269937   2.834   5.818   1.842  1.3585  0.6822  0.8902
22349SOL     OW69938   0.574   0.763   3.092  0.2734  0.0556  0.2014
22349SOL    HW169939   0.551   0.853   3.114  0.8920  0.5846 -1.1820
22349SOL    HW269940   0.669   0.761   3.097  0.1951 -1.0715  2.1057
22350SOL     OW69941   7.169   8.769   8.815 -0.4024 -0.1932  0.1512
22350SOL    HW169942   7.114   8.789   8.739  0.3840 -0.4504 -0.4980
22350SOL    HW269943   7.121   8.701   8.862 -2.5264  2.1674  1.7245
22351SOL     OW69944   1.254   5.753   4.812  0.3536  0.1321  0.0873
22351SOL    HW169945   1.246   5.683   4.876 -1.0768  0.4585  0.2949
22351SOL    HW269946   1.234   5.712   4.728  0.1656  0.1455  0.1249
22352SOL     OW69947   3.797   8.181   2.199  0.6142 -0.3231  0.0466
22352SOL    HW169948   3.857   8.179   2.125  0.5524  0.7646 -0.0457
22352SOL    HW269949   3.719   8.225   2.165  1.0213  1.2529  1.0537
22353SOL     OW69950   6.851   4.821   2.850  0.1823  0.2023  0.2419
22353SOL    HW169951   6.809   4.819   2.936  1.3362  2.2780  0.9168
22353SOL    HW269952   6.842   4.731   2.818 -3.4511  0.1855  0.9062
22354SOL     OW69953   3.716   1.574   7.713  0.7816 -0.4812  0.3270
22354SOL    HW169954   3.641   1.621   7.748  1.6916  0.4611  1.0784
22354SOL    HW269955   3.680   1.492   7.679 -0.8380  0.6856 -0.9185
22355SOL     OW69956   6.771   0.583   2.159  0.1522  0.4617  0.2396
22355SOL    HW169957   6.732   0.601   2.073 -1.4808 -1.9279  0.3944
22355SOL    HW269958   6.832   0.511   2.143 -1.8325 -1.5725  1.3738
22356SOL     OW69959   1.735   1.113   3.821 -0.4828  0.0275 -0.3610
22356SOL    HW169960   1.647   1.138   3.850 -0.2416 -0.7266  1.1497
22356SOL    HW269961   1.791   1.186   3.846 -0.5334  0.0865 -0.4222
22357SOL     OW69962   3.340   8.738   5.134  0.1682 -0.0600  0.1000
22357SOL    HW169963   3.373   8.705   5.051 -0.9658  0.4183 -0.5681
22357SOL    HW269964   3.387   8.821   5.148 -1.2457  1.0254 -1.2448
22358SOL     OW69965   3.463   1.994   8.088  0.3295  0.0280  0.1957
22358SOL    HW169966   3.410   1.937   8.032  0.8686 -0.6450  0.3633
22358SOL    HW269967   3.482   2.070   8.033 -0.3274  0.0220 -0.0552
22359SOL     OW69968   1.349   3.766   3.538  0.7393 -0.0292  0.3953
22359SOL    HW169969   1.364   3.818   3.459 -2.0737  1.6379  0.8112
22359SOL    HW269970   1.412   3.800   3.602  0.8880  0.8730 -0.2123
22360SOL     OW69971   1.503   0.481   4.883  1.1797 -0.1807 -0.1805
22360SOL    HW169972   1.485   0.430   4.962  0.8935  0.3547  0.1052
22360SOL    HW269973   1.437   0.454   4.820  0.1744  0.8050  0.4187
22361SOL     OW69974   0.417   1.182   9.091  0.8111 -0.2468  0.2921
22361SOL    HW169975   0.361   1.241   9.041  1.2058 -0.0818  0.0377
22361SOL    HW269976   0.368   1.100   9.096  0.3836  0.0164  0.4056
22362SOL     OW69977   1.716   7.423   8.847  0.3443 -0.1130  0.0789
22362SOL    HW169978   1.729   7.420   8.752 -1.2148  2.0169 -0.2511
22362SOL    HW269979   1.649   7.357   8.864  0.6258 -0.4984 -0.2838
22363SOL     OW69980   2.402   6.691   8.429  0.3737 -0.0431 -0.3861
22363SOL    HW169981   2.436   6.608   8.462 -1.2240 -0.1159  1.2980
22363SOL    HW269982   2.423   6.755   8.498  0.4201  0.6588 -1.0416
22364SOL     OW69983   7.169   2.665   3.764 -0.3565 -0.0640 -0.1884
22364SOL    HW169984   7.169   2.759   3.784  2.3723  0.0332 -0.2963
22364SOL    HW269985   7.226   2.656   3.688 -0.4593 -1.8352 -0.1085
22365SOL     OW69986   3.613   7.765   1.208 -0.4390 -0.3309 -0.6872
22365SOL    HW169987   3.660   7.806   1.280  0.4550 -0.8636 -0.9527
22365SOL    HW269988   3.602   7.834   1.144  4.0782 -1.0715 -2.6734
22366SOL     OW69989   2.563   3.428   8.133 -0.3851  0.1353 -0.5088
22366SOL    HW169990   2.562   3.358   8.067 -2.8810  0.9399 -1.4207
22366SOL    HW269991   2.473   3.432   8.165  0.5850  0.2732  2.4968
22367SOL     OW69992   0.304   0.952   9.235 -0.1121  0.3578 -0.2640
22367SOL    HW169993   0.264   1.018   9.292 -0.5462 -0.7664  0.8092
22367SOL    HW269994   0.240   0.880   9.234  0.1900  0.0882 -1.6649
22368SOL     OW69995   6.644   4.787   7.770  0.0000  0.2338  0.1921
22368SOL    HW169996   6.724   4.800   7.822 -0.5745 -0.3552  1.2764
22368SOL    HW269997   6.593   4.867   7.784  0.2807  0.4930 -0.2728
22369SOL     OW69998   2.361   1.207   8.923  0.6289  0.1138  0.0298
22369SOL    HW169999   2.455   1.197   8.940  0.2009 -1.2789  1.8945
22369SOL    HW270000   2.344   1.147   8.850  1.1605  0.3353 -0.2888
22370SOL     OW70001   3.163   8.811   8.835 -0.4072  0.2976  0.0346
22370SOL    HW170002   3.101   8.743   8.809 -0.6906  0.4428  0.3246
22370SOL    HW270003   3.238   8.762   8.870 -0.8582  0.1420  0.7993
22371SOL     OW70004   4.712   0.380   7.256 -0.8948  0.4171  0.2953
22371SOL    HW170005   4.723   0.393   7.350 -1.1818  0.7786  0.2765
22371SOL    HW270006   4.739   0.289   7.242  0.9868  0.9050  0.4352
22372SOL     OW70007   0.410   8.285   8.772  0.0490 -0.2465  0.0040
22372SOL    HW170008   0.477   8.343   8.735  2.1272 -1.8495  1.0374
22372SOL    HW270009   0.395   8.319   8.860  0.5474 -0.6914  0.2644
22373SOL     OW70010   3.601   2.631   0.028 -0.7650  0.2676  0.0657
22373SOL    HW170011   3.600   2.536   0.043 -2.5482  0.0062 -1.3556
22373SOL    HW270012   3.683   2.660   0.068 -0.8121 -1.6579  1.7508
22374SOL     OW70013   0.089   3.597   2.528 -0.5517 -0.7712 -0.1920
22374SOL    HW170014   0.003   3.640   2.520 -0.6016 -0.8065  0.1279
22374SOL    HW270015   0.125   3.632   2.610 -0.4096 -1.0216 -0.1474
22375SOL     OW70016   8.666   8.906   1.434 -0.2803  0.1316 -0.1070
22375SOL    HW170017   8.581   8.863   1.432 -0.5288  0.6098  0.0479
22375SOL    HW270018   8.697   8.893   1.524  0.1317 -0.6573 -0.3592
22376SOL     OW70019   4.381   4.200   4.857 -0.0112 -0.1535  0.0010
22376SOL    HW170020   4.367   4.124   4.915  0.4941 -0.9328 -0.8691
22376SOL    HW270021   4.313   4.190   4.790  1.5386 -1.2372 -1.4990
22377SOL     OW70022   7.100   2.001   2.956 -0.3508  0.0840  0.4551
22377SOL    HW170023   7.025   1.968   2.908 -1.0678 -0.1201  1.6772
22377SOL    HW270024   7.170   1.939   2.938 -0.8150 -0.3883  0.2602
22378SOL     OW70025   5.574   2.444   0.456  0.2540  0.1731 -0.4837
22378SOL    HW170026   5.600   2.358   0.423 -0.6730 -0.2207 -0.2056
22378SOL    HW270027   5.639   2.504   0.418  1.8095 -0.8130  0.4886
22379SOL     OW70028   4.310   5.515   2.550 -0.5445 -0.1261  0.0081
22379SOL    HW170029   4.403   5.504   2.527  0.2180  0.9147  2.1981
22379SOL    HW270030   4.266   5.442   2.508  1.2602 -0.6518 -1.1253
22380SOL     OW70031   2.616   0.501   8.515  0.2688  0.3481  0.5663
22380SOL    HW170032   2.679   0.439   8.551 -0.5765 -0.3928  0.8051
22380SOL    HW270033   2.531   0.456   8.522 -0.1245  0.8006 -0.9243
22381SOL     OW70034   2.636   0.522   2.803 -0.4205  0.4017  0.3317
22381SOL    HW170035   2.688   0.472   2.866  0.8439 -0.4340 -1.2962
22381SOL    HW270036   2.687   0.601   2.786  0.2684 -0.2945 -1.0688
22382SOL     OW70037   8.014   7.742   5.313  0.7116  0.5288  0.1479
22382SOL    HW170038   7.941   7.731   5.373  1.5338  0.2846  1.1351
22382SOL    HW270039   7.974   7.749   5.226 -0.4099 -1.0297  0.5046
22383SOL     OW70040   8.288   7.759   1.266  0.6714  0.2835 -0.0054
22383SOL    HW170041   8.209   7.811   1.260  0.2601 -0.1917  1.0695
22383SOL    HW270042   8.334   7.776   1.184 -1.1391 -0.3986 -1.2284
22384SOL     OW70043   3.889   2.327   4.636 -0.0421  0.5142 -0.1187
22384SOL    HW170044   3.800   2.329   4.599 -0.1974 -0.9021  0.1415
22384SOL    HW270045   3.943   2.372   4.571 -1.0977  2.3976  0.2213
22385SOL     OW70046   4.184   0.899   4.923  0.8146  0.3447  0.1385
22385SOL    HW170047   4.150   0.831   4.982 -1.2140  1.5629  0.4633
22385SOL    HW270048   4.256   0.856   4.877  1.0153 -1.3482  1.8700
22386SOL     OW70049   0.441   6.165   2.379  0.3222  0.9629 -0.0814
22386SOL    HW170050   0.386   6.203   2.311  1.4865  1.5890 -0.7156
22386SOL    HW270051   0.405   6.077   2.393 -0.1809  0.9637 -1.2293
22387SOL     OW70052   7.488   2.171   7.148  0.1619  0.8959  0.1330
22387SOL    HW170053   7.465   2.188   7.239  0.0497 -0.6515  0.4106
22387SOL    HW270054   7.557   2.106   7.152  0.3042  0.9685 -0.8892
22388SOL     OW70055   5.846   7.918   8.492  0.4275  0.4830  0.1804
22388SOL    HW170056   5.849   7.984   8.561 -0.2143  0.3215  0.3719
22388SOL    HW270057   5.857   7.967   8.411 -0.2131  0.8585  0.3075
22389SOL     OW70058   1.664   0.259   6.866  0.4302 -0.2669 -0.2636
22389SOL    HW170059   1.646   0.350   6.889  1.3748  0.0680 -0.8425
22389SOL    HW270060   1.582   0.213   6.887 -0.0198  0.6849  0.1231
22390SOL     OW70061   7.466   4.807   9.007 -0.9713 -0.1160  0.7361
22390SOL    HW170062   7.457   4.808   8.912 -1.3720  1.2399  0.7715
22390SOL    HW270063   7.413   4.732   9.035 -2.1867  0.4359  0.0036
22391SOL     OW70064   6.288   8.877   1.457  0.2632  0.1256 -0.4785
22391SOL    HW170065   6.269   8.892   1.364 -1.9197  2.4408  0.2401
22391SOL    HW270066   6.349   8.947   1.480 -0.5639  0.6356  0.2026
22392SOL     OW70067   9.055   3.367   2.002  0.3606  0.0769  0.2564
22392SOL    HW170068   9.141   3.363   1.959  0.7578 -2.0225  1.0718
22392SOL    HW270069   9.020   3.453   1.980  1.5093 -0.0387 -2.3287
22393SOL     OW70070   6.018   0.988   5.683  0.5318  0.3197  0.4750
22393SOL    HW170071   5.938   0.964   5.636  1.2194  0.7600 -0.9702
22393SOL    HW270072   6.061   0.904   5.700  0.2735  0.1512  0.3121
22394SOL     OW70073   3.702   9.059   6.942 -0.0866 -0.1815  0.0304
22394SOL    HW170074   3.638   9.042   6.872 -1.0016  0.1205  0.7771
22394SOL    HW270075   3.695   9.152   6.960 -0.7017 -0.4453  1.3022
22395SOL     OW70076   1.297   5.133   1.104 -0.1444  0.2536 -0.5672
22395SOL    HW170077   1.256   5.072   1.165 -0.0697 -0.5395 -1.2841
22395SOL    HW270078   1.325   5.207   1.158  1.2200 -1.0619  0.6154
22396SOL     OW70079   4.803   2.525   2.614 -0.1623 -0.3050 -0.1249
22396SOL    HW170080   4.814   2.541   2.708 -2.0803 -1.7584  0.4042
22396SOL    HW270081   4.764   2.606   2.580 -1.1540 -0.4220  0.7009
22397SOL     OW70082   1.744   7.456   8.585  0.7914  0.3819 -0.3056
22397SOL    HW170083   1.735   7.551   8.599  3.1208  1.0129 -2.3466
22397SOL    HW270084   1.715   7.444   8.494  1.8417 -0.6225 -0.5119
22398SOL     OW70085   1.886   6.775   5.222  0.2008 -0.0569  0.6514
22398SOL    HW170086   1.925   6.753   5.307  2.1868 -0.8846 -0.4112
22398SOL    HW270087   1.918   6.863   5.203  2.9417 -1.2555 -0.8639
22399SOL     OW70088   4.184   0.032   2.157  0.4334 -0.4502 -0.4265
22399SOL    HW170089   4.115  -0.016   2.204 -0.8118 -1.3683 -3.0049
22399SOL    HW270090   4.207  -0.025   2.084  2.0982  1.0094 -1.1060
22400SOL     OW70091   7.527   2.299   6.415  0.9246 -0.2824 -0.1631
22400SOL    HW170092   7.601   2.358   6.400  1.8741 -1.6717 -1.2233
22400SOL    HW270093   7.518   2.296   6.510  2.9522 -0.8757  0.0676
22401SOL     OW70094   4.241   0.647   6.065  0.3369  0.5712  0.2392
22401SOL    HW170095   4.249   0.640   6.160  1.5907 -0.9190  0.0669
22401SOL    HW270096   4.150   0.627   6.046 -0.7771  3.9327  1.3050
22402SOL     OW70097   8.882   0.320   6.785 -0.1002 -0.3951 -0.1028
22402SOL    HW170098   8.902   0.364   6.702 -0.1106 -0.7216 -0.2837
22402SOL    HW270099   8.963   0.277   6.810 -0.1599 -0.4885 -0.0650
22403SOL     OW70100   5.877   2.914   6.902  0.0420  0.6227  0.5578
22403SOL    HW170101   5.914   2.992   6.860  1.0825 -0.3072 -0.3062
22403SOL    HW270102   5.952   2.855   6.913 -0.9411 -0.7695  0.0029
22404SOL     OW70103   1.418   5.415   0.544 -0.1686  0.1868 -0.9523
22404SOL    HW170104   1.440   5.389   0.634 -0.5845 -1.3359 -1.2669
22404SOL    HW270105   1.423   5.511   0.546 -1.2698  0.2694  0.9857
22405SOL     OW70106   0.422   3.877   3.990  0.6823  0.5029  0.3970
22405SOL    HW170107   0.357   3.891   3.922  0.9495  0.6001  0.1561
22405SOL    HW270108   0.391   3.801   4.039  1.3059 -0.5887 -0.8403
22406SOL     OW70109   5.309   1.003   0.500  0.2982 -0.3431 -0.3256
22406SOL    HW170110   5.369   0.933   0.522 -0.0762 -0.6688 -0.3337
22406SOL    HW270111   5.227   0.959   0.479  0.0759  0.0907 -0.3842
22407SOL     OW70112   1.421   8.303   0.848  0.2623  0.1096  0.2749
22407SOL    HW170113   1.372   8.379   0.881 -0.4129 -0.3642  0.3783
22407SOL    HW270114   1.362   8.229   0.860  1.1456 -0.5428  0.7344
22408SOL     OW70115   4.401   4.474   1.532 -0.5645 -0.4150 -0.2045
22408SOL    HW170116   4.403   4.468   1.437 -3.3304  0.1952 -0.4007
22408SOL    HW270117   4.397   4.568   1.550  0.6240 -0.4944  0.5806
22409SOL     OW70118   5.632   5.166   5.651  0.1009  0.5369  0.0604
22409SOL    HW170119   5.560   5.201   5.599  0.7264  0.3559 -0.9466
22409SOL    HW270120   5.711   5.188   5.602  0.6396 -0.6040  0.3682
22410SOL     OW70121   4.749   4.696   8.490  0.2543 -0.4277  0.3850
22410SOL    HW170122   4.691   4.738   8.553  0.0485 -0.0378 -0.0570
22410SOL    HW270123   4.824   4.754   8.484  0.1897 -0.3677  0.1358
22411SOL     OW70124   6.742   1.773   6.469 -0.0674  0.3543 -0.1651
22411SOL    HW170125   6.675   1.721   6.425  1.1685 -0.4681 -1.1800
22411SOL    HW270126   6.777   1.715   6.537  1.5311 -0.3389 -1.5023
22412SOL     OW70127   3.736   2.495   1.172  0.3188  0.1674 -0.0014
22412SOL    HW170128   3.680   2.478   1.097  0.2252 -0.2225  0.1575
22412SOL    HW270129   3.736   2.591   1.180 -0.3831  0.1728  0.0384
22413SOL     OW70130   4.907   3.919   2.821 -0.3145  0.3396  0.0506
22413SOL    HW170131   4.815   3.946   2.814 -0.1692  0.8659  0.1629
22413SOL    HW270132   4.911   3.838   2.770 -0.7765  0.4771 -0.2158
22414SOL     OW70133   0.971   2.970   7.829  0.0980  0.4793  0.3294
22414SOL    HW170134   1.034   2.911   7.871  0.4303  0.1716 -0.5714
22414SOL    HW270135   1.008   2.987   7.743 -0.1684  1.7438  0.4435
22415SOL     OW70136   7.223   2.159   4.016 -0.4996 -0.1368 -0.8194
22415SOL    HW170137   7.260   2.071   4.020  1.4750  0.6190 -1.3681
22415SOL    HW270138   7.282   2.208   3.959 -0.5096  2.0208  0.8775
22416SOL     OW70139   6.257   0.807   5.064 -0.3490  0.0814  0.0340
22416SOL    HW170140   6.351   0.792   5.055 -0.3282  0.4087 -0.3003
22416SOL    HW270141   6.234   0.866   4.992 -0.8876 -0.3353 -0.1488
22417SOL     OW70142   8.848   4.197   4.128 -0.1791  0.4616  0.4604
22417SOL    HW170143   8.876   4.189   4.219 -0.3086 -0.2962  0.4413
22417SOL    HW270144   8.790   4.273   4.127  0.5618  1.0474  0.8197
22418SOL     OW70145   7.745   0.480   8.694 -0.5457 -0.1468  0.0339
22418SOL    HW170146   7.696   0.524   8.764 -2.2426 -1.2762 -0.3791
22418SOL    HW270147   7.777   0.552   8.639 -1.3534  0.6655  0.5899
22419SOL     OW70148   5.286   2.504   5.051 -0.3063 -0.3354  0.2610
22419SOL    HW170149   5.256   2.595   5.055  0.4834 -0.1137  1.5634
22419SOL    HW270150   5.262   2.475   4.963 -2.0360  0.6073  0.3728
22420SOL     OW70151   2.628   5.762   9.152 -0.7590  0.4821 -0.2801
22420SOL    HW170152   2.722   5.750   9.168 -1.0973  0.2038  1.6243
22420SOL    HW270153   2.614   5.721   9.066  0.9685  1.1587 -0.9359
22421SOL     OW70154   7.013   2.768   5.265  0.3462  0.2610  0.2402
22421SOL    HW170155   7.064   2.843   5.296  1.2849 -0.1025 -0.3934
22421SOL    HW270156   6.922   2.792   5.282  0.6573  1.4015  0.3425
22422SOL     OW70157   7.362   6.100   0.632  0.3327  0.4426 -0.3027
22422SOL    HW170158   7.436   6.126   0.686 -0.6661  0.5263  1.0745
22422SOL    HW270159   7.333   6.017   0.670 -0.4395  0.5362 -0.6750
22423SOL     OW70160   4.717   4.160   2.517  0.0864 -0.1339 -0.1322
22423SOL    HW170161   4.621   4.156   2.520 -0.0049  1.4484  0.1351
22423SOL    HW270162   4.742   4.193   2.603  0.9138 -0.9327 -0.0526
22424SOL     OW70163   4.518   4.404   8.698 -0.8143 -0.3417  0.7356
22424SOL    HW170164   4.481   4.419   8.611 -1.5142  0.4725  1.1652
22424SOL    HW270165   4.565   4.321   8.690 -0.3354  0.0348 -0.5941
22425SOL     OW70166   2.723   7.790   7.005  0.2640 -0.5886 -0.5271
22425SOL    HW170167   2.755   7.754   6.922 -1.6831 -1.3884 -0.9705
22425SOL    HW270168   2.760   7.731   7.071 -0.1573 -1.4288 -1.0154
22426SOL     OW70169   5.580   1.469   4.517  0.3345  0.3752  0.0524
22426SOL    HW170170   5.506   1.439   4.465 -1.3244 -0.1279  2.5230
22426SOL    HW270171   5.541   1.517   4.590  2.3291 -0.7327  2.0029
22427SOL     OW70172   2.130   3.385   5.456 -0.2528 -0.1175  1.0346
22427SOL    HW170173   2.222   3.387   5.428 -0.8788  1.5759 -1.2144
22427SOL    HW270174   2.129   3.433   5.539  0.6045  2.2262 -0.2060
22428SOL     OW70175   5.455   4.867   1.899  0.0099  0.2015 -0.5476
22428SOL    HW170176   5.485   4.957   1.916  1.2782  0.4237 -3.3981
22428SOL    HW270177   5.535   4.819   1.878 -0.9480 -0.8351 -1.9852
22429SOL     OW70178   6.555   5.059   3.902 -0.5078  0.0554  1.5702
22429SOL    HW170179   6.510   4.989   3.854  2.4622 -0.4466 -0.7193
22429SOL    HW270180   6.598   5.014   3.975 -0.4906 -0.1031  1.4617
22430SOL     OW70181   7.488   4.408   4.764  0.8196  0.8629 -0.4800
22430SOL    HW170182   7.490   4.371   4.852  1.3988  0.4122 -0.6855
22430SOL    HW270183   7.394   4.414   4.743  0.6903  0.6478  0.0219
22431SOL     OW70184   3.897   0.073   7.132  0.2583  0.4446 -0.2614
22431SOL    HW170185   3.820   0.080   7.075 -0.7787  0.2930  1.0913
22431SOL    HW270186   3.923   0.163   7.149 -0.1802  0.5238  0.0096
22432SOL     OW70187   2.509   1.600   5.310  0.8268 -0.1810 -0.2407
22432SOL    HW170188   2.428   1.645   5.333  0.2252 -0.6346 -1.4002
22432SOL    HW270189   2.579   1.656   5.344  0.0733  1.2363 -0.9629
22433SOL     OW70190   1.129   1.226   4.051  0.3917  0.3955  0.3111
22433SOL    HW170191   1.158   1.135   4.064  0.4316  0.3259 -0.2413
22433SOL    HW270192   1.168   1.274   4.125 -0.0411 -0.1197  0.8916
22434SOL     OW70193   8.174   3.144   2.152  0.6107 -0.2021  0.2774
22434SOL    HW170194   8.079   3.135   2.155  0.5778 -1.3233 -2.1734
22434SOL    HW270195   8.188   3.235   2.125  0.2341 -0.2141  0.0382
22435SOL     OW70196   1.072   2.025   0.430  0.2864  0.8095 -0.0713
22435SOL    HW170197   1.060   2.120   0.421 -0.3618  0.6797 -0.6703
22435SOL    HW270198   1.085   2.011   0.524 -2.7382  1.1771  0.4984
22436SOL     OW70199   6.007   6.392   0.578  0.0074  0.1283  0.0594
22436SOL    HW170200   6.042   6.452   0.645 -1.7218  3.9176 -2.1071
22436SOL    HW270201   6.058   6.411   0.500 -1.1477 -0.6249 -0.9181
22437SOL     OW70202   6.429   0.652   3.581  0.8268 -0.0191  0.2886
22437SOL    HW170203   6.362   0.710   3.546 -0.0208 -1.0599  0.1005
22437SOL    HW270204   6.504   0.663   3.523  0.3187  0.1343 -0.3492
22438SOL     OW70205   8.080   3.705   6.574 -0.6054 -0.9178  0.1175
22438SOL    HW170206   8.166   3.693   6.533 -1.3547  0.6958 -2.1690
22438SOL    HW270207   8.074   3.800   6.589 -1.3620 -1.2073  1.7601
22439SOL     OW70208   5.625   5.913   5.375 -0.5322 -0.2397 -0.4056
22439SOL    HW170209   5.702   5.966   5.393 -0.6283 -0.7722  1.9515
22439SOL    HW270210   5.569   5.968   5.321  0.2097  1.3280  0.3724
22440SOL     OW70211   3.827   4.048   8.090  0.7490  0.6167  0.3954
22440SOL    HW170212   3.787   4.045   8.003  0.8604 -0.2195  0.3639
22440SOL    HW270213   3.818   3.959   8.123  1.6753  0.6656  0.8041
22441SOL     OW70214   0.989   7.602   8.144 -0.1064  0.3064 -0.0880
22441SOL    HW170215   1.015   7.622   8.234 -0.8399  0.7669  0.0269
22441SOL    HW270216   0.908   7.651   8.131 -0.6491 -0.6941 -0.6084
22442SOL     OW70217   1.565   4.116   4.723  0.5016  0.1299 -0.3988
22442SOL    HW170218   1.658   4.096   4.726  0.5873  0.2113 -1.7517
22442SOL    HW270219   1.545   4.124   4.629 -0.6655  1.0128 -0.1010
22443SOL     OW70220   9.059   8.570   2.365 -0.2607  0.3466  0.2405
22443SOL    HW170221   9.018   8.615   2.439 -1.1129  1.3969 -0.8261
22443SOL    HW270222   9.058   8.635   2.294  0.0626 -0.7923 -0.8424
22444SOL     OW70223   0.731   2.941   5.549  0.3038  0.4195 -0.3568
22444SOL    HW170224   0.665   2.911   5.487  0.8982 -0.2872 -0.6709
22444SOL    HW270225   0.739   2.869   5.612  0.4863  0.6726 -0.0871
22445SOL     OW70226   5.512   2.693   6.116  0.2019  0.4516  0.1357
22445SOL    HW170227   5.514   2.598   6.123 -0.0660  0.3170 -1.3131
22445SOL    HW270228   5.464   2.722   6.194 -0.7063 -0.6760  0.0192
22446SOL     OW70229   9.026   1.060   4.579  0.1215 -0.3784  0.0493
22446SOL    HW170230   9.079   1.072   4.501 -0.3352  0.5324 -0.1378
22446SOL    HW270231   9.018   0.965   4.589  1.3059 -0.5273 -0.2278
22447SOL     OW70232   3.547   3.321   5.327  0.3844  0.6917 -0.2133
22447SOL    HW170233   3.471   3.276   5.289  0.8637 -0.0155 -0.3594
22447SOL    HW270234   3.532   3.319   5.421  0.5997 -0.1556 -0.1911
22448SOL     OW70235   1.865   5.003   3.188 -0.2170 -0.1269 -0.3303
22448SOL    HW170236   1.942   4.954   3.160  0.5052  1.0601 -0.4927
22448SOL    HW270237   1.791   4.956   3.150  0.5970  0.3367 -2.6338
22449SOL     OW70238   0.987   1.188   9.103  0.2029 -0.0475 -0.2911
22449SOL    HW170239   0.902   1.164   9.067  0.1529 -0.7473  0.2700
22449SOL    HW270240   1.050   1.146   9.044  0.1519 -0.0587 -0.3382
22450SOL     OW70241   7.279   2.572   0.596 -0.4102  0.3970 -0.2139
22450SOL    HW170242   7.238   2.600   0.678  0.4328 -0.6278  0.5935
22450SOL    HW270243   7.211   2.584   0.530 -1.7056 -0.3657  0.9156
22451SOL     OW70244   2.393   4.874   5.865 -0.2722  0.5791 -0.8868
22451SOL    HW170245   2.434   4.925   5.935 -1.5016 -0.8613  0.9704
22451SOL    HW270246   2.367   4.940   5.800  0.3526  2.0366  0.2847
22452SOL     OW70247   6.280   5.456   5.061  0.2459 -0.2644  0.0445
22452SOL    HW170248   6.319   5.501   5.136  1.6431  0.0262 -0.8245
22452SOL    HW270249   6.340   5.474   4.989  1.1251 -3.7997 -0.2932
22453SOL     OW70250   1.884   3.316   2.427  0.0338  0.0764 -0.2333
22453SOL    HW170251   1.913   3.403   2.401  2.0554 -0.1032  1.1426
22453SOL    HW270252   1.822   3.330   2.498  1.2236  0.4414  0.7808
22454SOL     OW70253   9.148   1.198   3.218 -0.6240 -0.0528 -0.0973
22454SOL    HW170254   9.171   1.180   3.127  0.9034  1.0296  0.0341
22454SOL    HW270255   9.138   1.293   3.222 -3.3796 -0.2734  0.3135
22455SOL     OW70256   8.633   1.505   8.889 -0.3872 -0.6024  0.3922
22455SOL    HW170257   8.708   1.447   8.874 -1.0635 -2.2373  2.9120
22455SOL    HW270258   8.620   1.549   8.804  2.6308 -1.1403 -0.4588
22456SOL     OW70259   0.776   9.028   9.008 -0.1953 -0.4016  0.0247
22456SOL    HW170260   0.851   8.995   8.958 -0.8271 -1.6674 -0.1212
22456SOL    HW270261   0.813   9.097   9.063  1.0463 -0.8875 -0.1668
22457SOL     OW70262   2.250   5.809   7.013 -0.0588 -0.6005  0.4556
22457SOL    HW170263   2.197   5.814   6.933 -0.5210  0.0931  0.7973
22457SOL    HW270264   2.335   5.776   6.983 -0.8651 -2.3340 -0.0050
22458SOL     OW70265   4.004   8.467   1.029 -0.0613 -0.2720 -0.5551
22458SOL    HW170266   4.035   8.538   0.973  0.5485  0.7711  1.0140
22458SOL    HW270267   4.077   8.453   1.091 -1.6753  0.5592  1.6874
22459SOL     OW70268   1.289   2.614   1.487  0.6807  0.0808 -0.3037
22459SOL    HW170269   1.259   2.526   1.511  0.0028  0.1021 -1.0181
22459SOL    HW270270   1.261   2.670   1.559 -0.4848 -0.0030 -0.6802
22460SOL     OW70271   1.962   8.813   0.996  0.3522  0.3584 -0.3613
22460SOL    HW170272   2.049   8.805   0.957  0.4877 -1.3154  0.1953
22460SOL    HW270273   1.964   8.755   1.072 -0.8632  1.2382  0.3894
22461SOL     OW70274   1.505   2.364   0.089  0.2517  0.0195  0.4470
22461SOL    HW170275   1.497   2.457   0.112  0.7277  0.3781 -0.7402
22461SOL    HW270276   1.468   2.358   0.001  0.5327 -0.8564  0.3801
22462SOL     OW70277   1.745   7.307   6.827  0.1198  0.4346 -0.0550
22462SOL    HW170278   1.791   7.302   6.743 -0.1893 -0.3178 -0.1878
22462SOL    HW270279   1.732   7.401   6.842  2.4217  0.7448  0.3947
22463SOL     OW70280   3.310   5.332   6.467  0.2301 -0.2355 -0.4165
22463SOL    HW170281   3.319   5.427   6.474  0.7083 -0.2823 -0.3972
22463SOL    HW270282   3.287   5.304   6.556  1.8441 -0.3229  0.0111
22464SOL     OW70283   5.649   4.772   0.210 -0.0645 -0.2624  0.8011
22464SOL    HW170284   5.648   4.707   0.280 -0.7702 -1.7993 -0.5787
22464SOL    HW270285   5.729   4.753   0.161 -0.2549 -0.0703  0.4087
22465SOL     OW70286   6.804   3.987   2.041  0.5332 -0.1898  0.1676
22465SOL    HW170287   6.793   4.076   2.009 -0.4785 -0.6360 -0.7942
22465SOL    HW270288   6.730   3.974   2.100  0.0413 -0.7465 -0.5562
22466SOL     OW70289   8.680   1.215   1.217  0.2783  0.8917 -0.3211
22466SOL    HW170290   8.663   1.152   1.147 -0.8288  0.3227  0.4165
22466SOL    HW270291   8.690   1.160   1.296 -1.3506  1.6277  0.4541
22467SOL     OW70292   0.563   5.588   3.855  0.2026  0.1611 -0.6102
22467SOL    HW170293   0.657   5.589   3.841  0.2922  1.0239  0.0208
22467SOL    HW270294   0.548   5.651   3.925 -0.8714  0.2021 -0.8621
22468SOL     OW70295   5.074   4.790   2.423 -0.2500 -0.0821  0.1094
22468SOL    HW170296   5.161   4.808   2.458  0.3705  0.4758 -1.5884
22468SOL    HW270297   5.069   4.695   2.419 -0.0773 -0.1384  1.0286
22469SOL     OW70298   3.940   1.622   7.859 -0.7447 -0.0591 -0.5343
22469SOL    HW170299   3.911   1.670   7.937 -0.8674 -3.0103  1.3987
22469SOL    HW270300   3.859   1.605   7.811 -0.9209  0.1510 -0.3181
22470SOL     OW70301   7.258   3.669   4.312  0.0361 -0.3755  0.1067
22470SOL    HW170302   7.171   3.628   4.316 -0.6176  1.0008  0.6350
22470SOL    HW270303   7.261   3.710   4.225 -0.0268 -0.0407  0.2614
22471SOL     OW70304   6.566   0.869   6.222  0.5096  0.2101 -0.2259
22471SOL    HW170305   6.549   0.814   6.145 -3.0487  1.0952 -0.2326
22471SOL    HW270306   6.538   0.817   6.296  0.5641  0.6895  0.1368
22472SOL     OW70307   6.767   0.704   6.835  0.0485  0.0534 -0.6897
22472SOL    HW170308   6.703   0.642   6.800  0.7817  0.4197 -2.7752
22472SOL    HW270309   6.842   0.697   6.776  1.3133  0.7987  0.7727
22473SOL     OW70310   5.218   1.898   1.740 -0.1232  0.4323  0.3616
22473SOL    HW170311   5.290   1.864   1.792  0.0215  1.7343  1.0428
22473SOL    HW270312   5.207   1.989   1.769  0.2296  1.3598 -2.1123
22474SOL     OW70313   8.882   2.698   5.270 -0.0764  0.0540 -0.2083
22474SOL    HW170314   8.902   2.667   5.358  0.8649 -0.3668 -0.5548
22474SOL    HW270315   8.928   2.782   5.263  1.3568 -0.7579 -0.8950
22475SOL     OW70316   5.802   1.085   4.750 -0.1787  0.4897 -0.2523
22475SOL    HW170317   5.725   1.143   4.755 -0.5036  0.0441 -0.0364
22475SOL    HW270318   5.871   1.134   4.794 -0.5552  0.5502  0.2814
22476SOL     OW70319   6.702   7.287   2.701  0.3618 -0.0882 -0.3729
22476SOL    HW170320   6.633   7.324   2.756  0.3160 -0.1751 -0.3714
22476SOL    HW270321   6.775   7.349   2.709  1.2752 -1.3329  1.7799
22477SOL     OW70322   7.673   4.080   0.800  0.1370  0.0121  0.1855
22477SOL    HW170323   7.676   4.044   0.888 -0.7212 -2.1703 -0.6091
22477SOL    HW270324   7.628   4.164   0.810  1.5518  0.6064  2.0199
22478SOL     OW70325   8.265   2.445   8.304 -0.4117 -0.3015  0.6820
22478SOL    HW170326   8.265   2.373   8.367 -1.4448 -0.0214  1.0163
22478SOL    HW270327   8.190   2.499   8.329 -0.8154 -0.1592 -0.7634
22479SOL     OW70328   3.825   3.903   6.397  0.3976 -0.2443 -0.3093
22479SOL    HW170329   3.743   3.927   6.353 -0.1272  0.2260  0.8764
22479SOL    HW270330   3.849   3.819   6.359 -0.5593 -0.3134 -0.7922
22480SOL     OW70331   3.464   7.309   8.990 -0.2136  0.0361 -0.5515
22480SOL    HW170332   3.455   7.273   8.901  0.5841 -2.9360  0.4629
22480SOL    HW270333   3.505   7.240   9.040  0.6712  2.1544  1.8754
22481SOL     OW70334   4.663   3.669   9.113  0.2227 -0.1821  0.1982
22481SOL    HW170335   4.662   3.733   9.042  0.3301 -0.2365  0.1472
22481SOL    HW270336   4.593   3.697   9.172 -0.6111 -0.7945 -0.4972
22482SOL     OW70337   3.637   7.831   8.260 -0.2450  0.1710  0.4243
22482SOL    HW170338   3.672   7.759   8.208 -0.7435 -0.0388  0.3678
22482SOL    HW270339   3.689   7.831   8.341  0.8733  0.8240 -0.2691
22483SOL     OW70340   7.853   4.053   5.791  0.1492  0.2803 -0.4541
22483SOL    HW170341   7.883   4.124   5.848 -1.1716  0.5387 -0.0582
22483SOL    HW270342   7.904   4.064   5.711  0.6428  1.0906 -0.0459
22484SOL     OW70343   6.978   5.774   0.688  0.2779  0.3275  0.1632
22484SOL    HW170344   6.976   5.782   0.783 -0.2504 -0.4099  0.2231
22484SOL    HW270345   6.945   5.858   0.656 -0.5285  0.2092  0.6541
22485SOL     OW70346   0.266   1.294   3.782  0.4951  0.2422  0.0961
22485SOL    HW170347   0.194   1.249   3.828  0.0253 -0.0057 -0.8479
22485SOL    HW270348   0.239   1.386   3.780  0.4643  0.2358  0.2276
22486SOL     OW70349   1.169   1.939   6.987  0.2227  0.1316  0.0812
22486SOL    HW170350   1.263   1.927   6.996  0.7503  3.2582 -0.1799
22486SOL    HW270351   1.155   1.941   6.892 -0.3303 -1.4465  0.1053
22487SOL     OW70352   4.902   5.254   5.743 -0.4604 -0.2950  0.3166
22487SOL    HW170353   4.808   5.271   5.737 -0.4184 -0.4369 -0.8084
22487SOL    HW270354   4.909   5.170   5.788 -0.8556 -0.1245  0.7003
22488SOL     OW70355   3.727   8.060   0.897 -0.7331  0.5650 -0.5292
22488SOL    HW170356   3.796   8.071   0.831  0.7264  0.7903  0.9504
22488SOL    HW270357   3.723   7.965   0.911 -1.1581  0.5034 -1.0368
22489SOL     OW70358   0.567   1.988   4.294 -0.8601 -0.3566  0.1412
22489SOL    HW170359   0.487   1.961   4.337 -0.7151 -2.1929 -0.6383
22489SOL    HW270360   0.625   1.912   4.301  0.4191  0.5490 -0.2445
22490SOL     OW70361   9.070   4.464   3.552 -0.0248  0.2749  0.2220
22490SOL    HW170362   9.081   4.502   3.465  0.5025  0.9088  0.5533
22490SOL    HW270363   8.976   4.472   3.570 -0.2882 -0.6919 -0.6495
22491SOL     OW70364   1.385   4.233   1.176 -0.0602 -0.3503 -1.0479
22491SOL    HW170365   1.368   4.181   1.255  1.8935 -1.2786 -1.1776
22491SOL    HW270366   1.301   4.274   1.156 -1.3096 -2.2726 -0.0738
22492SOL     OW70367   5.907   1.592   8.720 -0.2360 -0.7688 -0.7296
22492SOL    HW170368   5.933   1.661   8.660 -0.1682 -0.7968 -0.7338
22492SOL    HW270369   5.827   1.555   8.682 -1.4059  0.6075  0.2958
22493SOL     OW70370   5.841   5.668   3.122 -0.1878  0.2665 -0.4791
22493SOL    HW170371   5.892   5.745   3.098  0.3625 -0.7966 -2.9824
22493SOL    HW270372   5.902   5.595   3.114 -0.1187 -0.4192  3.7242
22494SOL     OW70373   4.988   4.188   7.923 -0.0766 -0.3254  0.4712
22494SOL    HW170374   4.900   4.163   7.895 -0.3569 -0.6517  1.5712
22494SOL    HW270375   5.020   4.247   7.855 -0.8648 -0.7674 -0.2963
22495SOL     OW70376   1.662   4.390   0.612 -0.4636 -0.1311  0.1233
22495SOL    HW170377   1.685   4.355   0.526  3.2719  0.4906  0.6704
22495SOL    HW270378   1.670   4.485   0.602 -1.5038  0.0413  0.8098
22496SOL     OW70379   7.969   1.536   3.965  0.1710  0.0082  0.0958
22496SOL    HW170380   7.969   1.453   3.916  1.3399 -0.2043  0.4168
22496SOL    HW270381   8.057   1.571   3.952  0.4950 -0.0123  1.9675
22497SOL     OW70382   4.907   0.466   4.204 -0.2012  0.1681 -0.3865
22497SOL    HW170383   4.925   0.514   4.123  1.5469  0.0176 -0.1429
22497SOL    HW270384   4.994   0.453   4.242 -1.0452  0.9705  1.9447
22498SOL     OW70385   7.344   7.984   3.853 -0.5424 -0.0259 -0.7573
22498SOL    HW170386   7.294   7.911   3.815 -0.8381 -0.1972 -0.0461
22498SOL    HW270387   7.432   7.947   3.865 -0.4452  0.0271 -1.2506
22499SOL     OW70388   2.992   6.968   0.676 -0.3552 -0.4985 -0.5775
22499SOL    HW170389   2.944   6.906   0.731 -1.3313  2.2755  1.9146
22499SOL    HW270390   2.925   7.006   0.619 -0.6291  1.1494  0.7710
22500SOL     OW70391   1.409   6.944   7.453 -0.6151 -0.9377 -0.1132
22500SOL    HW170392   1.386   6.851   7.446 -2.9739 -0.3625 -0.8273
22500SOL    HW270393   1.339   6.990   7.407 -0.5143  1.3259  1.8004
22501SOL     OW70394   6.104   4.434   1.142 -0.0361 -0.0385 -0.0066
22501SOL    HW170395   6.168   4.381   1.190  1.1408  3.0717  2.1695
22501SOL    HW270396   6.144   4.448   1.056  0.7714 -0.5897  0.2653
22502SOL     OW70397   9.191   3.028   5.535 -0.2189 -0.4330 -0.2945
22502SOL    HW170398   9.280   2.993   5.530 -0.4242 -0.8156 -1.5707
22502SOL    HW270399   9.196   3.096   5.602  1.3282  0.3944 -1.1968
22503SOL     OW70400   6.835   0.861   7.039  0.1264  0.1262 -0.0603
22503SOL    HW170401   6.817   0.815   6.957 -0.0274  0.3886 -0.1734
22503SOL    HW270402   6.754   0.908   7.058 -0.3151 -1.0054  0.9520
22504SOL     OW70403   6.214   0.681   8.581 -0.1551 -0.3222 -0.0029
22504SOL    HW170404   6.240   0.685   8.673 -0.9021  0.6475  0.1878
22504SOL    HW270405   6.294   0.697   8.532  0.0900  0.0075  0.5038
22505SOL     OW70406   5.418   8.135   1.854  0.4113 -0.1036 -0.6862
22505SOL    HW170407   5.436   8.095   1.769  1.1217 -1.4372  0.0558
22505SOL    HW270408   5.422   8.063   1.917 -0.2584  0.8142  0.4754
22506SOL     OW70409   7.579   1.692   4.770 -0.4301 -0.7053  0.1388
22506SOL    HW170410   7.601   1.783   4.793  1.0930 -1.1904  0.6791
22506SOL    HW270411   7.540   1.698   4.683  2.9526  0.1405 -1.4714
22507SOL     OW70412   6.590   1.606   7.557  0.0472  0.2000 -0.0769
22507SOL    HW170413   6.599   1.627   7.464 -1.2311  1.2019 -0.0062
22507SOL    HW270414   6.565   1.514   7.558 -1.8706  0.6513 -0.8780
22508SOL     OW70415   5.587   7.275   6.507  0.8284  0.3672  0.0613
22508SOL    HW170416   5.611   7.203   6.565  1.6763  0.2499 -0.4119
22508SOL    HW270417   5.640   7.260   6.428  1.1009  1.5795  0.0060
22509SOL     OW70418   9.209   0.784   4.347 -0.0827 -0.0190 -0.6430
22509SOL    HW170419   9.301   0.807   4.359 -0.3623  1.8607 -1.6441
22509SOL    HW270420   9.186   0.823   4.263 -1.6724 -0.8842 -0.6376
22510SOL     OW70421   5.134   3.851   4.629 -0.0280 -0.1052  0.5178
22510SOL    HW170422   5.155   3.767   4.590  1.6319  0.3446  0.3601
22510SOL    HW270423   5.095   3.829   4.714 -2.3909 -1.0500 -0.7050
22511SOL     OW70424   2.479   3.602   4.571  0.1676  0.3592  0.2626
22511SOL    HW170425   2.500   3.589   4.479  1.9591  0.0318  0.6869
22511SOL    HW270426   2.460   3.515   4.604  0.8964  0.2834  0.5022
22512SOL     OW70427   1.597   3.517   3.523  0.2311 -0.5074  0.5917
22512SOL    HW170428   1.667   3.494   3.462 -0.1151  0.8512 -0.3576
22512SOL    HW270429   1.640   3.569   3.591  0.5787 -1.8499  1.4459
22513SOL     OW70430   0.623   5.488   4.240  0.7010 -0.7784 -0.2301
22513SOL    HW170431   0.625   5.435   4.161  1.2209 -1.1570  0.0336
22513SOL    HW270432   0.611   5.578   4.208  2.3993 -0.7343 -0.8375
22514SOL     OW70433   1.998   4.955   6.717 -0.7276  0.4991  0.7348
22514SOL    HW170434   2.064   5.024   6.705 -1.0795  1.3621  3.1746
22514SOL    HW270435   2.048   4.880   6.748 -0.6709  0.5820  0.8468
22515SOL     OW70436   4.612   7.622   7.261 -0.1252  0.1944  0.7218
22515SOL    HW170437   4.525   7.656   7.283  0.4358  1.5180  0.9774
22515SOL    HW270438   4.671   7.666   7.322  0.8027 -0.2087  0.1313
22516SOL     OW70439   3.284   4.424   1.187 -0.8909 -0.6446  0.3428
22516SOL    HW170440   3.372   4.416   1.223 -1.5941 -1.2915  2.0122
22516SOL    HW270441   3.243   4.495   1.237 -1.5455 -0.8295  0.0889
22517SOL     OW70442   0.314   8.757   7.931 -0.2392 -0.1703  0.0526
22517SOL    HW170443   0.346   8.669   7.910 -2.6601 -1.8914  2.7981
22517SOL    HW270444   0.296   8.796   7.845 -0.8157 -3.0742 -1.3048
22518SOL     OW70445   2.522   9.116   8.250  0.6442  0.8435  0.0318
22518SOL    HW170446   2.453   9.085   8.191  0.9198  2.0360 -0.9509
22518SOL    HW270447   2.601   9.117   8.196  1.3461 -0.0509  1.0204
22519SOL     OW70448   6.889   5.035   2.025  0.0974  0.0013  0.0824
22519SOL    HW170449   6.940   5.103   1.982 -0.3323  0.2140 -0.1055
22519SOL    HW270450   6.897   4.959   1.967  0.3693 -0.0269  0.1593
22520SOL     OW70451   7.365   6.507   9.250  0.0977 -0.1342  0.2830
22520SOL    HW170452   7.338   6.486   9.339  0.9579 -0.4880  0.4667
22520SOL    HW270453   7.407   6.427   9.218  2.5330  0.9235  0.6420
22521SOL     OW70454   8.762   3.112   4.146  0.2860  0.4831 -0.2976
22521SOL    HW170455   8.840   3.059   4.165 -0.0918 -0.0623 -0.2553
22521SOL    HW270456   8.712   3.060   4.084  0.3302  1.1880 -0.9410
22522SOL     OW70457   9.259   5.729   1.221  0.3696  0.0721 -0.3936
22522SOL    HW170458   9.310   5.718   1.301  1.3090 -0.0861 -0.9969
22522SOL    HW270459   9.169   5.740   1.251  0.7281  0.1620  0.6876
22523SOL     OW70460   6.535   0.033   3.620 -0.1331 -0.3341 -0.3636
22523SOL    HW170461   6.448   0.063   3.593  0.1059 -0.0253 -0.8044
22523SOL    HW270462   6.535   0.043   3.715 -0.6773 -0.6030 -0.3263
22524SOL     OW70463   4.562   3.904   6.954  0.2030  0.0652  0.0145
22524SOL    HW170464   4.562   3.954   7.035  1.8924  1.8873 -1.0024
22524SOL    HW270465   4.558   3.970   6.885  2.8290 -1.0816 -1.4134
22525SOL     OW70466   7.505   8.648   2.716 -0.3356 -0.0820 -0.0836
22525SOL    HW170467   7.601   8.642   2.713 -0.4033 -1.0917 -1.3369
22525SOL    HW270468   7.487   8.741   2.732  0.8443 -0.0381  1.1379
22526SOL     OW70469   1.404   1.521   2.170  0.1400 -0.0970 -0.0938
22526SOL    HW170470   1.344   1.525   2.095  0.5449  0.1997 -0.4128
22526SOL    HW270471   1.361   1.463   2.233 -1.1981  1.2922  0.3328
22527SOL     OW70472   5.265   1.038   0.033 -0.2549  0.4365 -0.2214
22527SOL    HW170473   5.192   1.046   0.094 -0.5294 -0.0038 -0.4885
22527SOL    HW270474   5.316   0.964   0.067  0.7319  1.4800  0.6468
22528SOL     OW70475   1.595   6.306   4.548 -0.2806 -0.0151 -0.4750
22528SOL    HW170476   1.659   6.371   4.578 -1.1330  0.0007  1.4829
22528SOL    HW270477   1.627   6.224   4.584 -0.9370 -0.1392 -0.1785
22529SOL     OW70478   2.789   9.256   6.436  0.3015  0.1204 -0.2136
22529SOL    HW170479   2.779   9.190   6.367 -0.7168  0.9548 -0.9029
22529SOL    HW270480   2.833   9.330   6.393  2.7350 -0.5802  0.9000
22530SOL     OW70481   2.717   3.837   3.550 -0.4467  0.3070  0.0427
22530SOL    HW170482   2.726   3.746   3.578 -1.3401 -0.2031 -1.2272
22530SOL    HW270483   2.734   3.888   3.629 -2.5390 -1.0435  1.4713
22531SOL     OW70484   6.465   3.823   5.847 -0.3585  0.5229 -0.5663
22531SOL    HW170485   6.435   3.737   5.820 -2.4597  0.8323  0.4984
22531SOL    HW270486   6.387   3.863   5.887  0.7730  2.5941 -0.3105
22532SOL     OW70487   5.310   7.945   2.443  0.1452  0.1278  0.0150
22532SOL    HW170488   5.242   7.881   2.422 -0.7155  0.7306  0.8865
22532SOL    HW270489   5.345   7.915   2.527  0.2266  0.4185  0.0851
22533SOL     OW70490   8.981   0.945   6.987 -0.5782 -0.0216 -0.2026
22533SOL    HW170491   8.917   1.015   7.000 -0.5298 -0.2151  1.2534
22533SOL    HW270492   8.933   0.865   7.010 -0.0754 -0.2624  0.0095
22534SOL     OW70493   1.506   5.277   5.137  0.4906  0.3823 -0.3174
22534SOL    HW170494   1.415   5.259   5.160  0.1742  2.1195 -0.1307
22534SOL    HW270495   1.553   5.276   5.220  0.6777 -0.6084 -0.4233
22535SOL     OW70496   8.962   2.716   6.397 -0.2500 -0.1975 -0.2134
22535SOL    HW170497   8.923   2.749   6.316 -0.7718  0.7489  0.3961
22535SOL    HW270498   8.943   2.784   6.461  1.6435 -0.1287  0.3289
22536SOL     OW70499   3.188   3.890   4.743 -0.2686 -0.0555 -0.0509
22536SOL    HW170500   3.279   3.889   4.713 -0.1843 -1.6086  0.1879
22536SOL    HW270501   3.154   3.804   4.720 -0.8722 -0.5177  2.3080
22537SOL     OW70502   6.028   5.021   7.690 -0.1362 -0.1777 -0.4016
22537SOL    HW170503   5.980   4.941   7.669  0.7088 -0.9136  0.3302
22537SOL    HW270504   6.118   4.991   7.704  0.6485  1.2200 -2.1555
22538SOL     OW70505   5.862   9.116   5.111 -0.1375 -0.6164 -0.0479
22538SOL    HW170506   5.775   9.077   5.122 -0.7537  1.0294  1.4306
22538SOL    HW270507   5.850   9.180   5.041 -0.6646  0.9652  1.4307
22539SOL     OW70508   6.674   0.495   4.738  0.0850 -0.0720 -0.0550
22539SOL    HW170509   6.720   0.438   4.800  0.6637 -0.8139 -1.1321
22539SOL    HW270510   6.726   0.575   4.737  0.2754 -0.1891  0.1486
22540SOL     OW70511   3.284   1.098   4.281 -0.2669  1.1461  0.2055
22540SOL    HW170512   3.349   1.062   4.341 -0.1442 -0.1816 -0.6745
22540SOL    HW270513   3.232   1.159   4.334  0.2147  0.4607  1.4888
22541SOL     OW70514   3.375   7.187   6.386 -0.6196 -0.2729 -0.3772
22541SOL    HW170515   3.353   7.130   6.313  0.6936 -0.3289 -0.7459
22541SOL    HW270516   3.438   7.138   6.437 -1.4944 -0.2206  0.8003
22542SOL     OW70517   9.044   5.068   3.415 -0.4871  0.3073 -0.0317
22542SOL    HW170518   9.063   5.158   3.441 -1.4275  0.3414  0.5819
22542SOL    HW270519   9.115   5.016   3.453  1.7049  1.0425 -2.7405
22543SOL     OW70520   7.241   8.211   4.479 -0.1276 -0.2264  0.0683
22543SOL    HW170521   7.181   8.168   4.540  0.7782 -3.7185 -1.2920
22543SOL    HW270522   7.323   8.163   4.488  1.3690  1.9860 -0.8680
22544SOL     OW70523   5.003   1.314   5.827 -0.2325  0.2025 -0.2151
22544SOL    HW170524   4.972   1.289   5.914 -0.6962 -0.4016 -0.5428
22544SOL    HW270525   4.972   1.404   5.815  0.4410  0.5461  0.5163
22545SOL     OW70526   5.875   5.297   8.764 -0.0623 -0.1569  0.3056
22545SOL    HW170527   5.783   5.323   8.773 -0.4883 -0.6647 -1.9591
22545SOL    HW270528   5.893   5.305   8.670  2.0592 -0.6177  0.6250
22546SOL     OW70529   4.012   4.964   3.833  0.2290  0.0723 -0.1161
22546SOL    HW170530   3.918   4.977   3.819  0.2536 -0.3092 -0.6645
22546SOL    HW270531   4.045   4.934   3.748  0.9759  0.8825 -0.1361
22547SOL     OW70532   1.282   1.092   3.193 -0.4149  0.2296  0.3309
22547SOL    HW170533   1.301   1.185   3.182 -1.8214  0.4419 -0.5494
22547SOL    HW270534   1.352   1.048   3.144 -0.2184  0.8589  0.0344
22548SOL     OW70535   4.778   8.752   2.462  0.0700  0.5826 -0.3985
22548SOL    HW170536   4.823   8.789   2.386  0.1837 -1.3290 -1.3440
22548SOL    HW270537   4.831   8.675   2.485 -1.5100 -0.4685 -0.1643
22549SOL     OW70538   3.234   5.992   7.843  0.3201 -0.2637  0.0893
22549SOL    HW170539   3.253   5.979   7.936  0.3023  0.6296  0.2323
22549SOL    HW270540   3.320   6.001   7.802  0.3001  0.7210  0.2467
22550SOL     OW70541   0.169   0.333   7.909  0.1831 -0.0253 -0.2223
22550SOL    HW170542   0.104   0.263   7.920 -0.9733  1.1084  0.5629
22550SOL    HW270543   0.152   0.369   7.822  0.7100 -0.6417 -0.5845
22551SOL     OW70544   6.500   8.122   3.349 -0.0136  0.6582  0.5964
22551SOL    HW170545   6.414   8.149   3.380  0.0784  0.1991  1.2686
22551SOL    HW270546   6.520   8.183   3.278  0.0756  2.1909  1.8954
22552SOL     OW70547   0.383   8.757   3.411 -0.5848 -0.2599  0.0087
22552SOL    HW170548   0.448   8.708   3.362  0.1150  0.5062  0.1361
22552SOL    HW270549   0.418   8.762   3.500 -0.2701  1.0605 -0.1612
22553SOL     OW70550   5.015   5.692   1.509  0.0959  0.0225  0.0558
22553SOL    HW170551   5.104   5.658   1.519  0.6105  0.8213 -1.6244
22553SOL    HW270552   5.024   5.787   1.516 -0.7745  0.0713  0.7597
22554SOL     OW70553   1.197   6.146   4.440  0.1894 -0.6720  0.0256
22554SOL    HW170554   1.220   6.213   4.505  1.8130 -0.6597 -0.5038
22554SOL    HW270555   1.264   6.078   4.451 -0.8734 -1.7606 -0.1009
22555SOL     OW70556   1.548   0.931   0.512 -0.3376 -0.1058 -0.5373
22555SOL    HW170557   1.532   0.963   0.601  0.2682  0.9012 -0.7690
22555SOL    HW270558   1.526   0.838   0.515  0.0978 -0.1892  0.7765
22556SOL     OW70559   7.454   1.671   8.415 -0.1199 -0.3674 -0.2212
22556SOL    HW170560   7.493   1.638   8.496 -1.5858  0.8271  1.0179
22556SOL    HW270561   7.510   1.744   8.390 -0.6047  0.3300  0.6707
22557SOL     OW70562   2.550   8.939   1.604 -0.5337 -0.0641  0.1112
22557SOL    HW170563   2.538   9.017   1.658 -0.8831  1.2889 -1.8219
22557SOL    HW270564   2.614   8.966   1.537  1.0205 -2.1336  0.6491
22558SOL     OW70565   2.180   0.506   6.081  0.1811  0.2904 -0.3041
22558SOL    HW170566   2.201   0.506   5.987 -2.9760  0.9470 -1.1547
22558SOL    HW270567   2.084   0.516   6.083  0.3333  2.4943  3.0463
22559SOL     OW70568   5.269   2.549   4.391 -0.4862 -0.0750 -0.2911
22559SOL    HW170569   5.193   2.561   4.448  0.6622 -0.0544  1.3305
22559SOL    HW270570   5.339   2.521   4.451  1.0279  0.8216 -1.5512
22560SOL     OW70571   8.087   8.962   8.871  0.1514  0.4005  0.0744
22560SOL    HW170572   8.136   8.897   8.922 -1.5844 -0.9185  0.1650
22560SOL    HW270573   8.103   9.045   8.916 -0.8049 -0.6116  2.4648
22561SOL     OW70574   7.367   8.561   8.794  0.2029 -0.2315 -0.2565
22561SOL    HW170575   7.422   8.556   8.872  0.0417  1.3405 -0.0067
22561SOL    HW270576   7.316   8.641   8.806 -0.5931 -0.5271 -1.4901
22562SOL     OW70577   8.632   7.472   4.310  0.5693  0.5920  0.1597
22562SOL    HW170578   8.681   7.407   4.260  0.2560  0.7412 -0.3404
22562SOL    HW270579   8.598   7.423   4.386  1.0231  0.3639  0.2180
22563SOL     OW70580   1.153   7.453   0.179  0.0976  0.1934 -0.2779
22563SOL    HW170581   1.217   7.396   0.136  0.9315  0.5470  0.4510
22563SOL    HW270582   1.129   7.517   0.112  1.1674  0.5697 -0.3330
22564SOL     OW70583   3.020   4.268   7.630  0.5084  0.6856 -0.6734
22564SOL    HW170584   2.977   4.348   7.660 -0.6399  0.0605 -0.6160
22564SOL    HW270585   3.055   4.228   7.709 -1.4697 -0.3428 -0.2504
22565SOL     OW70586   4.797   4.873   9.050  0.3094  0.2471 -0.6482
22565SOL    HW170587   4.703   4.889   9.053 -0.2012 -2.3988 -0.1491
22565SOL    HW270588   4.836   4.960   9.060 -2.0560  1.3599 -0.3399
22566SOL     OW70589   3.073   6.913   7.109  0.1656  0.3896  0.0969
22566SOL    HW170590   3.093   6.897   7.202  0.5703 -2.7226 -0.4174
22566SOL    HW270591   3.086   7.007   7.098 -0.9250  1.0725  3.4103
22567SOL     OW70592   6.710   3.669   3.133  0.0237  0.1229  0.2610
22567SOL    HW170593   6.776   3.725   3.172 -1.7145  1.6982  1.1032
22567SOL    HW270594   6.682   3.612   3.205 -0.8420  0.7604  0.4446
22568SOL     OW70595   5.314   3.715   1.573  0.3744  0.3424  0.1021
22568SOL    HW170596   5.227   3.705   1.535  0.2741 -0.0664  0.4298
22568SOL    HW270597   5.358   3.632   1.554  0.1114 -0.1199  1.4032
22569SOL     OW70598   6.492   5.700   2.404  0.3625 -0.1060 -0.0584
22569SOL    HW170599   6.519   5.610   2.423 -0.4663 -0.0944  1.2932
22569SOL    HW270600   6.401   5.693   2.376  0.2607  0.3120  0.1563
22570SOL     OW70601   7.302   2.388   0.826 -0.5884  0.5691 -0.0423
22570SOL    HW170602   7.246   2.459   0.859  2.3985  2.4955  1.3634
22570SOL    HW270603   7.321   2.412   0.735  1.1859  2.2663  0.7018
22571SOL     OW70604   9.179   9.239   8.776  0.3235 -0.0359 -0.3093
22571SOL    HW170605   9.203   9.256   8.867  4.0680 -1.8147 -0.7834
22571SOL    HW270606   9.133   9.318   8.748  0.5006  1.2331  2.6064
22572SOL     OW70607   8.869   8.648   1.517  0.0032  0.5875 -0.3057
22572SOL    HW170608   8.840   8.740   1.522 -2.0269  0.0104 -0.5753
22572SOL    HW270609   8.804   8.600   1.569  0.7322 -0.7795 -0.6124
22573SOL     OW70610   2.172   2.044   4.690 -0.5231 -0.2570 -0.1602
22573SOL    HW170611   2.150   2.085   4.774 -0.1350  1.7388 -0.9670
22573SOL    HW270612   2.181   1.951   4.710  1.0960  0.3466  2.3448
22574SOL     OW70613   0.780   5.350   0.893 -0.0085 -0.8299  0.4865
22574SOL    HW170614   0.788   5.425   0.834  1.6661 -1.0204  0.4257
22574SOL    HW270615   0.772   5.388   0.980 -1.6196 -0.5643  0.2499
22575SOL     OW70616   8.646   3.351   2.571 -0.4384 -0.4359  0.2359
22575SOL    HW170617   8.557   3.383   2.581 -0.4883 -0.6528  0.4884
22575SOL    HW270618   8.645   3.263   2.609  0.4985  0.5277  2.7305
22576SOL     OW70619   4.826   6.408   8.191 -0.0104  0.0985  0.2741
22576SOL    HW170620   4.733   6.424   8.204  0.2191  1.4213  0.4373
22576SOL    HW270621   4.837   6.402   8.096 -0.2106  0.2130  0.2447
22577SOL     OW70622   3.842   1.296   3.403 -0.3768  0.7063 -0.0159
22577SOL    HW170623   3.889   1.338   3.475 -0.9974  1.5581 -0.0932
22577SOL    HW270624   3.902   1.228   3.372 -0.2628  0.0458  1.5647
22578SOL     OW70625   0.928   1.322   1.945 -0.4227  0.1655  0.2773
22578SOL    HW170626   1.010   1.348   1.903 -1.5501  0.0208 -2.1847
22578SOL    HW270627   0.877   1.403   1.951 -0.8864 -0.0818 -0.1697
22579SOL     OW70628   6.251   0.754   2.700 -0.2689 -0.1144  0.0321
22579SOL    HW170629   6.240   0.848   2.714 -0.1386 -0.1033  0.0613
22579SOL    HW270630   6.211   0.737   2.615 -2.3912 -0.4285  1.0352
22580SOL     OW70631   4.382   6.270   1.649  0.3046 -0.2452  0.2802
22580SOL    HW170632   4.458   6.214   1.632 -0.3136 -0.6069 -1.4812
22580SOL    HW270633   4.389   6.341   1.585 -1.1515 -0.6330 -0.3588
22581SOL     OW70634   3.703   3.386   1.389  0.2800 -0.5314 -0.2081
22581SOL    HW170635   3.678   3.297   1.413 -1.7082  0.0607  0.1292
22581SOL    HW270636   3.648   3.442   1.444  0.5149  0.8965 -1.3528
22582SOL     OW70637   7.886   1.665   7.789  0.2524  0.9404 -0.1211
22582SOL    HW170638   7.840   1.632   7.712  0.0101  0.3542  0.2550
22582SOL    HW270639   7.821   1.718   7.835 -0.6170 -1.1157  1.2037
22583SOL     OW70640   6.560   9.242   1.287 -0.2873  0.1428 -0.3412
22583SOL    HW170641   6.592   9.252   1.197 -1.2114  2.7251 -0.4732
22583SOL    HW270642   6.638   9.222   1.338  0.3463 -0.8227 -1.6300
22584SOL     OW70643   4.360   1.794   2.558  0.0836 -0.1466  0.2941
22584SOL    HW170644   4.333   1.741   2.633  0.7274 -1.8631 -0.6404
22584SOL    HW270645   4.320   1.879   2.574  0.1682 -0.4680  2.5504
22585SOL     OW70646   4.798   8.070   2.419  0.5383 -0.4411 -0.0339
22585SOL    HW170647   4.887   8.098   2.395  0.5698  0.6013  1.2153
22585SOL    HW270648   4.742   8.111   2.353  0.9470 -0.8839 -0.6728
22586SOL     OW70649   4.059   4.730   9.111 -0.0469 -0.4477  0.3275
22586SOL    HW170650   4.108   4.767   9.038  0.2078 -0.3359  0.5511
22586SOL    HW270651   3.981   4.784   9.118  1.1742  1.2334  1.8089
22587SOL     OW70652   4.696   3.643   7.108 -0.4247 -0.5025 -0.6183
22587SOL    HW170653   4.717   3.575   7.172 -1.2185  1.3323  1.7162
22587SOL    HW270654   4.625   3.605   7.056 -0.1335 -1.8351 -0.0892
22588SOL     OW70655   8.730   0.292   0.155 -0.5487  1.1695  0.3627
22588SOL    HW170656   8.670   0.294   0.081 -1.3297  2.7185  0.9901
22588SOL    HW270657   8.792   0.222   0.134 -0.0016  2.3636 -2.3397
22589SOL     OW70658   4.920   7.510   2.672  0.5975  0.4416  0.7062
22589SOL    HW170659   4.973   7.572   2.621  2.3056 -1.0975  0.5022
22589SOL    HW270660   4.984   7.457   2.719 -0.7527 -1.7458  0.1999
22590SOL     OW70661   1.550   1.233   5.502 -0.3619 -0.0197  0.1526
22590SOL    HW170662   1.533   1.166   5.569 -0.3289 -0.0446  0.1359
22590SOL    HW270663   1.561   1.184   5.421  2.7568 -0.2889  0.6283
22591SOL     OW70664   0.042   1.580   7.574  0.0997  0.0042  0.2446
22591SOL    HW170665   0.123   1.530   7.567 -0.5262 -1.3063  1.7413
22591SOL    HW270666  -0.018   1.537   7.513  0.4460  0.8530 -0.7182
22592SOL     OW70667   3.583   0.811   8.853 -0.6269 -0.6864 -0.0847
22592SOL    HW170668   3.508   0.869   8.869  0.3421  0.4922  0.2875
22592SOL    HW270669   3.582   0.751   8.928 -0.3243  0.2903  0.7247
22593SOL     OW70670   3.670   0.859   0.412 -0.2582 -0.1547 -0.2869
22593SOL    HW170671   3.660   0.765   0.425  0.3922 -0.3185 -0.8677
22593SOL    HW270672   3.691   0.894   0.498 -2.3631 -0.2527  0.3170
22594SOL     OW70673   6.246   1.245   0.668  0.2166 -0.9333 -0.2743
22594SOL    HW170674   6.323   1.300   0.666  1.7394 -2.8650  1.1257
22594SOL    HW270675   6.217   1.247   0.760 -1.0849 -0.6863 -0.6609
22595SOL     OW70676   1.369   2.446   8.376 -0.2138  0.3621  0.0102
22595SOL    HW170677   1.301   2.512   8.384  0.4373  1.1844 -0.9059
22595SOL    HW270678   1.346   2.378   8.440 -0.9215  1.4535  0.9476
22596SOL     OW70679   5.832   8.232   3.617 -0.1099  0.1894 -0.7183
22596SOL    HW170680   5.793   8.249   3.703  2.6479 -1.6023  1.0447
22596SOL    HW270681   5.761   8.193   3.566 -1.8993  1.5282  0.6146
22597SOL     OW70682   2.458   9.056   0.341  0.3103 -0.1238 -0.4303
22597SOL    HW170683   2.472   8.961   0.343  0.6686 -0.0609  0.8150
22597SOL    HW270684   2.457   9.078   0.248  2.0626 -1.0825 -0.7148
22598SOL     OW70685   2.932   8.172   4.863  0.0877  0.1938  0.0077
22598SOL    HW170686   3.020   8.202   4.841  0.7506 -0.6204  1.4088
22598SOL    HW270687   2.877   8.249   4.852  0.6093  0.2858 -2.6790
22599SOL     OW70688   4.425   5.820   5.902 -0.4238 -0.0704  0.4011
22599SOL    HW170689   4.345   5.785   5.862  0.0998 -0.2991 -0.4853
22599SOL    HW270690   4.407   5.913   5.915 -1.2016 -0.3175  1.1710
22600SOL     OW70691   2.897   5.010   5.503 -0.3431 -0.6078  0.2800
22600SOL    HW170692   2.853   5.010   5.418 -0.3220 -0.1947  0.2660
22600SOL    HW270693   2.969   4.949   5.494 -1.4571 -2.0140  0.5836
22601SOL     OW70694   6.142   0.967   6.550  0.1775  0.4208 -0.5880
22601SOL    HW170695   6.213   0.991   6.491  1.3852 -0.2831  0.5491
22601SOL    HW270696   6.062   0.985   6.499  1.1246  1.7688 -1.6736
22602SOL     OW70697   3.961   7.538   1.148 -0.2197  0.1686  0.1940
22602SOL    HW170698   3.992   7.625   1.173 -0.9319  0.1681  1.1187
22602SOL    HW270699   3.940   7.546   1.055 -2.1500  1.5437  0.6977
22603SOL     OW70700   5.054   3.227   5.837  0.0385  0.2968 -0.0340
22603SOL    HW170701   5.037   3.176   5.917  0.4511  1.5356  0.8618
22603SOL    HW270702   5.146   3.210   5.818 -0.2011 -0.4473 -0.5963
22604SOL     OW70703   1.310   4.793   0.223  0.2833  0.0530 -0.3029
22604SOL    HW170704   1.345   4.878   0.249  1.8871 -0.7238  0.2122
22604SOL    HW270705   1.215   4.807   0.217  0.3491  1.4836  1.2525
22605SOL     OW70706   0.307   0.425   1.435 -0.3797 -0.0461  0.0024
22605SOL    HW170707   0.383   0.367   1.435  0.5184  1.0897 -0.7867
22605SOL    HW270708   0.273   0.420   1.524  1.1300  0.0655  0.6133
22606SOL     OW70709   6.324   1.279   7.858 -0.3646  0.6227 -0.1582
22606SOL    HW170710   6.374   1.317   7.786  0.4922 -0.3512 -0.1212
22606SOL    HW270711   6.389   1.227   7.906 -0.9412  1.1576  1.2503
22607SOL     OW70712   8.398   1.322   2.837 -0.0737  0.2170 -0.5096
22607SOL    HW170713   8.466   1.270   2.795 -0.0521 -1.1255  1.0952
22607SOL    HW270714   8.318   1.298   2.790  0.4883  1.8316 -2.4245
22608SOL     OW70715   0.725   4.183   5.458 -0.5826 -0.1111  0.0301
22608SOL    HW170716   0.695   4.160   5.546  2.6805 -0.2168  1.2597
22608SOL    HW270717   0.739   4.278   5.462  1.2239 -0.3503  0.2749
22609SOL     OW70718   8.491   8.929   3.876  0.5970  0.1135  0.2207
22609SOL    HW170719   8.547   8.942   3.799  0.4719 -1.3913 -0.1616
22609SOL    HW270720   8.510   8.840   3.904 -0.5941  0.0660  0.9303
22610SOL     OW70721   3.249   7.871   5.933 -0.3993 -0.1726  0.4858
22610SOL    HW170722   3.240   7.934   5.862  0.2264  0.4720  0.9669
22610SOL    HW270723   3.237   7.786   5.891  0.8497  0.1378 -0.5507
22611SOL     OW70724   4.886   2.589   7.580  0.5891 -0.5547  0.2481
22611SOL    HW170725   4.871   2.537   7.659 -1.4572  0.2438  0.4336
22611SOL    HW270726   4.901   2.678   7.612 -1.1655 -0.0408 -0.2396
22612SOL     OW70727   7.319   8.496   3.554 -0.2736 -0.8133 -0.1100
22612SOL    HW170728   7.271   8.555   3.611 -0.6333 -0.9612 -0.2564
22612SOL    HW270729   7.388   8.460   3.610 -1.5985 -2.1925  0.7147
22613SOL     OW70730   5.389   4.911   9.110 -0.4359 -0.2682  0.4253
22613SOL    HW170731   5.474   4.923   9.068 -0.8725  1.3599 -0.0761
22613SOL    HW270732   5.326   4.914   9.038 -0.9100 -2.0553  0.7216
22614SOL     OW70733   6.926   0.117   2.324  0.0483 -0.4286  0.1601
22614SOL    HW170734   6.970   0.084   2.246 -0.2854 -0.2853 -0.0918
22614SOL    HW270735   6.873   0.043   2.355  1.5806 -1.0955  1.3227
22615SOL     OW70736   1.623   5.759   3.887  0.3559 -0.2208  0.0587
22615SOL    HW170737   1.617   5.674   3.842  1.9939  0.0139 -0.6857
22615SOL    HW270738   1.588   5.822   3.824 -0.2198 -0.2501  0.3424
22616SOL     OW70739   7.821   1.847   4.522 -0.5476  0.6986 -0.1395
22616SOL    HW170740   7.899   1.859   4.576 -0.3149 -1.5141  0.1074
22616SOL    HW270741   7.781   1.767   4.555 -0.4642 -0.7183 -3.1384
22617SOL     OW70742   5.283   4.840   2.159  0.3878  0.1315  0.8267
22617SOL    HW170743   5.321   4.849   2.072 -1.9746  1.9632 -0.1436
22617SOL    HW270744   5.313   4.755   2.190  4.2079  0.8956 -0.2211
22618SOL     OW70745   5.224   0.683   4.817 -0.0717  0.2344  0.1423
22618SOL    HW170746   5.239   0.631   4.896 -0.6845  1.2953  1.0011
22618SOL    HW270747   5.279   0.643   4.750  3.4976  1.5492  2.0274
22619SOL     OW70748   8.559   8.258   2.697 -0.2574 -0.0886  0.8311
22619SOL    HW170749   8.511   8.290   2.621  0.2693  0.0782  0.5592
22619SOL    HW270750   8.650   8.283   2.679 -0.2651  0.8586  1.9874
22620SOL     OW70751   0.067   3.806   0.681  0.0381  0.3371 -0.0958
22620SOL    HW170752   0.040   3.859   0.756  2.4756  0.0998  1.0405
22620SOL    HW270753   0.032   3.719   0.698 -0.6642  0.6354  0.0021
22621SOL     OW70754   1.037   7.143   6.919 -0.2620  0.0779 -0.0905
22621SOL    HW170755   1.034   7.150   7.014 -0.6699  0.4248 -0.1262
22621SOL    HW270756   1.113   7.194   6.893 -1.3760  1.7906 -0.1062
22622SOL     OW70757   7.398   3.914   5.899 -0.0199  0.4382  0.5924
22622SOL    HW170758   7.488   3.933   5.926  1.2675 -2.8876 -0.8871
22622SOL    HW270759   7.351   3.898   5.981  0.6148  2.3566  1.3944
22623SOL     OW70760   2.152   3.752   5.429 -0.4096 -0.1733 -0.1526
22623SOL    HW170761   2.205   3.701   5.369  0.6768  0.2639  0.4156
22623SOL    HW270762   2.071   3.769   5.381  0.4010  0.1132 -1.4595
22624SOL     OW70763   0.334   6.260   5.491  0.5457  0.2066  0.2422
22624SOL    HW170764   0.283   6.321   5.437  0.2806  1.1286  1.4973
22624SOL    HW270765   0.402   6.227   5.432 -0.7079 -0.0772 -1.1020
22625SOL     OW70766   6.225   0.522   1.168  0.2616  0.1356 -0.1689
22625SOL    HW170767   6.240   0.590   1.103 -0.9534  0.6911  0.0939
22625SOL    HW270768   6.283   0.451   1.143 -0.0851  0.3898 -1.7668
22626SOL     OW70769   3.189   3.720   5.470 -0.2069  0.1336 -0.2204
22626SOL    HW170770   3.248   3.702   5.542 -0.3214  0.6291  0.0044
22626SOL    HW270771   3.199   3.814   5.454 -0.1178  0.0169 -0.9057
22627SOL     OW70772   8.078   3.720   7.223 -0.0310  0.1309 -0.6808
22627SOL    HW170773   8.023   3.768   7.161  0.2379 -0.1759 -1.1611
22627SOL    HW270774   8.024   3.711   7.301 -0.3187  0.6560 -0.8135
22628SOL     OW70775   3.953   3.961   4.967 -0.2773 -0.2164 -0.2937
22628SOL    HW170776   4.016   3.902   4.927 -0.8123 -0.5660 -0.6259
22628SOL    HW270777   4.002   4.043   4.980  0.0989 -0.3203 -1.0134
22629SOL     OW70778   3.720   0.342   3.426  0.1244 -0.0319  0.1150
22629SOL    HW170779   3.697   0.250   3.439  0.2523 -0.1445 -0.4498
22629SOL    HW270780   3.665   0.371   3.353 -0.3313  0.5045  0.6546
22630SOL     OW70781   5.504   8.573   5.081  0.2546 -0.1441 -0.0911
22630SOL    HW170782   5.425   8.545   5.034 -0.0304 -0.6350  0.6483
22630SOL    HW270783   5.472   8.636   5.146 -0.0473 -2.4149  2.1455
22631SOL     OW70784   1.786   6.323   5.484  0.9254 -0.6060  0.0309
22631SOL    HW170785   1.821   6.411   5.469  0.5288 -0.5832 -0.8396
22631SOL    HW270786   1.791   6.280   5.398 -1.7660 -0.3670 -0.3351
22632SOL     OW70787   6.507   7.396   8.945  0.5737 -0.1321 -0.1615
22632SOL    HW170788   6.412   7.384   8.950  0.3792  1.3008  0.1967
22632SOL    HW270789   6.544   7.314   8.976 -0.5600  0.4800  3.2447
22633SOL     OW70790   4.926   4.019   2.417 -0.8391 -0.2051  0.0489
22633SOL    HW170791   4.860   4.080   2.451 -0.2743  0.0229  0.7743
22633SOL    HW270792   4.937   4.045   2.326 -0.7754  0.6432  0.2833
22634SOL     OW70793   1.822   2.185   7.269  0.2976 -0.0960 -0.0027
22634SOL    HW170794   1.886   2.229   7.212 -1.0202  0.7542 -0.8874
22634SOL    HW270795   1.847   2.212   7.358  1.7253 -0.5566 -0.2406
22635SOL     OW70796   7.265   2.866   1.059 -0.2319 -0.3382 -0.5531
22635SOL    HW170797   7.185   2.836   1.102 -1.5030 -0.8904 -3.1100
22635SOL    HW270798   7.285   2.950   1.101 -1.3965 -0.8021  1.0141
22636SOL     OW70799   1.367   7.377   1.933 -0.4991 -0.2226  0.2842
22636SOL    HW170800   1.304   7.308   1.950 -2.7169  2.2494  3.4647
22636SOL    HW270801   1.328   7.429   1.863 -0.6843 -0.1517  0.4397
22637SOL     OW70802   3.113   0.244   9.202  0.1777 -0.1903  0.2627
22637SOL    HW170803   3.056   0.310   9.241  2.3326  1.0819  1.5174
22637SOL    HW270804   3.112   0.171   9.265  0.2419  0.0187  0.5093
22638SOL     OW70805   4.677   6.612   6.045  0.0791  0.7935  0.2971
22638SOL    HW170806   4.759   6.645   6.009 -0.1811  0.4586 -0.6391
22638SOL    HW270807   4.610   6.639   5.982 -0.2725 -0.6101  0.0227
22639SOL     OW70808   1.404   7.288   3.482 -1.0271 -0.0061  0.2269
22639SOL    HW170809   1.376   7.251   3.399 -2.4682  0.3935  0.5165
22639SOL    HW270810   1.466   7.358   3.457  0.4758 -1.4802 -0.3700
22640SOL     OW70811   2.065   0.436   6.722 -0.4820  0.2345  0.0536
22640SOL    HW170812   2.018   0.480   6.651 -1.7221 -0.0612  0.6642
22640SOL    HW270813   2.073   0.345   6.693 -0.5227  0.2264  0.0682
22641SOL     OW70814   4.038   9.192   2.350 -0.6011 -0.2195  0.2367
22641SOL    HW170815   4.095   9.162   2.421 -1.4941 -1.8115  0.3254
22641SOL    HW270816   3.961   9.228   2.395 -1.5684 -2.0402  0.1252
22642SOL     OW70817   3.667   4.361   1.727  0.0950  0.1642  0.3449
22642SOL    HW170818   3.645   4.355   1.820 -1.2558  1.3461  0.1306
22642SOL    HW270819   3.763   4.362   1.726  0.1393  0.3631  1.7345
22643SOL     OW70820   1.886   1.402   0.074 -0.5643  0.1404  0.1972
22643SOL    HW170821   1.878   1.307   0.073  0.6892 -0.0870  2.8060
22643SOL    HW270822   1.816   1.431   0.132  0.9591  0.4670  1.9497
22644SOL     OW70823   2.274   1.479   4.339  0.0232 -0.1968 -0.2763
22644SOL    HW170824   2.256   1.396   4.295 -1.9177 -0.4665  0.9056
22644SOL    HW270825   2.354   1.511   4.297 -1.3187 -0.7114 -3.5405
22645SOL     OW70826   2.841   2.403   6.047 -0.7448 -0.3787 -0.7169
22645SOL    HW170827   2.833   2.425   6.140 -0.1566 -0.6958 -0.5814
22645SOL    HW270828   2.910   2.460   6.015 -0.9911 -0.2270 -0.9747
22646SOL     OW70829   3.343   2.844   2.796  0.1112  0.3280  0.9140
22646SOL    HW170830   3.417   2.806   2.749  0.6291 -0.1137  2.0553
22646SOL    HW270831   3.363   2.831   2.888 -0.2040  2.4485  1.3365
22647SOL     OW70832   5.924   5.349   3.592 -0.3682  0.2962  0.1443
22647SOL    HW170833   5.854   5.283   3.587 -0.5364  0.5299 -3.9553
22647SOL    HW270834   5.991   5.317   3.531  2.1073  1.2520  2.2284
22648SOL     OW70835   0.897   6.423   8.583 -0.5417 -0.4659  0.3827
22648SOL    HW170836   0.825   6.463   8.534 -0.7096  0.3602  1.2746
22648SOL    HW270837   0.871   6.331   8.594 -1.1574 -0.3183  0.1561
22649SOL     OW70838   1.514   7.376   4.723 -0.1253 -0.5129 -0.1622
22649SOL    HW170839   1.535   7.286   4.699 -1.1619 -0.3742 -1.7504
22649SOL    HW270840   1.421   7.374   4.747 -0.2910  0.1994 -0.6980
22650SOL     OW70841   3.191   4.085   3.622  0.4107  0.5489 -1.1925
22650SOL    HW170842   3.145   4.014   3.577  0.9575  0.1130 -1.0780
22650SOL    HW270843   3.121   4.145   3.649 -0.4068 -1.2459  1.0567
22651SOL     OW70844   6.217   7.108   5.761 -0.0877  1.0854 -0.1586
22651SOL    HW170845   6.181   7.106   5.672  1.4299 -1.0868 -0.7946
22651SOL    HW270846   6.143   7.083   5.817 -0.2242 -0.9911 -1.1950
22652SOL     OW70847   8.591   4.896   1.454 -0.1932 -0.0516 -0.5706
22652SOL    HW170848   8.622   4.859   1.371 -0.4559  0.3933 -0.8669
22652SOL    HW270849   8.650   4.969   1.472  0.9912 -1.2232  0.5523
22653SOL     OW70850   4.835   7.571   7.630 -0.1890  0.1013  0.7335
22653SOL    HW170851   4.927   7.596   7.638  0.5349  0.1753 -4.3826
22653SOL    HW270852   4.832   7.479   7.656  1.8824 -0.5108 -0.9156
22654SOL     OW70853   6.738   4.057   8.795 -0.3837 -0.2215  0.1883
22654SOL    HW170854   6.734   4.028   8.886 -0.4378 -0.1527  0.2078
22654SOL    HW270855   6.661   4.019   8.754  1.3881 -3.1421 -0.6855
22655SOL     OW70856   5.397   4.732   5.187  0.0426  0.6479 -0.2235
22655SOL    HW170857   5.420   4.812   5.234  0.4691  0.0894  0.5474
22655SOL    HW270858   5.464   4.669   5.213 -2.3714 -1.1571  2.3518
22656SOL     OW70859   5.018   2.961   5.169 -0.1702 -0.3632 -0.4782
22656SOL    HW170860   4.925   2.972   5.152 -0.4209  0.5802  1.3169
22656SOL    HW270861   5.061   3.029   5.116 -0.3974 -1.2290 -1.8366
22657SOL     OW70862   2.737   8.705   5.550 -0.7257 -0.1264  0.2304
22657SOL    HW170863   2.663   8.762   5.572 -0.3531  0.6674 -0.5202
22657SOL    HW270864   2.806   8.765   5.523  0.3868 -0.8176  1.4248
22658SOL     OW70865   4.080   7.270   4.007 -0.6126  0.6821 -0.3213
22658SOL    HW170866   4.096   7.301   4.096 -1.9207  1.2761 -0.2766
22658SOL    HW270867   3.989   7.240   4.007 -0.2035 -0.6774 -1.0865
22659SOL     OW70868   6.269   0.455   9.066  0.3888  0.2895  0.3252
22659SOL    HW170869   6.325   0.412   9.001 -0.7162  3.1032 -2.7643
22659SOL    HW270870   6.326   0.468   9.142  2.4880 -1.0776 -0.9269
22660SOL     OW70871   5.517   3.545   1.832 -0.3223  0.0125  0.2894
22660SOL    HW170872   5.611   3.557   1.817 -0.6287  0.5412 -1.4471
22660SOL    HW270873   5.481   3.526   1.745 -1.7351 -0.8896  1.0263
22661SOL     OW70874   7.232   1.813   4.831 -0.2130  0.5091 -0.1242
22661SOL    HW170875   7.298   1.774   4.774  0.0498  0.4611  0.2093
22661SOL    HW270876   7.149   1.774   4.803 -0.1833  0.9959 -0.9262
22662SOL     OW70877   3.705   4.521   0.245 -0.6206 -0.2225  0.0909
22662SOL    HW170878   3.688   4.589   0.180 -0.1596  0.7133  0.9295
22662SOL    HW270879   3.618   4.491   0.271 -0.9020  1.2755  0.9742
22663SOL     OW70880   5.596   1.184   5.011 -0.0569 -0.2324  0.2712
22663SOL    HW170881   5.610   1.093   4.987  0.4987 -0.0703 -0.0419
22663SOL    HW270882   5.520   1.182   5.070  1.2785 -1.1540  2.0460
22664SOL     OW70883   7.788   5.135   4.904 -0.7797  0.3299 -0.2607
22664SOL    HW170884   7.767   5.133   4.810 -1.6894 -0.8228 -0.0633
22664SOL    HW270885   7.824   5.048   4.922  1.6800  1.3352  0.0045
22665SOL     OW70886   7.117   1.621   2.143 -0.0259 -0.0545  0.1995
22665SOL    HW170887   7.078   1.604   2.229  1.2534  1.4023  1.1106
22665SOL    HW270888   7.088   1.709   2.120 -0.0286 -0.2736 -0.7101
22666SOL     OW70889   7.594   7.010   2.086 -0.2434  0.1571  0.4378
22666SOL    HW170890   7.594   6.914   2.090  0.3048  0.1522  0.4989
22666SOL    HW270891   7.632   7.037   2.169  1.4435  0.3581 -0.3332
22667SOL     OW70892   4.319   4.477   2.791 -0.2994  0.0837  0.3214
22667SOL    HW170893   4.306   4.435   2.876 -0.5967  0.4939  0.4819
22667SOL    HW270894   4.254   4.548   2.789 -0.5946 -0.1986 -0.4285
22668SOL     OW70895   5.052   0.870   4.746 -0.6388  0.1737 -0.6631
22668SOL    HW170896   5.118   0.809   4.778 -1.0957 -0.0274 -0.0807
22668SOL    HW270897   5.096   0.955   4.743 -1.0409  0.6015  2.3267
22669SOL     OW70898   5.573   6.390   2.673  0.0826  0.0716  0.5959
22669SOL    HW170899   5.651   6.334   2.679 -1.9974 -3.0973  0.7172
22669SOL    HW270900   5.534   6.367   2.588 -0.6893  1.6754  0.4788
22670SOL     OW70901   5.340   3.943   5.025 -0.2673 -0.2145 -1.4163
22670SOL    HW170902   5.255   3.984   5.010 -0.6275 -0.7186 -0.8091
22670SOL    HW270903   5.402   4.001   4.981 -0.4284  2.4842  1.5792
22671SOL     OW70904   3.767   2.608   6.824  0.4134 -0.5278  0.4004
22671SOL    HW170905   3.718   2.690   6.815 -1.3762 -1.3766  1.8973
22671SOL    HW270906   3.852   2.635   6.859  0.4413  0.8163 -0.6118
22672SOL     OW70907   7.728   7.035   5.798 -0.2110 -0.0449 -0.4945
22672SOL    HW170908   7.690   7.123   5.807 -1.1371 -0.2758 -1.8078
22672SOL    HW270909   7.817   7.050   5.768  0.0235  0.4586  0.4075
22673SOL     OW70910   5.160   6.551   4.175 -0.2565 -0.1124 -0.2886
22673SOL    HW170911   5.181   6.506   4.257 -0.4082 -1.0430 -0.7434
22673SOL    HW270912   5.242   6.590   4.147  0.2474 -1.3532 -0.6204
22674SOL     OW70913   1.005   9.061   5.674 -0.0102 -0.1385 -0.4615
22674SOL    HW170914   0.916   9.072   5.707 -0.3226 -1.0428 -0.9800
22674SOL    HW270915   1.047   9.145   5.691 -0.8842  0.2148  0.0154
22675SOL     OW70916   3.658   6.667   5.210 -0.4257 -0.2798  0.1569
22675SOL    HW170917   3.604   6.601   5.168 -0.8522  0.4761 -0.4908
22675SOL    HW270918   3.663   6.739   5.147 -0.0038  0.3294  0.8661
22676SOL     OW70919   6.608   8.679   3.964  0.1617 -0.0773  0.2740
22676SOL    HW170920   6.536   8.742   3.968 -0.1413 -0.4607  2.4781
22676SOL    HW270921   6.593   8.630   3.884 -2.4488 -0.5973  0.9895
22677SOL     OW70922   8.641   4.424   6.277 -0.1689  0.5394  0.2056
22677SOL    HW170923   8.590   4.451   6.201  1.1013  0.7998 -0.5836
22677SOL    HW270924   8.582   4.434   6.351 -0.9004  1.9134 -0.5358
22678SOL     OW70925   8.165   2.518   6.441 -0.6775 -0.2855  0.2358
22678SOL    HW170926   8.113   2.547   6.516 -1.3861  0.5026 -0.5350
22678SOL    HW270927   8.143   2.426   6.429  1.2236 -1.1337  2.4178
22679SOL     OW70928   8.181   2.495   5.811 -0.2511  0.1828  0.0657
22679SOL    HW170929   8.157   2.584   5.786 -0.9548 -0.1876 -0.5912
22679SOL    HW270930   8.219   2.457   5.732  1.5450  0.4021  0.7770
22680SOL     OW70931   4.698   1.044   3.883  0.0247 -0.2085 -0.1995
22680SOL    HW170932   4.709   1.130   3.844  0.3075  0.4739  1.2915
22680SOL    HW270933   4.604   1.028   3.881  0.0712 -0.3707 -1.4891
22681SOL     OW70934   1.529   1.325   0.561  0.0540  0.3977  0.7457
22681SOL    HW170935   1.468   1.392   0.529  0.7652  0.7618  0.1385
22681SOL    HW270936   1.566   1.287   0.482  0.9824  0.5226  1.1146
22682SOL     OW70937   6.459   3.833   1.263 -0.1181 -0.5412  0.2569
22682SOL    HW170938   6.417   3.792   1.188 -0.0239  1.0899 -0.7441
22682SOL    HW270939   6.451   3.769   1.333  0.1660 -2.2990 -1.2353
22683SOL     OW70940   6.122   4.018   5.211 -0.1503  0.2846 -0.1981
22683SOL    HW170941   6.213   4.016   5.239 -0.2741  1.2614  0.3527
22683SOL    HW270942   6.088   3.931   5.230  0.2681  0.3787  1.0534
22684SOL     OW70943   4.004   3.520   8.740  0.3072  0.0280 -0.0616
22684SOL    HW170944   4.044   3.548   8.823 -0.4901  0.8568  0.0618
22684SOL    HW270945   3.932   3.582   8.727 -1.3611 -1.8086  0.0523
22685SOL     OW70946   8.353   2.639   0.092 -0.1305  0.2952 -0.4782
22685SOL    HW170947   8.263   2.654   0.063 -0.6155  1.6883  1.5886
22685SOL    HW270948   8.349   2.645   0.187  1.6336 -2.6543 -0.0856
22686SOL     OW70949   5.241   6.826   8.692  0.3405 -0.4219  0.1198
22686SOL    HW170950   5.254   6.916   8.664 -0.6794 -0.0587  0.7311
22686SOL    HW270951   5.231   6.776   8.611  1.4577 -0.0846 -0.2353
22687SOL     OW70952   0.319   2.069   0.829  0.0083 -0.0583 -0.8454
22687SOL    HW170953   0.267   2.139   0.789  1.6270  0.2280 -2.5933
22687SOL    HW270954   0.254   2.007   0.863 -1.4538  1.4505 -0.7574
22688SOL     OW70955   5.177   6.771   9.169 -0.3317  0.7111 -0.0856
22688SOL    HW170956   5.214   6.845   9.218 -2.9253  1.0143  1.5614
22688SOL    HW270957   5.147   6.809   9.087  1.1722  0.8188 -0.6166
22689SOL     OW70958   0.524   9.207   3.078  0.2432 -0.6022 -0.7645
22689SOL    HW170959   0.580   9.144   3.032  0.0577 -1.9023  0.7210
22689SOL    HW270960   0.585   9.259   3.130  0.0993 -3.3249  2.4391
22690SOL     OW70961   8.498   2.864   6.231  0.6631 -0.2289  0.7130
22690SOL    HW170962   8.539   2.829   6.151  2.2577 -0.6643  1.6769
22690SOL    HW270963   8.427   2.803   6.250 -0.9506  0.8562 -1.3172
22691SOL     OW70964   6.101   8.466   1.721  0.0191 -0.2682  0.4043
22691SOL    HW170965   6.128   8.512   1.641 -2.8725  0.5456 -0.2365
22691SOL    HW270966   6.170   8.402   1.736  1.1736  0.2143 -2.1932
22692SOL     OW70967   0.415   0.971   8.128  0.6933  0.1856 -0.2462
22692SOL    HW170968   0.378   0.890   8.093 -0.4046 -0.6828  2.6560
22692SOL    HW270969   0.509   0.963   8.113  0.4685 -0.9327 -1.2476
22693SOL     OW70970   4.232   8.324   2.533 -0.1102  0.3244 -0.4961
22693SOL    HW170971   4.153   8.317   2.480 -0.3733  1.0979 -0.2161
22693SOL    HW270972   4.221   8.405   2.582  0.0905 -0.4015  0.8033
22694SOL     OW70973   3.864   8.879   5.721  0.7506  0.6676  0.2400
22694SOL    HW170974   3.840   8.863   5.812  2.6186  0.5341  0.7371
22694SOL    HW270975   3.783   8.861   5.672  0.0575 -0.5227  1.7301
22695SOL     OW70976   6.874   0.294   3.411  0.3050 -0.0409  0.6123
22695SOL    HW170977   6.784   0.273   3.434  0.1898  1.6068  1.7943
22695SOL    HW270978   6.869   0.329   3.322 -0.1510 -0.3633  0.5106
22696SOL     OW70979   0.782   1.752   3.947 -0.3526 -0.2294 -0.1074
22696SOL    HW170980   0.714   1.784   3.888 -0.5702 -0.9597 -0.2693
22696SOL    HW270981   0.843   1.706   3.890  0.9231  1.4022 -0.1240
22697SOL     OW70982   3.842   3.470   5.576 -0.3938  0.4975 -0.1901
22697SOL    HW170983   3.824   3.529   5.502  0.9336  0.5355 -0.4980
22697SOL    HW270984   3.882   3.393   5.537 -1.9530 -0.5812  0.2346
22698SOL     OW70985   8.121   3.489   1.696  0.0549  0.5903  0.8136
22698SOL    HW170986   8.180   3.519   1.627 -0.4676  1.5321  0.7699
22698SOL    HW270987   8.067   3.565   1.716 -0.5725 -0.0179  1.4541
22699SOL     OW70988   8.564   7.021   3.962 -0.7114 -0.0702  0.1398
22699SOL    HW170989   8.557   6.926   3.964 -0.3052 -0.1559 -1.2112
22699SOL    HW270990   8.504   7.048   3.893 -0.4521  0.5997  0.1671
22700SOL     OW70991   5.983   8.781   6.357 -0.8290 -0.0487 -0.0659
22700SOL    HW170992   6.074   8.775   6.326  0.2379  0.6816  2.6095
22700SOL    HW270993   5.930   8.768   6.279  1.5734  3.9457 -2.7557
22701SOL     OW70994   4.297   4.537   5.763 -0.9133  0.0669 -0.4668
22701SOL    HW170995   4.284   4.484   5.685  0.1056  0.0486 -0.6307
22701SOL    HW270996   4.220   4.519   5.817 -0.9279 -1.0097 -0.8331
22702SOL     OW70997   2.615   2.733   8.540 -0.4433 -0.3777 -0.5242
22702SOL    HW170998   2.609   2.818   8.583 -0.4760 -0.6991  0.1227
22702SOL    HW270999   2.697   2.737   8.491 -0.1383 -0.1871 -0.0096
22703SOL     OW71000   5.190   5.458   4.043 -0.3915 -0.1757  0.1446
22703SOL    HW171001   5.147   5.372   4.045  0.3605 -0.5763 -0.6098
22703SOL    HW271002   5.229   5.468   4.130 -0.2080 -0.7437  0.1273
22704SOL     OW71003   4.364   2.060   7.802 -0.3394 -0.4687 -0.1667
22704SOL    HW171004   4.426   2.008   7.751 -0.5922  0.2358 -1.2255
22704SOL    HW271005   4.316   2.111   7.737 -0.0873  1.0965  0.8207
22705SOL     OW71006   1.541   3.220   5.612 -0.2445 -0.4307 -0.1493
22705SOL    HW171007   1.526   3.291   5.550 -0.8314 -1.0098 -0.6938
22705SOL    HW271008   1.454   3.186   5.631  0.0164 -0.9304  0.1842
22706SOL     OW71009   3.733   3.918   1.020 -0.4155  0.1377 -0.0845
22706SOL    HW171010   3.686   3.873   1.090 -1.0820  0.7250 -0.1491
22706SOL    HW271011   3.764   3.847   0.963 -1.4892 -0.2479 -0.2070
22707SOL     OW71012   2.480   6.868   0.308 -0.1659  0.5873  0.3275
22707SOL    HW171013   2.483   6.927   0.384  0.4701 -1.1432  1.7161
22707SOL    HW271014   2.439   6.788   0.341  3.4043 -1.6062 -0.0529
22708SOL     OW71015   1.988   1.620   0.666  0.1568 -0.1558 -0.1870
22708SOL    HW171016   2.022   1.637   0.578  0.0648 -1.1795 -0.4373
22708SOL    HW271017   1.917   1.558   0.652  0.3307 -0.5536  0.6362
22709SOL     OW71018   5.277   0.026   3.169  0.3688 -0.3711 -0.3634
22709SOL    HW171019   5.359  -0.021   3.162  1.4746  1.1967  1.1987
22709SOL    HW271020   5.302   0.116   3.190 -1.6976  0.5529 -1.5263
22710SOL     OW71021   5.517   0.261   5.833  0.1229 -0.6499 -0.1969
22710SOL    HW171022   5.439   0.271   5.888  0.5045 -1.4776  0.5071
22710SOL    HW271023   5.585   0.228   5.892  1.0723  0.2353 -0.7677
22711SOL     OW71024   2.524   6.568   6.191 -0.3807 -0.1242  0.3331
22711SOL    HW171025   2.564   6.646   6.153 -2.8979  1.5269  0.8317
22711SOL    HW271026   2.500   6.514   6.116  1.1244 -0.3399 -0.0284
22712SOL     OW71027   5.469   4.554   3.252 -0.2560 -0.3630 -0.5225
22712SOL    HW171028   5.548   4.519   3.293 -0.7110 -1.4242 -0.5306
22712SOL    HW271029   5.414   4.583   3.325  0.5620  1.3903 -0.5452
22713SOL     OW71030   4.654   8.088   1.543 -0.2017 -0.1956  0.0389
22713SOL    HW171031   4.686   8.157   1.602 -2.6813  1.2850 -0.1856
22713SOL    HW271032   4.567   8.066   1.577  0.7381 -3.8389  0.5115
22714SOL     OW71033   9.166   2.397   6.746 -0.3539  0.0388  0.6818
22714SOL    HW171034   9.092   2.432   6.697  0.1079  0.0023 -0.0650
22714SOL    HW271035   9.230   2.469   6.747 -0.4173  0.0975  1.3820
22715SOL     OW71036   4.335   4.403   3.475 -0.3757  0.0829  0.5007
22715SOL    HW171037   4.285   4.356   3.408  1.2334  1.6333 -1.9362
22715SOL    HW271038   4.271   4.460   3.517 -1.2120 -0.0333 -0.5654
22716SOL     OW71039   0.587   1.197   2.957 -0.2934  0.2310 -0.1998
22716SOL    HW171040   0.540   1.135   2.901  1.3661 -1.9781  0.7239
22716SOL    HW271041   0.519   1.233   3.015 -1.1903 -1.3079 -0.2475
22717SOL     OW71042   8.946   5.348   4.173  0.4472 -0.0528 -0.4400
22717SOL    HW171043   9.028   5.349   4.122  1.2179  0.4521  0.7487
22717SOL    HW271044   8.945   5.434   4.216  0.4815 -0.9095  1.3636
22718SOL     OW71045   7.783   4.532   1.310 -0.6905 -1.0306  0.2525
22718SOL    HW171046   7.703   4.564   1.268 -1.6031 -1.5977  1.4880
22718SOL    HW271047   7.780   4.569   1.398  1.4918  0.6368 -0.2932
22719SOL     OW71048   5.160   6.779   8.436  0.7888 -0.7044  0.3980
22719SOL    HW171049   5.242   6.748   8.397  0.8046  0.5999 -0.6760
22719SOL    HW271050   5.139   6.859   8.388  0.8952  1.1475  3.1881
22720SOL     OW71051   7.536   5.440   7.387  0.4884  0.2600 -0.1927
22720SOL    HW171052   7.457   5.428   7.336  0.4616 -1.8569  0.2529
22720SOL    HW271053   7.516   5.402   7.472  2.5006 -1.9718 -0.6265
22721SOL     OW71054   1.702   6.530   5.929  0.5518 -0.5284  0.2360
22721SOL    HW171055   1.757   6.529   6.007 -2.6845  0.4968  2.7815
22721SOL    HW271056   1.626   6.476   5.953 -0.9677  0.5615 -1.8323
22722SOL     OW71057   3.504   3.562   9.018  0.7221 -0.2949  0.2243
22722SOL    HW171058   3.495   3.470   9.044 -2.4245 -0.9618 -2.5939
22722SOL    HW271059   3.472   3.610   9.094  1.8393 -1.4636  1.5183
22723SOL     OW71060   8.062   4.925   8.920 -0.2228  0.1135 -0.0224
22723SOL    HW171061   8.033   4.848   8.872  1.7167  0.4809 -1.9141
22723SOL    HW271062   8.157   4.924   8.912  0.0711  1.1902  2.3602
22724SOL     OW71063   7.382   6.687   2.775  0.6592 -0.0479 -0.2881
22724SOL    HW171064   7.324   6.655   2.844  0.9200 -0.5336 -0.2911
22724SOL    HW271065   7.452   6.733   2.821 -0.8930  2.5755 -0.3556
22725SOL     OW71066   7.437   5.975   8.805  0.0437  0.4135 -0.1544
22725SOL    HW171067   7.443   5.884   8.778 -0.2777 -0.2261  1.7959
22725SOL    HW271068   7.388   5.973   8.887 -0.5247  2.4139 -0.3732
22726SOL     OW71069   8.651   0.509   1.548  0.4542  0.1483  0.1017
22726SOL    HW171070   8.721   0.572   1.565  1.2350 -0.7446  0.2789
22726SOL    HW271071   8.653   0.450   1.623  0.0927 -0.4062 -0.3228
22727SOL     OW71072   7.195   8.024   1.850  0.5783 -0.4204  0.6240
22727SOL    HW171073   7.280   7.981   1.858  3.5130  4.1968 -1.3292
22727SOL    HW271074   7.169   8.044   1.940  1.2644 -2.2391  1.2679
22728SOL     OW71075   5.615   1.939   6.496 -0.7224 -0.0054 -0.7391
22728SOL    HW171076   5.571   1.997   6.434 -0.5475  1.1870  0.2071
22728SOL    HW271077   5.619   1.989   6.578  1.2621 -0.5358 -0.4389
22729SOL     OW71078   7.436   1.373   8.393 -0.7658 -0.5015  0.3725
22729SOL    HW171079   7.529   1.373   8.418 -0.6177  1.5197 -0.0668
22729SOL    HW271080   7.437   1.378   8.298 -1.3465 -0.3251  0.3730
22730SOL     OW71081   5.948   2.730   2.110 -1.0108  0.0899  0.0726
22730SOL    HW171082   5.873   2.684   2.148 -0.4987 -0.7121  0.1176
22730SOL    HW271083   6.020   2.712   2.170 -0.4868 -0.1659 -0.6273
22731SOL     OW71084   8.887   5.886   1.723 -0.2518  0.0961  0.1708
22731SOL    HW171085   8.823   5.822   1.755 -0.3243 -0.2526 -0.6371
22731SOL    HW271086   8.912   5.854   1.636  1.5646 -0.1571  0.7405
22732SOL     OW71087   2.768   0.910   6.048  0.7732 -0.0876 -0.5002
22732SOL    HW171088   2.750   0.998   6.082 -0.0476  0.1378 -1.4449
22732SOL    HW271089   2.773   0.855   6.126  0.9848  0.7439  0.0921
22733SOL     OW71090   1.012   3.842   2.202 -0.1570 -0.3185 -0.0276
22733SOL    HW171091   1.063   3.782   2.148 -0.1528 -0.3434  0.0035
22733SOL    HW271092   1.055   3.839   2.288 -0.7812 -1.0882  0.2766
22734SOL     OW71093   1.967   2.605   7.674  0.7471 -0.7779  0.3306
22734SOL    HW171094   2.003   2.694   7.667  0.9411 -0.8971 -0.2794
22734SOL    HW271095   2.038   2.548   7.642 -0.5470 -0.8954 -2.7317
22735SOL     OW71096   0.656   9.222   6.818  0.0659  0.0352 -0.2464
22735SOL    HW171097   0.561   9.232   6.823  0.1004 -0.0325  0.7846
22735SOL    HW271098   0.669   9.135   6.781 -0.2918 -0.3790  0.5666
22736SOL     OW71099   5.819   0.421   3.402  0.8662  0.4694 -0.2677
22736SOL    HW171100   5.770   0.376   3.333  0.9112  1.0971 -0.7160
22736SOL    HW271101   5.753   0.472   3.449  0.7880 -0.1755  0.3448
22737SOL     OW71102   3.720   4.777   8.202 -0.6871  0.0523 -0.0507
22737SOL    HW171103   3.710   4.735   8.287 -0.0812  1.0035  0.5028
22737SOL    HW271104   3.748   4.866   8.222  2.6248 -0.5553 -1.2359
22738SOL     OW71105   7.472   8.361   3.737 -0.2219  0.0888  0.7692
22738SOL    HW171106   7.545   8.305   3.764 -0.8140 -0.2301  1.7765
22738SOL    HW271107   7.466   8.427   3.807 -0.8184  0.1820  0.6327
22739SOL     OW71108   5.155   5.371   2.800 -0.0266 -0.1974  0.1011
22739SOL    HW171109   5.249   5.363   2.820 -0.2783 -0.6597  1.1855
22739SOL    HW271110   5.145   5.329   2.714  1.0825  1.7055 -1.0238
22740SOL     OW71111   2.140   3.892   7.247 -0.2699  0.7455 -0.2138
22740SOL    HW171112   2.175   3.962   7.301  1.0236  0.7452 -1.0266
22740SOL    HW271113   2.214   3.862   7.194 -0.3040 -2.4074  1.2917
22741SOL     OW71114   5.131   0.471   4.414  0.1658  0.4062  0.0943
22741SOL    HW171115   5.175   0.392   4.445  0.1288 -0.1660 -1.2534
22741SOL    HW271116   5.106   0.518   4.494 -0.6724 -1.4113  0.9634
22742SOL     OW71117   0.422   9.019   0.074  0.0140  0.9553 -0.6759
22742SOL    HW171118   0.398   8.935   0.033  0.1700  0.4275  0.2789
22742SOL    HW271119   0.513   9.006   0.101 -0.2651  1.0719  0.3524
22743SOL     OW71120   2.313   5.081   5.714  0.0512  0.2413 -0.3323
22743SOL    HW171121   2.388   5.135   5.736 -0.1426  0.7739 -0.9432
22743SOL    HW271122   2.239   5.122   5.759 -0.0740  0.4277 -0.6980
22744SOL     OW71123   1.210   6.704   3.434  0.5816  0.0448 -0.6089
22744SOL    HW171124   1.196   6.791   3.469 -0.9063 -0.0399 -0.9187
22744SOL    HW271125   1.238   6.718   3.344 -0.4456  0.2273 -0.9196
22745SOL     OW71126   1.854   5.176   7.578  0.0584 -0.2410  0.1628
22745SOL    HW171127   1.891   5.109   7.520  3.0400  1.8645 -0.6344
22745SOL    HW271128   1.769   5.197   7.539  0.2554 -1.6431 -1.1282
22746SOL     OW71129   7.186   4.551   1.542  0.2478  0.0283 -0.6970
22746SOL    HW171130   7.240   4.580   1.469  0.7150  0.7278 -0.0846
22746SOL    HW271131   7.220   4.464   1.564  0.6639  0.1688 -0.7715
22747SOL     OW71132   5.632   8.349   0.427  0.6942 -0.6341  0.4219
22747SOL    HW171133   5.621   8.261   0.393  0.1623 -0.6191  0.5446
22747SOL    HW271134   5.723   8.352   0.458  0.0057 -1.9446  2.7163
22748SOL     OW71135   1.331   4.440   4.202  0.1143 -0.1255 -0.0340
22748SOL    HW171136   1.261   4.495   4.236  0.7681  1.5381 -1.2041
22748SOL    HW271137   1.307   4.351   4.227 -1.8027  0.5204  0.5878
22749SOL     OW71138   1.476   0.225   3.651 -0.0239 -0.3758  0.0557
22749SOL    HW171139   1.417   0.187   3.716  0.5232 -1.2211  0.0868
22749SOL    HW271140   1.564   0.199   3.680  0.3019  0.1244 -0.4485
22750SOL     OW71141   7.162   3.912   6.644 -0.7633 -0.4243 -0.0958
22750SOL    HW171142   7.158   3.867   6.559  2.7499  0.1766 -0.7040
22750SOL    HW271143   7.115   3.994   6.630 -0.6547 -0.5510 -1.2869
22751SOL     OW71144   4.370   2.914   3.024 -0.2385  0.2405  0.0351
22751SOL    HW171145   4.443   2.929   3.083 -0.9921  1.2713  0.7391
22751SOL    HW271146   4.295   2.898   3.082 -1.5725  3.8381 -0.4393
22752SOL     OW71147   1.349   3.747   2.418 -0.3589  0.0258 -0.1137
22752SOL    HW171148   1.260   3.779   2.427 -0.7361 -0.8169 -0.6564
22752SOL    HW271149   1.361   3.734   2.324  0.0026 -0.7541  0.0273
22753SOL     OW71150   4.414   3.558   5.727  0.7588  0.2043 -0.5023
22753SOL    HW171151   4.433   3.646   5.759  1.0966  0.2101 -0.7115
22753SOL    HW271152   4.498   3.512   5.731  0.5658 -0.1444 -0.2917
22754SOL     OW71153   2.286   9.169   7.257 -0.1027 -0.4775 -0.3393
22754SOL    HW171154   2.271   9.133   7.170  2.9810 -0.0943 -1.1099
22754SOL    HW271155   2.380   9.181   7.263 -0.3566  0.9188  2.5220
22755SOL     OW71156   3.280   7.473   7.041  0.1314 -0.1057 -0.4592
22755SOL    HW171157   3.268   7.398   6.982  2.1228  0.4110 -1.6174
22755SOL    HW271158   3.354   7.449   7.096 -1.7595 -0.6229  2.0430
22756SOL     OW71159   0.391   2.406   5.089  0.2624  0.0194 -0.0958
22756SOL    HW171160   0.348   2.483   5.128  0.2160 -0.0621  0.0140
22756SOL    HW271161   0.483   2.432   5.079  0.5748 -0.4488  1.3696
22757SOL     OW71162   1.463   7.765   4.283  0.4349 -0.1811 -0.8684
22757SOL    HW171163   1.545   7.735   4.242  0.5332 -3.8964  1.6143
22757SOL    HW271164   1.394   7.717   4.237  0.1724 -1.0253  0.3678
22758SOL     OW71165   1.301   6.640   1.228 -0.6605  0.1360 -0.0740
22758SOL    HW171166   1.271   6.673   1.313 -1.5870 -0.9435  0.0330
22758SOL    HW271167   1.229   6.657   1.168 -0.7196 -0.6918 -0.2516
22759SOL     OW71168   7.494   1.682   3.494  0.0586  0.0487 -0.1688
22759SOL    HW171169   7.457   1.746   3.556  1.2777  1.7973 -1.1513
22759SOL    HW271170   7.582   1.664   3.528  0.6402  0.8257 -1.2015
22760SOL     OW71171   5.085   4.679   8.717 -0.0613 -0.6980 -0.5816
22760SOL    HW171172   5.008   4.705   8.767  1.3701  1.0962  0.8268
22760SOL    HW271173   5.092   4.585   8.732 -0.3517 -0.4266  1.7155
22761SOL     OW71174   2.127   4.573   4.327  0.0503  0.4336 -0.1162
22761SOL    HW171175   2.214   4.566   4.366  0.0717 -1.0676 -0.3871
22761SOL    HW271176   2.068   4.581   4.402  0.3371  0.5026  0.1060
22762SOL     OW71177   4.387   4.230   3.942  0.8359 -0.0103 -0.1021
22762SOL    HW171178   4.304   4.184   3.956  1.4884 -1.2357 -0.0914
22762SOL    HW271179   4.422   4.191   3.861 -0.0694  2.7497 -1.9508
22763SOL     OW71180   5.969   7.562   5.102 -0.8874  0.2536  0.9036
22763SOL    HW171181   5.875   7.545   5.101 -0.4693 -2.3368  0.7593
22763SOL    HW271182   6.010   7.479   5.078  1.4619  1.2926  0.9740
22764SOL     OW71183   0.802   2.597   8.117  0.2987  0.7099  0.0718
22764SOL    HW171184   0.765   2.636   8.196 -1.1798 -0.3424 -0.0767
22764SOL    HW271185   0.849   2.669   8.075  4.3033  0.6035  3.6466
22765SOL     OW71186   9.038   1.810   6.053  0.0251  0.1921 -0.0496
22765SOL    HW171187   8.954   1.780   6.020  0.4903  0.9680 -2.1207
22765SOL    HW271188   9.097   1.735   6.042 -0.3180 -0.3045  1.2696
22766SOL     OW71189   7.617   1.352   4.590  0.1844 -0.1339 -0.0075
22766SOL    HW171190   7.682   1.340   4.660 -0.0823  0.4487  0.3536
22766SOL    HW271191   7.610   1.266   4.549  1.7893 -0.0150 -0.5989
22767SOL     OW71192   0.389   4.704   8.483  0.5078  0.6401  0.7873
22767SOL    HW171193   0.421   4.745   8.402  0.6858  0.8894  0.9825
22767SOL    HW271194   0.428   4.617   8.483  0.9410  0.8330  0.8726
22768SOL     OW71195   2.731   2.242   3.811 -0.3898 -0.5711  0.3108
22768SOL    HW171196   2.712   2.333   3.790  1.3768 -0.5001 -1.2018
22768SOL    HW271197   2.745   2.242   3.906 -2.0521  0.3781  0.6021
22769SOL     OW71198   8.119   8.379   3.137 -0.3188  0.3681 -0.0137
22769SOL    HW171199   8.081   8.297   3.105  0.1508  0.8636 -1.9735
22769SOL    HW271200   8.192   8.351   3.193 -1.6844 -0.5410  1.3782
22770SOL     OW71201   6.268   0.045   2.348 -0.2455 -0.1794 -0.2841
22770SOL    HW171202   6.270   0.107   2.421 -1.6273 -0.7058  0.2261
22770SOL    HW271203   6.312  -0.033   2.381 -0.4099 -0.2334 -0.1926
22771SOL     OW71204   5.891   6.221   9.250 -0.2886  0.5031 -0.3876
22771SOL    HW171205   5.798   6.240   9.235 -0.4398  0.7371  0.7536
22771SOL    HW271206   5.893   6.128   9.273 -0.2737  0.5693 -0.1220
22772SOL     OW71207   9.132   4.989   6.031  0.3655  0.0429  0.6021
22772SOL    HW171208   9.126   5.050   6.104 -0.6084 -0.6041  1.0885
22772SOL    HW271209   9.215   5.010   5.988 -0.4312  2.3926  0.1191
22773SOL     OW71210   0.982   6.827   4.065 -0.5679 -0.1084 -0.2643
22773SOL    HW171211   0.941   6.885   4.129  0.1777  1.4190 -1.1225
22773SOL    HW271212   1.076   6.836   4.081 -0.4437 -1.8123  0.1793
22774SOL     OW71213   7.434   4.608   8.261  0.2660  0.3083 -0.2579
22774SOL    HW171214   7.353   4.594   8.311 -0.2574 -0.9962 -1.4183
22774SOL    HW271215   7.499   4.630   8.328 -0.9145  0.8863  0.7516
22775SOL     OW71216   7.660   6.940   6.837 -0.5204  0.2513 -0.3686
22775SOL    HW171217   7.642   6.914   6.927  0.0485 -0.4793 -0.4527
22775SOL    HW271218   7.754   6.924   6.826 -0.4617  0.9110 -0.9097
22776SOL     OW71219   8.163   4.280   5.326 -0.0439  0.1869  0.1889
22776SOL    HW171220   8.100   4.330   5.274  1.4925  0.0008 -1.9971
22776SOL    HW271221   8.235   4.342   5.341  0.4052 -0.3713  0.3532
22777SOL     OW71222   6.302   1.461   8.074  0.1360 -0.2459  0.0523
22777SOL    HW171223   6.291   1.387   8.015 -0.0514 -0.7655  0.7249
22777SOL    HW271224   6.396   1.461   8.095 -0.0550 -1.0103  0.9563
22778SOL     OW71225   6.355   3.918   4.325 -0.1134  0.9893 -0.0876
22778SOL    HW171226   6.336   3.835   4.280  2.0817 -0.5123  1.5530
22778SOL    HW271227   6.279   3.932   4.381 -0.0015 -0.5969  0.5145
22779SOL     OW71228   0.749   6.209   1.331  0.4811  0.4888  0.0571
22779SOL    HW171229   0.730   6.268   1.404  2.8410  1.6318 -0.1843
22779SOL    HW271230   0.744   6.121   1.369 -1.1543  0.8948  0.8784
22780SOL     OW71231   1.521   6.121   5.879 -0.4397  0.3560 -0.7449
22780SOL    HW171232   1.541   6.182   5.808  0.7676 -1.7197 -2.3250
22780SOL    HW271233   1.558   6.162   5.957  1.2648  1.1817 -1.9197
22781SOL     OW71234   1.517   4.417   6.822 -0.1264  0.4294 -0.4862
22781SOL    HW171235   1.523   4.330   6.861 -1.2469 -0.2407 -1.6883
22781SOL    HW271236   1.563   4.409   6.738 -1.6531  0.4672 -1.3714
22782SOL     OW71237   1.218   9.142   7.235  0.0705  0.7558 -0.1318
22782SOL    HW171238   1.153   9.102   7.293  0.2829  0.5629 -0.0302
22782SOL    HW271239   1.285   9.076   7.224 -0.0469  0.7288 -0.7282
22783SOL     OW71240   8.960   2.297   3.541  0.2158  0.0857 -0.3072
22783SOL    HW171241   8.886   2.241   3.564 -0.9017  1.7037  0.1954
22783SOL    HW271242   8.941   2.326   3.452  1.8948 -1.9696 -1.4442
22784SOL     OW71243   8.717   3.337   4.856  0.2186  0.2225 -0.0643
22784SOL    HW171244   8.782   3.284   4.811 -0.1591  1.5518 -2.3345
22784SOL    HW271245   8.639   3.333   4.801 -1.2298 -0.2128  1.8762
22785SOL     OW71246   2.902   0.743   8.622  0.2216  0.5570  0.3784
22785SOL    HW171247   2.890   0.746   8.717 -0.8350 -0.4362  0.3059
22785SOL    HW271248   2.813   0.752   8.588  0.4933  0.0100 -0.4853
22786SOL     OW71249   3.068   2.191   4.520  0.7326 -0.5224  0.3517
22786SOL    HW171250   3.105   2.164   4.604  0.7183 -0.7008  0.3012
22786SOL    HW271251   3.022   2.273   4.539  0.4336 -0.7435  0.5897
22787SOL     OW71252   2.802   3.020   4.697 -0.3893 -0.1339 -0.3795
22787SOL    HW171253   2.728   3.013   4.757 -1.1332 -1.7006 -1.4098
22787SOL    HW271254   2.866   3.073   4.744 -1.0097 -1.1200  1.6843
22788SOL     OW71255   3.003   5.664   1.461 -0.2583 -0.1111  0.0142
22788SOL    HW171256   2.913   5.660   1.493 -0.6159  0.2787 -0.9120
22788SOL    HW271257   3.025   5.573   1.443 -0.1441 -0.3064  1.0960
22789SOL     OW71258   5.765   2.745   4.990 -0.4021 -0.4495  0.0079
22789SOL    HW171259   5.837   2.698   5.031 -1.4855 -2.6799 -0.4936
22789SOL    HW271260   5.686   2.695   5.013 -1.6425  1.1444 -0.5520
22790SOL     OW71261   7.001   7.753   0.755 -0.0306  0.2824  0.0714
22790SOL    HW171262   7.064   7.825   0.754 -0.4350  0.6793 -1.9234
22790SOL    HW271263   6.982   7.738   0.662 -1.2328 -1.2763  0.5416
22791SOL     OW71264   8.761   0.594   8.543  0.0627  0.0144  0.7630
22791SOL    HW171265   8.756   0.689   8.528  0.1019 -0.4547 -3.2118
22791SOL    HW271266   8.720   0.555   8.466  0.7147 -3.2558  1.9144
22792SOL     OW71267   0.461   8.540   3.252  0.1900 -0.2574  0.1105
22792SOL    HW171268   0.468   8.469   3.316 -0.4435 -0.6162 -0.2101
22792SOL    HW271269   0.474   8.496   3.168  0.5038  0.1278 -0.0423
22793SOL     OW71270   2.597   6.693   7.594 -0.2391  0.0424  0.1825
22793SOL    HW171271   2.622   6.708   7.686 -0.9246 -0.8321  0.5199
22793SOL    HW271272   2.656   6.751   7.544  0.1130  0.5640  1.1669
22794SOL     OW71273   6.349   7.847   4.789 -0.0454 -0.2922 -0.4707
22794SOL    HW171274   6.279   7.910   4.806  0.5214  0.0660  0.6281
22794SOL    HW271275   6.355   7.843   4.693  0.2920  1.7612 -0.5736
22795SOL     OW71276   5.001   0.752   2.984 -0.7790  0.2290  0.1271
22795SOL    HW171277   5.068   0.780   3.047 -2.7932  1.1652  2.0303
22795SOL    HW271278   5.037   0.774   2.899  1.2852  0.7664  1.0666
22796SOL     OW71279   4.421   5.135   5.060 -0.3663 -0.4290  0.1174
22796SOL    HW171280   4.485   5.069   5.087 -0.6253 -1.5735 -1.8571
22796SOL    HW271281   4.398   5.111   4.970 -0.2901  2.5353 -0.8000
22797SOL     OW71282   7.939   3.387   7.147  0.0065 -0.4389  0.2375
22797SOL    HW171283   7.916   3.310   7.198  1.0742 -2.3520 -2.0045
22797SOL    HW271284   8.025   3.413   7.181  0.2995 -1.1316  0.0427
22798SOL     OW71285   8.448   4.485   5.970 -0.3376  0.0579 -0.1683
22798SOL    HW171286   8.474   4.569   5.931 -0.7453  1.4744  2.4137
22798SOL    HW271287   8.523   4.428   5.953  1.1489  1.7569  0.3319
22799SOL     OW71288   7.269   8.980   7.198 -0.6041  0.3547 -0.2805
22799SOL    HW171289   7.256   9.073   7.215 -0.7118 -0.0715  2.3573
22799SOL    HW271290   7.262   8.972   7.102  1.4020  3.3290 -0.8093
22800SOL     OW71291   6.656   6.304   8.858 -0.6492  0.1895  0.3351
22800SOL    HW171292   6.692   6.261   8.935 -0.5910 -0.9183 -0.2941
22800SOL    HW271293   6.709   6.272   8.785 -0.9701  0.8914 -0.2240
22801SOL     OW71294   1.659   2.857   4.913  0.1740 -0.0114  0.2603
22801SOL    HW171295   1.592   2.803   4.957  0.3220 -1.1610 -0.8865
22801SOL    HW271296   1.669   2.818   4.827  1.9861  0.4492  0.2237
22802SOL     OW71297   1.286   7.643   1.819 -0.0464 -0.1235  0.1808
22802SOL    HW171298   1.214   7.672   1.876 -0.2572  0.7941 -0.5305
22802SOL    HW271299   1.350   7.714   1.823 -0.4265  0.3373 -1.3376
22803SOL     OW71300   4.981   3.859   7.768 -0.1533 -0.1728  0.6940
22803SOL    HW171301   5.013   3.937   7.722 -1.1203 -0.9322 -1.3890
22803SOL    HW271302   5.053   3.796   7.762 -1.2435 -1.3203 -2.5843
22804SOL     OW71303   0.608   2.733   2.515  0.2539 -0.2251  0.4964
22804SOL    HW171304   0.516   2.758   2.512  0.4254  0.4237  0.5424
22804SOL    HW271305   0.650   2.791   2.451  0.7213 -0.1235  0.8938
22805SOL     OW71306   3.042   8.555   5.396 -0.4492 -0.1467 -0.1513
22805SOL    HW171307   2.983   8.630   5.392 -0.0041  0.1846 -0.6941
22805SOL    HW271308   3.015   8.499   5.323 -0.2050 -0.0786 -0.2943
22806SOL     OW71309   6.797   0.744   8.470  0.1898  0.1311 -0.1815
22806SOL    HW171310   6.826   0.710   8.386  2.3302  1.6504 -0.1512
22806SOL    HW271311   6.877   0.776   8.512 -1.1153  1.5008  1.4403
22807SOL     OW71312   7.669   5.504   3.994 -0.4224  0.3530 -0.1029
22807SOL    HW171313   7.658   5.443   3.921 -0.4194  0.4189 -0.1579
22807SOL    HW271314   7.582   5.510   4.034  0.1143 -1.9239  1.6729
22808SOL     OW71315   2.967   2.069   5.736 -0.0245  0.3190 -0.2828
22808SOL    HW171316   2.988   2.130   5.808  1.6419  1.0530 -1.3140
22808SOL    HW271317   3.010   2.108   5.660 -3.3144  0.5789 -2.1594
22809SOL     OW71318   6.954   6.539   2.601 -0.0878 -0.4845 -0.4195
22809SOL    HW171319   7.026   6.600   2.612  0.7031 -1.4657  0.0296
22809SOL    HW271320   6.903   6.546   2.681  0.2531 -0.7190 -0.1789
22810SOL     OW71321   6.554   8.667   4.253 -0.0935  0.0275 -0.6307
22810SOL    HW171322   6.574   8.638   4.164  0.8710  0.1810 -0.4749
22810SOL    HW271323   6.622   8.731   4.273 -0.2275 -0.0964  0.2706
22811SOL     OW71324   4.843   4.038   6.320  0.1576 -0.1562  0.2223
22811SOL    HW171325   4.771   4.010   6.264  0.0486 -1.2054  0.8617
22811SOL    HW271326   4.894   4.097   6.265 -0.3848 -0.5413 -0.7200
22812SOL     OW71327   8.817   3.436   0.296 -0.1719 -0.1076  0.4448
22812SOL    HW171328   8.797   3.349   0.263 -0.8280  0.1757  0.0662
22812SOL    HW271329   8.890   3.466   0.242 -1.7459  0.6722 -1.3935
22813SOL     OW71330   7.523   9.021   5.746  0.1719  0.0099  0.0133
22813SOL    HW171331   7.564   9.106   5.760 -0.8784  0.8226 -1.5627
22813SOL    HW271332   7.429   9.039   5.754 -0.1704 -0.5927 -2.1306
22814SOL     OW71333   4.705   3.277   7.994 -0.5107 -0.4833  0.5454
22814SOL    HW171334   4.755   3.358   7.990 -1.7622  0.4174  1.8300
22814SOL    HW271335   4.617   3.305   8.022 -1.7223 -1.9927 -1.4615
22815SOL     OW71336   1.797   4.392   2.543 -0.3446 -0.3586  0.6295
22815SOL    HW171337   1.890   4.371   2.534 -0.5761 -1.8090  1.3068
22815SOL    HW271338   1.767   4.337   2.615 -1.7209  0.1612  0.4886
22816SOL     OW71339   1.790   3.052   2.236  0.3060 -0.2574 -0.0001
22816SOL    HW171340   1.856   3.010   2.292  0.6219  0.2771  0.0345
22816SOL    HW271341   1.746   3.114   2.293 -1.5411 -1.9241  0.4891
22817SOL     OW71342   4.938   1.002   3.448  0.1459  0.3574 -0.7292
22817SOL    HW171343   4.875   0.931   3.438  0.7230 -0.1799 -0.6233
22817SOL    HW271344   4.913   1.066   3.381  0.6946 -0.7522 -2.0471
22818SOL     OW71345   2.271   0.812   1.366 -0.0772  0.5811  1.1133
22818SOL    HW171346   2.277   0.722   1.333 -2.6823  0.0222  1.9304
22818SOL    HW271347   2.256   0.865   1.288  1.6756  0.3801  0.5998
22819SOL     OW71348   4.801   3.374   0.874 -0.3553  0.4871  0.5005
22819SOL    HW171349   4.792   3.280   0.891  0.4003  0.2173 -0.4783
22819SOL    HW271350   4.777   3.383   0.781  0.9473  1.0339  0.2024
22820SOL     OW71351   2.200   2.423   2.597 -0.0780  0.2872 -0.3304
22820SOL    HW171352   2.284   2.396   2.632  0.2110  0.9824 -0.4673
22820SOL    HW271353   2.149   2.449   2.673 -0.7419 -1.5869 -0.0787
22821SOL     OW71354   1.240   7.265   3.978 -0.6340 -0.2738  0.6922
22821SOL    HW171355   1.256   7.314   3.897  2.0591 -1.6028  0.3211
22821SOL    HW271356   1.167   7.311   4.019 -1.1468  1.3177 -1.7725
22822SOL     OW71357   6.925   6.173   3.343 -0.3347  0.8180  0.5901
22822SOL    HW171358   6.917   6.180   3.438 -0.3057  1.3490  0.5536
22822SOL    HW271359   7.002   6.226   3.321  1.5914 -1.7780  0.6040
22823SOL     OW71360   5.801   7.302   5.803  0.1747  0.2249  0.1109
22823SOL    HW171361   5.820   7.243   5.730 -2.2083  0.3049 -0.6377
22823SOL    HW271362   5.861   7.376   5.789  1.0763 -0.6175 -0.6689
22824SOL     OW71363   3.714   5.407   4.062 -0.5904  0.4774  0.2071
22824SOL    HW171364   3.746   5.485   4.108 -0.0237  0.3647  0.0008
22824SOL    HW271365   3.785   5.344   4.068 -1.1463 -0.1300  0.6036
22825SOL     OW71366   5.042   5.252   6.393 -0.2145  0.6515 -0.1961
22825SOL    HW171367   5.056   5.301   6.312  0.0491 -2.4714 -2.1912
22825SOL    HW271368   5.127   5.215   6.414 -0.7262 -0.2611  0.3343
22826SOL     OW71369   0.711   2.570   7.406 -0.2295 -0.4814 -0.5421
22826SOL    HW171370   0.706   2.664   7.387 -0.1697 -0.5062 -0.6822
22826SOL    HW271371   0.764   2.534   7.335  0.4640 -0.4969 -0.0208
22827SOL     OW71372   7.990   3.768   0.763 -0.3568 -0.4412 -0.4852
22827SOL    HW171373   8.016   3.692   0.814  1.1895 -0.9990 -2.0040
22827SOL    HW271374   8.069   3.821   0.755 -0.9366  0.3813 -1.0331
22828SOL     OW71375   4.800   7.897   1.428  0.0947 -0.3839 -0.0869
22828SOL    HW171376   4.753   7.969   1.470 -1.0924 -0.9089 -0.4687
22828SOL    HW271377   4.860   7.865   1.496  2.2319  2.2855 -0.5751
22829SOL     OW71378   7.647   3.653   1.351  0.0914 -0.3074  0.2199
22829SOL    HW171379   7.684   3.740   1.361  0.0153 -0.3677  1.1155
22829SOL    HW271380   7.596   3.657   1.270 -0.4261  0.6614  0.5835
22830SOL     OW71381   2.365   8.812   3.391 -0.4788  0.0551 -0.5465
22830SOL    HW171382   2.331   8.888   3.437 -1.3186 -0.4440 -0.3163
22830SOL    HW271383   2.384   8.748   3.461 -0.7811 -0.3303 -0.8144
22831SOL     OW71384   8.702   3.680   0.171 -0.1774 -0.5670 -0.3065
22831SOL    HW171385   8.690   3.770   0.200 -0.9278 -0.7054 -0.1761
22831SOL    HW271386   8.715   3.631   0.252 -1.6450 -0.8561 -0.2222
22832SOL     OW71387   0.187   3.701   4.820 -0.0571  0.1039  0.0102
22832SOL    HW171388   0.257   3.696   4.884  0.3980 -1.2587 -0.5613
22832SOL    HW271389   0.119   3.643   4.854  0.5852 -1.4145 -1.1641
22833SOL     OW71390   2.148   8.730   6.748  0.4892  0.5491  0.1649
22833SOL    HW171391   2.076   8.666   6.745 -0.0136  1.0310  1.3601
22833SOL    HW271392   2.110   8.806   6.792  1.8960  0.5789  1.3862
22834SOL     OW71393   6.102   5.734   1.524  0.6883 -0.0301  0.0359
22834SOL    HW171394   6.056   5.698   1.600  1.5722 -0.1690  0.5132
22834SOL    HW271395   6.035   5.736   1.455 -0.1803  0.2989  0.8678
22835SOL     OW71396   1.442   3.589   7.415  0.1122 -0.2123  0.3876
22835SOL    HW171397   1.537   3.581   7.405 -0.1220 -1.6644 -1.0060
22835SOL    HW271398   1.415   3.649   7.346 -0.0645 -0.2931  0.3861
22836SOL     OW71399   7.033   2.000   8.542  0.2667  0.6365  0.0451
22836SOL    HW171400   7.006   2.078   8.495 -0.2030  0.6417  0.3222
22836SOL    HW271401   7.118   2.022   8.579 -0.0661  1.1721  0.4992
22837SOL     OW71402   0.215   7.619   9.140  0.0158  0.6647  0.5226
22837SOL    HW171403   0.267   7.655   9.069  0.9104  0.1204  0.8868
22837SOL    HW271404   0.279   7.579   9.199 -0.5983  1.9764  2.1466
22838SOL     OW71405   1.700   3.994   6.051 -0.0337  0.1793 -0.3357
22838SOL    HW171406   1.702   4.080   6.009  1.1355 -0.4329 -1.6189
22838SOL    HW271407   1.742   4.008   6.136 -1.5678  1.2389  0.2935
22839SOL     OW71408   7.134   6.569   1.053  0.2050  0.3737 -0.3989
22839SOL    HW171409   7.105   6.479   1.063 -2.0689  1.1433  0.6387
22839SOL    HW271410   7.229   6.563   1.040  0.0034 -2.1684 -1.1501
22840SOL     OW71411   6.923   8.592   0.802 -0.2035 -0.0611 -0.6219
22840SOL    HW171412   6.998   8.559   0.851 -0.1726  1.4744  0.4372
22840SOL    HW271413   6.850   8.537   0.830  0.1912 -0.4418 -0.3281
22841SOL     OW71414   4.214   5.936   2.178 -0.2657 -0.4601  0.4385
22841SOL    HW171415   4.226   5.885   2.097  0.8473 -0.3264  0.4956
22841SOL    HW271416   4.178   5.874   2.241  0.8430 -1.1314  0.4346
22842SOL     OW71417   6.541   0.050   3.219  0.1840  0.3249 -0.1865
22842SOL    HW171418   6.554   0.121   3.282 -1.8121  1.0734 -0.5231
22842SOL    HW271419   6.629   0.020   3.198  0.9455  0.2359  2.7195
22843SOL     OW71420   8.644   4.286   5.984 -0.0535  0.1985 -0.9791
22843SOL    HW171421   8.664   4.259   5.894  1.2893  0.1943 -0.6965
22843SOL    HW271422   8.724   4.267   6.033  0.2551  2.7469 -0.3379
22844SOL     OW71423   4.849   7.359   6.224  0.2868 -0.2892 -0.2719
22844SOL    HW171424   4.775   7.415   6.200  0.0114 -0.3337  0.4641
22844SOL    HW271425   4.879   7.323   6.140  0.1708  0.5761 -0.7039
22845SOL     OW71426   1.005   5.587   2.197  0.4167  0.3217  0.2250
22845SOL    HW171427   0.943   5.544   2.256  0.2328 -1.1057 -0.9595
22845SOL    HW271428   0.951   5.649   2.147  0.3507  0.6024  0.6291
22846SOL     OW71429   4.977   8.929   7.244 -0.4245  0.1138 -0.2520
22846SOL    HW171430   5.050   8.882   7.284 -2.4593 -0.8811  2.6047
22846SOL    HW271431   4.986   8.911   7.150  1.7405 -1.7761  0.2287
22847SOL     OW71432   0.921   4.988   1.142 -0.1450 -0.3230 -0.2890
22847SOL    HW171433   0.988   4.983   1.074  0.9753 -2.8636  0.8892
22847SOL    HW271434   0.969   5.006   1.222 -1.1148 -0.3056  0.3117
22848SOL     OW71435   6.690   6.532   3.267  0.2863  0.0117  0.2221
22848SOL    HW171436   6.684   6.462   3.202  0.4894  0.4174 -0.2363
22848SOL    HW271437   6.714   6.487   3.348 -2.3451 -0.8294  0.6297
22849SOL     OW71438   7.223   5.691   4.544  0.2070  0.2449 -0.0149
22849SOL    HW171439   7.214   5.774   4.590  0.1055 -0.7355  1.8052
22849SOL    HW271440   7.220   5.625   4.612  1.1265 -1.2332 -1.3377
22850SOL     OW71441   2.791   6.632   5.419 -0.2052 -0.0445  0.0760
22850SOL    HW171442   2.854   6.619   5.349 -0.5966  0.2915 -0.3481
22850SOL    HW271443   2.762   6.723   5.409  0.8214  0.4784  1.5888
22851SOL     OW71444   2.530   6.878   8.724  0.0625  0.1657  0.7688
22851SOL    HW171445   2.539   6.836   8.809 -0.2231  0.7229  1.0857
22851SOL    HW271446   2.538   6.972   8.743  2.0378  0.2212 -0.0894
22852SOL     OW71447   5.405   6.821   1.671  0.6961  0.1213  0.8573
22852SOL    HW171448   5.405   6.903   1.721 -0.1521  1.5009 -1.2623
22852SOL    HW271449   5.327   6.775   1.700 -0.5400  1.5268 -0.0464
22853SOL     OW71450   4.384   8.364   6.759  0.0243  0.1785 -0.1205
22853SOL    HW171451   4.469   8.335   6.794  0.9953  0.4409 -2.0978
22853SOL    HW271452   4.337   8.283   6.739  0.0511  0.0281  0.4067
22854SOL     OW71453   8.911   0.426   7.730  0.2210  0.3414  0.4446
22854SOL    HW171454   8.934   0.360   7.796 -0.8683 -0.3001  0.2123
22854SOL    HW271455   8.817   0.414   7.716  0.0465  1.8179  0.2300
22855SOL     OW71456   2.923   2.117   7.728 -0.1562  0.1637 -0.4727
22855SOL    HW171457   2.872   2.106   7.648  0.9122 -1.7737 -0.9475
22855SOL    HW271458   3.006   2.153   7.699  0.0455 -0.0627 -0.1869
22856SOL     OW71459   0.178   8.369   8.255 -0.6995  0.1837 -0.1484
22856SOL    HW171460   0.121   8.375   8.178 -0.4424  1.0417 -0.2865
22856SOL    HW271461   0.145   8.294   8.304 -0.3580 -0.8907 -1.5058
22857SOL     OW71462   8.789   0.527   5.667  0.1770 -0.5606  0.6144
22857SOL    HW171463   8.822   0.449   5.622  0.5993  0.6488 -1.2664
22857SOL    HW271464   8.704   0.500   5.702 -0.4837 -1.3792 -1.5025
22858SOL     OW71465   5.530   1.186   8.903  0.4253 -0.2062 -0.3301
22858SOL    HW171466   5.545   1.091   8.911 -3.3055 -0.8366  1.1379
22858SOL    HW271467   5.488   1.211   8.985 -1.6549  2.0129 -1.9229
22859SOL     OW71468   7.379   8.480   8.355  0.1324 -0.0197  0.3751
22859SOL    HW171469   7.339   8.510   8.436  2.0525 -1.7751  2.0992
22859SOL    HW271470   7.363   8.386   8.353 -2.4386  0.2844 -2.9252
22860SOL     OW71471   7.215   6.771   2.141  0.2017  0.4236 -1.0260
22860SOL    HW171472   7.173   6.804   2.062  0.9169 -0.8576 -1.9707
22860SOL    HW271473   7.289   6.719   2.110  0.9182  0.4506  0.5121
22861SOL     OW71474   5.266   7.996   0.629 -0.0314  0.0311  0.3282
22861SOL    HW171475   5.251   7.961   0.717 -0.2848  0.6527  0.5385
22861SOL    HW271476   5.348   8.044   0.636 -0.5032  0.8454  0.4707
22862SOL     OW71477   2.651   4.021   8.899  0.2903 -0.4788 -0.2885
22862SOL    HW171478   2.746   4.010   8.905  0.2151 -0.4930  1.6194
22862SOL    HW271479   2.636   4.055   8.811  1.9337 -1.6178 -1.0507
22863SOL     OW71480   4.346   9.247   1.055  0.3330 -0.7923 -0.0058
22863SOL    HW171481   4.268   9.255   1.000  0.5868 -0.3467 -0.3058
22863SOL    HW271482   4.419   9.272   0.997  0.4719  1.0807  0.9253
22864SOL     OW71483   5.758   1.257   6.933 -0.8022  0.3330  0.0375
22864SOL    HW171484   5.802   1.334   6.898 -0.0726 -0.8007 -1.6700
22864SOL    HW271485   5.771   1.263   7.028  1.3845  1.0125 -0.2636
22865SOL     OW71486   3.324   8.238   7.368  0.3028  0.0231 -0.0026
22865SOL    HW171487   3.236   8.227   7.331  0.5284  0.4688 -0.6873
22865SOL    HW271488   3.329   8.332   7.389  1.0361  0.2460 -1.0829
22866SOL     OW71489   4.361   6.197   2.370 -0.0307 -0.9959  0.2776
22866SOL    HW171490   4.327   6.117   2.330  0.9522 -0.8676 -0.8587
22866SOL    HW271491   4.452   6.177   2.391  0.2658 -0.1409 -0.1543
22867SOL     OW71492   3.520   0.285   7.530  0.3424  0.4581 -0.1700
22867SOL    HW171493   3.601   0.329   7.557  0.5933 -1.3400  2.3540
22867SOL    HW271494   3.484   0.342   7.462  3.6396  1.3868 -1.3400
22868SOL     OW71495   8.128   0.607   7.371 -0.6440 -0.1185 -0.6422
22868SOL    HW171496   8.146   0.650   7.455  2.5826 -1.6220 -0.4425
22868SOL    HW271497   8.033   0.594   7.372 -0.9499  1.3949  2.0071
22869SOL     OW71498   4.661   0.472   1.989  0.5985 -0.1036 -0.0704
22869SOL    HW171499   4.719   0.399   1.970  0.7893 -0.6450  2.3208
22869SOL    HW271500   4.696   0.511   2.069 -1.1050  0.8603  0.2625
22870SOL     OW71501   6.232   8.117   5.528 -0.4034  0.2999  0.0926
22870SOL    HW171502   6.191   8.030   5.526  0.7222 -0.2546 -2.3698
22870SOL    HW271503   6.292   8.113   5.603 -0.2315 -1.1215 -0.0953
22871SOL     OW71504   8.425   4.401   6.505 -0.2704  0.7716 -0.1949
22871SOL    HW171505   8.385   4.393   6.419  0.3215 -2.4064 -0.2908
22871SOL    HW271506   8.376   4.341   6.561 -1.4469  3.6504  2.1408
22872SOL     OW71507   0.517   0.514   3.227 -0.1381  0.4089 -0.2252
22872SOL    HW171508   0.565   0.548   3.302 -0.2311  0.7748 -0.3317
22872SOL    HW271509   0.505   0.590   3.170  0.4702  0.0182 -0.8974
22873SOL     OW71510   9.161   8.622   8.262  0.1594 -0.1945  0.3208
22873SOL    HW171511   9.227   8.634   8.330 -0.5209  0.4620  0.8832
22873SOL    HW271512   9.209   8.633   8.180  0.7895  0.0336  0.7111
22874SOL     OW71513   7.830   7.583   6.242 -0.1878  0.2907  0.3234
22874SOL    HW171514   7.736   7.564   6.239 -0.2364  0.6654 -0.7431
22874SOL    HW271515   7.835   7.671   6.280 -0.3499  0.7589 -0.7123
22875SOL     OW71516   5.464   4.699   5.603  0.5265 -0.8878  0.0624
22875SOL    HW171517   5.495   4.730   5.518 -1.2026 -0.0446 -0.2948
22875SOL    HW271518   5.387   4.646   5.583 -0.6879  0.3920  1.1649
22876SOL     OW71519   0.439   3.175   4.892  0.3991 -0.4550  0.6309
22876SOL    HW171520   0.389   3.224   4.827  0.4720 -1.6131 -0.3442
22876SOL    HW271521   0.400   3.199   4.976 -1.0755 -0.4962 -0.0097
22877SOL     OW71522   8.288   3.917   4.803  0.0958  0.5232 -0.2184
22877SOL    HW171523   8.373   3.874   4.793  0.4711  1.1817  0.0998
22877SOL    HW271524   8.288   3.986   4.737 -0.5487 -0.0026 -0.7950
22878SOL     OW71525   8.143   4.631   6.199  0.3206 -0.2259 -0.2653
22878SOL    HW171526   8.119   4.713   6.241  0.1478  0.0106 -0.8189
22878SOL    HW271527   8.111   4.563   6.259 -2.1245  0.0560 -1.1345
22879SOL     OW71528   3.921   7.777   6.238 -0.3561 -0.0776 -0.2294
22879SOL    HW171529   3.827   7.758   6.229 -0.0194 -1.8986 -0.2280
22879SOL    HW271530   3.948   7.803   6.150 -0.3831 -2.0195 -0.8612
22880SOL     OW71531   3.149   1.059   3.558 -0.8103  0.0662 -0.2294
22880SOL    HW171532   3.124   1.066   3.651  1.2377 -0.4853  0.4130
22880SOL    HW271533   3.204   0.981   3.554 -1.7896 -0.5836 -2.1604
22881SOL     OW71534   0.449   7.452   6.003 -0.8390  0.9180 -0.5961
22881SOL    HW171535   0.384   7.383   6.015 -0.9437  0.9269 -1.1108
22881SOL    HW271536   0.460   7.490   6.091  0.5212 -0.8904  0.0627
22882SOL     OW71537   0.559   1.343   3.799  0.0725  0.8105 -0.0167
22882SOL    HW171538   0.484   1.285   3.816  0.7407 -0.3822 -1.0002
22882SOL    HW271539   0.525   1.431   3.814 -1.1857  0.2117  0.7658
22883SOL     OW71540   4.527   6.920   4.969  0.1437 -0.3207  0.0151
22883SOL    HW171541   4.545   6.826   4.966 -0.8653 -0.5163 -0.2568
22883SOL    HW271542   4.473   6.933   5.047 -0.1214 -0.0434 -0.2095
22884SOL     OW71543   4.028   4.591   2.852 -0.0586 -0.4093  0.0548
22884SOL    HW171544   4.013   4.498   2.839 -0.0552 -0.1847 -1.6938
22884SOL    HW271545   4.041   4.627   2.765  0.2086  1.1974  0.7078
22885SOL     OW71546   2.595   8.850   9.034  0.1329 -0.3749  0.1971
22885SOL    HW171547   2.597   8.884   9.124 -0.0234  0.6173 -0.1634
22885SOL    HW271548   2.676   8.799   9.026  2.1478  2.6160 -0.2468
22886SOL     OW71549   5.342   4.879   6.974  0.0725  0.0135  0.3804
22886SOL    HW171550   5.307   4.814   7.034 -1.4317 -0.4665 -0.9494
22886SOL    HW271551   5.400   4.829   6.915 -0.1671  0.0843  0.0818
22887SOL     OW71552   4.479   9.060   6.513 -0.1540 -0.4587  0.1525
22887SOL    HW171553   4.562   9.026   6.544  0.5198  1.7991  1.0092
22887SOL    HW271554   4.481   9.047   6.418  0.6479 -1.4434  0.2879
22888SOL     OW71555   6.709   6.971   0.723  0.6200  0.0025  0.3587
22888SOL    HW171556   6.705   6.889   0.772  1.7846  0.6185  1.5700
22888SOL    HW271557   6.717   6.944   0.631 -0.2432 -1.2076  0.6123
22889SOL     OW71558   3.439   7.066   1.292 -0.3343  0.1578  0.0757
22889SOL    HW171559   3.359   7.100   1.254 -1.1196 -1.3363  0.3071
22889SOL    HW271560   3.500   7.140   1.291 -1.7166  1.3407 -0.0601
22890SOL     OW71561   7.518   1.922   2.472 -0.3607 -0.0668 -0.3766
22890SOL    HW171562   7.541   1.951   2.561 -0.8745  0.9507 -0.5532
22890SOL    HW271563   7.480   1.835   2.484  1.0155 -0.6149  0.2150
22891SOL     OW71564   8.130   2.041   2.257 -0.4738 -0.1908 -0.4646
22891SOL    HW171565   8.170   2.128   2.247  0.8906 -0.5802  1.0970
22891SOL    HW271566   8.065   2.053   2.327  0.4890 -0.6287  0.5320
22892SOL     OW71567   5.561   0.531   5.683  0.2540  0.4741  0.1283
22892SOL    HW171568   5.637   0.549   5.739  0.1141 -0.7944  0.7662
22892SOL    HW271569   5.518   0.616   5.673  0.3980  0.7770  1.7867
22893SOL     OW71570   0.214   1.939   9.183 -0.1326 -0.0418  0.0203
22893SOL    HW171571   0.240   1.885   9.258  0.9505  0.7757  0.2619
22893SOL    HW271572   0.247   1.891   9.107  1.0566  0.3830  0.2492
22894SOL     OW71573   1.761   3.458   5.741 -0.3380 -0.0954 -0.7665
22894SOL    HW171574   1.665   3.457   5.733 -0.5385 -2.7958  0.6406
22894SOL    HW271575   1.777   3.508   5.822 -0.5804  0.0353 -0.7974
22895SOL     OW71576   5.507   2.650   5.299 -0.1248 -0.4404 -0.0389
22895SOL    HW171577   5.533   2.602   5.220 -0.8423 -2.0906  0.6645
22895SOL    HW271578   5.588   2.665   5.347  0.0428 -1.6492  0.0778
22896SOL     OW71579   0.600   2.506   2.342 -0.3640 -0.4391  0.3202
22896SOL    HW171580   0.520   2.530   2.296 -0.7136  0.3067  1.2859
22896SOL    HW271581   0.606   2.568   2.415  1.9755  0.6646 -0.6838
22897SOL     OW71582   3.177   5.667   8.146  0.1061 -0.6265 -0.1147
22897SOL    HW171583   3.162   5.730   8.216 -0.6731 -1.3825  0.4213
22897SOL    HW271584   3.141   5.710   8.068 -0.9093 -0.6124  0.3437
22898SOL     OW71585   8.148   3.810   4.469  0.7021  0.1897 -0.1112
22898SOL    HW171586   8.076   3.857   4.426  1.1464  0.3246 -0.7270
22898SOL    HW271587   8.219   3.874   4.472  1.7497 -0.7795 -2.1214
22899SOL     OW71588   4.717   0.998   4.463  0.9565 -0.0212  0.1385
22899SOL    HW171589   4.663   0.986   4.385 -0.0509 -1.2546  0.9748
22899SOL    HW271590   4.805   0.972   4.435  0.5458 -0.7676 -0.5175
22900SOL     OW71591   5.771   2.936   8.085  0.1337  0.2108 -0.6090
22900SOL    HW171592   5.694   2.914   8.033  0.3530  1.6147 -1.5867
22900SOL    HW271593   5.824   2.990   8.027  1.4636 -0.0296  0.3356
22901SOL     OW71594   8.297   3.160   6.828 -0.7249 -0.2631 -0.3340
22901SOL    HW171595   8.329   3.200   6.909 -0.2307 -0.2071 -0.5524
22901SOL    HW271596   8.290   3.233   6.767  1.2803 -0.6460 -1.0848
22902SOL     OW71597   5.576   8.874   7.655  0.4891  0.0412 -0.1252
22902SOL    HW171598   5.613   8.952   7.616  0.3291  0.3395  0.3154
22902SOL    HW271599   5.483   8.895   7.668  0.6398  0.1379  0.8809
22903SOL     OW71600   7.897   1.042   5.478  0.4434 -0.4526  0.0096
22903SOL    HW171601   7.858   1.063   5.563  0.1689 -0.6051 -0.0789
22903SOL    HW271602   7.966   0.979   5.497 -1.1146 -2.2829 -0.1264
22904SOL     OW71603   7.040   6.968   4.740  0.2320 -0.1328 -0.0561
22904SOL    HW171604   7.112   7.012   4.784 -0.4320  0.7871  0.1311
22904SOL    HW271605   6.994   7.037   4.693 -0.0353 -0.8428 -0.8793
22905SOL     OW71606   6.660   3.349   2.911  0.6322 -0.3470  0.3955
22905SOL    HW171607   6.607   3.352   2.991 -2.4436  0.9107 -1.5329
22905SOL    HW271608   6.698   3.437   2.905 -2.9398  1.2503 -1.7259
22906SOL     OW71609   4.380   5.727   4.138  0.5519 -0.1096  0.1410
22906SOL    HW171610   4.428   5.718   4.221  1.8839  0.5852 -0.5226
22906SOL    HW271611   4.398   5.646   4.090 -2.1929 -1.6269  1.4367
22907SOL     OW71612   3.001   8.378   8.144  0.2310 -0.1219 -0.2617
22907SOL    HW171613   2.969   8.326   8.071  2.0873 -0.5761 -0.8078
22907SOL    HW271614   2.935   8.368   8.212 -1.1031 -0.4057 -1.5474
22908SOL     OW71615   3.872   7.567   0.879 -0.1882 -0.2401 -0.3625
22908SOL    HW171616   3.953   7.588   0.833 -0.8833  0.9828 -1.0588
22908SOL    HW271617   3.831   7.499   0.826 -0.3085  0.1641 -0.7899
22909SOL     OW71618   5.013   1.779   5.979  0.3177 -0.2815  0.0855
22909SOL    HW171619   5.082   1.821   6.031 -0.0730  0.3786  0.0822
22909SOL    HW271620   5.033   1.803   5.889  0.4715 -0.6670  0.0131
22910SOL     OW71621   6.972   1.462   7.816  0.3050 -0.0441 -0.1449
22910SOL    HW171622   7.024   1.432   7.890 -1.3806  4.2219  3.1355
22910SOL    HW271623   7.020   1.539   7.783 -0.2053 -0.4756 -2.0011
22911SOL     OW71624   4.612   5.507   1.570 -0.7603 -0.1814 -0.2075
22911SOL    HW171625   4.703   5.477   1.574 -0.5498  0.5370  0.6035
22911SOL    HW271626   4.605   5.555   1.488 -0.6361 -0.9433 -0.6725
22912SOL     OW71627   8.031   8.697   2.437 -0.1385  0.2177 -0.2728
22912SOL    HW171628   7.998   8.617   2.477  0.9601 -0.1847 -0.1382
22912SOL    HW271629   7.954   8.739   2.400 -0.4613 -2.2555 -2.7547
22913SOL     OW71630   1.073   7.647   2.062  0.4047 -0.3550  0.2961
22913SOL    HW171631   1.080   7.552   2.073 -4.1564 -1.1273 -1.3828
22913SOL    HW271632   1.002   7.673   2.120  0.9982  1.9124  0.1052
22914SOL     OW71633   3.423   5.465   1.835  0.0091 -0.2417  0.8220
22914SOL    HW171634   3.351   5.434   1.890 -1.2611 -1.4699 -1.3993
22914SOL    HW271635   3.387   5.467   1.746  2.2864  0.5633 -0.1704
22915SOL     OW71636   8.268   0.832   2.382 -0.1402 -0.1991 -0.5045
22915SOL    HW171637   8.302   0.915   2.415 -0.1733 -0.1909 -0.4914
22915SOL    HW271638   8.192   0.857   2.329  0.0802 -0.1871 -0.8216
22916SOL     OW71639   7.497   4.101   1.418  0.2348  0.2055 -0.3859
22916SOL    HW171640   7.444   4.091   1.339 -1.4924  0.5653  0.6681
22916SOL    HW271641   7.583   4.128   1.386 -0.4072  0.3377 -2.1305
22917SOL     OW71642   4.690   7.959   6.693  0.2339 -0.6560  0.1019
22917SOL    HW171643   4.715   8.049   6.674 -0.7551 -0.3623  0.0972
22917SOL    HW271644   4.742   7.935   6.770  1.4671 -0.5428 -0.6719
22918SOL     OW71645   2.549   1.099   5.277 -0.6146  0.3581  0.8552
22918SOL    HW171646   2.619   1.154   5.311  0.0400  0.0538  0.0135
22918SOL    HW271647   2.513   1.149   5.204  0.4971 -0.6360 -0.4216
22919SOL     OW71648   1.387   1.805   4.846 -0.6439 -0.4186  0.2727
22919SOL    HW171649   1.379   1.876   4.909 -1.9938 -0.5472  0.2854
22919SOL    HW271650   1.297   1.772   4.836 -0.6432  0.1432 -2.3221
22920SOL     OW71651   7.546   4.182   6.060  0.1725 -0.2385  0.6003
22920SOL    HW171652   7.538   4.276   6.078 -2.3211 -0.1800 -0.4646
22920SOL    HW271653   7.474   4.142   6.107 -0.3346 -1.2798 -0.9827
22921SOL     OW71654   6.209   0.666   1.576 -0.0052 -0.4796  0.1011
22921SOL    HW171655   6.289   0.619   1.599  0.3884  1.1283  2.3204
22921SOL    HW271656   6.227   0.757   1.599 -1.7755  0.2894 -1.2802
22922SOL     OW71657   8.152   0.797   1.259  0.2469 -0.5313  0.0033
22922SOL    HW171658   8.137   0.891   1.249  1.4565 -0.3115  0.0857
22922SOL    HW271659   8.110   0.758   1.182 -1.5166 -0.0865  0.6984
22923SOL     OW71660   4.518   1.608   0.881  0.1489  0.0009 -0.4642
22923SOL    HW171661   4.589   1.551   0.912 -0.2123 -1.3117 -1.9440
22923SOL    HW271662   4.533   1.616   0.787 -1.7797 -0.4856 -0.8469
22924SOL     OW71663   5.787   0.528   8.929 -0.3454 -0.1231 -0.4204
22924SOL    HW171664   5.862   0.490   8.883 -0.6467 -0.3402 -0.7387
22924SOL    HW271665   5.818   0.542   9.018 -0.7938 -2.9401  0.2723
22925SOL     OW71666   4.684   8.441   3.872  0.0041  0.0257 -0.4579
22925SOL    HW171667   4.620   8.373   3.896  0.4113 -0.0464  0.4740
22925SOL    HW271668   4.705   8.424   3.781 -2.2006  0.7650 -1.1789
22926SOL     OW71669   1.441   6.915   8.787  0.5406 -0.1800 -0.0452
22926SOL    HW171670   1.369   6.895   8.847 -0.4080 -1.3559 -1.4770
22926SOL    HW271671   1.507   6.848   8.806  0.0668 -0.8097 -0.5505
22927SOL     OW71672   6.348   2.653   5.634  0.6053 -0.1714  0.1462
22927SOL    HW171673   6.413   2.659   5.705  0.7052  0.8506 -0.0181
22927SOL    HW271674   6.392   2.692   5.558  1.3261 -3.1637 -1.1274
22928SOL     OW71675   7.703   4.907   0.251 -1.1078  0.6499  0.0423
22928SOL    HW171676   7.682   4.974   0.317 -1.3356 -0.7926  1.5026
22928SOL    HW271677   7.732   4.957   0.175 -0.8900  2.3936  1.2071
22929SOL     OW71678   5.770   8.488   1.323  0.5583  0.2080 -0.2319
22929SOL    HW171679   5.810   8.443   1.248  0.3388 -1.7602  0.7472
22929SOL    HW271680   5.677   8.493   1.301  0.6936  0.8487 -0.6609
22930SOL     OW71681   5.945   8.896   4.219 -0.1619 -0.1703  0.4162
22930SOL    HW171682   5.923   8.806   4.194  1.1858 -0.1079 -1.1823
22930SOL    HW271683   5.877   8.950   4.180  0.5700 -0.2890 -1.0812
22931SOL     OW71684   3.596   2.224   4.355 -0.3075 -0.0510  0.0535
22931SOL    HW171685   3.683   2.196   4.326 -0.5506 -0.8947  0.1001
22931SOL    HW271686   3.613   2.293   4.419  0.2766  0.8605 -1.0457
22932SOL     OW71687   0.548   7.570   2.418 -0.1428  0.2973 -0.4320
22932SOL    HW171688   0.511   7.496   2.466 -0.4293  0.3941 -0.4969
22932SOL    HW271689   0.477   7.596   2.359  0.4622 -0.2990 -1.4437
22933SOL     OW71690   2.594   3.287   6.727 -0.2865 -0.2057  0.1467
22933SOL    HW171691   2.514   3.339   6.737 -1.1484 -1.7556  2.0914
22933SOL    HW271692   2.565   3.208   6.681  0.0728 -0.8122  0.9376
22934SOL     OW71693   1.423   5.604   6.489 -0.3404 -0.0861  0.2662
22934SOL    HW171694   1.386   5.585   6.403 -0.5201  1.9542 -0.1572
22934SOL    HW271695   1.518   5.600   6.476 -0.3577 -1.4840  0.4214
22935SOL     OW71696   3.933   6.661   8.468  0.1004 -0.0462 -0.5166
22935SOL    HW171697   3.965   6.661   8.378 -0.6564 -0.8087 -0.7925
22935SOL    HW271698   3.952   6.573   8.500  2.5358  0.8927  0.8855
22936SOL     OW71699   3.457   3.316   0.388  0.0362  0.1413  0.5454
22936SOL    HW171700   3.366   3.329   0.361  0.6019  2.3105 -0.5904
22936SOL    HW271701   3.470   3.377   0.460  1.3356  2.2238 -1.3014
22937SOL     OW71702   2.970   0.264   2.436  0.4036 -0.2895  0.6341
22937SOL    HW171703   2.992   0.334   2.497 -0.5472  0.0115  0.6505
22937SOL    HW271704   2.893   0.222   2.474 -0.5128  0.2157 -0.5942
22938SOL     OW71705   3.063   1.080   4.817  0.1974 -0.3352  0.2158
22938SOL    HW171706   3.132   1.137   4.783 -0.0879 -0.7884 -1.1761
22938SOL    HW271707   2.997   1.078   4.748 -0.0507 -1.9030  0.4610
22939SOL     OW71708   1.269   2.994   8.617 -0.1475  0.4685  0.6982
22939SOL    HW171709   1.308   2.979   8.530 -0.5330  1.7834  0.2727
22939SOL    HW271710   1.197   2.930   8.622  0.2153  0.0140  0.2833
22940SOL     OW71711   8.424   8.752   9.215 -0.0441 -0.2756  0.2800
22940SOL    HW171712   8.462   8.802   9.143 -0.4535 -0.8571 -0.3532
22940SOL    HW271713   8.421   8.662   9.183  0.6997 -0.7279  1.4077
22941SOL     OW71714   4.862   0.721   1.551 -0.1015 -0.3693  0.2586
22941SOL    HW171715   4.876   0.719   1.646 -0.6159 -0.9778  0.3343
22941SOL    HW271716   4.769   0.743   1.541  0.8332  4.3364 -0.2392
22942SOL     OW71717   0.555   1.638   8.678 -0.3672 -0.1978  0.3615
22942SOL    HW171718   0.620   1.580   8.718 -0.0733 -0.1676 -0.0608
22942SOL    HW271719   0.589   1.653   8.590 -1.0342 -0.3099  0.0861
22943SOL     OW71720   1.289   1.473   6.873  0.1012 -0.4950  0.0342
22943SOL    HW171721   1.314   1.550   6.822  0.7319 -0.2903  0.6286
22943SOL    HW271722   1.223   1.429   6.820 -0.8567  0.8842  0.0399
22944SOL     OW71723   8.736   2.550   4.870  0.0129  1.1295  0.2525
22944SOL    HW171724   8.799   2.540   4.941  0.2570  0.3596 -0.0689
22944SOL    HW271725   8.756   2.636   4.832  0.7944  0.9382  0.2242
22945SOL     OW71726   2.062   5.298   9.076 -0.4593 -0.0460 -0.2584
22945SOL    HW171727   2.037   5.379   9.121 -0.6927 -0.2042 -0.1018
22945SOL    HW271728   2.135   5.264   9.128 -1.2046 -0.6093  0.4284
22946SOL     OW71729   5.462   2.395   8.253  0.6965  0.1892  0.0695
22946SOL    HW171730   5.455   2.321   8.194  1.2655  1.1200 -1.2275
22946SOL    HW271731   5.428   2.363   8.337  0.9678 -1.5218 -0.4354
22947SOL     OW71732   8.499   1.923   8.491  0.4455  0.1182 -0.3465
22947SOL    HW171733   8.422   1.917   8.434 -0.0475 -0.4466  0.3553
22947SOL    HW271734   8.574   1.909   8.433  0.0361  0.8316 -1.0657
22948SOL     OW71735   1.309   0.719   8.845  1.0868 -0.0969 -0.3346
22948SOL    HW171736   1.308   0.763   8.930 -1.3976  2.4629 -1.5104
22948SOL    HW271737   1.398   0.733   8.812  1.7106 -0.0361  1.2616
22949SOL     OW71738   3.108   5.029   5.285  1.1124  0.2048 -0.2338
22949SOL    HW171739   3.121   4.957   5.348  1.9858  0.4595 -0.1098
22949SOL    HW271740   3.151   4.999   5.205 -1.4940 -0.8848 -1.3558
22950SOL     OW71741   5.637   2.626   4.390  0.2911 -0.3470 -0.1006
22950SOL    HW171742   5.680   2.684   4.327  0.5465 -0.7684 -0.3176
22950SOL    HW271743   5.706   2.568   4.420 -0.0791 -0.9014 -0.3035
22951SOL     OW71744   5.042   9.019   0.485  0.0921  0.1464  0.1782
22951SOL    HW171745   5.105   9.003   0.415  1.4494  0.0696  1.3702
22951SOL    HW271746   5.051   8.943   0.543 -2.8235 -1.0852 -0.7802
22952SOL     OW71747   1.390   5.221   6.857  0.0531 -0.1252  0.0300
22952SOL    HW171748   1.471   5.170   6.859  1.5908  2.1334  0.3348
22952SOL    HW271749   1.384   5.253   6.767 -1.3350 -1.4417 -0.3758
22953SOL     OW71750   8.278   1.052   8.115  0.0289  0.2411 -0.0415
22953SOL    HW171751   8.302   0.977   8.169 -0.0081  1.5115  1.8387
22953SOL    HW271752   8.229   1.015   8.042 -0.2184 -1.5296  0.9884
22954SOL     OW71753   6.347   2.332   3.850  0.0730 -0.3364 -0.0727
22954SOL    HW171754   6.254   2.309   3.854 -0.5671  1.8387 -0.8110
22954SOL    HW271755   6.385   2.266   3.792 -1.4322 -0.1904 -1.3223
22955SOL     OW71756   8.530   6.608   2.663 -0.5208  0.0283  0.4819
22955SOL    HW171757   8.497   6.662   2.591 -0.8348  0.2137  0.7618
22955SOL    HW271758   8.454   6.596   2.720 -0.4035 -0.5445  0.5209
22956SOL     OW71759   2.226   2.869   8.597 -0.3689 -0.1181  0.3269
22956SOL    HW171760   2.201   2.930   8.527  1.9980 -0.0907 -0.5696
22956SOL    HW271761   2.163   2.797   8.590  0.4938 -0.6976 -2.6596
22957SOL     OW71762   3.198   2.098   0.479 -0.3381 -0.2454 -0.3518
22957SOL    HW171763   3.138   2.093   0.405 -1.0000 -1.8475  0.2651
22957SOL    HW271764   3.143   2.087   0.556  0.6018 -0.7093  0.2793
22958SOL     OW71765   6.978   3.303   9.222  0.2371 -0.3288  0.3862
22958SOL    HW171766   7.062   3.270   9.253 -0.8348 -0.3426  3.6668
22958SOL    HW271767   6.999   3.354   9.144  3.1282 -1.0412  0.5964
22959SOL     OW71768   3.787   7.211   2.213 -0.1820  0.4073 -0.3296
22959SOL    HW171769   3.871   7.205   2.168 -0.1806  1.6096 -0.5027
22959SOL    HW271770   3.730   7.152   2.163  0.4072  0.0006 -0.5390
22960SOL     OW71771   8.335   4.281   7.964  0.6424 -0.3337 -0.4431
22960SOL    HW171772   8.368   4.239   8.044  0.3985 -0.2952 -0.3224
22960SOL    HW271773   8.408   4.335   7.934  0.4709  0.2644  0.1876
22961SOL     OW71774   0.172   4.915   8.678 -0.4948 -0.3440 -0.3589
22961SOL    HW171775   0.163   5.003   8.641 -0.3978 -0.7709 -1.4366
22961SOL    HW271776   0.104   4.864   8.634  0.0797 -1.0265 -0.4630
22962SOL     OW71777   0.232   5.545   1.221 -0.3107 -0.2695 -0.1028
22962SOL    HW171778   0.141   5.556   1.247 -0.1059 -0.8931  0.9578
22962SOL    HW271779   0.233   5.558   1.127 -1.7775 -1.8265 -0.3808
22963SOL     OW71780   7.779   7.596   3.964  0.1995  0.1587 -0.0631
22963SOL    HW171781   7.706   7.658   3.965 -0.3924 -0.5265  0.0595
22963SOL    HW271782   7.857   7.651   3.965 -0.2174  1.0304 -3.4724
22964SOL     OW71783   4.773   7.389   3.287 -0.1728 -0.3010 -0.7362
22964SOL    HW171784   4.865   7.417   3.289 -0.4368  0.5237  0.3124
22964SOL    HW271785   4.770   7.323   3.217  1.2738 -0.5578 -0.5833
22965SOL     OW71786   4.738   2.901   5.636 -0.2414  0.0049 -0.5490
22965SOL    HW171787   4.758   2.993   5.654 -0.2072 -0.3823  1.6641
22965SOL    HW271788   4.720   2.863   5.722 -2.9077 -1.4788 -1.6385
22966SOL     OW71789   5.228   3.513   2.651  0.6099  0.3926  0.1576
22966SOL    HW171790   5.141   3.535   2.617  0.7375  1.0949  0.2749
22966SOL    HW271791   5.217   3.506   2.746  0.4429 -0.6837  0.0745
22967SOL     OW71792   2.132   6.532   0.534 -0.2864 -0.2301 -0.0369
22967SOL    HW171793   2.150   6.496   0.622 -1.5704 -1.4233 -0.2251
22967SOL    HW271794   2.122   6.454   0.479 -0.6019  0.4925 -1.0135
22968SOL     OW71795   6.767   1.181   2.260 -0.2087 -0.0648  0.2376
22968SOL    HW171796   6.776   1.090   2.231  1.4017  0.2089 -0.2149
22968SOL    HW271797   6.823   1.231   2.200 -2.3219  1.4755 -0.5731
22969SOL     OW71798   2.038   7.753   0.581  0.3633  0.2262 -0.4100
22969SOL    HW171799   2.088   7.833   0.598  0.2624  0.3777 -0.8042
22969SOL    HW271800   2.019   7.717   0.668  2.1494 -0.4610 -0.2624
22970SOL     OW71801   2.331   3.729   1.208 -0.8459 -0.3912 -0.1600
22970SOL    HW171802   2.331   3.778   1.125  1.3934  4.4038  2.2565
22970SOL    HW271803   2.424   3.714   1.226 -1.2204 -0.4914  1.8780
22971SOL     OW71804   6.391   7.049   1.755  0.1597  0.1030 -1.6292
22971SOL    HW171805   6.406   7.081   1.666 -0.5700 -0.0433 -1.8157
22971SOL    HW271806   6.474   7.012   1.782  1.3130  2.8572 -1.1058
22972SOL     OW71807   3.617   1.995   7.535 -0.4753 -0.7531  0.3152
22972SOL    HW171808   3.528   1.961   7.527 -0.3293 -1.1143  0.2057
22972SOL    HW271809   3.606   2.088   7.553 -0.9285 -1.1450  2.3822
22973SOL     OW71810   1.953   3.136   1.678 -0.1871  0.1890 -0.6712
22973SOL    HW171811   1.972   3.228   1.697 -0.1491  0.1031 -0.2904
22973SOL    HW271812   1.892   3.109   1.747  0.9619 -0.4909  0.1105
22974SOL     OW71813   8.192   0.776   2.709 -0.1152 -0.2246 -0.5474
22974SOL    HW171814   8.195   0.769   2.804 -0.6243  2.2286 -0.2952
22974SOL    HW271815   8.270   0.826   2.686 -0.5257  0.0904 -1.3022
22975SOL     OW71816   4.763   5.544   7.616 -0.3340  0.0264  0.1840
22975SOL    HW171817   4.848   5.574   7.648 -0.2991  0.4352 -0.2774
22975SOL    HW271818   4.716   5.625   7.594 -1.4440 -0.0977  1.9174
22976SOL     OW71819   2.482   7.366   5.135 -0.0660  0.5914 -0.1008
22976SOL    HW171820   2.455   7.276   5.115 -0.7455  1.0649 -1.4053
22976SOL    HW271821   2.430   7.389   5.212  0.2651 -0.1900  0.3720
22977SOL     OW71822   5.491   9.246   0.784  0.3529 -0.5100  0.1578
22977SOL    HW171823   5.477   9.267   0.692  2.2657  0.0929 -0.0411
22977SOL    HW271824   5.512   9.329   0.826 -3.0088 -0.2967  1.7690
22978SOL     OW71825   0.685   7.160   1.534  0.6389  0.3413 -0.0619
22978SOL    HW171826   0.680   7.087   1.596  0.3549  2.2496  2.3514
22978SOL    HW271827   0.778   7.182   1.530  0.6980 -0.0069 -0.6037
22979SOL     OW71828   8.368   7.542   8.595 -0.4252 -0.2878 -0.5230
22979SOL    HW171829   8.348   7.496   8.677  1.5435 -1.6654 -0.7395
22979SOL    HW271830   8.282   7.560   8.556 -1.3458 -1.2209  0.9745
22980SOL     OW71831   8.796   5.102   1.448 -0.0283  0.0109  0.0833
22980SOL    HW171832   8.825   5.163   1.380  0.0313  0.6516  0.6782
22980SOL    HW271833   8.789   5.155   1.527  0.2037 -0.7936  0.6574
22981SOL     OW71834   7.408   6.131   4.737  0.2125 -0.0451  0.3121
22981SOL    HW171835   7.493   6.112   4.775  0.7785 -0.9438 -1.2966
22981SOL    HW271836   7.373   6.203   4.790  3.0245  2.0618 -0.4348
22982SOL     OW71837   7.250   8.611   0.805  0.3617  0.8563  0.1567
22982SOL    HW171838   7.324   8.551   0.805 -2.8403 -3.6561  0.5112
22982SOL    HW271839   7.222   8.616   0.714  0.0802  1.0407  0.2491
22983SOL     OW71840   4.086   8.423   2.216  0.2663 -0.3602 -0.0794
22983SOL    HW171841   4.038   8.380   2.287 -1.6843 -1.7983 -2.1361
22983SOL    HW271842   4.038   8.505   2.201  0.5618 -0.1477  0.1313
22984SOL     OW71843   3.549   7.455   3.699  0.9778 -0.6778  0.1863
22984SOL    HW171844   3.480   7.423   3.642 -2.5891  0.9336  3.1086
22984SOL    HW271845   3.569   7.381   3.757 -0.6849 -0.3436  1.2617
22985SOL     OW71846   7.103   8.576   4.114  0.4763 -0.2489  0.3252
22985SOL    HW171847   7.109   8.508   4.047  0.0877  1.0473 -1.0675
22985SOL    HW271848   7.009   8.591   4.124  0.5766  1.8080 -1.2416
22986SOL     OW71849   4.352   3.526   7.636 -0.3408  0.5656 -0.4001
22986SOL    HW171850   4.343   3.589   7.706  0.2520 -0.5614  0.7278
22986SOL    HW271851   4.262   3.508   7.607 -0.6764  0.2565  0.8020
22987SOL     OW71852   8.677   5.021   2.243 -0.0987  0.1401 -0.2499
22987SOL    HW171853   8.621   5.096   2.263 -2.5583 -1.2621 -1.4827
22987SOL    HW271854   8.617   4.953   2.213  2.1961 -1.8184 -0.7060
22988SOL     OW71855   2.987   1.226   3.418  0.3883 -0.5677 -0.0355
22988SOL    HW171856   3.048   1.159   3.449 -0.1071 -1.1160 -0.2301
22988SOL    HW271857   3.012   1.305   3.465  1.4181 -0.7262 -0.2967
22989SOL     OW71858   2.398   2.122   7.366  0.4440  0.4628  0.0319
22989SOL    HW171859   2.469   2.089   7.311  0.0469 -0.3468 -0.0113
22989SOL    HW271860   2.395   2.060   7.440  0.8810  1.4504  0.9028
22990SOL     OW71861   5.647   2.400   7.871 -0.3196 -0.3054  0.5335
22990SOL    HW171862   5.671   2.321   7.921 -1.2617 -0.6552  0.4708
22990SOL    HW271863   5.601   2.366   7.794 -0.0795  0.2848  0.1231
22991SOL     OW71864   0.694   8.870   3.416 -0.2230 -0.1229  0.7670
22991SOL    HW171865   0.637   8.906   3.348  0.2889 -0.2523  0.2551
22991SOL    HW271866   0.644   8.879   3.497 -0.1362  1.7084  0.6539
22992SOL     OW71867   5.953   0.008   3.514 -0.0932 -0.3459 -0.5747
22992SOL    HW171868   5.972   0.060   3.436  0.0613  1.2108  0.4814
22992SOL    HW271869   5.858   0.015   3.524 -0.0593 -0.1972 -0.3711
22993SOL     OW71870   8.311   5.418   2.531 -0.4555 -0.1154  0.1988
22993SOL    HW171871   8.380   5.369   2.576  0.1109 -0.1028 -0.6278
22993SOL    HW271872   8.358   5.470   2.465 -1.1679  0.5835  0.2243
22994SOL     OW71873   7.407   5.903   8.455 -0.7471 -0.3876 -0.1171
22994SOL    HW171874   7.395   5.834   8.520 -0.1573  0.9378  1.4634
22994SOL    HW271875   7.343   5.882   8.387 -1.3176 -1.8872  0.8150
22995SOL     OW71876   8.006   8.394   8.110  0.3769  0.4446 -0.5756
22995SOL    HW171877   8.064   8.442   8.169  0.5717 -0.6246  0.1460
22995SOL    HW271878   7.925   8.385   8.160  0.9861 -1.6541  0.1446
22996SOL     OW71879   3.242   1.449   6.053  0.0869 -0.1680 -0.0515
22996SOL    HW171880   3.185   1.394   6.000 -0.8404  0.3463  0.3816
22996SOL    HW271881   3.291   1.501   5.989  0.2632 -0.8007 -0.4369
22997SOL     OW71882   3.758   3.174   0.675  0.0732  0.0119 -0.0624
22997SOL    HW171883   3.754   3.269   0.664  0.1891 -0.1613 -1.7410
22997SOL    HW271884   3.694   3.139   0.614 -1.0091 -0.9659  1.5568
22998SOL     OW71885   5.709   4.623   5.727  0.6517  0.0416 -0.6419
22998SOL    HW171886   5.627   4.631   5.677  0.0792 -0.8268  0.1205
22998SOL    HW271887   5.719   4.707   5.771 -0.2184 -0.0832 -0.1809
22999SOL     OW71888   2.089   7.985   0.257 -0.1645 -0.0273  0.2937
22999SOL    HW171889   2.106   7.934   0.336  0.3827 -0.3268 -0.0118
22999SOL    HW271890   2.039   7.925   0.201  4.4136 -2.1133 -2.0499
23000SOL     OW71891   6.250   3.131   3.279 -0.0933  0.2098 -0.0232
23000SOL    HW171892   6.182   3.198   3.283 -0.5888  0.0130 -3.0569
23000SOL    HW271893   6.305   3.147   3.356 -0.8491  3.3440 -0.0246
23001SOL     OW71894   7.921   5.871   3.387  0.5061  0.4181 -0.5923
23001SOL    HW171895   7.876   5.941   3.434 -0.4828  1.7099 -3.2469
23001SOL    HW271896   7.990   5.842   3.447 -1.3142  1.1309  2.0252
23002SOL     OW71897   2.841   1.172   1.166  0.1065  0.0542  0.2451
23002SOL    HW171898   2.746   1.162   1.161  0.1236 -0.1819  0.3815
23002SOL    HW271899   2.873   1.087   1.194  0.4634 -0.2459 -0.9919
23003SOL     OW71900   5.441   2.604   0.277 -0.3956  0.4953  0.1831
23003SOL    HW171901   5.376   2.645   0.334 -0.7564  0.8429 -0.4692
23003SOL    HW271902   5.479   2.534   0.331 -1.9759 -0.3300  0.2674
23004SOL     OW71903   3.361   6.369   6.466 -1.3684  0.1695 -0.3290
23004SOL    HW171904   3.315   6.286   6.475  0.5680 -0.8975  0.3473
23004SOL    HW271905   3.340   6.417   6.546  2.2323 -2.2781  2.4368
23005SOL     OW71906   1.540   6.492   7.269  0.2298 -0.4303  0.0372
23005SOL    HW171907   1.480   6.437   7.219  0.2786 -0.0661 -0.4256
23005SOL    HW271908   1.627   6.473   7.234  0.2680 -0.2058  0.0040
23006SOL     OW71909   0.565   0.782   0.222 -0.3470  0.0247 -0.0419
23006SOL    HW171910   0.653   0.758   0.251 -0.1058  0.7052 -0.1900
23006SOL    HW271911   0.553   0.733   0.141 -1.5947 -3.0597  1.8239
23007SOL     OW71912   6.264   2.408   3.549 -0.3950 -0.0069  0.4222
23007SOL    HW171913   6.303   2.333   3.503 -1.7040 -1.4287  1.5007
23007SOL    HW271914   6.332   2.437   3.610  0.4026  0.1877 -0.5433
23008SOL     OW71915   3.120   3.330   9.027 -0.0355 -0.1199 -0.1021
23008SOL    HW171916   3.196   3.321   9.084 -0.3402 -1.5351  0.1185
23008SOL    HW271917   3.053   3.275   9.067 -1.0494  0.7505 -0.5293
23009SOL     OW71918   1.767   3.756   1.551  0.2028 -0.1538 -0.6090
23009SOL    HW171919   1.747   3.662   1.543  0.8593 -0.3636  0.1021
23009SOL    HW271920   1.858   3.763   1.523  0.6967 -0.0031  0.9403
23010SOL     OW71921   2.322   8.138   6.683  0.3823  0.0079 -0.7667
23010SOL    HW171922   2.341   8.078   6.610  0.2293  0.2077 -0.9690
23010SOL    HW271923   2.289   8.081   6.753 -1.0887  0.0184 -1.4339
23011SOL     OW71924   7.524   2.808   1.165 -0.1159 -0.5139  0.1015
23011SOL    HW171925   7.506   2.723   1.205  1.3355 -0.3876  1.0768
23011SOL    HW271926   7.439   2.838   1.134 -0.5174 -2.8531 -1.3788
23012SOL     OW71927   1.179   2.994   1.501  0.1288  0.5407  0.1266
23012SOL    HW171928   1.248   2.963   1.559  0.6152 -1.1416 -1.2800
23012SOL    HW271929   1.165   3.085   1.528  1.1388  0.1831  2.0667
23013SOL     OW71930   0.976   7.175   1.688  0.4019  0.0263 -0.7245
23013SOL    HW171931   0.997   7.233   1.615  0.0883 -0.0299 -0.8604
23013SOL    HW271932   1.032   7.099   1.674  1.1514  0.4887 -0.2907
23014SOL     OW71933   2.461   2.231   5.129 -0.3056 -0.1149  0.5972
23014SOL    HW171934   2.493   2.260   5.044  0.8363 -0.0518  1.0316
23014SOL    HW271935   2.503   2.289   5.192 -1.2300 -0.0825  1.2076
23015SOL     OW71936   2.564   5.785   1.318  0.3884  0.6623 -0.2227
23015SOL    HW171937   2.514   5.722   1.371 -0.4651  0.7355 -0.9220
23015SOL    HW271938   2.639   5.734   1.286 -0.0168  0.1405 -0.3612
23016SOL     OW71939   7.572   2.404   1.907  0.1125 -0.0171 -0.3192
23016SOL    HW171940   7.567   2.457   1.828  0.5564 -0.4196 -0.6241
23016SOL    HW271941   7.489   2.420   1.952  0.6833  1.8327  0.1790
23017SOL     OW71942   7.993   5.749   2.491  0.2987  0.1809 -0.3981
23017SOL    HW171943   8.030   5.837   2.496  3.6287 -1.0941 -0.4952
23017SOL    HW271944   8.012   5.720   2.402 -0.0262 -0.9486 -0.1140
23018SOL     OW71945   2.355   4.390   4.591  0.1661  0.3207 -0.0243
23018SOL    HW171946   2.337   4.444   4.668 -1.5129  1.7949 -1.3556
23018SOL    HW271947   2.387   4.452   4.526  3.4155 -1.1902 -0.0165
23019SOL     OW71948   8.452   2.533   2.345 -0.5350  0.3088  0.3349
23019SOL    HW171949   8.423   2.558   2.432  1.1130 -1.8333  1.6206
23019SOL    HW271950   8.393   2.462   2.319  0.1003 -0.3243  0.5695
23020SOL     OW71951   4.841   0.495   7.822 -0.7005  0.1969 -0.1340
23020SOL    HW171952   4.864   0.412   7.780 -1.4514  0.2060 -0.5804
23020SOL    HW271953   4.924   0.543   7.828  0.1368 -1.3276  1.8603
23021SOL     OW71954   0.628   4.968   4.725 -0.3905 -0.0245  0.2162
23021SOL    HW171955   0.723   4.967   4.730 -0.3835 -1.0291  0.0143
23021SOL    HW271956   0.606   5.057   4.699  0.4145  0.6584  1.7388
23022SOL     OW71957   2.119   4.774   4.750 -0.2053 -0.4174 -0.4512
23022SOL    HW171958   2.123   4.828   4.671 -0.6005 -0.7464 -0.6979
23022SOL    HW271959   2.075   4.829   4.815  0.4751  0.0040 -0.3258
23023SOL     OW71960   3.709   8.299   2.710  0.5786 -0.1752  0.6622
23023SOL    HW171961   3.761   8.327   2.785  1.2894 -1.4001  0.6513
23023SOL    HW271962   3.628   8.350   2.716  1.0146  0.4155  1.7168
23024SOL     OW71963   8.924   6.825   3.372  0.1337 -0.3947 -0.3345
23024SOL    HW171964   8.902   6.791   3.458 -2.6428 -3.0448 -1.8894
23024SOL    HW271965   8.994   6.767   3.340  0.1826 -0.2945 -0.4121
23025SOL     OW71966   0.434   0.160   7.472 -0.0103 -0.2470 -0.0083
23025SOL    HW171967   0.517   0.173   7.428  0.3908  0.9033  1.0213
23025SOL    HW271968   0.379   0.234   7.444  0.0287  0.1328  0.8504
23026SOL     OW71969   8.232   9.115   1.471 -0.2733  0.4203  0.0489
23026SOL    HW171970   8.170   9.091   1.539  1.3856  0.0576  1.5320
23026SOL    HW271971   8.211   9.059   1.397 -0.4044 -1.2033  1.2574
23027SOL     OW71972   3.150   1.874   8.319 -0.2402 -0.7682  0.0793
23027SOL    HW171973   3.090   1.813   8.363 -0.0603 -0.3636  0.8984
23027SOL    HW271974   3.230   1.870   8.371 -0.0670 -0.1946 -0.1388
23028SOL     OW71975   5.654   7.606   0.797  0.0844  0.4962 -0.0477
23028SOL    HW171976   5.652   7.547   0.873  2.2375  0.6769  0.2098
23028SOL    HW271977   5.718   7.674   0.821  0.8938  0.5087 -2.0417
23029SOL     OW71978   1.548   5.176   6.020 -0.0513 -0.0820  0.3823
23029SOL    HW171979   1.496   5.210   6.093 -0.0267 -0.7814  0.7379
23029SOL    HW271980   1.550   5.082   6.035 -0.0808 -0.2351 -0.5569
23030SOL     OW71981   2.325   7.430   0.406 -0.1085 -0.4087  0.3276
23030SOL    HW171982   2.291   7.519   0.404  1.7219  0.3872  1.6675
23030SOL    HW271983   2.351   7.412   0.315  0.1225  0.6817  0.1642
23031SOL     OW71984   2.858   6.010   7.586 -0.1664 -0.2735 -0.2689
23031SOL    HW171985   2.769   6.045   7.589 -0.5444 -1.2428  0.7541
23031SOL    HW271986   2.892   6.023   7.675  0.5018 -0.4386 -0.4937
23032SOL     OW71987   7.239   9.152   2.416  0.1677 -0.0477 -0.0148
23032SOL    HW171988   7.301   9.129   2.485  0.4243 -0.8901 -0.5094
23032SOL    HW271989   7.153   9.146   2.459  0.4295  1.9737  0.9026
23033SOL     OW71990   1.448   0.604   0.074  0.3078  0.3491 -0.1922
23033SOL    HW171991   1.432   0.532   0.012  1.6193  2.7007 -3.5352
23033SOL    HW271992   1.392   0.675   0.045  2.7644  2.3788 -0.3225
23034SOL     OW71993   8.590   3.239   0.306 -0.2950  0.3226 -0.1557
23034SOL    HW171994   8.575   3.327   0.339  1.6754  0.8943 -0.6594
23034SOL    HW271995   8.605   3.251   0.212  1.5411 -0.3148  0.0191
23035SOL     OW71996   0.884   1.922   4.485 -0.6110 -0.1066  0.1272
23035SOL    HW171997   0.863   1.914   4.392 -0.6262  2.1417 -0.1005
23035SOL    HW271998   0.807   1.887   4.530 -1.8121  1.3391 -0.7279
23036SOL     OW71999   8.048   8.532   0.174 -0.1671 -0.0377 -0.1819
23036SOL    HW172000   8.000   8.594   0.120 -1.0089 -0.4928  0.0225
23036SOL    HW272001   7.980   8.480   0.217  0.4996 -1.8835 -1.2438
23037SOL     OW72002   6.328   6.181   6.408  0.4317  0.2309  0.2797
23037SOL    HW172003   6.293   6.117   6.470 -2.0411 -0.5647 -1.7584
23037SOL    HW272004   6.400   6.136   6.364  0.5216 -0.1264  0.7858
23038SOL     OW72005   2.321   5.474   4.998  0.3610  0.0961 -0.1698
23038SOL    HW172006   2.235   5.498   4.962  0.4684 -0.4279 -0.7975
23038SOL    HW272007   2.366   5.433   4.925  0.9136 -0.2089  0.3405
23039SOL     OW72008   3.473   9.245   2.894  0.1213 -0.7159  0.2550
23039SOL    HW172009   3.480   9.316   2.830  1.2852  0.4429  1.6018
23039SOL    HW272010   3.496   9.167   2.845 -0.6545 -0.1207 -1.1336
23040SOL     OW72011   5.875   8.711   0.330  0.1485 -0.0629  0.2572
23040SOL    HW172012   5.880   8.635   0.273  0.6733 -0.4882  0.8507
23040SOL    HW272013   5.781   8.724   0.345 -0.0887  0.9589 -1.8536
23041SOL     OW72014   4.802   9.181   6.723 -0.6536 -0.1147  0.3429
23041SOL    HW172015   4.774   9.238   6.795 -0.9580 -1.8567  1.6587
23041SOL    HW272016   4.777   9.093   6.751  0.3967 -0.9893 -1.3332
23042SOL     OW72017   3.143   0.591   6.650  0.5328  0.2334  0.2236
23042SOL    HW172018   3.051   0.607   6.670  0.7502 -0.7516  2.2120
23042SOL    HW272019   3.191   0.644   6.714  1.3597  0.4591 -0.5583
23043SOL     OW72020   0.745   0.894   0.915  0.0046 -0.0475  0.1384
23043SOL    HW172021   0.828   0.871   0.958 -0.6540 -2.1825  0.3768
23043SOL    HW272022   0.706   0.959   0.974 -0.3562 -2.0707  2.2670
23044SOL     OW72023   5.687   6.932   0.491  0.2360  0.3277 -0.3804
23044SOL    HW172024   5.610   6.901   0.538  0.4264  0.1018 -0.2176
23044SOL    HW272025   5.655   7.005   0.438  0.4567  2.1197  1.8208
23045SOL     OW72026   5.821   0.537   0.254  0.3843 -0.2449  0.1977
23045SOL    HW172027   5.747   0.519   0.312 -1.4554 -0.1705 -2.0152
23045SOL    HW272028   5.866   0.453   0.245 -1.5363 -1.1752 -1.1916
23046SOL     OW72029   6.780   3.963   7.517  0.5661 -0.3421 -0.7689
23046SOL    HW172030   6.825   3.907   7.454 -0.0796 -0.9584 -0.6982
23046SOL    HW272031   6.696   3.920   7.532  0.9935 -0.6276  1.0837
23047SOL     OW72032   5.524   0.616   9.237  0.4731 -0.4053 -0.2196
23047SOL    HW172033   5.485   0.685   9.290 -1.8033 -1.0539 -0.9130
23047SOL    HW272034   5.524   0.539   9.295  0.6087 -0.4377 -0.2622
23048SOL     OW72035   5.232   6.807   6.958  0.4861  0.2200  0.6554
23048SOL    HW172036   5.191   6.826   7.042  0.6992 -0.2110  0.8596
23048SOL    HW272037   5.252   6.713   6.961 -0.2854  0.0145 -0.2210
23049SOL     OW72038   0.353   7.777   8.734 -0.0829 -0.2891 -0.1686
23049SOL    HW172039   0.442   7.771   8.769 -0.1396  1.1624  0.3273
23049SOL    HW272040   0.304   7.709   8.779  0.5969 -0.5450  0.1856
23050SOL     OW72041   0.726   2.930   7.958 -0.1184  0.0266 -0.6028
23050SOL    HW172042   0.701   2.839   7.943  2.6575 -0.5367 -2.7610
23050SOL    HW272043   0.811   2.938   7.914  1.7106  2.5871  2.9277
23051SOL     OW72044   7.397   0.082   6.296 -0.3792 -0.0557 -0.2040
23051SOL    HW172045   7.430   0.169   6.275 -0.1467 -0.4667 -1.6970
23051SOL    HW272046   7.439   0.025   6.232 -0.9592 -1.1785  0.3927
23052SOL     OW72047   2.689   5.873   0.146  0.4238 -0.2163  0.2919
23052SOL    HW172048   2.699   5.778   0.135 -0.3167 -0.4175  1.2647
23052SOL    HW272049   2.741   5.910   0.075  1.2484 -1.3398  0.2732
23053SOL     OW72050   8.874   8.788   3.841 -0.2402 -0.4263 -0.3525
23053SOL    HW172051   8.899   8.700   3.869  1.1978 -0.6142 -2.0520
23053SOL    HW272052   8.865   8.838   3.922  1.2631 -1.5304  0.5359
23054SOL     OW72053   6.172   5.753   0.663 -0.1761  0.0756  0.5820
23054SOL    HW172054   6.127   5.793   0.589 -0.5487 -1.1950  0.0908
23054SOL    HW272055   6.260   5.732   0.629 -0.4325 -0.7454  0.3966
23055SOL     OW72056   0.080   7.547   8.266 -0.3654 -0.3815  0.2519
23055SOL    HW172057   0.087   7.636   8.230  0.7272 -1.3375 -2.1255
23055SOL    HW272058   0.120   7.552   8.352  0.9004  1.1622 -0.3935
23056SOL     OW72059   2.535   5.436   8.418 -0.6057 -0.2271  0.0459
23056SOL    HW172060   2.444   5.444   8.444 -0.0942  0.8225  1.6563
23056SOL    HW272061   2.583   5.422   8.499  0.7467 -0.0202 -0.6823
23057SOL     OW72062   6.984   8.912   9.009  0.0932 -0.4385 -0.7655
23057SOL    HW172063   7.039   8.859   8.951  0.7157  0.9528 -1.4931
23057SOL    HW272064   7.031   8.995   9.017 -0.2561 -0.3930  1.2956
23058SOL     OW72065   8.112   2.726   3.515 -0.3286  0.0070  0.2122
23058SOL    HW172066   8.043   2.747   3.578  0.0472 -0.5904  0.8299
23058SOL    HW272067   8.146   2.642   3.544  1.9246  1.1132  1.0192
23059SOL     OW72068   1.348   5.316   2.061  0.0016  0.0559  0.0032
23059SOL    HW172069   1.317   5.256   1.993 -1.2274  0.1278  0.4721
23059SOL    HW272070   1.443   5.314   2.053 -0.0742  1.6688 -3.1133
23060SOL     OW72071   3.306   6.772   5.287  0.5922  0.1053  0.6418
23060SOL    HW172072   3.312   6.838   5.218  1.5555  0.4936  1.0841
23060SOL    HW272073   3.392   6.732   5.290  0.1781 -0.7927  0.7604
23061SOL     OW72074   4.624   4.396   5.539 -0.4448  0.5323  0.2465
23061SOL    HW172075   4.546   4.422   5.490 -1.1833  1.0065  1.6228
23061SOL    HW272076   4.651   4.474   5.587  1.3918  0.6110 -0.8168
23062SOL     OW72077   3.436   7.151   7.140 -0.9598  0.1275  0.1282
23062SOL    HW172078   3.390   7.202   7.074  2.3747  1.8114 -1.1299
23062SOL    HW272079   3.387   7.166   7.221 -2.0765  2.4998 -0.8906
23063SOL     OW72080   9.001   4.966   1.224 -0.6906 -0.2965 -0.1015
23063SOL    HW172081   9.077   5.023   1.236 -0.4889 -0.8301  1.3781
23063SOL    HW272082   8.955   5.003   1.149 -0.1146  1.3011  0.2915
23064SOL     OW72083   2.047   1.990   7.194  0.3948  0.2765  0.1968
23064SOL    HW172084   2.032   2.070   7.144 -2.0517 -0.5251 -0.5107
23064SOL    HW272085   2.140   1.972   7.183  0.7927  2.4951 -0.4226
23065SOL     OW72086   5.718   2.417   2.533 -0.1144 -0.0669 -0.1910
23065SOL    HW172087   5.721   2.350   2.601  0.8756 -0.6663 -0.8050
23065SOL    HW272088   5.646   2.391   2.477 -0.8190  0.3295  0.5067
23066SOL     OW72089   8.366   8.904   8.304 -0.3316  0.3127 -0.2830
23066SOL    HW172090   8.286   8.872   8.345 -1.2011  1.6479 -0.8269
23066SOL    HW272091   8.357   9.000   8.306  0.7667  0.4704 -1.2776
23067SOL     OW72092   2.674   8.217   4.373 -0.3476 -0.4525 -0.5153
23067SOL    HW172093   2.582   8.190   4.366 -0.5873  0.1537  0.1865
23067SOL    HW272094   2.677   8.302   4.329 -0.3405  0.0004  0.3557
23068SOL     OW72095   2.367   1.935   8.026 -0.0203 -0.0403  0.4501
23068SOL    HW172096   2.366   1.875   7.952  2.0704  1.8360 -1.2389
23068SOL    HW272097   2.291   1.992   8.013  0.6045  0.5902 -0.5913
23069SOL     OW72098   0.108   8.538   0.582 -0.3382 -0.2345 -0.2747
23069SOL    HW172099   0.090   8.444   0.589 -0.2526 -0.1374  1.5081
23069SOL    HW272100   0.189   8.551   0.632  0.6742  0.5248 -2.0050
23070SOL     OW72101   5.434   4.065   1.034  0.3475  0.5997  0.0701
23070SOL    HW172102   5.343   4.064   1.003 -0.0595 -1.0962  1.2048
23070SOL    HW272103   5.485   4.082   0.955 -0.8866  0.2258 -0.8452
23071SOL     OW72104   7.835   2.527   4.809 -0.2614  0.0553  0.0403
23071SOL    HW172105   7.785   2.447   4.828 -0.2111 -0.1674 -0.7295
23071SOL    HW272106   7.768   2.592   4.788 -0.3170  0.3010  0.9260
23072SOL     OW72107   9.000   9.022   8.271  0.3361  0.0220  0.5574
23072SOL    HW172108   8.957   9.103   8.244 -0.6357 -0.6274  0.0723
23072SOL    HW272109   9.003   9.027   8.367  2.7107  1.7960  0.4639
23073SOL     OW72110   6.303   1.481   4.836 -0.0914  0.3668 -0.5238
23073SOL    HW172111   6.307   1.551   4.772  1.3908 -0.3967 -1.3231
23073SOL    HW272112   6.215   1.445   4.827 -0.1910  0.8351 -1.5119
23074SOL     OW72113   2.903   2.235   2.401 -0.0171  0.1831  0.7623
23074SOL    HW172114   2.889   2.311   2.458  1.5293  0.8379  0.3352
23074SOL    HW272115   2.971   2.184   2.445  0.3022  0.0418  0.1165
23075SOL     OW72116   7.779   0.198   7.675 -0.0266  0.1839 -0.2202
23075SOL    HW172117   7.773   0.238   7.589  0.3821  0.3421 -0.1799
23075SOL    HW272118   7.867   0.159   7.677  0.4133  1.1580  0.5322
23076SOL     OW72119   3.689   8.622   7.305  0.7685  0.0350  0.1899
23076SOL    HW172120   3.762   8.596   7.247 -1.7546 -1.6634 -2.5070
23076SOL    HW272121   3.656   8.702   7.266  2.1034  1.7724  2.4162
23077SOL     OW72122   8.155   5.143   4.803  0.1649  0.1360  0.2104
23077SOL    HW172123   8.228   5.152   4.865 -0.5848  0.2483  1.0897
23077SOL    HW272124   8.150   5.049   4.785  0.9732  0.2022 -0.4137
23078SOL     OW72125   6.866   6.556   2.850  0.1174  0.3373  0.1870
23078SOL    HW172126   6.813   6.542   2.928 -0.3502 -1.1804 -0.3618
23078SOL    HW272127   6.936   6.491   2.857  1.2395  1.5237  0.3122
23079SOL     OW72128   1.280   7.406   3.725  0.1990 -0.1299 -0.0732
23079SOL    HW172129   1.223   7.403   3.648 -0.7408 -0.8612  0.6350
23079SOL    HW272130   1.367   7.389   3.690 -0.1717 -0.1975 -1.0114
23080SOL     OW72131   8.913   1.148   6.509  0.0736 -0.2907 -0.2060
23080SOL    HW172132   9.005   1.165   6.486  0.0664  0.3130  0.2085
23080SOL    HW272133   8.913   1.056   6.537  0.2601 -0.7673 -1.6634
23081SOL     OW72134   4.549   7.906   6.463 -0.3455  0.2371  0.3764
23081SOL    HW172135   4.610   7.899   6.536  0.3834 -0.4155 -0.2669
23081SOL    HW272136   4.585   7.848   6.396 -0.8771  0.9765 -0.5869
23082SOL     OW72137   7.538   7.362   7.543 -0.2129  0.1722  0.3124
23082SOL    HW172138   7.619   7.381   7.590 -0.9389 -0.0200  1.7253
23082SOL    HW272139   7.545   7.408   7.460 -0.1517  3.1601  1.8590
23083SOL     OW72140   8.500   5.324   4.428 -0.3385 -0.1645 -0.2189
23083SOL    HW172141   8.429   5.269   4.460 -1.2899  2.5785  2.9421
23083SOL    HW272142   8.458   5.386   4.368 -0.3368  0.4435  0.3965
23084SOL     OW72143   6.786   5.897   3.477 -0.5668  0.2445 -0.0426
23084SOL    HW172144   6.770   5.804   3.485 -1.1767  0.4075  0.7212
23084SOL    HW272145   6.862   5.903   3.419 -1.8289 -0.6243 -1.8793
23085SOL     OW72146   2.519   3.699   2.277  0.1659 -0.0033 -0.1432
23085SOL    HW172147   2.502   3.785   2.314 -2.0187 -0.4787  0.0629
23085SOL    HW272148   2.466   3.696   2.197  1.1798 -0.7156 -0.8150
23086SOL     OW72149   5.551   0.828   5.811 -0.4887 -0.8479  0.9362
23086SOL    HW172150   5.567   0.915   5.847 -0.2856 -1.2349  1.7996
23086SOL    HW272151   5.635   0.783   5.819  0.0881 -0.3881 -1.6906
23087SOL     OW72152   8.238   0.120   5.068 -0.3349  0.2620 -0.0922
23087SOL    HW172153   8.298   0.182   5.027 -2.4674  0.3237 -3.5679
23087SOL    HW272154   8.286   0.037   5.068  0.5313  0.7410 -0.8131
23088SOL     OW72155   0.866   2.257   8.442  0.2926 -0.3232 -0.6960
23088SOL    HW172156   0.797   2.311   8.404 -0.1509 -2.1521 -2.6562
23088SOL    HW272157   0.820   2.194   8.497  0.6290 -0.0742 -0.1149
23089SOL     OW72158   6.196   1.665   5.364 -0.4341 -0.3054 -0.2891
23089SOL    HW172159   6.244   1.632   5.288  0.3823  0.7198 -0.2371
23089SOL    HW272160   6.252   1.643   5.439  0.2700  1.4010 -0.2790
23090SOL     OW72161   1.580   0.945   0.941 -0.1068  0.0736  0.2875
23090SOL    HW172162   1.570   1.025   0.890 -2.5113  0.7589  1.6567
23090SOL    HW272163   1.491   0.909   0.947  0.9954 -3.2137 -0.9502
23091SOL     OW72164   6.084   7.589   5.498  0.4014 -0.3148 -0.3495
23091SOL    HW172165   6.085   7.526   5.426  2.8703 -0.2190 -0.4720
23091SOL    HW272166   6.118   7.670   5.460  2.2383 -0.4042  1.0013
23092SOL     OW72167   2.913   3.446   5.641 -0.1160 -0.0876 -0.2720
23092SOL    HW172168   2.934   3.531   5.602 -0.6821  0.2314  0.1008
23092SOL    HW272169   2.911   3.464   5.735 -0.2518 -0.5108 -0.1956
23093SOL     OW72170   1.166   1.055   1.537  0.3165  0.2223 -0.1899
23093SOL    HW172171   1.242   1.081   1.589 -1.3450  1.5832  1.7020
23093SOL    HW272172   1.150   0.964   1.561  1.1980 -0.0095 -0.4450
23094SOL     OW72173   8.192   6.974   2.866  0.6716 -0.4456  0.3870
23094SOL    HW172174   8.276   6.950   2.904  1.1523  1.1229  0.3830
23094SOL    HW272175   8.212   7.006   2.778  0.0268 -0.3874  0.2502
23095SOL     OW72176   8.913   3.366   1.065 -0.3736  0.1194 -0.2344
23095SOL    HW172177   8.845   3.300   1.078  0.0831 -0.3935 -0.4408
23095SOL    HW272178   8.952   3.378   1.152 -2.2102  2.0880  0.4233
23096SOL     OW72179   0.088   6.950   0.480 -0.1052  0.1937 -0.0812
23096SOL    HW172180   0.034   6.873   0.497  0.4737  0.1181  1.6321
23096SOL    HW272181   0.152   6.921   0.415 -2.0133  0.2683 -2.1144
23097SOL     OW72182   9.172   4.638   8.009 -0.2514 -0.5154 -0.5267
23097SOL    HW172183   9.089   4.620   8.052  0.0655 -1.0267 -0.1238
23097SOL    HW272184   9.161   4.726   7.972 -0.6289 -0.1666  0.3683
23098SOL     OW72185   4.434   2.364   0.900 -0.1102  0.4410  0.0492
23098SOL    HW172186   4.525   2.388   0.917 -0.2233  0.6324  0.3899
23098SOL    HW272187   4.392   2.368   0.985 -0.4241  0.2847 -0.0968
23099SOL     OW72188   0.354   1.572   5.329  0.4435 -0.6272 -0.3641
23099SOL    HW172189   0.320   1.486   5.305 -1.3456 -0.6313  1.7938
23099SOL    HW272190   0.282   1.632   5.311 -0.0314 -0.2860  2.2331
23100SOL     OW72191   8.084   7.993   4.644  0.2757 -0.3607  0.1991
23100SOL    HW172192   8.035   8.027   4.569  1.0422 -1.0549 -0.6543
23100SOL    HW272193   8.127   7.915   4.610  1.3615 -0.1896  1.1324
23101SOL     OW72194   7.801   4.393   2.917 -0.2091  0.1435 -0.1327
23101SOL    HW172195   7.804   4.454   2.843  0.3093  0.1191 -0.1327
23101SOL    HW272196   7.858   4.432   2.983 -0.7899  0.2404  0.3130
23102SOL     OW72197   7.848   8.118   6.573  0.5445 -0.7106  0.5392
23102SOL    HW172198   7.884   8.130   6.485 -0.8852 -1.8165 -0.2507
23102SOL    HW272199   7.856   8.203   6.614 -0.5788  0.4129 -1.4025
23103SOL     OW72200   7.433   5.797   6.581  0.3060 -0.3488  0.3428
23103SOL    HW172201   7.453   5.863   6.647  1.9751 -0.8704  0.4048
23103SOL    HW272202   7.419   5.846   6.501  1.7673  0.0838  0.3366
23104SOL     OW72203   2.032   3.553   3.029 -0.5193  0.3141  0.4268
23104SOL    HW172204   2.020   3.607   2.951 -0.6868  0.5958  0.6474
23104SOL    HW272205   1.969   3.481   3.019 -0.5062  0.3232  0.2801
23105SOL     OW72206   5.252   2.566   6.834  0.6402  0.3981  0.4438
23105SOL    HW172207   5.262   2.489   6.891  0.2258  0.8852  1.1952
23105SOL    HW272208   5.180   2.616   6.874 -2.7552 -1.3227 -2.8416
23106SOL     OW72209   7.244   1.354   0.646  0.0891 -0.2233  0.4788
23106SOL    HW172210   7.334   1.332   0.620  1.0865  3.7214 -0.0541
23106SOL    HW272211   7.191   1.327   0.571  1.3558  0.4644 -0.7249
23107SOL     OW72212   5.085   1.292   1.217  0.2543 -0.1928 -0.6228
23107SOL    HW172213   5.121   1.247   1.293 -0.2230  0.7241  0.1814
23107SOL    HW272214   5.147   1.362   1.199  0.0877 -0.0695 -0.7227
23108SOL     OW72215   8.364   4.281   7.229  0.9110 -0.1662 -0.7293
23108SOL    HW172216   8.322   4.201   7.260 -0.8628  0.0562 -2.3727
23108SOL    HW272217   8.455   4.257   7.213  0.8913 -1.2939  0.6914
23109SOL     OW72218   0.367   2.408   4.095  0.3861 -0.4053  0.6473
23109SOL    HW172219   0.359   2.410   4.191  0.5032 -1.3564  0.6776
23109SOL    HW272220   0.436   2.344   4.078  1.1370  0.5573 -0.0359
23110SOL     OW72221   8.432   3.307   9.124 -0.6669  0.2672  0.5068
23110SOL    HW172222   8.466   3.262   9.047  0.8302  0.0567  1.2520
23110SOL    HW272223   8.390   3.386   9.090 -1.7371 -0.7705 -0.6637
23111SOL     OW72224   2.510   2.882   4.663  0.4140  0.2778  0.4801
23111SOL    HW172225   2.538   2.923   4.745  1.8352 -1.4371  0.9011
23111SOL    HW272226   2.563   2.924   4.596  0.4377  0.5055  0.6388
23112SOL     OW72227   3.481   7.685   0.255 -0.4311 -0.3785 -0.3967
23112SOL    HW172228   3.415   7.740   0.213  0.2858  0.4444 -0.4502
23112SOL    HW272229   3.564   7.711   0.216  0.1268 -0.2987  0.7981
23113SOL     OW72230   6.781   1.620   1.247 -0.4251  0.1442  0.1118
23113SOL    HW172231   6.725   1.671   1.188 -0.5165  0.4513  0.4548
23113SOL    HW272232   6.867   1.663   1.241 -0.1515 -0.4859 -0.6119
23114SOL     OW72233   3.823   2.638   5.584 -0.0288  0.1360  0.0978
23114SOL    HW172234   3.918   2.643   5.577  0.2544 -1.5846  1.9542
23114SOL    HW272235   3.806   2.568   5.647 -2.4907  1.4458  1.0538
23115SOL     OW72236   6.903   5.011   8.754  0.0624  0.2798 -0.6781
23115SOL    HW172237   6.903   5.092   8.805 -0.4139  0.5620 -1.1178
23115SOL    HW272238   6.938   5.037   8.668  0.2145 -0.0464 -0.7175
23116SOL     OW72239   0.839   6.031   1.867  0.2093 -0.0589 -0.5288
23116SOL    HW172240   0.755   6.074   1.858  0.3737  0.1988 -0.8619
23116SOL    HW272241   0.901   6.090   1.824  0.4524 -0.5763 -0.9061
23117SOL     OW72242   8.892   7.704   8.649 -0.1570 -0.2358  0.4262
23117SOL    HW172243   8.817   7.653   8.617  0.7751 -2.5216  1.6569
23117SOL    HW272244   8.946   7.718   8.571 -0.6185 -0.8094 -0.0068
23118SOL     OW72245   5.699   0.419   8.161 -0.4048  0.9143  0.0189
23118SOL    HW172246   5.688   0.351   8.227  1.4012 -0.4525 -1.0066
23118SOL    HW272247   5.609   0.442   8.135 -1.0845 -0.0085  1.4055
23119SOL     OW72248   5.610   5.981   3.473 -0.3483  0.1173 -0.3696
23119SOL    HW172249   5.684   5.921   3.468 -0.7307 -0.3652 -0.3139
23119SOL    HW272250   5.616   6.034   3.394 -0.1397 -0.1495 -0.5318
23120SOL     OW72251   1.988   0.708   8.542 -0.4324 -0.0579 -0.1041
23120SOL    HW172252   1.928   0.684   8.613  0.8011 -1.2332  0.5705
23120SOL    HW272253   2.065   0.743   8.586 -0.7923  1.9995 -0.9866
23121SOL     OW72254   1.595   2.172   1.937 -0.2024  0.3509 -0.1173
23121SOL    HW172255   1.592   2.263   1.907 -1.0099  0.3999  0.0951
23121SOL    HW272256   1.617   2.178   2.030  0.0384  0.3100 -0.1705
23122SOL     OW72257   2.647   5.210   2.649 -0.0958 -0.9163 -0.6391
23122SOL    HW172258   2.650   5.268   2.573 -0.5679 -0.4639 -0.3246
23122SOL    HW272259   2.733   5.168   2.652  0.5075  0.3029 -0.4619
23123SOL     OW72260   7.113   3.561   0.255 -0.0525 -0.1138  0.0811
23123SOL    HW172261   7.077   3.516   0.332 -0.7781  0.2681 -0.0300
23123SOL    HW272262   7.200   3.589   0.282 -0.2201 -0.1750  0.6923
23124SOL     OW72263   3.091   8.392   3.344  0.3739 -0.0307  0.1334
23124SOL    HW172264   3.030   8.422   3.412 -0.0545  0.6896 -0.5503
23124SOL    HW272265   3.067   8.300   3.330 -0.0553  0.0341  0.4028
23125SOL     OW72266   5.600   3.983   3.684  0.2555 -0.2688  0.4383
23125SOL    HW172267   5.553   3.948   3.608  1.0535  0.2496 -0.3154
23125SOL    HW272268   5.624   3.906   3.735 -1.0559 -0.5685  0.6365
23126SOL     OW72269   2.716   4.038   8.565  0.2763  0.3085  0.2085
23126SOL    HW172270   2.718   4.045   8.470 -0.6100  0.1018  0.1583
23126SOL    HW272271   2.645   3.976   8.583 -0.6862  1.5801  1.0403
23127SOL     OW72272   3.355   5.165   7.907  0.0646  0.2480 -0.1252
23127SOL    HW172273   3.405   5.151   7.987 -0.2484  1.3432  0.2740
23127SOL    HW272274   3.412   5.218   7.852 -0.5524  1.3518  0.2625
23128SOL     OW72275   2.341   6.674   1.522 -0.4155  0.6419  0.4877
23128SOL    HW172276   2.369   6.616   1.593 -0.5991 -1.7741 -1.3152
23128SOL    HW272277   2.399   6.653   1.449 -1.8296  1.2455 -0.8718
23129SOL     OW72278   4.015   0.987   4.439  0.1219  0.0013 -0.3225
23129SOL    HW172279   3.940   1.038   4.468 -0.4669 -1.7868  1.6068
23129SOL    HW272280   4.027   1.010   4.347 -2.0126  1.2426 -0.3416
23130SOL     OW72281   2.138   2.178   4.933 -0.2044 -0.5758 -0.0047
23130SOL    HW172282   2.108   2.170   5.024 -0.5007 -0.3219 -0.0798
23130SOL    HW272283   2.139   2.272   4.917 -0.5157 -0.6371 -0.3860
23131SOL     OW72284   4.727   7.323   4.688 -0.2939  0.3366  0.3104
23131SOL    HW172285   4.676   7.244   4.702 -1.0331  0.9057  0.8820
23131SOL    HW272286   4.669   7.395   4.713  0.9069  0.9798  1.3603
23132SOL     OW72287   3.280   0.706   7.759  0.4557  0.7680 -0.0130
23132SOL    HW172288   3.348   0.773   7.751  0.6950  0.6808  1.1244
23132SOL    HW272289   3.232   0.730   7.838  0.6200 -0.4511  0.4920
23133SOL     OW72290   1.743   2.806   1.616 -0.0490  0.4039 -0.2385
23133SOL    HW172291   1.774   2.816   1.705 -0.8067 -0.4167  0.1313
23133SOL    HW272292   1.662   2.756   1.624 -0.7615  1.3331 -1.2830
23134SOL     OW72293   3.525   8.085   6.404 -0.1321  0.1094  0.1235
23134SOL    HW172294   3.553   7.993   6.399  0.8639  0.2921  1.6931
23134SOL    HW272295   3.586   8.131   6.345  0.4118 -0.0351  0.5604
23135SOL     OW72296   3.551   6.687   6.686 -0.0964  0.0392  0.4149
23135SOL    HW172297   3.538   6.599   6.724  0.3011 -0.1994  0.0013
23135SOL    HW272298   3.462   6.719   6.672 -0.3304 -1.4860 -2.1807
23136SOL     OW72299   6.402   3.347   0.963 -0.5000 -0.2564  0.1304
23136SOL    HW172300   6.486   3.317   0.997  0.7062  3.0063  0.4210
23136SOL    HW272301   6.341   3.340   1.037  0.0280 -0.7689  0.5196
23137SOL     OW72302   5.707   0.146   6.223 -0.0884 -0.1990 -0.0484
23137SOL    HW172303   5.733   0.189   6.142  0.5380 -0.9142 -0.2407
23137SOL    HW272304   5.663   0.214   6.274  1.6667  0.9229  0.0342
23138SOL     OW72305   0.506   2.496   3.703  0.3565  0.3163 -0.1277
23138SOL    HW172306   0.423   2.529   3.736 -1.0738 -2.6528 -0.4742
23138SOL    HW272307   0.555   2.471   3.782  0.8075  1.6453  0.0502
23139SOL     OW72308   1.988   6.740   4.386 -0.0622  0.3300  0.3554
23139SOL    HW172309   1.900   6.739   4.348  0.4303 -0.3181 -0.8530
23139SOL    HW272310   2.039   6.681   4.329  0.6263 -1.1103  2.3406
23140SOL     OW72311   2.504   1.793   8.525 -0.5430  0.1103  0.3892
23140SOL    HW172312   2.448   1.790   8.448 -0.2983  1.8011  0.1019
23140SOL    HW272313   2.444   1.805   8.599 -0.6497  0.4312  0.2493
23141SOL     OW72314   7.403   1.364   4.905  0.1019 -0.1043  0.3241
23141SOL    HW172315   7.497   1.348   4.898  0.1406  0.1473  0.2652
23141SOL    HW272316   7.370   1.350   4.816 -0.0117 -0.7831  0.4643
23142SOL     OW72317   5.868   8.199   6.262 -0.3402 -0.3904 -0.9214
23142SOL    HW172318   5.796   8.217   6.202  0.4135  1.6230 -1.2766
23142SOL    HW272319   5.829   8.210   6.349 -0.7270 -0.4547 -1.0817
23143SOL     OW72320   3.200   5.713   2.903 -0.4016 -0.1105  0.8008
23143SOL    HW172321   3.256   5.653   2.952  1.3452  0.7847 -0.0256
23143SOL    HW272322   3.257   5.752   2.837 -1.8618  1.3007  0.2834
23144SOL     OW72323   2.531   8.084   0.258  0.5145 -0.3718 -0.9176
23144SOL    HW172324   2.619   8.089   0.219  0.5645  0.5741 -0.7071
23144SOL    HW272325   2.523   8.164   0.310 -0.9016  0.1235 -1.8408
23145SOL     OW72326   2.397   4.998   8.153  0.0052  0.4461  0.0761
23145SOL    HW172327   2.404   4.925   8.215  0.4377 -1.5721 -2.1726
23145SOL    HW272328   2.487   5.009   8.119 -0.2703  1.2716 -0.4196
23146SOL     OW72329   0.895   0.392   1.823 -0.0189 -0.2348  0.4685
23146SOL    HW172330   0.968   0.346   1.781 -0.5100  0.5183 -1.3137
23146SOL    HW272331   0.927   0.482   1.833 -0.2034 -0.2267  1.0059
23147SOL     OW72332   0.545   8.254   2.336  0.5033 -0.1219 -0.7505
23147SOL    HW172333   0.488   8.331   2.338  0.5876 -0.0161 -1.7445
23147SOL    HW272334   0.605   8.267   2.409 -1.1677 -0.5867  0.7685
23148SOL     OW72335   2.795   1.261   8.228 -0.2671  0.5330 -0.1492
23148SOL    HW172336   2.885   1.230   8.222  1.0737  4.1269 -1.5572
23148SOL    HW272337   2.788   1.298   8.316 -0.8654 -0.9207  0.4399
23149SOL     OW72338   5.960   1.540   5.441 -0.1169 -0.1633 -0.0734
23149SOL    HW172339   5.985   1.455   5.403 -0.4475  0.0848 -0.8850
23149SOL    HW272340   6.030   1.599   5.414 -0.3301  0.0066 -0.2528
23150SOL     OW72341   4.597   2.709   2.025 -0.3061 -0.0742  0.3075
23150SOL    HW172342   4.664   2.778   2.031 -1.6487  1.1815  1.6505
23150SOL    HW272343   4.522   2.753   1.984 -1.5970 -0.3589  2.2708
23151SOL     OW72344   8.796   2.876   0.376  0.4031 -0.1182 -0.2609
23151SOL    HW172345   8.878   2.909   0.414  1.3556 -2.6460  0.0878
23151SOL    HW272346   8.809   2.883   0.281  1.2952 -1.0236 -0.2223
23152SOL     OW72347   3.085   5.800   0.563 -0.1535  0.2226 -0.0308
23152SOL    HW172348   2.998   5.839   0.566  0.4925  1.6529  0.9219
23152SOL    HW272349   3.088   5.755   0.478 -1.1906  1.6156 -0.8407
23153SOL     OW72350   6.050   1.869   0.310 -0.2421  0.6048  0.2596
23153SOL    HW172351   6.077   1.916   0.231 -0.6061  0.0986 -0.1718
23153SOL    HW272352   6.128   1.822   0.338 -1.0398 -2.4196 -2.0757
23154SOL     OW72353   6.689   4.132   3.630  0.1105  0.0860 -0.6559
23154SOL    HW172354   6.656   4.144   3.541 -0.4172 -0.1118 -0.4914
23154SOL    HW272355   6.781   4.108   3.619  0.4482  1.4759 -1.0993
23155SOL     OW72356   0.310   1.435   4.423 -0.6017 -0.2721 -0.9640
23155SOL    HW172357   0.245   1.495   4.460 -0.9576 -1.3668  0.2762
23155SOL    HW272358   0.382   1.492   4.395 -2.1727  1.0062 -2.6767
23156SOL     OW72359   0.883   7.907   5.015  0.0076  0.0642  0.2647
23156SOL    HW172360   0.829   7.835   4.982  1.8043 -0.6943 -1.2443
23156SOL    HW272361   0.851   7.923   5.103 -1.7370 -1.2746 -0.0755
23157SOL     OW72362   2.212   4.558   3.638  0.2399  0.4203  0.2101
23157SOL    HW172363   2.148   4.597   3.698 -0.7649  1.1048 -1.2515
23157SOL    HW272364   2.167   4.483   3.600 -0.4351  1.9795 -2.2177
23158SOL     OW72365   7.229   0.368   0.408 -0.6470  0.6457 -0.5574
23158SOL    HW172366   7.194   0.448   0.367  0.9207  0.8830 -1.5492
23158SOL    HW272367   7.295   0.399   0.470  1.2831  0.1462 -2.2436
23159SOL     OW72368   5.604   2.939   6.426  0.2477  0.3289 -0.3102
23159SOL    HW172369   5.532   2.885   6.393 -0.1018  0.5186  0.1200
23159SOL    HW272370   5.564   3.025   6.441  1.0872  1.1125 -2.2383
23160SOL     OW72371   5.760   2.110   7.051  0.1622  0.5938 -0.5904
23160SOL    HW172372   5.768   2.017   7.033  0.1572  0.9528 -2.6342
23160SOL    HW272373   5.838   2.131   7.103  0.3438 -0.4557 -0.4115
23161SOL     OW72374   5.185   3.225   2.525 -0.0576 -0.0940 -0.2214
23161SOL    HW172375   5.190   3.315   2.556  0.7595 -0.5637  1.0581
23161SOL    HW272376   5.225   3.228   2.438  2.0405  0.4004  0.7085
23162SOL     OW72377   2.057   0.491   1.929  0.4446 -0.1417  0.3002
23162SOL    HW172378   2.013   0.462   2.009  0.4135  0.6335  0.5664
23162SOL    HW272379   2.080   0.409   1.884  0.4042 -0.5853  1.0672
23163SOL     OW72380   2.275   0.246   6.070 -0.5162 -0.2546  0.2643
23163SOL    HW172381   2.345   0.237   6.134 -0.2394 -0.0867 -0.0116
23163SOL    HW272382   2.250   0.338   6.073  0.7998  0.1981 -1.1988
23164SOL     OW72383   7.447   7.301   4.283 -0.2370 -0.2304 -0.4928
23164SOL    HW172384   7.514   7.368   4.266 -1.9434  1.6299 -0.2510
23164SOL    HW272385   7.398   7.335   4.357 -2.1229 -1.0199 -1.3269
23165SOL     OW72386   8.805   7.722   6.124  0.1177 -0.0109  0.3445
23165SOL    HW172387   8.720   7.691   6.094  0.9493 -0.3929 -1.8257
23165SOL    HW272388   8.834   7.782   6.055  1.5007  0.3085  1.1621
23166SOL     OW72389   8.446   1.561   0.887  0.4624  0.3837 -0.3717
23166SOL    HW172390   8.394   1.633   0.852  0.2264  0.0677 -0.6704
23166SOL    HW272391   8.515   1.604   0.937  1.2934  0.8674 -1.8809
23167SOL     OW72392   5.127   2.751   8.193 -0.0219  0.0222 -0.1926
23167SOL    HW172393   5.223   2.750   8.192  0.1409 -4.1581  0.7518
23167SOL    HW272394   5.104   2.757   8.285 -0.7921  1.8790 -0.4630
23168SOL     OW72395   7.358   4.763   7.689  0.2264  0.0108  0.3830
23168SOL    HW172396   7.265   4.749   7.675  0.2480 -1.1912  1.2775
23168SOL    HW272397   7.401   4.713   7.619  0.2200  1.6993 -0.8967
23169SOL     OW72398   0.738   4.931   3.276 -0.3600  0.0832  0.1530
23169SOL    HW172399   0.678   4.967   3.211  0.0625  1.4126  0.4802
23169SOL    HW272400   0.812   4.991   3.278  0.7986 -1.2822  0.0930
23170SOL     OW72401   5.129   7.939   5.054 -0.5559 -0.5700 -0.0433
23170SOL    HW172402   5.136   8.027   5.018  0.6664  0.2413  2.0529
23170SOL    HW272403   5.096   7.886   4.981  1.0518  1.1024 -2.0881
23171SOL     OW72404   8.413   0.662   4.860 -0.1716  0.3050  0.3342
23171SOL    HW172405   8.438   0.662   4.952  1.0563  1.1902  0.0114
23171SOL    HW272406   8.348   0.732   4.852  0.6940  1.1240  0.2928
23172SOL     OW72407   7.227   2.571   2.155  0.5220 -0.2769  0.3376
23172SOL    HW172408   7.171   2.621   2.096 -0.5904 -2.0548 -0.2029
23172SOL    HW272409   7.295   2.632   2.181 -0.6281  1.4210 -0.4570
23173SOL     OW72410   6.709   2.169   4.754  0.4460  0.1307  0.1151
23173SOL    HW172411   6.778   2.154   4.689  1.7526 -0.1435  1.5184
23173SOL    HW272412   6.630   2.135   4.713  1.1323  0.4280 -1.5307
23174SOL     OW72413   2.720   2.229   8.384 -0.1801 -0.2005  0.2058
23174SOL    HW172414   2.705   2.177   8.463 -3.2836  0.3982  0.1359
23174SOL    HW272415   2.703   2.169   8.312 -1.5489  0.2719  0.1020
23175SOL     OW72416   8.660   6.385   7.184  0.0594  0.0145 -0.6016
23175SOL    HW172417   8.622   6.305   7.220 -0.4044  0.5960  0.2500
23175SOL    HW272418   8.597   6.414   7.118  0.0018 -0.0810 -0.5888
23176SOL     OW72419   2.383   1.659   5.937 -0.0869  0.3246  0.0597
23176SOL    HW172420   2.464   1.709   5.943  1.1898 -1.7733  1.4048
23176SOL    HW272421   2.322   1.707   5.993  0.4933  1.3677 -0.1579
23177SOL     OW72422   8.884   4.914   3.266 -0.0865 -0.0094  0.1280
23177SOL    HW172423   8.920   4.974   3.332  0.6117 -0.5344  0.2350
23177SOL    HW272424   8.914   4.949   3.182  0.7540 -0.4854  0.2214
23178SOL     OW72425   4.577   8.488   2.443 -0.1378  0.0518 -1.0036
23178SOL    HW172426   4.543   8.403   2.471  0.3981 -0.3613 -1.5663
23178SOL    HW272427   4.671   8.483   2.458 -0.3526  1.4258  1.1489
23179SOL     OW72428   5.867   7.616   4.160 -0.1495  0.1814 -0.3528
23179SOL    HW172429   5.897   7.556   4.229 -1.1408 -0.7785 -0.7232
23179SOL    HW272430   5.818   7.683   4.207 -1.3997 -0.8332 -0.1266
23180SOL     OW72431   4.804   7.842   5.825  0.1197 -0.2250  0.0074
23180SOL    HW172432   4.752   7.901   5.880 -2.1603 -0.3401 -1.8850
23180SOL    HW272433   4.863   7.900   5.777 -0.2089  0.2093  0.1228
23181SOL     OW72434   6.881   4.263   3.998 -0.0350 -0.0425 -0.0990
23181SOL    HW172435   6.821   4.265   3.924  1.6162 -1.8078 -1.6047
23181SOL    HW272436   6.910   4.353   4.008 -1.0417  0.3962 -0.9390
23182SOL     OW72437   8.162   1.760   7.164  0.3825 -0.1326  0.0532
23182SOL    HW172438   8.176   1.836   7.107 -0.9985  0.8447  0.9442
23182SOL    HW272439   8.242   1.754   7.216  0.3309  0.9998  0.2869
23183SOL     OW72440   9.093   3.299   5.676  0.7583  0.0406 -0.1464
23183SOL    HW172441   9.028   3.328   5.739 -0.2271 -1.7442 -0.2788
23183SOL    HW272442   9.135   3.380   5.646 -0.0818  1.0758  1.3304
23184SOL     OW72443   5.261   4.357   5.158 -0.6611  0.0857 -0.3079
23184SOL    HW172444   5.168   4.352   5.135 -1.1821  1.3384  1.3481
23184SOL    HW272445   5.262   4.356   5.254  1.1698 -1.6659 -0.2816
23185SOL     OW72446   1.680   1.574   3.127  0.4466  0.1168  0.3183
23185SOL    HW172447   1.768   1.596   3.098  0.2100  0.5345 -0.1074
23185SOL    HW272448   1.622   1.623   3.068 -0.1147 -1.8280 -0.8213
23186SOL     OW72449   1.241   4.916   6.223 -0.0238 -0.1129  0.4341
23186SOL    HW172450   1.284   4.839   6.186 -0.4537  0.0212 -0.3460
23186SOL    HW272451   1.227   4.892   6.315 -0.1685 -0.9737  0.2030
23187SOL     OW72452   5.009   3.452   8.036 -0.3967  0.0725  0.7943
23187SOL    HW172453   5.014   3.525   8.097 -1.3404 -0.6343  1.7563
23187SOL    HW272454   4.917   3.451   8.009  0.0330  0.4694 -0.7885
23188SOL     OW72455   3.203   0.548   1.815 -0.1967 -0.3739  0.1761
23188SOL    HW172456   3.291   0.553   1.852 -0.3047  0.9022  0.2982
23188SOL    HW272457   3.217   0.523   1.723  0.2416 -0.8897  0.3819
23189SOL     OW72458   3.501   3.935   4.728 -0.2504  0.3206 -0.0964
23189SOL    HW172459   3.453   4.018   4.722  0.9812  1.0699 -0.0461
23189SOL    HW272460   3.571   3.953   4.791  0.6595 -0.4305 -0.8544
23190SOL     OW72461   3.674   5.741   5.405 -0.4329 -0.4167  0.2729
23190SOL    HW172462   3.598   5.725   5.350 -1.1334  1.0379  0.7611
23190SOL    HW272463   3.666   5.833   5.431  0.5036 -0.7280  1.8234
23191SOL     OW72464   5.761   8.583   1.978 -0.2611  0.1642  0.2165
23191SOL    HW172465   5.742   8.627   1.896 -3.3613  1.6191  1.5654
23191SOL    HW272466   5.726   8.495   1.967  0.7817 -0.1851 -0.5055
23192SOL     OW72467   5.764   1.315   8.499 -0.5423 -0.0331  0.3071
23192SOL    HW172468   5.734   1.232   8.461 -0.2302  0.6377 -1.4760
23192SOL    HW272469   5.692   1.342   8.556 -2.0046 -0.0592 -1.4151
23193SOL     OW72470   2.805   4.465   1.633 -0.0920 -0.5134 -0.4025
23193SOL    HW172471   2.882   4.467   1.577 -0.6380  0.6132 -1.1480
23193SOL    HW272472   2.731   4.476   1.574 -0.8363 -1.5141  0.3107
23194SOL     OW72473   2.926   8.760   1.904  0.3640 -0.5279 -0.1133
23194SOL    HW172474   3.003   8.811   1.931 -1.0774  0.8080  1.7837
23194SOL    HW272475   2.881   8.817   1.842  1.3884 -1.7661 -2.0847
23195SOL     OW72476   3.726   6.369   6.633 -0.6559  0.1919 -0.0496
23195SOL    HW172477   3.786   6.311   6.679 -1.1992 -0.6899 -0.4322
23195SOL    HW272478   3.778   6.448   6.615  0.7453 -0.9558 -1.3329
23196SOL     OW72479   6.223   1.659   3.450 -0.4809  0.0450 -0.1078
23196SOL    HW172480   6.163   1.729   3.424 -0.9068 -0.3841 -0.2934
23196SOL    HW272481   6.215   1.656   3.546  0.4851  1.0838  0.0252
23197SOL     OW72482   4.908   6.669   1.982  0.1545  0.1617 -0.2774
23197SOL    HW172483   4.936   6.754   1.948 -1.6773  0.8948 -0.0463
23197SOL    HW272484   4.848   6.635   1.915  0.2371 -0.5932  0.0198
23198SOL     OW72485   0.855   9.173   8.003  0.4375 -0.5394  0.0784
23198SOL    HW172486   0.812   9.114   7.942  1.3671 -2.1338  0.8991
23198SOL    HW272487   0.889   9.244   7.948 -2.2100  0.2206 -0.7000
23199SOL     OW72488   4.909   7.197   7.369 -0.5144  0.6657 -0.2254
23199SOL    HW172489   4.866   7.116   7.343 -1.5917  1.1786 -0.1122
23199SOL    HW272490   4.853   7.267   7.334 -0.5452  1.3552  1.0937
23200SOL     OW72491   0.017   0.229   3.608 -0.0994 -0.0085 -0.0915
23200SOL    HW172492  -0.029   0.155   3.648 -1.2815  0.7593 -0.0014
23200SOL    HW272493   0.109   0.203   3.610 -0.4366 -1.2375  0.4518
23201SOL     OW72494   0.488   0.362   9.125 -0.1105 -0.2024 -0.0285
23201SOL    HW172495   0.429   0.293   9.157  1.0667 -0.3155  2.0101
23201SOL    HW272496   0.511   0.333   9.037  0.3836 -2.4793  0.7759
23202SOL     OW72497   8.602   0.132   4.008  0.1726  0.3879 -0.3042
23202SOL    HW172498   8.535   0.148   4.075 -0.0602 -1.7715  0.0627
23202SOL    HW272499   8.555   0.091   3.936  1.0197 -0.9837 -0.1224
23203SOL     OW72500   3.922   2.093   0.617 -0.7153 -0.2048  0.2686
23203SOL    HW172501   3.976   2.163   0.581  1.2601 -1.2292  1.0880
23203SOL    HW272502   3.832   2.120   0.598 -0.0882  2.8511  1.0794
23204SOL     OW72503   0.310   1.096   5.252 -0.0231 -0.0464 -0.3931
23204SOL    HW172504   0.249   1.160   5.288  0.4934  0.0696  0.2990
23204SOL    HW272505   0.396   1.136   5.261  0.2743 -0.6824 -0.3029
23205SOL     OW72506   6.500   6.201   4.914 -0.5738 -0.2525  0.3992
23205SOL    HW172507   6.423   6.146   4.928  0.1194 -0.5113  4.3459
23205SOL    HW272508   6.534   6.173   4.828 -3.9955 -1.0660 -0.8653
23206SOL     OW72509   5.253   5.973   5.138  0.6730 -0.1151  0.3223
23206SOL    HW172510   5.165   5.979   5.176  0.8045  1.8357  0.4230
23206SOL    HW272511   5.238   5.938   5.050 -0.2963  0.8204  0.0938
23207SOL     OW72512   7.221   0.635   7.621  0.3903 -0.4201 -0.1822
23207SOL    HW172513   7.164   0.711   7.609 -0.5425 -1.1504 -0.4423
23207SOL    HW272514   7.293   0.650   7.559  1.1625  1.1133  1.0164
23208SOL     OW72515   2.520   1.107   3.904  0.0791  0.5396  0.5670
23208SOL    HW172516   2.506   1.012   3.907  1.0873  0.3209 -0.7925
23208SOL    HW272517   2.605   1.120   3.945 -0.2527  0.9300  1.1541
23209SOL     OW72518   5.909   3.810   3.768  0.5753 -0.3418 -0.4518
23209SOL    HW172519   5.978   3.779   3.709 -1.3795 -1.3690 -2.3129
23209SOL    HW272520   5.858   3.732   3.789  0.2059  0.3108  1.2994
23210SOL     OW72521   6.245   1.237   0.940  0.2708  0.0777 -0.0125
23210SOL    HW172522   6.335   1.217   0.965  0.1455 -0.8865 -0.2821
23210SOL    HW272523   6.203   1.264   1.021  0.7508  0.3575  0.1502
23211SOL     OW72524   1.608   4.927   2.002  0.5630 -0.1101 -0.6984
23211SOL    HW172525   1.628   5.019   1.988  0.0474  0.7316  3.0251
23211SOL    HW272526   1.521   4.914   1.964 -0.3428  1.6176  0.6343
23212SOL     OW72527   1.618   3.017   0.004  0.2022  0.2331  0.4310
23212SOL    HW172528   1.560   2.990   0.075 -0.1509  0.4236  0.2205
23212SOL    HW272529   1.705   2.989   0.031 -0.1537 -1.1839  0.1987
23213SOL     OW72530   4.691   3.451   7.342  0.2131 -0.1483 -0.3401
23213SOL    HW172531   4.643   3.518   7.390  0.5370 -0.2641  0.1564
23213SOL    HW272532   4.644   3.370   7.362  0.2047 -0.1615 -0.4149
23214SOL     OW72533   2.298   6.944   7.606 -0.1861  0.7830 -0.0574
23214SOL    HW172534   2.245   6.963   7.683 -0.2323  2.0228 -0.3702
23214SOL    HW272535   2.241   6.965   7.532 -0.0887 -0.2332 -0.4351
23215SOL     OW72536   5.760   1.355   7.652  0.2090  0.4249 -0.2126
23215SOL    HW172537   5.793   1.309   7.729  3.4187  0.6150 -1.3384
23215SOL    HW272538   5.692   1.413   7.687  1.5939  0.5729  2.5211
23216SOL     OW72539   8.471   9.139   1.174  0.6119  0.1988  0.6535
23216SOL    HW172540   8.544   9.083   1.150 -0.0937 -0.5714  0.2398
23216SOL    HW272541   8.395   9.080   1.176 -0.3906  1.3505 -1.0724
23217SOL     OW72542   7.611   5.226   3.901  0.2676  0.3029  0.8599
23217SOL    HW172543   7.617   5.207   3.994 -1.2441  1.3532  1.2075
23217SOL    HW272544   7.529   5.274   3.891  0.2455 -0.0497 -1.0622
23218SOL     OW72545   7.768   0.004   1.787 -0.3297 -0.2564  0.4225
23218SOL    HW172546   7.699   0.068   1.771 -0.2238  0.6191  2.9059
23218SOL    HW272547   7.849   0.056   1.790  0.2671 -1.0586 -1.0451
23219SOL     OW72548   8.230   5.026   2.366 -0.4082  0.0273  0.0266
23219SOL    HW172549   8.294   4.984   2.424 -1.2862 -0.1257  0.9212
23219SOL    HW272550   8.168   5.069   2.426 -0.9233  0.4951 -0.8218
23220SOL     OW72551   4.222   3.940   0.783 -0.1953 -0.4568  0.1601
23220SOL    HW172552   4.202   3.878   0.854 -0.0787 -1.4424 -0.6450
23220SOL    HW272553   4.143   3.940   0.730  0.1531 -0.6572 -0.3668
23221SOL     OW72554   3.164   7.857   2.254 -0.1344  0.1160  0.2940
23221SOL    HW172555   3.156   7.920   2.326  1.3455 -0.2864  0.8502
23221SOL    HW272556   3.245   7.883   2.210 -1.5602  1.0202 -1.9262
23222SOL     OW72557   3.965   9.071   0.870  0.4916  0.1357  0.1634
23222SOL    HW172558   4.009   9.058   0.786 -0.0200 -0.8675  0.0384
23222SOL    HW272559   3.974   8.987   0.916  0.6046  0.6130  1.0394
23223SOL     OW72560   2.920   0.033   1.626 -0.0429  0.1915 -0.2411
23223SOL    HW172561   2.984   0.044   1.696 -0.7692  0.1978  0.4265
23223SOL    HW272562   2.861   0.108   1.635  0.8792  1.2215 -1.9955
23224SOL     OW72563   4.247   8.862   0.717  0.2652 -0.1038 -0.0908
23224SOL    HW172564   4.329   8.894   0.754  0.5913  0.3273 -1.1303
23224SOL    HW272565   4.214   8.936   0.665  0.2063 -0.9003 -1.2364
23225SOL     OW72566   1.525   0.456   5.197  0.5072 -0.3689  0.3390
23225SOL    HW172567   1.496   0.373   5.159 -1.6367  0.2413  0.4777
23225SOL    HW272568   1.602   0.480   5.147 -0.8429 -0.7647 -2.1076
23226SOL     OW72569   5.477   6.118   0.024  0.0218 -0.0290  0.8378
23226SOL    HW172570   5.454   6.048  -0.037 -2.4522  0.6737  0.8414
23226SOL    HW272571   5.533   6.075   0.089  1.0502 -1.2562 -0.7760
23227SOL     OW72572   2.809   6.559   9.039  0.0319 -0.1000 -0.2844
23227SOL    HW172573   2.830   6.591   9.127  0.2751 -2.0256  0.4199
23227SOL    HW272574   2.869   6.606   8.981  0.0548  1.0050  0.6076
23228SOL     OW72575   2.535   5.153   6.574 -0.0839  0.1811 -0.2766
23228SOL    HW172576   2.540   5.097   6.652  0.7987  2.1946  1.2028
23228SOL    HW272577   2.612   5.208   6.579 -0.8005  1.3982 -1.7793
23229SOL     OW72578   4.044   5.521   6.659  0.1057  0.2437 -0.0896
23229SOL    HW172579   3.985   5.448   6.636  0.5591 -0.1285 -0.0799
23229SOL    HW272580   4.024   5.540   6.751  0.4908 -0.3472  0.1196
23230SOL     OW72581   1.180   5.644   3.727  0.2308 -0.2017  0.7819
23230SOL    HW172582   1.194   5.588   3.803 -2.6698 -1.1279  0.7498
23230SOL    HW272583   1.113   5.707   3.754  0.0753  0.2795 -0.5967
23231SOL     OW72584   0.549   8.010   5.371 -0.4216  0.1472 -0.1077
23231SOL    HW172585   0.542   8.076   5.439 -0.4169  0.9486 -0.8713
23231SOL    HW272586   0.459   7.997   5.340 -0.2750  0.7223 -0.8095
23232SOL     OW72587   7.864   5.867   8.684  0.6614 -0.3229  0.1379
23232SOL    HW172588   7.854   5.874   8.589  0.9765  0.1737  0.1413
23232SOL    HW272589   7.849   5.955   8.717  1.6275 -0.2653  0.4514
23233SOL     OW72590   2.987   9.032   6.153 -0.5529  0.8015  0.0911
23233SOL    HW172591   2.916   9.081   6.111  0.1338 -0.4073 -2.7303
23233SOL    HW272592   3.067   9.069   6.116  0.3122  1.2128  2.1886
23234SOL     OW72593   9.006   0.058   0.264  0.1994 -0.2221  0.0629
23234SOL    HW172594   9.052  -0.024   0.248  1.0266  0.2180  0.1334
23234SOL    HW272595   8.961   0.077   0.182  0.6007 -0.3747 -0.1924
23235SOL     OW72596   1.613   3.075   1.926 -0.1422  0.3958 -0.4923
23235SOL    HW172597   1.703   3.045   1.932 -0.7531 -1.5814 -0.6608
23235SOL    HW272598   1.586   3.088   2.017 -0.4054 -1.3833 -0.2808
23236SOL     OW72599   3.293   5.719   1.745 -0.2399  0.1064  0.7099
23236SOL    HW172600   3.282   5.635   1.701  2.1696  0.0024  0.1451
23236SOL    HW272601   3.262   5.705   1.834 -0.6692 -1.1150  0.3843
23237SOL     OW72602   0.388   8.080   7.746  0.4047  0.2469  0.0219
23237SOL    HW172603   0.327   8.113   7.680  1.4581 -1.1514 -1.7190
23237SOL    HW272604   0.345   8.003   7.782 -0.3952  1.2833  1.4338
23238SOL     OW72605   3.768   6.245   7.845 -0.1167  0.4390 -0.1429
23238SOL    HW172606   3.747   6.244   7.751 -1.3282  0.4378  0.1065
23238SOL    HW272607   3.848   6.297   7.851  0.1579  0.1698 -1.2110
23239SOL     OW72608   5.178   3.548   2.218 -0.5913 -0.4281  0.1538
23239SOL    HW172609   5.261   3.597   2.226 -1.1502  0.4671  0.7475
23239SOL    HW272610   5.157   3.551   2.125 -0.8720  0.9632  0.2288
23240SOL     OW72611   6.183   0.401   5.487  0.5649 -0.6924  0.0472
23240SOL    HW172612   6.176   0.464   5.559 -0.0290  0.4911 -1.0047
23240SOL    HW272613   6.269   0.416   5.449  0.0608  0.1591 -0.7873
23241SOL     OW72614   5.037   2.940   8.886  0.3092 -0.3890 -0.1439
23241SOL    HW172615   5.082   3.009   8.837 -0.7697 -0.4288 -1.2097
23241SOL    HW272616   5.039   2.864   8.829  1.3135 -1.2270  0.9483
23242SOL     OW72617   2.787   8.062   8.623  0.4471 -0.3003 -0.4922
23242SOL    HW172618   2.839   7.988   8.656 -0.2491 -0.5267  0.1270
23242SOL    HW272619   2.781   8.122   8.698 -0.3745 -0.3861 -0.4846
23243SOL     OW72620   8.533   1.743   1.091 -0.1476  0.2431  0.0738
23243SOL    HW172621   8.522   1.774   1.181 -2.1247  1.7728 -0.6358
23243SOL    HW272622   8.531   1.822   1.038  1.0161 -0.6319 -1.3607
23244SOL     OW72623   6.846   7.625   8.474  0.1619  0.4588  0.2670
23244SOL    HW172624   6.873   7.615   8.383 -0.9475 -0.8414  0.0596
23244SOL    HW272625   6.757   7.661   8.470 -0.0494  0.0256  0.8183
23245SOL     OW72626   0.750   4.058   7.696 -0.5964  0.2875  0.4219
23245SOL    HW172627   0.845   4.059   7.692 -0.6073  0.8125  0.1672
23245SOL    HW272628   0.725   4.148   7.716 -1.0022 -0.0928  1.7462
23246SOL     OW72629   5.419   5.865   6.416  0.3887 -0.1945  0.1369
23246SOL    HW172630   5.499   5.897   6.457 -0.0813  1.5316 -0.2377
23246SOL    HW272631   5.443   5.848   6.325  0.4204 -0.0817  0.1251
23247SOL     OW72632   2.993   6.425   4.850 -0.2195  0.5777  0.2096
23247SOL    HW172633   3.077   6.379   4.855  2.3359  4.6278 -0.7239
23247SOL    HW272634   2.982   6.463   4.937 -0.0014  1.6085 -0.1918
23248SOL     OW72635   1.717   8.740   1.280  0.0276  0.1530  0.1668
23248SOL    HW172636   1.727   8.651   1.314  1.0077  0.9077  1.9480
23248SOL    HW272637   1.804   8.763   1.247 -0.1197  0.6148  0.0922
23249SOL     OW72638   1.069   3.893   5.891 -0.5596 -0.4108  0.1905
23249SOL    HW172639   1.028   3.941   5.820  1.5265 -1.0617 -1.5477
23249SOL    HW272640   1.138   3.950   5.923  2.6951 -2.3675 -2.6315
23250SOL     OW72641   7.853   4.393   0.798  0.5961 -0.0482  0.3745
23250SOL    HW172642   7.761   4.370   0.809  0.5568  0.4793  1.1740
23250SOL    HW272643   7.864   4.475   0.846  1.7075 -0.6178  1.1214
23251SOL     OW72644   0.370   8.905   0.801 -0.4076  0.4922 -0.6062
23251SOL    HW172645   0.449   8.943   0.841  0.6000 -2.1905  0.1519
23251SOL    HW272646   0.320   8.872   0.875 -0.7883 -0.4504 -1.2704
23252SOL     OW72647   4.862   1.110   5.144 -0.3847 -0.2938  0.0072
23252SOL    HW172648   4.955   1.118   5.168 -0.5517 -0.5631  0.7721
23252SOL    HW272649   4.861   1.043   5.076  0.1002  0.4771 -0.7796
23253SOL     OW72650   7.856   2.792   7.854 -0.3686  0.9008  0.1844
23253SOL    HW172651   7.776   2.773   7.902 -0.5833  1.7733  0.1901
23253SOL    HW272652   7.826   2.840   7.776  0.0429  0.1862 -0.4221
23254SOL     OW72653   1.091   2.396   2.355 -0.1586  0.4015 -0.3458
23254SOL    HW172654   1.078   2.453   2.279 -1.7095  1.3138  0.5317
23254SOL    HW272655   1.123   2.314   2.319  1.1186  1.4714 -1.7698
23255SOL     OW72656   1.282   5.204   5.638  0.1168  0.5297 -0.0987
23255SOL    HW172657   1.346   5.243   5.578  0.9603  0.5037  0.7475
23255SOL    HW272658   1.198   5.217   5.596  0.2675  3.7494  0.3392
23256SOL     OW72659   1.881   8.036   4.302  0.2716 -0.2831  0.1086
23256SOL    HW172660   1.827   8.089   4.360  1.5506 -0.8313  1.8575
23256SOL    HW272661   1.935   7.983   4.360  3.2900  0.7962 -1.5061
23257SOL     OW72662   4.763   3.820   1.948  0.9858  0.1879  0.2666
23257SOL    HW172663   4.779   3.730   1.977 -1.8536 -0.7840 -0.8864
23257SOL    HW272664   4.809   3.826   1.864 -0.3291 -0.8781 -0.5783
23258SOL     OW72665   7.404   0.722   7.839  0.6290  0.0121  0.0718
23258SOL    HW172666   7.331   0.700   7.780  0.9041  0.3727 -0.4052
23258SOL    HW272667   7.444   0.638   7.859  1.4768  0.0200 -1.4906
23259SOL     OW72668   5.787   5.045   6.348  0.0611 -0.6166 -0.2336
23259SOL    HW172669   5.854   5.054   6.415  0.7406  1.9357 -1.1677
23259SOL    HW272670   5.706   5.074   6.389  0.1664 -0.5504 -0.0763
23260SOL     OW72671   5.582   4.725   7.376  0.4249  0.3770  0.1101
23260SOL    HW172672   5.649   4.787   7.348  2.1682 -2.1757 -1.8808
23260SOL    HW272673   5.544   4.691   7.295  0.7880 -2.3394  0.9524
23261SOL     OW72674   7.880   3.820   6.154  0.1960  0.2995 -0.0015
23261SOL    HW172675   7.885   3.892   6.217 -0.8702 -1.1216  1.8029
23261SOL    HW272676   7.807   3.843   6.096  0.6891  1.2531 -0.2584
23262SOL     OW72677   7.644   7.106   1.648  0.3885  0.1769 -0.3790
23262SOL    HW172678   7.580   7.039   1.673  2.1323 -1.2058  0.6776
23262SOL    HW272679   7.717   7.092   1.709  0.9102  2.9499 -0.2620
23263SOL     OW72680   7.693   3.669   3.715 -0.7173  0.2507 -0.0276
23263SOL    HW172681   7.651   3.607   3.656 -1.6918  2.4318 -1.8089
23263SOL    HW272682   7.687   3.629   3.802 -0.9917 -2.2158 -1.1084
23264SOL     OW72683   2.800   3.522   8.054 -0.3111 -0.9204  0.5572
23264SOL    HW172684   2.708   3.506   8.077 -0.3799 -1.4545 -0.0692
23264SOL    HW272685   2.796   3.556   7.964 -0.2488  3.3378  1.9308
23265SOL     OW72686   1.549   5.857   5.788 -0.2872 -0.7881  0.1736
23265SOL    HW172687   1.583   5.914   5.718 -1.0609 -0.3259  0.1524
23265SOL    HW272688   1.525   5.918   5.858 -0.9750 -1.0892  0.2123
23266SOL     OW72689   5.598   8.957   8.962  0.2158  0.2442  0.6157
23266SOL    HW172690   5.692   8.965   8.947 -0.0386  0.1795 -1.2397
23266SOL    HW272691   5.588   8.958   9.057  1.9915  1.2960  0.8200
23267SOL     OW72692   7.770   6.852   5.145 -0.4266 -0.1688 -0.7786
23267SOL    HW172693   7.682   6.847   5.182 -0.3073  1.6014 -0.1478
23267SOL    HW272694   7.790   6.762   5.118 -1.9068 -0.8485  0.2387
23268SOL     OW72695   1.926   7.885   3.807  0.1628 -0.1968  0.0278
23268SOL    HW172696   2.013   7.865   3.839  0.0879 -0.1283  0.2767
23268SOL    HW272697   1.933   7.880   3.711  0.8194  1.3058 -0.0330
23269SOL     OW72698   6.483   7.537   0.250  0.3463  0.0569 -0.1915
23269SOL    HW172699   6.513   7.516   0.162 -0.1691 -1.2351 -0.0695
23269SOL    HW272700   6.413   7.601   0.237  0.9613  0.6529 -0.6477
23270SOL     OW72701   8.589   6.353   1.272 -0.2083 -0.0775  0.3641
23270SOL    HW172702   8.622   6.442   1.288  1.4610 -0.1537 -2.0606
23270SOL    HW272703   8.540   6.360   1.190  0.9769 -1.5684 -0.5254
23271SOL     OW72704   0.942   7.571   0.982  0.2147  0.0179  0.9743
23271SOL    HW172705   0.912   7.608   1.064  2.0806  0.6512  1.4165
23271SOL    HW272706   0.943   7.644   0.921 -2.4270 -0.6970 -0.0582
23272SOL     OW72707   5.074   9.097   1.405 -0.5830  0.4118 -0.5670
23272SOL    HW172708   5.065   9.068   1.495 -1.1181 -0.5319 -0.9130
23272SOL    HW272709   5.012   9.170   1.398 -0.4880  0.5355 -0.1564
23273SOL     OW72710   5.545   5.282   7.134 -0.1216 -0.3155 -0.6285
23273SOL    HW172711   5.560   5.237   7.052  0.5582 -0.8887 -0.1973
23273SOL    HW272712   5.517   5.214   7.195 -0.9348  0.1533 -0.4562
23274SOL     OW72713   1.874   6.319   6.930  0.2029 -0.6557 -0.0391
23274SOL    HW172714   1.813   6.254   6.895  0.8235 -1.7539  0.8340
23274SOL    HW272715   1.960   6.277   6.924  0.8366  0.7141 -0.8901
23275SOL     OW72716   2.920   2.760   4.600  0.1436 -0.5579 -0.1925
23275SOL    HW172717   2.948   2.775   4.510  0.3859 -1.6925 -0.3190
23275SOL    HW272718   2.869   2.838   4.623 -1.5614 -1.0660 -1.9685
23276SOL     OW72719   6.820   1.410   7.102  0.0209 -0.0037 -0.4077
23276SOL    HW172720   6.833   1.505   7.111  0.6447 -0.1701  0.5262
23276SOL    HW272721   6.776   1.401   7.017  1.7136  0.9720 -1.4544
23277SOL     OW72722   2.594   4.964   2.332 -0.4224 -0.7891  0.0615
23277SOL    HW172723   2.562   4.893   2.276 -0.8482 -0.9776  0.5389
23277SOL    HW272724   2.686   4.974   2.308 -0.3932 -1.4200 -0.0966
23278SOL     OW72725   8.879   8.537   3.917 -0.1432  0.0481  0.0360
23278SOL    HW172726   8.878   8.443   3.937 -0.2120  0.4449  2.1265
23278SOL    HW272727   8.788   8.564   3.930 -0.0614  0.4679 -0.2765
23279SOL     OW72728   3.169   3.190   2.958 -0.0450 -0.1767 -0.3093
23279SOL    HW172729   3.238   3.179   2.893 -0.4901 -0.9498 -0.6683
23279SOL    HW272730   3.147   3.101   2.986  0.1729  0.1526  0.9480
23280SOL     OW72731   6.588   1.839   2.821  0.0297 -0.7274 -0.0121
23280SOL    HW172732   6.580   1.900   2.748  2.4521 -1.8368 -1.3233
23280SOL    HW272733   6.551   1.757   2.788  0.7638 -1.1219  0.1274
23281SOL     OW72734   0.654   6.522   2.801 -0.1231  0.2138 -0.5965
23281SOL    HW172735   0.739   6.480   2.789 -0.7224 -1.0167 -0.5983
23281SOL    HW272736   0.651   6.589   2.732 -0.1823 -1.4303 -2.2637
23282SOL     OW72737   8.832   4.741   3.891  0.3158 -0.0005  0.5826
23282SOL    HW172738   8.837   4.830   3.927  2.3839 -0.6833  2.1861
23282SOL    HW272739   8.818   4.754   3.798 -0.1518  1.9819  0.8740
23283SOL     OW72740   0.126   0.043   3.161 -0.3966 -0.0960 -0.0535
23283SOL    HW172741   0.047   0.074   3.206  0.7389  1.6323  0.8857
23283SOL    HW272742   0.166  -0.019   3.223 -1.5158 -1.8193 -0.9857
23284SOL     OW72743   0.722   4.010   3.677  0.0433 -0.6672  0.0848
23284SOL    HW172744   0.730   3.935   3.618  1.4182 -1.0688  0.7273
23284SOL    HW272745   0.757   3.978   3.760 -1.2308  0.0899  0.9430
23285SOL     OW72746   1.455   8.836   8.492  0.1061 -0.0603 -0.2741
23285SOL    HW172747   1.521   8.835   8.561  1.6710 -1.7280 -1.6887
23285SOL    HW272748   1.394   8.906   8.518  1.6508  0.6239  1.7886
23286SOL     OW72749   0.015   2.401   0.032  0.1563  0.7406 -0.1413
23286SOL    HW172750   0.007   2.307   0.013  1.7089  0.7838 -1.1994
23286SOL    HW272751  -0.073   2.428   0.058 -0.1835 -1.1358  0.8060
23287SOL     OW72752   1.608   8.461   8.310  0.1102  0.0972 -0.0688
23287SOL    HW172753   1.674   8.504   8.255 -0.5804  0.4027 -0.6882
23287SOL    HW272754   1.535   8.523   8.312 -0.6318 -0.7322 -0.3986
23288SOL     OW72755   8.329   1.641   5.069  0.0410  0.4486 -0.4257
23288SOL    HW172756   8.282   1.598   4.998 -0.5172 -0.8657  0.6914
23288SOL    HW272757   8.262   1.690   5.117  0.4256  1.3875 -0.8231
23289SOL     OW72758   6.748   2.082   5.332  0.7794 -0.1290 -0.0508
23289SOL    HW172759   6.719   2.051   5.247 -1.4892  0.1685  0.5584
23289SOL    HW272760   6.706   2.167   5.342  2.4282  0.6349  0.6511
23290SOL     OW72761   7.044   5.696   4.031  0.1555 -0.5499 -0.4329
23290SOL    HW172762   7.014   5.669   4.119  0.8867 -0.3752 -0.1272
23290SOL    HW272763   7.137   5.673   4.030  0.2376 -0.1835 -1.0264
23291SOL     OW72764   7.131   3.665   0.717 -0.5196 -0.0941 -0.4370
23291SOL    HW172765   7.220   3.691   0.696 -0.1201  0.6668  1.9503
23291SOL    HW272766   7.091   3.743   0.756 -1.1458 -1.3190  1.5500
23292SOL     OW72767   1.914   0.824   4.999 -0.1709  0.2194 -0.6682
23292SOL    HW172768   1.861   0.860   4.928 -1.1268 -0.1728 -0.1732
23292SOL    HW272769   1.850   0.788   5.061  0.5898  1.1445  0.7250
23293SOL     OW72770   1.412   0.501   0.390  0.2486 -0.1931  0.0390
23293SOL    HW172771   1.504   0.515   0.410 -0.5555  3.3157  2.0054
23293SOL    HW272772   1.393   0.560   0.317 -0.9553  1.1733  1.3946
23294SOL     OW72773   8.072   7.090   0.324  0.0976 -0.1142 -0.5671
23294SOL    HW172774   8.101   7.000   0.337 -0.1904 -0.1766 -0.3633
23294SOL    HW272775   8.142   7.144   0.362 -0.6331 -0.2863  1.0655
23295SOL     OW72776   3.038   4.048   4.141  0.0005  0.3196  0.1236
23295SOL    HW172777   3.112   4.107   4.130  2.2502 -2.0676  1.3087
23295SOL    HW272778   2.993   4.049   4.056  2.7706  0.1575 -1.4588
23296SOL     OW72779   3.527   1.731   8.773 -0.3600  0.4374  0.0221
23296SOL    HW172780   3.611   1.699   8.741 -1.8483 -2.1069 -1.6369
23296SOL    HW272781   3.526   1.824   8.749  0.9032 -0.0927 -2.3629
23297SOL     OW72782   3.084   2.701   1.635  0.0035  0.2480 -0.1252
23297SOL    HW172783   3.113   2.638   1.700 -1.2432  1.1372  1.3649
23297SOL    HW272784   2.998   2.669   1.607 -0.3002  0.8589  0.0802
23298SOL     OW72785   0.440   4.577   8.810  0.2130 -0.2299 -0.5587
23298SOL    HW172786   0.416   4.669   8.795  2.7421  0.7619  0.7473
23298SOL    HW272787   0.372   4.543   8.867 -0.1407  1.2330 -0.0677
23299SOL     OW72788   6.615   8.787   0.695  0.2184 -0.3893  0.1583
23299SOL    HW172789   6.636   8.729   0.768 -0.3783  2.1450  2.5334
23299SOL    HW272790   6.522   8.807   0.706  0.0219 -0.1846 -1.5481
23300SOL     OW72791   5.328   6.913   3.536  0.4046  0.6546  0.6373
23300SOL    HW172792   5.293   6.970   3.604 -0.2744  0.3913  0.5150
23300SOL    HW272793   5.254   6.897   3.477  0.7586  0.1859  0.3081
23301SOL     OW72794   2.781   4.316   5.952  1.0486  0.1379  0.1112
23301SOL    HW172795   2.744   4.229   5.965 -1.1599  1.0406  0.3117
23301SOL    HW272796   2.824   4.311   5.867 -0.1076 -0.8415 -0.4497
23302SOL     OW72797   6.980   0.126   6.027 -0.3571  0.2857 -0.5152
23302SOL    HW172798   6.960   0.080   6.109 -1.4758  0.6968 -0.5349
23302SOL    HW272799   6.934   0.210   6.035  0.6131  0.8863 -1.0168
23303SOL     OW72800   8.207   8.404   1.652 -0.5438 -0.3888 -0.1765
23303SOL    HW172801   8.154   8.325   1.665 -0.8136  0.0574  1.7136
23303SOL    HW272802   8.211   8.415   1.557 -0.3381 -2.7669 -0.5069
23304SOL     OW72803   5.134   6.354   8.565 -0.4624  0.0313 -0.1073
23304SOL    HW172804   5.196   6.386   8.630 -0.7118 -0.7806  0.5542
23304SOL    HW272805   5.124   6.426   8.503  0.9764  0.2408 -0.1186
23305SOL     OW72806   6.930   7.685   3.330  0.3298 -0.4375 -0.1589
23305SOL    HW172807   6.965   7.774   3.333 -0.2786 -0.2119  1.4609
23305SOL    HW272808   6.972   7.640   3.403  0.5157 -1.4474 -0.8709
23306SOL     OW72809   5.839   8.312   5.640 -0.3759 -0.0460  0.2885
23306SOL    HW172810   5.824   8.406   5.632  1.8082  0.3421  0.2037
23306SOL    HW272811   5.887   8.302   5.722  1.2521 -0.8176 -0.7267
23307SOL     OW72812   5.828   2.144   3.090  0.2584  0.1937  0.3585
23307SOL    HW172813   5.795   2.188   3.167  1.3189  0.0880  0.8854
23307SOL    HW272814   5.756   2.149   3.027 -0.1465  1.4135  0.8922
23308SOL     OW72815   8.392   7.129   1.176 -0.4846 -0.0289 -0.0456
23308SOL    HW172816   8.379   7.211   1.129 -0.4033  0.3535  0.5811
23308SOL    HW272817   8.354   7.061   1.119 -1.1536  0.5234 -0.2699
23309SOL     OW72818   5.321   2.616   2.327 -0.4358 -0.2407 -0.0091
23309SOL    HW172819   5.415   2.634   2.328 -0.3078 -0.6301 -2.0967
23309SOL    HW272820   5.312   2.530   2.369  0.0526  0.0472  0.7070
23310SOL     OW72821   5.582   5.454   7.663 -0.1476  0.2911  0.1616
23310SOL    HW172822   5.505   5.396   7.656  0.1192 -0.0829  0.3165
23310SOL    HW272823   5.654   5.402   7.626 -0.0821  0.8584 -0.5254
23311SOL     OW72824   2.025   8.003   2.130 -0.4129  0.0161 -0.4725
23311SOL    HW172825   2.075   7.923   2.142 -0.6996  0.0093  0.8592
23311SOL    HW272826   2.090   8.073   2.135 -0.0235 -0.1392 -2.5895
23312SOL     OW72827   0.130   6.870   2.282  0.2800 -0.0802 -0.8038
23312SOL    HW172828   0.195   6.925   2.327 -0.0224  0.4610 -1.0248
23312SOL    HW272829   0.178   6.790   2.261  0.2410 -0.6764  1.1513
23313SOL     OW72830   6.857   5.489   5.451 -0.3763  0.2771  0.5178
23313SOL    HW172831   6.837   5.428   5.523  0.1372  0.4310  0.7936
23313SOL    HW272832   6.803   5.566   5.470 -1.3190 -0.2247 -0.0384
23314SOL     OW72833   3.883   6.451   3.156 -0.5152 -0.4481 -0.8900
23314SOL    HW172834   3.884   6.421   3.247 -0.5264  2.4794  0.1793
23314SOL    HW272835   3.968   6.427   3.122  0.7020  1.0312  0.8999
23315SOL     OW72836   7.035   6.066   4.070  0.7109  0.1075 -0.1183
23315SOL    HW172837   7.125   6.092   4.089  0.0799  0.4520  2.8643
23315SOL    HW272838   7.018   5.995   4.132 -1.1568  0.1947 -0.4908
23316SOL     OW72839   9.112   8.965   5.983 -0.4340  0.5212  0.5924
23316SOL    HW172840   9.176   8.996   6.046 -0.7677 -0.0223  1.2165
23316SOL    HW272841   9.077   8.885   6.022 -2.7381  1.6952  1.1279
23317SOL     OW72842   1.249   4.204   6.596  0.0850  0.5330  0.3201
23317SOL    HW172843   1.184   4.273   6.579 -1.5111 -1.2017 -1.0110
23317SOL    HW272844   1.306   4.205   6.520  0.5090  0.8263  0.6349
23318SOL     OW72845   3.286   2.217   5.870  0.3041  0.4091 -0.5625
23318SOL    HW172846   3.195   2.209   5.897 -0.7369  2.2072 -3.1678
23318SOL    HW272847   3.299   2.311   5.854  1.2949 -0.1712 -4.1078
23319SOL     OW72848   2.543   5.457   5.524 -0.3149 -0.4582  0.1547
23319SOL    HW172849   2.491   5.378   5.508 -2.1339  0.8957 -0.9627
23319SOL    HW272850   2.479   5.526   5.537  1.2385  1.0046  0.4092
23320SOL     OW72851   3.316   1.775   4.157  0.3807 -0.2776 -0.3635
23320SOL    HW172852   3.333   1.754   4.249 -0.8097 -2.6184 -0.5983
23320SOL    HW272853   3.221   1.769   4.147  0.5074 -0.4106 -1.8053
23321SOL     OW72854   0.387   2.235   2.614 -0.0022  0.1633  0.9393
23321SOL    HW172855   0.342   2.303   2.664  0.4689  2.2090 -1.2236
23321SOL    HW272856   0.359   2.250   2.524  0.9167 -1.9214  0.2371
23322SOL     OW72857   2.701   1.821   7.549 -0.0893 -0.1988  0.4239
23322SOL    HW172858   2.762   1.770   7.497  0.5596  3.1338 -2.4010
23322SOL    HW272859   2.617   1.774   7.540  0.8009 -1.6854 -0.5233
23323SOL     OW72860   4.549   2.386   3.792 -0.0716 -0.5584 -0.0872
23323SOL    HW172861   4.570   2.471   3.753 -1.6299  0.3903  1.0507
23323SOL    HW272862   4.634   2.341   3.797  1.1929  1.7905  1.2832
23324SOL     OW72863   7.190   6.428   7.192  0.2618  0.5560 -0.0844
23324SOL    HW172864   7.104   6.434   7.151 -0.0196 -0.2696  0.3522
23324SOL    HW272865   7.181   6.474   7.275  0.4306  1.0333 -0.3302
23325SOL     OW72866   6.587   5.867   1.844 -0.2334  0.0667 -0.2610
23325SOL    HW172867   6.583   5.841   1.752 -0.9776 -0.8809  0.0157
23325SOL    HW272868   6.515   5.819   1.885  2.5282 -2.8563  1.6308
23326SOL     OW72869   6.727   4.478   8.424 -0.1646  0.0099 -0.1520
23326SOL    HW172870   6.747   4.386   8.405 -2.1062  0.0121 -2.8117
23326SOL    HW272871   6.653   4.475   8.484  0.1134 -0.1598  0.1817
23327SOL     OW72872   3.370   0.854   3.904 -0.0134 -0.0130  0.3737
23327SOL    HW172873   3.386   0.893   3.990 -1.2751  0.3886  0.4442
23327SOL    HW272874   3.451   0.869   3.855 -0.1591  1.9933  0.6621
23328SOL     OW72875   0.575   1.806   9.097 -0.8227  0.2299  0.3080
23328SOL    HW172876   0.570   1.829   9.004 -1.3340  0.8722  0.4858
23328SOL    HW272877   0.615   1.883   9.138  1.0353 -0.7198  0.3887
23329SOL     OW72878   0.091   3.908   5.482  0.0591 -0.0265 -0.0961
23329SOL    HW172879   0.011   3.901   5.430  1.4561 -2.0687 -2.1975
23329SOL    HW272880   0.079   3.844   5.552 -0.6358  0.5963  0.3673
23330SOL     OW72881   1.180   8.576   3.339 -0.3265  0.2890  0.1575
23330SOL    HW172882   1.218   8.647   3.288  1.1666 -0.1209  0.6419
23330SOL    HW272883   1.108   8.544   3.285  1.4060 -0.3676 -1.9217
23331SOL     OW72884   7.153   5.260   8.998 -0.1129 -0.1210  0.0293
23331SOL    HW172885   7.235   5.210   8.997  1.3551  2.1087 -0.8975
23331SOL    HW272886   7.124   5.258   9.089  2.5464  1.2935  1.0235
23332SOL     OW72887   1.151   7.563   5.760 -0.4581 -0.4737 -0.4042
23332SOL    HW172888   1.197   7.638   5.724 -1.0726  0.0501 -0.1184
23332SOL    HW272889   1.103   7.525   5.686 -0.0902 -0.6319 -0.5629
23333SOL     OW72890   8.067   9.229   6.938 -0.7002 -0.2085 -0.1281
23333SOL    HW172891   8.087   9.172   7.012 -1.4058 -1.6816 -1.0241
23333SOL    HW272892   8.078   9.173   6.861 -3.2969  0.2661 -0.9465
23334SOL     OW72893   9.248   6.097   6.387  0.5374 -0.4096 -0.6978
23334SOL    HW172894   9.218   6.175   6.342 -1.5451 -0.8096 -0.0984
23334SOL    HW272895   9.261   6.125   6.478 -1.0943 -0.9176 -0.2799
23335SOL     OW72896   6.986   2.008   7.323  0.4436 -0.3927 -0.0811
23335SOL    HW172897   6.969   1.977   7.234 -0.2177 -0.2823  0.0028
23335SOL    HW272898   7.057   1.952   7.355  2.8404  1.4705 -1.7222
23336SOL     OW72899   1.856   7.267   5.481  0.1042 -0.3898  0.6370
23336SOL    HW172900   1.936   7.254   5.532  0.9134 -1.9821 -0.9384
23336SOL    HW272901   1.832   7.180   5.452  0.7235  0.5456 -3.1615
23337SOL     OW72902   7.257   1.679   8.947  0.1726 -0.7312  0.0152
23337SOL    HW172903   7.161   1.673   8.945 -0.2005  2.4128  1.8371
23337SOL    HW272904   7.280   1.708   8.859 -0.6442 -0.7924 -0.2325
23338SOL     OW72905   3.211   1.686   9.113 -0.0442 -0.3216 -0.2456
23338SOL    HW172906   3.170   1.650   9.192 -0.9596 -1.2447 -1.1169
23338SOL    HW272907   3.238   1.774   9.139  0.7479 -1.0230  1.4385
23339SOL     OW72908   8.851   6.240   4.981 -0.8171  0.4565  0.3176
23339SOL    HW172909   8.894   6.230   5.066  0.5663 -0.2498 -0.4438
23339SOL    HW272910   8.759   6.258   5.004 -0.7143 -0.7833  1.9576
23340SOL     OW72911   7.735   1.986   0.644 -0.1285  0.0879  0.0313
23340SOL    HW172912   7.735   1.994   0.549 -0.1859 -0.7964 -0.0491
23340SOL    HW272913   7.797   2.052   0.674 -0.5906  0.8127 -0.5775
23341SOL     OW72914   5.991   4.110   1.793 -0.1757  0.2892  0.0778
23341SOL    HW172915   6.042   4.123   1.713  0.0254  0.7037  0.2690
23341SOL    HW272916   6.052   4.129   1.864  0.4538 -2.6616  0.4479
23342SOL     OW72917   0.715   4.515   5.068 -0.2700 -0.0997  0.1445
23342SOL    HW172918   0.666   4.436   5.095 -0.6314 -0.7112 -2.1414
23342SOL    HW272919   0.747   4.495   4.980 -0.3587  2.3138 -0.5072
23343SOL     OW72920   1.642   5.277   7.418  0.0503  0.4181 -0.0474
23343SOL    HW172921   1.634   5.276   7.323  1.1292 -0.1977 -0.1467
23343SOL    HW272922   1.625   5.368   7.443  2.1395  1.1517 -1.0754
23344SOL     OW72923   3.545   6.094   7.014  0.5061  0.1247 -0.0506
23344SOL    HW172924   3.510   6.052   6.935  0.1712 -0.0745  0.2015
23344SOL    HW272925   3.473   6.149   7.045  1.0201  1.1116 -0.5272
23345SOL     OW72926   1.117   8.241   3.267  0.1136 -0.0749 -0.1526
23345SOL    HW172927   1.026   8.244   3.236  0.1470 -0.2367 -0.2639
23345SOL    HW272928   1.166   8.199   3.196  0.0162 -1.4170  0.5495
23346SOL     OW72929   7.625   7.596   2.747 -0.1041  0.3839  0.0230
23346SOL    HW172930   7.666   7.674   2.786 -1.1709  1.0935 -0.2391
23346SOL    HW272931   7.554   7.631   2.693 -0.3225 -0.7570 -0.4464
23347SOL     OW72932   8.070   0.540   4.757  0.0696  0.0801 -0.3385
23347SOL    HW172933   8.043   0.555   4.848 -1.2241  0.7147 -0.7995
23347SOL    HW272934   8.119   0.458   4.760 -0.5013 -0.2448  0.8490
23348SOL     OW72935   2.747   0.953   3.612  0.7112 -0.2109  0.8084
23348SOL    HW172936   2.745   0.987   3.701 -1.8505  0.7166  0.4779
23348SOL    HW272937   2.656   0.932   3.592  1.4943 -2.5770 -0.8224
23349SOL     OW72938   7.372   1.726   3.268  0.1719  0.0719  0.1601
23349SOL    HW172939   7.419   1.705   3.349  0.0751 -1.3622 -0.1241
23349SOL    HW272940   7.435   1.775   3.216  0.1994  1.1086  1.1351
23350SOL     OW72941   1.623   3.989   2.963  0.0883  0.0279 -0.1924
23350SOL    HW172942   1.594   3.908   2.921  0.0501  1.0402 -2.2459
23350SOL    HW272943   1.585   4.059   2.909 -0.3090  1.4483  1.8142
23351SOL     OW72944   0.651   3.694   1.311 -0.0639  0.1405  0.2921
23351SOL    HW172945   0.654   3.603   1.280  1.2395 -0.2010  1.3490
23351SOL    HW272946   0.608   3.742   1.240  0.0357 -1.1386 -0.6652
23352SOL     OW72947   4.616   8.292   7.270 -0.0612 -0.3959  0.0301
23352SOL    HW172948   4.700   8.320   7.306  0.4212 -2.7996  0.9136
23352SOL    HW272949   4.606   8.202   7.300 -3.2325 -0.0173  0.4392
23353SOL     OW72950   5.123   3.331   6.400  0.2956 -0.1839  0.2405
23353SOL    HW172951   5.114   3.401   6.465  0.1203 -1.4323  1.6236
23353SOL    HW272952   5.153   3.256   6.450  3.8046 -0.2874 -1.7327
23354SOL     OW72953   6.728   2.022   0.285  0.5972 -0.0863  0.4178
23354SOL    HW172954   6.679   1.941   0.275  2.3316 -1.2243  0.6982
23354SOL    HW272955   6.815   2.001   0.251  1.5831  1.1260  2.0687
23355SOL     OW72956   5.369   9.165   4.983  0.2187  0.2311 -0.2290
23355SOL    HW172957   5.413   9.120   5.055 -0.0933 -0.9402 -0.7416
23355SOL    HW272958   5.276   9.164   5.007  0.2631  1.0845 -0.0000
23356SOL     OW72959   7.475   3.765   2.636  0.5914  0.2325 -0.4814
23356SOL    HW172960   7.420   3.709   2.582  2.5637 -0.0598 -2.3350
23356SOL    HW272961   7.528   3.704   2.687  0.0570  0.5004  0.4226
23357SOL     OW72962   1.727   6.494   3.062 -0.2238  0.1710  0.4021
23357SOL    HW172963   1.757   6.448   3.141  1.8974  0.0047 -0.4410
23357SOL    HW272964   1.805   6.539   3.030 -1.6734  2.4543 -0.1419
23358SOL     OW72965   7.983   7.987   3.067  0.7350 -0.8312  0.5758
23358SOL    HW172966   8.066   8.034   3.063  0.7993 -0.9768  0.1411
23358SOL    HW272967   7.931   8.023   2.996  0.7642 -1.3670  0.2743
23359SOL     OW72968   3.925   9.146   1.804  0.9364 -0.2244  0.0352
23359SOL    HW172969   3.987   9.111   1.741  2.1760  2.1994 -0.1971
23359SOL    HW272970   3.865   9.201   1.753  0.6204  0.0501  0.6726
23360SOL     OW72971   2.140   1.405   5.761  0.4352  0.1386 -0.5446
23360SOL    HW172972   2.120   1.314   5.739 -2.8604  0.2408  1.3906
23360SOL    HW272973   2.193   1.399   5.841  1.0550 -0.0494 -0.9590
23361SOL     OW72974   3.707   1.038   6.087  0.0069 -0.3628  0.5685
23361SOL    HW172975   3.682   1.074   6.172 -0.6591 -0.8232  0.5742
23361SOL    HW272976   3.652   0.960   6.077 -1.4820  0.8249 -1.1931
23362SOL     OW72977   0.481   8.102   3.859  0.1039  0.3956 -0.0914
23362SOL    HW172978   0.459   8.053   3.779  0.1613  1.0874 -0.5390
23362SOL    HW272979   0.545   8.046   3.904 -0.5374 -0.3759 -0.1192
23363SOL     OW72980   7.675   6.743   8.016 -0.4193 -0.4968 -0.3007
23363SOL    HW172981   7.752   6.686   8.013  1.1957  1.5863 -0.1717
23363SOL    HW272982   7.616   6.699   8.077 -0.4495 -3.3723 -2.1908
23364SOL     OW72983   0.308   1.832   7.289  0.7634  0.3644 -0.3743
23364SOL    HW172984   0.359   1.770   7.342  2.3270  0.2137 -1.9423
23364SOL    HW272985   0.226   1.786   7.270  0.0431  0.5298  2.0503
23365SOL     OW72986   3.073   5.658   5.908  0.2248 -0.4145  0.5193
23365SOL    HW172987   3.083   5.729   5.845 -1.7039  0.1292  0.7496
23365SOL    HW272988   3.127   5.587   5.874 -0.2030  0.1039 -1.3707
23366SOL     OW72989   2.528   1.662   4.697  0.0782 -0.2314 -0.7907
23366SOL    HW172990   2.557   1.584   4.649  0.6251 -1.0982  0.8679
23366SOL    HW272991   2.475   1.628   4.769 -0.8188  1.0354 -0.8180
23367SOL     OW72992   7.248   4.351   6.930 -0.6481 -0.0966 -0.4980
23367SOL    HW172993   7.161   4.316   6.911 -0.6882 -0.5489  0.4790
23367SOL    HW272994   7.294   4.348   6.846 -1.0953 -1.2177 -0.7119
23368SOL     OW72995   3.924   2.924   2.569  0.2226  0.0900  0.1781
23368SOL    HW172996   3.985   2.946   2.640 -0.2346 -0.1797  0.6565
23368SOL    HW272997   3.840   2.911   2.612 -0.1425  0.2774 -0.4592
23369SOL     OW72998   0.207   3.210   0.589  0.1271 -0.2774  0.0287
23369SOL    HW172999   0.127   3.166   0.617 -1.6210  1.6235 -1.6300
23369SOL    HW273000   0.187   3.245   0.502  2.2880  1.4109  0.1080
23370SOL     OW73001   8.089   2.038   4.113 -0.1777  0.2207 -0.0061
23370SOL    HW173002   8.081   2.133   4.106  0.6361  0.8633  4.4281
23370SOL    HW273003   8.016   2.011   4.169 -0.0391 -1.6713 -0.6577
23371SOL     OW73004   1.160   6.963   0.064 -0.2606  0.1571  0.0846
23371SOL    HW173005   1.118   6.902   0.004  0.5099 -0.3076  0.0166
23371SOL    HW273006   1.089   7.022   0.091 -1.1482 -1.0997  0.5973
23372SOL     OW73007   0.893   2.496   8.966 -0.9592  0.3139 -0.0914
23372SOL    HW173008   0.827   2.564   8.959 -1.1053  0.1374 -0.4604
23372SOL    HW273009   0.877   2.439   8.891 -0.2865  0.3617 -0.2804
23373SOL     OW73010   4.319   7.289   3.155  0.0137  0.1297 -0.5371
23373SOL    HW173011   4.232   7.272   3.191  0.1236 -1.1680 -0.8336
23373SOL    HW273012   4.302   7.336   3.073 -0.5042 -1.1420 -1.2000
23374SOL     OW73013   7.258   5.098   6.088 -0.7202 -0.0105  0.1509
23374SOL    HW173014   7.255   5.128   5.997 -3.2292  2.3230  0.8897
23374SOL    HW273015   7.171   5.119   6.123  0.3314 -0.3734  3.2340
23375SOL     OW73016   8.619   8.561   6.869  0.3328 -0.0945  0.2501
23375SOL    HW173017   8.613   8.632   6.933  1.7700  0.4443 -0.1700
23375SOL    HW273018   8.531   8.524   6.866 -0.0005  0.4794  1.8371
23376SOL     OW73019   5.336   0.075   4.775  0.2572  0.0047  0.3611
23376SOL    HW173020   5.244   0.102   4.776  0.4738  1.0309 -1.5856
23376SOL    HW273021   5.338  -0.005   4.828 -1.6863  0.1392  0.7259
23377SOL     OW73022   6.009   9.017   3.524 -0.4652 -0.2672  0.7426
23377SOL    HW173023   6.081   8.988   3.467 -1.3115  0.0537 -0.5208
23377SOL    HW273024   6.013   9.112   3.520 -0.3870 -0.2396  1.4260
23378SOL     OW73025   5.543   5.250   7.911  0.4388 -0.2805 -0.3620
23378SOL    HW173026   5.622   5.207   7.878  0.2635 -1.9024  1.1866
23378SOL    HW273027   5.479   5.239   7.840  0.6177 -2.0063 -0.2970
23379SOL     OW73028   7.049   2.711   5.822 -0.3994  0.7844 -0.6191
23379SOL    HW173029   6.958   2.736   5.807 -0.8213 -0.8671 -0.9847
23379SOL    HW273030   7.073   2.658   5.746  0.1449 -0.6141  0.4650
23380SOL     OW73031   4.203   2.263   1.878 -0.4964 -0.0441 -0.5268
23380SOL    HW173032   4.134   2.198   1.859 -0.2714 -0.7231  0.8704
23380SOL    HW273033   4.164   2.319   1.945 -0.4947  0.9836 -1.3576
23381SOL     OW73034   8.665   8.434   6.631 -0.0846  0.7005  0.3091
23381SOL    HW173035   8.727   8.435   6.558 -1.7233  1.4653 -1.1410
23381SOL    HW273036   8.704   8.494   6.695  0.4118  1.6367 -0.8125
23382SOL     OW73037   1.858   6.077   1.618  0.0222 -0.4052  0.0853
23382SOL    HW173038   1.832   6.146   1.678 -2.9783 -0.5648 -0.8512
23382SOL    HW273039   1.868   6.121   1.533  1.0088 -0.6868  0.0409
23383SOL     OW73040   3.552   4.140   1.521 -0.4109 -0.3231 -0.5738
23383SOL    HW173041   3.466   4.183   1.524  1.0601  2.9870 -1.5422
23383SOL    HW273042   3.610   4.201   1.567  1.6437 -1.9070 -0.9639
23384SOL     OW73043   2.242   1.679   5.360  0.5497 -0.6453 -0.8992
23384SOL    HW173044   2.175   1.613   5.343  2.6554 -2.5651 -2.2275
23384SOL    HW273045   2.259   1.672   5.454  0.1934 -1.4454 -0.8882
23385SOL     OW73046   7.385   4.039   6.513  0.4889 -0.0044 -0.2187
23385SOL    HW173047   7.352   4.010   6.597  1.4466  0.5410  0.3603
23385SOL    HW273048   7.346   4.125   6.500 -1.4881 -1.0153 -1.4316
23386SOL     OW73049   2.521   7.580   8.559  0.5466 -0.5195 -0.4184
23386SOL    HW173050   2.459   7.558   8.490 -0.9188  0.4439  0.5311
23386SOL    HW273051   2.517   7.675   8.566  0.7915 -0.5848  0.8456
23387SOL     OW73052   3.287   3.743   4.201  0.1825 -0.5817  0.0121
23387SOL    HW173053   3.276   3.774   4.111 -1.6030 -0.9605  0.0628
23387SOL    HW273054   3.274   3.821   4.255 -0.5587 -0.6932  0.0006
23388SOL     OW73055   8.322   8.832   6.460 -0.2628  0.2521  0.2858
23388SOL    HW173056   8.373   8.755   6.485  1.1724  1.3335  0.9175
23388SOL    HW273057   8.231   8.804   6.466  0.2275 -1.8721 -1.2092
23389SOL     OW73058   4.976   1.101   6.806  0.2951  0.1644  0.3189
23389SOL    HW173059   4.971   1.082   6.712  2.9646 -0.2169  0.1631
23389SOL    HW273060   4.949   1.020   6.848 -2.0408  0.6831 -0.0115
23390SOL     OW73061   8.172   2.266   1.160  0.5738  0.0930  0.4279
23390SOL    HW173062   8.209   2.224   1.238  2.2304  0.7353  0.0240
23390SOL    HW273063   8.215   2.351   1.156 -1.8084  1.3721  0.5331
23391SOL     OW73064   7.402   5.573   3.738  0.2870  0.6408 -0.4446
23391SOL    HW173065   7.366   5.648   3.785  0.7802  0.8654 -0.4312
23391SOL    HW273066   7.356   5.574   3.654 -1.0775 -0.1404  0.2424
23392SOL     OW73067   6.400   8.670   7.998 -0.1407 -0.0522 -1.4402
23392SOL    HW173068   6.489   8.640   8.014 -0.1281  0.1972 -1.0450
23392SOL    HW273069   6.364   8.606   7.937  0.0540 -0.5942 -0.9941
23393SOL     OW73070   3.011   0.149   6.081  0.3739 -0.0064  0.0745
23393SOL    HW173071   3.076   0.198   6.029 -0.2427 -1.1840 -1.9087
23393SOL    HW273072   2.938   0.134   6.020 -1.6413  0.9539  2.1325
23394SOL     OW73073   2.332   0.780   7.005  0.1234  0.8278 -0.3980
23394SOL    HW173074   2.415   0.770   7.053 -0.6922  1.3374  1.2100
23394SOL    HW273075   2.320   0.697   6.959  0.6356  0.0462  0.8352
23395SOL     OW73076   2.560   4.153   3.483 -0.3154  0.5247 -0.4630
23395SOL    HW173077   2.599   4.081   3.434  1.3463  1.3089 -0.3473
23395SOL    HW273078   2.536   4.115   3.568  1.7828  0.3764  0.1030
23396SOL     OW73079   2.354   6.487   6.684  0.5590 -0.4278 -0.0888
23396SOL    HW173080   2.322   6.407   6.642 -1.7957 -0.3740  1.4329
23396SOL    HW273081   2.395   6.536   6.612  0.0165 -1.9717 -1.5327
23397SOL     OW73082   1.875   1.564   5.469  0.5577  0.4776  0.3238
23397SOL    HW173083   1.840   1.643   5.427  0.4501  0.6359  0.7106
23397SOL    HW273084   1.921   1.596   5.546  1.1710  0.2267  0.0673
23398SOL     OW73085   3.783   2.984   1.964 -0.1276 -0.4811  0.3253
23398SOL    HW173086   3.851   2.920   1.986  0.8246 -0.4086 -2.0965
23398SOL    HW273087   3.702   2.947   2.000  0.9151 -1.4262  1.7645
23399SOL     OW73088   8.284   9.100   3.757  0.0999  0.1527 -0.2411
23399SOL    HW173089   8.343   9.041   3.804  0.7878  1.1209  0.1242
23399SOL    HW273090   8.233   9.042   3.699 -1.2761 -1.1810  2.1575
23400SOL     OW73091   0.532   6.217   5.286 -0.5693 -0.7846  0.6822
23400SOL    HW173092   0.567   6.292   5.238 -2.3767  1.3041  2.4365
23400SOL    HW273093   0.606   6.187   5.340  1.0689 -2.3070 -2.1490
23401SOL     OW73094   0.536   3.015   3.444  0.0864 -0.1884  0.0145
23401SOL    HW173095   0.544   3.000   3.538  2.0632  1.0269  0.1042
23401SOL    HW273096   0.449   3.055   3.433  0.0698  0.2006  1.4126
23402SOL     OW73097   6.932   4.048   3.499 -0.4829  0.1750  0.1731
23402SOL    HW173098   7.004   3.998   3.535 -1.0494 -0.0451  1.0166
23402SOL    HW273099   6.953   4.056   3.406  0.2125 -0.5862  0.2538
23403SOL     OW73100   1.741   8.774   3.047  0.1842  0.6385 -0.0950
23403SOL    HW173101   1.772   8.840   3.109 -2.4552  2.0946 -0.1719
23403SOL    HW273102   1.652   8.754   3.075  0.3211 -1.7207 -1.0781
23404SOL     OW73103   2.403   3.451   5.416  0.4685  0.1080  0.2105
23404SOL    HW173104   2.424   3.518   5.351  0.1353  1.4224  1.4136
23404SOL    HW273105   2.488   3.418   5.446  0.6758  0.8302  0.4392
23405SOL     OW73106   0.944   0.470   6.366 -0.4259 -0.1158 -0.6877
23405SOL    HW173107   0.972   0.383   6.336 -1.1184 -0.6754  0.2555
23405SOL    HW273108   0.996   0.530   6.313  0.0096 -1.0967 -1.4228
23406SOL     OW73109   6.853   2.882   4.271 -0.0423 -0.0340  0.1651
23406SOL    HW173110   6.776   2.828   4.254  0.2508 -0.1050 -1.0805
23406SOL    HW273111   6.820   2.972   4.266  0.3051  0.0468 -2.8417
23407SOL     OW73112   3.983   8.146   6.626 -0.4873 -0.3754  0.2038
23407SOL    HW173113   4.010   8.069   6.576  0.7484 -0.9236  1.6554
23407SOL    HW273114   4.034   8.218   6.589 -0.7016 -0.4877 -0.3147
23408SOL     OW73115   6.577   1.629   6.330 -0.0249  0.0155 -0.3728
23408SOL    HW173116   6.598   1.539   6.308 -0.0063 -0.3519  1.0327
23408SOL    HW273117   6.483   1.636   6.314 -0.2350 -0.5862  0.5416
23409SOL     OW73118   9.115   1.461   3.128 -0.1796 -0.5171  0.1134
23409SOL    HW173119   9.046   1.493   3.070  0.3977  1.0814  0.2693
23409SOL    HW273120   9.129   1.532   3.190 -0.5794 -2.0668  2.0728
23410SOL     OW73121   0.876   8.346   0.648  0.7651 -0.0807 -0.3056
23410SOL    HW173122   0.953   8.358   0.592  0.8606  2.1093  0.2071
23410SOL    HW273123   0.802   8.374   0.594  0.7070  0.7745  0.1971
23411SOL     OW73124   6.190   1.776   8.808 -1.5425 -0.6086 -0.1518
23411SOL    HW173125   6.120   1.741   8.863 -0.6882 -0.1537  1.2728
23411SOL    HW273126   6.145   1.809   8.730 -2.8690 -0.6394  0.5778
23412SOL     OW73127   2.823   8.107   0.727 -0.1099 -0.4345 -0.3386
23412SOL    HW173128   2.850   8.049   0.655  0.1359 -0.0182 -0.5874
23412SOL    HW273129   2.838   8.056   0.806 -1.0077 -1.1499 -0.6098
23413SOL     OW73130   7.143   9.071   5.902 -0.5650  0.2257  0.5106
23413SOL    HW173131   7.206   9.079   5.974  0.4684 -0.0398 -0.3278
23413SOL    HW273132   7.058   9.066   5.945  0.0872 -0.8555  1.7653
23414SOL     OW73133   7.355   2.072   6.444  0.1639 -0.1614  0.1840
23414SOL    HW173134   7.281   2.132   6.429 -0.1072 -0.8048 -1.1897
23414SOL    HW273135   7.318   2.002   6.497 -0.3140 -0.6370 -0.7535
23415SOL     OW73136   1.594   0.442   0.734  0.0020 -0.4209  0.6911
23415SOL    HW173137   1.646   0.451   0.654  0.4087 -0.4327  0.9538
23415SOL    HW273138   1.589   0.347   0.748 -1.2630 -0.5026 -0.0924
23416SOL     OW73139   2.151   9.093   2.025 -0.0206  0.0930  0.5494
23416SOL    HW173140   2.146   9.127   1.936 -1.2473  0.3102  0.6926
23416SOL    HW273141   2.156   8.998   2.014  1.2713  0.1698  0.2261
23417SOL     OW73142   7.682   8.073   7.235  0.3659 -0.2437  0.3398
23417SOL    HW173143   7.606   8.105   7.185  0.6881  1.5166  0.8941
23417SOL    HW273144   7.645   8.044   7.318  0.0500 -1.4662 -0.2117
23418SOL     OW73145   8.467   3.136   1.270  0.5319  0.1401 -0.1824
23418SOL    HW173146   8.417   3.071   1.221  0.2252  0.0843  0.2000
23418SOL    HW273147   8.407   3.168   1.338  0.2907  1.6496 -1.0579
23419SOL     OW73148   2.822   4.056   1.479 -0.3164  0.2977  0.0522
23419SOL    HW173149   2.782   4.008   1.551  0.9194 -0.1280  0.4764
23419SOL    HW273150   2.793   4.009   1.400  0.3963 -0.8210  0.4290
23420SOL     OW73151   3.087   8.288   5.161  0.5532 -0.2458 -0.3180
23420SOL    HW173152   3.003   8.334   5.155 -0.4938 -2.0636 -0.1754
23420SOL    HW273153   3.148   8.345   5.114 -1.2554 -0.0483 -2.5916
23421SOL     OW73154   2.870   7.331   2.288  0.9058 -0.0920 -0.3975
23421SOL    HW173155   2.907   7.270   2.224 -1.2725 -1.9191 -0.0598
23421SOL    HW273156   2.904   7.301   2.372  1.2349  0.2889 -0.3940
23422SOL     OW73157   8.720   4.959   1.817 -0.7288  0.1727 -0.6070
23422SOL    HW173158   8.805   4.988   1.784  0.3235 -0.4644  1.3991
23422SOL    HW273159   8.687   5.033   1.868 -0.4792 -0.2346  0.1656
23423SOL     OW73160   4.444   7.544   6.369 -0.4746  0.3686 -0.7181
23423SOL    HW173161   4.398   7.470   6.408 -0.2005  1.1687  1.2204
23423SOL    HW273162   4.434   7.615   6.432  2.5007  0.8951 -0.7002
23424SOL     OW73163   0.024   7.375   4.224  0.2596  0.2904 -0.5161
23424SOL    HW173164  -0.000   7.361   4.132 -0.9054 -0.9770 -0.0508
23424SOL    HW273165  -0.058   7.363   4.272  0.9556  0.4306  0.7428
23425SOL     OW73166   5.185   4.587   9.045 -0.3770  0.0472 -0.0683
23425SOL    HW173167   5.148   4.589   9.133 -0.2831 -0.8667  0.0021
23425SOL    HW273168   5.127   4.643   8.993  0.6148  2.1333  0.9339
23426SOL     OW73169   9.017   4.600   8.426 -0.2711  0.3319  0.4000
23426SOL    HW173170   9.095   4.635   8.383 -0.0972  0.4298  0.7915
23426SOL    HW273171   8.945   4.650   8.388 -0.1741  0.0670 -0.1495
23427SOL     OW73172   6.282   1.582   8.573  0.4503 -0.3256 -0.5030
23427SOL    HW173173   6.233   1.663   8.560  0.4401 -0.3055 -0.3489
23427SOL    HW273174   6.357   1.608   8.627  0.1524 -0.5139  0.0140
23428SOL     OW73175   8.801   3.536   1.316 -0.5591  0.4448 -0.1750
23428SOL    HW173176   8.875   3.483   1.347 -0.8802  1.0417  1.7800
23428SOL    HW273177   8.734   3.525   1.384 -1.2514  2.0120 -0.5596
23429SOL     OW73178   8.651   8.597   2.663  0.3016 -0.3240  0.2027
23429SOL    HW173179   8.691   8.562   2.743  1.1804  1.8361  0.7724
23429SOL    HW273180   8.717   8.655   2.627  0.0105 -1.4355 -2.2877
23430SOL     OW73181   3.599   7.029   2.045  0.2571 -0.3899  0.0635
23430SOL    HW173182   3.523   7.019   1.987  0.2241  0.0961  0.0210
23430SOL    HW273183   3.643   6.944   2.041  0.8969 -0.0083 -1.5724
23431SOL     OW73184   8.646   3.860   9.109  0.2085 -0.6427  0.6013
23431SOL    HW173185   8.596   3.779   9.114 -0.4396 -0.2140  1.3303
23431SOL    HW273186   8.593   3.917   9.052  1.1977 -1.0809 -0.8119
23432SOL     OW73187   8.631   0.162   6.125  0.3631  0.0476  0.0490
23432SOL    HW173188   8.556   0.120   6.166  1.6334 -0.5896  1.8119
23432SOL    HW273189   8.706   0.108   6.149  1.7038  1.9095  0.2836
23433SOL     OW73190   8.523   9.216   7.408 -0.2500 -0.6174  0.3700
23433SOL    HW173191   8.614   9.195   7.425 -0.2675 -1.1900 -0.2126
23433SOL    HW273192   8.522   9.310   7.390  0.5558 -0.9572 -1.7105
23434SOL     OW73193   1.059   7.376   4.930 -0.6453 -0.2166 -0.5720
23434SOL    HW173194   0.982   7.322   4.909 -0.2629 -0.8802 -0.2889
23434SOL    HW273195   1.023   7.448   4.983 -1.2496  0.1533 -1.4620
23435SOL     OW73196   1.181   1.494   1.370 -0.3215  0.3856 -0.1717
23435SOL    HW173197   1.146   1.499   1.281  1.0806  1.5105 -0.6931
23435SOL    HW273198   1.128   1.557   1.420 -2.1236 -1.3291  0.2060
23436SOL     OW73199   0.533   1.967   6.858  0.3230  0.9114  0.4841
23436SOL    HW173200   0.482   1.980   6.938  0.1263  1.0121  0.3416
23436SOL    HW273201   0.536   2.054   6.817 -0.2157  0.7074 -0.0002
23437SOL     OW73202   8.473   3.306   5.419  0.0442  0.1090 -0.1972
23437SOL    HW173203   8.384   3.287   5.389 -0.4517 -0.4809  1.5532
23437SOL    HW273204   8.529   3.268   5.352 -1.0065  0.0834 -1.0968
23438SOL     OW73205   0.670   5.108   4.433 -0.4093 -0.1895 -0.1340
23438SOL    HW173206   0.595   5.096   4.375 -0.4759 -0.1448 -0.0589
23438SOL    HW273207   0.715   5.185   4.399 -1.1017  0.5504  0.5510
23439SOL     OW73208   6.083   3.679   0.907  0.5218  0.2194 -0.3224
23439SOL    HW173209   6.043   3.743   0.848  0.7883 -0.9465 -1.7945
23439SOL    HW273210   6.025   3.603   0.903  0.0746  0.4027  1.6096
23440SOL     OW73211   8.749   2.131   3.626 -0.1244 -0.4233  0.6643
23440SOL    HW173212   8.720   2.047   3.662  0.3460 -0.0851  1.9010
23440SOL    HW273213   8.669   2.171   3.591 -0.3893 -1.2817  0.2482
23441SOL     OW73214   3.775   0.211   4.776 -0.5918  0.3092 -1.3657
23441SOL    HW173215   3.692   0.256   4.794 -0.6530  0.5062 -2.1213
23441SOL    HW273216   3.751   0.119   4.770 -1.0044  0.5032 -2.9895
23442SOL     OW73217   8.354   7.062   6.621  0.1150  0.6659  0.2393
23442SOL    HW173218   8.351   6.970   6.593 -3.1909  0.6774  0.1988
23442SOL    HW273219   8.384   7.110   6.544 -0.9500 -0.1196 -0.6931
23443SOL     OW73220   2.153   6.464   7.890  0.3212 -0.7324 -0.1145
23443SOL    HW173221   2.156   6.444   7.796  0.7429  0.3298 -0.3482
23443SOL    HW273222   2.106   6.548   7.894 -1.7579 -1.8695  0.8392
23444SOL     OW73223   8.738   6.878   7.697 -0.7411 -0.2750  0.3740
23444SOL    HW173224   8.801   6.949   7.712 -2.3357  1.6060 -1.1794
23444SOL    HW273225   8.761   6.844   7.611 -0.9174 -0.6027  0.4566
23445SOL     OW73226   7.962   0.735   8.191  0.3423  0.1283 -0.3774
23445SOL    HW173227   7.974   0.641   8.201  0.3410 -0.0296 -1.6479
23445SOL    HW273228   8.042   0.774   8.226  0.4308 -0.3614 -0.0402
23446SOL     OW73229   7.705   5.525   1.175 -0.5011 -0.2593  0.2354
23446SOL    HW173230   7.716   5.620   1.164 -1.3896 -0.2093 -0.3721
23446SOL    HW273231   7.653   5.516   1.255  1.7130 -0.3775  1.7245
23447SOL     OW73232   1.761   0.771   3.789  0.5378  0.5139  0.2929
23447SOL    HW173233   1.695   0.781   3.721  1.7486  1.9221 -0.7299
23447SOL    HW273234   1.739   0.838   3.854  0.4721  0.4027  0.3873
23448SOL     OW73235   9.190   3.663   6.499 -0.1241 -0.5506 -0.2216
23448SOL    HW173236   9.098   3.649   6.475 -0.3594  1.4158 -0.6600
23448SOL    HW273237   9.239   3.619   6.429 -0.7996  1.5975 -2.1817
23449SOL     OW73238   5.634   8.812   0.836  0.5831 -0.3421 -0.0298
23449SOL    HW173239   5.551   8.766   0.824 -0.1471  0.8992  0.0644
23449SOL    HW273240   5.611   8.891   0.885  1.3826  1.2399 -2.0497
23450SOL     OW73241   5.028   5.262   1.591  0.6497  0.1638 -0.5684
23450SOL    HW173242   5.116   5.225   1.585  0.1670 -1.2424  0.3355
23450SOL    HW273243   5.011   5.267   1.685 -0.6804 -0.7651 -0.7301
23451SOL     OW73244   6.659   5.349   2.931 -0.4345  0.2544 -0.0456
23451SOL    HW173245   6.621   5.278   2.983  0.2543  0.0171  0.1414
23451SOL    HW273246   6.622   5.336   2.843  0.4966 -0.9830 -0.2755
23452SOL     OW73247   7.502   7.133   1.079 -0.4713  0.5400  0.1815
23452SOL    HW173248   7.429   7.074   1.098 -1.3293  1.0467 -1.3369
23452SOL    HW273249   7.542   7.097   1.000  1.3768 -0.0973  1.3469
23453SOL     OW73250   2.208   6.778   5.004 -0.6556  0.3784 -0.2258
23453SOL    HW173251   2.125   6.825   4.991 -1.1410 -0.0448  1.1268
23453SOL    HW273252   2.227   6.739   4.919 -1.5542  0.9626 -0.7087
23454SOL     OW73253   9.162   3.363   4.313 -0.0103  0.4643 -0.6249
23454SOL    HW173254   9.068   3.364   4.295 -0.2010  0.8971  0.3504
23454SOL    HW273255   9.187   3.271   4.304 -0.9545 -0.0132  1.1451
23455SOL     OW73256   6.395   6.543   5.640 -0.0709 -0.1978  0.6996
23455SOL    HW173257   6.355   6.608   5.582 -0.1881 -0.9016 -0.0357
23455SOL    HW273258   6.385   6.579   5.727 -1.3318  0.1719  0.4267
23456SOL     OW73259   4.329   8.701   1.645  0.3326 -0.6397 -0.0818
23456SOL    HW173260   4.351   8.608   1.641  0.9211 -0.4914 -0.2830
23456SOL    HW273261   4.287   8.719   1.561 -3.2941 -1.5854  1.3263
23457SOL     OW73262   7.883   8.405   8.850  0.0498  0.0333  0.2575
23457SOL    HW173263   7.916   8.494   8.840 -2.1401  0.9061  0.1232
23457SOL    HW273264   7.828   8.408   8.928 -1.0411 -0.8449 -0.4387
23458SOL     OW73265   2.792   6.307   1.694  0.2592 -0.2486  0.7971
23458SOL    HW173266   2.729   6.234   1.699 -0.2938  0.2111  0.6518
23458SOL    HW273267   2.840   6.302   1.777 -0.4399 -0.1925  1.2181
23459SOL     OW73268   1.171   0.896   9.039  0.0959  0.0367 -0.4157
23459SOL    HW173269   1.117   0.851   9.104  0.4871  0.2616  0.0737
23459SOL    HW273270   1.115   0.903   8.962  0.2538 -1.8587 -0.7408
23460SOL     OW73271   6.773   0.687   1.696 -0.5190  0.3201  0.4561
23460SOL    HW173272   6.855   0.703   1.649 -0.9507  2.4129  0.3033
23460SOL    HW273273   6.778   0.596   1.724  0.3950 -0.5980 -2.3982
23461SOL     OW73274   0.978   9.201   2.841 -0.5776  0.3579 -0.3233
23461SOL    HW173275   1.059   9.157   2.818 -1.2019 -0.1787 -1.6220
23461SOL    HW273276   0.933   9.141   2.900 -0.8680 -0.2090 -1.1069
23462SOL     OW73277   0.036   9.240   2.515 -0.3353 -0.3540  0.2864
23462SOL    HW173278  -0.050   9.276   2.495 -0.7673 -1.3649  0.2595
23462SOL    HW273279   0.039   9.158   2.466  0.7300 -0.2284  0.1227
23463SOL     OW73280   7.963   0.057   8.691 -0.4366 -0.3561 -0.8272
23463SOL    HW173281   7.909  -0.001   8.745  2.0287 -0.8946  1.2936
23463SOL    HW273282   7.932   0.145   8.710  2.7482  0.0197  5.1097
23464SOL     OW73283   7.297   0.749   4.781 -0.0088  0.3549 -0.2527
23464SOL    HW173284   7.364   0.760   4.714 -0.8724 -0.1097 -1.2154
23464SOL    HW273285   7.345   0.750   4.864  1.4081 -1.7491 -0.9918
23465SOL     OW73286   3.704   2.870   3.605  0.0853  0.1025 -0.4464
23465SOL    HW173287   3.669   2.907   3.686 -0.3076  2.4706 -1.5911
23465SOL    HW273288   3.628   2.860   3.548  0.4531 -0.8467 -0.7863
23466SOL     OW73289   7.363   8.237   4.112 -0.0171  0.7256 -0.2533
23466SOL    HW173290   7.329   8.279   4.033  2.9170  0.7065 -1.6466
23466SOL    HW273291   7.348   8.144   4.099  1.1178  0.6557 -1.1837
23467SOL     OW73292   4.598   9.049   3.947  0.1369  0.3291  0.0532
23467SOL    HW173293   4.621   9.069   3.856  0.8603  0.0413  0.1638
23467SOL    HW273294   4.682   9.048   3.993 -0.1342 -0.4589  0.5408
23468SOL     OW73295   3.737   7.279   6.196 -0.5043 -0.7669  0.2524
23468SOL    HW173296   3.752   7.265   6.290  0.2960 -1.1411  0.0820
23468SOL    HW273297   3.823   7.264   6.156 -0.8736 -0.7674 -0.5589
23469SOL     OW73298   0.832   4.615   4.550  0.3157  0.0147  0.1401
23469SOL    HW173299   0.749   4.588   4.512  0.8961 -0.0017 -1.1681
23469SOL    HW273300   0.847   4.703   4.514  0.5914  0.2558  0.8262
23470SOL     OW73301   4.104   3.996   8.420  0.2429  0.6980  0.2960
23470SOL    HW173302   4.022   4.045   8.410  0.6762  1.1356 -1.5340
23470SOL    HW273303   4.165   4.039   8.360  0.7800 -1.7960 -1.0820
23471SOL     OW73304   3.621   5.982   4.081 -0.1221  0.1154  0.1777
23471SOL    HW173305   3.634   6.028   3.999  1.7447 -0.8647 -0.1282
23471SOL    HW273306   3.550   5.921   4.063  1.7755 -1.7427 -1.5093
23472SOL     OW73307   3.846   8.872   7.584 -0.4664 -0.8364 -0.6369
23472SOL    HW173308   3.757   8.866   7.547 -1.1907  0.0941  0.8373
23472SOL    HW273309   3.881   8.954   7.549 -1.1991  0.1086  0.7584
23473SOL     OW73310   0.891   0.010   1.652 -0.5099 -0.4392 -0.1435
23473SOL    HW173311   0.815  -0.015   1.599 -1.6951 -2.9650  2.4722
23473SOL    HW273312   0.854   0.055   1.728  0.8680  0.5036  0.0096
23474SOL     OW73313   8.611   3.949   0.243 -0.3277  0.1900  0.4356
23474SOL    HW173314   8.630   3.967   0.336 -0.9150 -0.6764  0.7312
23474SOL    HW273315   8.597   4.036   0.205 -0.4391  0.5370  1.2363
23475SOL     OW73316   0.914   8.859   5.888  0.2174  0.2855  0.7308
23475SOL    HW173317   0.875   8.941   5.858 -0.9979 -0.4955  0.0442
23475SOL    HW273318   0.986   8.885   5.944  0.1068  1.8183  0.2081
23476SOL     OW73319   1.921   4.324   4.509  0.5955  0.4382  0.3218
23476SOL    HW173320   1.918   4.239   4.465  1.8403  1.1794 -1.2839
23476SOL    HW273321   1.852   4.375   4.467 -0.8230 -0.0202  1.9604
23477SOL     OW73322   1.161   6.762   7.730  0.0944 -0.5312  0.0661
23477SOL    HW173323   1.201   6.848   7.721 -1.6605  0.4696  1.4606
23477SOL    HW273324   1.223   6.703   7.686  0.8492  1.5269 -1.8078
23478SOL     OW73325   5.946   1.594   2.193 -0.7289 -0.3289 -0.1672
23478SOL    HW173326   5.958   1.639   2.109  1.9501 -0.8462 -0.1570
23478SOL    HW273327   5.947   1.664   2.258 -1.1338 -0.0585 -0.4499
23479SOL     OW73328   5.649   6.207   4.190  0.2873  0.7042  0.1292
23479SOL    HW173329   5.648   6.147   4.116  0.4925  0.5572  0.2458
23479SOL    HW273330   5.692   6.158   4.260  1.0809  1.2376  0.0234
23480SOL     OW73331   8.675   8.506   1.249 -0.0783 -0.1649  0.0613
23480SOL    HW173332   8.657   8.536   1.160 -0.2545  0.5218  0.3221
23480SOL    HW273333   8.760   8.543   1.271  0.5624 -1.3757 -0.2691
23481SOL     OW73334   4.617   3.425   1.805  0.2879  0.2969 -0.1157
23481SOL    HW173335   4.695   3.454   1.758 -0.0013  0.2816 -0.6092
23481SOL    HW273336   4.566   3.377   1.740 -0.1321  0.3025  0.2048
23482SOL     OW73337   6.489   5.216   5.670  0.0349  0.0417 -0.0786
23482SOL    HW173338   6.462   5.125   5.685  0.5824 -0.2074 -0.5458
23482SOL    HW273339   6.544   5.237   5.745 -0.2169  0.0455  0.1096
23483SOL     OW73340   2.564   9.064   3.069 -0.2037  0.5568  0.5492
23483SOL    HW173341   2.596   9.092   2.983  1.5081  0.6386  1.1787
23483SOL    HW273342   2.580   9.138   3.127 -0.7220  0.2549  1.0951
23484SOL     OW73343   0.089   3.242   5.288  0.8004 -0.6501  0.4460
23484SOL    HW173344   0.138   3.303   5.234 -0.7958  0.0500 -0.2790
23484SOL    HW273345   0.126   3.156   5.267  1.0476 -0.2497 -0.7997
23485SOL     OW73346   6.535   0.428   5.931  0.9733  0.7680 -0.4517
23485SOL    HW173347   6.565   0.472   5.851  1.2326 -0.3823 -1.0118
23485SOL    HW273348   6.494   0.348   5.900  0.2293  0.7523  0.5299
23486SOL     OW73349   2.351   2.820   3.931  0.2952  0.0534  0.0290
23486SOL    HW173350   2.299   2.869   3.995  0.7023 -1.4030  1.5355
23486SOL    HW273351   2.301   2.740   3.915  0.9040 -0.2489 -0.3974
23487SOL     OW73352   2.555   4.322   4.235  0.1358  0.1616 -0.3124
23487SOL    HW173353   2.581   4.409   4.206  1.6564 -0.3256 -0.4622
23487SOL    HW273354   2.607   4.306   4.314  1.7522 -1.5562 -1.6340
23488SOL     OW73355   3.590   7.222   7.888 -0.1713 -0.0639 -0.4369
23488SOL    HW173356   3.580   7.261   7.975  0.9554 -1.7780  0.5100
23488SOL    HW273357   3.542   7.140   7.893  1.5354 -1.1374 -0.7349
23489SOL     OW73358   1.572   2.843   2.541  0.4110  0.7238  0.2797
23489SOL    HW173359   1.621   2.925   2.554  0.5424  0.9371 -1.4356
23489SOL    HW273360   1.481   2.871   2.533  0.7284  1.1534 -3.4826
23490SOL     OW73361   3.236   6.855   4.647  0.2575 -0.2282  0.3136
23490SOL    HW173362   3.237   6.806   4.565  1.5709 -0.9668  0.7424
23490SOL    HW273363   3.328   6.867   4.669 -0.0681 -0.2965  1.8155
23491SOL     OW73364   6.025   7.639   0.210 -0.3997  0.0814  0.0230
23491SOL    HW173365   5.979   7.661   0.129  1.3586 -0.4223 -1.1495
23491SOL    HW273366   5.971   7.679   0.279 -2.7945 -0.7854 -1.2100
23492SOL     OW73367   6.526   6.398   2.069  0.3549 -0.4117  0.1636
23492SOL    HW173368   6.528   6.474   2.128  1.2940 -0.4188  0.1557
23492SOL    HW273369   6.433   6.378   2.060  0.0795  0.7494  0.1620
23493SOL     OW73370   2.539   2.108   2.656 -0.1464 -0.6840 -0.2599
23493SOL    HW173371   2.526   2.201   2.639  0.5015 -0.1139  1.9908
23493SOL    HW273372   2.602   2.105   2.728 -0.1511 -2.8770 -0.2607
23494SOL     OW73373   2.640   6.702   7.861  0.2266 -0.2668  0.6185
23494SOL    HW173374   2.710   6.636   7.859  0.0660 -0.4722  1.4589
23494SOL    HW273375   2.610   6.702   7.951 -2.3694 -1.7732 -0.1398
23495SOL     OW73376   5.413   3.849   6.465  0.2426 -0.3901 -0.3125
23495SOL    HW173377   5.446   3.760   6.477 -0.2222 -0.4258  0.7532
23495SOL    HW273378   5.319   3.838   6.448  0.5026 -0.2046 -2.0827
23496SOL     OW73379   1.420   8.100   4.256 -0.0411  0.4367 -0.5301
23496SOL    HW173380   1.403   8.006   4.255 -0.7188  0.5375  0.1754
23496SOL    HW273381   1.508   8.109   4.221  0.2444 -0.5077 -0.0868
23497SOL     OW73382   4.099   6.156   0.632 -0.5451  0.3662  0.4630
23497SOL    HW173383   4.123   6.095   0.701 -0.8669  0.5746  0.7686
23497SOL    HW273384   4.177   6.211   0.620  0.4577 -1.3417 -1.2067
23498SOL     OW73385   6.001   0.158   9.193 -0.5070  0.3310 -0.3943
23498SOL    HW173386   6.079   0.127   9.239 -0.2364  1.0045 -0.3939
23498SOL    HW273387   6.028   0.166   9.101 -1.0508 -1.0295 -0.6977
23499SOL     OW73388   6.423   3.307   9.141 -0.0722  0.3599 -0.2894
23499SOL    HW173389   6.405   3.325   9.234  1.2123 -0.5799  0.1663
23499SOL    HW273390   6.509   3.347   9.126 -0.2890  0.5316 -1.0975
23500SOL     OW73391   3.099   0.426   7.234 -0.2697 -0.5825 -0.0855
23500SOL    HW173392   3.115   0.434   7.328 -0.3396 -0.2929 -0.0988
23500SOL    HW273393   3.023   0.481   7.217  0.9890  1.0807 -0.6608
23501SOL     OW73394   2.655   2.511   4.052  0.1098  0.1750  0.7347
23501SOL    HW173395   2.594   2.541   4.120 -0.8310 -1.7762  0.8049
23501SOL    HW273396   2.634   2.419   4.039  1.5893  0.0042 -0.8403
23502SOL     OW73397   3.733   4.546   4.635  0.4119 -0.0588 -0.2195
23502SOL    HW173398   3.818   4.528   4.596  0.6429  2.8565 -1.2581
23502SOL    HW273399   3.702   4.625   4.592 -1.5632  0.5800  2.1201
23503SOL     OW73400   4.691   2.281   2.573 -0.6351  0.1657 -0.0030
23503SOL    HW173401   4.654   2.246   2.492  0.6902  2.6146 -1.8275
23503SOL    HW273402   4.736   2.361   2.545  1.8768 -0.1013  2.8013
23504SOL     OW73403   6.101   0.459   4.282 -0.4382  0.2178  0.8960
23504SOL    HW173404   6.123   0.445   4.190 -1.4411  0.4732  0.6084
23504SOL    HW273405   6.049   0.539   4.282 -0.3941  0.2472  1.6981
23505SOL     OW73406   8.621   3.116   3.587 -0.4403 -0.5099  0.1757
23505SOL    HW173407   8.714   3.121   3.568 -0.7766 -1.3004 -2.0008
23505SOL    HW273408   8.597   3.026   3.568 -2.2506  0.4551 -2.9127
23506SOL     OW73409   8.858   1.691   1.077  0.1323  0.3539  0.0906
23506SOL    HW173410   8.902   1.772   1.103 -0.7538  0.4831  1.2761
23506SOL    HW273411   8.799   1.672   1.149 -0.3328 -0.8717 -0.5868
23507SOL     OW73412   0.289   3.082   4.554 -0.6540 -0.0227  0.3070
23507SOL    HW173413   0.297   3.126   4.469 -1.4050  2.7043  1.5210
23507SOL    HW273414   0.203   3.107   4.586 -0.0506 -0.2174  2.2268
23508SOL     OW73415   1.678   8.577   6.650 -0.6383 -0.0872 -0.2811
23508SOL    HW173416   1.710   8.601   6.563 -0.4228  0.1279 -0.1436
23508SOL    HW273417   1.586   8.554   6.636 -0.4278 -0.7266 -0.6807
23509SOL     OW73418   6.457   1.224   4.206  0.4406 -0.8932  0.4717
23509SOL    HW173419   6.449   1.139   4.163  1.9545 -1.3041  0.9303
23509SOL    HW273420   6.513   1.208   4.282 -0.2741  0.2758  1.2859
23510SOL     OW73421   8.957   7.523   5.596 -0.4421  0.2803  0.2125
23510SOL    HW173422   9.004   7.463   5.539 -0.2187 -0.1628  0.8516
23510SOL    HW273423   8.868   7.525   5.561 -0.5399 -0.6987  0.3887
23511SOL     OW73424   1.807   5.687   5.868 -0.4359  0.3240  0.2589
23511SOL    HW173425   1.727   5.692   5.816 -0.0338  0.7956 -0.3216
23511SOL    HW273426   1.839   5.777   5.870  0.4611  0.0184 -0.1228
23512SOL     OW73427   1.352   2.326   2.018 -0.0937 -0.0389 -0.1911
23512SOL    HW173428   1.337   2.283   2.102  2.1381 -0.2662  0.1532
23512SOL    HW273429   1.272   2.375   2.001 -2.1949 -3.1371  0.0822
23513SOL     OW73430   5.976   8.893   2.843 -0.6709  0.0653  0.0245
23513SOL    HW173431   6.047   8.842   2.881 -0.1734 -0.8129 -1.9739
23513SOL    HW273432   5.903   8.882   2.905  0.1085 -1.2389  0.7574
23514SOL     OW73433   0.111   1.970   5.878 -0.7067  0.4325  0.5533
23514SOL    HW173434   0.022   1.994   5.902 -0.7090 -0.4292  1.5026
23514SOL    HW273435   0.102   1.911   5.804 -1.0486 -0.7905  1.5302
23515SOL     OW73436   8.954   0.949   2.375 -0.5769  0.3480  0.5194
23515SOL    HW173437   9.021   0.942   2.443 -0.4995  0.2179  0.4294
23515SOL    HW273438   8.999   0.928   2.294 -0.0260  2.9627  0.0508
23516SOL     OW73439   0.142   3.236   1.252 -0.5625 -0.4316  0.5977
23516SOL    HW173440   0.095   3.311   1.216 -1.4293 -0.8675  0.7767
23516SOL    HW273441   0.233   3.250   1.229 -0.7843  0.4475  0.2415
23517SOL     OW73442   0.281   4.974   1.372  0.1044 -0.1180  0.2278
23517SOL    HW173443   0.223   4.898   1.362 -0.2208  0.1670 -0.0894
23517SOL    HW273444   0.236   5.030   1.435  0.7591 -0.5746  1.1285
23518SOL     OW73445   7.563   3.470   4.615  0.2415 -0.2400 -0.3198
23518SOL    HW173446   7.642   3.421   4.593  0.7589  0.2074  0.4828
23518SOL    HW273447   7.491   3.417   4.581  0.8411 -1.0970 -0.2672
23519SOL     OW73448   3.169   5.399   8.220 -0.3217  0.1124  0.1471
23519SOL    HW173449   3.164   5.494   8.209  4.5665  0.4382 -1.2283
23519SOL    HW273450   3.158   5.363   8.132 -2.0282 -0.6748  0.6419
23520SOL     OW73451   2.272   5.963   9.010 -0.1515 -0.5643 -0.4760
23520SOL    HW173452   2.324   5.933   9.085 -0.7421  0.3228  0.3182
23520SOL    HW273453   2.247   5.883   8.964 -0.0788 -1.1589  0.4820
23521SOL     OW73454   7.120   3.429   3.918  0.6066 -0.2905  0.6494
23521SOL    HW173455   7.160   3.342   3.917  0.4697 -0.3586  0.9765
23521SOL    HW273456   7.027   3.414   3.904  0.0413 -0.5116  3.9198
23522SOL     OW73457   3.396   7.043   8.970 -0.3501 -0.5729 -0.4534
23522SOL    HW173458   3.372   6.953   8.952  0.5621 -0.5811 -1.7602
23522SOL    HW273459   3.313   7.091   8.968 -0.9339 -1.4586  0.9825
23523SOL     OW73460   7.140   2.589   8.252  0.8728  0.1145  0.1848
23523SOL    HW173461   7.113   2.659   8.193  1.2528  0.6728  0.6635
23523SOL    HW273462   7.198   2.632   8.315 -0.5390 -0.1987  1.7437
23524SOL     OW73463   6.205   2.050   5.567  0.9849 -0.4419 -0.1543
23524SOL    HW173464   6.268   2.074   5.500  1.8662  0.0244  0.8142
23524SOL    HW273465   6.227   2.104   5.643  0.2662 -1.2225  0.6505
23525SOL     OW73466   1.274   8.036   7.392  0.3584 -0.0499  0.1358
23525SOL    HW173467   1.296   7.943   7.397 -0.6275 -0.2798  0.3822
23525SOL    HW273468   1.259   8.052   7.298 -0.0978 -0.2929  0.1662
23526SOL     OW73469   2.549   3.242   7.941  0.2087  0.0045  0.3094
23526SOL    HW173470   2.615   3.245   7.872 -0.1753  0.2069 -0.0554
23526SOL    HW273471   2.522   3.150   7.945  2.2501 -0.6017  2.1488
23527SOL     OW73472   2.128   0.413   8.875 -0.1475  0.0640  0.7650
23527SOL    HW173473   2.167   0.443   8.958  0.4099  0.0165  0.5217
23527SOL    HW273474   2.074   0.338   8.900  0.8063 -0.5785  0.9515
23528SOL     OW73475   2.897   6.192   1.474 -0.8663  0.1064  0.2653
23528SOL    HW173476   2.982   6.218   1.438  0.6814 -2.0170  2.0698
23528SOL    HW273477   2.881   6.255   1.544 -0.0182 -0.2892  0.8425
23529SOL     OW73478   6.217   8.421   6.187 -0.2796 -0.3502 -0.0914
23529SOL    HW173479   6.164   8.500   6.174  2.2514  1.2662 -1.7502
23529SOL    HW273480   6.270   8.441   6.264  0.3636 -0.4023 -0.5115
23530SOL     OW73481   4.454   5.085   8.088  0.3005 -0.0920  0.5343
23530SOL    HW173482   4.394   5.021   8.051 -0.8298  2.3257 -2.2321
23530SOL    HW273483   4.537   5.070   8.044  0.0727  0.1875 -0.0086
23531SOL     OW73484   1.340   1.652   1.042 -0.1117 -0.5702 -0.1995
23531SOL    HW173485   1.258   1.701   1.031  0.5655  0.6412  0.0609
23531SOL    HW273486   1.318   1.584   1.107 -0.5799  0.5544  0.8653
23532SOL     OW73487   1.827   0.093   0.328 -0.2646 -0.4813  0.6481
23532SOL    HW173488   1.743   0.086   0.373  0.7197  1.4966  3.0170
23532SOL    HW273489   1.827   0.180   0.288 -0.4003 -1.5424 -1.8570
23533SOL     OW73490   8.158   8.481   3.964  0.0552  0.1969  0.1370
23533SOL    HW173491   8.207   8.455   4.043  0.4192  0.1808 -0.0893
23533SOL    HW273492   8.226   8.504   3.901 -0.2412  1.8166  0.3645
23534SOL     OW73493   8.997   2.522   8.930 -0.1451 -0.0263 -0.1011
23534SOL    HW173494   9.018   2.557   9.017 -0.2796 -1.1389  0.3964
23534SOL    HW273495   9.046   2.577   8.869 -0.4131  1.0626  0.6444
23535SOL     OW73496   7.222   2.812   5.613  0.5365  0.3238  0.3667
23535SOL    HW173497   7.160   2.878   5.643 -0.2721 -0.4534  0.4453
23535SOL    HW273498   7.239   2.834   5.522 -0.3666  0.1704  0.1531
23536SOL     OW73499   2.555   0.974   7.398  0.0305  0.0051 -0.3659
23536SOL    HW173500   2.533   0.886   7.427  0.8027  0.5100  1.8994
23536SOL    HW273501   2.471   1.021   7.399 -0.1125 -0.2566  0.0888
23537SOL     OW73502   1.711   6.369   3.646  0.4857  0.4219  0.2098
23537SOL    HW173503   1.660   6.289   3.630 -0.7560  1.2749 -0.2605
23537SOL    HW273504   1.786   6.340   3.698 -0.6550 -0.8326  1.2210
23538SOL     OW73505   5.915   7.279   7.785 -0.7037 -0.4020  0.1599
23538SOL    HW173506   6.009   7.269   7.797 -0.6295  1.1850  1.2586
23538SOL    HW273507   5.905   7.351   7.724 -1.1470  1.4437  2.2660
23539SOL     OW73508   4.488   2.778   3.434 -0.0710  0.8731 -0.3022
23539SOL    HW173509   4.543   2.802   3.508  0.9943  3.3254 -1.7766
23539SOL    HW273510   4.403   2.820   3.452 -0.3447  0.0969  0.2661
23540SOL     OW73511   7.961   1.887   1.571 -0.4024  0.6172  0.0875
23540SOL    HW173512   8.031   1.842   1.617 -0.4051 -0.6934 -1.1308
23540SOL    HW273513   7.923   1.946   1.637 -0.3789 -1.1215  1.7552
23541SOL     OW73514   2.391   3.155   6.084 -0.5170 -0.2036  0.1068
23541SOL    HW173515   2.340   3.090   6.037 -0.1191  0.2042 -0.9192
23541SOL    HW273516   2.334   3.232   6.088  0.4836  0.7750 -2.3810
23542SOL     OW73517   3.433   0.025   5.142 -0.2917 -0.3021  0.1575
23542SOL    HW173518   3.342   0.027   5.114 -0.3328  1.8772  0.3142
23542SOL    HW273519   3.479  -0.020   5.070 -1.4808 -1.7242  0.2333
23543SOL     OW73520   2.231   0.733   5.803 -0.3383 -0.0791  0.1721
23543SOL    HW173521   2.279   0.695   5.876 -0.0128 -0.7527 -0.3767
23543SOL    HW273522   2.237   0.668   5.733  0.0634  0.8913 -0.7356
23544SOL     OW73523   0.761   1.115   6.092  0.4931 -0.1509 -0.1017
23544SOL    HW173524   0.751   1.126   5.998 -3.0144  1.3839  0.2858
23544SOL    HW273525   0.719   1.031   6.111 -1.4826  0.8499  0.2874
23545SOL     OW73526   6.176   6.423   8.536 -0.2206  0.3192 -0.2800
23545SOL    HW173527   6.093   6.419   8.488 -0.1931  0.6092 -0.3524
23545SOL    HW273528   6.177   6.343   8.588 -0.8446  0.6324  0.2228
23546SOL     OW73529   7.054   3.304   6.126  0.5377  0.0408  0.3614
23546SOL    HW173530   7.093   3.385   6.094  1.4595 -0.9996 -1.2615
23546SOL    HW273531   7.128   3.247   6.144 -0.1133 -0.5788  1.1534
23547SOL     OW73532   7.000   5.913   3.305  0.1342  0.0411  0.3257
23547SOL    HW173533   6.994   6.009   3.307 -0.3110  0.0080  0.7382
23547SOL    HW273534   7.034   5.893   3.217  1.9504  0.6502  0.8425
23548SOL     OW73535   0.050   6.404   6.541 -1.3567  0.1487  0.6510
23548SOL    HW173536  -0.000   6.378   6.464 -1.0616 -1.3911  0.9320
23548SOL    HW273537   0.141   6.405   6.510 -1.4920  3.4349  0.0048
23549SOL     OW73538   3.524   5.875   5.186  0.2645 -0.0044  0.1468
23549SOL    HW173539   3.591   5.879   5.118  0.1146 -2.0175 -0.1725
23549SOL    HW273540   3.468   5.951   5.169  2.5827  1.9042  0.6112
23550SOL     OW73541   3.818   0.560   1.524  0.4239  0.3471 -0.7076
23550SOL    HW173542   3.901   0.520   1.498  0.2080  1.1467 -2.7868
23550SOL    HW273543   3.824   0.650   1.492 -0.3635  1.0942  1.1018
23551SOL     OW73544   2.572   6.764   8.968  0.1461 -1.1408 -0.0935
23551SOL    HW173545   2.609   6.684   9.005  1.1429  0.0478  1.6234
23551SOL    HW273546   2.480   6.763   8.995 -0.2859 -2.4595 -1.4896
23552SOL     OW73547   0.471   0.025   1.364  0.0952  0.0384 -0.3497
23552SOL    HW173548   0.475  -0.016   1.451  1.6356 -2.1845 -1.3848
23552SOL    HW273549   0.497   0.116   1.379 -3.8939  1.0514  2.1325
23553SOL     OW73550   4.866   0.895   4.049  0.0754  0.0261 -0.1243
23553SOL    HW173551   4.929   0.939   4.105 -1.2390  1.9317 -0.0729
23553SOL    HW273552   4.859   0.950   3.971 -1.9447  0.2306  0.1337
23554SOL     OW73553   3.069   5.092   6.451  0.1145 -0.2638 -0.2498
23554SOL    HW173554   3.153   5.063   6.417 -0.9172 -2.5665 -1.0816
23554SOL    HW273555   3.064   5.054   6.539  0.1585  0.3547  0.0282
23555SOL     OW73556   6.700   0.991   7.280  0.5402 -0.7375 -0.1190
23555SOL    HW173557   6.624   0.939   7.309  0.1630 -0.1655 -0.0569
23555SOL    HW273558   6.663   1.077   7.258  1.1235 -0.5592 -0.4214
23556SOL     OW73559   3.833   0.646   3.368  0.1328 -0.5129  0.0212
23556SOL    HW173560   3.809   0.564   3.325  0.2740 -0.3065 -0.4590
23556SOL    HW273561   3.764   0.708   3.343  0.5314 -0.2323 -0.4037
23557SOL     OW73562   1.047   7.041   0.340 -0.1466 -0.3338  0.0532
23557SOL    HW173563   1.132   7.001   0.358  0.8434  0.1635 -2.9137
23557SOL    HW273564   1.065   7.135   0.343 -0.6427 -0.2272 -0.3573
23558SOL     OW73565   3.479   1.834   0.910 -0.2162  0.0868  0.3172
23558SOL    HW173566   3.575   1.837   0.913 -0.2512  0.4436  2.3135
23558SOL    HW273567   3.454   1.912   0.861  0.4918  0.9027  1.2109
23559SOL     OW73568   0.583   7.248   0.860 -0.2890 -0.0404 -0.2809
23559SOL    HW173569   0.554   7.300   0.935  1.0319  0.5061 -0.1245
23559SOL    HW273570   0.670   7.281   0.840  0.0815 -1.3607 -0.9776
23560SOL     OW73571   0.539   8.364   2.700  0.9993 -0.1389  0.0407
23560SOL    HW173572   0.480   8.440   2.701  0.9228 -0.1992  0.0611
23560SOL    HW273573   0.481   8.288   2.701  1.0814 -0.2004  0.4940
23561SOL     OW73574   7.779   6.570   3.715  0.6470 -0.3150  0.0321
23561SOL    HW173575   7.789   6.635   3.645  1.5282  0.0337  0.4665
23561SOL    HW273576   7.686   6.546   3.713  0.6563 -0.3447 -1.2863
23562SOL     OW73577   4.451   0.503   7.164  0.1862  0.1938  0.0606
23562SOL    HW173578   4.527   0.451   7.188 -1.3555 -1.8411  0.7525
23562SOL    HW273579   4.432   0.555   7.242 -0.5195 -1.0827  0.7733
23563SOL     OW73580   6.978   1.403   8.439 -0.0233 -0.4390  0.1202
23563SOL    HW173581   6.897   1.428   8.484 -0.9070  0.3320 -1.7513
23563SOL    HW273582   6.951   1.331   8.381  0.6879 -0.3769 -0.3007
23564SOL     OW73583   7.732   3.245   7.759  0.0542  0.1430  0.0816
23564SOL    HW173584   7.809   3.250   7.816  0.7492  1.7750 -0.9214
23564SOL    HW273585   7.759   3.289   7.678 -1.5458 -0.3380 -0.7527
23565SOL     OW73586   7.925   2.896   3.400 -0.1992  0.1473  0.1058
23565SOL    HW173587   8.015   2.928   3.391 -0.2504  1.1071  2.4186
23565SOL    HW273588   7.892   2.941   3.477 -2.7332 -0.0981 -0.7640
23566SOL     OW73589   3.343   3.257   8.306  0.2690 -0.1983  0.5469
23566SOL    HW173590   3.269   3.197   8.295  0.3966 -0.0269 -1.5898
23566SOL    HW273591   3.397   3.216   8.375 -0.1538 -2.0285 -0.1427
23567SOL     OW73592   1.881   6.794   7.080  0.1888  0.0465  0.0140
23567SOL    HW173593   1.900   6.734   7.008  0.3306  0.6367 -0.4470
23567SOL    HW273594   1.822   6.859   7.043 -1.4359 -0.8073  0.9933
23568SOL     OW73595   6.462   8.955   5.262  0.0440  0.1096  0.1820
23568SOL    HW173596   6.483   9.010   5.338  0.2431  0.3717 -0.0631
23568SOL    HW273597   6.533   8.971   5.200 -0.6926  0.7528 -0.5230
23569SOL     OW73598   0.648   1.751   7.588  0.2995  0.0519 -0.1874
23569SOL    HW173599   0.599   1.778   7.666  1.8656 -0.7228  1.1147
23569SOL    HW273600   0.586   1.762   7.517 -2.1338 -1.6891  1.4675
23570SOL     OW73601   6.162   6.412   0.360  0.5408  0.6842  0.4574
23570SOL    HW173602   6.213   6.365   0.294  1.0734  2.3995 -0.3992
23570SOL    HW273603   6.175   6.505   0.340 -0.7803  1.2223  1.8544
23571SOL     OW73604   7.109   2.828   8.090 -0.2107 -0.5536 -0.6474
23571SOL    HW173605   7.181   2.814   8.029 -1.5931 -0.3130 -2.4167
23571SOL    HW273606   7.041   2.872   8.038 -1.5757 -0.6070  0.9888
23572SOL     OW73607   5.076   6.000   3.693  0.4253  0.3185  0.0976
23572SOL    HW173608   5.099   6.092   3.704 -0.6902  0.5547  0.6955
23572SOL    HW273609   5.137   5.953   3.749  2.1439  0.5020 -1.5273
23573SOL     OW73610   2.499   0.890   5.565  0.8959  0.6403  0.0170
23573SOL    HW173611   2.566   0.897   5.498  0.1398 -0.5287 -0.8984
23573SOL    HW273612   2.448   0.971   5.556 -0.4142 -0.3551 -2.2061
23574SOL     OW73613   8.837   5.941   2.077  0.1577 -0.1669 -0.6456
23574SOL    HW173614   8.873   5.965   2.162  0.3409 -0.7185 -0.5598
23574SOL    HW273615   8.886   5.862   2.052  0.7924  0.5244 -1.7109
23575SOL     OW73616   7.743   7.831   4.267  0.0246 -0.0910  0.0553
23575SOL    HW173617   7.687   7.764   4.306 -0.3870  0.3557  0.2446
23575SOL    HW273618   7.688   7.908   4.262  0.5678  0.3044  0.0602
23576SOL     OW73619   5.796   6.110   5.403 -0.5508  0.3452 -0.4108
23576SOL    HW173620   5.734   6.180   5.382 -0.9657  0.7440  1.8464
23576SOL    HW273621   5.874   6.155   5.435 -0.7711 -0.1814  0.9472
23577SOL     OW73622   5.257   7.059   4.715 -0.1525  0.2500  0.0250
23577SOL    HW173623   5.268   7.041   4.621 -1.0680 -0.4680  0.0396
23577SOL    HW273624   5.195   6.992   4.745 -1.0374  1.3764  0.8189
23578SOL     OW73625   1.931   0.500   5.292 -0.1035 -0.4664 -0.1561
23578SOL    HW173626   2.010   0.532   5.249 -0.3816  0.7699  0.2032
23578SOL    HW273627   1.935   0.539   5.380 -0.4866 -1.4073  0.2860
23579SOL     OW73628   4.719   8.996   8.781 -0.2409  0.9401 -0.2294
23579SOL    HW173629   4.798   8.941   8.773 -0.3131  0.8584 -0.3882
23579SOL    HW273630   4.647   8.938   8.755 -0.1536  1.5805 -2.0054
23580SOL     OW73631   7.640   6.454   7.028 -0.3442 -0.0909  0.5830
23580SOL    HW173632   7.711   6.466   7.091  0.3991 -0.2569 -0.2161
23580SOL    HW273633   7.668   6.502   6.950  0.3944 -2.7733 -0.9077
23581SOL     OW73634   3.828   5.431   0.568  0.0510  0.5655 -0.4787
23581SOL    HW173635   3.896   5.366   0.585  0.0164 -0.1539 -2.7470
23581SOL    HW273636   3.875   5.515   0.570  0.5619  0.2748  0.1137
23582SOL     OW73637   4.007   1.493   5.943 -0.3831 -0.3507  0.5075
23582SOL    HW173638   4.049   1.438   5.877  1.3764  2.2191 -0.7266
23582SOL    HW273639   4.079   1.521   6.000 -0.9719  1.4045  0.4594
23583SOL     OW73640   6.552   1.680   4.668 -0.5051  0.8440 -0.3488
23583SOL    HW173641   6.488   1.746   4.694  0.1781  0.7628  1.7909
23583SOL    HW273642   6.637   1.720   4.689 -0.0850 -0.8311  1.4886
23584SOL     OW73643   7.067   8.639   7.729  0.2590 -0.5055 -0.7270
23584SOL    HW173644   7.109   8.723   7.714  0.1757 -0.5836 -1.4298
23584SOL    HW273645   7.130   8.589   7.782  1.6529 -1.0943 -2.8356
23585SOL     OW73646   6.271   9.154   8.141 -0.4728 -0.5806 -0.5611
23585SOL    HW173647   6.257   9.111   8.057 -2.8292 -0.7595 -0.1426
23585SOL    HW273648   6.308   9.240   8.118 -2.1824 -0.1334 -1.9145
23586SOL     OW73649   4.972   2.035   5.006 -0.3515 -0.5658  0.3818
23586SOL    HW173650   4.973   2.121   5.047  0.9013 -0.1130 -0.5222
23586SOL    HW273651   4.883   2.024   4.974  0.0442  1.4582 -1.6092
23587SOL     OW73652   7.816   0.395   4.158 -0.4747 -0.4428  0.2147
23587SOL    HW173653   7.870   0.474   4.165 -1.1680  0.1041 -0.3454
23587SOL    HW273654   7.851   0.349   4.082 -0.2721 -0.5082  0.3479
23588SOL     OW73655   6.250   4.640   8.552  0.2872  0.4004  0.1683
23588SOL    HW173656   6.228   4.668   8.641 -0.7138  0.3403 -0.0471
23588SOL    HW273657   6.246   4.721   8.500  3.0323  0.8514  0.5271
23589SOL     OW73658   2.147   5.739   0.007  0.1106  0.1637 -0.1939
23589SOL    HW173659   2.237   5.768   0.020  0.3922 -0.9856  0.6454
23589SOL    HW273660   2.093   5.816   0.024  0.9298  0.8257 -0.5716
23590SOL     OW73661   2.513   6.189   5.957 -0.2037  0.2057 -0.3880
23590SOL    HW173662   2.577   6.190   6.028 -1.2861  2.2356  0.6610
23590SOL    HW273663   2.532   6.269   5.907 -2.0137  0.9808  0.0971
23591SOL     OW73664   2.995   4.682   3.136  0.5610  0.1730  0.1255
23591SOL    HW173665   2.901   4.692   3.148  0.6546  2.6466 -0.8095
23591SOL    HW273666   3.034   4.745   3.197  1.7639 -2.0984  1.8780
23592SOL     OW73667   0.218   1.055   1.853 -0.1056  0.0454  0.2515
23592SOL    HW173668   0.249   1.131   1.805  1.2279 -0.9182 -0.4919
23592SOL    HW273669   0.296   1.019   1.895 -0.5760 -1.2166  0.1148
23593SOL     OW73670   5.496   4.460   2.902  0.3868  0.6130  0.1161
23593SOL    HW173671   5.485   4.513   2.981 -1.1458  1.7874 -0.8387
23593SOL    HW273672   5.411   4.418   2.889  1.0889 -0.8120 -0.0773
23594SOL     OW73673   2.248   1.759   3.563  0.0674 -0.3569  0.1482
23594SOL    HW173674   2.318   1.696   3.545 -1.0673 -1.2080 -1.5533
23594SOL    HW273675   2.291   1.830   3.611  1.9686 -1.1147 -0.3556
23595SOL     OW73676   5.259   7.510   0.350  0.7268 -0.7119 -0.4545
23595SOL    HW173677   5.317   7.586   0.349  0.4363 -0.4903 -0.7385
23595SOL    HW273678   5.225   7.505   0.260 -0.8001  0.0018  0.0712
23596SOL     OW73679   8.017   4.976   4.312  0.4373  0.1208 -0.4363
23596SOL    HW173680   8.080   4.975   4.241  0.1623  0.3521 -0.6829
23596SOL    HW273681   8.062   4.934   4.385  0.9192  0.3921 -0.5759
23597SOL     OW73682   4.202   3.433   5.847 -0.1137  0.3507 -0.6913
23597SOL    HW173683   4.261   3.488   5.796  2.1112  0.2775  1.6109
23597SOL    HW273684   4.232   3.442   5.937 -0.7668 -3.2492  0.0500
23598SOL     OW73685   9.089   5.775   4.888 -0.2594 -0.0073 -0.6704
23598SOL    HW173686   9.133   5.828   4.821 -0.9710  0.2774 -0.9137
23598SOL    HW273687   9.100   5.826   4.968  1.2149 -0.6840 -0.4013
23599SOL     OW73688   6.854   0.397   5.958 -0.2297  0.3813  0.1876
23599SOL    HW173689   6.821   0.367   5.874  2.7608 -2.0091 -0.2911
23599SOL    HW273690   6.891   0.484   5.940 -0.7936  0.4517 -0.6359
23600SOL     OW73691   5.140   5.990   6.292 -0.3864 -0.0182  0.3638
23600SOL    HW173692   5.092   5.998   6.375  1.8758  1.6571  1.6406
23600SOL    HW273693   5.154   5.896   6.281 -0.0386 -0.2522  2.3736
23601SOL     OW73694   2.725   2.101   8.135  0.1790 -0.0029 -0.5307
23601SOL    HW173695   2.814   2.068   8.146 -0.3445 -1.5890 -0.7783
23601SOL    HW273696   2.704   2.082   8.043 -0.2490  0.7876 -0.6003
23602SOL     OW73697   0.503   1.347   1.839  0.4757  0.3434  0.0794
23602SOL    HW173698   0.520   1.253   1.845  1.5912  0.5472  0.3254
23602SOL    HW273699   0.564   1.379   1.774 -0.4980  0.7788 -0.6461
23603SOL     OW73700   8.079   4.728   9.229 -0.1047  0.1484  0.2430
23603SOL    HW173701   8.061   4.637   9.254 -1.9738  0.6491  0.8707
23603SOL    HW273702   8.065   4.730   9.135 -0.2805 -0.1736  0.2590
23604SOL     OW73703   4.797   8.385   1.179  0.5262  0.1235  0.3162
23604SOL    HW173704   4.785   8.381   1.274  0.1714  1.8373  0.3623
23604SOL    HW273705   4.709   8.374   1.143  0.8303 -1.9406  0.0992
23605SOL     OW73706   5.423   8.816   1.438  0.1626 -0.4892  0.2300
23605SOL    HW173707   5.518   8.812   1.426  0.1219 -0.2169 -0.2030
23605SOL    HW273708   5.395   8.893   1.387 -0.3351 -0.7939  0.0282
23606SOL     OW73709   4.702   6.684   5.300  0.5195 -0.3010  1.2822
23606SOL    HW173710   4.726   6.768   5.338  1.8764 -0.6019  1.1460
23606SOL    HW273711   4.698   6.701   5.206  1.1637 -0.4598  1.2209
23607SOL     OW73712   8.577   0.884   8.528 -0.6423  0.9199 -0.0813
23607SOL    HW173713   8.572   0.910   8.436  1.3084  0.8945 -0.2310
23607SOL    HW273714   8.660   0.921   8.560  0.6244 -2.1856  0.6145
23608SOL     OW73715   3.528   7.978   1.073 -0.0907  0.6046 -0.1236
23608SOL    HW173716   3.578   8.040   1.019 -0.1564 -0.5711 -1.5695
23608SOL    HW273717   3.452   7.956   1.020 -0.7270  0.2451  0.9188
23609SOL     OW73718   4.115   0.167   8.652  0.1108 -0.2005 -0.1490
23609SOL    HW173719   4.104   0.081   8.614 -0.0086 -0.5689  0.6867
23609SOL    HW273720   4.189   0.158   8.712 -1.3128 -0.3549  1.6684
23610SOL     OW73721   4.433   2.836   4.234 -0.5014 -0.4186  0.3878
23610SOL    HW173722   4.349   2.809   4.196 -0.3368 -0.3986 -0.0049
23610SOL    HW273723   4.411   2.905   4.295 -0.7187 -0.0164 -0.1359
23611SOL     OW73724   5.951   1.698   1.604 -0.1737 -0.6715  0.1981
23611SOL    HW173725   5.873   1.650   1.575 -0.3467 -0.7025  0.7021
23611SOL    HW273726   5.919   1.754   1.676  0.2571 -0.6474  0.3725
23612SOL     OW73727   6.522   5.152   7.490  0.0144 -0.0625 -0.1149
23612SOL    HW173728   6.544   5.151   7.397  0.8487 -1.4110  0.0689
23612SOL    HW273729   6.606   5.147   7.535 -0.3054  1.7196  0.7525
23613SOL     OW73730   5.598   2.660   3.710 -0.2138 -0.1257  0.2282
23613SOL    HW173731   5.683   2.696   3.735 -0.3957  0.6934 -0.3123
23613SOL    HW273732   5.581   2.592   3.775  0.3468  0.4473  0.9833
23614SOL     OW73733   5.974   5.008   4.286 -0.1176  0.1004  0.0753
23614SOL    HW173734   6.028   4.933   4.261 -0.4603  0.9050 -3.6959
23614SOL    HW273735   5.884   4.976   4.279 -0.2329  0.4469 -0.0519
23615SOL     OW73736   4.107   2.751   7.574  0.7197 -0.3390 -0.0992
23615SOL    HW173737   4.139   2.816   7.637  1.6172 -2.4197  1.7407
23615SOL    HW273738   4.067   2.803   7.505 -0.2622  2.1164  2.1239
23616SOL     OW73739   5.997   4.416   0.808 -0.0150  0.0122 -0.3202
23616SOL    HW173740   6.064   4.356   0.842  0.2757  0.1073 -0.7168
23616SOL    HW273741   5.928   4.415   0.875  0.3227 -0.1878  0.0322
23617SOL     OW73742   0.134   3.759   9.190 -0.2181  0.2244 -0.4315
23617SOL    HW173743   0.177   3.744   9.275  1.1334  0.2841 -1.0863
23617SOL    HW273744   0.047   3.792   9.214  0.4044  0.9911  0.9455
23618SOL     OW73745   6.814   8.172   3.593  0.2984 -0.5057 -0.0441
23618SOL    HW173746   6.880   8.207   3.653  0.8007 -0.5204 -0.5714
23618SOL    HW273747   6.837   8.211   3.508 -1.6159  1.1471  0.1295
23619SOL     OW73748   3.192   5.984   7.507 -0.7635  0.1862  0.2514
23619SOL    HW173749   3.108   5.963   7.465 -2.7593  2.5572  2.7118
23619SOL    HW273750   3.197   5.924   7.581  1.4456 -2.1601 -1.6214
23620SOL     OW73751   4.417   6.680   8.180 -0.2059 -0.3695 -0.1083
23620SOL    HW173752   4.464   6.600   8.203 -0.9697 -0.4792  1.1467
23620SOL    HW273753   4.342   6.650   8.129 -0.7073 -0.4929  0.6978
23621SOL     OW73754   2.907   2.272   7.957  0.1470 -0.2907 -0.2688
23621SOL    HW173755   2.918   2.192   7.905 -1.7665 -0.3288 -0.6651
23621SOL    HW273756   2.926   2.343   7.896  1.1572 -0.3925 -0.0998
23622SOL     OW73757   3.084   1.793   5.311 -0.7499 -0.3991 -0.3484
23622SOL    HW173758   3.121   1.851   5.378  0.8692  0.3768 -1.8163
23622SOL    HW273759   3.050   1.853   5.245 -1.1029 -1.1342 -0.8420
23623SOL     OW73760   6.995   0.441   4.035  0.8270  0.3126 -0.2911
23623SOL    HW173761   6.999   0.524   4.083 -0.0289 -0.7353  1.7096
23623SOL    HW273762   7.076   0.396   4.060  1.6188  0.7664 -1.9017
23624SOL     OW73763   6.613   2.727   2.962 -0.1402 -0.8035 -0.0778
23624SOL    HW173764   6.559   2.770   2.896 -0.5253 -0.1646  0.6344
23624SOL    HW273765   6.562   2.649   2.986  0.1400 -1.1948 -0.7351
23625SOL     OW73766   3.588   0.523   0.010  0.6600 -0.6551  0.7282
23625SOL    HW173767   3.563   0.430   0.009 -1.4143 -0.1543  0.5136
23625SOL    HW273768   3.640   0.533   0.089 -0.8689 -1.6129  1.9198
23626SOL     OW73769   3.940   4.376   8.926  0.3437 -0.1654 -0.1054
23626SOL    HW173770   4.034   4.359   8.930  0.9210  2.0766 -1.7677
23626SOL    HW273771   3.916   4.405   9.014  1.1727 -0.8816  0.3644
23627SOL     OW73772   7.350   1.052   6.838 -0.2100  0.1772  0.2973
23627SOL    HW173773   7.410   1.050   6.763 -0.1429  0.3882  0.3449
23627SOL    HW273774   7.264   1.069   6.800  0.0250  1.6447  0.3871
23628SOL     OW73775   1.014   1.641   2.245 -0.1678  0.3457  0.6079
23628SOL    HW173776   1.097   1.655   2.198 -0.6222  1.1133 -0.0090
23628SOL    HW273777   1.038   1.592   2.323  0.5973 -1.1774 -0.5361
23629SOL     OW73778   4.982   8.035   4.382  0.3370 -0.4747  0.3986
23629SOL    HW173779   5.007   8.121   4.417  1.0735 -0.0972 -1.0236
23629SOL    HW273780   4.999   8.041   4.288  0.2144 -2.1204  0.2509
23630SOL     OW73781   6.238   5.266   1.797  0.3648  0.0437  0.3451
23630SOL    HW173782   6.196   5.233   1.718 -0.7545 -1.5935  1.5578
23630SOL    HW273783   6.327   5.289   1.770 -0.3046  0.5037 -1.5831
23631SOL     OW73784   4.986   2.633   0.491 -0.0643 -0.1524 -0.1213
23631SOL    HW173785   4.935   2.678   0.424 -2.4317 -0.8611  1.1221
23631SOL    HW273786   4.976   2.540   0.470 -0.7213 -0.3770  1.0950
23632SOL     OW73787   6.062   7.140   2.355  0.0753  0.0335 -0.1134
23632SOL    HW173788   5.978   7.114   2.392 -0.2660 -0.0665 -0.9349
23632SOL    HW273789   6.045   7.153   2.261  0.7939  0.7834 -0.1646
23633SOL     OW73790   0.185   3.985   2.687 -0.3208  0.3162 -0.2590
23633SOL    HW173791   0.117   4.050   2.701 -0.6210  0.8143 -3.3063
23633SOL    HW273792   0.138   3.902   2.677 -0.2822  0.2689 -0.0393
23634SOL     OW73793   0.964   4.292   5.590 -0.4629 -0.8082 -0.0466
23634SOL    HW173794   0.965   4.217   5.531  0.3430 -0.0289 -1.0624
23634SOL    HW273795   0.941   4.366   5.534  0.2440 -0.0661  0.6205
23635SOL     OW73796   2.638   0.371   1.734  0.6035  0.0878 -0.3910
23635SOL    HW173797   2.644   0.443   1.672 -0.0744  0.6325  0.1557
23635SOL    HW273798   2.686   0.401   1.811  2.6481 -1.1340 -1.1135
23636SOL     OW73799   8.677   3.967   6.206  0.7529 -0.1525 -0.7291
23636SOL    HW173800   8.640   3.980   6.118  1.1474  0.9387 -0.7499
23636SOL    HW273801   8.683   3.872   6.215 -3.5467 -0.5878 -0.1084
23637SOL     OW73802   7.077   2.391   9.255 -0.0221 -0.4252 -0.1048
23637SOL    HW173803   7.054   2.423   9.342  1.5218  0.4691  0.0082
23637SOL    HW273804   7.076   2.469   9.200  0.2487 -0.7726 -0.6109
23638SOL     OW73805   2.288   3.870   5.134  0.0155 -0.3396 -0.5000
23638SOL    HW173806   2.231   3.841   5.063 -0.3630 -2.2658  0.5094
23638SOL    HW273807   2.300   3.964   5.119  0.2978 -0.7395 -3.3071
23639SOL     OW73808   5.653   1.823   2.218 -0.1461 -0.1218 -0.7068
23639SOL    HW173809   5.569   1.867   2.231  0.2855  0.3821  0.5767
23639SOL    HW273810   5.653   1.799   2.126 -2.6174 -2.0234 -0.3327
23640SOL     OW73811   1.778   2.702   8.562 -0.4993  0.0458  0.5242
23640SOL    HW173812   1.694   2.680   8.602  0.3390 -2.4675  1.0875
23640SOL    HW273813   1.761   2.700   8.468 -1.3368  0.8881  0.6454
23641SOL     OW73814   5.513   0.154   0.067 -0.1274 -0.1867  0.5035
23641SOL    HW173815   5.433   0.104   0.081 -1.0561  1.5327  1.7296
23641SOL    HW273816   5.555   0.112  -0.008 -1.7828 -1.5985  0.3086
23642SOL     OW73817   6.468   8.469   1.523  0.7631 -0.1615 -0.4551
23642SOL    HW173818   6.492   8.440   1.435 -0.6007 -1.2968 -0.4890
23642SOL    HW273819   6.387   8.517   1.511  1.3366  0.9556  0.0244
23643SOL     OW73820   3.291   5.052   3.506 -0.1255  0.8579  0.3851
23643SOL    HW173821   3.249   5.037   3.591 -0.0306  0.2144  0.3223
23643SOL    HW273822   3.383   5.030   3.521 -0.2227  0.1331 -0.0429
23644SOL     OW73823   4.501   3.836   3.084  0.4465 -0.4563 -0.6552
23644SOL    HW173824   4.471   3.769   3.023 -0.3002 -0.4920 -0.2614
23644SOL    HW273825   4.425   3.891   3.099  1.3381  1.1749 -1.8414
23645SOL     OW73826   8.718   6.764   2.959  0.2840  0.6683 -0.0821
23645SOL    HW173827   8.808   6.739   2.978  0.1053 -0.7213 -0.8574
23645SOL    HW273828   8.709   6.748   2.865 -1.6549 -2.4380  0.4871
23646SOL     OW73829   9.215   0.510   7.251 -0.9360  0.2964  0.1156
23646SOL    HW173830   9.276   0.548   7.314  0.4296 -3.2176  1.1809
23646SOL    HW273831   9.153   0.461   7.305 -2.2126  0.4585 -1.1533
23647SOL     OW73832   4.187   0.129   4.297 -0.1891 -0.1063 -0.3154
23647SOL    HW173833   4.254   0.190   4.266  0.2471 -0.9120 -1.0002
23647SOL    HW273834   4.142   0.176   4.367  0.5864  0.7373 -0.3666
23648SOL     OW73835   1.533   3.384   7.796  0.0639 -0.2337 -0.6242
23648SOL    HW173836   1.567   3.369   7.884 -0.3895  0.4009 -0.3272
23648SOL    HW273837   1.609   3.416   7.746  0.0479  0.6063 -0.1269
23649SOL     OW73838   8.430   4.627   6.231 -0.2291  0.1528 -0.3508
23649SOL    HW173839   8.405   4.719   6.234 -1.0581  0.1249 -3.3589
23649SOL    HW273840   8.349   4.579   6.214  0.2940 -1.0577  0.4059
23650SOL     OW73841   0.150   2.361   8.281  0.4658  0.4898 -0.0130
23650SOL    HW173842   0.235   2.320   8.296  0.3864  0.5428  0.5834
23650SOL    HW273843   0.089   2.311   8.335 -0.0061  0.0258 -0.9404
23651SOL     OW73844   7.626   4.249   5.654 -0.8447 -0.2084 -0.2663
23651SOL    HW173845   7.588   4.170   5.617 -0.6995 -0.5374  0.2755
23651SOL    HW273846   7.643   4.305   5.578  0.0862 -1.1478 -0.7742
23652SOL     OW73847   9.159   0.234   1.203 -0.1070  0.0629 -0.3153
23652SOL    HW173848   9.159   0.156   1.148  1.2293  0.3626 -0.7875
23652SOL    HW273849   9.079   0.281   1.179 -0.5211 -0.7785 -0.5870
23653SOL     OW73850   3.651   6.773   0.195  0.0518 -0.1034 -0.0335
23653SOL    HW173851   3.690   6.793   0.110 -0.8552 -0.1552 -0.4752
23653SOL    HW273852   3.639   6.678   0.194 -0.2308 -0.0691  0.0344
23654SOL     OW73853   5.077   4.187   0.461 -0.2006 -0.0418  0.3166
23654SOL    HW173854   4.991   4.221   0.486 -1.8924 -2.9769 -0.9560
23654SOL    HW273855   5.077   4.190   0.365  0.2311 -1.9119  0.2228
23655SOL     OW73856   4.599   8.745   1.369 -0.1717  0.2148  0.0248
23655SOL    HW173857   4.558   8.659   1.380  1.2338 -0.2101  3.2126
23655SOL    HW273858   4.534   8.807   1.403 -0.2295  0.1305  0.0678
23656SOL     OW73859   0.437   1.063   3.184 -0.5118 -0.7140  0.0109
23656SOL    HW173860   0.461   1.012   3.262 -1.4599  0.9840  1.4865
23656SOL    HW273861   0.518   1.106   3.158 -0.2525 -1.0537  0.2401
23657SOL     OW73862   1.548   0.004   7.375  0.0467 -0.0950  0.4144
23657SOL    HW173863   1.588   0.091   7.383 -0.6430  0.7739 -3.4180
23657SOL    HW273864   1.492   0.011   7.298 -2.2722 -3.1979  1.6226
23658SOL     OW73865   5.427   6.461   4.613  0.2034 -0.2021  0.6013
23658SOL    HW173866   5.471   6.385   4.653  2.1948 -1.5896 -3.6284
23658SOL    HW273867   5.493   6.530   4.614 -0.1958  0.1849  0.7819
23659SOL     OW73868   5.406   6.093   8.261  0.3305 -0.2614 -0.1649
23659SOL    HW173869   5.411   6.141   8.178 -1.3340 -0.9047 -0.6697
23659SOL    HW273870   5.424   6.159   8.328  4.8493 -0.2771 -1.0438
23660SOL     OW73871   2.180   6.117   1.871 -0.8526 -0.0395  0.0978
23660SOL    HW173872   2.247   6.127   1.939  1.1905 -1.4544 -1.5871
23660SOL    HW273873   2.125   6.046   1.903  0.1943 -0.8110  0.2371
23661SOL     OW73874   3.653   3.495   1.161 -0.3673  0.6243  0.9949
23661SOL    HW173875   3.732   3.458   1.124 -2.0277 -0.7072 -1.4314
23661SOL    HW273876   3.644   3.452   1.246 -0.3289 -1.9644 -0.2192
23662SOL     OW73877   7.322   7.718   4.032 -0.3042  0.6268  0.0712
23662SOL    HW173878   7.399   7.664   4.013 -0.0014  1.0831 -0.0244
23662SOL    HW273879   7.264   7.703   3.958 -0.0063  0.8124 -0.2041
23663SOL     OW73880   7.526   7.384   2.005  0.0799  0.0359  0.6180
23663SOL    HW173881   7.541   7.372   1.911  0.8509  1.3937  0.5416
23663SOL    HW273882   7.606   7.351   2.047 -0.5677 -1.2724  0.8732
23664SOL     OW73883   8.917   2.544   2.764  0.6774 -0.0434 -0.1690
23664SOL    HW173884   8.869   2.600   2.824  0.0010 -0.5598 -0.2096
23664SOL    HW273885   8.993   2.595   2.739  1.3783 -0.0977  1.7010
23665SOL     OW73886   4.017   0.903   3.519  0.1633  1.0274  0.5205
23665SOL    HW173887   4.078   0.903   3.593 -0.9724 -1.3745  1.5439
23665SOL    HW273888   3.941   0.952   3.551 -0.4719 -0.3134  1.1079
23666SOL     OW73889   8.602   3.991   5.095 -0.3612 -0.7257  0.3468
23666SOL    HW173890   8.535   4.022   5.155 -2.2387 -1.3877 -1.3250
23666SOL    HW273891   8.670   3.954   5.152 -0.6783  1.2622  2.1355
23667SOL     OW73892   5.470   4.173   1.804 -0.1037 -0.4055 -0.5956
23667SOL    HW173893   5.564   4.169   1.784  0.5127 -0.4988  1.8997
23667SOL    HW273894   5.433   4.095   1.764  1.2117 -1.2327 -0.2845
23668SOL     OW73895   0.085   4.031   5.961 -0.3058 -0.2267 -0.0821
23668SOL    HW173896   0.097   3.961   6.025 -1.7174 -0.2743  0.1846
23668SOL    HW273897  -0.010   4.038   5.952 -0.1420  0.2568 -1.6659
23669SOL     OW73898   5.119   2.050   7.815  0.1535  0.1059  0.1091
23669SOL    HW173899   5.147   2.101   7.891  0.4460 -2.2021  1.6639
23669SOL    HW273900   5.081   1.971   7.853  0.3614 -1.1553 -2.1718
23670SOL     OW73901   6.615   8.268   7.442 -0.0251  0.0906  0.5553
23670SOL    HW173902   6.608   8.219   7.524 -0.5033 -1.4119 -0.3320
23670SOL    HW273903   6.540   8.237   7.390  0.8179  0.2758 -0.8131
23671SOL     OW73904   4.878   3.081   8.051  0.0137  0.2428 -0.0907
23671SOL    HW173905   4.811   3.149   8.056 -0.5243 -0.3564  3.5346
23671SOL    HW273906   4.831   3.002   8.024 -0.3250  0.2977  0.3340
23672SOL     OW73907   3.489   1.204   1.970 -0.2456  0.0494 -0.2440
23672SOL    HW173908   3.430   1.270   2.006  1.2804  1.5078 -0.3199
23672SOL    HW273909   3.489   1.220   1.875  1.9316  1.5684 -0.0518
23673SOL     OW73910   7.261   1.237   0.316 -0.0620  0.4779  0.0925
23673SOL    HW173911   7.296   1.211   0.231  0.3488 -0.6881  0.6043
23673SOL    HW273912   7.338   1.246   0.372 -0.4514 -0.4209  0.7831
23674SOL     OW73913   5.060   3.935   0.686 -0.0808  0.0752  0.0858
23674SOL    HW173914   5.138   3.974   0.725 -1.0041  0.8812  1.2094
23674SOL    HW273915   5.018   4.007   0.639 -0.0133 -0.4189 -0.7490
23675SOL     OW73916   6.766   9.176   1.443  0.5618 -0.3802  0.1576
23675SOL    HW173917   6.753   9.114   1.515 -0.6517  0.1734  0.4499
23675SOL    HW273918   6.812   9.126   1.376  0.2203 -1.3991  0.6664
23676SOL     OW73919   4.520   5.880   5.262 -0.6449  0.0689  0.1887
23676SOL    HW173920   4.424   5.875   5.260 -0.7026  0.5846  1.1526
23676SOL    HW273921   4.539   5.970   5.288  0.0702 -0.4294  1.5062
23677SOL     OW73922   6.236   8.577   3.938  0.1799 -0.1235  0.1473
23677SOL    HW173923   6.152   8.533   3.930 -0.5111  1.2167 -0.3878
23677SOL    HW273924   6.301   8.514   3.906 -0.4224 -1.6999  1.8875
23678SOL     OW73925   8.920   8.519   8.321  0.0195  0.2829 -0.0273
23678SOL    HW173926   9.008   8.553   8.305  0.4160 -0.6783  0.0289
23678SOL    HW273927   8.866   8.560   8.254  0.0881  2.4147  1.1213
23679SOL     OW73928   2.146   3.615   6.917  0.0695  0.0741 -0.0815
23679SOL    HW173929   2.186   3.686   6.866  0.4809 -0.0026  0.1324
23679SOL    HW273930   2.072   3.586   6.863  0.1419  0.3949 -0.3582
23680SOL     OW73931   4.024   1.553   1.563 -0.0422  0.1083 -0.2596
23680SOL    HW173932   4.074   1.477   1.592 -1.0179 -0.5044 -0.1371
23680SOL    HW273933   3.942   1.547   1.612 -0.8421  0.2636 -1.5353
23681SOL     OW73934   8.854   1.846   6.933 -0.8565  0.5610 -0.3039
23681SOL    HW173935   8.810   1.923   6.899  0.9204  0.6664 -2.6637
23681SOL    HW273936   8.805   1.772   6.897 -1.6800  0.5809  0.7382
23682SOL     OW73937   3.992   5.075   6.484  0.3365  0.9045 -0.1750
23682SOL    HW173938   3.984   4.992   6.531 -1.6466 -0.2833 -2.4054
23682SOL    HW273939   4.001   5.140   6.554 -0.2154 -0.9485  1.7542
23683SOL     OW73940   7.326   4.865   8.185 -0.0842  0.2643 -0.1097
23683SOL    HW173941   7.339   4.920   8.262  1.8500 -0.1232 -0.1049
23683SOL    HW273942   7.365   4.781   8.208  0.0234 -0.0364 -1.2903
23684SOL     OW73943   8.957   6.117   5.632  0.6878  0.2923  0.0099
23684SOL    HW173944   8.917   6.035   5.604  1.1389 -0.3122  1.0639
23684SOL    HW273945   9.038   6.123   5.581  2.3169 -1.6062  2.1609
23685SOL     OW73946   7.828   3.396   9.020 -0.0507  0.4333 -0.8332
23685SOL    HW173947   7.916   3.378   9.054 -0.9671  2.1864  3.0788
23685SOL    HW273948   7.771   3.338   9.071 -1.3951  1.4621 -1.1100
23686SOL     OW73949   8.344   6.595   2.078  0.0307  0.4636  0.6467
23686SOL    HW173950   8.294   6.533   2.026 -0.6777  1.5365  0.0201
23686SOL    HW273951   8.418   6.544   2.112 -0.0321 -0.4874 -0.5964
23687SOL     OW73952   4.893   1.334   0.512 -0.5648  0.1724  0.2217
23687SOL    HW173953   4.866   1.410   0.460 -1.5028 -0.0984  0.2884
23687SOL    HW273954   4.921   1.371   0.595 -0.2162  0.5090 -0.0413
23688SOL     OW73955   8.110   3.355   8.943 -0.4081  0.3262  0.0160
23688SOL    HW173956   8.031   3.394   8.906 -0.1059 -0.4098 -1.4392
23688SOL    HW273957   8.170   3.430   8.956 -0.6060  0.6199 -0.7544
23689SOL     OW73958   0.509   8.046   8.693  0.3156  0.0223 -0.6197
23689SOL    HW173959   0.458   8.005   8.623  1.0049 -1.4614 -0.3030
23689SOL    HW273960   0.448   8.109   8.733 -0.6070 -0.2745 -1.5048
23690SOL     OW73961   3.370   6.340   3.047  0.1411 -0.3303 -0.3801
23690SOL    HW173962   3.318   6.311   3.122  0.5213  0.6845  0.2912
23690SOL    HW273963   3.458   6.355   3.082 -0.2293  2.5314 -0.4477
23691SOL     OW73964   6.917   7.453   2.710  0.2343  0.2565  0.1410
23691SOL    HW173965   6.874   7.532   2.741  1.4357  1.3466 -0.8617
23691SOL    HW273966   7.006   7.458   2.746  1.4480  1.2123 -2.7007
23692SOL     OW73967   8.393   6.709   5.485 -0.3822 -0.1041 -0.5865
23692SOL    HW173968   8.433   6.758   5.557 -0.7514  0.1668 -0.5624
23692SOL    HW273969   8.459   6.645   5.460 -0.1443 -0.0192 -0.1878
23693SOL     OW73970   5.698   6.725   4.209 -0.1917  0.1549 -0.4897
23693SOL    HW173971   5.788   6.694   4.223 -0.7475 -0.2605  2.8572
23693SOL    HW273972   5.653   6.649   4.172  0.2101 -0.5419  0.4174
23694SOL     OW73973   8.187   8.744   2.189 -0.0919  0.0332 -0.1272
23694SOL    HW173974   8.152   8.704   2.109 -2.1174 -0.5776  1.0072
23694SOL    HW273975   8.137   8.704   2.260 -1.0062  3.2098  1.2182
23695SOL     OW73976   8.747   1.233   0.296  0.0700  0.1915 -0.5436
23695SOL    HW173977   8.721   1.171   0.364  1.3296 -0.8394 -0.9587
23695SOL    HW273978   8.737   1.184   0.214  1.7243  0.2731 -0.8239
23696SOL     OW73979   2.752   1.257   5.823  0.0125 -0.5982 -0.1051
23696SOL    HW173980   2.758   1.180   5.767 -1.0691 -0.8116  0.0361
23696SOL    HW273981   2.657   1.270   5.835  0.2077 -0.2455  1.2284
23697SOL     OW73982   5.834   9.008   1.567 -0.7412  0.0709 -0.8037
23697SOL    HW173983   5.920   9.019   1.607 -0.5880 -3.8475  0.2965
23697SOL    HW273984   5.839   9.058   1.486  1.7625  1.7297  0.2503
23698SOL     OW73985   7.770   4.793   3.794  0.4302 -0.5630  0.3723
23698SOL    HW173986   7.696   4.852   3.807  1.1322  0.7422 -1.2128
23698SOL    HW273987   7.832   4.817   3.864 -0.9535 -2.3478  2.3489
23699SOL     OW73988   7.924   2.384   1.092  0.3013  0.3237  0.1542
23699SOL    HW173989   8.000   2.327   1.081  0.6673  0.6150  1.0543
23699SOL    HW273990   7.946   2.439   1.167  0.3483  2.2746 -1.2068
23700SOL     OW73991   5.734   3.948   1.807 -0.1082  0.3280 -0.0801
23700SOL    HW173992   5.808   3.897   1.776  0.0658  0.7639 -0.4054
23700SOL    HW273993   5.660   3.919   1.753  0.0631  0.6486 -0.4975
23701SOL     OW73994   1.966   4.918   8.682  0.6348  0.3182 -0.2209
23701SOL    HW173995   2.016   4.941   8.761  0.8185  0.6608 -0.4363
23701SOL    HW273996   1.878   4.951   8.699  0.7158  0.5402 -0.2252
23702SOL     OW73997   4.753   0.817   3.384  0.2446  0.6479 -0.0037
23702SOL    HW173998   4.708   0.826   3.468 -1.7704 -2.3994 -0.6238
23702SOL    HW273999   4.691   0.853   3.320  0.8341  0.9340 -0.4236
23703SOL     OW74000   2.170   7.402   3.774  0.6671  0.4114  0.0990
23703SOL    HW174001   2.264   7.408   3.790  1.1982 -0.4639 -2.3356
23703SOL    HW274002   2.145   7.488   3.740  1.4682 -0.4497 -2.9701
23704SOL     OW74003   6.952   7.610   8.232 -0.0714 -0.3477  0.0512
23704SOL    HW174004   7.007   7.531   8.232  0.0111 -0.2949 -0.5838
23704SOL    HW274005   7.007   7.678   8.192 -1.0117 -0.6093 -1.8006
23705SOL     OW74006   7.385   3.688   8.180  0.3983  0.3458  0.2117
23705SOL    HW174007   7.386   3.602   8.224  0.7058  0.3156  0.1473
23705SOL    HW274008   7.476   3.706   8.161  0.3820  0.8957  0.6159
23706SOL     OW74009   5.525   6.379   8.356  0.3449  0.3003 -0.3809
23706SOL    HW174010   5.609   6.409   8.322  1.0134 -1.1296 -0.1067
23706SOL    HW274011   5.544   6.353   8.447 -0.4962  0.3721 -0.1784
23707SOL     OW74012   8.881   3.693   3.963  0.0125  0.0602  0.3848
23707SOL    HW174013   8.837   3.777   3.973  1.2801  0.8448 -0.2874
23707SOL    HW274014   8.956   3.712   3.907 -0.5053 -1.8346 -1.0387
23708SOL     OW74015   5.019   0.397   2.932 -0.2640  0.0233 -0.7317
23708SOL    HW174016   4.953   0.330   2.950  0.2826 -0.2666  0.2740
23708SOL    HW274017   4.974   0.480   2.948 -1.1122 -0.0482 -2.5271
23709SOL     OW74018   3.005   3.647   8.805  0.0968 -0.6834  0.3195
23709SOL    HW174019   3.095   3.662   8.832  0.2466 -1.1787  0.1082
23709SOL    HW274020   3.008   3.565   8.756 -0.4229 -0.5685  0.0862
23710SOL     OW74021   9.005   8.032   6.705  0.4869 -0.3027  0.1157
23710SOL    HW174022   8.919   8.074   6.701 -0.2488 -1.7905 -0.4066
23710SOL    HW274023   9.008   7.990   6.791  1.7849  1.8542  1.2288
23711SOL     OW74024   3.032   3.506   1.407  0.4566 -0.5315 -0.2270
23711SOL    HW174025   3.032   3.482   1.314 -0.6724 -0.0499 -0.3733
23711SOL    HW274026   3.059   3.426   1.452  0.2897 -0.9977 -0.9271
23712SOL     OW74027   3.964   7.623   5.050  0.1094  0.1055 -0.4793
23712SOL    HW174028   3.961   7.531   5.075  0.8062  0.3287  0.4457
23712SOL    HW274029   3.874   7.642   5.022 -0.4315 -0.4444  0.8064
23713SOL     OW74030   1.185   8.955   6.442  0.4435  0.7981 -0.1282
23713SOL    HW174031   1.158   8.864   6.428  1.1309  0.1970  2.0575
23713SOL    HW274032   1.255   8.969   6.378  0.4064 -0.2438 -0.4141
23714SOL     OW74033   8.496   0.474   0.828 -0.6029 -0.1355  0.4874
23714SOL    HW174034   8.488   0.402   0.765  0.3419 -0.7583  1.0594
23714SOL    HW274035   8.497   0.431   0.914  0.3977  0.4992  0.8161
23715SOL     OW74036   5.509   6.547   3.362 -0.2323 -0.2025  0.1865
23715SOL    HW174037   5.586   6.551   3.419  0.1147 -0.7649 -0.2313
23715SOL    HW274038   5.494   6.637   3.333  0.3093 -0.1060  0.2132
23716SOL     OW74039   0.143   4.962   5.284 -0.1091 -0.0481  0.2157
23716SOL    HW174040   0.211   4.991   5.345  0.5577 -1.4605  0.1987
23716SOL    HW274041   0.188   4.957   5.199 -0.9508  1.6092 -0.3747
23717SOL     OW74042   4.635   5.884   0.825 -0.2872 -0.1645  0.3378
23717SOL    HW174043   4.683   5.925   0.896  0.4779 -0.5262  0.0437
23717SOL    HW274044   4.595   5.956   0.777 -0.1130  0.1334  0.6439
23718SOL     OW74045   3.110   1.181   0.377  0.1187  0.2548 -0.3599
23718SOL    HW174046   3.026   1.216   0.406  0.2117  0.4969 -0.3800
23718SOL    HW274047   3.088   1.126   0.301 -0.0246  0.2973 -0.3488
23719SOL     OW74048   1.937   6.703   0.489 -0.9487  0.2924 -0.1475
23719SOL    HW174049   2.006   6.645   0.523 -0.4818 -0.3884 -2.1462
23719SOL    HW274050   1.899   6.655   0.416 -2.0908  1.5893 -0.4381
23720SOL     OW74051   8.811   5.301   3.503 -0.0593 -0.3413 -0.3986
23720SOL    HW174052   8.764   5.334   3.580  0.9960  1.4842 -0.4640
23720SOL    HW274053   8.903   5.322   3.521  0.2894 -0.5791 -1.8178
23721SOL     OW74054   5.902   7.247   8.145  0.5245 -0.1719  0.0794
23721SOL    HW174055   5.838   7.318   8.147  0.0947 -0.4130 -2.2492
23721SOL    HW274056   5.850   7.168   8.161  0.4504 -0.2387 -0.4657
23722SOL     OW74057   3.186   5.711   5.650 -0.1115  0.3798  0.2845
23722SOL    HW174058   3.097   5.676   5.641  0.0862 -0.0633  0.0057
23722SOL    HW274059   3.241   5.649   5.602  0.8982 -1.5421  3.6748
23723SOL     OW74060   2.250   6.359   1.225  0.1032  0.0777 -0.3922
23723SOL    HW174061   2.345   6.353   1.231  0.1985  1.8425  0.7373
23723SOL    HW274062   2.217   6.306   1.297  0.3460  1.0439  0.4640
23724SOL     OW74063   3.482   3.276   5.592 -0.2816 -0.1140 -0.3156
23724SOL    HW174064   3.562   3.223   5.590  0.8486  1.4951  0.5110
23724SOL    HW274065   3.450   3.268   5.681  0.4922  1.3643  0.1361
23725SOL     OW74066   7.059   5.158   5.237  0.0501 -0.7510  0.1849
23725SOL    HW174067   7.048   5.252   5.226  0.2196 -0.8577 -1.0635
23725SOL    HW274068   6.982   5.131   5.287 -1.0570 -0.2237 -1.1591
23726SOL     OW74069   7.324   2.458   8.446  0.7094  0.2269 -0.3146
23726SOL    HW174070   7.247   2.457   8.389 -1.7314 -0.1882  2.7340
23726SOL    HW274071   7.339   2.551   8.464 -2.3112  0.3089  2.8312
23727SOL     OW74072   1.246   2.784   1.104  0.0716  0.0640 -0.1464
23727SOL    HW174073   1.213   2.765   1.017  0.5718 -0.9165 -0.1332
23727SOL    HW274074   1.202   2.865   1.129  0.1857  0.5541 -1.4457
23728SOL     OW74075   7.150   0.712   2.515 -0.1002 -0.3136  0.0008
23728SOL    HW174076   7.215   0.744   2.453 -1.9197 -0.5197 -2.1341
23728SOL    HW274077   7.165   0.618   2.520  0.0416 -0.2964 -0.1056
23729SOL     OW74078   4.810   5.217   6.782  0.1821  0.1048  0.2911
23729SOL    HW174079   4.892   5.173   6.803  0.6445  0.5069 -0.6208
23729SOL    HW274080   4.772   5.238   6.867  0.3742 -1.2508  0.7388
23730SOL     OW74081   4.510   1.640   8.097 -0.2049  0.2661  0.0625
23730SOL    HW174082   4.457   1.576   8.144  0.7378  0.5025  1.4772
23730SOL    HW274083   4.454   1.718   8.092  0.3848  0.9178  2.5967
23731SOL     OW74084   2.681   8.297   3.688  0.1231 -0.9287  0.4125
23731SOL    HW174085   2.595   8.296   3.647  0.5133  1.5161 -0.6065
23731SOL    HW274086   2.665   8.329   3.777 -0.0123 -0.1207  0.1078
23732SOL     OW74087   6.451   4.975   1.592 -1.4952  0.0583  0.3629
23732SOL    HW174088   6.435   4.881   1.597 -1.3033  0.0111  0.0892
23732SOL    HW274089   6.482   4.990   1.503  0.8709  0.0047  1.1039
23733SOL     OW74090   5.739   1.340   4.346 -0.3020  0.0666  0.2237
23733SOL    HW174091   5.760   1.427   4.312  1.1318 -0.0962  0.6251
23733SOL    HW274092   5.695   1.357   4.429  0.6996  0.4209  0.6946
23734SOL     OW74093   9.123   1.084   8.635 -0.1711  0.1026 -0.4144
23734SOL    HW174094   9.189   1.079   8.566  0.2738  0.7374 -0.0367
23734SOL    HW274095   9.061   1.149   8.605 -0.6589 -0.5171 -0.7839
23735SOL     OW74096   7.830   3.555   0.104 -0.0291 -0.0037 -0.4859
23735SOL    HW174097   7.804   3.621   0.168  1.1960 -0.1929  0.2335
23735SOL    HW274098   7.852   3.478   0.156  0.6038 -0.2927 -1.1640
23736SOL     OW74099   4.407   4.142   9.053 -0.4787 -0.0394  0.3718
23736SOL    HW174100   4.374   4.054   9.033 -0.5377  0.0298  0.1620
23736SOL    HW274101   4.497   4.128   9.081 -0.9736 -0.3402  1.9046
23737SOL     OW74102   9.107   2.758   2.376 -0.4844  0.4269  0.5356
23737SOL    HW174103   9.181   2.697   2.377 -0.9568 -0.1709 -0.1306
23737SOL    HW274104   9.030   2.703   2.362 -1.0699  1.0427  1.2148
23738SOL     OW74105   6.391   6.400   2.822  1.1155  0.5697  0.3431
23738SOL    HW174106   6.298   6.393   2.804  1.6276 -1.1182 -2.1653
23738SOL    HW274107   6.423   6.467   2.762  2.0719 -1.6900 -1.8514
23739SOL     OW74108   1.846   6.882   7.767 -0.0294 -0.2847 -0.1416
23739SOL    HW174109   1.797   6.956   7.732 -0.8999 -0.5726  0.4147
23739SOL    HW274110   1.868   6.908   7.857  0.8868 -0.1448 -0.3992
23740SOL     OW74111   2.890   8.839   4.360 -0.2374 -0.4058  0.0309
23740SOL    HW174112   2.927   8.798   4.439  0.0463 -0.1285  0.0454
23740SOL    HW274113   2.961   8.833   4.295 -0.5501 -0.8441 -0.2783
23741SOL     OW74114   2.212   5.310   1.485 -0.1630 -0.6970  0.6767
23741SOL    HW174115   2.170   5.231   1.518  1.4911 -1.8208  0.2194
23741SOL    HW274116   2.238   5.357   1.564  1.0535 -1.8690  1.0161
23742SOL     OW74117   2.667   3.627   3.824  0.1539  0.0342  0.5416
23742SOL    HW174118   2.760   3.626   3.846  0.5272  1.5911 -0.7627
23742SOL    HW274119   2.655   3.551   3.766  0.8274  0.3356 -0.0051
23743SOL     OW74120   3.931   1.092   0.476 -0.0601 -0.3245  0.3696
23743SOL    HW174121   3.862   1.067   0.537 -0.4562 -0.1050  0.0159
23743SOL    HW274122   4.005   1.116   0.532  0.4676 -2.5650  0.7246
23744SOL     OW74123   6.239   9.214   4.648 -0.5060 -0.1103 -0.8252
23744SOL    HW174124   6.179   9.280   4.683  0.4224  0.2221  0.2252
23744SOL    HW274125   6.270   9.167   4.725  1.3049  0.3682 -1.2095
23745SOL     OW74126   5.749   6.539   3.506  0.1054  0.2384 -0.1365
23745SOL    HW174127   5.788   6.506   3.587 -2.0457 -1.5847  0.2373
23745SOL    HW274128   5.824   6.557   3.450  1.5892 -0.1045  1.6290
23746SOL     OW74129   2.183   8.381   5.077 -0.2516 -0.5503  0.7581
23746SOL    HW174130   2.166   8.293   5.044  1.1594 -1.1497  1.5231
23746SOL    HW274131   2.212   8.367   5.168  1.2951  0.5563  0.4790
23747SOL     OW74132   7.704   0.841   5.300  0.4213 -0.0651  0.2123
23747SOL    HW174133   7.785   0.880   5.333 -0.5647  0.8373  1.6720
23747SOL    HW274134   7.683   0.893   5.222  1.7065 -0.9249 -0.7593
23748SOL     OW74135   0.457   8.497   7.247 -0.0955  0.4590 -0.1755
23748SOL    HW174136   0.371   8.525   7.216 -0.2766  0.1957  0.0796
23748SOL    HW274137   0.498   8.577   7.278 -0.5960  0.4505  0.5254
23749SOL     OW74138   8.197   8.106   7.112  0.1082 -0.0588  0.0427
23749SOL    HW174139   8.179   8.158   7.190  0.1771  0.8699 -0.5416
23749SOL    HW274140   8.125   8.124   7.052 -0.3678 -1.3932  0.1825
23750SOL     OW74141   1.380   3.020   8.099 -0.6058 -0.4662  0.4074
23750SOL    HW174142   1.312   3.083   8.121 -1.4319 -1.5195  1.0058
23750SOL    HW274143   1.345   2.936   8.130  0.3860 -1.2415 -0.4897
23751SOL     OW74144   2.523   7.316   6.747  0.1289 -0.0178  0.1289
23751SOL    HW174145   2.488   7.395   6.789 -0.7069 -0.0329 -0.5076
23751SOL    HW274146   2.461   7.247   6.772  0.3190 -0.2729 -0.1077
23752SOL     OW74147   1.973   6.790   3.865  0.8119 -0.3004 -0.2663
23752SOL    HW174148   1.951   6.877   3.899 -0.3036  0.5239 -2.8389
23752SOL    HW274149   1.983   6.803   3.770  1.8132 -2.7660 -0.5730
23753SOL     OW74150   7.562   5.744   4.769  0.1332  0.1314  0.5961
23753SOL    HW174151   7.527   5.657   4.752  1.9903 -0.5850  0.1814
23753SOL    HW274152   7.528   5.767   4.856  1.0025 -1.7933  1.5115
23754SOL     OW74153   9.016   2.618   0.691  0.5400 -0.1834  0.3201
23754SOL    HW174154   9.089   2.568   0.657 -0.0888 -1.3975  0.6916
23754SOL    HW274155   8.939   2.564   0.674 -0.1324  0.5202  0.9929
23755SOL     OW74156   2.080   8.333   3.771 -0.1617  0.1407 -0.0842
23755SOL    HW174157   2.136   8.283   3.712 -1.0103 -0.5794 -0.3052
23755SOL    HW274158   2.007   8.274   3.792 -1.5187  1.4734 -0.8220
23756SOL     OW74159   1.842   5.945   7.737 -0.3587 -0.0139  0.1609
23756SOL    HW174160   1.861   5.980   7.650 -0.3587 -0.4926 -0.0330
23756SOL    HW274161   1.784   5.871   7.721 -1.3437  0.6267  0.6582
23757SOL     OW74162   8.239   1.421   6.478 -0.2864  0.0643 -0.5020
23757SOL    HW174163   8.260   1.353   6.543 -1.0186  0.1151 -0.1940
23757SOL    HW274164   8.322   1.440   6.436 -0.0216 -0.8593 -0.4309
23758SOL     OW74165   7.091   4.324   6.000 -0.4817  0.7635 -0.0643
23758SOL    HW174166   7.017   4.284   6.046 -0.7096 -0.3447 -1.3159
23758SOL    HW274167   7.125   4.254   5.945  1.7283  1.1521  0.7102
23759SOL     OW74168   5.695   1.401   5.173  0.1991 -0.3826 -0.6612
23759SOL    HW174169   5.703   1.331   5.109  0.0546 -1.7525  0.7533
23759SOL    HW274170   5.706   1.358   5.258  0.1277  1.3133  0.2657
23760SOL     OW74171   7.497   2.509   1.030  0.4575  0.0285  0.0985
23760SOL    HW174172   7.415   2.531   0.986  0.6940 -0.4610 -0.6001
23760SOL    HW274173   7.529   2.431   0.984  0.8647 -0.3180  0.9349
23761SOL     OW74174   7.699   1.500   5.510  0.0622  0.4370 -0.2754
23761SOL    HW174175   7.755   1.434   5.550 -0.7936 -0.8959 -1.1909
23761SOL    HW274176   7.628   1.514   5.573 -0.3478 -0.3618 -0.5486
23762SOL     OW74177   8.931   5.523   5.848 -0.1058  0.3075 -0.0630
23762SOL    HW174178   9.026   5.515   5.846 -0.0082  0.8380  1.5047
23762SOL    HW274179   8.915   5.613   5.818 -0.0702  0.4763  0.4294
23763SOL     OW74180   8.179   8.596   2.943 -0.4236 -0.6949  0.4793
23763SOL    HW174181   8.272   8.619   2.944 -0.5275 -0.2627  0.5629
23763SOL    HW274182   8.172   8.521   3.003 -0.2473 -0.2599  1.0524
23764SOL     OW74183   7.304   8.736   4.011 -0.3997 -0.0090 -0.1205
23764SOL    HW174184   7.328   8.812   4.064 -0.7147  1.0138 -1.3728
23764SOL    HW274185   7.235   8.692   4.060  0.6092 -0.1964  1.1930
23765SOL     OW74186   7.517   6.904   9.104 -0.2259 -0.6381  0.2340
23765SOL    HW174187   7.464   6.980   9.082 -0.1484  0.1419  2.4963
23765SOL    HW274188   7.490   6.881   9.192  2.0592 -1.1943  0.8532
23766SOL     OW74189   9.188   5.245   5.562 -0.1970 -0.0828  0.1734
23766SOL    HW174190   9.254   5.203   5.616 -1.5239 -1.6879  0.6153
23766SOL    HW274191   9.213   5.222   5.472 -0.5281 -1.2898  0.3739
23767SOL     OW74192   0.859   6.288   4.548  0.1818 -0.5896 -0.2431
23767SOL    HW174193   0.914   6.254   4.478  2.3044  3.0775 -0.6059
23767SOL    HW274194   0.920   6.308   4.619 -0.9116  1.7852  0.1151
23768SOL     OW74195   3.418   8.409   8.135  0.5276 -0.0657 -0.3429
23768SOL    HW174196   3.476   8.482   8.116  0.2031  1.1063  2.5612
23768SOL    HW274197   3.472   8.331   8.122  2.3416  0.9181  0.8167
23769SOL     OW74198   0.538   0.982   1.613 -0.0600 -0.2728 -0.2152
23769SOL    HW174199   0.589   1.050   1.658  0.2041 -2.5346  3.4019
23769SOL    HW274200   0.604   0.922   1.578 -0.2949  0.3306 -1.7465
23770SOL     OW74201   4.506   9.097   0.380 -0.2371  0.4306 -0.4581
23770SOL    HW174202   4.597   9.066   0.384  0.2585  1.9211  0.4676
23770SOL    HW274203   4.498   9.158   0.452 -1.8850  0.6416 -0.7769
23771SOL     OW74204   5.282   0.271   5.297  0.3163 -0.1512  0.1402
23771SOL    HW174205   5.359   0.316   5.332  1.0290  0.4761 -2.0965
23771SOL    HW274206   5.283   0.289   5.204 -2.0845 -0.8678 -0.1050
23772SOL     OW74207   7.320   3.222   8.358  0.5044  0.0988  0.4544
23772SOL    HW174208   7.311   3.226   8.454 -1.4976  0.3492  0.3070
23772SOL    HW274209   7.230   3.219   8.326  1.1387 -1.1680 -1.4021
23773SOL     OW74210   3.051   5.992   2.908 -0.2066 -0.2368 -0.3535
23773SOL    HW174211   2.969   5.991   2.958 -0.7970  0.3362 -1.2852
23773SOL    HW274212   3.118   6.019   2.971 -0.5767 -1.5164  0.6274
23774SOL     OW74213   5.701   4.496   5.042  0.1032 -0.0768 -0.2555
23774SOL    HW174214   5.618   4.489   5.089 -1.3573 -0.5503 -2.7295
23774SOL    HW274215   5.711   4.590   5.025  0.9018  0.1619  1.3113
23775SOL     OW74216   7.556   4.833   2.818 -0.1906 -0.2481  0.2549
23775SOL    HW174217   7.538   4.740   2.831  0.5804 -0.6926 -1.6015
23775SOL    HW274218   7.485   4.864   2.762 -0.4896  0.3239  0.9302
23776SOL     OW74219   0.377   5.239   1.287  0.3885 -0.2239 -0.5730
23776SOL    HW174220   0.321   5.280   1.353 -1.7800 -0.4979 -2.1454
23776SOL    HW274221   0.345   5.150   1.280  3.1065 -1.4228  0.6483
23777SOL     OW74222   1.349   9.028   4.345  0.6111 -0.2959 -0.2666
23777SOL    HW174223   1.401   9.100   4.310  0.3687 -0.1945 -0.4184
23777SOL    HW274224   1.258   9.053   4.329  0.5408 -1.0972 -1.2368
23778SOL     OW74225   3.118   8.780   4.767 -0.1905 -0.2721 -0.2130
23778SOL    HW174226   3.109   8.760   4.674  0.3533  0.1527 -0.3614
23778SOL    HW274227   3.211   8.795   4.780 -0.1276 -1.2059  0.5887
23779SOL     OW74228   4.999   6.719   4.311  0.8247 -0.2161  0.0121
23779SOL    HW174229   5.002   6.687   4.401  0.6389 -0.6969 -0.1478
23779SOL    HW274230   5.048   6.655   4.260  1.0169  0.1078 -0.2155
23780SOL     OW74231   7.503   3.023   8.331 -0.3774  0.0330 -0.0837
23780SOL    HW174232   7.588   3.064   8.348  0.2456 -1.5395  0.7195
23780SOL    HW274233   7.440   3.081   8.375  0.5653 -0.3046  1.8211
23781SOL     OW74234   8.679   2.148   0.217 -0.9213 -0.1484  0.0643
23781SOL    HW174235   8.586   2.148   0.242 -0.8458 -1.2242  0.3999
23781SOL    HW274236   8.706   2.239   0.227 -2.0976  0.3118 -0.6493
23782SOL     OW74237   3.706   8.367   3.410  0.2853 -0.5941  0.0151
23782SOL    HW174238   3.676   8.339   3.324 -0.0805 -0.6345  0.1534
23782SOL    HW274239   3.660   8.309   3.471  0.0696 -0.1630  0.2683
23783SOL     OW74240   9.061   8.681   4.972 -0.1527 -0.7182 -0.6182
23783SOL    HW174241   8.975   8.707   4.938 -0.6785 -2.6840 -0.9306
23783SOL    HW274242   9.049   8.590   5.001  1.1167 -0.1568  1.9429
23784SOL     OW74243   8.020   5.624   2.214 -0.6403  0.3433 -1.0868
23784SOL    HW174244   8.064   5.707   2.197  1.1745 -0.0260  1.2117
23784SOL    HW274245   8.064   5.561   2.157 -0.8559  0.6603 -1.6051
23785SOL     OW74246   1.483   8.084   1.451 -0.1736  0.1604 -0.7578
23785SOL    HW174247   1.486   7.990   1.436  2.1254  0.5352 -3.3713
23785SOL    HW274248   1.391   8.108   1.436 -0.9454 -1.6922  0.6805
23786SOL     OW74249   5.070   7.242   2.742 -0.3771 -0.3510 -0.4710
23786SOL    HW174250   4.991   7.203   2.778 -0.8115  0.2523 -0.7649
23786SOL    HW274251   5.134   7.237   2.813 -0.9309 -0.0748  0.0464
23787SOL     OW74252   2.952   0.343   2.171 -0.1736 -0.3407 -0.1134
23787SOL    HW174253   2.950   0.294   2.253 -1.0366  0.3350  0.2800
23787SOL    HW274254   2.873   0.396   2.172  0.2572  0.3518 -0.9696
23788SOL     OW74255   8.604   8.595   3.942  0.0871 -0.1912 -0.0616
23788SOL    HW174256   8.543   8.643   3.997  0.1088  1.2838 -1.2556
23788SOL    HW274257   8.550   8.532   3.894 -0.0871 -0.7078  0.7966
23789SOL     OW74258   6.476   4.447   2.524  0.2056 -0.5380 -0.0341
23789SOL    HW174259   6.471   4.388   2.599  1.5291 -1.9843 -1.0047
23789SOL    HW274260   6.568   4.441   2.495 -0.1057  0.4938 -1.3505
23790SOL     OW74261   1.436   5.643   2.136  0.1056 -0.0725  0.0571
23790SOL    HW174262   1.377   5.620   2.065 -0.4340 -1.6007  0.9507
23790SOL    HW274263   1.503   5.575   2.134  0.4909  0.2865  0.5562
23791SOL     OW74264   7.346   0.343   3.184 -0.1909  0.5343 -0.3172
23791SOL    HW174265   7.339   0.296   3.267  3.4158  0.2076 -0.0448
23791SOL    HW274266   7.364   0.275   3.119 -0.9416  0.9911 -1.0181
23792SOL     OW74267   5.617   3.429   4.251  0.7847  0.0113  0.1784
23792SOL    HW174268   5.551   3.375   4.295  1.0130  0.3949  1.0251
23792SOL    HW274269   5.637   3.498   4.314 -1.1761  2.5061 -1.7608
23793SOL     OW74270   7.876   8.427   0.349  0.2033  0.3528  0.2778
23793SOL    HW174271   7.883   8.505   0.405 -0.9157 -0.0195  0.9745
23793SOL    HW274272   7.907   8.355   0.403  0.7181  0.2314 -0.1754
23794SOL     OW74273   7.453   0.139   0.800 -0.0748 -0.4621  0.0117
23794SOL    HW174274   7.388   0.181   0.856  0.1730  2.1578 -1.4874
23794SOL    HW274275   7.405   0.070   0.754 -1.5700  0.7485 -0.3184
23795SOL     OW74276   6.426   1.892   3.049 -0.4394 -0.5263 -0.0994
23795SOL    HW174277   6.435   1.885   2.954 -2.2062 -0.3894 -0.3250
23795SOL    HW274278   6.334   1.871   3.066  0.1666 -2.0613  1.7543
23796SOL     OW74279   8.150   4.786   0.981 -0.1349  0.5770  0.3732
23796SOL    HW174280   8.103   4.854   1.030 -0.2446  1.4441 -0.8870
23796SOL    HW274281   8.097   4.707   0.993 -0.3340  0.8447  1.3572
23797SOL     OW74282   8.923   6.899   1.752 -0.0295  0.0452 -0.2741
23797SOL    HW174283   8.843   6.864   1.792  0.1177  1.6468  1.5565
23797SOL    HW274284   8.901   6.989   1.730  1.0827  0.3261 -0.3021
23798SOL     OW74285   6.824   4.506   5.390  0.6851 -0.2933  0.1152
23798SOL    HW174286   6.813   4.600   5.404  0.0804 -0.3087 -0.2219
23798SOL    HW274287   6.913   4.488   5.420  0.8662  0.4151  0.0362
23799SOL     OW74288   4.247   1.087   4.552  0.0302 -0.0410  0.0269
23799SOL    HW174289   4.291   1.002   4.557 -1.1590 -0.7197 -0.6542
23799SOL    HW274290   4.154   1.066   4.556 -0.3301  1.1170 -1.3852
23800SOL     OW74291   4.711   4.143   5.026 -0.6575 -0.3232  0.3938
23800SOL    HW174292   4.672   4.226   4.998  0.5745 -0.7336 -3.0309
23800SOL    HW274293   4.752   4.163   5.110  0.5972  2.9285 -0.8251
23801SOL     OW74294   0.677   4.800   7.784  0.0810  0.1957  0.4891
23801SOL    HW174295   0.611   4.745   7.740  1.4039  0.3151 -1.7936
23801SOL    HW274296   0.645   4.889   7.773  0.7293  0.2812 -0.9203
23802SOL     OW74297   0.314   0.002   5.495 -0.4969 -0.3595  0.0342
23802SOL    HW174298   0.381  -0.046   5.544 -1.4956 -0.3595  1.4721
23802SOL    HW274299   0.235  -0.005   5.549 -1.0510  1.6532 -0.4270
23803SOL     OW74300   8.402   8.846   1.417  0.5531 -0.1027 -0.6399
23803SOL    HW174301   8.437   8.798   1.342 -0.6692 -0.9882 -0.6744
23803SOL    HW274302   8.331   8.898   1.380  0.6524  0.2903 -0.2752
23804SOL     OW74303   9.219   0.675   1.552 -0.3156 -0.1179  0.0010
23804SOL    HW174304   9.210   0.592   1.505 -2.7562  1.4608 -2.6039
23804SOL    HW274305   9.299   0.714   1.517  1.6064 -1.7496  2.1860
23805SOL     OW74306   3.388   3.514   8.209  0.5662  0.3097  0.0086
23805SOL    HW174307   3.388   3.569   8.287  2.3310  0.0835  0.1991
23805SOL    HW274308   3.386   3.424   8.243  1.4855  0.2067 -0.1763
23806SOL     OW74309   8.342   5.217   4.975 -0.4670 -0.3048  0.4535
23806SOL    HW174310   8.337   5.308   5.002  1.2210  0.4400 -1.4537
23806SOL    HW274311   8.412   5.180   5.028  1.6826  0.6950 -1.5313
23807SOL     OW74312   6.406   6.122   3.997  0.1976  0.0171  0.7319
23807SOL    HW174313   6.472   6.109   4.065 -2.0332 -0.3485  3.0044
23807SOL    HW274314   6.449   6.097   3.916  2.4098 -1.5278  2.2655
23808SOL     OW74315   0.488   1.905   3.949 -0.5123 -0.2207  0.5555
23808SOL    HW174316   0.493   1.828   4.006 -1.6436 -0.2024  0.7035
23808SOL    HW274317   0.462   1.976   4.008  1.6812  0.5789  0.6623
23809SOL     OW74318   7.664   6.539   3.306 -0.1416  0.3537 -0.2392
23809SOL    HW174319   7.574   6.573   3.315 -0.3571 -0.0998 -0.6364
23809SOL    HW274320   7.683   6.547   3.212 -0.9439 -2.4102 -0.7400
23810SOL     OW74321   3.577   2.632   7.266  0.3607  0.3500 -0.0010
23810SOL    HW174322   3.660   2.600   7.230 -0.5594 -0.9323 -1.1104
23810SOL    HW274323   3.530   2.552   7.290 -0.8571  1.0168 -0.1046
23811SOL     OW74324   2.785   6.180   0.222  0.4476  0.2060  0.3639
23811SOL    HW174325   2.807   6.175   0.129  1.8256  0.0043  0.6863
23811SOL    HW274326   2.730   6.258   0.229 -0.2862 -0.1873 -0.7287
23812SOL     OW74327   3.569   1.543   5.398  0.4596 -0.1225  0.6304
23812SOL    HW174328   3.510   1.498   5.338  0.1959 -0.2797  1.0090
23812SOL    HW274329   3.570   1.489   5.477  1.5654 -0.4405  0.4205
23813SOL     OW74330   9.101   6.585   6.096  0.0791  0.3203  0.2190
23813SOL    HW174331   9.059   6.662   6.135 -0.8930 -0.4510  0.7248
23813SOL    HW274332   9.030   6.540   6.051  0.6477 -0.2792 -0.0894
23814SOL     OW74333   8.950   3.812   1.847  0.1836 -0.4611 -0.1514
23814SOL    HW174334   9.015   3.742   1.852  0.5293 -0.1200  0.2068
23814SOL    HW274335   8.915   3.818   1.937  0.1827 -0.1488 -0.1726
23815SOL     OW74336   3.420   1.395   5.228 -0.2304 -0.1448  0.1512
23815SOL    HW174337   3.366   1.317   5.242 -1.5862  0.8678  0.7824
23815SOL    HW274338   3.412   1.414   5.135 -0.8992 -0.0532  0.2244
23816SOL     OW74339   2.906   6.783   1.805  0.0708  0.4776  0.2268
23816SOL    HW174340   2.889   6.776   1.711  0.1375 -1.6565  0.3363
23816SOL    HW274341   2.977   6.721   1.821 -1.2622 -0.6745  1.9965
23817SOL     OW74342   2.456   8.926   2.299  0.1869  0.2569 -0.1754
23817SOL    HW174343   2.376   8.977   2.282 -0.2761 -0.4948 -0.2849
23817SOL    HW274344   2.439   8.884   2.383  1.0757  1.2482  0.5237
23818SOL     OW74345   8.939   4.142   5.410  0.4449  0.1772  0.2248
23818SOL    HW174346   8.891   4.077   5.359  0.9746 -0.3709  0.4104
23818SOL    HW274347   8.871   4.202   5.442 -0.2246 -0.9598  1.0361
23819SOL     OW74348   8.952   3.224   8.025  0.0841  0.1156 -0.0635
23819SOL    HW174349   8.911   3.242   8.110 -2.3796 -1.5270 -0.8082
23819SOL    HW274350   8.971   3.131   8.027 -1.3664 -0.2708 -1.8007
23820SOL     OW74351   0.772   0.951   2.328 -0.1048  0.3673  0.2434
23820SOL    HW174352   0.780   0.944   2.233  1.0548 -1.7405  0.4306
23820SOL    HW274353   0.862   0.941   2.361 -0.4063  1.6288  1.5558
23821SOL     OW74354   1.528   4.267   2.892  0.0277  0.0966  0.1006
23821SOL    HW174355   1.600   4.278   2.830 -0.2275 -0.5626 -0.3278
23821SOL    HW274356   1.519   4.353   2.933  1.4025  0.0514  0.5510
23822SOL     OW74357   3.344   3.187   7.070 -0.6275 -0.6776  0.0038
23822SOL    HW174358   3.374   3.247   7.138  1.0575 -1.6151  0.1599
23822SOL    HW274359   3.249   3.186   7.078 -0.6227  1.1221  0.6851
23823SOL     OW74360   0.756   9.226   4.974  0.0511  0.3772 -0.7300
23823SOL    HW174361   0.720   9.313   4.957 -1.6413 -0.1480 -0.0812
23823SOL    HW274362   0.848   9.232   4.948 -0.2279  2.1173 -1.4419
23824SOL     OW74363   3.019   5.859   6.696 -0.9759  0.2898  0.9042
23824SOL    HW174364   3.037   5.940   6.648  1.4476 -1.2468 -0.9806
23824SOL    HW274365   2.952   5.814   6.644 -1.3355  0.4422  1.2259
23825SOL     OW74366   7.777   0.283   6.483  0.3807 -0.3432 -0.3916
23825SOL    HW174367   7.816   0.359   6.527 -1.2541  0.0430  0.4597
23825SOL    HW274368   7.683   0.300   6.485  0.0708 -1.7854 -1.3668
23826SOL     OW74369   4.118   9.004   8.044 -0.0812  0.4775  0.4584
23826SOL    HW174370   4.107   9.094   8.013  0.0780 -0.1295 -1.4940
23826SOL    HW274371   4.062   8.998   8.122 -1.3100  1.8272 -0.2740
23827SOL     OW74372   6.672   5.207   2.211 -0.1618 -0.2989 -0.5196
23827SOL    HW174373   6.745   5.188   2.270 -0.4676 -1.8881 -0.6253
23827SOL    HW274374   6.700   5.286   2.163 -0.0851  1.3161  2.0006
23828SOL     OW74375   9.108   3.894   4.872 -0.2753  0.2770  0.0678
23828SOL    HW174376   9.049   3.888   4.797  0.4447  0.0320 -0.4877
23828SOL    HW274377   9.095   3.812   4.921  0.8884 -0.5957 -1.0285
23829SOL     OW74378   4.420   8.432   1.700 -0.2151  0.4186 -0.0373
23829SOL    HW174379   4.420   8.339   1.677 -0.2240  0.3014  0.4424
23829SOL    HW274380   4.346   8.443   1.760 -0.9274  0.9571 -0.9833
23830SOL     OW74381   4.395   2.180   3.565  0.4860 -0.2819 -0.2578
23830SOL    HW174382   4.459   2.181   3.495  1.6076 -0.3119  0.7438
23830SOL    HW274383   4.446   2.178   3.646 -0.7517  0.7093  0.6052
23831SOL     OW74384   8.694   3.638   2.850  0.1047  0.2410 -0.0373
23831SOL    HW174385   8.678   3.556   2.895 -0.4333  0.9009  1.0045
23831SOL    HW274386   8.645   3.703   2.900  0.1516  1.1254 -1.1121
23832SOL     OW74387   7.560   0.358   7.089  0.8741  0.1233  0.0202
23832SOL    HW174388   7.584   0.439   7.133  2.7808 -0.6336  0.4454
23832SOL    HW274389   7.640   0.307   7.086 -0.2799 -1.7891 -0.2032
23833SOL     OW74390   3.443   7.955   0.098 -0.4659 -0.2526  0.2914
23833SOL    HW174391   3.519   7.916   0.055  0.0556  0.6674  0.3545
23833SOL    HW274392   3.415   8.024   0.038 -0.3213  0.4036  0.9632
23834SOL     OW74393   3.908   6.018   5.383  0.0512  0.1261  0.9488
23834SOL    HW174394   3.858   5.959   5.327  0.0838 -0.9476  2.0189
23834SOL    HW274395   3.979   6.050   5.327 -1.0110  0.5900 -0.1758
23835SOL     OW74396   2.067   1.811   7.620  0.0094 -0.1040 -0.1845
23835SOL    HW174397   2.078   1.716   7.626 -3.1162 -0.4768  1.9821
23835SOL    HW274398   2.063   1.840   7.711 -1.1438  1.7967 -0.7847
23836SOL     OW74399   5.927   5.384   6.355  0.4507  0.0536  0.7351
23836SOL    HW174400   5.955   5.341   6.274  0.7800  0.8443  0.4149
23836SOL    HW274401   5.906   5.474   6.329 -0.3249  0.0685  1.3675
23837SOL     OW74402   1.110   3.292   0.126  0.4811 -0.0628 -0.1468
23837SOL    HW174403   1.027   3.321   0.088  0.1322  1.5834  1.7205
23837SOL    HW274404   1.177   3.333   0.071 -0.0051  1.6567  0.4882
23838SOL     OW74405   7.483   1.143   0.697 -0.1964  0.3241  0.8907
23838SOL    HW174406   7.560   1.129   0.751 -0.4456 -0.0425  1.1604
23838SOL    HW274407   7.410   1.112   0.751 -0.3582 -0.9553 -0.0086
23839SOL     OW74408   5.204   6.316   7.870 -0.4180  0.5276 -0.6931
23839SOL    HW174409   5.234   6.346   7.956 -2.8881  0.5238  0.2804
23839SOL    HW274410   5.261   6.242   7.849 -0.5272 -0.2927  1.5804
23840SOL     OW74411   4.166   3.794   5.872  0.3141 -0.7288 -0.4808
23840SOL    HW174412   4.229   3.725   5.890  1.6375  0.3135 -0.9728
23840SOL    HW274413   4.090   3.772   5.926  0.3910 -2.9606 -1.2007
23841SOL     OW74414   4.144   4.215   1.212 -0.2086  0.1467  0.0119
23841SOL    HW174415   4.186   4.129   1.213  1.2006  0.7882 -0.5596
23841SOL    HW274416   4.059   4.200   1.172 -0.1339 -1.0342  0.2568
23842SOL     OW74417   5.528   2.515   2.093 -0.1164 -0.2193  0.4123
23842SOL    HW174418   5.526   2.442   2.156  0.4192 -1.4307 -0.9177
23842SOL    HW274419   5.592   2.576   2.130  1.7107 -1.8417  0.1355
23843SOL     OW74420   9.236   5.833   3.624  0.1194 -0.7052  0.4450
23843SOL    HW174421   9.310   5.789   3.666 -0.8107 -1.4746  1.3317
23843SOL    HW274422   9.184   5.867   3.697 -0.2411  0.1111 -0.1757
23844SOL     OW74423   7.371   4.066   8.915 -0.4113  0.1343  0.0954
23844SOL    HW174424   7.361   3.972   8.926 -0.9903  0.2105  0.2474
23844SOL    HW274425   7.386   4.078   8.821 -0.0158 -0.1316  0.1223
23845SOL     OW74426   2.655   6.502   0.799  0.1736  0.3950 -0.2343
23845SOL    HW174427   2.586   6.438   0.788 -0.6298  1.2625 -0.3883
23845SOL    HW274428   2.685   6.490   0.889  1.2446 -1.3448 -0.7768
23846SOL     OW74429   4.516   4.824   8.291  0.1972 -0.1094 -0.2348
23846SOL    HW174430   4.565   4.906   8.298  1.2619 -0.5058 -2.2931
23846SOL    HW274431   4.469   4.817   8.374  0.3918  2.3736  0.1582
23847SOL     OW74432   4.806   8.593   6.090 -0.5733  0.3468  0.0578
23847SOL    HW174433   4.751   8.656   6.043  0.1724  0.1121 -1.1786
23847SOL    HW274434   4.856   8.550   6.021  2.1806  1.4933  1.1961
23848SOL     OW74435   3.547   3.916   7.336 -0.1927  0.0170  0.1096
23848SOL    HW174436   3.563   3.823   7.321 -1.5857 -0.4930  1.4628
23848SOL    HW274437   3.579   3.932   7.425 -0.2120  0.7736 -0.0115
23849SOL     OW74438   1.763   3.912   2.398 -0.2249  0.2812 -0.4841
23849SOL    HW174439   1.707   3.869   2.334  0.2471  0.9523 -1.3831
23849SOL    HW274440   1.733   4.003   2.398 -0.0911  0.3306  0.1151
23850SOL     OW74441   4.455   6.952   7.544 -0.5824  0.6040 -0.4863
23850SOL    HW174442   4.535   6.956   7.492 -0.3945 -1.3158 -0.3945
23850SOL    HW274443   4.480   6.987   7.629  0.0218  0.4942 -0.6157
23851SOL     OW74444   0.587   5.159   0.877 -0.2636  0.1988  0.1124
23851SOL    HW174445   0.526   5.228   0.850 -0.4048 -0.3435 -1.0203
23851SOL    HW274446   0.672   5.203   0.882 -0.6064  0.7956  0.9836
23852SOL     OW74447   5.937   5.690   5.797 -0.3663  0.3991 -0.5841
23852SOL    HW174448   6.011   5.698   5.857 -0.5858 -2.1650  0.1529
23852SOL    HW274449   5.954   5.755   5.729  3.2168 -0.8493 -1.0909
23853SOL     OW74450   3.014   1.596   7.143  0.0284 -0.2898  0.7542
23853SOL    HW174451   3.077   1.526   7.161 -0.2139  0.0050  3.0799
23853SOL    HW274452   3.067   1.676   7.142 -0.0605 -0.2260  0.9709
23854SOL     OW74453   2.125   4.147   6.721  0.1230 -0.1823  0.0671
23854SOL    HW174454   2.138   4.183   6.808 -1.4890 -0.0817  0.3010
23854SOL    HW274455   2.057   4.202   6.682 -0.0316 -0.9482 -0.7989
23855SOL     OW74456   3.197   3.726   1.737 -0.1902 -0.0962  0.3336
23855SOL    HW174457   3.186   3.730   1.642  1.1175 -0.2269  0.1554
23855SOL    HW274458   3.158   3.808   1.769  0.1931  0.3880 -0.4062
23856SOL     OW74459   7.862   4.039   1.065 -0.1468  0.1181  0.3031
23856SOL    HW174460   7.843   3.945   1.062 -0.5359  0.1531  1.2376
23856SOL    HW274461   7.932   4.051   1.001 -0.9848 -0.5789 -0.7947
23857SOL     OW74462   7.182   6.668   1.764 -0.0482 -0.1926 -0.0402
23857SOL    HW174463   7.208   6.758   1.785  0.5114 -0.2402 -0.5017
23857SOL    HW274464   7.153   6.672   1.673  1.4247 -0.7690 -0.5500
23858SOL     OW74465   2.219   4.076   7.449  0.3881  0.1896  0.0631
23858SOL    HW174466   2.135   4.094   7.491  0.1800 -0.2242 -0.1671
23858SOL    HW274467   2.258   4.005   7.501 -0.4856 -1.2842 -1.2125
23859SOL     OW74468   4.552   0.554   6.574  0.3452 -0.4583  0.6989
23859SOL    HW174469   4.579   0.645   6.591  0.3463 -0.5712  1.3441
23859SOL    HW274470   4.548   0.548   6.479 -0.5907  0.5054  0.6491
23860SOL     OW74471   2.713   7.104   7.533  0.5614 -0.0959 -0.1160
23860SOL    HW174472   2.701   7.188   7.489 -0.5103  0.3637  0.9903
23860SOL    HW274473   2.634   7.054   7.513  0.2432 -0.0316  0.9291
23861SOL     OW74474   5.934   3.303   0.392  0.6359  0.1658 -1.0269
23861SOL    HW174475   5.994   3.305   0.318 -0.4345 -0.1661 -1.9140
23861SOL    HW274476   5.953   3.220   0.436  1.4190  0.4605 -0.7829
23862SOL     OW74477   8.778   1.701   0.817 -0.2499 -0.3922 -0.1528
23862SOL    HW174478   8.782   1.795   0.798  3.3219 -0.4641 -0.5526
23862SOL    HW274479   8.804   1.694   0.909 -1.0385 -0.9817  0.0328
23863SOL     OW74480   1.086   0.002   5.211  0.1811  0.6134  0.2661
23863SOL    HW174481   1.121   0.006   5.122 -1.0290 -0.1343 -0.2747
23863SOL    HW274482   1.142  -0.061   5.256 -0.6520 -0.8795 -0.6959
23864SOL     OW74483   3.184   3.529   3.849 -0.6265 -0.1191  0.2740
23864SOL    HW174484   3.239   3.593   3.804 -0.3341 -1.2995 -1.1278
23864SOL    HW274485   3.239   3.497   3.921 -0.0517 -0.1558 -0.1718
23865SOL     OW74486   3.335   0.874   5.453  0.2843 -0.3476 -0.5065
23865SOL    HW174487   3.410   0.850   5.398  1.9604 -0.8026  1.7990
23865SOL    HW274488   3.365   0.952   5.500 -1.2916  0.3335 -0.5961
23866SOL     OW74489   8.085   8.283   7.385  0.1076  0.4968  0.6958
23866SOL    HW174490   8.040   8.198   7.386  0.0918  0.5066  0.9248
23866SOL    HW274491   8.039   8.334   7.319  0.5432  0.0989  0.0764
23867SOL     OW74492   3.078   5.303   6.087  0.1429  0.2213 -0.4056
23867SOL    HW174493   3.047   5.222   6.126  1.1950  0.1199  0.2401
23867SOL    HW274494   3.028   5.311   6.006 -0.5589 -0.6409 -0.0696
23868SOL     OW74495   9.081   8.375   7.323 -0.2266  0.3806  0.5116
23868SOL    HW174496   9.146   8.322   7.276  2.4723  1.5908  2.5981
23868SOL    HW274497   9.024   8.310   7.365  0.9529 -0.8029  0.3555
23869SOL     OW74498   1.891   3.800   7.650  0.4228 -0.0788  0.3301
23869SOL    HW174499   1.922   3.872   7.595 -0.1980  0.0880  0.1930
23869SOL    HW274500   1.912   3.721   7.600 -0.9051  0.1013 -0.5637
23870SOL     OW74501   4.732   4.454   9.090  0.6966 -0.1216  0.3434
23870SOL    HW174502   4.810   4.472   9.142  1.7939  1.0020 -1.5730
23870SOL    HW274503   4.723   4.358   9.093  0.9156 -0.1134  2.2571
23871SOL     OW74504   0.952   0.265   9.226  0.0452  0.0271  0.1142
23871SOL    HW174505   0.863   0.269   9.259 -0.2337 -3.6239  0.2079
23871SOL    HW274506   0.946   0.298   9.136 -0.7657  2.3665  0.9524
23872SOL     OW74507   8.807   2.126   4.874 -0.1450 -0.2519  0.0587
23872SOL    HW174508   8.773   2.159   4.957 -0.7236  0.8051 -0.5635
23872SOL    HW274509   8.742   2.062   4.845 -1.2522  1.1489 -0.7187
23873SOL     OW74510   2.914   7.726   7.262 -0.0206  0.2392 -0.0297
23873SOL    HW174511   2.876   7.667   7.327 -2.8741  1.9385  0.0042
23873SOL    HW274512   2.929   7.671   7.186 -0.4233 -0.9926  0.7447
23874SOL     OW74513   2.566   8.843   6.228  0.1631 -0.1584 -0.8485
23874SOL    HW174514   2.626   8.783   6.272 -2.0277 -1.4499  0.5852
23874SOL    HW274515   2.479   8.817   6.259 -1.2188  1.2664 -3.2181
23875SOL     OW74516   6.013   6.205   7.638 -0.6409  0.6832 -0.2602
23875SOL    HW174517   5.934   6.241   7.678 -0.1410  0.8464  0.6018
23875SOL    HW274518   6.066   6.282   7.618 -0.1423  0.5095  0.3692
23876SOL     OW74519   0.600   0.082   0.903 -0.0545 -0.4480 -0.3872
23876SOL    HW174520   0.531   0.147   0.916  0.6136  0.2413 -0.2069
23876SOL    HW274521   0.668   0.106   0.966  0.5451 -0.8383 -0.8765
23877SOL     OW74522   9.192   6.765   1.193  0.1675 -0.1175  0.2135
23877SOL    HW174523   9.126   6.789   1.258  0.6799 -0.5562  0.9210
23877SOL    HW274524   9.147   6.769   1.109 -0.3746  0.9728  0.5464
23878SOL     OW74525   9.191   2.943   7.748 -0.4353  0.1482  0.3398
23878SOL    HW174526   9.212   2.946   7.842  1.3771 -0.8125  0.0125
23878SOL    HW274527   9.266   2.985   7.706 -0.2955 -1.1442 -0.7662
23879SOL     OW74528   2.623   1.049   4.630 -0.0782 -0.2217 -0.1974
23879SOL    HW174529   2.710   1.027   4.598 -0.0679 -0.7061  0.1656
23879SOL    HW274530   2.594   1.120   4.573 -0.1728 -1.2517 -1.4692
23880SOL     OW74531   4.145   7.737   2.205  0.4782  0.0517 -0.7413
23880SOL    HW174532   4.154   7.788   2.285 -0.6041  0.5780 -0.9477
23880SOL    HW274533   4.234   7.732   2.170  0.8430  0.4445  0.1002
23881SOL     OW74534   1.173   4.281   1.735  0.6159  0.0645  0.5176
23881SOL    HW174535   1.101   4.256   1.793  0.2936  3.3684  1.7184
23881SOL    HW274536   1.162   4.225   1.658 -1.6780 -1.3068  1.7302
23882SOL     OW74537   2.170   0.527   9.134 -0.1633  0.1481 -0.2163
23882SOL    HW174538   2.111   0.602   9.145 -0.5218 -0.0676 -0.6470
23882SOL    HW274539   2.252   0.566   9.103 -0.8010  0.2362 -1.8715
23883SOL     OW74540   1.620   5.935   4.110  0.3072 -0.5246  0.3052
23883SOL    HW174541   1.641   5.878   4.036 -1.7909 -2.4277  1.0685
23883SOL    HW274542   1.584   6.014   4.070  0.6327 -0.8837 -0.7221
23884SOL     OW74543   7.044   2.391   6.704 -0.3290  0.1850 -0.3117
23884SOL    HW174544   7.108   2.422   6.641  0.2042 -0.1267  0.0663
23884SOL    HW274545   6.978   2.346   6.652  0.1015 -0.0571 -0.6477
23885SOL     OW74546   6.247   4.139   8.951  0.1111 -0.0400 -0.4686
23885SOL    HW174547   6.292   4.056   8.963  2.6263  1.1473 -1.0340
23885SOL    HW274548   6.224   4.167   9.039  2.4310  0.2695  0.0964
23886SOL     OW74549   9.006   7.363   2.124 -0.4053 -0.1648 -0.5179
23886SOL    HW174550   9.032   7.293   2.065 -0.1428 -0.1582 -0.4117
23886SOL    HW274551   8.934   7.407   2.079  0.3366  0.3666 -1.2225
23887SOL     OW74552   1.500   5.957   3.749  0.4954 -0.0327  0.2548
23887SOL    HW174553   1.423   5.989   3.702 -0.4303 -2.6033 -0.1496
23887SOL    HW274554   1.538   6.035   3.789 -0.2187  1.8696 -2.5131
23888SOL     OW74555   3.371   7.743   2.575 -0.0198 -0.2312  0.3223
23888SOL    HW174556   3.288   7.722   2.618 -0.0798  1.2410  0.9488
23888SOL    HW274557   3.422   7.662   2.581 -1.0685 -0.8816  0.7106
23889SOL     OW74558   0.710   6.237   2.799 -0.1925 -1.0590 -0.5036
23889SOL    HW174559   0.770   6.307   2.772 -0.3394 -0.9083 -0.4427
23889SOL    HW274560   0.630   6.253   2.749 -0.8695 -0.1073  0.8099
23890SOL     OW74561   7.107   5.589   2.910  0.4659 -0.4082  0.5149
23890SOL    HW174562   7.183   5.551   2.867 -0.6659 -0.3980 -1.5863
23890SOL    HW274563   7.033   5.537   2.880 -0.4719  0.0847  1.8750
23891SOL     OW74564   6.414   5.571   4.300  0.1363  0.5682  0.2371
23891SOL    HW174565   6.340   5.563   4.240  1.7342  0.1615 -1.7670
23891SOL    HW274566   6.382   5.534   4.383 -1.2392 -1.6581 -1.1949
23892SOL     OW74567   5.670   8.346   2.506 -0.2847  0.5009  0.4235
23892SOL    HW174568   5.702   8.436   2.496  0.0932  0.4702  1.2456
23892SOL    HW274569   5.655   8.337   2.601  0.2969 -0.5022  0.4295
23893SOL     OW74570   4.539   0.912   0.153  0.1114 -0.3824 -0.1292
23893SOL    HW174571   4.489   0.972   0.097  1.0701 -0.2352 -0.8428
23893SOL    HW274572   4.624   0.953   0.164 -0.2048 -0.1606  1.8866
23894SOL     OW74573   6.984   9.081   5.397 -0.8623 -0.1589 -0.3333
23894SOL    HW174574   6.966   8.988   5.402 -0.7143 -0.1338  1.2578
23894SOL    HW274575   7.033   9.100   5.477  1.5555  0.7697 -1.9276
23895SOL     OW74576   6.748   7.036   3.368  0.5883 -0.4048  0.8047
23895SOL    HW174577   6.841   7.032   3.390  0.8019 -0.1732 -0.0053
23895SOL    HW274578   6.745   7.023   3.273 -0.1324  0.4083  0.6979
23896SOL     OW74579   0.056   0.673   6.839 -0.0549 -0.6031 -0.0572
23896SOL    HW174580   0.143   0.704   6.813 -0.1383 -0.3616 -0.0451
23896SOL    HW274581   0.001   0.751   6.839 -0.7520 -1.0381 -1.9779
23897SOL     OW74582   9.241   8.451   3.363 -0.4510  1.0659  0.5699
23897SOL    HW174583   9.320   8.488   3.325 -0.6874  2.6014  1.4698
23897SOL    HW274584   9.259   8.447   3.457 -1.4343  1.4488  0.7870
23898SOL     OW74585   6.695   4.067   6.159  0.4602 -0.1157 -0.6558
23898SOL    HW174586   6.699   3.972   6.152 -2.5289 -0.6907  2.4930
23898SOL    HW274587   6.670   4.097   6.071 -1.3787 -2.5693 -1.0767
23899SOL     OW74588   2.534   2.690   9.057 -0.0069  0.2565  0.3609
23899SOL    HW174589   2.508   2.767   9.005 -1.5271  0.0605  0.7919
23899SOL    HW274590   2.452   2.644   9.075  0.8753 -1.5386  0.0438
23900SOL     OW74591   5.596   0.813   1.529 -0.2636 -0.2919  0.1926
23900SOL    HW174592   5.507   0.809   1.563 -0.4009  1.4098  0.1180
23900SOL    HW274593   5.588   0.858   1.445  0.8241  1.2475  0.8750
23901SOL     OW74594   8.920   3.951   8.340  0.8064 -0.4334 -0.0509
23901SOL    HW174595   8.972   3.878   8.305  1.1544 -0.1341 -0.1681
23901SOL    HW274596   8.950   3.960   8.431  1.4621  0.1831 -0.3208
23902SOL     OW74597   2.918   7.396   6.514  0.2295 -0.6211  0.3429
23902SOL    HW174598   2.867   7.417   6.593 -0.0254  1.3810 -0.3151
23902SOL    HW274599   2.889   7.459   6.449  1.0913 -1.6737 -1.1200
23903SOL     OW74600   9.144   8.475   6.410  0.4651  1.0240  0.1389
23903SOL    HW174601   9.193   8.498   6.331 -2.7521  1.9872 -1.7707
23903SOL    HW274602   9.132   8.558   6.456  1.3460  0.6428  1.0996
23904SOL     OW74603   8.777   1.187   5.451  0.5306 -0.1441 -0.2002
23904SOL    HW174604   8.822   1.183   5.367 -0.8064 -1.7254 -0.8954
23904SOL    HW274605   8.742   1.099   5.464 -0.2552  0.3689  1.4666
23905SOL     OW74606   6.020   2.277   5.302  0.7356 -0.1977  0.1808
23905SOL    HW174607   6.000   2.355   5.353  0.8534 -0.1017  0.0789
23905SOL    HW274608   5.961   2.210   5.337  0.4537  0.0044  0.0951
23906SOL     OW74609   1.357   8.784   0.336 -0.4137  0.4190  0.3838
23906SOL    HW174610   1.396   8.699   0.317  0.6143  0.3613  2.4590
23906SOL    HW274611   1.363   8.832   0.254 -3.4687 -2.3295 -1.6850
23907SOL     OW74612   6.614   2.955   5.804  0.0953  0.0269 -0.4245
23907SOL    HW174613   6.523   2.983   5.814  0.2223 -0.1497  1.7381
23907SOL    HW274614   6.625   2.886   5.869  1.6610 -0.2862 -0.9782
23908SOL     OW74615   0.481   9.131   5.255  0.1332 -0.1140  0.2928
23908SOL    HW174616   0.566   9.167   5.230 -0.5562  1.2754 -0.1460
23908SOL    HW274617   0.499   9.039   5.273  1.4746 -0.1785 -1.1125
23909SOL     OW74618   8.311   3.583   5.551  0.2300  0.0848 -0.1998
23909SOL    HW174619   8.352   3.659   5.594  1.6170 -0.3017 -0.7634
23909SOL    HW274620   8.231   3.618   5.513  1.3569  1.5668 -1.3650
23910SOL     OW74621   6.695   2.372   4.940 -0.2297 -0.1703  0.4939
23910SOL    HW174622   6.772   2.361   4.996 -0.1432  0.2539  0.4639
23910SOL    HW274623   6.712   2.315   4.865 -0.1420 -0.4041  0.6889
23911SOL     OW74624   3.440   6.169   4.848 -0.6483  0.1208  0.2425
23911SOL    HW174625   3.523   6.207   4.876 -1.2955  0.8136  1.3262
23911SOL    HW274626   3.458   6.132   4.762  0.2645  2.0719 -0.4774
23912SOL     OW74627   2.308   1.913   7.204 -0.4168  0.0149 -0.0304
23912SOL    HW174628   2.357   1.955   7.275 -1.4847 -0.2208  0.8962
23912SOL    HW274629   2.367   1.915   7.129  1.2282 -0.7929  1.1765
23913SOL     OW74630   2.465   0.446   2.273  0.1591  0.4531  0.7363
23913SOL    HW174631   2.435   0.361   2.241 -0.1929  1.0505 -0.5889
23913SOL    HW274632   2.385   0.493   2.298  0.2260  0.9343  0.0609
23914SOL     OW74633   0.163   6.288   6.155 -0.6479  0.0764 -0.2201
23914SOL    HW174634   0.123   6.277   6.069  1.5103 -1.5872 -1.1369
23914SOL    HW274635   0.097   6.333   6.207 -2.7386 -0.4523 -2.2231
23915SOL     OW74636   2.718   3.262   5.283 -0.0694  0.5789  0.0395
23915SOL    HW174637   2.711   3.308   5.367  1.3848  1.2938 -0.1972
23915SOL    HW274638   2.725   3.169   5.308 -0.6045  0.6939  0.6527
23916SOL     OW74639   8.137   2.614   2.287 -0.1772  0.0256 -0.1143
23916SOL    HW174640   8.169   2.574   2.206  1.8664  0.2138  0.5235
23916SOL    HW274641   8.208   2.672   2.314 -1.0257  0.3440  1.5544
23917SOL     OW74642   2.428   5.685   5.151 -0.3729  0.2532  0.2302
23917SOL    HW174643   2.501   5.684   5.213 -0.3843  0.0892  0.2403
23917SOL    HW274644   2.429   5.598   5.111 -1.6952 -0.4093  1.5579
23918SOL     OW74645   0.809   4.788   4.143  0.1516  1.1353 -0.3568
23918SOL    HW174646   0.731   4.743   4.176  0.6819  0.9176  0.6313
23918SOL    HW274647   0.832   4.741   4.063 -0.7896  1.2712 -0.7181
23919SOL     OW74648   1.390   8.153   3.647  0.0804 -0.4163  0.1609
23919SOL    HW174649   1.456   8.219   3.625  0.8130 -1.2526 -0.2125
23919SOL    HW274650   1.337   8.195   3.715  1.2423  0.1490  0.7654
23920SOL     OW74651   1.081   5.180   4.157  0.2997  0.1549  0.1276
23920SOL    HW174652   1.080   5.132   4.240  0.0751  1.0555  0.6592
23920SOL    HW274653   1.019   5.132   4.102  0.9631 -0.8529  0.2329
23921SOL     OW74654   5.292   9.229   8.441  0.5256 -1.0691 -0.2881
23921SOL    HW174655   5.376   9.193   8.469  1.1096  0.1677 -0.4222
23921SOL    HW274656   5.265   9.171   8.370 -0.3206 -3.4116  1.8007
23922SOL     OW74657   8.173   1.054   5.170 -0.5398 -0.2126  0.6503
23922SOL    HW174658   8.085   1.018   5.159 -0.8326  0.5305  0.4988
23922SOL    HW274659   8.161   1.149   5.163  0.2567 -0.0988  0.7523
23923SOL     OW74660   0.296   7.409   2.521  0.2516 -0.5660 -0.5085
23923SOL    HW174661   0.296   7.365   2.436  0.8729 -0.1248 -0.7480
23923SOL    HW274662   0.281   7.502   2.501  2.1262 -0.1777 -0.3223
23924SOL     OW74663   4.606   8.813   4.434  0.1990  0.1246  0.2046
23924SOL    HW174664   4.569   8.869   4.365 -2.0424  0.8065  1.8276
23924SOL    HW274665   4.592   8.863   4.515  2.6083 -0.7130  1.2162
23925SOL     OW74666   6.398   8.363   0.012 -0.0154 -0.5597 -0.0785
23925SOL    HW174667   6.459   8.365  -0.062  0.4377  4.1692  0.0835
23925SOL    HW274668   6.315   8.333  -0.026  0.9030 -1.0771 -1.7849
23926SOL     OW74669   2.320   0.942   8.236  0.4630  0.4125  0.1773
23926SOL    HW174670   2.260   1.000   8.283 -2.1436 -1.6006 -0.4661
23926SOL    HW274671   2.331   0.866   8.294  1.3471  0.1575 -0.3044
23927SOL     OW74672   1.416   7.199   8.673  0.3951  0.3013  0.4395
23927SOL    HW174673   1.464   7.138   8.729  0.5590 -1.1395 -1.2277
23927SOL    HW274674   1.340   7.150   8.643 -1.0424  1.8728  1.3279
23928SOL     OW74675   6.979   2.544   3.986 -0.7144 -0.3612  0.9976
23928SOL    HW174676   7.040   2.618   3.986 -0.8038 -0.2875  1.2307
23928SOL    HW274677   6.978   2.514   4.077  1.3937 -2.3514  0.4670
23929SOL     OW74678   6.110   5.338   0.132  0.0508  0.2811  0.0079
23929SOL    HW174679   6.090   5.369   0.220 -0.4095 -0.4635  0.1794
23929SOL    HW274680   6.172   5.402   0.097 -1.0571  1.5235  0.2370
23930SOL     OW74681   7.146   8.645   7.444  0.8683 -0.4235  0.4273
23930SOL    HW174682   7.090   8.634   7.520  0.7843  0.0940  0.4428
23930SOL    HW274683   7.182   8.558   7.428  1.0641 -0.4848  1.1933
23931SOL     OW74684   7.517   5.151   0.017  0.1352 -0.2623 -0.1192
23931SOL    HW174685   7.459   5.182  -0.052  0.4713  0.0000 -0.2869
23931SOL    HW274686   7.548   5.066  -0.013  0.2003 -0.1946 -0.2443
23932SOL     OW74687   5.993   3.540   6.926 -0.2026  0.4095  0.0166
23932SOL    HW174688   5.989   3.517   6.833  1.3599 -0.2983  0.0907
23932SOL    HW274689   5.939   3.473   6.969  0.3678 -0.2307 -0.2436
23933SOL     OW74690   0.325   5.467   4.484  0.3176  0.3921 -0.2983
23933SOL    HW174691   0.375   5.532   4.535 -1.0338  0.9518  0.3469
23933SOL    HW274692   0.234   5.490   4.500 -0.1937 -1.6821 -0.0682
23934SOL     OW74693   2.715   7.796   0.035  0.3557 -0.2705  0.4115
23934SOL    HW174694   2.763   7.809  -0.047 -0.8743  0.3027 -0.2668
23934SOL    HW274695   2.781   7.772   0.099  1.2546 -1.5343 -0.9329
23935SOL     OW74696   6.959   0.112   8.634  0.4325 -0.2109  0.3388
23935SOL    HW174697   7.045   0.077   8.659  0.8045  0.5092  0.1049
23935SOL    HW274698   6.898   0.068   8.693  0.9518 -0.7757  0.4747
23936SOL     OW74699   0.043   0.518   2.814 -0.3180  0.4839  0.0345
23936SOL    HW174700  -0.026   0.501   2.878 -1.4224  4.4832  0.2096
23936SOL    HW274701   0.041   0.443   2.755 -2.5167 -1.1035  1.9610
23937SOL     OW74702   2.456   5.963   5.787 -0.3160  0.1143  0.4550
23937SOL    HW174703   2.362   5.946   5.782 -0.3860  0.7047 -0.8312
23937SOL    HW274704   2.466   6.022   5.861 -1.3043  1.9471 -0.7941
23938SOL     OW74705   5.151   3.619   3.740 -0.0401  0.5767  0.1252
23938SOL    HW174706   5.079   3.584   3.793  1.0532 -0.5772  0.9108
23938SOL    HW274707   5.162   3.556   3.669  1.7974 -0.6858  1.4255
23939SOL     OW74708   8.816   0.120   4.345 -0.3186  0.4731 -0.3320
23939SOL    HW174709   8.822   0.076   4.259  1.2411 -2.3615  1.0645
23939SOL    HW274710   8.746   0.073   4.390  0.1528  0.6467  0.5905
23940SOL     OW74711   4.160   8.963   6.203  0.0558 -0.3889 -0.3279
23940SOL    HW174712   4.168   8.896   6.270 -0.1226 -0.1190 -0.0317
23940SOL    HW274713   4.246   9.005   6.199 -0.0838 -0.0561  0.1081
23941SOL     OW74714   6.885   2.059   3.484  0.4966  0.7869  0.6819
23941SOL    HW174715   6.849   2.147   3.496  3.2946  2.1177  0.0678
23941SOL    HW274716   6.930   2.063   3.400  0.0855 -1.5109  0.3045
23942SOL     OW74717   5.400   0.891   7.581  0.3121 -0.1437 -0.3607
23942SOL    HW174718   5.442   0.807   7.597 -0.7555 -0.6764 -0.2116
23942SOL    HW274719   5.342   0.903   7.657  2.0965  1.8278  0.7798
23943SOL     OW74720   4.998   6.723   0.822  0.5158  0.4415 -0.1248
23943SOL    HW174721   4.923   6.778   0.800 -0.7252 -1.1915 -0.1456
23943SOL    HW274722   5.000   6.656   0.754  1.0330 -0.4527  0.7416
23944SOL     OW74723   4.248   8.018   5.277  0.0171  0.1884 -0.3268
23944SOL    HW174724   4.272   7.973   5.197 -0.8978  0.0562 -0.5338
23944SOL    HW274725   4.298   8.100   5.274 -0.4991  0.4857 -1.3617
23945SOL     OW74726   3.281   4.802   8.196  0.0108 -0.5479  0.5162
23945SOL    HW174727   3.210   4.772   8.138  1.0738 -1.2226 -0.5047
23945SOL    HW274728   3.281   4.897   8.186 -0.1252 -0.6163 -0.2537
23946SOL     OW74729   5.849   5.789   1.677  0.2072  0.2443 -0.3005
23946SOL    HW174730   5.787   5.845   1.629  0.7054 -0.1374 -1.4194
23946SOL    HW274731   5.888   5.847   1.742 -0.6181  0.7341 -0.2289
23947SOL     OW74732   4.873   0.025   8.490  0.3010 -0.4142  0.9419
23947SOL    HW174733   4.969   0.022   8.496  0.2310 -0.4490  2.3716
23947SOL    HW274734   4.848  -0.067   8.477  0.4177 -0.5228  1.4702
23948SOL     OW74735   0.388   1.808   2.276  0.5165 -0.6050 -0.6661
23948SOL    HW174736   0.314   1.758   2.243 -1.0729  1.1552  0.0501
23948SOL    HW274737   0.453   1.805   2.205  0.5580 -3.6404 -0.6214
23949SOL     OW74738   7.662   7.503   5.872 -0.3907 -0.3672  0.5540
23949SOL    HW174739   7.699   7.434   5.927  0.6898  0.3924  0.8072
23949SOL    HW274740   7.609   7.555   5.933 -1.2357 -0.9787  0.3557
23950SOL     OW74741   8.408   0.076   6.836 -0.1538  0.0505  0.5930
23950SOL    HW174742   8.328   0.025   6.846 -0.3892  0.5575  1.4765
23950SOL    HW274743   8.412   0.097   6.743 -2.0626  1.6121  0.7944
23951SOL     OW74744   8.525   6.997   7.379  0.5320 -0.4820  0.1728
23951SOL    HW174745   8.574   7.022   7.301 -0.6258  2.2736  0.2090
23951SOL    HW274746   8.582   7.021   7.452 -0.2939  1.6516  0.1909
23952SOL     OW74747   7.856   1.030   6.197 -0.1702 -0.0779 -0.3780
23952SOL    HW174748   7.912   1.061   6.268  2.0621  0.9361 -2.4276
23952SOL    HW274749   7.832   1.109   6.149  0.4479 -0.9134 -2.1545
23953SOL     OW74750   5.864   5.721   4.031  0.4579 -0.5270 -0.1837
23953SOL    HW174751   5.813   5.682   3.959  1.1210 -0.7937 -0.5219
23953SOL    HW274752   5.913   5.792   3.989  1.8570 -1.5111 -0.3020
23954SOL     OW74753   1.642   1.927   0.681  0.5516  0.1649  0.3099
23954SOL    HW174754   1.588   2.004   0.698 -0.8099 -1.0382  1.6416
23954SOL    HW274755   1.708   1.958   0.618 -2.1596  1.4873 -2.1344
23955SOL     OW74756   4.704   4.929   7.189  0.8066  0.0760  0.2660
23955SOL    HW174757   4.768   4.970   7.131  0.2532  1.8518  0.8434
23955SOL    HW274758   4.753   4.860   7.235  1.3637 -1.0413 -1.8918
23956SOL     OW74759   7.336   6.010   9.040 -0.1736  0.0754  0.3633
23956SOL    HW174760   7.369   5.934   9.087 -1.6610 -0.7958  0.0723
23956SOL    HW274761   7.345   6.082   9.101 -0.4823 -0.7038  1.3553
23957SOL     OW74762   6.390   8.392   5.244  0.3839 -0.1461  0.0656
23957SOL    HW174763   6.309   8.360   5.204  0.7591 -0.7540 -0.2208
23957SOL    HW274764   6.451   8.402   5.172  0.7676 -0.3255  0.3588
23958SOL     OW74765   3.758   6.506   0.394 -0.3000 -0.5254 -0.1235
23958SOL    HW174766   3.768   6.417   0.360 -0.5345 -0.8968  0.7815
23958SOL    HW274767   3.729   6.495   0.484 -0.4709  0.4731 -0.0477
23959SOL     OW74768   5.340   8.439   2.929 -1.0033  0.2104 -0.0532
23959SOL    HW174769   5.349   8.345   2.944  0.2921  0.4445  0.7833
23959SOL    HW274770   5.410   8.479   2.981 -2.4761  1.7584  0.8208
23960SOL     OW74771   7.488   3.660   5.774  0.5427 -0.5064 -0.4072
23960SOL    HW174772   7.581   3.641   5.786  0.3101  0.1619  3.7391
23960SOL    HW274773   7.484   3.755   5.766  0.1450 -0.3528  1.3125
23961SOL     OW74774   0.242   2.916   4.187  0.0225 -0.3965 -0.0114
23961SOL    HW174775   0.210   2.853   4.251 -0.3258  0.8355  1.0831
23961SOL    HW274776   0.312   2.870   4.141  1.8852 -0.6818  2.7972
23962SOL     OW74777   7.881   1.944   3.938  0.0097 -0.4150  0.0969
23962SOL    HW174778   7.916   2.008   3.875  0.0096 -1.2680 -0.7864
23962SOL    HW274779   7.958   1.914   3.986  0.3122 -1.2414 -0.8787
23963SOL     OW74780   5.279   7.974   7.730 -0.3696  0.4190  0.3617
23963SOL    HW174781   5.210   7.958   7.794  1.3542  1.4141  2.5846
23963SOL    HW274782   5.323   7.889   7.721  0.5374  0.6811  1.9946
23964SOL     OW74783   4.759   8.187   7.627 -0.4349 -0.6823  0.3103
23964SOL    HW174784   4.823   8.256   7.644 -1.4787  0.3880  0.0543
23964SOL    HW274785   4.800   8.132   7.561 -0.0048  0.3464 -0.3073
23965SOL     OW74786   4.098   5.287   0.099  0.2497 -0.0655 -0.2613
23965SOL    HW174787   4.003   5.285   0.100  0.2261  0.0312 -1.3896
23965SOL    HW274788   4.121   5.345   0.026  1.1708 -0.1578 -0.0639
23966SOL     OW74789   2.241   3.859   7.599 -0.6959  0.5334 -0.2723
23966SOL    HW174790   2.261   3.830   7.688  0.4294 -0.3985 -0.7938
23966SOL    HW274791   2.245   3.779   7.547 -1.3780  1.0639 -1.1573
23967SOL     OW74792   3.789   4.910   0.265  0.4728  0.3501 -0.4928
23967SOL    HW174793   3.785   4.942   0.355  0.5724  1.2925 -0.8112
23967SOL    HW274794   3.697   4.901   0.239  0.4162  1.7506 -0.8557
23968SOL     OW74795   0.935   8.022   3.810  0.1878 -0.2401 -0.6406
23968SOL    HW174796   0.884   8.098   3.784 -0.5891 -0.2818  0.6706
23968SOL    HW274797   0.969   8.044   3.897 -0.4577 -1.5497 -0.0175
23969SOL     OW74798   1.404   6.177   3.363 -0.0039  0.1512 -0.0364
23969SOL    HW174799   1.426   6.116   3.293 -2.2125  0.9090 -1.5027
23969SOL    HW274800   1.453   6.256   3.342 -0.7292  0.4083 -0.8197
23970SOL     OW74801   4.061   6.169   9.253 -0.0572  0.1960  0.2165
23970SOL    HW174802   3.983   6.199   9.205  0.1319 -0.1886 -0.3494
23970SOL    HW274803   4.116   6.129   9.185  0.1151 -0.5767  0.8000
23971SOL     OW74804   6.299   2.057   6.991  0.2345 -0.1034  0.4882
23971SOL    HW174805   6.279   2.118   7.063  3.6673  2.6285 -0.5520
23971SOL    HW274806   6.281   2.108   6.912  0.6036 -1.4653 -0.4996
23972SOL     OW74807   3.375   4.208   3.834 -0.4849  0.0774 -0.1071
23972SOL    HW174808   3.390   4.301   3.817 -0.0092 -0.4771 -3.3537
23972SOL    HW274809   3.282   4.195   3.815 -0.6139 -0.0611  0.6119
23973SOL     OW74810   8.646   1.885   4.463 -0.1443  0.0041  0.1408
23973SOL    HW174811   8.681   1.800   4.437 -1.3806 -0.0780 -1.3591
23973SOL    HW274812   8.706   1.949   4.426 -0.4042 -0.1774 -0.5976
23974SOL     OW74813   2.040   5.341   5.512  0.3228  0.2636  0.0595
23974SOL    HW174814   2.128   5.304   5.521  0.3801  0.2735 -0.4292
23974SOL    HW274815   2.043   5.390   5.430  0.3641  1.6758  0.8676
23975SOL     OW74816   3.315   6.967   7.554  0.2917  0.1379  0.1877
23975SOL    HW174817   3.245   7.004   7.609  0.1201  1.0064 -0.5927
23975SOL    HW274818   3.367   6.915   7.614 -1.1249 -0.6672  0.7617
23976SOL     OW74819   4.497   8.021   8.062  0.0019 -0.4010  0.0219
23976SOL    HW174820   4.519   7.952   8.125 -1.1981 -0.2006  0.7051
23976SOL    HW274821   4.557   8.007   7.989  2.9841  0.6749  2.0621
23977SOL     OW74822   1.452   7.087   7.790 -0.4213 -0.4199 -0.1787
23977SOL    HW174823   1.456   7.158   7.854  0.1652 -0.7097  0.1045
23977SOL    HW274824   1.513   7.113   7.722 -0.3607 -0.5578 -0.1753
23978SOL     OW74825   5.471   2.699   0.898  0.3833 -0.2673  0.2210
23978SOL    HW174826   5.539   2.760   0.924  0.1952  0.5256 -1.0563
23978SOL    HW274827   5.502   2.662   0.815 -1.4876  1.4828 -1.3769
23979SOL     OW74828   7.453   8.800   6.643  0.0065 -0.1063  0.4661
23979SOL    HW174829   7.425   8.882   6.602  1.0377 -0.5204 -1.1578
23979SOL    HW274830   7.548   8.811   6.655  0.8203 -2.1620 -2.7370
23980SOL     OW74831   1.935   4.418   3.868 -0.1459 -0.2602  0.3480
23980SOL    HW174832   1.960   4.500   3.910 -2.9212 -0.0436  1.8362
23980SOL    HW274833   2.004   4.356   3.893  0.6051  0.9771  1.4857
23981SOL     OW74834   7.402   3.519   9.045  0.3349  0.0610 -0.4365
23981SOL    HW174835   7.463   3.486   9.112  1.0141  1.1273 -0.4987
23981SOL    HW274836   7.384   3.444   8.990  1.7389 -0.2577 -0.5088
23982SOL     OW74837   6.466   0.964   4.046 -0.3347  0.4403  0.1302
23982SOL    HW174838   6.483   0.878   4.007  1.5843  0.9574 -0.3078
23982SOL    HW274839   6.382   0.990   4.011 -0.2797 -0.6407 -0.8759
23983SOL     OW74840   8.635   2.484   7.030  0.2175  0.1142  0.3886
23983SOL    HW174841   8.680   2.484   7.115  0.0617  0.8582  0.4775
23983SOL    HW274842   8.586   2.566   7.028  0.4192  0.2273 -0.5286
23984SOL     OW74843   0.121   7.883   6.752  0.1176  0.6397  0.0352
23984SOL    HW174844   0.099   7.845   6.837  2.5666  0.2661  0.5949
23984SOL    HW274845   0.071   7.831   6.689 -0.7683  0.0817  1.1650
23985SOL     OW74846   1.778   9.170   2.483  0.0967  0.1223 -0.5314
23985SOL    HW174847   1.858   9.152   2.434 -0.9984  0.0833 -2.4537
23985SOL    HW274848   1.712   9.114   2.441 -0.7731 -0.5240  1.5772
23986SOL     OW74849   5.596   1.745   8.071  0.6790  0.3299  0.1870
23986SOL    HW174850   5.617   1.768   7.980 -0.5689 -0.5054 -0.3348
23986SOL    HW274851   5.680   1.719   8.109  1.1479  0.2662 -0.8496
23987SOL     OW74852   3.933   0.317   2.895  0.7223  0.2574 -0.3142
23987SOL    HW174853   4.010   0.334   2.948  1.6835  0.7106 -1.8004
23987SOL    HW274854   3.967   0.295   2.808 -0.7839 -0.7014 -0.7150
23988SOL     OW74855   7.694   3.587   6.072 -0.1348  0.7921  0.1357
23988SOL    HW174856   7.611   3.635   6.067 -0.8734 -0.3891  0.7604
23988SOL    HW274857   7.721   3.593   6.164 -0.2516 -0.0038  0.2286
23989SOL     OW74858   5.881   7.400   3.941 -0.2133  0.1286 -0.2933
23989SOL    HW174859   5.904   7.308   3.945  1.6476  0.4187 -2.3502
23989SOL    HW274860   5.935   7.442   4.007 -0.5251 -0.1437  0.1398
23990SOL     OW74861   3.791   4.049   1.924  0.6129  0.2780 -0.4022
23990SOL    HW174862   3.714   3.996   1.901  0.6203 -0.2546  0.7077
23990SOL    HW274863   3.763   4.098   2.001  1.8322 -1.0539  0.9530
23991SOL     OW74864   6.211   1.351   3.769 -0.5556 -0.0276 -0.3421
23991SOL    HW174865   6.236   1.426   3.823  0.1473 -0.5701  0.0954
23991SOL    HW274866   6.186   1.283   3.831 -0.1624 -0.5137 -0.6994
23992SOL     OW74867   2.303   8.503   3.847  0.0132  0.4808  0.6475
23992SOL    HW174868   2.287   8.597   3.842  0.3124  0.5358  0.7082
23992SOL    HW274869   2.226   8.464   3.807 -0.0480  0.7552  0.4920
23993SOL     OW74870   6.177   1.628   8.259  1.0018 -0.3643  0.1475
23993SOL    HW174871   6.202   1.562   8.195  1.9711 -0.8861  1.0246
23993SOL    HW274872   6.119   1.582   8.320 -0.7278  0.3812 -0.8679
23994SOL     OW74873   0.334   9.074   2.235  0.1568 -0.1883 -0.3847
23994SOL    HW174874   0.384   9.109   2.309  0.6106 -1.2071 -0.1962
23994SOL    HW274875   0.318   9.150   2.179  0.5268  0.4435  0.3502
23995SOL     OW74876   7.327   6.760   7.450  0.3817 -0.3142  0.8965
23995SOL    HW174877   7.411   6.716   7.438  1.0987  1.0818  0.5518
23995SOL    HW274878   7.344   6.827   7.516 -0.4763 -0.0327  0.8536
23996SOL     OW74879   9.210   4.376   8.113  0.0816 -0.2708  0.2037
23996SOL    HW174880   9.183   4.419   8.031 -0.6530  0.1760  0.6737
23996SOL    HW274881   9.264   4.441   8.157  0.2380 -0.4050  0.2087
23997SOL     OW74882   2.949   9.236   7.717 -0.4754 -0.0052  0.1323
23997SOL    HW174883   2.893   9.217   7.642 -0.0487 -0.3925 -0.0971
23997SOL    HW274884   3.028   9.274   7.679  0.8674 -2.5954  0.0828
23998SOL     OW74885   0.525   5.049   5.130 -0.0373 -0.2284 -0.2967
23998SOL    HW174886   0.557   5.111   5.196 -0.5729  0.0118 -0.2523
23998SOL    HW274887   0.517   4.966   5.176 -2.1436  0.3241  0.4680
23999SOL     OW74888   3.358   3.903   2.292 -0.0528  0.5316 -0.1069
23999SOL    HW174889   3.354   3.869   2.381  1.2533 -0.2142 -0.2978
23999SOL    HW274890   3.395   3.831   2.241 -3.8464 -0.3201 -1.9652
24000SOL     OW74891   3.961   6.858   6.082 -0.0194 -0.2438 -0.2551
24000SOL    HW174892   4.056   6.866   6.074  0.0695  0.4961  1.1839
24000SOL    HW274893   3.946   6.844   6.176 -1.1674 -3.0133 -0.7417
24001SOL     OW74894   2.662   4.862   8.022  0.3008 -0.0741 -0.6382
24001SOL    HW174895   2.681   4.791   8.084 -2.1894  0.6084  1.0324
24001SOL    HW274896   2.688   4.826   7.936  0.5205 -2.4033  0.3325
24002SOL     OW74897   5.872   0.922   7.826  0.2516 -0.6980 -0.5358
24002SOL    HW174898   5.834   1.000   7.866  1.7484  0.5599 -1.4840
24002SOL    HW274899   5.823   0.849   7.865  0.3221  0.5483  2.0806
24003SOL     OW74900   1.479   0.161   5.965 -0.0146 -0.5537  0.0026
24003SOL    HW174901   1.539   0.098   6.005 -0.0292 -1.8177 -1.8105
24003SOL    HW274902   1.533   0.210   5.903 -0.3575  0.0494  0.1721
24004SOL     OW74903   4.190   8.807   1.424 -0.2985 -0.8252  0.3748
24004SOL    HW174904   4.096   8.794   1.438 -0.4460  0.0505  0.2598
24004SOL    HW274905   4.197   8.832   1.332  0.1238 -1.5376  0.2050
24005SOL     OW74906   7.257   3.051   6.650  0.4922 -0.1009 -0.5009
24005SOL    HW174907   7.197   3.021   6.582  0.7388 -0.1909 -0.6751
24005SOL    HW274908   7.285   3.138   6.621  0.5477 -0.1123 -0.4818
24006SOL     OW74909   7.806   7.095   1.124 -0.4216  0.9554 -0.2902
24006SOL    HW174910   7.876   7.145   1.166 -0.6370  0.4382  0.7236
24006SOL    HW274911   7.799   7.131   1.036  0.8637  1.2645 -0.2747
24007SOL     OW74912   5.711   2.889   6.017  0.4756 -0.1425  0.0989
24007SOL    HW174913   5.729   2.983   6.024  0.5395  0.0422 -1.8847
24007SOL    HW274914   5.648   2.872   6.087 -0.0721  1.5309  0.0698
24008SOL     OW74915   5.236   8.885   3.516 -0.4309  0.0366  0.1010
24008SOL    HW174916   5.199   8.957   3.464 -0.4814  0.8510  1.2255
24008SOL    HW274917   5.187   8.808   3.488 -1.7222  0.7825  0.2416
24009SOL     OW74918   8.691   8.959   2.402 -0.1281  0.2768  0.0236
24009SOL    HW174919   8.636   8.896   2.447  2.0922 -2.4418 -0.8088
24009SOL    HW274920   8.768   8.968   2.458  1.0864 -0.4354 -1.4671
24010SOL     OW74921   3.255   1.495   6.536  0.2844  0.1558 -0.1794
24010SOL    HW174922   3.176   1.442   6.523  0.3885  0.3396 -1.7182
24010SOL    HW274923   3.258   1.510   6.631 -1.7881  0.5379 -0.1128
24011SOL     OW74924   6.170   2.608   9.138 -0.7176 -0.7460  0.1702
24011SOL    HW174925   6.114   2.670   9.186 -1.8871 -3.0329  1.9438
24011SOL    HW274926   6.122   2.588   9.058 -0.7224 -0.0104 -0.0165
24012SOL     OW74927   8.427   7.545   2.639  0.0551  0.0833 -0.3997
24012SOL    HW174928   8.419   7.635   2.606 -0.3211 -0.1505 -0.9698
24012SOL    HW274929   8.520   7.526   2.633 -0.0142 -0.0112 -1.5311
24013SOL     OW74930   3.926   4.393   1.786  0.4018 -0.3506  0.6470
24013SOL    HW174931   3.893   4.454   1.852 -0.1449 -0.3425  0.3735
24013SOL    HW274932   4.013   4.426   1.764 -0.2347  0.8842 -0.1596
24014SOL     OW74933   3.143   5.704   7.133  0.6452 -0.1648  0.3253
24014SOL    HW174934   3.153   5.794   7.163 -1.6403 -0.3741  1.9985
24014SOL    HW274935   3.117   5.712   7.041  0.1323  0.9028  0.5481
24015SOL     OW74936   7.621   1.865   8.303 -0.2359 -0.2388 -0.1218
24015SOL    HW174937   7.644   1.940   8.358 -1.2831  0.0711 -0.0908
24015SOL    HW274938   7.580   1.904   8.226  0.5336 -0.7126 -0.7881
24016SOL     OW74939   4.789   7.461   7.968 -0.1780 -0.1241  0.7110
24016SOL    HW174940   4.778   7.423   8.055  0.7007 -0.3482  0.7331
24016SOL    HW274941   4.744   7.545   7.973 -0.1312 -0.1338  1.3856
24017SOL     OW74942   5.488   4.211   5.009 -0.0776 -0.1325 -0.0121
24017SOL    HW174943   5.426   4.245   5.074  1.0813  2.2863 -0.0650
24017SOL    HW274944   5.567   4.192   5.060 -0.5452 -2.4414 -0.0713
24018SOL     OW74945   5.189   0.866   4.097 -0.4264  0.3042  0.2768
24018SOL    HW174946   5.141   0.949   4.102 -1.2375  0.0235 -1.7773
24018SOL    HW274947   5.202   0.840   4.188  0.2455  2.8786  1.0051
24019SOL     OW74948   3.054   4.196   1.425  0.5821  0.4579 -0.1079
24019SOL    HW174949   3.094   4.142   1.357  2.2271  1.2526  0.1829
24019SOL    HW274950   2.966   4.159   1.435  1.2236 -1.3958 -0.7485
24020SOL     OW74951   4.967   4.872   7.969 -0.1265  0.0221  0.0456
24020SOL    HW174952   4.955   4.851   8.062 -2.8147  0.7442 -0.0609
24020SOL    HW274953   5.054   4.912   7.965 -0.3536  0.9373  2.4283
24021SOL     OW74954   8.500   2.268   7.375 -0.4198  0.5834  0.2844
24021SOL    HW174955   8.429   2.307   7.325 -0.2423  0.3961 -0.1133
24021SOL    HW274956   8.577   2.319   7.351 -0.6875  1.8530  1.9409
24022SOL     OW74957   8.366   0.037   8.419 -0.5435  0.5624  0.0303
24022SOL    HW174958   8.374   0.076   8.333 -0.8378  1.0797  0.2318
24022SOL    HW274959   8.302  -0.033   8.408 -0.1921  0.2895 -0.2808
24023SOL     OW74960   8.451   4.036   2.801 -0.1024  0.0841 -0.0945
24023SOL    HW174961   8.389   4.062   2.733 -0.0794  0.1552 -0.0882
24023SOL    HW274962   8.479   3.948   2.775 -1.8658 -0.8861  1.0584
24024SOL     OW74963   7.405   2.154   2.895 -0.2234 -0.0240 -0.2048
24024SOL    HW174964   7.441   2.242   2.881 -0.7883 -0.1161 -2.8184
24024SOL    HW274965   7.361   2.160   2.980 -0.6950  2.4035 -0.5289
24025SOL     OW74966   8.043   7.172   0.027  0.9294 -0.8802  0.2187
24025SOL    HW174967   8.044   7.107   0.098 -0.0230 -0.0759  0.9993
24025SOL    HW274968   7.970   7.230   0.049  2.0531  0.7533 -0.1840
24026SOL     OW74969   3.220   7.630   5.795 -0.0330 -0.2949 -0.1881
24026SOL    HW174970   3.222   7.615   5.701 -2.7519 -0.7812 -0.2585
24026SOL    HW274971   3.213   7.542   5.833 -0.9403 -0.0141  0.3258
24027SOL     OW74972   8.035   2.084   5.937 -1.0750  0.2914  0.0854
24027SOL    HW174973   8.122   2.052   5.960 -1.6704 -1.4446  0.0601
24027SOL    HW274974   8.012   2.142   6.009  0.3267  1.2572 -0.2051
24028SOL     OW74975   8.120   3.835   1.062  0.5427  0.2238 -0.2062
24028SOL    HW174976   8.212   3.860   1.070 -0.0297  2.0637  1.6426
24028SOL    HW274977   8.076   3.914   1.031 -0.5581 -0.2540  0.0664
24029SOL     OW74978   9.190   1.083   4.385  0.0044 -0.3487 -0.1019
24029SOL    HW174979   9.276   1.127   4.385 -0.0956 -0.0073 -2.6004
24029SOL    HW274980   9.148   1.114   4.305 -1.6343 -2.0964  0.0295
24030SOL     OW74981   2.984   2.962   0.334  0.0059 -0.3236 -0.4581
24030SOL    HW174982   3.067   2.914   0.329  0.4467  0.3837 -0.0083
24030SOL    HW274983   3.003   3.047   0.295 -0.3928 -0.0119  0.0218
24031SOL     OW74984   3.493   4.885   5.329  0.5028  0.3174  0.4293
24031SOL    HW174985   3.564   4.821   5.340  0.0629 -0.2635 -0.0626
24031SOL    HW274986   3.538   4.968   5.315  1.0930 -0.0755 -0.0644
24032SOL     OW74987   4.106   1.510   1.282  0.1966 -0.4817 -0.1606
24032SOL    HW174988   4.101   1.554   1.367 -0.2594 -3.7937  1.7080
24032SOL    HW274989   4.190   1.464   1.284 -0.2774 -1.4331 -1.0343
24033SOL     OW74990   1.761   6.823   5.549 -0.0908 -0.0330  0.0173
24033SOL    HW174991   1.718   6.781   5.623 -0.7554  0.3332 -0.1409
24033SOL    HW274992   1.841   6.774   5.535 -0.0227 -0.1786  0.8998
24034SOL     OW74993   8.260   1.513   4.247  1.0071 -0.0187  0.1050
24034SOL    HW174994   8.339   1.506   4.301  0.8272 -0.7957  0.2640
24034SOL    HW274995   8.223   1.425   4.245  1.1451 -0.0670 -1.4902
24035SOL     OW74996   2.270   0.567   8.673  0.0854  0.7516  0.2318
24035SOL    HW174997   2.315   0.498   8.624 -0.9520  1.0437 -1.2032
24035SOL    HW274998   2.221   0.521   8.741 -0.3683  0.0902 -0.5346
24036SOL     OW74999   6.417   6.698   6.329 -0.3841  0.4497 -0.2849
24036SOL    HW175000   6.499   6.676   6.373  0.1875  1.7386 -0.6581
24036SOL    HW275001   6.357   6.627   6.353  0.9019 -0.6538 -0.2272
24037SOL     OW75002   2.873   5.097   7.200 -0.0272 -0.9114  0.2661
24037SOL    HW175003   2.967   5.096   7.185 -0.0883 -0.6741 -0.1779
24037SOL    HW275004   2.848   5.189   7.185 -0.4458 -1.1295 -0.4412
24038SOL     OW75005   5.879   8.120   4.096 -0.4230 -0.5772 -0.2205
24038SOL    HW175006   5.816   8.190   4.115 -1.1100 -0.7522 -1.7312
24038SOL    HW275007   5.903   8.086   4.182 -1.4344  0.3287  0.4533
24039SOL     OW75008   7.313   2.298   6.963 -0.4223  0.2258  0.2685
24039SOL    HW175009   7.226   2.306   7.001 -0.0152  1.6291  0.9854
24039SOL    HW275010   7.362   2.242   7.023  0.1895  2.3545  1.8734
24040SOL     OW75011   3.371   1.766   6.184  0.1008 -0.3800 -0.2565
24040SOL    HW175012   3.428   1.700   6.144  1.5746  0.5451  0.2325
24040SOL    HW275013   3.378   1.751   6.278  0.0488  0.1269 -0.1647
24041SOL     OW75014   3.917   5.570   1.140 -0.4326 -0.6141  0.1472
24041SOL    HW175015   3.845   5.586   1.200 -0.7529  2.0239 -0.7765
24041SOL    HW275016   3.934   5.477   1.146 -1.2798 -0.6596  3.3357
24042SOL     OW75017   3.111   4.953   2.352 -0.2018  0.6822 -0.2540
24042SOL    HW175018   3.161   4.966   2.432  0.4212  0.2005 -0.5623
24042SOL    HW275019   3.094   5.042   2.320  1.1827  0.8489 -0.5959
24043SOL     OW75020   9.101   9.195   2.258 -0.1977  0.1370 -0.3077
24043SOL    HW175021   9.096   9.271   2.200 -1.8896 -0.7080 -1.3554
24043SOL    HW275022   9.010   9.176   2.280  0.2889 -0.7877  1.0090
24044SOL     OW75023   0.999   4.261   0.499  0.4196 -0.3198  0.0284
24044SOL    HW175024   1.010   4.355   0.512  1.1472 -0.0496 -2.1824
24044SOL    HW275025   0.907   4.251   0.474  1.1783  0.4087 -3.5870
24045SOL     OW75026   7.088   4.198   3.296  0.1700  0.0794  0.5462
24045SOL    HW175027   7.182   4.194   3.282 -0.0830  1.0022 -1.8553
24045SOL    HW275028   7.050   4.153   3.221 -1.3402  0.8785  0.7871
24046SOL     OW75029   4.655   3.448   4.450 -0.2826  0.9038  0.0557
24046SOL    HW175030   4.668   3.524   4.506 -1.7237  0.4920  1.0151
24046SOL    HW275031   4.741   3.430   4.413  0.0472  3.1149 -0.3854
24047SOL     OW75032   1.981   1.846   4.137 -0.2037  0.3642 -0.1599
24047SOL    HW175033   1.907   1.873   4.081 -0.4498  0.3228  0.1438
24047SOL    HW275034   1.949   1.859   4.226 -0.9475 -2.4904  0.0785
24048SOL     OW75035   6.903   9.134   6.241 -0.7735  0.1076  0.4332
24048SOL    HW175036   6.884   9.049   6.202  0.9828 -0.5546  0.9532
24048SOL    HW275037   6.995   9.130   6.267 -0.7403  2.0321  0.8200
24049SOL     OW75038   6.308   7.529   8.202 -1.0977 -0.0500  0.3353
24049SOL    HW175039   6.389   7.479   8.191 -0.8058  0.2291  1.1163
24049SOL    HW275040   6.245   7.486   8.144 -0.4818 -0.4710 -0.0339
24050SOL     OW75041   7.315   0.274   7.975  0.2038  0.6213 -0.5804
24050SOL    HW175042   7.366   0.335   8.028  0.0528 -0.0433  0.3434
24050SOL    HW275043   7.230   0.317   7.964 -0.5805 -0.1822  1.6806
24051SOL     OW75044   9.003   5.867   4.596 -0.2873  0.0988  0.4106
24051SOL    HW175045   8.935   5.929   4.572  0.7492  1.3637  0.6356
24051SOL    HW275046   8.991   5.853   4.690  0.5700  1.3892  0.7362
24052SOL     OW75047   6.356   2.627   4.781 -0.4166 -0.0099 -0.6235
24052SOL    HW175048   6.307   2.693   4.830 -0.5756 -1.3649  1.1633
24052SOL    HW275049   6.447   2.654   4.789 -0.5071  0.1582 -0.1530
24053SOL     OW75050   2.024   7.214   2.494  0.1847 -0.5922  0.3165
24053SOL    HW175051   1.986   7.218   2.406  0.0514  0.2711  0.4014
24053SOL    HW275052   1.952   7.239   2.553  0.3716 -0.8000  0.6348
24054SOL     OW75053   2.351   8.663   7.141  0.0742  0.4147 -0.3310
24054SOL    HW175054   2.377   8.643   7.051 -0.0805 -0.2032 -0.2386
24054SOL    HW275055   2.257   8.648   7.143 -0.4373  2.9847 -0.7580
24055SOL     OW75056   8.942   4.007   0.662  0.2689 -0.4542  0.5893
24055SOL    HW175057   8.979   3.929   0.620 -0.6042 -0.4506 -0.2297
24055SOL    HW275058   8.995   4.079   0.628  0.3710 -0.5793  0.4798
24056SOL     OW75059   5.958   7.143   4.546 -0.3477  0.8758 -0.1752
24056SOL    HW175060   5.890   7.090   4.506 -0.3218 -0.0461  0.9483
24056SOL    HW275061   6.008   7.179   4.473  0.2104 -1.3964 -0.9693
24057SOL     OW75062   9.097   0.760   6.451  0.1084 -0.6646  0.2185
24057SOL    HW175063   9.176   0.716   6.483 -0.2876 -1.8282 -0.3508
24057SOL    HW275064   9.030   0.691   6.449 -1.2529  0.5326  1.7581
24058SOL     OW75065   5.947   6.976   2.769  0.3108 -0.5002  0.1898
24058SOL    HW175066   5.856   6.994   2.793  0.5856  0.7971  0.3243
24058SOL    HW275067   5.969   6.895   2.815 -0.7885 -0.8745  0.0896
24059SOL     OW75068   1.010   5.035   1.412 -0.0438  0.5175  0.3854
24059SOL    HW175069   0.924   5.037   1.453  0.2520 -0.5180  1.0763
24059SOL    HW275070   1.051   4.955   1.445  0.8171  0.4939 -0.6800
24060SOL     OW75071   8.235   6.098   7.038  0.5292  0.0030  0.1713
24060SOL    HW175072   8.238   6.068   6.947  0.8752  1.0570 -0.1778
24060SOL    HW275073   8.216   6.191   7.032 -2.3286 -0.3859  1.2725
24061SOL     OW75074   6.516   1.353   8.985  0.3722 -0.1596 -0.0969
24061SOL    HW175075   6.522   1.449   8.986  0.6854 -0.1713  1.5685
24061SOL    HW275076   6.572   1.327   8.911 -0.0361  0.9413 -0.8251
24062SOL     OW75077   4.133   5.700   3.394  0.3277  0.9204  0.1161
24062SOL    HW175078   4.059   5.749   3.357  0.7433  1.3871 -0.0988
24062SOL    HW275079   4.167   5.650   3.320  2.2355  3.1456 -0.6202
24063SOL     OW75080   5.203   2.593   8.560  0.1346  0.2307  0.4031
24063SOL    HW175081   5.170   2.522   8.505 -0.1707 -0.3072  1.2601
24063SOL    HW275082   5.149   2.668   8.536 -0.3513 -0.1313  0.3449
24064SOL     OW75083   3.591   8.921   7.502 -0.0141 -0.7346 -0.1875
24064SOL    HW175084   3.517   8.868   7.529  0.1645 -0.9729 -0.1594
24064SOL    HW275085   3.601   8.904   7.408 -1.1639  0.7421 -0.6210
24065SOL     OW75086   8.941   1.745   2.316 -0.2389  0.2897  0.1691
24065SOL    HW175087   8.865   1.757   2.258 -0.7512 -0.7328  0.5899
24065SOL    HW275088   9.011   1.716   2.258 -0.6419 -0.3531 -0.0105
24066SOL     OW75089   6.551   0.871   1.616 -0.2299  0.4342 -0.3124
24066SOL    HW175090   6.636   0.914   1.607 -0.0429 -0.0132 -0.6693
24066SOL    HW275091   6.566   0.798   1.676 -0.3456  0.3079 -0.4348
24067SOL     OW75092   6.494   3.223   4.586  0.2601  0.3040  0.3392
24067SOL    HW175093   6.458   3.144   4.626  0.8655 -0.5013 -0.6584
24067SOL    HW275094   6.494   3.205   4.492  1.4333  1.0375  0.1743
24068SOL     OW75095   4.994   2.339   2.611 -0.0956 -0.1494  0.0800
24068SOL    HW175096   4.934   2.413   2.620  1.1099  0.8477  0.1793
24068SOL    HW275097   4.972   2.300   2.526 -0.3118  0.7229 -0.2704
24069SOL     OW75098   7.207   4.094   4.788  0.2721 -0.0951  0.0932
24069SOL    HW175099   7.277   4.094   4.854  0.6538 -1.7804 -0.2647
24069SOL    HW275100   7.238   4.034   4.720 -1.6639 -1.1706  0.0820
24070SOL     OW75101   8.495   0.809   4.617 -0.3661  0.0733  0.5250
24070SOL    HW175102   8.491   0.745   4.545  0.2657  0.8567 -0.2249
24070SOL    HW275103   8.485   0.756   4.696 -1.5172 -0.7614 -0.1399
24071SOL     OW75104   0.913   3.309   1.721  0.2312 -0.1082 -0.5123
24071SOL    HW175105   1.003   3.319   1.755  0.2012 -0.4291 -0.3365
24071SOL    HW275106   0.886   3.399   1.699  0.4565  0.0370 -0.2108
24072SOL     OW75107   9.185   9.029   4.855  0.4192 -0.0525 -0.4345
24072SOL    HW175108   9.221   9.117   4.868 -1.3736  0.5951  0.5214
24072SOL    HW275109   9.244   8.972   4.903 -0.8422  1.2139  2.9138
24073SOL     OW75110   0.728   9.158   5.234 -0.0265  0.4550  0.7030
24073SOL    HW175111   0.730   9.183   5.142 -0.1389  1.7667  1.0297
24073SOL    HW275112   0.815   9.179   5.267 -0.1879  0.6094  1.0382
24074SOL     OW75113   3.077   1.746   3.700  0.2923  0.2336  0.2679
24074SOL    HW175114   3.078   1.716   3.610 -0.8087  1.2037 -0.0853
24074SOL    HW275115   3.131   1.825   3.700  0.0305  0.4144  0.3888
24075SOL     OW75116   2.635   3.123   0.503 -0.0587  0.1618 -0.0465
24075SOL    HW175117   2.569   3.138   0.570  0.2681 -0.2985  0.3936
24075SOL    HW275118   2.586   3.104   0.423 -0.5264 -2.4517  0.7650
24076SOL     OW75119   2.631   8.311   8.083  0.2768  0.2394 -0.1748
24076SOL    HW175120   2.568   8.354   8.024  1.3232  0.3038 -1.2871
24076SOL    HW275121   2.587   8.309   8.168 -1.5263 -0.3840 -1.0794
24077SOL     OW75122   5.771   5.140   6.882 -0.0610  0.0145 -0.1531
24077SOL    HW175123   5.752   5.190   6.803  1.2368  1.6656  0.5326
24077SOL    HW275124   5.696   5.081   6.891 -0.8666  0.7066 -1.8764
24078SOL     OW75125   9.219   0.448   1.378 -0.2955 -0.0539 -0.6679
24078SOL    HW175126   9.227   0.396   1.299  1.9086 -0.2421 -0.4078
24078SOL    HW275127   9.241   0.388   1.449  0.0458  0.6556 -0.1528
24079SOL     OW75128   0.605   1.950   2.130  0.2951  0.9155  0.3538
24079SOL    HW175129   0.548   2.026   2.135 -1.1676 -0.0603 -0.6672
24079SOL    HW275130   0.642   1.942   2.218 -1.8758  1.0598  1.3503
24080SOL     OW75131   6.403   9.224   7.683 -0.1112 -0.3116  0.0127
24080SOL    HW175132   6.338   9.282   7.644 -1.1580 -1.3568  0.1432
24080SOL    HW275133   6.417   9.260   7.771  0.9757  1.0516 -0.6934
24081SOL     OW75134   7.818   7.155   2.962 -0.0804 -0.2825  0.2542
24081SOL    HW175135   7.797   7.165   3.055 -1.9044  1.5649 -0.2792
24081SOL    HW275136   7.913   7.168   2.958  0.0513 -0.4829  1.8600
24082SOL     OW75137   8.612   1.789   2.353 -0.2613  0.3191  0.3044
24082SOL    HW175138   8.544   1.856   2.358  0.1841  0.7463  0.9362
24082SOL    HW275139   8.691   1.833   2.385  0.8270  0.4724 -2.3707
24083SOL     OW75140   3.266   4.808   4.856  0.1151  0.1534 -0.3470
24083SOL    HW175141   3.231   4.803   4.768  2.1408 -0.6232 -1.1771
24083SOL    HW275142   3.359   4.788   4.846  0.1357 -1.4828  2.1696
24084SOL     OW75143   3.900   3.675   7.920 -0.1377 -0.0935 -0.3277
24084SOL    HW175144   3.842   3.702   7.991 -0.3106  1.1336 -0.9235
24084SOL    HW275145   3.983   3.654   7.963 -0.4483 -0.0459  0.3048
24085SOL     OW75146   0.678   4.744   1.550  0.4794  0.4785  0.4097
24085SOL    HW175147   0.669   4.724   1.643 -0.4118  1.8902  0.6730
24085SOL    HW275148   0.730   4.673   1.515  0.3402 -0.3967  1.8762
24086SOL     OW75149   1.568   0.517   6.958  0.5240 -0.4647  0.3122
24086SOL    HW175150   1.618   0.598   6.944  0.4020 -0.5930 -0.9745
24086SOL    HW275151   1.479   0.540   6.929  0.7762 -1.4187 -1.3350
24087SOL     OW75152   1.567   3.170   8.304  0.3072 -0.7110  0.5054
24087SOL    HW175153   1.617   3.176   8.222 -0.0895 -0.8533  0.2467
24087SOL    HW275154   1.499   3.237   8.294  0.5010 -0.4528  0.8957
24088SOL     OW75155   5.913   6.185   2.666  0.9571 -0.3341  0.0693
24088SOL    HW175156   5.820   6.174   2.645  1.1244 -0.7986 -0.4768
24088SOL    HW275157   5.958   6.122   2.609  1.3980 -2.5390  2.6279
24089SOL     OW75158   3.642   3.934   7.059  0.2706  0.5459  0.2932
24089SOL    HW175159   3.735   3.951   7.074  0.3801 -0.7441  1.2012
24089SOL    HW275160   3.604   3.929   7.147 -0.3544 -0.5176 -0.0215
24090SOL     OW75161   5.624   1.901   3.270  0.4490 -0.0237 -0.1367
24090SOL    HW175162   5.612   1.993   3.294  0.8462  0.0605 -0.2529
24090SOL    HW275163   5.582   1.893   3.185  1.2415  0.2829 -0.5674
24091SOL     OW75164   0.383   8.109   0.719  0.5262  0.4734 -0.2838
24091SOL    HW175165   0.346   8.147   0.639  0.4195 -0.6309 -0.7691
24091SOL    HW275166   0.404   8.019   0.696  1.3786  0.4092  0.6675
24092SOL     OW75167   5.406   3.167   7.552  0.4238 -0.1674  0.4075
24092SOL    HW175168   5.494   3.183   7.586  0.4075  1.0607 -0.0673
24092SOL    HW275169   5.366   3.254   7.547 -0.4484 -0.5915 -0.3506
24093SOL     OW75170   6.951   0.485   7.726 -0.1664 -0.5242 -0.3472
24093SOL    HW175171   7.031   0.504   7.676  0.1805 -0.3891  0.2521
24093SOL    HW275172   6.881   0.525   7.674  0.1803 -0.4346 -0.7553
24094SOL     OW75173   7.565   7.837   8.283  0.1561  0.3574 -0.2533
24094SOL    HW175174   7.651   7.808   8.252  0.6440 -1.1184  2.1614
24094SOL    HW275175   7.522   7.756   8.311 -1.0146  1.3401  0.9091
24095SOL     OW75176   3.829   0.076   7.433 -0.2667 -0.0761 -0.1834
24095SOL    HW175177   3.735   0.058   7.425 -0.4395  1.2032 -1.4575
24095SOL    HW275178   3.860   0.077   7.343  1.6915 -3.7077  0.2725
24096SOL     OW75179   3.260   0.950   5.819  0.4148  0.0696 -0.7042
24096SOL    HW175180   3.164   0.953   5.826  0.3758  0.9640 -1.3959
24096SOL    HW275181   3.290   0.957   5.910 -0.1701  0.3888 -0.5265
24097SOL     OW75182   7.394   0.254   8.369  0.3562  0.2449 -1.0641
24097SOL    HW175183   7.475   0.263   8.319 -0.6204  1.6883 -2.5036
24097SOL    HW275184   7.398   0.326   8.433 -0.0010  0.6389 -1.4792
24098SOL     OW75185   5.247   0.809   1.040 -0.7160 -0.3363 -0.3719
24098SOL    HW175186   5.327   0.771   1.003 -0.9367  0.1874 -1.4285
24098SOL    HW275187   5.269   0.901   1.055 -1.3261 -0.0106 -1.3660
24099SOL     OW75188   6.622   8.377   0.166  0.3873 -0.0847 -0.1909
24099SOL    HW175189   6.594   8.416   0.249 -0.8365  1.1607 -1.1279
24099SOL    HW275190   6.543   8.377   0.112  1.0844 -1.1388 -1.2697
24100SOL     OW75191   8.162   1.043   6.315 -0.7211 -0.6043  0.1818
24100SOL    HW175192   8.245   1.037   6.361  0.1442  0.1239 -1.2416
24100SOL    HW275193   8.169   1.122   6.261 -2.4303 -0.3786  0.2120
24101SOL     OW75194   4.591   8.002   1.902 -0.4449 -0.1379 -0.2324
24101SOL    HW175195   4.650   8.075   1.883 -0.6568  0.1356  0.1325
24101SOL    HW275196   4.648   7.925   1.909 -0.2875 -0.1351 -1.2836
24102SOL     OW75197   5.990   8.938   6.852 -0.3939 -0.3037  0.0158
24102SOL    HW175198   6.069   8.886   6.869  0.2948  0.4618 -0.7841
24102SOL    HW275199   5.984   8.942   6.757  0.3335  2.1736  0.0049
24103SOL     OW75200   9.014   8.215   1.272 -0.0792  0.3041  0.0670
24103SOL    HW175201   9.079   8.286   1.274  2.0241 -1.5079 -0.4337
24103SOL    HW275202   8.968   8.223   1.355 -0.3961  2.6505 -0.2584
24104SOL     OW75203   0.306   7.608   6.779  0.4894 -0.3640  0.4294
24104SOL    HW175204   0.298   7.702   6.762 -1.2241 -1.0273 -3.3979
24104SOL    HW275205   0.399   7.589   6.767  0.4078  0.4393 -2.0501
24105SOL     OW75206   4.270   5.523   1.519  0.6118 -0.6245 -0.9623
24105SOL    HW175207   4.339   5.459   1.502  0.2457 -0.7468 -2.0156
24105SOL    HW275208   4.267   5.577   1.441  2.8267  2.5372  0.9013
24106SOL     OW75209   7.958   7.377   3.869 -0.5322 -0.1504 -0.0803
24106SOL    HW175210   7.901   7.450   3.893 -0.3393  0.8751 -2.4311
24106SOL    HW275211   7.925   7.302   3.919 -2.1280  1.0541  0.7372
24107SOL     OW75212   4.477   3.418   4.886  0.0653  0.2241  0.1352
24107SOL    HW175213   4.562   3.458   4.871 -1.3211  2.3675 -3.0582
24107SOL    HW275214   4.485   3.329   4.852  0.8922  0.5645 -0.5962
24108SOL     OW75215   0.758   1.566   5.479  0.5000 -0.3394 -0.0532
24108SOL    HW175216   0.699   1.624   5.431  1.0517 -0.1244 -0.4912
24108SOL    HW275217   0.705   1.531   5.551  0.5193  1.7084  1.0045
24109SOL     OW75218   8.004   2.252   3.189  0.4735 -0.2495 -0.5018
24109SOL    HW175219   8.064   2.186   3.223 -0.6623  0.1764  2.6092
24109SOL    HW275220   8.030   2.262   3.097  2.7341 -2.6728 -0.2597
24110SOL     OW75221   6.444   4.481   4.133 -0.3979 -0.1527 -0.1750
24110SOL    HW175222   6.518   4.481   4.194 -0.1999 -0.6580 -0.4144
24110SOL    HW275223   6.473   4.536   4.060  0.3627 -1.5993 -1.0037
24111SOL     OW75224   4.104   2.105   1.553 -0.1816 -0.1759 -0.5785
24111SOL    HW175225   4.039   2.084   1.620  0.4465  0.3954  0.2322
24111SOL    HW275226   4.189   2.091   1.596  0.2513  1.7792 -0.6846
24112SOL     OW75227   2.327   1.120   5.515  0.5139 -0.4454  0.0988
24112SOL    HW175228   2.390   1.192   5.510 -0.2144  0.2102  0.2933
24112SOL    HW275229   2.250   1.158   5.557  0.1551 -1.3646  0.2987
24113SOL     OW75230   0.212   8.729   6.135 -0.0726  0.1253 -0.1034
24113SOL    HW175231   0.269   8.736   6.058 -1.6030  0.4182 -1.2778
24113SOL    HW275232   0.206   8.818   6.168 -0.2297  0.1768 -0.2703
24114SOL     OW75233   9.011   2.483   3.091  0.1865  0.0051 -0.4725
24114SOL    HW175234   9.000   2.575   3.115  1.5307  0.2448 -0.6882
24114SOL    HW275235   9.100   2.478   3.054  0.4689 -1.5390  0.3193
24115SOL     OW75236   7.624   0.839   6.165  0.3811  0.4360 -0.3140
24115SOL    HW175237   7.706   0.884   6.185  0.3072 -0.4175  2.2171
24115SOL    HW275238   7.561   0.872   6.229 -0.3215 -1.3643 -0.0062
24116SOL     OW75239   3.777   7.230   5.292  0.5873  0.3307 -0.8667
24116SOL    HW175240   3.731   7.168   5.235 -0.3297 -1.2067  1.4303
24116SOL    HW275241   3.710   7.292   5.320  0.8515  0.5867 -0.7945
24117SOL     OW75242   6.790   3.657   9.094  0.2071  0.4750  0.0434
24117SOL    HW175243   6.700   3.624   9.096  0.6137 -0.7183 -0.0901
24117SOL    HW275244   6.795   3.719   9.166 -1.1299  1.7125 -0.8871
24118SOL     OW75245   7.264   6.120   0.057 -0.6260 -0.6012 -0.2285
24118SOL    HW175246   7.256   6.032   0.020 -0.0184 -0.2161 -1.2907
24118SOL    HW275247   7.297   6.105   0.146 -0.2518 -1.4430 -0.4975
24119SOL     OW75248   3.173   5.202   5.693 -0.6543  0.1446  0.4894
24119SOL    HW175249   3.133   5.197   5.606  0.2647  1.9298 -0.0891
24119SOL    HW275250   3.100   5.198   5.754 -1.4549  0.3799 -0.4283
24120SOL     OW75251   2.431   8.898   4.354 -0.5756  0.1199 -0.7143
24120SOL    HW175252   2.447   8.967   4.290  1.3254  0.0717 -0.3516
24120SOL    HW275253   2.379   8.940   4.422 -0.2042  0.9521 -0.9347
24121SOL     OW75254   4.700   2.784   9.120 -0.3553 -0.3424 -0.2223
24121SOL    HW175255   4.766   2.718   9.101 -0.0778 -0.4096  0.9005
24121SOL    HW275256   4.617   2.736   9.116 -0.0991 -0.9776  1.4016
24122SOL     OW75257   8.897   2.456   3.327 -0.0236 -0.0355 -0.1989
24122SOL    HW175258   8.847   2.537   3.340  1.3815  0.8188  0.0819
24122SOL    HW275259   8.927   2.461   3.236 -0.6368 -0.6634 -0.4415
24123SOL     OW75260   0.676   1.497   5.743 -0.0040  0.5122 -0.0863
24123SOL    HW175261   0.674   1.564   5.811 -0.7589 -0.8351  1.2795
24123SOL    HW275262   0.765   1.461   5.746 -0.6280 -1.0602  1.8114
24124SOL     OW75263   7.095   8.507   5.269 -0.3943  0.4619 -0.0302
24124SOL    HW175264   7.077   8.570   5.200 -1.9088 -1.1247 -1.1443
24124SOL    HW275265   7.111   8.561   5.347  2.1072  2.3213 -1.6765
24125SOL     OW75266   8.127   3.262   4.300 -0.1699 -0.0983 -0.5519
24125SOL    HW175267   8.144   3.185   4.246 -1.4558 -1.6216  1.0866
24125SOL    HW275268   8.165   3.241   4.386  1.8775  2.2777 -0.7490
24126SOL     OW75269   1.123   2.945   5.678  0.0842  0.1763  0.2356
24126SOL    HW175270   1.074   2.883   5.733 -0.4986  1.0354  0.7156
24126SOL    HW275271   1.210   2.949   5.718  0.1522 -0.3908  0.1511
24127SOL     OW75272   1.132   7.482   7.794  0.1786  0.1535 -0.5604
24127SOL    HW175273   1.054   7.532   7.770 -0.7034 -0.4410  0.8988
24127SOL    HW275274   1.109   7.391   7.774 -0.7065 -0.4096  2.4682
24128SOL     OW75275   6.919   3.698   2.551 -0.0621  0.1778 -0.0305
24128SOL    HW175276   6.950   3.723   2.638 -0.5215  1.2856 -0.1764
24128SOL    HW275277   6.976   3.625   2.526  2.5419  2.1547 -0.3164
24129SOL     OW75278   1.212   5.537   7.071 -0.1410  0.3419 -0.6250
24129SOL    HW175279   1.170   5.585   7.143  0.8539 -0.0657  0.2488
24129SOL    HW275280   1.223   5.448   7.105  2.8014  0.7735 -0.2124
24130SOL     OW75281   5.980   1.580   0.358 -0.1109  0.7035 -0.5634
24130SOL    HW175282   6.016   1.649   0.303  0.0413  0.6911 -0.4801
24130SOL    HW275283   5.893   1.612   0.384  0.6393  1.6527  0.9200
24131SOL     OW75284   5.101   2.879   1.548  0.4735  0.3193 -0.2091
24131SOL    HW175285   5.164   2.813   1.577 -1.0911 -0.6612  1.1525
24131SOL    HW275286   5.145   2.962   1.561  1.1750 -0.2911  1.6325
24132SOL     OW75287   3.472   3.104   2.359  0.5087 -0.0801 -0.2330
24132SOL    HW175288   3.482   3.017   2.321  3.5610 -0.2148  0.6001
24132SOL    HW275289   3.386   3.102   2.401 -0.0010 -2.2517 -1.2556
24133SOL     OW75290   6.286   1.068   9.096 -0.0545 -0.1734 -0.7601
24133SOL    HW175291   6.297   1.159   9.123 -1.1085 -0.2624  0.0442
24133SOL    HW275292   6.214   1.070   9.033 -1.6080 -0.6783  0.9065
24134SOL     OW75293   2.742   5.358   7.932  0.5459  0.3937 -0.3125
24134SOL    HW175294   2.719   5.451   7.931  1.1727  0.5594 -1.7119
24134SOL    HW275295   2.728   5.331   8.023 -1.3633  1.4065 -0.2478
24135SOL     OW75296   8.467   3.099   4.003  0.0876 -0.3096 -0.0548
24135SOL    HW175297   8.482   3.130   3.914 -3.8651 -1.1390 -1.2438
24135SOL    HW275298   8.469   3.178   4.057  1.0718  0.4191 -1.1287
24136SOL     OW75299   7.360   7.625   2.639  0.0415  0.2288 -0.5213
24136SOL    HW175300   7.340   7.670   2.722  0.9613 -0.4731  0.1065
24136SOL    HW275301   7.306   7.546   2.641  1.8472 -1.0431  0.6005
24137SOL     OW75302   0.472   0.459   7.716  0.3500 -0.4092 -0.3468
24137SOL    HW175303   0.427   0.539   7.689  1.4198  0.2500 -0.2410
24137SOL    HW275304   0.565   0.480   7.707  0.6908 -0.9931  1.5181
24138SOL     OW75305   8.627   1.557   5.774  0.1504 -0.0243 -0.2525
24138SOL    HW175306   8.669   1.517   5.697 -0.6655 -0.2303 -0.6030
24138SOL    HW275307   8.568   1.623   5.737 -0.4597 -0.3221  0.1803
24139SOL     OW75308   6.865   1.353   3.827 -0.6605  0.0203  0.2047
24139SOL    HW175309   6.811   1.296   3.882  1.0881 -0.6873  1.2541
24139SOL    HW275310   6.886   1.299   3.751  1.5776 -1.1170  1.5161
24140SOL     OW75311   5.709   9.098   5.635  0.2559  0.5357 -0.4433
24140SOL    HW175312   5.718   9.153   5.557  0.6409  0.9758 -0.0967
24140SOL    HW275313   5.720   9.159   5.708 -1.1988  0.3196 -0.0214
24141SOL     OW75314   6.531   4.720   5.246  0.0095  0.4334 -0.0470
24141SOL    HW175315   6.521   4.815   5.250 -1.5371  0.3092 -0.1487
24141SOL    HW275316   6.442   4.687   5.257  0.5618 -1.0164  0.2361
24142SOL     OW75317   1.423   6.059   7.277 -0.1121 -0.3915  0.4960
24142SOL    HW175318   1.485   6.080   7.347  0.5263 -1.0186  0.1339
24142SOL    HW275319   1.407   5.965   7.287  0.6669 -0.6791 -0.7166
24143SOL     OW75320   6.917   4.246   4.955 -0.0226  0.5285 -0.4556
24143SOL    HW175321   7.012   4.261   4.949  0.2954 -1.2194 -0.3375
24143SOL    HW275322   6.909   4.160   4.997 -1.7052  1.3749  1.1264
24144SOL     OW75323   7.136   8.307   0.177 -0.2319  0.1137  0.5960
24144SOL    HW175324   7.047   8.279   0.196 -0.7647  1.1410 -0.2497
24144SOL    HW275325   7.131   8.403   0.176  1.1430  0.2300  1.7020
24145SOL     OW75326   5.840   1.947   6.834 -0.2228  0.3694 -0.0418
24145SOL    HW175327   5.903   1.877   6.822 -0.7296 -0.0346 -0.3945
24145SOL    HW275328   5.889   2.027   6.816  0.3398  0.1048  0.2965
24146SOL     OW75329   0.534   1.595   4.417 -0.2399 -0.5222  0.3118
24146SOL    HW175330   0.596   1.596   4.344 -0.0358  0.8192  0.4934
24146SOL    HW275331   0.479   1.672   4.403 -0.6503 -0.6424  1.2019
24147SOL     OW75332   4.201   0.050   7.503 -0.2522  0.0988  0.3498
24147SOL    HW175333   4.282   0.086   7.540 -0.2848  1.2235 -0.6225
24147SOL    HW275334   4.131   0.101   7.545 -0.4894 -0.9602  1.2876
24148SOL     OW75335   2.756   1.202   4.339 -0.4865 -0.3021  0.0042
24148SOL    HW175336   2.800   1.285   4.319 -0.0891 -1.0736 -2.7704
24148SOL    HW275337   2.667   1.214   4.307 -0.2202 -1.1449 -1.1158
24149SOL     OW75338   9.206   0.855   8.395  0.0908 -0.0463  0.1516
24149SOL    HW175339   9.269   0.927   8.397 -1.0681  0.9968  0.4458
24149SOL    HW275340   9.208   0.819   8.484  0.1485  0.0971  0.2092
24150SOL     OW75341   0.573   2.911   5.336  0.7357  0.0692 -0.0505
24150SOL    HW175342   0.509   2.956   5.281  0.0193  0.5071  1.1029
24150SOL    HW275343   0.598   2.834   5.285 -0.9717 -0.3012 -0.3978
24151SOL     OW75344   7.261   9.227   3.847  0.1614 -0.5259  0.4906
24151SOL    HW175345   7.246   9.133   3.834 -1.5255 -0.2835  0.4814
24151SOL    HW275346   7.316   9.253   3.773 -0.5751 -1.2369 -0.3313
24152SOL     OW75347   2.698   8.503   4.477  0.4129 -0.1136 -0.8027
24152SOL    HW175348   2.647   8.553   4.540  0.7664  1.1575 -1.4977
24152SOL    HW275349   2.685   8.548   4.393  0.3645 -1.4593 -1.5576
24153SOL     OW75350   3.071   1.403   3.611 -0.0287  0.5344  0.3858
24153SOL    HW175351   3.125   1.461   3.558  1.1910 -1.0254 -0.1575
24153SOL    HW275352   3.071   1.442   3.698  2.3092  0.4127  0.4990
24154SOL     OW75353   4.735   8.381   8.722 -0.3152 -0.3125  0.2636
24154SOL    HW175354   4.686   8.455   8.686 -2.0860 -2.1465 -1.4090
24154SOL    HW275355   4.703   8.372   8.812 -1.8505 -0.4217 -0.2590
24155SOL     OW75356   5.837   4.939   1.671 -0.6251  0.2922  0.3117
24155SOL    HW175357   5.771   4.932   1.740 -0.9010  1.2120  0.1557
24155SOL    HW275358   5.821   5.024   1.631 -1.1952 -0.6680 -1.6303
24156SOL     OW75359   0.800   3.793   9.065  0.3919  0.5129 -0.2525
24156SOL    HW175360   0.742   3.834   9.129  1.2833  0.0604  0.8840
24156SOL    HW275361   0.749   3.791   8.985 -0.1038  2.7915 -0.0782
24157SOL     OW75362   8.287   3.056   6.479  0.0090  0.2499  0.1558
24157SOL    HW175363   8.379   3.053   6.454  0.0588  1.5743  0.1109
24157SOL    HW275364   8.283   3.012   6.564  0.8979  1.2760  0.7451
24158SOL     OW75365   3.174   6.524   0.597  0.1054  0.1359  0.7094
24158SOL    HW175366   3.161   6.613   0.628 -1.8548 -0.7122  2.6405
24158SOL    HW275367   3.145   6.525   0.506 -0.8574  1.2853  1.0030
24159SOL     OW75368   5.822   4.702   9.123  0.3594  0.0195  0.0569
24159SOL    HW175369   5.841   4.686   9.216  3.9364 -0.4983 -0.6197
24159SOL    HW275370   5.866   4.631   9.077 -0.1695  1.0308 -2.1331
24160SOL     OW75371   2.523   2.043   6.498 -0.1094  0.4621 -0.1208
24160SOL    HW175372   2.489   2.041   6.587  0.6079  0.2852  0.1537
24160SOL    HW275373   2.604   1.993   6.502 -0.9908 -1.1277 -1.2758
24161SOL     OW75374   7.258   5.086   3.786 -0.4385 -0.0830  0.3317
24161SOL    HW175375   7.248   5.075   3.880 -1.7943  2.3191  0.5582
24161SOL    HW275376   7.310   5.166   3.776 -1.3984  0.4307 -0.9199
24162SOL     OW75377   4.164   5.689   2.013  0.4817  0.4077 -0.9293
24162SOL    HW175378   4.108   5.626   2.058  0.3339 -0.1423 -1.8628
24162SOL    HW275379   4.250   5.647   2.009  0.6340  0.6934 -0.6588
24163SOL     OW75380   7.890   3.435   8.084  0.5194 -0.7294  0.3224
24163SOL    HW175381   7.928   3.439   8.172  1.7824 -0.4230 -0.2021
24163SOL    HW275382   7.906   3.523   8.048  0.8751 -1.1421 -0.5424
24164SOL     OW75383   3.252   1.478   7.053  0.0599 -0.0486 -0.3330
24164SOL    HW175384   3.325   1.530   7.087 -0.8772  0.2813  1.2613
24164SOL    HW275385   3.270   1.389   7.081 -0.6208  0.1942  0.9755
24165SOL     OW75386   2.276   1.359   2.461 -0.3825 -0.2208 -0.2654
24165SOL    HW175387   2.187   1.344   2.428 -0.4564  0.1047 -0.2154
24165SOL    HW275388   2.318   1.273   2.455 -0.7592 -0.4186 -0.1045
24166SOL     OW75389   0.118   3.129   1.549 -0.5227 -0.4994  0.0540
24166SOL    HW175390   0.158   3.141   1.463  2.3371 -3.0012  0.8583
24166SOL    HW275391   0.162   3.193   1.605 -1.4713  0.2605 -0.0376
24167SOL     OW75392   2.282   3.787   4.550  0.1399  0.2873 -0.1878
24167SOL    HW175393   2.278   3.762   4.457  0.5072  1.6173 -0.5830
24167SOL    HW275394   2.341   3.723   4.590 -0.9882 -1.0642 -0.5855
24168SOL     OW75395   1.298   6.210   5.647 -0.3680 -0.1690  0.3265
24168SOL    HW175396   1.254   6.191   5.564  0.7143  0.2656 -0.3764
24168SOL    HW275397   1.375   6.153   5.647  2.3162  3.0736 -1.2857
24169SOL     OW75398   8.138   2.676   6.720  0.5511 -0.0574  0.5092
24169SOL    HW175399   8.233   2.680   6.706  0.5929  0.7305  0.9670
24169SOL    HW275400   8.113   2.766   6.739 -0.3326 -0.2191  0.1566
24170SOL     OW75401   1.154   2.779   7.908 -0.1428  0.4216  0.4722
24170SOL    HW175402   1.098   2.734   7.845 -0.4073  1.7174 -0.2564
24170SOL    HW275403   1.191   2.709   7.962 -0.2186 -0.6829 -0.8643
24171SOL     OW75404   3.184   0.718   8.342  0.8168  0.5907 -0.2616
24171SOL    HW175405   3.215   0.684   8.258 -0.7127  1.9047 -1.3856
24171SOL    HW275406   3.231   0.800   8.354 -0.2456  1.2791 -0.7027
24172SOL     OW75407   6.646   6.029   8.424  0.0332  0.0789  0.3271
24172SOL    HW175408   6.671   6.078   8.346  0.0462  1.4736  1.1784
24172SOL    HW275409   6.683   5.942   8.410  0.4160  0.4330 -1.0186
24173SOL     OW75410   8.650   7.879   0.457 -0.7287 -0.2913 -0.0367
24173SOL    HW175411   8.651   7.925   0.373 -1.7861 -0.7662 -0.3323
24173SOL    HW275412   8.731   7.827   0.457 -0.2559  0.4322 -0.3390
24174SOL     OW75413   4.531   2.370   7.498 -0.0785 -0.2075 -0.3725
24174SOL    HW175414   4.447   2.401   7.533 -0.3108  0.2898 -1.3279
24174SOL    HW275415   4.522   2.275   7.495 -0.5685 -0.1652 -0.3841
24175SOL     OW75416   3.793   4.296   3.049  0.3132  0.3503 -0.2508
24175SOL    HW175417   3.855   4.346   2.995 -1.4912 -0.3751 -3.2712
24175SOL    HW275418   3.707   4.331   3.023 -0.7319 -1.3403  0.8197
24176SOL     OW75419   4.800   1.549   0.377  0.1662  0.6768  0.3839
24176SOL    HW175420   4.792   1.641   0.352 -0.8200  0.3414 -0.6561
24176SOL    HW275421   4.753   1.501   0.308 -0.0104 -0.5429  1.3012
24177SOL     OW75422   2.569   2.559   5.566 -0.1399  0.6054 -0.5946
24177SOL    HW175423   2.532   2.620   5.630 -2.2343  0.1218 -1.2722
24177SOL    HW275424   2.656   2.595   5.546 -0.1580  1.7317  1.1658
24178SOL     OW75425   2.539   4.575   8.346 -0.7427 -0.0798 -0.5594
24178SOL    HW175426   2.507   4.529   8.268  0.8652 -0.7950 -0.8523
24178SOL    HW275427   2.572   4.505   8.403  0.8727  0.6166 -0.5861
24179SOL     OW75428   2.889   8.786   8.210  0.2871  0.2287 -0.1656
24179SOL    HW175429   2.904   8.735   8.131  0.1864  1.1641 -0.8066
24179SOL    HW275430   2.918   8.875   8.188  1.3364  0.2706  1.2176
24180SOL     OW75431   6.378   8.627   3.331  0.2906 -0.5594 -0.1145
24180SOL    HW175432   6.340   8.552   3.376  1.0800 -1.3202 -0.6682
24180SOL    HW275433   6.349   8.617   3.240 -1.2338  0.9168  0.1745
24181SOL     OW75434   7.976   1.811   8.853  0.0575 -0.2480 -0.8840
24181SOL    HW175435   8.064   1.786   8.824  0.3625  0.4513 -0.5898
24181SOL    HW275436   7.991   1.861   8.933 -0.4939  1.1938 -1.6423
24182SOL     OW75437   4.715   4.892   5.815 -0.0463 -0.5272 -0.4140
24182SOL    HW175438   4.717   4.917   5.908  2.8911  1.8434 -0.9600
24182SOL    HW275439   4.805   4.865   5.796 -0.5327 -0.7493 -2.6454
24183SOL     OW75440   8.664   0.018   5.460 -0.1735  0.2217 -0.3566
24183SOL    HW175441   8.591  -0.044   5.464 -0.4001  0.5542  2.2674
24183SOL    HW275442   8.632   0.089   5.404 -1.9875  0.4499  0.8626
24184SOL     OW75443   4.649   2.544   0.940  0.3641 -0.3180  0.1660
24184SOL    HW175444   4.592   2.611   0.977 -0.5714  0.7640 -2.9101
24184SOL    HW275445   4.738   2.573   0.961 -0.0903  0.4223  1.1472
24185SOL     OW75446   6.588   9.065   6.504  0.1753  0.1376 -0.7521
24185SOL    HW175447   6.666   9.062   6.560 -0.3573  1.2380  0.0900
24185SOL    HW275448   6.605   9.137   6.443  0.5704 -0.7878 -1.7815
24186SOL     OW75449   4.735   3.094   3.007 -1.1039 -0.2947 -0.1453
24186SOL    HW175450   4.792   3.076   3.081 -1.9631 -0.6553  0.4441
24186SOL    HW275451   4.680   3.166   3.036 -1.3141 -0.3065 -0.5069
24187SOL     OW75452   5.331   0.199   4.186  0.3701  1.4041 -0.3398
24187SOL    HW175453   5.416   0.226   4.221  1.0243 -0.2178 -0.5591
24187SOL    HW275454   5.342   0.105   4.168 -1.6995  0.9936  0.2990
24188SOL     OW75455   4.090   6.083   6.561  0.2959 -0.1337  0.7430
24188SOL    HW175456   4.085   5.998   6.517 -0.4115  0.4781 -0.4017
24188SOL    HW275457   4.184   6.098   6.574  0.4667 -0.7270  0.2171
24189SOL     OW75458   1.273   9.264   3.317 -0.1063 -0.2996 -0.1981
24189SOL    HW175459   1.233   9.244   3.232  1.3238  0.1341 -1.0042
24189SOL    HW275460   1.331   9.190   3.335  1.0901  0.5332 -0.5678
24190SOL     OW75461   5.898   8.605   1.575 -0.5182 -0.0432  0.0763
24190SOL    HW175462   5.854   8.559   1.504 -0.8608 -0.0151  0.2702
24190SOL    HW275463   5.948   8.536   1.620 -1.2125 -0.2762  0.5067
24191SOL     OW75464   0.481   6.139   8.636 -0.1345  0.5691  0.2737
24191SOL    HW175465   0.500   6.046   8.646 -0.1781  0.5947  0.6243
24191SOL    HW275466   0.527   6.165   8.557 -0.6730  0.0957 -0.2020
24192SOL     OW75467   7.109   7.777   8.099  0.5480 -0.4802  0.2291
24192SOL    HW175468   7.085   7.714   8.032 -0.3514 -0.3504  0.4071
24192SOL    HW275469   7.187   7.821   8.065  0.3351 -0.6865 -0.5452
24193SOL     OW75470   3.014   6.930   5.077  0.5446 -0.6297 -0.1628
24193SOL    HW175471   2.925   6.959   5.056  0.3809 -0.5357  0.6229
24193SOL    HW275472   3.027   6.957   5.168  1.0236 -1.5028  0.0335
24194SOL     OW75473   1.782   3.254   7.372  0.4783  0.1361  0.3044
24194SOL    HW175474   1.843   3.246   7.299 -0.2113 -0.9376 -0.1814
24194SOL    HW275475   1.802   3.179   7.429  0.5344  0.5618  0.8549
24195SOL     OW75476   6.714   4.334   7.427 -0.1491  0.2919  0.1294
24195SOL    HW175477   6.674   4.390   7.494 -0.7752  0.8079 -0.6673
24195SOL    HW275478   6.640   4.303   7.375  0.1572 -1.4596  0.6720
24196SOL     OW75479   2.925   7.809   8.685  0.4190  0.5262  0.0679
24196SOL    HW175480   2.916   7.749   8.611 -0.7797  1.1161 -0.2955
24196SOL    HW275481   2.957   7.754   8.756  0.6804 -0.2541 -0.6288
24197SOL     OW75482   1.526   2.381   4.402  0.3309 -0.1230  0.1275
24197SOL    HW175483   1.450   2.342   4.445  1.8193 -1.3992  1.7661
24197SOL    HW275484   1.532   2.469   4.439  0.2210 -0.3820  0.7872
24198SOL     OW75485   0.914   2.884   1.496  0.2869 -0.4543 -0.0288
24198SOL    HW175486   1.004   2.913   1.481  0.1477  0.4540  0.7491
24198SOL    HW275487   0.863   2.965   1.498 -0.2593 -0.8024  1.3490
24199SOL     OW75488   4.276   0.182   7.264 -0.0144 -0.1713 -0.0458
24199SOL    HW175489   4.235   0.130   7.333  0.9664  0.5665  1.1411
24199SOL    HW275490   4.315   0.257   7.310 -0.5426  1.1027 -1.5757
24200SOL     OW75491   2.068   8.125   0.990 -0.1877 -0.2281  0.0597
24200SOL    HW175492   2.015   8.201   1.012 -1.0195 -1.4952  2.9789
24200SOL    HW275493   2.023   8.084   0.915 -0.8190  1.0656 -0.2865
24201SOL     OW75494   5.647   6.905   5.546 -0.2228  0.2081  0.1083
24201SOL    HW175495   5.553   6.896   5.533 -0.2265  0.7607 -0.2790
24201SOL    HW275496   5.668   6.840   5.614 -1.0945  0.9198  1.1001
24202SOL     OW75497   0.833   7.267   4.872 -0.0975 -0.1635 -0.5652
24202SOL    HW175498   0.803   7.302   4.789  0.8849 -0.3359 -1.0047
24202SOL    HW275499   0.809   7.174   4.870 -0.6668 -0.0225 -0.3677
24203SOL     OW75500   2.937   5.202   8.963  0.1123 -0.1888  0.2466
24203SOL    HW175501   2.903   5.116   8.938  0.6030 -0.4755  0.5361
24203SOL    HW275502   3.032   5.194   8.953  0.0526  1.1540 -2.3227
24204SOL     OW75503   5.787   5.108   0.663  0.2282 -0.7813  0.2555
24204SOL    HW175504   5.857   5.159   0.622 -0.2434 -1.5142 -1.5663
24204SOL    HW275505   5.729   5.174   0.701  1.2772 -0.1229  0.7773
24205SOL     OW75506   2.373   8.898   2.948 -0.9520 -0.6416 -0.0833
24205SOL    HW175507   2.351   8.847   2.870 -0.3050 -0.5941 -0.3036
24205SOL    HW275508   2.369   8.989   2.920  2.8599 -0.6236 -1.1452
24206SOL     OW75509   5.659   4.655   2.114  0.3478  0.4889 -0.2209
24206SOL    HW175510   5.620   4.735   2.149  1.9420  0.6274  1.4422
24206SOL    HW275511   5.737   4.642   2.168 -0.5068 -2.8624  0.4082
24207SOL     OW75512   5.638   6.242   2.961  0.1208  0.2360 -0.1539
24207SOL    HW175513   5.610   6.333   2.970 -2.5686 -0.6254  1.4347
24207SOL    HW275514   5.567   6.200   2.913  1.4338 -1.0208 -1.0956
24208SOL     OW75515   6.550   3.313   7.260  0.6920 -0.2972  0.5826
24208SOL    HW175516   6.467   3.282   7.296 -0.8907  2.5867 -0.2351
24208SOL    HW275517   6.543   3.298   7.165  0.6838  0.7315  0.4036
24209SOL     OW75518   8.219   4.101   3.192 -0.3318 -0.1930 -0.0193
24209SOL    HW175519   8.180   4.142   3.115 -0.5712 -0.7024 -0.1749
24209SOL    HW275520   8.312   4.121   3.185 -0.3488 -0.2523 -0.4577
24210SOL     OW75521   7.735   5.108   1.759  0.4556  0.0705 -0.9811
24210SOL    HW175522   7.717   5.015   1.759 -0.1007  0.0967  1.5504
24210SOL    HW275523   7.664   5.147   1.708 -1.8933 -0.5953  1.5422
24211SOL     OW75524   7.067   8.773   2.456 -0.0188  0.1960 -0.2302
24211SOL    HW175525   7.028   8.812   2.378 -0.0751  0.4005 -0.0994
24211SOL    HW275526   7.148   8.733   2.424 -0.9404 -1.3509 -0.7570
24212SOL     OW75527   8.759   1.577   7.142  0.3384  0.2134 -0.8886
24212SOL    HW175528   8.687   1.518   7.118  1.2370 -2.1804  1.7081
24212SOL    HW275529   8.815   1.580   7.065 -0.9449 -0.4000 -1.8879
24213SOL     OW75530   4.662   9.113   3.704  0.3190 -0.0863  0.7782
24213SOL    HW175531   4.690   9.202   3.727  2.0090 -0.0035 -1.2969
24213SOL    HW275532   4.654   9.113   3.609  1.4143 -2.4099  0.5977
24214SOL     OW75533   7.906   6.996   2.207 -0.5735 -0.0023  0.1458
24214SOL    HW175534   7.936   7.081   2.175  1.4296 -1.0224 -0.8612
24214SOL    HW275535   7.826   7.016   2.256 -1.0104  2.2423 -1.3335
24215SOL     OW75536   7.323   6.572   8.527  0.0691  0.2746  0.0404
24215SOL    HW175537   7.266   6.563   8.450 -1.5780  0.6260  1.1700
24215SOL    HW275538   7.412   6.570   8.491 -0.6400 -0.0173 -1.8206
24216SOL     OW75539   1.497   3.421   2.172 -0.3588 -0.4721  0.0576
24216SOL    HW175540   1.442   3.494   2.200  0.5946  0.4562 -0.4099
24216SOL    HW275541   1.544   3.456   2.096  0.0152 -1.6246 -0.2476
24217SOL     OW75542   2.786   1.986   1.691 -0.1055  0.1685  0.0209
24217SOL    HW175543   2.760   2.069   1.650  0.2670  0.2034 -0.1547
24217SOL    HW275544   2.843   1.944   1.626  2.0362  1.0805  1.2007
24218SOL     OW75545   2.001   2.831   1.104  0.2227 -0.2117  0.0716
24218SOL    HW175546   1.924   2.798   1.058 -0.4952  0.6666  0.6305
24218SOL    HW275547   2.001   2.925   1.088  1.1937 -0.1958  0.0764
24219SOL     OW75548   1.833   7.909   2.597  0.5733 -0.0621 -0.0979
24219SOL    HW175549   1.764   7.975   2.611  1.3739  0.5701  0.9751
24219SOL    HW275550   1.830   7.856   2.677 -0.4491 -1.7252 -1.1917
24220SOL     OW75551   0.198   9.074   6.575 -0.1237  0.3231 -0.1139
24220SOL    HW175552   0.246   8.992   6.561 -1.2274 -0.2434 -0.7508
24220SOL    HW275553   0.266   9.139   6.589  0.8146 -0.5581 -0.4125
24221SOL     OW75554   6.241   3.990   1.401  0.1358 -0.0265  0.4102
24221SOL    HW175555   6.159   3.940   1.398 -0.9148  1.5316  1.5736
24221SOL    HW275556   6.306   3.931   1.362 -1.0189 -2.2765  1.6508
24222SOL     OW75557   5.000   2.376   3.972 -0.4053 -0.4359 -0.0180
24222SOL    HW175558   5.077   2.408   3.927 -0.3542  0.9356  0.9885
24222SOL    HW275559   5.034   2.329   4.048 -0.4493  3.1531  2.4627
24223SOL     OW75560   2.740   5.509   9.113 -0.0093  0.3330  0.2835
24223SOL    HW175561   2.768   5.512   9.021  1.4666  0.1553  0.6969
24223SOL    HW275562   2.645   5.499   9.109  0.2012 -1.6344 -1.2484
24224SOL     OW75563   5.034   0.143   9.070 -0.7224  0.3898  0.1672
24224SOL    HW175564   5.035   0.066   9.013 -2.2139  0.9898 -0.7305
24224SOL    HW275565   4.972   0.121   9.139 -0.4598  0.4383  0.4179
24225SOL     OW75566   6.318   8.179   5.786 -0.2290 -0.0262  0.8604
24225SOL    HW175567   6.248   8.124   5.821 -0.1825 -0.6704 -0.0227
24225SOL    HW275568   6.362   8.214   5.863 -1.7614  0.7199  1.4364
24226SOL     OW75569   5.781   8.536   3.327  0.1203 -0.2226 -0.4117
24226SOL    HW175570   5.850   8.518   3.390  1.5697  0.2382 -1.7997
24226SOL    HW275571   5.804   8.621   3.290 -0.7540 -0.4178 -1.4696
24227SOL     OW75572   4.513   0.399   2.995 -0.0025 -0.0849 -0.7839
24227SOL    HW175573   4.584   0.448   2.954 -1.3197  1.6284 -1.1106
24227SOL    HW275574   4.525   0.413   3.089 -0.3623  0.8589 -0.8761
24228SOL     OW75575   5.364   0.013   3.866 -0.1535 -0.4387 -0.3561
24228SOL    HW175576   5.427  -0.016   3.800 -0.0130 -0.4826 -0.2047
24228SOL    HW275577   5.287   0.039   3.816  0.6150  1.3091 -0.6878
24229SOL     OW75578   8.776   9.191   7.471 -0.0520  0.0653  0.5809
24229SOL    HW175579   8.860   9.159   7.503  0.2283  1.0644  0.8940
24229SOL    HW275580   8.798   9.249   7.398 -0.4825  0.1725  0.5298
24230SOL     OW75581   5.632   7.049   8.478  0.0143  0.0682 -0.5686
24230SOL    HW175582   5.662   6.972   8.528  2.3881  1.7186  0.7580
24230SOL    HW275583   5.610   7.114   8.545  0.5495  1.4046 -1.6395
24231SOL     OW75584   4.595   1.433   2.611 -0.3019  0.0553  0.0259
24231SOL    HW175585   4.633   1.520   2.606 -0.2875  0.3667  3.3817
24231SOL    HW275586   4.668   1.376   2.635 -0.8731 -0.3189  0.9201
24232SOL     OW75587   1.913   7.330   4.630  0.3698 -0.3753  0.4125
24232SOL    HW175588   1.870   7.401   4.581 -0.6673 -0.9957  0.4011
24232SOL    HW275589   1.884   7.250   4.586  1.0896 -0.8408  0.7702
24233SOL     OW75590   9.130   6.112   2.154  0.6549 -0.7028  0.6566
24233SOL    HW175591   9.126   6.181   2.219 -2.7171  0.4150 -0.5175
24233SOL    HW275592   9.121   6.031   2.204 -3.5329  0.1742  1.7009
24234SOL     OW75593   2.224   2.589   3.865  0.3031 -0.2886  0.4395
24234SOL    HW175594   2.139   2.605   3.824  0.3750 -0.9749  0.0071
24234SOL    HW275595   2.276   2.547   3.797  1.1279  0.4888  0.5739
24235SOL     OW75596   4.661   7.703   7.988  0.2342  0.4423 -1.0492
24235SOL    HW175597   4.569   7.704   8.015  0.2202 -0.9711 -0.9839
24235SOL    HW275598   4.690   7.793   8.001  0.1187  0.0588  3.2996
24236SOL     OW75599   1.278   3.436   4.665 -0.2061  0.7870 -0.5315
24236SOL    HW175600   1.261   3.458   4.756 -1.0010  0.0946 -0.5011
24236SOL    HW275601   1.353   3.376   4.669 -0.7116  0.1634 -0.2622
24237SOL     OW75602   1.691   5.487   4.074 -0.4818  0.0525 -0.2045
24237SOL    HW175603   1.707   5.509   3.982  2.1948  0.2760  0.2488
24237SOL    HW275604   1.713   5.394   4.081  0.0351  0.2122  0.3451
24238SOL     OW75605   2.123   7.190   6.586 -0.2153 -0.2420 -0.3067
24238SOL    HW175606   2.177   7.112   6.601  3.0669  2.1202  1.6729
24238SOL    HW275607   2.186   7.262   6.589 -3.0892  2.5290 -1.8209
24239SOL     OW75608   3.991   1.912   8.792 -0.0917 -0.0242 -0.3253
24239SOL    HW175609   4.068   1.930   8.738  0.3765  0.9750  0.6342
24239SOL    HW275610   4.014   1.834   8.843  0.4491  0.4783  0.2198
24240SOL     OW75611   2.528   7.971   0.831 -0.0295 -0.4168  0.0366
24240SOL    HW175612   2.527   7.968   0.735  0.9460 -0.2613  0.0122
24240SOL    HW275613   2.453   8.027   0.854  0.2522  0.2625 -0.6688
24241SOL     OW75614   6.381   3.895   4.758  0.3888 -0.6803  0.6624
24241SOL    HW175615   6.384   3.931   4.847  0.4776 -0.5859  0.6213
24241SOL    HW275616   6.419   3.964   4.703 -0.7388 -0.2505  0.3848
24242SOL     OW75617   8.938   3.166   1.401  0.5926 -0.7587  0.2623
24242SOL    HW175618   8.851   3.162   1.439  0.4345 -2.8781 -0.1594
24242SOL    HW275619   8.997   3.152   1.474  0.4363 -1.6378  0.2382
24243SOL     OW75620   1.805   5.063   2.386 -0.3372 -0.0892  0.3673
24243SOL    HW175621   1.789   5.081   2.294  0.4507  1.5601  0.5089
24243SOL    HW275622   1.895   5.030   2.389 -1.1260 -2.4417  0.3377
24244SOL     OW75623   9.061   3.565   3.669 -0.3058 -0.9451 -0.3474
24244SOL    HW175624   9.009   3.616   3.607  0.7145 -1.1101 -1.3706
24244SOL    HW275625   9.152   3.585   3.646  0.1186 -2.9885 -0.5757
24245SOL     OW75626   6.645   6.373   3.054 -0.0689  0.4123  0.3288
24245SOL    HW175627   6.552   6.365   3.033  0.0377  2.5588 -1.2854
24245SOL    HW275628   6.679   6.283   3.051 -1.6034 -0.1610 -1.4339
24246SOL     OW75629   6.443   5.102   0.730  0.5146  0.1185 -0.0884
24246SOL    HW175630   6.481   5.173   0.678  0.2957  0.4508  0.1974
24246SOL    HW275631   6.352   5.129   0.743  0.4802 -0.1248  0.1783
24247SOL     OW75632   7.511   0.119   2.845  0.2767 -0.1059  0.1520
24247SOL    HW175633   7.467   0.094   2.927  1.5453  2.0530  1.5803
24247SOL    HW275634   7.439   0.135   2.784 -0.8852  1.1538  1.7522
24248SOL     OW75635   1.460   5.591   2.948 -0.1361 -0.0600 -0.0781
24248SOL    HW175636   1.422   5.621   2.865  1.5785  1.6002 -0.3316
24248SOL    HW275637   1.538   5.542   2.921 -1.5467 -2.8167  0.4576
24249SOL     OW75638   0.593   7.868   1.543 -0.4378  0.1182 -0.2077
24249SOL    HW175639   0.675   7.894   1.586  0.5448  0.0939 -1.9427
24249SOL    HW275640   0.535   7.843   1.614  1.8782 -2.2034  1.0633
24250SOL     OW75641   1.413   1.554   1.781  0.0582  0.0723  0.3794
24250SOL    HW175642   1.391   1.606   1.704 -1.0585 -0.1563  0.5221
24250SOL    HW275643   1.373   1.468   1.764 -1.1714  0.3514  1.6748
24251SOL     OW75644   7.472   6.782   0.091 -0.4002 -0.2541 -0.4332
24251SOL    HW175645   7.408   6.712   0.080 -1.9046  0.7580  1.2740
24251SOL    HW275646   7.549   6.739   0.128 -0.9815 -1.1489 -0.2315
24252SOL     OW75647   0.429   4.960   0.958  0.0168 -0.7438  0.0791
24252SOL    HW175648   0.414   4.963   1.053  0.2361  0.4107  0.0873
24252SOL    HW275649   0.493   5.029   0.942 -1.2425  0.1836 -1.1253
24253SOL     OW75650   4.593   8.315   1.967  0.0057  0.4107 -0.5521
24253SOL    HW175651   4.667   8.369   1.994 -1.0018  0.7764  1.7259
24253SOL    HW275652   4.538   8.374   1.915  1.7334 -0.1682 -3.2718
24254SOL     OW75653   5.222   2.270   6.256 -0.2903  0.1761  0.0894
24254SOL    HW175654   5.295   2.268   6.194 -1.1523  0.9017 -0.9778
24254SOL    HW275655   5.189   2.180   6.258  0.4669 -0.1014  0.3861
24255SOL     OW75656   0.914   8.246   1.211 -0.4910  0.4252  0.3863
24255SOL    HW175657   0.837   8.207   1.253 -0.7580  0.4638 -0.0573
24255SOL    HW275658   0.916   8.207   1.123  0.9710 -0.8349  0.9552
24256SOL     OW75659   1.078   8.258   5.215  0.2106  0.0817  0.0587
24256SOL    HW175660   1.103   8.351   5.218  0.5550 -0.0118  0.1270
24256SOL    HW275661   1.024   8.251   5.137 -2.2126  0.9219  1.5608
24257SOL     OW75662   5.623   1.431   2.723  0.6347  0.3094 -0.0364
24257SOL    HW175663   5.561   1.483   2.773  0.2107  0.7630 -0.9965
24257SOL    HW275664   5.580   1.416   2.639  1.1294 -0.8210 -0.1187
24258SOL     OW75665   2.924   7.336   8.761 -0.0890 -0.5119 -0.1794
24258SOL    HW175666   2.851   7.361   8.704  0.2818  0.2058 -0.3636
24258SOL    HW275667   2.888   7.339   8.849 -0.3640 -0.4490 -0.2921
24259SOL     OW75668   6.151   2.912   5.977  0.0380 -0.0550  0.3796
24259SOL    HW175669   6.074   2.863   5.948  0.5296 -1.2357  1.0062
24259SOL    HW275670   6.139   2.921   6.072  0.5101  0.0500  0.4315
24260SOL     OW75671   1.141   7.968   1.091 -0.0717  0.0287  0.2233
24260SOL    HW175672   1.140   7.982   1.186  0.1228  0.5235  0.1529
24260SOL    HW275673   1.054   7.932   1.072  0.2800 -1.1505  0.7418
24261SOL     OW75674   1.533   5.722   0.154  0.2186  0.7715  0.6188
24261SOL    HW175675   1.622   5.748   0.177 -0.2789  2.8981  0.3229
24261SOL    HW275676   1.495   5.800   0.114 -1.2448 -0.6094 -0.8300
24262SOL     OW75677   0.340   5.540   1.839  0.5698  0.5480 -0.2596
24262SOL    HW175678   0.420   5.588   1.819  0.4853  1.0156  0.4838
24262SOL    HW275679   0.275   5.608   1.856 -0.0184  0.1714 -0.9629
24263SOL     OW75680   3.297   6.794   6.121 -0.0125  0.1282 -0.1060
24263SOL    HW175681   3.315   6.883   6.150  1.5307 -0.7362  1.8275
24263SOL    HW275682   3.290   6.743   6.201 -0.4022 -1.5937 -1.1694
24264SOL     OW75683   6.503   7.168   7.570 -0.4667  0.0701  0.6418
24264SOL    HW175684   6.449   7.124   7.636 -0.1627 -1.5053 -0.1204
24264SOL    HW275685   6.459   7.252   7.556 -1.5539 -0.3207  1.5187
24265SOL     OW75686   2.435   5.911   0.249 -0.0774 -0.4851 -0.2787
24265SOL    HW175687   2.526   5.887   0.233  0.2677 -0.1665  1.0263
24265SOL    HW275688   2.417   5.878   0.337 -0.9232  0.2563 -0.1542
24266SOL     OW75689   5.799   3.714   3.288  0.0300 -0.5058 -0.1079
24266SOL    HW175690   5.830   3.708   3.198 -0.4265 -0.3515 -0.2784
24266SOL    HW275691   5.819   3.805   3.314 -1.2133 -0.0816 -0.5732
24267SOL     OW75692   1.619   8.556   7.316 -0.0367  0.5183  0.3920
24267SOL    HW175693   1.549   8.529   7.257  0.1481  0.4436  0.2058
24267SOL    HW275694   1.595   8.519   7.401  0.8184 -1.2472 -0.0993
24268SOL     OW75695   1.501   4.502   1.784  0.5920  0.5757  0.2192
24268SOL    HW175696   1.451   4.579   1.811  0.8023  0.7025  0.2475
24268SOL    HW275697   1.514   4.514   1.690  0.9068  0.7411  0.2802
24269SOL     OW75698   2.304   3.956   4.165  0.2869  0.1040 -0.0454
24269SOL    HW175699   2.261   4.039   4.146  2.5870  0.8733 -2.6886
24269SOL    HW275700   2.381   3.980   4.217  0.4351 -0.4844  0.0129
24270SOL     OW75701   0.888   1.915   2.926 -0.3674  0.0737 -0.0099
24270SOL    HW175702   0.876   2.009   2.939  1.2551  0.3850 -0.5469
24270SOL    HW275703   0.953   1.909   2.856 -2.0822 -1.4773 -1.5678
24271SOL     OW75704   8.473   3.582   4.755  0.1607  0.2475 -0.0080
24271SOL    HW175705   8.518   3.589   4.839  1.2485  1.8475 -0.6693
24271SOL    HW275706   8.501   3.497   4.720  0.4227 -0.0253  0.8399
24272SOL     OW75707   6.288   3.613   3.161 -0.4639  0.4324  0.1479
24272SOL    HW175708   6.286   3.564   3.079 -1.3553 -1.2505  1.1238
24272SOL    HW275709   6.219   3.679   3.151 -1.0183 -0.1848 -0.2130
24273SOL     OW75710   4.764   2.552   5.695  0.5453 -0.1837  0.3065
24273SOL    HW175711   4.719   2.553   5.611  0.3032 -0.3294  0.4329
24273SOL    HW275712   4.709   2.604   5.753 -0.3292 -1.6836  0.8894
24274SOL     OW75713   6.375   9.137   4.223  0.2939  0.2593 -0.4612
24274SOL    HW175714   6.442   9.070   4.242 -0.1392  0.0441  0.3347
24274SOL    HW275715   6.297   9.086   4.202  0.1755  0.5197 -0.6440
24275SOL     OW75716   9.137   8.813   5.508 -0.3380 -0.7486  0.0111
24275SOL    HW175717   9.097   8.731   5.535 -1.2774  0.3239  2.1688
24275SOL    HW275718   9.110   8.825   5.417  1.6249 -3.8129 -1.1433
24276SOL     OW75719   2.709   8.355   4.836 -0.1295  0.4213 -0.1870
24276SOL    HW175720   2.678   8.360   4.746  0.5465  0.3290 -0.4330
24276SOL    HW275721   2.767   8.430   4.846 -1.0111  1.0291  0.5027
24277SOL     OW75722   0.664   3.950   8.170  0.0996  0.4657  0.9827
24277SOL    HW175723   0.712   4.014   8.224  0.1742  1.2451  0.0150
24277SOL    HW275724   0.730   3.885   8.146  0.2316  0.5074  1.2235
24278SOL     OW75725   7.275   5.571   8.023 -0.4189  0.3102  0.1999
24278SOL    HW175726   7.370   5.570   8.020 -0.4297 -1.4077 -1.3706
24278SOL    HW275727   7.250   5.485   8.056 -1.4234  0.1866 -0.8044
24279SOL     OW75728   4.500   8.374   5.374 -0.3342 -0.6505  0.7517
24279SOL    HW175729   4.418   8.334   5.345 -1.0637  1.1274  0.2547
24279SOL    HW275730   4.489   8.467   5.356  2.7011 -0.6110 -1.4873
24280SOL     OW75731   0.751   7.922   0.261 -0.0888  0.2130 -0.4606
24280SOL    HW175732   0.841   7.895   0.243 -0.5098 -1.4480 -0.1565
24280SOL    HW275733   0.755   7.963   0.348  0.4675  0.7034 -0.7105
24281SOL     OW75734   4.924   8.303   1.426 -0.0331  0.8118  0.3684
24281SOL    HW175735   4.882   8.242   1.488  0.5854  0.9119  0.8916
24281SOL    HW275736   4.931   8.385   1.474  0.8971  0.7552  0.3472
24282SOL     OW75737   6.348   7.196   7.237 -0.0713 -0.3295 -0.0559
24282SOL    HW175738   6.406   7.161   7.169 -1.9324 -1.0049 -1.3701
24282SOL    HW275739   6.285   7.126   7.253 -0.0525  0.0684  1.9383
24283SOL     OW75740   8.769   3.262   6.873 -0.7387  0.3842  0.4988
24283SOL    HW175741   8.858   3.289   6.896  0.7510 -3.1933 -0.3994
24283SOL    HW275742   8.746   3.195   6.937 -3.5690  2.3083  1.6935
24284SOL     OW75743   3.220   1.660   5.105 -0.0832 -0.2512 -0.0836
24284SOL    HW175744   3.198   1.567   5.109  1.1342 -0.5936 -0.7573
24284SOL    HW275745   3.175   1.699   5.179  0.5254 -1.6277  1.0562
24285SOL     OW75746   3.186   4.636   1.407 -0.3859 -0.1282  1.1100
24285SOL    HW175747   3.156   4.703   1.346 -1.0523 -0.3736  1.1541
24285SOL    HW275748   3.219   4.685   1.482  2.5175  0.2748 -0.2764
24286SOL     OW75749   3.457   6.286   3.545 -0.2791 -0.0532  0.6210
24286SOL    HW175750   3.487   6.307   3.457 -1.0077  0.8246  0.5656
24286SOL    HW275751   3.384   6.225   3.532 -1.0440  0.8523  0.5461
24287SOL     OW75752   1.624   2.552   3.325  0.0324 -0.2721 -0.5109
24287SOL    HW175753   1.609   2.482   3.389 -1.9395 -0.4947 -1.1576
24287SOL    HW275754   1.642   2.505   3.243 -0.2881 -0.0230 -0.7254
24288SOL     OW75755   5.524   3.278   1.107 -0.0697 -0.3110 -0.4522
24288SOL    HW175756   5.517   3.236   1.021 -0.9862 -0.0459 -0.5137
24288SOL    HW275757   5.574   3.215   1.160 -1.3731 -1.4923 -0.5575
24289SOL     OW75758   6.997   6.403   7.849 -0.0934  0.1224 -0.7050
24289SOL    HW175759   6.980   6.338   7.781  0.5719 -0.3192 -0.4569
24289SOL    HW275760   6.926   6.467   7.839 -0.1572 -0.0767 -1.6338
24290SOL     OW75761   0.954   1.401   0.035  0.1910 -0.0007 -0.6133
24290SOL    HW175762   1.023   1.463   0.011 -0.0769 -0.6484 -3.4846
24290SOL    HW275763   0.970   1.325  -0.022 -0.2908 -2.0456  1.8277
24291SOL     OW75764   5.233   2.757   0.776  0.2109 -0.5203 -0.8198
24291SOL    HW175765   5.263   2.730   0.689 -1.4119 -0.0505 -1.5690
24291SOL    HW275766   5.305   2.735   0.834  1.5035 -0.4904 -2.3452
24292SOL     OW75767   9.183   7.625   9.145  0.0726  0.6919 -0.2828
24292SOL    HW175768   9.158   7.640   9.054 -0.9952 -2.7812 -0.7224
24292SOL    HW275769   9.275   7.598   9.141  0.1120  0.8270 -0.2857
24293SOL     OW75770   7.289   2.834   8.891  0.0614  0.0155  0.0129
24293SOL    HW175771   7.266   2.925   8.911 -0.2080 -0.2759  1.1478
24293SOL    HW275772   7.206   2.786   8.898 -0.0845 -0.1068 -2.0793
24294SOL     OW75773   2.197   8.069   1.239  0.0459  0.4490  0.1157
24294SOL    HW175774   2.190   8.055   1.145  2.2124 -1.3240  0.1480
24294SOL    HW275775   2.124   8.019   1.276  0.9149 -1.3903 -0.5133
24295SOL     OW75776   3.823   3.671   8.309 -0.9358 -0.5583  0.2283
24295SOL    HW175777   3.773   3.589   8.309 -1.8626 -0.0202 -0.7391
24295SOL    HW275778   3.888   3.659   8.379 -0.6129 -2.3543 -0.3223
24296SOL     OW75779   5.211   6.152   5.811  0.4874  0.0371  0.1582
24296SOL    HW175780   5.166   6.152   5.896 -1.5928  0.6009 -0.8802
24296SOL    HW275781   5.217   6.244   5.787  2.4620 -0.0012  0.3291
24297SOL     OW75782   7.572   6.466   0.839 -0.6835 -0.0187 -0.4017
24297SOL    HW175783   7.663   6.492   0.850 -0.1541 -1.5116 -0.9946
24297SOL    HW275784   7.532   6.538   0.791 -0.3642  1.5971  1.6385
24298SOL     OW75785   3.429   5.815   7.413  0.1103 -0.7377  0.1182
24298SOL    HW175786   3.423   5.722   7.390 -0.2764 -0.6743 -0.0298
24298SOL    HW275787   3.340   5.848   7.406  0.3139 -0.2499 -0.2514
24299SOL     OW75788   4.194   6.124   5.548 -0.1947 -0.4162 -0.5496
24299SOL    HW175789   4.175   6.212   5.518 -0.8396 -0.2619  0.2846
24299SOL    HW275790   4.195   6.071   5.468  2.4942  0.6739 -1.3824
24300SOL     OW75791   0.268   1.151   0.466  0.2654  0.3451  0.3389
24300SOL    HW175792   0.342   1.202   0.498  0.4067  0.5156 -0.2615
24300SOL    HW275793   0.293   1.060   0.481  0.9106  0.3695 -0.5239
24301SOL     OW75794   1.367   1.501   6.012  0.1709 -0.3331  0.7647
24301SOL    HW175795   1.302   1.440   6.046 -0.1628  0.4009  1.4827
24301SOL    HW275796   1.448   1.450   6.009 -0.0945 -0.8099  1.3754
24302SOL     OW75797   5.409   0.954   2.631 -0.1568  0.0088  0.1434
24302SOL    HW175798   5.488   1.004   2.609  0.3801  0.2441  2.3744
24302SOL    HW275799   5.336   1.008   2.600  0.4984  0.7074 -0.2080
24303SOL     OW75800   6.745   9.220   0.474  0.3674 -0.4205  0.4486
24303SOL    HW175801   6.736   9.310   0.504  0.1055 -0.5874  0.8866
24303SOL    HW275802   6.746   9.168   0.554  2.1696 -0.6867  0.2890
24304SOL     OW75803   8.296   3.657   7.469  0.1420  0.5872  0.6813
24304SOL    HW175804   8.300   3.752   7.480  0.7859  0.5960  0.3776
24304SOL    HW275805   8.348   3.639   7.390 -0.9649  0.1075  0.0316
24305SOL     OW75806   7.631   0.637   7.137  0.4060 -0.5574 -0.4751
24305SOL    HW175807   7.539   0.664   7.130  0.4337  0.2543  1.6793
24305SOL    HW275808   7.676   0.687   7.068 -0.6718 -0.6341 -1.2640
24306SOL     OW75809   8.477   0.445   6.093 -0.6172 -0.1088 -0.0856
24306SOL    HW175810   8.570   0.435   6.113 -0.1655  3.1493 -0.1038
24306SOL    HW275811   8.436   0.368   6.133  1.9486 -1.1816  0.7026
24307SOL     OW75812   7.045   5.167   9.231 -0.1010  0.1922 -0.4644
24307SOL    HW175813   7.108   5.098   9.212  0.3271  0.1806  0.8693
24307SOL    HW275814   6.966   5.121   9.260 -1.0618  0.1754 -2.8926
24308SOL     OW75815   7.822   0.658   1.138 -0.1640  0.0444  0.0269
24308SOL    HW175816   7.850   0.587   1.196  0.6852  0.9233  0.7301
24308SOL    HW275817   7.898   0.673   1.081 -0.3804  0.2987 -0.1977
24309SOL     OW75818   8.278   2.801   2.006 -0.0224  0.4106 -0.2652
24309SOL    HW175819   8.323   2.782   1.924 -1.1074  2.4698 -1.4191
24309SOL    HW275820   8.196   2.842   1.980 -0.2623  1.4302  1.8426
24310SOL     OW75821   5.429   2.245   3.352 -0.3648 -0.1632 -0.0697
24310SOL    HW175822   5.469   2.297   3.422  0.5935  0.0704 -0.7587
24310SOL    HW275823   5.340   2.227   3.383  0.3175 -0.8632  1.6106
24311SOL     OW75824   2.466   8.443   6.095  0.7578  0.8105 -0.0727
24311SOL    HW175825   2.464   8.446   6.191 -1.8305  0.0603 -0.0322
24311SOL    HW275826   2.432   8.528   6.068  0.9851  0.8218 -0.3247
24312SOL     OW75827   2.046   0.653   7.271  0.5198  0.0085  0.3666
24312SOL    HW175828   2.115   0.589   7.291  0.7749  0.2226  0.1766
24312SOL    HW275829   2.030   0.642   7.178  0.6101  0.2672  0.3199
24313SOL     OW75830   4.793   2.532   2.876 -0.7774  0.0144  0.2819
24313SOL    HW175831   4.877   2.528   2.922 -0.1889  1.1116 -0.6431
24313SOL    HW275832   4.733   2.482   2.931  0.6171 -1.3140  0.6672
24314SOL     OW75833   7.279   0.018   3.334  0.7183 -0.0181  0.3035
24314SOL    HW175834   7.188   0.041   3.354  1.1214  2.0078 -0.0370
24314SOL    HW275835   7.317  -0.004   3.419  0.0523 -0.3475  0.5201
24315SOL     OW75836   5.245   3.334   3.107 -0.2364 -0.3618  0.5607
24315SOL    HW175837   5.330   3.297   3.130 -0.4985 -0.2908  1.6920
24315SOL    HW275838   5.196   3.260   3.071  0.6001 -0.2011 -1.0246
24316SOL     OW75839   0.669   8.419   7.074  0.5146 -0.2529 -0.3026
24316SOL    HW175840   0.638   8.472   7.001 -1.8638 -1.4759 -0.2780
24316SOL    HW275841   0.608   8.437   7.145  0.4756 -1.9367  0.1399
24317SOL     OW75842   3.939   4.500   9.182  0.1737  0.2892 -0.5585
24317SOL    HW175843   4.007   4.438   9.208  1.4056  2.1132  0.7682
24317SOL    HW275844   3.986   4.578   9.153 -1.3041  0.3134 -3.2419
24318SOL     OW75845   1.653   4.253   7.948 -0.3007 -0.2209 -0.7835
24318SOL    HW175846   1.706   4.319   7.902 -0.1897 -0.7941 -1.5009
24318SOL    HW275847   1.624   4.297   8.028  0.4207  0.4377 -0.8695
24319SOL     OW75848   0.180   0.304   6.507 -0.4594  0.6642 -0.2365
24319SOL    HW175849   0.084   0.304   6.513 -0.5538  2.3978 -1.2385
24319SOL    HW275850   0.206   0.389   6.542  0.8056 -0.0944  0.7604
24320SOL     OW75851   3.695   4.855   4.065 -0.4289 -0.1770 -0.3924
24320SOL    HW175852   3.779   4.810   4.067 -0.6309 -0.6926 -1.8872
24320SOL    HW275853   3.701   4.921   4.134  1.4343  0.2063 -0.8679
24321SOL     OW75854   2.714   8.984   7.345 -0.1028 -0.0633 -0.5930
24321SOL    HW175855   2.764   9.057   7.384 -0.5324 -0.3657  0.5660
24321SOL    HW275856   2.776   8.942   7.286  0.6603  0.2807 -0.0651
24322SOL     OW75857   2.544   2.402   6.589 -0.0873  0.2709  0.8335
24322SOL    HW175858   2.543   2.343   6.665  1.8501 -1.5981 -0.4670
24322SOL    HW275859   2.604   2.360   6.527 -0.1966  2.6366 -1.0215
24323SOL     OW75860   4.676   0.253   3.323 -0.2411  0.0767  0.1637
24323SOL    HW175861   4.650   0.195   3.251  0.4036 -0.1844  0.1304
24323SOL    HW275862   4.635   0.337   3.302  2.6674  1.0439 -2.4136
24324SOL     OW75863   9.187   8.201   2.649 -0.4817  0.0018  0.1098
24324SOL    HW175864   9.274   8.208   2.689 -0.2688 -1.6488  0.0060
24324SOL    HW275865   9.206   8.185   2.556 -0.9371  1.3191 -0.2255
24325SOL     OW75866   8.177   0.402   8.609  0.3695 -0.9322  0.0521
24325SOL    HW175867   8.115   0.410   8.682  1.5981 -0.1266  1.0697
24325SOL    HW275868   8.128   0.433   8.533 -0.2800  0.3691  0.9503
24326SOL     OW75869   8.477   6.761   3.975  0.2143  0.2357  0.4104
24326SOL    HW175870   8.385   6.771   4.001  0.0627 -0.5395  0.2229
24326SOL    HW275871   8.481   6.671   3.941  1.0579  0.2413  0.4937
24327SOL     OW75872   0.178   1.741   8.932  0.1585  0.4608  0.4479
24327SOL    HW175873   0.224   1.657   8.924  1.8204  1.2705  1.1021
24327SOL    HW275874   0.091   1.717   8.963  0.1915 -1.1102 -0.5410
24328SOL     OW75875   5.637   4.379   0.877 -0.5700  0.0296  0.6484
24328SOL    HW175876   5.704   4.400   0.941 -0.1091  0.1166  0.1408
24328SOL    HW275877   5.676   4.401   0.793 -1.2003 -0.0070  0.3422
24329SOL     OW75878   7.558   8.285   5.357  0.5202 -0.3926  0.3143
24329SOL    HW175879   7.591   8.375   5.352 -0.6121  0.1387  1.5816
24329SOL    HW275880   7.466   8.292   5.334  0.5541 -1.3435 -0.1595
24330SOL     OW75881   0.711   6.253   2.130 -0.3850 -0.2559 -0.4585
24330SOL    HW175882   0.750   6.193   2.193 -3.2098  0.0625  1.8084
24330SOL    HW275883   0.679   6.326   2.183 -2.5709  0.2118 -2.2780
24331SOL     OW75884   6.420   3.191   2.518  0.5134 -0.2787  0.3128
24331SOL    HW175885   6.461   3.271   2.485 -1.2763  0.4335 -0.2875
24331SOL    HW275886   6.408   3.207   2.611  1.0300 -0.2500  0.3777
24332SOL     OW75887   8.293   3.299   6.328  0.6186 -0.0582 -0.8446
24332SOL    HW175888   8.283   3.230   6.393 -0.6069  0.8407 -0.0322
24332SOL    HW275889   8.361   3.357   6.363  1.4694 -0.6925 -1.4070
24333SOL     OW75890   7.098   5.423   3.923  0.2653  0.0971 -0.0900
24333SOL    HW175891   7.048   5.499   3.892  2.0042  1.1921 -0.3834
24333SOL    HW275892   7.038   5.377   3.982 -0.8819  1.6576  0.0376
24334SOL     OW75893   5.952   4.239   5.247 -0.0437 -0.0573  0.1198
24334SOL    HW175894   6.009   4.298   5.197 -0.4116 -1.1857 -1.6979
24334SOL    HW275895   5.997   4.155   5.245 -2.1076 -1.2166 -2.1600
24335SOL     OW75896   0.103   2.718   4.319  0.4805  0.3007  0.3411
24335SOL    HW175897   0.064   2.649   4.266  2.0694 -2.0886  2.1025
24335SOL    HW275898   0.032   2.782   4.330 -1.3361 -1.4290 -0.6393
24336SOL     OW75899   9.101   1.734   8.027  0.2958 -0.4107  0.0478
24336SOL    HW175900   9.034   1.801   8.017 -0.3113 -0.9960  0.1937
24336SOL    HW275901   9.122   1.707   7.937 -1.0343 -1.5740  0.0624
24337SOL     OW75902   3.841   2.498   7.151  0.3738  0.4670  0.3621
24337SOL    HW175903   3.810   2.438   7.084  0.1466  0.6808  0.2702
24337SOL    HW275904   3.921   2.536   7.115 -0.0578  1.0154 -0.0487
24338SOL     OW75905   1.291   5.287   7.113  0.2368 -0.3235  0.0494
24338SOL    HW175906   1.336   5.270   7.030  1.0692 -3.1293  0.9680
24338SOL    HW275907   1.359   5.277   7.180 -0.4620  1.6617  1.1641
24339SOL     OW75908   2.067   8.580   7.449 -0.4815  0.0455 -0.7522
24339SOL    HW175909   2.124   8.615   7.517  1.2279 -0.2489 -1.9783
24339SOL    HW275910   2.043   8.492   7.481 -1.9052  0.8899  0.6648
24340SOL     OW75911   8.165   1.200   9.018 -0.1175 -0.0285  0.5913
24340SOL    HW175912   8.219   1.129   9.053 -0.7919  0.8904  3.8693
24340SOL    HW275913   8.227   1.261   8.979  0.7628 -0.9723  0.4761
24341SOL     OW75914   5.449   1.625   7.668 -0.3346 -0.0120 -0.2990
24341SOL    HW175915   5.385   1.681   7.624  0.3738  1.1118  0.0699
24341SOL    HW275916   5.407   1.539   7.670 -1.8183  0.6725 -0.1014
24342SOL     OW75917   5.154   8.865   9.064 -0.6002 -0.0331  0.2285
24342SOL    HW175918   5.151   8.769   9.065 -3.7468 -0.0505  0.9378
24342SOL    HW275919   5.138   8.889   8.973 -2.3783 -0.2760  0.4307
24343SOL     OW75920   1.261   8.068   5.052 -0.1838 -0.1536 -0.3617
24343SOL    HW175921   1.325   8.008   5.090 -0.6062 -0.1952  0.2974
24343SOL    HW275922   1.249   8.135   5.119 -3.8578 -2.2730  1.3545
24344SOL     OW75923   6.894   5.606   6.257 -1.0435 -0.5905 -0.0584
24344SOL    HW175924   6.825   5.540   6.269 -1.2341 -0.5498 -0.8528
24344SOL    HW275925   6.881   5.637   6.167 -0.2087 -0.3269 -0.0923
24345SOL     OW75926   3.603   0.234   2.449  0.0682 -0.1158 -0.3285
24345SOL    HW175927   3.663   0.307   2.434  1.9762 -1.6929 -0.6805
24345SOL    HW275928   3.575   0.208   2.361  0.8991 -1.0060 -0.3373
24346SOL     OW75929   2.545   6.482   3.065 -0.5074 -0.3603  0.1996
24346SOL    HW175930   2.545   6.503   3.158 -1.8377 -1.6955  0.5385
24346SOL    HW275931   2.572   6.390   3.061  3.1095  0.5810 -1.0587
24347SOL     OW75932   4.901   8.510   1.583 -0.0704  0.2657  0.3633
24347SOL    HW175933   4.959   8.525   1.658 -0.6024  0.4935  0.7411
24347SOL    HW275934   4.813   8.504   1.622 -0.3607  0.4366 -0.2492
24348SOL     OW75935   4.534   0.569   1.780 -0.0956 -0.2646  0.1566
24348SOL    HW175936   4.602   0.549   1.844 -1.2335  0.3439  1.6013
24348SOL    HW275937   4.489   0.485   1.766 -0.9381 -0.0607  1.5012
24349SOL     OW75938   8.362   0.236   3.618 -0.0150 -0.2995 -0.0937
24349SOL    HW175939   8.343   0.221   3.525 -2.8738 -1.4597  0.5800
24349SOL    HW275940   8.303   0.307   3.643  0.4848 -0.2289  0.9256
24350SOL     OW75941   5.261   1.981   8.351  0.0256  0.5086  0.1667
24350SOL    HW175942   5.234   1.896   8.387  0.9376  0.3061  0.3999
24350SOL    HW275943   5.347   1.964   8.311  2.7764  2.2918  4.6033
24351SOL     OW75944   1.813   5.343   2.422  0.4806  0.0061 -0.1006
24351SOL    HW175945   1.719   5.347   2.406  0.8077  0.8184 -2.2303
24351SOL    HW275946   1.836   5.251   2.416  0.0660 -0.0272 -1.5130
24352SOL     OW75947   7.996   0.123   8.430  0.0088  0.1675  0.4786
24352SOL    HW175948   8.091   0.110   8.437 -0.2455 -1.0204  2.3821
24352SOL    HW275949   7.964   0.119   8.520 -2.0291 -0.9530 -0.2296
24353SOL     OW75950   3.500   9.072   3.299 -0.4491 -0.3522  0.1178
24353SOL    HW175951   3.546   9.013   3.239 -2.4440 -1.4396 -0.4096
24353SOL    HW275952   3.568   9.132   3.330  1.1818 -1.4891 -1.0990
24354SOL     OW75953   8.805   5.744   5.799  0.0132 -0.0439 -0.6142
24354SOL    HW175954   8.711   5.726   5.798  0.1727 -0.9257 -1.0659
24354SOL    HW275955   8.814   5.826   5.847 -1.2748  1.6494 -3.0246
24355SOL     OW75956   8.559   8.990   0.801 -0.5171  0.0304  0.5384
24355SOL    HW175957   8.502   9.020   0.730 -0.8525 -0.9955  0.3580
24355SOL    HW275958   8.625   9.059   0.809  1.4300 -1.2141 -2.9015
24356SOL     OW75959   7.491   8.107   1.566 -0.6151 -0.2870 -0.3280
24356SOL    HW175960   7.574   8.069   1.539 -0.9226 -1.6178  0.5414
24356SOL    HW275961   7.459   8.151   1.487 -0.2400 -1.8387 -1.3839
24357SOL     OW75962   1.904   0.833   8.097  0.6972  0.7518  0.3667
24357SOL    HW175963   1.936   0.919   8.070 -0.0418  1.2214  0.9743
24357SOL    HW275964   1.906   0.781   8.016  1.0460  1.3604 -0.0266
24358SOL     OW75965   6.145   8.900   0.623  0.1572 -0.0641  0.1659
24358SOL    HW175966   6.114   8.911   0.534 -0.5157  1.5641  0.5625
24358SOL    HW275967   6.191   8.982   0.642  1.5052 -0.9400  0.8584
24359SOL     OW75968   5.398   4.569   0.471 -0.3903 -0.5486  0.5285
24359SOL    HW175969   5.360   4.487   0.501  0.9423 -1.3745  0.0593
24359SOL    HW275970   5.455   4.598   0.542 -0.3465 -0.3692  0.4229
24360SOL     OW75971   6.803   2.459   9.144  0.5575  0.3798  0.0423
24360SOL    HW175972   6.784   2.503   9.226  1.9578  1.5244 -0.2042
24360SOL    HW275973   6.891   2.488   9.121  1.1987 -1.8832 -0.6092
24361SOL     OW75974   6.168   2.393   8.672 -0.5071 -0.2858 -0.0737
24361SOL    HW175975   6.235   2.459   8.692 -0.5587 -0.5600  1.0689
24361SOL    HW275976   6.216   2.309   8.674 -0.7631 -0.4277  0.1420
24362SOL     OW75977   7.134   7.569   6.299 -0.1397 -0.6316 -0.1584
24362SOL    HW175978   7.046   7.600   6.275 -0.4452 -2.3301 -1.4095
24362SOL    HW275979   7.191   7.609   6.234 -0.3001 -1.2524 -0.6928
24363SOL     OW75980   8.920   2.023   9.166 -0.6581  0.5002  0.3765
24363SOL    HW175981   9.011   2.039   9.142  0.1636 -2.4166  1.2494
24363SOL    HW275982   8.897   1.942   9.121 -3.4538  2.0390 -1.2348
24364SOL     OW75983   0.356   5.749   3.539 -0.2000 -0.1744 -0.1636
24364SOL    HW175984   0.385   5.840   3.544 -2.4045  0.7069 -1.9503
24364SOL    HW275985   0.335   5.735   3.447 -3.2712 -1.3451  0.6038
24365SOL     OW75986   0.993   4.556   0.461  0.2305 -0.0021  0.1067
24365SOL    HW175987   0.908   4.593   0.439 -0.3303  0.0276  2.1376
24365SOL    HW275988   1.047   4.632   0.482 -0.4562 -0.1419  2.7051
24366SOL     OW75989   4.103   4.194   5.024  0.1388  0.0862 -0.3356
24366SOL    HW175990   4.183   4.213   5.072 -0.0067  0.0850 -0.0903
24366SOL    HW275991   4.040   4.258   5.057 -0.0955 -0.2246 -0.1733
24367SOL     OW75992   1.780   6.421   7.163  0.1557 -0.5082  0.5791
24367SOL    HW175993   1.822   6.373   7.091  0.5971 -0.0270  0.5122
24367SOL    HW275994   1.835   6.498   7.176 -0.6366  0.0762  0.5763
24368SOL     OW75995   8.761   1.577   0.136  0.0480  0.2511 -0.0288
24368SOL    HW175996   8.818   1.653   0.123 -0.2617  0.8786  1.9280
24368SOL    HW275997   8.712   1.597   0.216 -1.6456 -1.0589 -0.6802
24369SOL     OW75998   1.712   7.670   4.132 -0.5431  0.2089 -0.2658
24369SOL    HW175999   1.800   7.672   4.171 -1.1185 -0.6759  1.1390
24369SOL    HW276000   1.703   7.582   4.097 -1.2636 -0.0558  0.5601
24370SOL     OW76001   2.454   3.279   2.216  0.0910  0.1886  0.1458
24370SOL    HW176002   2.410   3.193   2.220  0.6433 -0.0775  0.5823
24370SOL    HW276003   2.382   3.342   2.222 -0.2537 -0.2428  0.7124
24371SOL     OW76004   3.551   8.271   3.205 -0.4051 -0.1053  0.1763
24371SOL    HW176005   3.522   8.180   3.194 -1.4389 -0.1749  2.6579
24371SOL    HW276006   3.480   8.313   3.255  1.7498  0.9311  2.5977
24372SOL     OW76007   6.597   4.318   4.436  0.0627 -0.0338 -0.2806
24372SOL    HW176008   6.618   4.411   4.438 -0.4270  0.1111 -1.1738
24372SOL    HW276009   6.662   4.279   4.377 -1.4019  0.2419 -2.1941
24373SOL     OW76010   7.642   5.479   3.705  0.0593 -0.2074 -0.3393
24373SOL    HW176011   7.703   5.553   3.705  0.7689 -0.7734 -0.1392
24373SOL    HW276012   7.558   5.516   3.731  1.0249  0.0771  2.9255
24374SOL     OW76013   1.214   1.599   5.564  0.3613  0.0296  0.7099
24374SOL    HW176014   1.145   1.568   5.505  1.6458  0.8689 -1.3712
24374SOL    HW276015   1.237   1.522   5.616 -0.8391 -0.7560  0.1418
24375SOL     OW76016   4.703   8.047   5.978 -0.3575 -0.6135 -0.6539
24375SOL    HW176017   4.647   8.122   5.958  0.4058 -0.1063 -0.9271
24375SOL    HW276018   4.764   8.080   6.045  0.9593 -0.5074 -1.8475
24376SOL     OW76019   2.329   5.622   4.590 -0.1798 -0.1550 -0.4060
24376SOL    HW176020   2.322   5.703   4.540 -0.3114  0.8801  1.2458
24376SOL    HW276021   2.239   5.599   4.613 -0.2517 -1.3597 -1.6893
24377SOL     OW76022   2.820   5.988   9.192  0.0333  0.3176  0.0705
24377SOL    HW176023   2.848   5.946   9.110 -0.4602  0.8011 -0.3572
24377SOL    HW276024   2.762   6.058   9.163  1.0900  1.5153  0.7402
24378SOL     OW76025   7.802   2.838   0.215  0.5159 -0.6019  0.1852
24378SOL    HW176026   7.781   2.794   0.298 -0.7125 -2.7602 -1.1470
24378SOL    HW276027   7.798   2.768   0.150 -2.7072  1.5761 -2.3245
24379SOL     OW76028   5.340   8.005   0.261  0.2484  0.5527 -0.2006
24379SOL    HW176029   5.258   8.048   0.236 -0.2668 -0.3202 -0.0650
24379SOL    HW276030   5.391   8.000   0.180 -0.8414 -1.0489 -0.8375
24380SOL     OW76031   8.995   2.382   2.537  0.1818 -0.3921 -0.5705
24380SOL    HW176032   9.062   2.375   2.605 -2.9109  0.4941  2.9092
24380SOL    HW276033   8.972   2.291   2.517 -1.5032 -0.8179  2.6767
24381SOL     OW76034   7.695   5.780   4.071 -0.4565 -0.0395  0.1490
24381SOL    HW176035   7.691   5.692   4.034  1.3528  0.2602 -0.8687
24381SOL    HW276036   7.640   5.776   4.149 -1.8522 -1.5632 -0.8586
24382SOL     OW76037   8.759   1.230   7.107 -0.4844 -0.3078  0.1065
24382SOL    HW176038   8.697   1.297   7.080  1.5006  1.6462  0.0898
24382SOL    HW276039   8.738   1.214   7.199 -0.5112  0.9484  0.3391
24383SOL     OW76040   7.667   1.287   3.782  0.0450 -0.1202 -0.0207
24383SOL    HW176041   7.589   1.318   3.828 -0.6948 -1.1927 -0.5174
24383SOL    HW276042   7.639   1.279   3.691  2.0526  3.9888 -1.2287
24384SOL     OW76043   6.675   7.461   5.111  0.1325  0.7876  0.0033
24384SOL    HW176044   6.673   7.508   5.027  1.0565  0.6077 -0.1267
24384SOL    HW276045   6.671   7.369   5.087  1.1720  0.7051  0.1054
24385SOL     OW76046   4.112   7.058   1.070  0.6652 -0.1173  0.3027
24385SOL    HW176047   4.031   7.006   1.075 -0.5296  1.7441  2.0834
24385SOL    HW276048   4.159   7.037   1.151  2.1205 -1.3236 -0.8056
24386SOL     OW76049   7.157   6.697   6.001 -0.3672 -0.0578  0.3819
24386SOL    HW176050   7.182   6.789   6.012  0.1656 -0.4082  2.4679
24386SOL    HW276051   7.063   6.695   6.020 -0.2382 -0.0377  1.0487
24387SOL     OW76052   5.681   9.183   7.544 -0.6760  0.2663  0.3398
24387SOL    HW176053   5.592   9.201   7.514 -0.9836 -1.3569  0.1370
24387SOL    HW276054   5.677   9.192   7.639 -1.1744 -0.2088  0.3676
24388SOL     OW76055   4.688   8.431   4.374  0.2779 -0.9083  0.1612
24388SOL    HW176056   4.610   8.484   4.357 -0.0311 -1.1753  0.7477
24388SOL    HW276057   4.720   8.408   4.286  0.6197  0.5200 -0.1274
24389SOL     OW76058   6.725   5.850   3.188  0.0076 -0.2479  0.5468
24389SOL    HW176059   6.700   5.819   3.275 -0.8460 -0.0295  0.3953
24389SOL    HW276060   6.710   5.775   3.131 -1.5534  0.2539  0.2613
24390SOL     OW76061   2.156   7.602   2.880 -0.6336 -0.5437 -0.1972
24390SOL    HW176062   2.111   7.683   2.857  0.3774  0.0896 -0.0035
24390SOL    HW276063   2.169   7.558   2.796 -0.6522 -0.2235 -0.3689
24391SOL     OW76064   2.051   5.975   5.433  0.5105 -0.2973  0.3943
24391SOL    HW176065   2.118   5.945   5.372  0.7642  0.0410  0.5046
24391SOL    HW276066   1.979   5.913   5.422 -0.4607  1.1093 -2.0214
24392SOL     OW76067   0.352   2.216   8.356 -0.0058  0.3017  0.6765
24392SOL    HW176068   0.362   2.270   8.434  2.4453 -0.6665  1.1034
24392SOL    HW276069   0.326   2.130   8.390 -0.6878  0.3352  0.2609
24393SOL     OW76070   1.518   0.264   1.373 -0.2790  0.2747  0.7334
24393SOL    HW176071   1.612   0.257   1.357 -0.3328  1.3419 -0.2388
24393SOL    HW276072   1.479   0.196   1.318 -0.0316 -0.8780  1.9489
24394SOL     OW76073   4.393   7.250   4.187 -0.0663 -0.3812 -0.4769
24394SOL    HW176074   4.442   7.257   4.106  1.2904 -1.1527  0.2487
24394SOL    HW276075   4.429   7.319   4.243 -0.8409  0.0053 -0.4408
24395SOL     OW76076   1.996   5.070   1.940  0.2085  0.2011 -0.2106
24395SOL    HW176077   2.012   5.107   1.854  1.1871  2.2340  0.7981
24395SOL    HW276078   2.067   5.007   1.953 -0.1689 -0.4085 -1.0193
24396SOL     OW76079   6.123   7.880   2.109 -0.0622  0.4771  0.5161
24396SOL    HW176080   6.092   7.818   2.175  0.8130 -1.3401 -0.6853
24396SOL    HW276081   6.071   7.861   2.031  1.0637  0.3772 -0.2345
24397SOL     OW76082   2.732   1.995   5.632  0.5897  0.4550 -0.2136
24397SOL    HW176083   2.825   2.008   5.649  0.1027  2.3983  1.2644
24397SOL    HW276084   2.710   2.061   5.566  0.0698  0.6605  0.1570
24398SOL     OW76085   1.968   4.322   4.202  0.3148  0.4164 -0.3720
24398SOL    HW176086   2.034   4.343   4.137  0.2766 -0.0495 -0.5699
24398SOL    HW276087   1.935   4.236   4.176  1.6997 -0.7307  1.3598
24399SOL     OW76088   6.054   2.597   4.468 -0.0606 -0.2705 -0.7267
24399SOL    HW176089   6.036   2.655   4.394  0.0926 -1.4434 -1.7324
24399SOL    HW276090   6.141   2.622   4.498 -0.4375  0.7306 -0.4210
24400SOL     OW76091   8.978   0.377   1.664 -0.1940 -0.6029 -0.7349
24400SOL    HW176092   8.890   0.343   1.676 -0.6362  0.5758 -0.5468
24400SOL    HW276093   9.017   0.320   1.596 -1.6413 -0.1474 -1.9951
24401SOL     OW76094   4.441   2.342   0.172 -0.2663  0.7693  0.0174
24401SOL    HW176095   4.490   2.359   0.092 -1.0918  0.7473 -0.4973
24401SOL    HW276096   4.375   2.278   0.147 -1.2679  1.6166  0.4347
24402SOL     OW76097   0.179   8.873   3.959  0.4165 -0.5072  0.0645
24402SOL    HW176098   0.179   8.809   4.030 -0.0206 -0.6243 -0.0402
24402SOL    HW276099   0.138   8.828   3.885  0.1432 -0.1243 -0.0235
24403SOL     OW76100   0.664   2.564   0.258  1.0230 -0.0804 -0.1206
24403SOL    HW176101   0.583   2.514   0.264  0.4341  0.7618 -0.8039
24403SOL    HW276102   0.648   2.642   0.311  1.7542 -0.3639  0.5383
24404SOL     OW76103   2.891   4.898   5.032  0.0145  0.5652 -0.1654
24404SOL    HW176104   2.943   4.954   4.974  0.3434  0.0570 -0.3677
24404SOL    HW276105   2.935   4.813   5.029 -1.0983 -0.0003 -0.6983
24405SOL     OW76106   4.740   1.891   7.979 -0.3254 -1.5189  0.2883
24405SOL    HW176107   4.805   1.852   8.037 -0.2449 -0.4386  0.9534
24405SOL    HW276108   4.677   1.932   8.038 -0.1549 -0.2548 -0.3769
24406SOL     OW76109   2.995   5.000   0.375 -0.5167  0.0848 -0.2970
24406SOL    HW176110   3.082   4.971   0.401 -0.1200  1.4556 -0.0001
24406SOL    HW276111   2.953   5.028   0.456 -0.7782  0.5463 -0.5844
24407SOL     OW76112   1.955   6.572   4.826 -0.1708  0.1646 -0.4343
24407SOL    HW176113   1.916   6.510   4.887  1.4582 -0.3819  0.1190
24407SOL    HW276114   2.045   6.582   4.857 -0.6288  3.6698  0.1700
24408SOL     OW76115   4.397   3.205   0.798 -0.0958 -0.2276  0.3320
24408SOL    HW176116   4.487   3.225   0.773 -0.2633 -0.1193 -0.2092
24408SOL    HW276117   4.351   3.289   0.791 -0.1758 -0.2253  0.8844
24409SOL     OW76118   0.511   0.074   6.323 -0.6457  0.0084 -0.3279
24409SOL    HW176119   0.582   0.016   6.297 -0.8194 -0.8850  1.0743
24409SOL    HW276120   0.445   0.063   6.255  0.0589 -0.0571 -1.0183
24410SOL     OW76121   6.783   7.910   7.985 -0.0932 -0.1477 -0.1189
24410SOL    HW176122   6.782   7.904   7.889 -0.6506 -0.0888 -0.1172
24410SOL    HW276123   6.858   7.966   8.005  0.9231 -1.3315 -0.4542
24411SOL     OW76124   7.274   6.984   5.260 -0.3462 -0.3850  0.0548
24411SOL    HW176125   7.193   6.970   5.212 -0.5835 -1.1722  0.6570
24411SOL    HW276126   7.280   6.908   5.319  0.5559 -0.0689  0.3837
24412SOL     OW76127   3.440   5.331   2.263 -0.1039 -0.3692  0.1931
24412SOL    HW176128   3.382   5.354   2.336  0.2849 -1.1572  0.7635
24412SOL    HW276129   3.496   5.261   2.298 -1.8765 -2.9623 -1.6964
24413SOL     OW76130   3.956   6.923   2.244  0.6123 -0.0336  0.0767
24413SOL    HW176131   3.977   7.005   2.199  0.6903 -1.1652 -2.0300
24413SOL    HW276132   4.037   6.900   2.290  0.6282  0.9912  0.5910
24414SOL     OW76133   5.145   8.655   0.287  0.3503 -0.1957  0.2043
24414SOL    HW176134   5.053   8.670   0.309  0.6069  0.3129  0.9687
24414SOL    HW276135   5.145   8.637   0.193 -0.5579 -0.4813  0.2532
24415SOL     OW76136   4.414   6.819   0.731  0.5094 -0.6465 -0.5611
24415SOL    HW176137   4.365   6.812   0.813  0.0154  0.0238 -0.7902
24415SOL    HW276138   4.467   6.739   0.728  0.6442 -0.6148  0.4779
24416SOL     OW76139   6.397   9.156   6.057 -0.0609 -0.3171 -0.1753
24416SOL    HW176140   6.472   9.112   6.017  0.4080 -0.8071  1.1797
24416SOL    HW276141   6.434   9.237   6.093  0.0085 -0.9122  1.1539
24417SOL     OW76142   7.741   4.223   8.529  0.5298 -0.3441  0.2863
24417SOL    HW176143   7.734   4.127   8.533 -1.4747 -0.2427  0.0300
24417SOL    HW276144   7.829   4.242   8.563  1.9702 -2.4205 -1.9170
24418SOL     OW76145   5.179   7.425   7.268  0.2651 -0.0680 -0.0358
24418SOL    HW176146   5.238   7.439   7.194  0.4059 -0.7949 -0.0720
24418SOL    HW276147   5.101   7.385   7.231  0.6275 -1.1088  0.2897
24419SOL     OW76148   5.422   8.904   7.245  0.6954  0.4257  0.3911
24419SOL    HW176149   5.437   8.983   7.194 -1.6822  0.3153 -0.5947
24419SOL    HW276150   5.466   8.835   7.197  0.7174  0.7631 -0.0758
24420SOL     OW76151   3.860   3.051   2.319  0.3518  0.5297 -0.0830
24420SOL    HW176152   3.911   3.038   2.399  0.8322 -1.8455 -0.6961
24420SOL    HW276153   3.793   2.982   2.322 -0.5874  1.3738 -1.0008
24421SOL     OW76154   4.824   0.134   7.256  0.0738  0.1260  0.1072
24421SOL    HW176155   4.745   0.084   7.275 -0.1144 -0.2876 -1.5831
24421SOL    HW276156   4.889   0.067   7.233  0.3891  0.5516 -0.2540
24422SOL     OW76157   8.568   8.862   3.026 -0.1184 -0.1494 -0.1690
24422SOL    HW176158   8.651   8.909   3.021 -0.0570 -0.2690 -0.2765
24422SOL    HW276159   8.507   8.917   2.977  0.1248 -0.5449 -0.9297
24423SOL     OW76160   7.537   1.321   1.739 -0.3886 -0.1516 -0.5392
24423SOL    HW176161   7.589   1.251   1.700  0.1040 -1.2182  1.8901
24423SOL    HW276162   7.548   1.395   1.679  1.3030 -1.3068 -1.7425
24424SOL     OW76163   2.015   7.411   8.529  0.1003  0.0414  0.3567
24424SOL    HW176164   1.927   7.423   8.564 -0.7763 -1.1063 -1.3262
24424SOL    HW276165   2.031   7.489   8.476 -0.6776 -0.5505 -0.7942
24425SOL     OW76166   7.669   6.260   5.281 -0.5795 -0.0021 -0.0717
24425SOL    HW176167   7.662   6.267   5.186 -1.7271  1.8971  0.0964
24425SOL    HW276168   7.585   6.294   5.314 -0.3235 -0.8709  1.6228
24426SOL     OW76169   5.183   6.023   0.900 -0.5827 -0.3388  0.4175
24426SOL    HW176170   5.172   6.078   0.978  0.3739 -1.9274  1.7573
24426SOL    HW276171   5.094   6.006   0.870 -1.0777 -0.8857  2.0786
24427SOL     OW76172   2.249   3.381   2.970  0.5074 -0.5640 -0.1714
24427SOL    HW176173   2.182   3.449   2.972 -0.1023 -1.0944 -1.3706
24427SOL    HW276174   2.227   3.323   3.044  1.3525  0.7900  1.1978
24428SOL     OW76175   9.079   5.341   3.539 -0.2987  0.7330  0.2077
24428SOL    HW176176   9.090   5.329   3.633  1.6557 -3.0883 -0.3084
24428SOL    HW276177   9.150   5.400   3.514  0.3542  0.2833  0.9368
24429SOL     OW76178   4.068   6.677   6.972 -0.2288  0.0108  0.2957
24429SOL    HW176179   4.122   6.730   6.914 -2.0705  1.2192 -0.4201
24429SOL    HW276180   4.049   6.598   6.922  0.3781 -0.1560  0.3232
24430SOL     OW76181   1.849   0.340   0.199  0.1207 -0.7278 -0.1214
24430SOL    HW176182   1.912   0.366   0.131  0.5576 -1.2389  0.0857
24430SOL    HW276183   1.777   0.301   0.151  0.9643 -2.2037 -0.2394
24431SOL     OW76184   8.128   8.634   5.291  0.8950  0.0877 -0.4623
24431SOL    HW176185   8.053   8.575   5.291  0.0034  1.1918 -0.2911
24431SOL    HW276186   8.099   8.709   5.240  1.7314  0.7252 -0.0226
24432SOL     OW76187   5.847   6.208   1.701 -0.7074 -0.4845 -0.1583
24432SOL    HW176188   5.911   6.159   1.649 -0.4871 -1.7195  1.1833
24432SOL    HW276189   5.852   6.297   1.668  1.1257 -0.7213 -0.6457
24433SOL     OW76190   2.163   2.610   8.388  0.0383  0.3977  0.1064
24433SOL    HW176191   2.099   2.647   8.328 -0.2936  1.6328  1.1584
24433SOL    HW276192   2.124   2.623   8.475  1.3650  0.4857  0.7145
24434SOL     OW76193   3.341   1.233   7.173 -0.3515  0.4279  0.3498
24434SOL    HW176194   3.421   1.189   7.203 -1.3006 -2.0307 -0.5004
24434SOL    HW276195   3.301   1.266   7.254  0.0952 -0.8572  1.1421
24435SOL     OW76196   9.148   1.699   0.942  0.1184 -0.5645  0.0350
24435SOL    HW176197   9.077   1.634   0.934 -0.9295  0.2549  1.9212
24435SOL    HW276198   9.180   1.687   1.031 -0.8258  2.1615  0.8266
24436SOL     OW76199   0.457   4.683   2.347 -0.3507 -0.0576  0.4132
24436SOL    HW176200   0.417   4.687   2.434 -2.8743  1.9252 -0.7080
24436SOL    HW276201   0.384   4.667   2.288  0.9027  1.1303 -1.5473
24437SOL     OW76202   7.296   2.059   8.580  0.7537  0.5738 -0.0158
24437SOL    HW176203   7.284   2.081   8.487  1.7057  0.5923 -0.1424
24437SOL    HW276204   7.313   2.143   8.623  0.3438  0.5614  0.1757
24438SOL     OW76205   1.974   0.272   0.751  0.2007  0.2548  0.6641
24438SOL    HW176206   2.003   0.320   0.673 -0.8444  1.8152  1.1860
24438SOL    HW276207   2.053   0.226   0.781  1.2260  1.5325  0.0454
24439SOL     OW76208   0.249   8.397   6.526  0.0109 -0.6204  0.4018
24439SOL    HW176209   0.302   8.403   6.605 -1.6043  2.4176  1.4164
24439SOL    HW276210   0.160   8.418   6.556 -1.0067 -1.3353 -1.9178
24440SOL     OW76211   4.838   6.521   4.509  0.5260  0.2342  0.3995
24440SOL    HW176212   4.855   6.428   4.494  1.0327  0.5291 -1.1259
24440SOL    HW276213   4.806   6.526   4.598 -1.9137 -1.7226 -0.2628
24441SOL     OW76214   7.141   1.657   0.285 -0.5348  0.2206  0.0184
24441SOL    HW176215   7.181   1.723   0.228  0.0307 -1.9456 -2.3073
24441SOL    HW276216   7.147   1.693   0.373  0.8362  2.6880 -0.9947
24442SOL     OW76217   3.989   4.727   8.162 -0.5049  0.2620 -0.0468
24442SOL    HW176218   4.031   4.643   8.180 -0.3786  0.3309 -0.0166
24442SOL    HW276219   3.903   4.704   8.127 -0.5824  0.1224  0.2317
24443SOL     OW76220   1.189   8.912   1.293 -0.0759  0.1150  0.4277
24443SOL    HW176221   1.227   8.870   1.370  0.7999 -1.9470 -1.0318
24443SOL    HW276222   1.244   8.884   1.221 -2.5093 -0.3711 -1.3598
24444SOL     OW76223   6.311   5.148   3.225  0.2716  0.1385  0.5104
24444SOL    HW176224   6.347   5.174   3.310  0.1760  0.7422  0.3750
24444SOL    HW276225   6.278   5.059   3.238  0.6856  0.0499  0.9749
24445SOL     OW76226   6.003   6.095   1.507  0.3590 -0.1946  0.0218
24445SOL    HW176227   6.044   6.010   1.490 -0.0049 -0.3146 -0.2663
24445SOL    HW276228   6.032   6.149   1.433 -0.8454 -0.5805 -0.7531
24446SOL     OW76229   3.336   3.826   3.896 -0.8473  0.9220  0.3017
24446SOL    HW176230   3.348   3.790   3.808 -1.1373 -0.4171  0.7858
24446SOL    HW276231   3.252   3.872   3.892 -0.9383  0.7308 -0.0773
24447SOL     OW76232   8.489   4.189   1.780  0.0515 -0.5122 -0.0719
24447SOL    HW176233   8.393   4.192   1.771 -0.0791 -0.7302  1.0410
24447SOL    HW276234   8.511   4.097   1.764  0.0185 -0.5557  0.1297
24448SOL     OW76235   4.975   8.708   1.392 -1.2537 -0.2988 -0.3124
24448SOL    HW176236   4.922   8.653   1.450 -1.2859 -0.0476 -0.1025
24448SOL    HW276237   5.043   8.743   1.449 -1.7181  0.5360 -0.2576
24449SOL     OW76238   1.950   8.207   2.553 -0.5264 -0.0190 -0.5017
24449SOL    HW176239   1.860   8.176   2.548  0.1521 -2.1876 -0.4042
24449SOL    HW276240   1.943   8.299   2.578 -2.7454  0.3803 -2.3029
24450SOL     OW76241   0.152   9.128   0.379 -0.2678  0.1111  0.1583
24450SOL    HW176242   0.220   9.092   0.437 -0.3121 -0.7515 -0.3057
24450SOL    HW276243   0.088   9.167   0.439  0.3484  0.4220  0.6260
24451SOL     OW76244   7.190   2.955   6.898 -0.1453 -0.2972  0.7367
24451SOL    HW176245   7.095   2.966   6.899 -0.4048 -1.7596 -0.9925
24451SOL    HW276246   7.218   2.998   6.817  0.1748 -2.5811 -0.4521
24452SOL     OW76247   4.272   7.172   7.717  0.3485 -0.4874 -0.1632
24452SOL    HW176248   4.210   7.125   7.661 -0.5791  0.4798  0.0206
24452SOL    HW276249   4.324   7.225   7.656 -0.5268  0.4109 -0.1545
24453SOL     OW76250   0.616   1.334   4.216  0.0473 -0.0473 -0.1673
24453SOL    HW176251   0.532   1.302   4.183 -2.2645  1.7534  3.3028
24453SOL    HW276252   0.668   1.254   4.230 -1.6777 -1.3704 -0.9391
24454SOL     OW76253   5.872   4.617   3.902  0.3412 -0.1437 -0.0402
24454SOL    HW176254   5.902   4.672   3.830  0.1029  0.0679  0.0207
24454SOL    HW276255   5.913   4.532   3.886  0.9594  0.1396  0.0402
24455SOL     OW76256   8.792   0.472   4.590 -0.0570  0.8743 -0.1887
24455SOL    HW176257   8.843   0.553   4.592 -0.8099  1.4069 -1.1886
24455SOL    HW276258   8.855   0.404   4.565  0.7423  0.9895  1.3785
24456SOL     OW76259   8.299   2.208   7.819 -0.1972 -0.3682 -0.1937
24456SOL    HW176260   8.282   2.276   7.883  1.0008  0.4593 -0.7057
24456SOL    HW276261   8.257   2.238   7.739 -0.6895 -0.8242 -0.1118
24457SOL     OW76262   4.392   1.646   1.769 -0.3969 -0.7324  0.2831
24457SOL    HW176263   4.303   1.637   1.804 -1.9426  1.2054 -2.7530
24457SOL    HW276264   4.415   1.558   1.739 -1.6813 -1.0895  0.2748
24458SOL     OW76265   2.884   5.846   8.970 -0.1705 -0.3795 -0.4816
24458SOL    HW176266   2.813   5.797   8.928 -0.6172 -0.0653 -0.1143
24458SOL    HW276267   2.931   5.888   8.898 -0.8075  0.0002 -0.6837
24459SOL     OW76268   3.877   0.285   3.832 -0.0496 -0.4122 -0.5233
24459SOL    HW176269   3.883   0.377   3.859  1.1889 -0.6214  0.0157
24459SOL    HW276270   3.831   0.287   3.748  1.3984  0.8743 -1.3361
24460SOL     OW76271   3.309   6.378   2.785  0.4132  0.3289  0.4222
24460SOL    HW176272   3.380   6.438   2.762  0.8973  0.0476  1.1489
24460SOL    HW276273   3.320   6.362   2.879 -2.0377  2.1498  1.1267
24461SOL     OW76274   6.463   6.772   8.681 -0.3221  0.1966  0.3648
24461SOL    HW176275   6.417   6.760   8.598 -0.0576  0.5086  0.1716
24461SOL    HW276276   6.486   6.683   8.709 -1.7476 -0.0360  0.8720
24462SOL     OW76277   8.929   4.433   5.478 -0.3370  0.9755  0.0841
24462SOL    HW176278   8.951   4.506   5.421 -0.1307  1.3835  0.6835
24462SOL    HW276279   8.845   4.400   5.444 -1.1148  2.3217  0.6143
24463SOL     OW76280   2.692   6.218   3.046  0.3811 -0.3499 -0.0908
24463SOL    HW176281   2.744   6.138   3.051  1.8409  0.5689 -0.0156
24463SOL    HW276282   2.740   6.275   2.986  0.4167  1.1936  1.3108
24464SOL     OW76283   8.678   7.860   0.181 -0.3640  0.6182 -0.3279
24464SOL    HW176284   8.632   7.869   0.098 -0.9514 -0.3930 -0.1224
24464SOL    HW276285   8.708   7.770   0.182  1.0708  1.0749 -0.1599
24465SOL     OW76286   0.129   7.982   6.157 -0.0242  0.4210 -0.0131
24465SOL    HW176287   0.199   8.034   6.117 -0.4361  0.6279 -0.4722
24465SOL    HW276288   0.048   8.019   6.122 -0.3981  0.6073  1.0327
24466SOL     OW76289   1.943   7.080   8.294  0.5508  0.0935 -0.1342
24466SOL    HW176290   2.026   7.119   8.323  1.2309 -1.7968  0.5805
24466SOL    HW276291   1.900   7.052   8.375  1.0202 -2.4148 -0.6718
24467SOL     OW76292   3.520   0.278   5.689 -0.7265  0.2659  0.2618
24467SOL    HW176293   3.578   0.223   5.743 -2.0814 -1.2300  0.2625
24467SOL    HW276294   3.564   0.363   5.686 -0.0141  0.0637  2.7462
24468SOL     OW76295   2.446   5.475   7.176 -0.3768 -0.4013  0.0648
24468SOL    HW176296   2.511   5.472   7.245 -2.2231 -0.0051  1.9192
24468SOL    HW276297   2.430   5.384   7.152  0.4148 -0.5273  0.0208
24469SOL     OW76298   1.315   1.323   6.522 -0.2461 -0.3071  0.0440
24469SOL    HW176299   1.402   1.365   6.520 -0.3476 -0.1208 -0.8975
24469SOL    HW276300   1.281   1.334   6.433 -1.3238 -0.2096  0.4541
24470SOL     OW76301   1.192   8.638   7.562  0.5168  0.1346 -0.0665
24470SOL    HW176302   1.181   8.575   7.634 -1.8740 -1.0560 -1.3509
24470SOL    HW276303   1.220   8.584   7.488  0.1441  0.8758 -0.7528
24471SOL     OW76304   7.274   3.135   6.153 -0.2126  0.0132  0.3129
24471SOL    HW176305   7.239   3.053   6.188 -1.0704 -0.1744 -0.9287
24471SOL    HW276306   7.352   3.108   6.105 -0.6691 -0.1411 -0.3621
24472SOL     OW76307   5.141   3.045   8.092 -0.1759 -0.3220 -0.7616
24472SOL    HW176308   5.054   3.072   8.063  0.5472  1.2297 -1.6049
24472SOL    HW276309   5.131   2.952   8.113 -2.0018 -0.2096 -0.9172
24473SOL     OW76310   5.355   2.366   8.909  0.0777 -0.5399 -0.1735
24473SOL    HW176311   5.404   2.390   8.988 -0.0833  1.0240 -0.5106
24473SOL    HW276312   5.420   2.327   8.851  0.0406 -2.4546  1.0090
24474SOL     OW76313   5.366   7.438   9.030 -0.1823 -0.0547 -0.4402
24474SOL    HW176314   5.383   7.344   9.039  0.0397  0.1764  2.4200
24474SOL    HW276315   5.358   7.452   8.935  2.9515 -2.3864 -1.2230
24475SOL     OW76316   4.108   0.546   7.315  0.6294 -0.4356  0.3075
24475SOL    HW176317   4.119   0.638   7.341  2.7159  0.0109 -1.8288
24475SOL    HW276318   4.173   0.499   7.369 -0.2554 -0.6615  1.2092
24476SOL     OW76319   5.634   8.741   5.729 -0.2195 -0.0973  0.3240
24476SOL    HW176320   5.691   8.796   5.783 -0.5916 -0.7912  1.4519
24476SOL    HW276321   5.550   8.786   5.728  0.1428  0.6063 -0.8268
24477SOL     OW76322   0.002   6.985   2.039 -0.2989  0.2619 -0.1592
24477SOL    HW176323  -0.086   6.991   2.076 -0.8687 -2.2133 -0.9028
24477SOL    HW276324   0.061   6.996   2.114 -1.2793  0.3717  0.6183
24478SOL     OW76325   2.487   5.972   3.430  0.1216 -0.0354  0.1890
24478SOL    HW176326   2.451   5.885   3.412 -0.9933  0.6598 -1.0925
24478SOL    HW276327   2.509   6.007   3.344  4.0858 -0.4332  0.8521
24479SOL     OW76328   1.593   2.974   3.746 -0.5462 -0.4269 -0.3149
24479SOL    HW176329   1.523   3.012   3.693 -1.5003 -0.4622  0.8755
24479SOL    HW276330   1.565   2.988   3.837  1.3097  0.1559  0.2247
24480SOL     OW76331   6.189   5.722   2.824  0.0463 -0.1778  0.0208
24480SOL    HW176332   6.271   5.682   2.851  1.3501  1.4786 -1.3184
24480SOL    HW276333   6.140   5.650   2.784  0.4546 -1.3557  1.5333
24481SOL     OW76334   3.622   5.543   2.186  0.5901  0.1851  0.3358
24481SOL    HW176335   3.563   5.470   2.204 -0.7792  1.2821  0.4527
24481SOL    HW276336   3.586   5.615   2.237  1.9308  0.9476  0.2325
24482SOL     OW76337   1.469   0.487   2.499  0.1384  0.0329  0.7936
24482SOL    HW176338   1.521   0.513   2.576 -1.8013  0.3613  2.0635
24482SOL    HW276339   1.447   0.569   2.456 -0.9223  0.0759  1.3786
24483SOL     OW76340   7.377   4.079   0.368 -0.1718 -0.0733  0.1325
24483SOL    HW176341   7.363   4.105   0.277 -1.3629  1.1919  0.6403
24483SOL    HW276342   7.386   4.161   0.416  0.2255 -0.7094  1.1979
24484SOL     OW76343   4.204   0.236   3.666 -0.4283  0.7549 -0.2215
24484SOL    HW176344   4.232   0.145   3.677 -0.2445  0.6303 -1.4764
24484SOL    HW276345   4.110   0.231   3.648 -0.6676  0.9268  0.8916
24485SOL     OW76346   2.400   1.054   4.289 -0.0933  0.0493  0.0409
24485SOL    HW176347   2.352   1.134   4.267 -0.4935 -0.2728 -0.2530
24485SOL    HW276348   2.437   1.072   4.376 -1.7545 -0.1608  0.8311
24486SOL     OW76349   4.456   2.615   6.304 -0.2466 -0.7696 -0.4851
24486SOL    HW176350   4.412   2.532   6.291  0.5945 -1.4921  1.0233
24486SOL    HW276351   4.549   2.593   6.306  0.0379  0.3190 -0.7915
24487SOL     OW76352   5.943   8.990   9.131 -0.1479 -0.0610  0.1842
24487SOL    HW176353   5.950   8.896   9.148 -1.3888 -0.1085  0.5595
24487SOL    HW276354   5.895   8.995   9.048 -0.5046  0.2437  0.4068
24488SOL     OW76355   7.928   2.416   5.788 -0.3313 -0.3007 -0.1821
24488SOL    HW176356   7.899   2.442   5.876 -0.5702  0.5342 -0.5013
24488SOL    HW276357   8.023   2.423   5.792 -0.3955  0.9494 -0.3419
24489SOL     OW76358   7.757   1.384   6.482 -0.4497 -0.3039  0.6033
24489SOL    HW176359   7.712   1.420   6.558  0.9420  2.0364  0.4251
24489SOL    HW276360   7.717   1.429   6.407 -1.0468 -1.7633  0.0034
24490SOL     OW76361   0.886   0.410   2.965 -0.3627  0.2261 -0.6488
24490SOL    HW176362   0.807   0.436   3.012 -1.1557 -1.1724 -1.1670
24490SOL    HW276363   0.854   0.368   2.885  0.9301  1.0925 -1.6852
24491SOL     OW76364   0.306   1.729   1.006  0.6878 -0.3931  0.1028
24491SOL    HW176365   0.349   1.687   0.931 -0.0981 -0.6974 -0.1799
24491SOL    HW276366   0.244   1.790   0.967  1.8296  1.0818  0.5114
24492SOL     OW76367   2.684   7.112   4.207  0.7153 -0.0956  0.1009
24492SOL    HW176368   2.726   7.027   4.197 -0.7735 -1.3129  3.0646
24492SOL    HW276369   2.627   7.120   4.130  0.2322 -2.1930  0.2019
24493SOL     OW76370   3.430   1.014   0.432  0.6603  0.2267  0.1467
24493SOL    HW176371   3.502   0.950   0.434  0.4341 -0.0559 -0.4775
24493SOL    HW276372   3.471   1.095   0.402  0.1700 -0.7432 -3.6906
24494SOL     OW76373   9.017   1.076   0.553 -0.4225 -0.1152 -0.1408
24494SOL    HW176374   9.104   1.058   0.518 -0.6824 -0.3706 -0.6728
24494SOL    HW276375   8.991   0.994   0.596 -0.2916  0.0470  0.2472
24495SOL     OW76376   5.634   7.102   2.185 -0.0040 -0.3762  0.8260
24495SOL    HW176377   5.654   7.009   2.177 -0.1293 -0.3352 -0.1508
24495SOL    HW276378   5.635   7.134   2.094  2.0426  0.9984  1.2698
24496SOL     OW76379   5.249   7.197   1.987  0.4098  0.0490  0.1221
24496SOL    HW176380   5.298   7.279   1.975  0.0322  0.3029  0.3066
24496SOL    HW276381   5.158   7.222   1.975  0.3166 -0.4085 -0.1342
24497SOL     OW76382   3.762   5.625   5.637 -0.0589 -0.1491 -0.0947
24497SOL    HW176383   3.687   5.611   5.695 -1.7030 -2.8177 -2.5909
24497SOL    HW276384   3.724   5.659   5.556  1.7995  0.8356 -0.6088
24498SOL     OW76385   0.136   2.321   3.721  0.2657  0.1527 -0.1514
24498SOL    HW176386   0.043   2.302   3.704  0.2745  0.2024 -0.2546
24498SOL    HW276387   0.168   2.360   3.640  0.3995  0.0583 -0.1436
24499SOL     OW76388   6.039   8.393   8.760 -0.2209  0.1349  0.1289
24499SOL    HW176389   6.070   8.304   8.774  1.1594  0.5512 -0.1905
24499SOL    HW276390   6.054   8.410   8.668 -0.9266  0.5495  0.0766
24500SOL     OW76391   3.273   6.455   5.467  0.6072  0.4497 -0.0681
24500SOL    HW176392   3.306   6.366   5.455 -0.1791  0.1521 -0.0665
24500SOL    HW276393   3.352   6.509   5.477  1.1776  0.0777 -2.1542
24501SOL     OW76394   0.482   3.618   2.729  0.0467  0.6367  0.0704
24501SOL    HW176395   0.500   3.582   2.642 -1.5650 -1.5562  0.5637
24501SOL    HW276396   0.548   3.579   2.785  0.0634  0.7375  0.1212
24502SOL     OW76397   4.409   9.096   6.179  0.4382  0.1036 -0.5711
24502SOL    HW176398   4.473   9.122   6.113 -1.6157  0.8454 -2.4061
24502SOL    HW276399   4.399   9.172   6.235  2.5277 -0.6809  0.9856
24503SOL     OW76400   7.713   5.871   4.598 -0.2335 -0.2784  0.1173
24503SOL    HW176401   7.800   5.861   4.636  0.3723 -1.5896 -1.5030
24503SOL    HW276402   7.653   5.837   4.665  0.4885  0.5041  1.1876
24504SOL     OW76403   0.098   3.961   4.899  0.3364 -0.0551  0.3819
24504SOL    HW176404   0.137   3.886   4.854 -0.0536  0.4304 -0.8083
24504SOL    HW276405   0.004   3.946   4.893  0.2326 -1.3065  3.3790
24505SOL     OW76406   8.794   0.799   2.821 -0.9445 -0.1736 -0.0909
24505SOL    HW176407   8.843   0.855   2.882 -0.4147 -1.1500  0.4149
24505SOL    HW276408   8.841   0.808   2.738  0.0551 -0.9978  0.3574
24506SOL     OW76409   3.680   3.445   8.301  0.0249 -0.3315 -0.0863
24506SOL    HW176410   3.703   3.368   8.351 -0.9331  0.3703  1.5366
24506SOL    HW276411   3.611   3.416   8.242  0.4648 -0.9643 -0.2850
24507SOL     OW76412   7.406   6.646   3.335  0.2206 -0.3870 -0.0009
24507SOL    HW176413   7.312   6.641   3.318  0.4571  0.0518 -1.5731
24507SOL    HW276414   7.414   6.716   3.400 -0.5385 -0.5348  0.2699
24508SOL     OW76415   2.412   6.814   2.088  0.1367 -0.4624 -0.1069
24508SOL    HW176416   2.502   6.840   2.109  0.4662 -1.0264 -0.7821
24508SOL    HW276417   2.422   6.736   2.034 -0.6401  1.2471 -2.9077
24509SOL     OW76418   2.297   6.179   7.823  0.4886 -0.0684  0.4720
24509SOL    HW176419   2.207   6.201   7.850  0.2040 -1.9626  1.2604
24509SOL    HW276420   2.295   6.184   7.728 -0.5877 -0.5375  0.4532
24510SOL     OW76421   5.208   7.905   8.795  0.2967  0.1416  0.8772
24510SOL    HW176422   5.143   7.848   8.754  1.0131 -0.0160 -0.0762
24510SOL    HW276423   5.242   7.958   8.723  1.3923  0.0589  1.3193
24511SOL     OW76424   8.793   0.352   3.150  0.2440  0.5003 -0.5640
24511SOL    HW176425   8.787   0.438   3.107 -0.9649  2.1092  2.4980
24511SOL    HW276426   8.886   0.330   3.146  0.8013  2.6031 -0.3652
24512SOL     OW76427   7.562   4.959   3.868 -0.6246 -0.3232 -0.5847
24512SOL    HW176428   7.490   4.911   3.909  0.0940 -1.7289 -0.8822
24512SOL    HW276429   7.561   5.045   3.909 -0.7989 -1.2051  1.3570
24513SOL     OW76430   2.921   5.551   7.451  0.3787  0.2794  0.1977
24513SOL    HW176431   2.990   5.608   7.486  3.5769 -0.4812 -4.0241
24513SOL    HW276432   2.957   5.462   7.461  1.9986  0.0144 -4.9442
24514SOL     OW76433   8.309   7.664   0.788  0.0178 -0.0945 -0.3252
24514SOL    HW176434   8.224   7.696   0.758 -0.3803 -0.2423  0.6035
24514SOL    HW276435   8.372   7.706   0.730 -0.6464  0.5601 -0.5917
24515SOL     OW76436   0.511   4.274   1.690 -0.2408 -0.4568 -0.2420
24515SOL    HW176437   0.603   4.300   1.692  0.7124 -3.4741 -0.6281
24515SOL    HW276438   0.464   4.351   1.722  2.4105  1.1098  0.1674
24516SOL     OW76439   6.559   0.782   5.377  0.1318 -0.0725 -0.0726
24516SOL    HW176440   6.467   0.765   5.398  0.3084 -1.1049 -0.0836
24516SOL    HW276441   6.569   0.876   5.387 -0.4949 -0.1590  1.6756
24517SOL     OW76442   3.780   0.251   6.688  0.0833  0.4985 -0.2022
24517SOL    HW176443   3.698   0.290   6.719  0.0386 -0.1091  0.4809
24517SOL    HW276444   3.849   0.308   6.725 -0.0235  1.3594 -1.2709
24518SOL     OW76445   3.407   8.584   1.226 -0.4145  0.3151 -0.0300
24518SOL    HW176446   3.340   8.584   1.157 -0.7480  0.7551  0.2914
24518SOL    HW276447   3.488   8.608   1.181 -0.0672 -1.9697 -0.7841
24519SOL     OW76448   4.575   0.664   6.906  0.0173  0.1722  0.2518
24519SOL    HW176449   4.651   0.642   6.960  1.3297  0.2423 -1.4787
24519SOL    HW276450   4.608   0.727   6.842 -0.9520 -1.2821 -1.8213
24520SOL     OW76451   6.263   0.547   6.223 -0.0932 -0.2099  0.1398
24520SOL    HW176452   6.272   0.562   6.317 -2.4718 -0.8489  0.5461
24520SOL    HW276453   6.169   0.554   6.207  0.2113 -0.5829 -2.1153
24521SOL     OW76454   6.552   4.187   0.283  0.2005  0.0043 -0.0967
24521SOL    HW176455   6.636   4.181   0.329  0.7775  1.4204 -0.8831
24521SOL    HW276456   6.546   4.279   0.256 -0.2456 -0.6439 -2.5144
24522SOL     OW76457   3.639   9.010   9.064  0.2150  0.1917 -0.0392
24522SOL    HW176458   3.703   9.050   9.006  1.2824 -0.7339  0.4462
24522SOL    HW276459   3.569   9.075   9.073  0.5810  0.7994 -1.4189
24523SOL     OW76460   3.178   2.151   7.606  0.1533 -0.1012  0.7037
24523SOL    HW176461   3.190   2.228   7.661 -0.8079  1.3121 -0.9380
24523SOL    HW276462   3.186   2.184   7.516  2.1231 -2.3704 -0.0766
24524SOL     OW76463   4.281   0.689   9.240  0.3352 -0.7368 -0.4793
24524SOL    HW176464   4.235   0.615   9.201  1.0758 -1.6658  0.3651
24524SOL    HW276465   4.311   0.657   9.325 -0.8497  1.0777  0.6979
24525SOL     OW76466   7.890   7.472   6.635 -0.8757  0.8338 -0.2744
24525SOL    HW176467   7.831   7.428   6.574  0.6045 -1.5153 -0.1413
24525SOL    HW276468   7.860   7.444   6.722 -0.6552  1.0834 -0.1155
24526SOL     OW76469   5.237   7.669   3.512 -0.0285 -0.0514  0.1400
24526SOL    HW176470   5.284   7.603   3.563 -0.7048 -0.4159  0.3053
24526SOL    HW276471   5.226   7.743   3.572 -0.8810 -0.5046  0.5629
24527SOL     OW76472   6.149   0.090   4.157  0.5589  0.1458  0.2143
24527SOL    HW176473   6.134   0.031   4.231  1.2080  0.6471  0.7442
24527SOL    HW276474   6.208   0.157   4.190  2.0164 -0.4076 -1.1417
24528SOL     OW76475   0.741   4.755   1.164  0.0495  0.2236  0.2290
24528SOL    HW176476   0.796   4.833   1.177  0.7295 -0.3618  1.0480
24528SOL    HW276477   0.658   4.777   1.207 -0.1749  0.9084 -0.5310
24529SOL     OW76478   3.149   9.016   0.090 -0.0488  0.1811 -0.9238
24529SOL    HW176479   3.119   9.101   0.059  1.2029  1.3380  0.8441
24529SOL    HW276480   3.243   9.015   0.072  0.1308 -0.3809 -0.0468
24530SOL     OW76481   6.558   8.399   7.127 -0.1858 -0.4881  0.1358
24530SOL    HW176482   6.534   8.491   7.123  2.1993  0.1795 -0.5768
24530SOL    HW276483   6.578   8.383   7.219 -0.4517 -0.2511  0.2327
24531SOL     OW76484   3.456   4.556   5.012 -0.1148 -0.3424  0.4455
24531SOL    HW176485   3.454   4.463   5.033 -0.9502 -0.3393  0.4443
24531SOL    HW276486   3.392   4.595   5.072  0.2998  0.2451  0.5134
24532SOL     OW76487   8.176   3.987   8.822 -0.1458  0.4534 -0.0817
24532SOL    HW176488   8.177   4.081   8.804  0.6418  0.1606 -1.8128
24532SOL    HW276489   8.233   3.949   8.755 -0.2679 -1.2485  0.7112
24533SOL     OW76490   8.065   7.477   0.882 -0.9509 -0.7195  0.0451
24533SOL    HW176491   8.081   7.566   0.851  0.0019 -0.7576  0.4165
24533SOL    HW276492   8.124   7.422   0.830 -0.4061 -0.9513  0.8848
24534SOL     OW76493   6.849   7.048   6.554  0.2629 -0.0681  0.1492
24534SOL    HW176494   6.852   6.975   6.616  0.4831  1.0403  1.5059
24534SOL    HW276495   6.767   7.093   6.575 -0.8558 -0.9474 -1.9648
24535SOL     OW76496   5.450   4.842   4.102 -0.2569 -0.1283 -0.7972
24535SOL    HW176497   5.410   4.811   4.021 -1.8886  1.9237 -0.8573
24535SOL    HW276498   5.420   4.781   4.169 -1.2704 -0.1925 -1.3012
24536SOL     OW76499   0.080   5.466   1.597  0.6984 -0.0320 -0.1049
24536SOL    HW176500  -0.014   5.448   1.595  0.1772  2.3590 -0.7289
24536SOL    HW276501   0.088   5.553   1.558  3.2755 -0.5070 -0.8387
24537SOL     OW76502   0.986   4.231   0.151 -0.1097  0.1252 -0.5492
24537SOL    HW176503   0.917   4.279   0.195  0.1241 -0.4706  0.5157
24537SOL    HW276504   0.971   4.139   0.175  0.9285 -0.0341 -0.4372
24538SOL     OW76505   1.855   3.701   6.870 -0.4067 -0.2363 -0.9318
24538SOL    HW176506   1.858   3.789   6.834 -0.8068  0.4894  0.7194
24538SOL    HW276507   1.860   3.714   6.965 -0.9063 -1.9638 -0.6393
24539SOL     OW76508   5.856   8.711   3.997  0.1850  0.2245  0.1197
24539SOL    HW176509   5.903   8.749   3.923  1.2544 -0.4112  0.4457
24539SOL    HW276510   5.767   8.699   3.966  0.2342  1.4093 -0.5382
24540SOL     OW76511   1.678   7.739   8.777  1.1254 -0.0719  0.6165
24540SOL    HW176512   1.764   7.729   8.817  1.0600 -4.4476  0.1701
24540SOL    HW276513   1.616   7.728   8.849  0.9796 -0.1863  0.4773
24541SOL     OW76514   0.043   4.998   1.593 -0.2986  0.0523 -0.1600
24541SOL    HW176515   0.077   5.049   1.666  0.3175  0.3122 -0.6209
24541SOL    HW276516   0.028   4.911   1.629  0.6563 -0.0087  0.0997
24542SOL     OW76517   2.233   2.167   0.667 -0.5409  0.5531  0.0622
24542SOL    HW176518   2.188   2.249   0.684  1.0341  1.2788  0.9634
24542SOL    HW276519   2.285   2.184   0.588 -0.3699  0.3437  0.1296
24543SOL     OW76520   0.812   0.687   5.945 -0.3829 -1.0041  0.1252
24543SOL    HW176521   0.822   0.644   6.030  1.7934 -0.1061  0.3893
24543SOL    HW276522   0.718   0.706   5.938 -0.6836 -1.5768  2.0807
24544SOL     OW76523   3.144   3.439   7.431 -0.0204 -0.0022 -0.2218
24544SOL    HW176524   3.118   3.531   7.423 -0.4050  0.1236  1.8193
24544SOL    HW276525   3.090   3.393   7.367 -2.1511  0.8263  0.8603
24545SOL     OW76526   2.204   7.044   3.338  0.6838  0.1953 -0.4975
24545SOL    HW176527   2.212   7.084   3.251  0.4049  2.8329  0.5953
24545SOL    HW276528   2.237   7.111   3.398 -0.5196 -0.9615  1.5555
24546SOL     OW76529   7.251   4.819   0.942  0.1164  0.3464  0.7350
24546SOL    HW176530   7.170   4.861   0.971 -0.9871 -1.2022 -0.0000
24546SOL    HW276531   7.267   4.751   1.007  0.5602  0.3309  0.6110
24547SOL     OW76532   2.417   8.519   2.762  0.4052 -0.0926 -0.2729
24547SOL    HW176533   2.402   8.438   2.713 -2.0226  0.1386 -0.0444
24547SOL    HW276534   2.342   8.526   2.820  0.7042  2.1771 -0.0632
24548SOL     OW76535   1.797   0.811   3.398  0.4207  0.1181  0.1575
24548SOL    HW176536   1.869   0.747   3.401  1.8030  1.6540  2.3524
24548SOL    HW276537   1.815   0.863   3.320  0.6692 -0.6195 -0.2863
24549SOL     OW76538   4.195   8.467   1.852  0.0786 -0.2163 -0.7015
24549SOL    HW176539   4.157   8.436   1.934 -0.5152 -1.9266 -1.5770
24549SOL    HW276540   4.128   8.522   1.813 -1.3215 -2.5846 -1.8598
24550SOL     OW76541   3.800   1.694   3.177 -0.4860 -0.9199 -0.2190
24550SOL    HW176542   3.728   1.707   3.239 -1.6225 -0.2670 -1.6178
24550SOL    HW276543   3.874   1.668   3.231 -1.0688  0.9078  1.5880
24551SOL     OW76544   6.469   5.065   6.643  0.0438 -0.3030 -0.1021
24551SOL    HW176545   6.494   4.973   6.637 -0.3102 -0.5218  1.4479
24551SOL    HW276546   6.377   5.063   6.670 -0.3891  0.5197 -1.3867
24552SOL     OW76547   1.068   8.886   2.089  0.5756  0.3802  0.3512
24552SOL    HW176548   1.071   8.953   2.021  3.1315 -1.5363 -1.6471
24552SOL    HW276549   1.043   8.806   2.043 -0.6854 -0.4330  2.3135
24553SOL     OW76550   6.073   7.431   3.029 -0.7061  0.3530  0.1449
24553SOL    HW176551   6.144   7.411   3.089 -1.7440  0.9417  1.6106
24553SOL    HW276552   6.073   7.358   2.967  0.6919 -0.0225  0.5582
24554SOL     OW76553   0.209   3.206   2.841 -0.5617  0.6066 -0.9608
24554SOL    HW176554   0.128   3.241   2.802 -1.4116  1.5760  1.4581
24554SOL    HW276555   0.238   3.275   2.900  1.2647 -0.3391 -0.6988
24555SOL     OW76556   6.058   4.052   2.087  0.2032 -0.4590 -0.1645
24555SOL    HW176557   6.063   4.069   2.181 -1.5476 -4.3068  0.8155
24555SOL    HW276558   6.122   3.982   2.072 -0.1883 -0.5313 -1.6568
24556SOL     OW76559   8.930   2.572   7.062 -0.5130 -0.0824  0.4858
24556SOL    HW176560   8.973   2.656   7.050  0.3297 -0.7215 -1.4626
24556SOL    HW276561   8.891   2.576   7.149  0.4453  1.8866  0.8650
24557SOL     OW76562   4.797   9.232   3.490  0.4295 -0.2371  0.0234
24557SOL    HW176563   4.777   9.181   3.411  0.7524  1.6646 -1.3628
24557SOL    HW276564   4.852   9.304   3.459  0.4468  0.6575  1.9783
24558SOL     OW76565   9.169   8.634   9.161  0.1954 -0.3969  0.3200
24558SOL    HW176566   9.225   8.711   9.166  1.1981 -1.0564 -0.4553
24558SOL    HW276567   9.228   8.562   9.139 -0.9449 -1.1017 -0.5838
24559SOL     OW76568   6.495   5.129   1.294  0.0449  0.4607 -0.3253
24559SOL    HW176569   6.410   5.086   1.282  0.6429 -0.6173 -0.8370
24559SOL    HW276570   6.473   5.216   1.326 -1.3064  0.5800 -1.4711
24560SOL     OW76571   1.807   1.913   7.443 -0.5963 -0.2642 -0.6258
24560SOL    HW176572   1.869   1.961   7.388 -1.5590 -0.8882 -2.3625
24560SOL    HW276573   1.853   1.834   7.468  0.0976  0.3465  0.0741
24561SOL     OW76574   1.474   1.213   3.011 -0.4500  0.1927  0.0833
24561SOL    HW176575   1.415   1.281   2.979 -0.1253  0.3336 -0.2320
24561SOL    HW276576   1.475   1.148   2.940  0.2019  0.4605 -0.1611
24562SOL     OW76577   0.739   8.677   3.826  0.2938  0.3311 -0.2382
24562SOL    HW176578   0.664   8.736   3.827 -0.0106 -0.0024  1.7113
24562SOL    HW276579   0.792   8.706   3.900  0.7861 -1.0253 -0.0333
24563SOL     OW76580   2.096   8.270   7.116  0.1987 -0.0683  0.1019
24563SOL    HW176581   2.117   8.361   7.137 -0.3322  0.1708 -0.3710
24563SOL    HW276582   2.072   8.271   7.023  1.7528 -0.9798 -0.3397
24564SOL     OW76583   8.225   4.088   4.988  0.0700 -0.1589 -0.1906
24564SOL    HW176584   8.229   4.027   4.915  0.3941  0.5268 -0.7509
24564SOL    HW276585   8.176   4.040   5.056  1.0533 -1.3677 -0.2934
24565SOL     OW76586   1.578   5.171   4.806  0.2236 -0.0776 -0.4237
24565SOL    HW176587   1.658   5.180   4.753  0.5672  0.3674  0.1664
24565SOL    HW276588   1.597   5.219   4.886 -0.2474 -0.8642  0.1726
24566SOL     OW76589   9.247   6.905   1.728 -0.2490 -0.3530 -0.8048
24566SOL    HW176590   9.170   6.944   1.770  0.2701  0.9442 -1.0036
24566SOL    HW276591   9.240   6.931   1.637  1.4794  1.6095 -0.4488
24567SOL     OW76592   8.908   3.649   7.790  0.0789  0.0820  0.4075
24567SOL    HW176593   8.886   3.687   7.876  0.5471 -0.7643  0.9138
24567SOL    HW276594   8.906   3.554   7.805 -0.4926 -0.0997 -0.6886
24568SOL     OW76595   2.029   4.929   0.265  0.3020  0.3374 -0.3105
24568SOL    HW176596   2.035   4.968   0.352 -1.7809  0.2970 -0.0891
24568SOL    HW276597   1.964   4.982   0.219  0.1089 -0.6556 -1.2406
24569SOL     OW76598   3.554   4.777   3.459 -0.5807 -0.5135  0.6180
24569SOL    HW176599   3.536   4.860   3.503 -1.3464 -1.3432  1.9573
24569SOL    HW276600   3.502   4.782   3.378  0.3657  0.7942  0.0585
24570SOL     OW76601   9.096   3.003   3.374  0.3239  0.4412 -0.7796
24570SOL    HW176602   9.163   3.064   3.405  0.4315 -0.5697  1.0734
24570SOL    HW276603   9.131   2.917   3.394 -2.3276 -0.1092  2.1440
24571SOL     OW76604   5.719   5.940   2.916 -0.4364 -0.4829 -0.0875
24571SOL    HW176605   5.790   6.004   2.927 -2.1412  1.3334  1.1015
24571SOL    HW276606   5.746   5.887   2.841  0.9930  1.7596 -1.2887
24572SOL     OW76607   0.208   3.011   1.124 -0.2905  0.7416  0.0912
24572SOL    HW176608   0.169   3.083   1.174 -0.2775  0.7881  0.0357
24572SOL    HW276609   0.249   2.955   1.190  1.2770  1.7373  0.0126
24573SOL     OW76610   5.760   7.461   2.777  0.1095 -0.1749 -0.1693
24573SOL    HW176611   5.786   7.421   2.694 -0.2039  0.1146 -0.4093
24573SOL    HW276612   5.818   7.537   2.786 -1.4892  1.2874 -1.3848
24574SOL     OW76613   5.080   8.749   5.962 -0.4264 -0.4651  0.2760
24574SOL    HW176614   5.116   8.753   6.051  0.6677  1.1550 -0.1969
24574SOL    HW276615   5.004   8.807   5.964 -2.0487 -2.4617  0.7824
24575SOL     OW76616   3.304   0.972   6.478 -0.0333 -0.7838 -0.5076
24575SOL    HW176617   3.278   0.887   6.443 -0.3054  0.0013 -2.3425
24575SOL    HW276618   3.271   1.036   6.415 -0.3230  0.7462  1.0900
24576SOL     OW76619   3.948   2.744   9.035  0.0644  0.0295 -1.1282
24576SOL    HW176620   3.893   2.678   8.992 -1.2536  0.6740 -0.5143
24576SOL    HW276621   3.919   2.827   8.997 -0.4254  0.5136  0.2215
24577SOL     OW76622   7.656   0.549   0.562  0.1390  0.0829 -0.1963
24577SOL    HW176623   7.711   0.621   0.592 -0.9237  1.2882 -1.0296
24577SOL    HW276624   7.686   0.532   0.472  0.8088 -0.9625  0.2094
24578SOL     OW76625   3.968   6.332   2.127  0.3667  0.1177 -0.0457
24578SOL    HW176626   4.009   6.249   2.102 -0.4763 -0.6705  1.0900
24578SOL    HW276627   3.874   6.315   2.122  0.1898  0.7819  0.8874
24579SOL     OW76628   7.297   4.406   4.140  0.5213 -0.8349  0.0779
24579SOL    HW176629   7.359   4.443   4.203  0.4331 -0.6509  0.0569
24579SOL    HW276630   7.348   4.398   4.059  1.3146 -3.2051  0.7419
24580SOL     OW76631   4.754   1.375   5.186 -0.2740 -0.1955  0.4021
24580SOL    HW176632   4.814   1.449   5.185  0.6354 -0.7822  3.0305
24580SOL    HW276633   4.798   1.307   5.136  0.8357 -0.3034  1.4927
24581SOL     OW76634   5.164   2.463   7.267 -0.3748  0.4510  0.1190
24581SOL    HW176635   5.089   2.508   7.306 -0.4212  0.3485  0.1491
24581SOL    HW276636   5.184   2.513   7.188 -0.4051  0.5433  0.1705
24582SOL     OW76637   3.563   3.681   5.139 -0.2231  0.1988 -0.4364
24582SOL    HW176638   3.593   3.590   5.139  1.7168  0.7949 -0.0697
24582SOL    HW276639   3.546   3.701   5.231  0.5707  0.5659 -0.3623
24583SOL     OW76640   2.038   1.287   6.031 -0.2919 -0.0474  0.4146
24583SOL    HW176641   2.001   1.328   6.109 -0.1740  1.1139 -0.1156
24583SOL    HW276642   2.129   1.269   6.054 -0.0391  1.0010  0.3168
24584SOL     OW76643   7.687   0.334   2.831  0.0934  0.2254  0.1270
24584SOL    HW176644   7.626   0.260   2.828 -0.0409  0.2106  2.0709
24584SOL    HW276645   7.676   0.371   2.918  2.4204  0.6064  0.3345
24585SOL     OW76646   7.590   4.171   9.035  0.0066 -0.2542  0.7509
24585SOL    HW176647   7.509   4.131   9.004  0.2954 -1.0620  1.0015
24585SOL    HW276648   7.597   4.253   8.987 -1.0791 -0.0653  0.9074
24586SOL     OW76649   5.361   7.870   6.157 -0.1159  0.2792  0.1499
24586SOL    HW176650   5.419   7.853   6.083 -0.5597 -0.9698  0.0668
24586SOL    HW276651   5.281   7.821   6.136 -1.0456  1.6161  0.4603
24587SOL     OW76652   2.630   1.040   0.814 -0.5874  0.4039  0.7554
24587SOL    HW176653   2.606   0.968   0.757 -1.6099  1.5965 -0.3755
24587SOL    HW276654   2.606   1.011   0.902  1.2022 -1.5364  0.6787
24588SOL     OW76655   7.976   0.485   7.731  0.5070 -0.4361 -0.1918
24588SOL    HW176656   7.963   0.398   7.768  1.7104  0.0940  1.5613
24588SOL    HW276657   7.993   0.469   7.638  0.2208 -2.0336  0.0108
24589SOL     OW76658   7.267   1.573   1.675  0.7908  0.0084 -0.2806
24589SOL    HW176659   7.207   1.639   1.641  0.0016  0.1899  1.3686
24589SOL    HW276660   7.277   1.510   1.603  1.4762  1.8264 -1.8460
24590SOL     OW76661   1.683   5.586   8.903 -0.0726  0.2125  0.4219
24590SOL    HW176662   1.660   5.504   8.946  1.5590 -0.6410 -0.2128
24590SOL    HW276663   1.600   5.631   8.890 -1.0871 -1.6197  0.2265
24591SOL     OW76664   3.994   5.486   2.815 -0.0620  0.0719 -0.1334
24591SOL    HW176665   3.960   5.573   2.837  0.6366  0.4888 -0.6849
24591SOL    HW276666   4.030   5.452   2.898  1.8967  1.3287 -0.4107
24592SOL     OW76667   5.913   6.135   0.508 -0.0491 -0.2578 -0.2446
24592SOL    HW176668   5.834   6.131   0.455  0.0072 -0.3064 -0.3244
24592SOL    HW276669   5.913   6.224   0.545  0.0549 -0.1342 -0.5415
24593SOL     OW76670   6.048   3.117   6.338  0.5953  0.1188 -0.1716
24593SOL    HW176671   6.009   3.029   6.340  0.0989  0.3406  0.0066
24593SOL    HW276672   6.141   3.101   6.320  0.3842 -0.4023 -0.8806
24594SOL     OW76673   1.247   4.787   4.421 -0.2786 -0.0824  0.1021
24594SOL    HW176674   1.225   4.755   4.334 -2.3953 -1.6600  1.1244
24594SOL    HW276675   1.244   4.883   4.413 -0.3231 -0.1922 -1.5500
24595SOL     OW76676   7.934   4.131   3.942  0.4390  0.0767 -0.3534
24595SOL    HW176677   7.894   4.103   3.860  1.0373  0.2113 -0.6988
24595SOL    HW276678   8.002   4.066   3.959  0.0967 -0.1413  0.2187
24596SOL     OW76679   5.181   4.231   1.026  0.2631  0.1295  0.2875
24596SOL    HW176680   5.190   4.274   1.111  2.4109  2.0069 -0.7864
24596SOL    HW276681   5.116   4.162   1.041 -0.0541  0.9251  3.2110
24597SOL     OW76682   2.956   1.700   2.652  0.5284 -0.4033 -0.2595
24597SOL    HW176683   2.878   1.754   2.664  0.2484 -0.2874 -2.2984
24597SOL    HW276684   3.017   1.731   2.719 -0.5841  0.6114  0.3186
24598SOL     OW76685   8.567   1.761   3.952 -0.4794  0.1756 -0.1809
24598SOL    HW176686   8.490   1.788   3.903 -0.2680  0.5618 -0.3035
24598SOL    HW276687   8.608   1.843   3.980  0.3565  0.0022 -0.8588
24599SOL     OW76688   0.705   5.737   8.755  0.4909 -0.4722 -0.7929
24599SOL    HW176689   0.764   5.775   8.820 -0.5478 -1.5082  0.8503
24599SOL    HW276690   0.736   5.647   8.745 -0.5045 -0.8974 -0.2382
24600SOL     OW76691   1.919   1.519   2.494  0.3810 -0.0815  0.3569
24600SOL    HW176692   1.899   1.501   2.402 -2.5715  1.0828  0.6695
24600SOL    HW276693   1.892   1.440   2.541  2.7944 -1.0709  0.2271
24601SOL     OW76694   8.221   2.403   4.474  0.2035  0.0437  0.6938
24601SOL    HW176695   8.191   2.488   4.508 -0.0455 -0.0442  0.6942
24601SOL    HW276696   8.303   2.424   4.428  0.0355  0.3197  0.5158
24602SOL     OW76697   0.500   3.778   1.113  0.2164  0.1660 -0.4496
24602SOL    HW176698   0.484   3.725   1.034  1.7389 -2.0732  0.6184
24602SOL    HW276699   0.536   3.860   1.081 -2.6296  0.8599 -2.2253
24603SOL     OW76700   6.160   8.590   1.030  0.2516  0.4136 -0.0348
24603SOL    HW176701   6.119   8.533   0.966  0.6050 -2.4280  2.0456
24603SOL    HW276702   6.088   8.628   1.080  0.0494 -0.1043  0.0634
24604SOL     OW76703   1.996   6.137   4.688 -0.1880  0.0868 -0.0224
24604SOL    HW176704   2.005   6.177   4.601 -0.6060 -1.2086 -0.7042
24604SOL    HW276705   2.069   6.171   4.738 -0.5047  1.6439 -0.5670
24605SOL     OW76706   1.622   6.991   1.641  0.1927  0.3366  0.0078
24605SOL    HW176707   1.632   6.917   1.701  2.1691 -0.1734 -0.8478
24605SOL    HW276708   1.530   6.990   1.617  0.3934 -2.9126 -1.1996
24606SOL     OW76709   7.545   1.122   2.966  0.3176 -0.2796  0.1560
24606SOL    HW176710   7.557   1.133   3.061  2.6532  2.3288 -0.3479
24606SOL    HW276711   7.623   1.075   2.937 -0.1861 -0.6895 -0.5614
24607SOL     OW76712   2.335   1.521   2.014  0.5262  0.0623  0.0622
24607SOL    HW176713   2.334   1.540   2.107  1.1535  0.9741 -0.1092
24607SOL    HW276714   2.426   1.536   1.987  0.0737  1.1404 -0.9525
24608SOL     OW76715   9.140   0.972   4.874  0.2848  0.5564 -0.1439
24608SOL    HW176716   9.045   0.968   4.867 -0.1123  0.8443  3.2617
24608SOL    HW276717   9.170   0.887   4.842 -1.5398 -1.0880  2.1133
24609SOL     OW76718   5.040   2.153   8.371  0.2238  0.3025 -0.5599
24609SOL    HW176719   4.971   2.135   8.307 -0.4141  0.4078  0.0842
24609SOL    HW276720   5.108   2.089   8.351 -0.5853 -0.6242 -0.4210
24610SOL     OW76721   7.375   2.302   8.656  0.1524  0.1746 -0.1626
24610SOL    HW176722   7.365   2.361   8.582  0.7871 -1.0169 -1.2322
24610SOL    HW276723   7.451   2.336   8.704  0.2450  0.4706 -0.5178
24611SOL     OW76724   6.791   0.730   7.380 -0.2127 -0.5463 -0.3607
24611SOL    HW176725   6.756   0.764   7.298  0.9204 -0.3888 -0.7961
24611SOL    HW276726   6.866   0.786   7.400 -1.8376  0.9691  2.0651
24612SOL     OW76727   7.021   7.949   6.849  0.2980 -0.1047  0.4897
24612SOL    HW176728   6.953   7.936   6.784 -0.3416 -0.8429  1.2855
24612SOL    HW276729   6.986   7.909   6.929  1.3174  0.2343  1.1257
24613SOL     OW76730   3.216   7.609   2.329  0.1373 -0.0660  0.7037
24613SOL    HW176731   3.310   7.624   2.334  0.2163  0.7606 -1.9361
24613SOL    HW276732   3.178   7.696   2.320 -0.9673 -0.3604  2.1142
24614SOL     OW76733   1.504   5.526   6.201 -0.2658  0.3241  0.3106
24614SOL    HW176734   1.441   5.479   6.146  1.0403  0.5838 -1.4813
24614SOL    HW276735   1.562   5.457   6.234 -0.8515  0.2097  1.1359
24615SOL     OW76736   8.441   1.557   7.446 -0.7838  0.3404  0.6051
24615SOL    HW176737   8.531   1.526   7.441 -0.7894 -0.0482  2.4312
24615SOL    HW276738   8.437   1.629   7.382  0.5265 -0.2712 -0.1997
24616SOL     OW76739   3.483   0.440   6.509 -0.7516  0.0597 -0.0855
24616SOL    HW176740   3.562   0.491   6.524 -2.0808  2.4953 -0.7890
24616SOL    HW276741   3.451   0.469   6.423 -0.9963 -2.8819 -1.1068
24617SOL     OW76742   6.744   2.039   4.156  0.2305  0.2378  0.2115
24617SOL    HW176743   6.674   1.978   4.131  1.2139 -1.5019  1.4950
24617SOL    HW276744   6.707   2.091   4.227 -0.6467  1.2612 -0.9482
24618SOL     OW76745   4.391   4.120   8.455  0.4985  0.2116  0.2899
24618SOL    HW176746   4.410   4.027   8.445 -1.4334 -0.1518 -0.2383
24618SOL    HW276747   4.469   4.163   8.420  2.1121 -1.1563  1.9802
24619SOL     OW76748   4.644   1.382   7.738  0.0658 -0.2624 -0.2306
24619SOL    HW176749   4.648   1.445   7.810  1.4936 -0.1965 -0.3429
24619SOL    HW276750   4.706   1.416   7.674 -0.4602 -0.8521 -1.0719
24620SOL     OW76751   8.145   7.718   7.327  0.2221  0.0163  0.4844
24620SOL    HW176752   8.107   7.654   7.387 -1.1543 -0.4220 -0.8017
24620SOL    HW276753   8.214   7.669   7.282 -0.8246 -0.5971 -0.4933
24621SOL     OW76754   0.367   2.568   2.159 -0.1589 -0.8072  0.4045
24621SOL    HW176755   0.347   2.519   2.079  0.8911  0.3850 -0.6411
24621SOL    HW276756   0.445   2.619   2.136 -0.4165  0.3004  1.8885
24622SOL     OW76757   1.510   0.836   5.510  0.4250 -0.4656 -0.3546
24622SOL    HW176758   1.468   0.856   5.427  2.7429  0.4724 -1.3710
24622SOL    HW276759   1.445   0.861   5.576 -0.8091  0.3708 -1.8309
24623SOL     OW76760   2.399   5.757   5.542 -0.1037  0.0722 -0.0672
24623SOL    HW176761   2.423   5.811   5.617  1.2991 -0.6153  0.0083
24623SOL    HW276762   2.439   5.802   5.467 -0.3274  0.0185 -0.2181
24624SOL     OW76763   1.544   7.258   5.890  0.2683  0.8149  0.3503
24624SOL    HW176764   1.460   7.213   5.880  1.6960 -1.6606 -2.1237
24624SOL    HW276765   1.539   7.331   5.829 -0.2476  0.9872  0.5902
24625SOL     OW76766   8.150   7.986   9.099 -0.2697  0.5446  0.5671
24625SOL    HW176767   8.133   8.006   9.190 -0.7380  0.8440  0.4152
24625SOL    HW276768   8.104   8.053   9.050 -0.0169  0.3925  0.1071
24626SOL     OW76769   5.309   0.209   8.131  0.0966 -0.2609 -0.4560
24626SOL    HW176770   5.216   0.226   8.124 -0.1505  0.0184  2.4986
24626SOL    HW276771   5.321   0.123   8.090 -1.3084 -0.0520 -1.3664
24627SOL     OW76772   4.989   3.656   3.383  0.1821 -0.0317 -0.0790
24627SOL    HW176773   4.998   3.752   3.387  0.0413 -0.0306  0.2301
24627SOL    HW276774   4.907   3.642   3.335  0.2151  0.0025 -0.1456
24628SOL     OW76775   7.583   5.348   0.979  0.4631 -0.1303  0.3789
24628SOL    HW176776   7.518   5.313   1.041 -0.7566  2.3471  0.6160
24628SOL    HW276777   7.628   5.417   1.029  2.6685 -1.1285 -0.1066
24629SOL     OW76778   5.725   6.992   3.882 -0.4499 -0.0028  0.1371
24629SOL    HW176779   5.768   6.914   3.846  0.0530  0.3660 -0.0853
24629SOL    HW276780   5.785   7.063   3.861  0.3067  0.1323  2.4447
24630SOL     OW76781   3.371   1.303   3.080 -0.6599  0.2884  0.3117
24630SOL    HW176782   3.358   1.233   3.015 -1.1956  0.1946  0.5108
24630SOL    HW276783   3.463   1.296   3.104 -0.2031  0.9259 -1.1191
24631SOL     OW76784   4.781   0.588   0.315  0.1202 -0.2811 -0.4026
24631SOL    HW176785   4.797   0.677   0.346  0.7519 -1.3351  2.6194
24631SOL    HW276786   4.691   0.591   0.280  1.0079  2.0389 -2.8581
24632SOL     OW76787   9.104   7.582   3.279  0.6720 -0.3438  0.8854
24632SOL    HW176788   9.116   7.552   3.369  1.8577 -0.9852  0.5423
24632SOL    HW276789   9.057   7.511   3.236 -1.0092  0.4849  1.2628
24633SOL     OW76790   5.507   0.224   0.905 -0.2407 -0.1026 -0.4245
24633SOL    HW176791   5.453   0.227   0.984 -0.0400 -1.1223 -0.2373
24633SOL    HW276792   5.575   0.290   0.920 -0.3409 -0.1259  0.1575
24634SOL     OW76793   8.925   1.016   1.802  0.9540 -0.4014  0.3156
24634SOL    HW176794   8.987   0.958   1.757  0.4673  0.3050 -1.3279
24634SOL    HW276795   8.948   1.103   1.772  0.2410  0.0428  1.0251
24635SOL     OW76796   5.693   3.944   1.382  0.0521 -0.1071 -0.3104
24635SOL    HW176797   5.652   4.025   1.410  0.2713  0.6548 -2.0527
24635SOL    HW276798   5.624   3.897   1.334 -0.2648 -1.2837  1.2087
24636SOL     OW76799   3.372   2.788   0.873  0.0489  0.4675 -0.5031
24636SOL    HW176800   3.281   2.772   0.895  0.7699 -3.0105  0.4516
24636SOL    HW276801   3.401   2.855   0.935 -0.8553 -1.2742  1.9045
24637SOL     OW76802   2.540   5.963   5.344  0.2244 -0.3833  0.0111
24637SOL    HW176803   2.542   6.008   5.260  1.6101 -0.7566 -0.1803
24637SOL    HW276804   2.588   5.882   5.329 -1.9129 -1.8058  0.4406
24638SOL     OW76805   3.445   4.308   8.256 -0.3068  0.2095 -0.7282
24638SOL    HW176806   3.459   4.395   8.294  1.1134 -0.3391  0.0757
24638SOL    HW276807   3.459   4.321   8.162  3.1438  0.3101 -0.3143
24639SOL     OW76808   1.750   3.787   4.055 -0.2913 -0.3276  0.2666
24639SOL    HW176809   1.754   3.875   4.018  1.1421 -1.4485 -2.6097
24639SOL    HW276810   1.833   3.746   4.028 -0.7701 -2.4790  1.7505
24640SOL     OW76811   4.261   4.821   6.782  0.0720 -0.4852  0.6238
24640SOL    HW176812   4.245   4.823   6.877 -1.9747 -0.0753  0.3230
24640SOL    HW276813   4.299   4.906   6.762  0.4121 -0.5305  1.0501
24641SOL     OW76814   4.912   6.071   7.670 -0.1006 -0.5967 -0.1255
24641SOL    HW176815   4.932   6.020   7.749  1.0940  0.9870  0.6495
24641SOL    HW276816   4.994   6.067   7.619  0.2314  1.0234  0.2452
24642SOL     OW76817   1.433   3.026   7.428  0.2534 -0.0367  0.0305
24642SOL    HW176818   1.411   3.070   7.509  0.2618  1.4226 -0.7237
24642SOL    HW276819   1.494   3.085   7.384 -0.5729 -0.2637 -1.5135
24643SOL     OW76820   8.299   1.616   3.740 -0.4155 -0.4019 -0.0769
24643SOL    HW176821   8.333   1.705   3.735 -0.9019 -0.2113  0.0644
24643SOL    HW276822   8.296   1.597   3.834 -1.1802 -0.2354 -0.0651
24644SOL     OW76823   3.732   6.888   3.229 -0.1343  0.1484 -0.2627
24644SOL    HW176824   3.783   6.835   3.168 -0.2672 -0.9201  0.5094
24644SOL    HW276825   3.759   6.978   3.213  1.9264 -0.3640  0.0471
24645SOL     OW76826   6.317   3.154   3.751 -0.3246 -0.0156  0.2902
24645SOL    HW176827   6.333   3.146   3.657 -2.0138  0.9958 -0.1313
24645SOL    HW276828   6.393   3.202   3.784 -1.0574  2.2853 -1.1265
24646SOL     OW76829   4.034   5.155   1.898  0.0907 -0.3151  0.0570
24646SOL    HW176830   3.962   5.173   1.959  0.1349  0.2681 -0.0611
24646SOL    HW276831   4.111   5.148   1.954  0.1319  0.2235  0.0698
24647SOL     OW76832   0.751   5.247   2.315  0.5064  0.0249  0.2164
24647SOL    HW176833   0.771   5.250   2.409 -1.0536 -0.2698  0.5834
24647SOL    HW276834   0.804   5.175   2.282  1.2928  0.3158  0.8105
24648SOL     OW76835   7.758   7.031   0.339 -0.7051  0.5845 -0.0954
24648SOL    HW176836   7.848   7.058   0.354  0.1026 -1.1092 -1.5608
24648SOL    HW276837   7.735   7.070   0.254 -1.1356  0.4723 -0.0356
24649SOL     OW76838   5.571   7.966   7.831 -0.2854 -0.1621 -0.3582
24649SOL    HW176839   5.527   7.887   7.800 -0.3635 -0.0638 -0.4994
24649SOL    HW276840   5.569   7.958   7.927  0.7380 -0.8931 -0.3785
24650SOL     OW76841   7.750   0.332   7.441  0.0750  0.2457  0.1194
24650SOL    HW176842   7.812   0.405   7.438  3.3128 -1.9808  3.7393
24650SOL    HW276843   7.753   0.294   7.354 -0.0748  3.0111 -1.2138
24651SOL     OW76844   1.872   8.382   3.522  0.6119  0.1409  0.4185
24651SOL    HW176845   1.863   8.291   3.495 -0.5543  0.0609  1.0038
24651SOL    HW276846   1.806   8.429   3.472  0.4140  0.4650  0.9749
24652SOL     OW76847   7.264   3.863   4.083 -0.3520 -0.3543  0.0738
24652SOL    HW176848   7.259   3.959   4.084  1.7578 -0.2093  0.4943
24652SOL    HW276849   7.305   3.842   3.999 -1.1818 -0.9372 -0.1971
24653SOL     OW76850   6.511   4.197   1.578  0.5534 -0.3127 -0.1636
24653SOL    HW176851   6.529   4.244   1.496 -1.1351 -0.0641 -0.4336
24653SOL    HW276852   6.418   4.214   1.595  1.0246  0.2503  2.2086
24654SOL     OW76853   2.512   2.922   1.900 -0.4055  0.1725 -0.1656
24654SOL    HW176854   2.603   2.901   1.920 -0.1136  1.0085 -0.5563
24654SOL    HW276855   2.511   3.017   1.888 -1.2779  0.1432 -0.4488
24655SOL     OW76856   0.510   7.822   9.019  0.0641 -0.2283  0.0377
24655SOL    HW176857   0.457   7.899   8.997 -1.0397 -1.1363 -0.6087
24655SOL    HW276858   0.583   7.856   9.071 -1.6819  0.9734  1.8559
24656SOL     OW76859   2.825   2.658   2.932  0.4233 -0.3802  0.6980
24656SOL    HW176860   2.832   2.718   3.007  0.1301  0.7315 -0.1271
24656SOL    HW276861   2.811   2.572   2.971 -0.9889  0.3406  1.9046
24657SOL     OW76862   2.974   8.054   3.554 -0.1389 -0.6641 -0.0986
24657SOL    HW176863   3.018   7.969   3.565  0.9081 -0.0770  0.4404
24657SOL    HW276864   3.038   8.118   3.585 -1.7299  0.1854  1.5662
24658SOL     OW76865   1.272   1.189   7.941  0.6662  0.1778 -0.4305
24658SOL    HW176866   1.283   1.117   7.879  0.9394 -0.1334 -0.0259
24658SOL    HW276867   1.198   1.162   7.996  0.4605  0.4274 -0.5836
24659SOL     OW76868   6.221   7.994   5.139 -0.9689 -0.8428  0.3185
24659SOL    HW176869   6.145   7.941   5.114 -2.2441 -0.1998  2.5510
24659SOL    HW276870   6.196   8.084   5.114 -0.8460 -0.6641  0.8270
24660SOL     OW76871   1.324   2.139   8.263 -0.2745 -0.3060  0.1620
24660SOL    HW176872   1.333   2.114   8.355  1.1220  2.4428  0.9143
24660SOL    HW276873   1.230   2.138   8.247 -0.6478  0.2531  2.0251
24661SOL     OW76874   2.946   5.040   3.571 -0.0477  0.1618 -0.7556
24661SOL    HW176875   2.949   5.135   3.564 -0.1730  0.1010 -1.8074
24661SOL    HW276876   3.013   5.018   3.635 -2.1152  1.1661  1.9524
24662SOL     OW76877   4.879   4.871   1.246 -0.2805 -0.8049 -0.3336
24662SOL    HW176878   4.970   4.901   1.241 -0.3164 -0.8554 -1.3207
24662SOL    HW276879   4.860   4.870   1.340 -0.0729  1.6102 -0.2025
24663SOL     OW76880   1.941   4.714   8.189 -0.5001 -0.1625 -0.0088
24663SOL    HW176881   1.912   4.746   8.274 -0.7818 -1.4849  0.4205
24663SOL    HW276882   1.989   4.787   8.150 -0.0672  0.3416  1.4232
24664SOL     OW76883   1.142   1.134   6.882  0.4387 -0.7717 -0.2961
24664SOL    HW176884   1.237   1.144   6.883  0.3943  0.7124  3.3273
24664SOL    HW276885   1.111   1.212   6.836  0.9548 -0.1298  0.4118
24665SOL     OW76886   8.277   1.221   1.100 -0.6358  0.5219 -0.5366
24665SOL    HW176887   8.201   1.166   1.082  0.3525 -0.6284 -1.3912
24665SOL    HW276888   8.301   1.257   1.015  2.2665 -2.5484 -1.2260
24666SOL     OW76889   5.538   1.627   3.532  0.0289 -0.2162 -0.1996
24666SOL    HW176890   5.558   1.678   3.454 -0.4203 -2.2841 -1.7590
24666SOL    HW276891   5.602   1.655   3.597 -0.5441  2.6566 -0.7594
24667SOL     OW76892   2.165   8.904   2.314 -0.1577  0.1846  0.2854
24667SOL    HW176893   2.076   8.902   2.278  0.5193 -0.4361 -1.4222
24667SOL    HW276894   2.189   8.812   2.322  0.2604  0.3473  0.9639
24668SOL     OW76895   6.336   6.504   3.964 -0.3501  0.1906 -0.4786
24668SOL    HW176896   6.278   6.444   4.012  0.5040  0.2508  0.6634
24668SOL    HW276897   6.365   6.453   3.888  0.5785 -0.9896  0.6214
24669SOL     OW76898   7.964   4.886   3.963  0.1235  0.2184  0.1217
24669SOL    HW176899   8.030   4.823   3.991  0.8450  1.4727  1.3783
24669SOL    HW276900   8.012   4.969   3.953 -1.1812  1.0900  0.7431
24670SOL     OW76901   6.663   8.455   3.107 -0.6407  0.3257 -0.0602
24670SOL    HW176902   6.672   8.495   3.193 -0.2757  1.5953 -0.6565
24670SOL    HW276903   6.692   8.523   3.046 -0.6305 -0.6380 -1.1705
24671SOL     OW76904   0.573   4.540   4.485 -0.5659  0.2174 -0.4317
24671SOL    HW176905   0.507   4.610   4.484 -0.3256  0.5762  2.2473
24671SOL    HW276906   0.580   4.515   4.577  2.2993 -0.5473 -0.7836
24672SOL     OW76907   0.490   8.929   3.212 -0.9013 -0.5204  0.3627
24672SOL    HW176908   0.425   8.887   3.268 -3.1307 -0.2652 -1.8225
24672SOL    HW276909   0.443   9.001   3.171  1.3263  0.8000 -0.0006
24673SOL     OW76910   2.133   4.247   4.685 -0.2227  0.3724  0.0318
24673SOL    HW176911   2.194   4.292   4.627 -0.2909 -0.2910 -0.5698
24673SOL    HW276912   2.047   4.264   4.647 -0.2638 -0.1157 -0.0961
24674SOL     OW76913   1.601   1.762   5.998  0.3454 -0.7250  0.2352
24674SOL    HW176914   1.541   1.753   5.924  1.0294 -1.4738 -0.2488
24674SOL    HW276915   1.547   1.747   6.076 -0.7669  1.7139  0.0529
24675SOL     OW76916   6.288   1.303   5.530 -0.6443 -0.0992  0.2324
24675SOL    HW176917   6.303   1.397   5.541  0.4973 -0.2225 -0.1955
24675SOL    HW276918   6.365   1.271   5.484 -2.0990 -0.8392 -1.8287
24676SOL     OW76919   5.958   2.455   0.197  0.3744  0.2951  0.1378
24676SOL    HW176920   5.876   2.445   0.148  0.6956 -1.5823 -0.0962
24676SOL    HW276921   6.023   2.410   0.144  1.7378  2.3180  0.0018
24677SOL     OW76922   8.756   5.144   4.208 -0.3001  0.0852  0.3642
24677SOL    HW176923   8.833   5.198   4.223 -1.1095  1.1366  0.8784
24677SOL    HW276924   8.760   5.077   4.276  0.3182 -0.0554  0.1917
24678SOL     OW76925   8.261   2.323   2.250  0.2925 -0.0422 -0.1060
24678SOL    HW176926   8.334   2.298   2.193 -0.6096  0.3450 -1.4638
24678SOL    HW276927   8.209   2.383   2.197 -1.9716 -1.6484  0.1668
24679SOL     OW76928   0.729   1.144   1.706 -0.5440  0.1409 -0.8809
24679SOL    HW176929   0.801   1.102   1.752 -0.7369 -1.7706 -2.2080
24679SOL    HW276930   0.759   1.234   1.692  0.2177  0.2941  1.3454
24680SOL     OW76931   9.221   4.240   3.170  0.3779  0.0633 -0.1997
24680SOL    HW176932   9.273   4.291   3.233 -0.4589 -0.2235  0.7411
24680SOL    HW276933   9.148   4.205   3.221  0.0541 -0.7560 -1.1856
24681SOL     OW76934   1.008   8.198   7.374  0.2211 -0.2760  0.0576
24681SOL    HW176935   0.934   8.243   7.335  0.5992  0.5374  0.2687
24681SOL    HW276936   1.005   8.222   7.467 -0.0053 -1.2837  0.3254
24682SOL     OW76937   4.720   2.978   4.055 -0.2469 -0.0888 -0.2951
24682SOL    HW176938   4.814   2.965   4.060 -0.2153 -0.1098 -0.8207
24682SOL    HW276939   4.706   3.013   3.967 -0.7647 -0.4079 -0.3430
24683SOL     OW76940   8.052   6.865   5.210  0.3977  0.3253 -0.0240
24683SOL    HW176941   7.959   6.867   5.188 -0.5003  0.3101  3.1838
24683SOL    HW276942   8.093   6.815   5.139 -1.9937  0.4037 -1.5751
24684SOL     OW76943   4.404   5.181   1.098  0.0665  0.3700 -0.7025
24684SOL    HW176944   4.485   5.147   1.136 -0.1609  0.1024 -0.4585
24684SOL    HW276945   4.399   5.140   1.011 -0.9216 -1.3292  0.1251
24685SOL     OW76946   3.947   3.759   6.015 -0.1440 -0.2262 -0.0574
24685SOL    HW176947   3.921   3.691   5.953  0.9113  0.9414 -1.8498
24685SOL    HW276948   3.870   3.815   6.022 -0.3744 -0.5390 -0.0417
24686SOL     OW76949   1.370   5.596   5.390 -0.3994 -0.4562 -0.0053
24686SOL    HW176950   1.437   5.532   5.416 -1.0281 -1.7324 -1.3366
24686SOL    HW276951   1.301   5.542   5.351 -1.7206  0.9271  0.3560
24687SOL     OW76952   5.263   0.209   6.932 -0.3673  0.5637 -0.1931
24687SOL    HW176953   5.217   0.145   6.878  0.3712 -0.4492  0.3456
24687SOL    HW276954   5.209   0.219   7.010  0.8429 -1.5774  1.0254
24688SOL     OW76955   8.244   8.228   3.719 -0.5245  0.1129 -0.3718
24688SOL    HW176956   8.149   8.239   3.727 -0.9808 -2.8133 -0.9663
24688SOL    HW276957   8.261   8.228   3.625  0.0019 -0.0256 -0.2795
24689SOL     OW76958   7.771   4.870   2.661 -0.1375  0.4240  0.2915
24689SOL    HW176959   7.753   4.945   2.604 -0.0865 -0.2901 -0.6999
24689SOL    HW276960   7.703   4.873   2.728  0.6633  2.1314  1.1025
24690SOL     OW76961   8.003   0.298   2.807  0.7744 -0.1518  0.4644
24690SOL    HW176962   7.922   0.269   2.764  1.4521 -0.6044 -0.5383
24690SOL    HW276963   7.981   0.384   2.843  0.5939  1.0092 -2.1442
24691SOL     OW76964   6.994   1.368   5.165 -0.3449 -0.3035  0.2257
24691SOL    HW176965   7.074   1.322   5.139  0.6998  1.1164  0.7483
24691SOL    HW276966   6.943   1.375   5.085  0.9022  0.3424 -0.5354
24692SOL     OW76967   5.069   7.932   6.514 -0.6027 -0.4495  0.0079
24692SOL    HW176968   5.083   8.027   6.518 -0.9364 -0.4504  1.8164
24692SOL    HW276969   4.982   7.922   6.475 -0.2833 -0.0604 -0.8383
24693SOL     OW76970   2.456   1.938   3.142 -0.2412  0.7145  0.0120
24693SOL    HW176971   2.382   1.877   3.137  0.3880  0.0001 -0.9440
24693SOL    HW276972   2.425   2.009   3.198 -0.6163 -1.0222  2.1598
24694SOL     OW76973   7.089   0.198   6.880  0.7461  0.4415 -0.3974
24694SOL    HW176974   7.155   0.241   6.935  0.9573  1.1058 -1.1562
24694SOL    HW276975   7.136   0.173   6.801 -0.0393  1.5202 -1.2328
24695SOL     OW76976   0.752   8.436   1.519  0.1072 -0.4022  0.2500
24695SOL    HW176977   0.684   8.486   1.564 -0.7605 -0.5445 -0.8297
24695SOL    HW276978   0.704   8.366   1.474  1.1419 -1.3841  0.6266
24696SOL     OW76979   2.988   7.984   1.313  0.4392 -0.5125 -0.4487
24696SOL    HW176980   2.988   8.080   1.311 -0.5701 -0.4552  1.0138
24696SOL    HW276981   2.961   7.962   1.402  2.3091 -2.1768 -0.2220
24697SOL     OW76982   8.125   6.750   0.801  0.1333 -0.1581  0.4079
24697SOL    HW176983   8.074   6.799   0.866 -1.2786 -1.0903  0.0591
24697SOL    HW276984   8.059   6.718   0.739  1.4221  0.6034 -1.4482
24698SOL     OW76985   0.402   5.356   0.739 -0.0216 -0.1724 -0.4121
24698SOL    HW176986   0.307   5.353   0.729  0.0958  1.3243 -2.5591
24698SOL    HW276987   0.417   5.422   0.807 -0.5022  0.0531 -0.5192
24699SOL     OW76988   0.615   8.882   8.630  0.5899 -0.4284 -0.2337
24699SOL    HW176989   0.616   8.978   8.631 -0.8709 -0.3641 -1.3705
24699SOL    HW276990   0.670   8.858   8.555 -0.5648 -0.3652 -1.1483
24700SOL     OW76991   5.632   6.888   1.447  0.1439  0.2891 -0.0915
24700SOL    HW176992   5.556   6.831   1.436  0.6657 -0.2126 -1.2882
24700SOL    HW276993   5.595   6.975   1.463 -0.7110  0.3045 -1.9503
24701SOL     OW76994   5.373   5.165   0.039  0.0068 -0.5472  0.3724
24701SOL    HW176995   5.404   5.078   0.063 -1.1279 -1.0748 -0.0001
24701SOL    HW276996   5.317   5.150  -0.038  0.7780  0.6646 -0.4694
24702SOL     OW76997   4.556   4.070   7.168 -0.1779  0.1258 -0.0656
24702SOL    HW176998   4.578   4.078   7.261 -0.7076 -0.6080  0.1307
24702SOL    HW276999   4.466   4.103   7.161 -0.3884 -0.4524 -0.1900
24703SOL     OW77000   7.728   3.852   5.663  0.3559  0.0155 -0.5554
24703SOL    HW177001   7.775   3.771   5.680  1.0087  0.5200  0.0908
24703SOL    HW277002   7.771   3.917   5.719 -2.1747  0.1682  1.3719
24704SOL     OW77003   1.331   8.819   2.797  1.1600  0.5043  0.1001
24704SOL    HW177004   1.350   8.725   2.800  4.2770  1.0344  2.0991
24704SOL    HW277005   1.269   8.834   2.868 -3.2455 -0.4839 -3.0948
24705SOL     OW77006   2.905   1.293   7.192 -0.2618  0.2566 -0.2375
24705SOL    HW177007   2.929   1.215   7.142 -1.1532  0.0579 -0.3758
24705SOL    HW277008   2.829   1.328   7.146 -1.2941 -0.1001  1.1217
24706SOL     OW77009   3.152   1.429   0.168 -0.0927  0.0159  0.3208
24706SOL    HW177010   3.224   1.368   0.152  1.1249  1.1732  1.0669
24706SOL    HW277011   3.080   1.397   0.113  1.0055 -1.1532 -0.5097
24707SOL     OW77012   7.540   6.853   0.416  0.5344  0.1647 -0.0201
24707SOL    HW177013   7.572   6.934   0.377 -1.0044 -0.1690 -2.1122
24707SOL    HW277014   7.582   6.784   0.365 -1.9920 -0.2778 -1.6327
24708SOL     OW77015   4.765   2.433   6.810 -0.4601  0.0877  0.0863
24708SOL    HW177016   4.840   2.441   6.870  0.3273 -0.8216 -0.7451
24708SOL    HW277017   4.697   2.393   6.863  0.4720 -1.4096  0.2128
24709SOL     OW77018   7.972   4.624   1.092  0.3405  0.4665 -0.2371
24709SOL    HW177019   8.029   4.548   1.105 -0.1318  0.1540  0.0490
24709SOL    HW277020   7.914   4.624   1.168 -1.5220 -0.5403 -1.5764
24710SOL     OW77021   8.191   5.756   4.217  0.0811 -0.2307  0.1625
24710SOL    HW177022   8.112   5.770   4.269  0.4826 -1.4810  1.1433
24710SOL    HW277023   8.162   5.773   4.127 -1.6235 -1.7354  0.3577
24711SOL     OW77024   4.914   4.805   3.543 -0.1210  0.6889  0.2879
24711SOL    HW177025   4.968   4.811   3.464 -2.5533  0.2629 -1.5242
24711SOL    HW277026   4.974   4.826   3.615  2.5515 -0.2934 -1.5025
24712SOL     OW77027   2.076   0.163   6.610  0.4743  0.0835 -0.1209
24712SOL    HW177028   1.993   0.146   6.655  0.0322  0.6359 -0.7086
24712SOL    HW277029   2.138   0.101   6.649  0.2669  0.9264  1.7079
24713SOL     OW77030   2.597   6.709   2.923 -0.6316  0.3764 -0.0896
24713SOL    HW177031   2.559   6.649   2.988 -0.4852 -0.1582 -0.4997
24713SOL    HW277032   2.540   6.786   2.926 -2.1599 -0.6623 -1.1448
24714SOL     OW77033   7.629   1.612   4.239  0.5706 -0.5229 -0.2733
24714SOL    HW177034   7.722   1.599   4.254  0.6910  1.2314  0.7562
24714SOL    HW277035   7.615   1.706   4.249 -1.0004 -0.4549 -2.3341
24715SOL     OW77036   0.105   2.465   7.690 -0.0304  0.4988  0.3996
24715SOL    HW177037   0.115   2.547   7.738  0.3238  0.4109  0.4855
24715SOL    HW277038   0.026   2.425   7.725 -1.9964  2.2110 -1.7457
24716SOL     OW77039   5.506   1.269   3.885 -0.2508  0.6949  0.1910
24716SOL    HW177040   5.489   1.181   3.919 -1.9278  0.5469 -0.9322
24716SOL    HW277041   5.568   1.256   3.813 -1.5945  0.2164 -0.9213
24717SOL     OW77042   6.295   5.174   5.180  0.5597  0.0380  0.5437
24717SOL    HW177043   6.220   5.158   5.122 -0.3479  1.0018  1.3886
24717SOL    HW277044   6.333   5.255   5.148  0.6696  0.0386  0.6765
24718SOL     OW77045   8.534   2.350   1.030 -0.5082 -0.5720 -0.5971
24718SOL    HW177046   8.575   2.272   0.991  1.4363  0.8249 -1.5413
24718SOL    HW277047   8.563   2.349   1.121  1.1333 -0.0178 -1.0649
24719SOL     OW77048   3.913   1.949   6.556  0.7447 -0.1569  0.1297
24719SOL    HW177049   3.889   2.001   6.632  1.5822 -0.0430  0.3144
24719SOL    HW277050   3.960   2.010   6.498 -1.2564  0.2052 -1.2362
24720SOL     OW77051   1.511   8.172   1.708 -0.6544  0.3694 -0.4956
24720SOL    HW177052   1.506   8.135   1.620  0.6593 -0.4416 -0.2653
24720SOL    HW277053   1.578   8.241   1.701  1.3956 -1.4092  0.3656
24721SOL     OW77054   0.681   3.202   8.008 -0.1937 -0.2626  0.6684
24721SOL    HW177055   0.679   3.107   7.997  1.2025 -0.2893  0.4854
24721SOL    HW277056   0.632   3.236   7.932 -0.0686 -0.8103  0.3413
24722SOL     OW77057   7.101   3.054   8.660  0.0698 -0.0592 -0.1863
24722SOL    HW177058   7.018   3.092   8.631 -1.3441 -1.1988  2.0867
24722SOL    HW277059   7.126   2.995   8.589 -0.5758  0.9646 -1.2983
24723SOL     OW77060   4.669   6.201   7.393  0.1912 -0.1771 -0.2599
24723SOL    HW177061   4.711   6.276   7.434  1.0454 -0.3733 -0.7366
24723SOL    HW277062   4.656   6.138   7.464 -0.1713  0.2667  0.0678
24724SOL     OW77063   2.257   8.356   5.953 -0.5187  0.1155 -0.9623
24724SOL    HW177064   2.345   8.375   5.984 -0.9882 -0.1397  0.6063
24724SOL    HW277065   2.217   8.442   5.940 -0.3800  0.2201 -0.6879
24725SOL     OW77066   2.627   2.713   5.038 -0.1942  0.0963 -0.0151
24725SOL    HW177067   2.551   2.753   5.082 -1.4892 -1.7771 -0.4371
24725SOL    HW277068   2.597   2.695   4.949  1.4033  1.0470 -0.7860
24726SOL     OW77069   4.823   1.074   6.244  0.4911 -0.0923 -0.5422
24726SOL    HW177070   4.887   1.005   6.263 -0.5715 -0.7392  0.8471
24726SOL    HW277071   4.788   1.099   6.329 -0.0269  1.3310 -1.1407
24727SOL     OW77072   7.557   1.653   2.922  0.0590  0.2518 -0.0015
24727SOL    HW177073   7.537   1.711   2.996  0.5108  0.3526  0.0430
24727SOL    HW277074   7.569   1.567   2.962 -0.8388  0.0723 -0.0930
24728SOL     OW77075   1.031   2.117   8.230  0.0641  0.0143 -0.4021
24728SOL    HW177076   1.019   2.189   8.168 -0.4556  0.8991  0.6827
24728SOL    HW277077   1.012   2.156   8.315  0.8252 -1.1547  0.3273
24729SOL     OW77078   9.131   7.701   0.588  0.0498  0.0226 -0.8670
24729SOL    HW177079   9.177   7.761   0.646 -2.5486  0.5715  0.7597
24729SOL    HW277080   9.114   7.753   0.509  2.0243 -0.1755 -1.4857
24730SOL     OW77081   4.982   9.193   7.226  0.0417  0.3861  0.5546
24730SOL    HW177082   4.978   9.104   7.262 -0.7544  0.6760  1.2318
24730SOL    HW277083   5.014   9.182   7.137  0.6868 -0.5016  0.8800
24731SOL     OW77084   1.312   2.133   8.521  0.2252  0.1504 -0.2399
24731SOL    HW177085   1.253   2.062   8.545  0.5233  0.1412  0.4831
24731SOL    HW277086   1.296   2.202   8.586  1.3243 -0.0402  0.2571
24732SOL     OW77087   6.661   9.027   5.091  0.4218 -0.0639  0.1931
24732SOL    HW177088   6.662   9.111   5.138  0.0138  0.8862 -1.4010
24732SOL    HW277089   6.737   9.031   5.033  0.3119 -0.7432 -0.0070
24733SOL     OW77090   4.191   8.280   4.989 -0.3704 -0.1506 -0.3863
24733SOL    HW177091   4.220   8.371   5.002  0.2187 -0.3800 -0.0160
24733SOL    HW277092   4.157   8.278   4.900 -0.3806  0.4345 -0.4017
24734SOL     OW77093   6.057   0.694   0.700 -0.2536 -0.0220 -0.3707
24734SOL    HW177094   6.149   0.703   0.726 -0.5251 -1.2797  1.1594
24734SOL    HW277095   6.053   0.735   0.613  1.6605  0.3832 -0.3196
24735SOL     OW77096   4.581   4.035   0.470 -0.5647  0.2711  0.4079
24735SOL    HW177097   4.560   4.096   0.541 -0.3368  0.1480  0.5872
24735SOL    HW277098   4.544   4.074   0.392 -0.9279  0.3485  0.6170
24736SOL     OW77099   7.924   2.408   8.164 -0.0517  0.0453 -0.1746
24736SOL    HW177100   7.867   2.332   8.178 -0.1938  0.1201 -0.3469
24736SOL    HW277101   7.875   2.482   8.199  0.1750  0.0301  0.1846
24737SOL     OW77102   2.941   3.958   8.905  0.5401 -0.4091 -0.0566
24737SOL    HW177103   3.025   3.927   8.939  0.1214  0.9164  2.3753
24737SOL    HW277104   2.951   4.053   8.901 -0.3674 -0.3426 -1.1898
24738SOL     OW77105   7.479   5.978   6.232 -0.1971  0.4643  0.1428
24738SOL    HW177106   7.464   6.030   6.311 -1.1755 -0.2649  0.4566
24738SOL    HW277107   7.432   5.896   6.248  2.1294 -0.9764  0.1056
24739SOL     OW77108   5.490   2.973   0.624 -0.1305  0.5567 -0.2057
24739SOL    HW177109   5.529   2.898   0.669 -0.5063 -0.8914 -2.1511
24739SOL    HW277110   5.560   3.007   0.569 -0.5964  0.1054 -1.1080
24740SOL     OW77111   2.498   1.954   0.003 -0.5006 -0.1695 -0.1801
24740SOL    HW177112   2.464   2.016   0.068 -1.2391 -0.1135 -0.6194
24740SOL    HW277113   2.586   1.932   0.036 -0.3471  0.8668  0.1469
24741SOL     OW77114   7.312   6.289   5.786 -0.3367 -0.4986 -0.1193
24741SOL    HW177115   7.257   6.291   5.864  2.1718  0.3170  1.7844
24741SOL    HW277116   7.313   6.379   5.755 -0.5939 -0.6380 -0.5347
24742SOL     OW77117   3.556   6.735   8.138  0.1681 -0.3650  0.2488
24742SOL    HW177118   3.621   6.784   8.089 -0.5424  0.7323  0.3866
24742SOL    HW277119   3.535   6.660   8.081 -0.0929  0.4735 -0.7855
24743SOL     OW77120   4.969   6.898   6.271 -0.0660 -0.2218  0.2872
24743SOL    HW177121   4.878   6.891   6.298 -0.6030 -2.0701 -1.6536
24743SOL    HW277122   5.015   6.833   6.324 -0.0041  0.2201  0.7779
24744SOL     OW77123   8.524   4.739   2.133 -0.0508  0.2287  0.4927
24744SOL    HW177124   8.491   4.688   2.060  3.9675 -2.6077  0.3454
24744SOL    HW277125   8.472   4.710   2.208 -0.9016 -0.5993 -0.3973
24745SOL     OW77126   0.805   7.677   1.188  0.1967  0.1385  0.2725
24745SOL    HW177127   0.836   7.636   1.269 -0.4364 -0.1770  0.3656
24745SOL    HW277128   0.710   7.666   1.191  0.2390 -0.7489 -0.9864
24746SOL     OW77129   0.876   5.100   5.798 -0.8364 -0.1091 -0.0843
24746SOL    HW177130   0.948   5.155   5.828 -0.9115 -0.6594  1.1765
24746SOL    HW277131   0.856   5.043   5.873 -1.9381 -0.6247 -0.7368
24747SOL     OW77132   7.622   6.101   8.639 -0.0297  0.6277 -0.0159
24747SOL    HW177133   7.590   6.126   8.552  0.7412 -0.2177 -0.5696
24747SOL    HW277134   7.545   6.068   8.684 -0.2277 -0.0381 -0.8133
24748SOL     OW77135   0.944   8.252   7.648 -0.0722  0.4309 -0.3376
24748SOL    HW177136   0.863   8.203   7.636 -0.2493  0.1468  1.6323
24748SOL    HW277137   1.010   8.185   7.668  0.0494  0.8344  0.6848
24749SOL     OW77138   3.686   2.958   4.886 -0.2785  0.3559  0.2191
24749SOL    HW177139   3.700   2.962   4.791  0.1967 -2.2966  0.0870
24749SOL    HW277140   3.592   2.940   4.895 -0.0016 -1.2766  0.1144
24750SOL     OW77141   0.218   4.769   5.554 -0.0500  0.0264 -0.3703
24750SOL    HW177142   0.190   4.717   5.629 -1.8875  1.2562 -0.1239
24750SOL    HW277143   0.259   4.846   5.593  0.7302 -0.2232 -0.6831
24751SOL     OW77144   6.794   7.318   4.147 -0.1313  0.4515 -0.2551
24751SOL    HW177145   6.719   7.339   4.202  0.2122  0.5389  0.1950
24751SOL    HW277146   6.850   7.396   4.152  0.3811  0.0726  0.1026
24752SOL     OW77147   0.479   5.246   2.723 -0.1489  0.3478  0.1958
24752SOL    HW177148   0.407   5.231   2.785 -0.5618 -0.4216 -0.4522
24752SOL    HW277149   0.554   5.267   2.778 -0.8786  1.2336  0.8849
24753SOL     OW77150   5.960   8.677   1.184 -0.2743  0.0535  0.0280
24753SOL    HW177151   5.945   8.646   1.273  0.1920 -1.0463 -0.2568
24753SOL    HW277152   5.880   8.723   1.161 -1.5276 -1.9627  0.0723
24754SOL     OW77153   6.643   5.129   8.867 -0.7976  0.2930 -0.1215
24754SOL    HW177154   6.720   5.186   8.867 -2.9022  3.4041  0.5323
24754SOL    HW277155   6.612   5.131   8.777  0.1162 -1.4104 -0.5092
24755SOL     OW77156   1.926   8.493   1.587 -0.1203  0.1639 -0.2083
24755SOL    HW177157   1.987   8.567   1.581  0.4287 -0.3362 -0.9683
24755SOL    HW277158   1.975   8.425   1.633  0.2369 -0.5492 -1.5827
24756SOL     OW77159   5.193   2.748   7.525 -0.3233  0.7756  0.4940
24756SOL    HW177160   5.113   2.733   7.475 -0.0010 -1.2238  0.4629
24756SOL    HW277161   5.263   2.744   7.460  0.0166 -0.7719  0.9097
24757SOL     OW77162   0.537   0.609   8.989 -0.0749 -0.0876  0.0416
24757SOL    HW177163   0.495   0.530   9.022 -1.0490 -0.2431 -1.5040
24757SOL    HW277164   0.575   0.584   8.905  1.3734  0.5873  0.4507
24758SOL     OW77165   0.397   3.378   0.137  0.1012 -0.5190 -0.2765
24758SOL    HW177166   0.308   3.370   0.104  0.8116  0.1108 -2.4818
24758SOL    HW277167   0.452   3.339   0.069  1.4138 -3.2504  2.1075
24759SOL     OW77168   7.188   7.788   8.383  0.1952  0.2396  0.0476
24759SOL    HW177169   7.155   7.740   8.307  2.8170 -0.7957 -0.5171
24759SOL    HW277170   7.240   7.859   8.346  1.4756 -0.2596  0.8432
24760SOL     OW77171   4.442   5.268   1.619 -0.4396  0.1802 -0.9640
24760SOL    HW177172   4.441   5.257   1.524  0.1283  0.6056 -1.0262
24760SOL    HW277173   4.503   5.340   1.634  2.7323 -2.4526 -0.0257
24761SOL     OW77174   8.147   7.162   8.816 -0.6098 -0.3756  0.2439
24761SOL    HW177175   8.083   7.095   8.840  1.6112 -1.9172  2.2675
24761SOL    HW277176   8.134   7.232   8.881  1.0848 -1.6488  2.0430
24762SOL     OW77177   7.657   8.275   8.781 -0.3085 -0.0792  0.1279
24762SOL    HW177178   7.740   8.315   8.756 -0.0009 -2.2095 -2.7851
24762SOL    HW277179   7.683   8.198   8.833 -0.6533  0.6648  1.4528
24763SOL     OW77180   9.076   1.047   5.927  0.6692 -0.5950  0.8159
24763SOL    HW177181   9.124   0.998   5.860  1.5257 -0.2676  1.1672
24763SOL    HW277182   9.137   1.116   5.954 -0.6028  0.8651  0.1279
24764SOL     OW77183   3.389   4.440   5.633  0.1314 -0.1413  0.5462
24764SOL    HW177184   3.421   4.376   5.698 -0.0294 -1.9775 -1.0931
24764SOL    HW277185   3.466   4.492   5.612  1.4019 -2.4368 -0.9860
24765SOL     OW77186   5.590   2.956   7.415 -0.6311  0.1988  0.2158
24765SOL    HW177187   5.533   3.026   7.444 -0.1345 -0.2280  2.4399
24765SOL    HW277188   5.679   2.990   7.428 -0.3634  0.1103 -1.2413
24766SOL     OW77189   7.092   2.577   1.561 -0.0610 -0.4801 -0.0536
24766SOL    HW177190   7.152   2.651   1.555  0.2507 -0.6327  1.0554
24766SOL    HW277191   7.136   2.514   1.618 -1.6419 -0.2264  1.5253
24767SOL     OW77192   0.789   1.575   2.061  0.4451 -0.2069  0.7482
24767SOL    HW177193   0.712   1.535   2.101 -0.8671  0.9638 -0.4961
24767SOL    HW277194   0.837   1.612   2.135 -2.0297  2.0801  1.3713
24768SOL     OW77195   3.926   4.270   5.841  0.0465 -0.2684 -0.5214
24768SOL    HW177196   3.841   4.228   5.830  0.4708 -0.6334 -3.1318
24768SOL    HW277197   3.988   4.209   5.800  1.3643  0.6233  0.0957
24769SOL     OW77198   0.962   0.841   0.560  0.0420 -0.1932  0.3424
24769SOL    HW177199   1.011   0.810   0.636 -0.2832 -1.2429  0.1438
24769SOL    HW277200   0.898   0.902   0.595  1.2134  0.9029  0.6562
24770SOL     OW77201   5.534   8.237   4.021 -0.2275  0.3359  0.2655
24770SOL    HW177202   5.522   8.228   4.116  0.5600  2.0966  0.5683
24770SOL    HW277203   5.492   8.321   4.000 -1.0562 -0.3925 -1.0876
24771SOL     OW77204   4.291   8.337   0.004 -0.4064 -0.3177  0.5450
24771SOL    HW177205   4.315   8.246  -0.017  0.4613 -0.6780  2.8522
24771SOL    HW277206   4.196   8.335   0.012 -0.4171 -0.9579  0.3357
24772SOL     OW77207   5.892   2.478   1.975 -0.0799 -0.0865 -0.1948
24772SOL    HW177208   5.909   2.563   2.015  0.5574  0.2501 -1.1527
24772SOL    HW277209   5.898   2.416   2.047 -0.6442  0.6778  0.5348
24773SOL     OW77210   5.235   2.968   2.679 -0.3529 -0.2836 -0.5902
24773SOL    HW177211   5.221   3.062   2.671 -0.3902 -0.4050 -2.4343
24773SOL    HW277212   5.304   2.949   2.616 -2.3460 -1.9035 -2.4283
24774SOL     OW77213   7.408   8.609   0.203  0.2751 -0.8677 -0.1200
24774SOL    HW177214   7.424   8.537   0.264 -0.2844 -0.3099  0.7089
24774SOL    HW277215   7.379   8.566   0.122 -1.8008 -1.5668  0.9044
24775SOL     OW77216   3.857   8.841   6.007  0.4024  0.0312 -0.1697
24775SOL    HW177217   3.812   8.884   6.080 -0.0140 -0.6539 -0.0182
24775SOL    HW277218   3.852   8.748   6.027 -2.1318 -0.4163 -2.3986
24776SOL     OW77219   7.593   7.097   7.257 -0.1163  0.0117 -0.3155
24776SOL    HW177220   7.669   7.047   7.285 -0.2848 -0.6333 -0.9815
24776SOL    HW277221   7.529   7.083   7.327  0.3139  0.4160  0.1614
24777SOL     OW77222   5.106   1.060   8.009 -0.7005  0.8473 -0.5299
24777SOL    HW177223   5.171   1.105   8.063 -1.4327  0.1255  1.0145
24777SOL    HW277224   5.047   1.130   7.980 -0.9922  1.1214  0.6479
24778SOL     OW77225   1.843   3.184   5.037 -0.2461  0.3708 -0.4930
24778SOL    HW177226   1.869   3.235   5.113 -0.9827  0.7836 -0.5099
24778SOL    HW277227   1.755   3.154   5.058  0.9745 -2.9146  0.5627
24779SOL     OW77228   7.229   8.174   1.409  0.9885 -0.3639 -0.4213
24779SOL    HW177229   7.207   8.082   1.424 -1.8208  0.2781 -0.0622
24779SOL    HW277230   7.219   8.215   1.494  0.0070  0.6334 -0.9891
24780SOL     OW77231   6.024   4.953   9.196 -0.0451  0.3204  0.2343
24780SOL    HW177232   6.006   4.986   9.108 -2.2964  1.0498  0.8939
24780SOL    HW277233   6.089   5.014   9.231  1.1256 -0.1792 -1.0220
24781SOL     OW77234   7.860   9.036   8.495  0.4366 -0.1252 -0.0019
24781SOL    HW177235   7.768   9.056   8.515  0.3795 -0.7573  0.3684
24781SOL    HW277236   7.885   8.969   8.559  0.3276 -2.0313 -1.8562
24782SOL     OW77237   4.459   6.735   7.011  0.7709 -0.3534 -0.2935
24782SOL    HW177238   4.516   6.732   6.934 -0.0244  0.1067 -0.9167
24782SOL    HW277239   4.472   6.651   7.054  0.6867 -0.9073 -1.3354
24783SOL     OW77240   0.403   4.228   9.057  0.6753  0.4192  0.3942
24783SOL    HW177241   0.354   4.226   9.139  1.2376 -0.4308  0.7318
24783SOL    HW277242   0.336   4.227   8.988  0.1991  1.2130  0.8404
24784SOL     OW77243   3.154   2.990   6.342 -0.6314 -0.0483 -0.2316
24784SOL    HW177244   3.120   3.035   6.264  0.1970  0.4354 -0.3293
24784SOL    HW277245   3.218   3.052   6.378 -0.1381 -0.7763  0.1544
24785SOL     OW77246   8.331   4.972   1.374 -0.4700  0.1482 -0.1215
24785SOL    HW177247   8.283   4.889   1.384 -1.6059  0.3989 -2.5539
24785SOL    HW277248   8.418   4.955   1.409 -1.4030 -1.3129  1.6135
24786SOL     OW77249   8.585   2.624   6.532  0.0367  0.7158  0.4018
24786SOL    HW177250   8.587   2.576   6.450  2.2212 -2.2311  2.0109
24786SOL    HW277251   8.645   2.697   6.519 -0.7384  1.1361 -1.0059
24787SOL     OW77252   2.921   1.426   0.472  0.2435  0.3823 -0.4103
24787SOL    HW177253   2.828   1.446   0.460  0.4895  0.8440 -1.6772
24787SOL    HW277254   2.966   1.488   0.415  1.3689  0.5631  0.6357
24788SOL     OW77255   8.926   7.830   3.460  0.0436 -0.5265 -0.2441
24788SOL    HW177256   8.911   7.902   3.399 -2.7427  0.3586  1.3065
24788SOL    HW277257   8.860   7.765   3.435  0.6862 -1.3418  0.1394
24789SOL     OW77258   6.101   6.477   8.056 -0.5426  0.3829 -0.2499
24789SOL    HW177259   6.063   6.508   7.975 -0.9530  0.9203  0.1421
24789SOL    HW277260   6.039   6.411   8.088  0.6269 -1.3455 -1.3913
24790SOL     OW77261   0.407   9.121   8.357 -0.2439 -0.0514 -0.2246
24790SOL    HW177262   0.385   9.032   8.385 -0.1080  0.2952  1.0444
24790SOL    HW277263   0.419   9.169   8.439  1.2757  0.7457 -0.8873
24791SOL     OW77264   3.936   3.148   3.404  0.0592  0.2750  0.3342
24791SOL    HW177265   3.955   3.068   3.453  0.5166  0.1183 -0.0838
24791SOL    HW277266   3.858   3.127   3.353  0.6935 -0.2181 -0.4558
24792SOL     OW77267   1.126   1.271   0.534 -0.5232 -0.2811 -0.8879
24792SOL    HW177268   1.177   1.348   0.507  0.9341 -0.5961  0.8351
24792SOL    HW277269   1.177   1.196   0.504  0.9173 -0.6348  2.1137
24793SOL     OW77270   2.368   8.103   2.816 -0.9936  0.4875 -0.1165
24793SOL    HW177271   2.401   8.018   2.845  1.5999  0.1752 -3.4187
24793SOL    HW277272   2.314   8.083   2.740 -1.4048  1.7464 -0.1714
24794SOL     OW77273   5.976   8.226   1.494 -0.1544 -0.2571 -0.4023
24794SOL    HW177274   5.918   8.261   1.561 -0.7906  1.0691 -1.5918
24794SOL    HW277275   6.054   8.197   1.542 -0.4595  0.9218  0.8606
24795SOL     OW77276   6.840   6.723   5.239 -0.4974 -0.1203 -0.4983
24795SOL    HW177277   6.745   6.713   5.234 -0.7434  2.3811 -2.0418
24795SOL    HW277278   6.874   6.666   5.170 -1.0254  0.5839 -1.3462
24796SOL     OW77279   4.124   0.713   0.602  0.5227 -0.2308 -0.0144
24796SOL    HW177280   4.098   0.779   0.538  0.5677  1.1672  1.3474
24796SOL    HW277281   4.096   0.630   0.563  0.2676  0.5886 -1.6833
24797SOL     OW77282   0.712   3.688   7.266 -0.2128 -0.2964 -0.2932
24797SOL    HW177283   0.651   3.666   7.337 -1.5571  0.5716 -1.1417
24797SOL    HW277284   0.684   3.774   7.236  1.1907 -0.0632 -0.9960
24798SOL     OW77285   2.873   0.690   6.748 -0.5153  0.4279  0.1953
24798SOL    HW177286   2.851   0.718   6.660 -1.0515 -1.2121 -0.2160
24798SOL    HW277287   2.811   0.737   6.805  0.1259  1.8371 -0.2190
24799SOL     OW77288   1.277   1.433   0.749 -0.5223 -0.3782  0.0509
24799SOL    HW177289   1.372   1.431   0.764 -0.9715 -1.5617  3.8108
24799SOL    HW277290   1.252   1.341   0.740 -1.3439 -0.0696 -1.0727
24800SOL     OW77291   2.434   8.603   3.586  0.1429  0.4364  0.6915
24800SOL    HW177292   2.419   8.539   3.656 -0.6453 -0.0377  0.0975
24800SOL    HW277293   2.358   8.596   3.529  0.6648  0.9863 -0.1025
24801SOL     OW77294   3.986   0.791   8.072  0.1626  0.2720 -0.4614
24801SOL    HW177295   3.971   0.697   8.084  0.5318  0.4511  1.6991
24801SOL    HW277296   3.908   0.833   8.108 -0.0605  0.8230 -1.5307
24802SOL     OW77297   7.809   8.693   4.808  0.5889 -0.7496  0.1737
24802SOL    HW177298   7.754   8.748   4.864  0.5137 -0.1386 -0.4812
24802SOL    HW277299   7.881   8.751   4.782  2.0255 -1.7688  1.6842
24803SOL     OW77300   6.254   6.891   0.593  0.2594  0.2021  0.1634
24803SOL    HW177301   6.161   6.897   0.618 -0.6032 -0.0756 -2.6381
24803SOL    HW277302   6.275   6.977   0.558  0.6861 -0.0861 -0.3078
24804SOL     OW77303   0.741   3.690   2.348  0.1434 -0.6639  0.3913
24804SOL    HW177304   0.749   3.619   2.284  1.5053 -1.0802  0.9826
24804SOL    HW277305   0.696   3.760   2.301  0.5737 -1.1771 -0.8309
24805SOL     OW77306   1.837   1.810   7.123 -0.4559  0.4607  0.2901
24805SOL    HW177307   1.753   1.833   7.162 -0.7230  3.0305 -1.5441
24805SOL    HW277308   1.896   1.882   7.147  0.9520 -0.7463  0.6331
24806SOL     OW77309   0.683   0.184   9.255 -0.1034 -0.1888  0.5732
24806SOL    HW177310   0.641   0.183   9.340 -1.0116  1.3656  0.1777
24806SOL    HW277311   0.611   0.183   9.192  0.5280 -0.4852 -0.1760
24807SOL     OW77312   4.995   7.422   0.188  0.1267 -0.1134 -0.1005
24807SOL    HW177313   5.035   7.352   0.136  1.2447  0.3035  0.1661
24807SOL    HW277314   5.003   7.391   0.279  0.7245  0.3880  0.0270
24808SOL     OW77315   8.388   5.549   5.637  0.0457 -0.2269 -0.0708
24808SOL    HW177316   8.358   5.619   5.579  1.9211 -0.3721 -1.3174
24808SOL    HW277317   8.310   5.498   5.657 -1.2299  1.7389  0.2275
24809SOL     OW77318   7.337   8.800   8.073 -0.2302 -0.0265  0.0733
24809SOL    HW177319   7.420   8.848   8.073 -0.0933 -0.2529  0.9146
24809SOL    HW277320   7.293   8.827   8.154 -0.8370 -0.1607 -0.2024
24810SOL     OW77321   6.615   0.258   3.389 -0.1748 -0.2029  0.0629
24810SOL    HW177322   6.605   0.266   3.484  1.5782 -0.0663  0.2669
24810SOL    HW277323   6.546   0.314   3.353 -0.2272  0.5375  1.2717
24811SOL     OW77324   4.711   0.135   1.140 -0.4715  0.2582 -0.0816
24811SOL    HW177325   4.705   0.173   1.053 -1.6611  2.4948  0.9104
24811SOL    HW277326   4.628   0.157   1.182  1.0289  1.4630  2.4638
24812SOL     OW77327   7.394   3.066   3.051 -0.1790  0.2638  0.0083
24812SOL    HW177328   7.315   3.109   3.019 -0.4448 -0.2186  0.0017
24812SOL    HW277329   7.396   3.086   3.145 -1.0922 -0.8992  0.2972
24813SOL     OW77330   1.511   6.026   8.568 -0.5628 -0.2079 -0.4577
24813SOL    HW177331   1.531   5.959   8.502 -2.9945  0.6204 -2.2099
24813SOL    HW277332   1.532   6.109   8.524 -1.3220  0.3240  0.1523
24814SOL     OW77333   0.423   2.287   4.614  0.0360 -0.7313  0.4271
24814SOL    HW177334   0.438   2.196   4.636  1.1156 -0.6669  0.0332
24814SOL    HW277335   0.493   2.335   4.658 -1.5880  0.1586  2.1876
24815SOL     OW77336   1.224   6.366   0.388 -0.3621 -0.2318 -0.0090
24815SOL    HW177337   1.312   6.394   0.410 -0.2372 -0.6474  0.0339
24815SOL    HW277338   1.236   6.285   0.338 -0.6996 -0.0709 -0.3593
24816SOL     OW77339   4.932   0.138   7.545 -0.1621  0.1701 -0.7580
24816SOL    HW177340   4.991   0.068   7.517 -1.0620 -0.7112 -0.5068
24816SOL    HW277341   4.889   0.167   7.464 -0.5907 -0.3283 -0.7101
24817SOL     OW77342   1.807   5.238   9.080  0.0930 -0.3986 -0.2121
24817SOL    HW177343   1.900   5.255   9.069  0.1829  0.1211  1.1483
24817SOL    HW277344   1.765   5.294   9.015  0.6498  1.1077  0.6654
24818SOL     OW77345   1.363   8.911   1.909  0.4770 -0.0944 -0.4299
24818SOL    HW177346   1.454   8.902   1.883  1.1411  1.3459  1.2204
24818SOL    HW277347   1.327   8.977   1.849  0.3568 -0.9554 -1.3454
24819SOL     OW77348   5.531   3.221   2.844  0.6071  0.2865  0.4051
24819SOL    HW177349   5.516   3.280   2.918  0.5795 -0.4368  0.9904
24819SOL    HW277350   5.492   3.138   2.871  0.6567 -0.0086 -0.3973
24820SOL     OW77351   8.006   7.952   5.559  0.0588 -0.3714  0.1585
24820SOL    HW177352   8.035   7.869   5.523  2.3446  0.6107 -0.4454
24820SOL    HW277353   8.033   7.950   5.651  2.2491  0.5267 -0.3938
24821SOL     OW77354   4.258   2.971   0.776  0.6242  0.1122 -0.0159
24821SOL    HW177355   4.316   3.047   0.787 -0.5175  0.8254  1.4890
24821SOL    HW277356   4.240   2.941   0.866 -0.2126 -0.9600 -0.5143
24822SOL     OW77357   8.630   3.653   1.548 -0.1742  0.4581 -0.1325
24822SOL    HW177358   8.575   3.594   1.599 -1.0921  0.6539 -0.8609
24822SOL    HW277359   8.568   3.700   1.492  0.8865 -1.1900 -2.9119
24823SOL     OW77360   6.656   5.615   7.409  0.1576 -0.1283  0.8269
24823SOL    HW177361   6.691   5.701   7.432  0.0926  1.0221 -2.8094
24823SOL    HW277362   6.561   5.625   7.414  0.0298  0.9770 -2.2025
24824SOL     OW77363   0.585   4.213   1.282  0.0981  0.5539 -0.2318
24824SOL    HW177364   0.517   4.259   1.330  0.4679 -1.0491  1.9927
24824SOL    HW277365   0.658   4.206   1.344  0.8536 -1.0678 -1.2243
24825SOL     OW77366   1.106   5.960   3.019  0.8664 -0.8335  0.0776
24825SOL    HW177367   1.110   6.028   3.086  1.3527 -1.4394  0.6804
24825SOL    HW277368   1.053   5.998   2.949 -1.1884 -0.8146  1.5439
24826SOL     OW77369   6.076   3.567   1.698 -0.3313  0.7656 -0.0537
24826SOL    HW177370   6.151   3.525   1.740 -1.4279  0.4951  1.6995
24826SOL    HW277371   6.057   3.643   1.754 -1.8637  0.3652 -0.0092
24827SOL     OW77372   3.871   6.559   4.392 -0.9029 -0.6537  0.1061
24827SOL    HW177373   3.959   6.521   4.400 -0.7788 -0.2151  0.9180
24827SOL    HW277374   3.847   6.584   4.481 -1.1440  0.8005 -0.3459
24828SOL     OW77375   7.229   8.383   7.057  0.9438  0.0057 -0.0921
24828SOL    HW177376   7.159   8.427   7.105  0.6363  1.8189 -2.0860
24828SOL    HW277377   7.189   8.302   7.025  0.3478  0.1005  0.3862
24829SOL     OW77378   8.261   8.124   1.977 -0.4960 -0.2132  0.1225
24829SOL    HW177379   8.168   8.113   1.957 -0.5742  1.1734 -0.3973
24829SOL    HW277380   8.283   8.049   2.032 -2.0006 -0.3750  0.5381
24830SOL     OW77381   0.549   0.302   1.387  0.0706  0.3183 -0.0487
24830SOL    HW177382   0.583   0.329   1.301  1.8779 -0.2734  0.4346
24830SOL    HW277383   0.601   0.352   1.450  2.0667 -2.5889  0.8152
24831SOL     OW77384   4.545   7.087   4.759 -0.6864 -0.4678 -1.3342
24831SOL    HW177385   4.521   7.163   4.812  2.1459 -0.7001  0.5110
24831SOL    HW277386   4.520   7.012   4.812  1.4741 -0.7081 -0.5523
24832SOL     OW77387   6.656   9.191   5.853 -0.1372 -0.3304 -0.4524
24832SOL    HW177388   6.742   9.224   5.881 -0.0538 -0.8656 -0.0580
24832SOL    HW277389   6.675   9.137   5.777 -0.1440 -0.3031 -0.4732
24833SOL     OW77390   7.990   2.072   0.300 -0.0955  0.0052 -0.0266
24833SOL    HW177391   8.012   2.124   0.223 -0.9248  0.4502  0.0355
24833SOL    HW277392   8.050   2.103   0.369 -0.5557  0.8403 -0.0018
24834SOL     OW77393   6.357   0.251   4.292 -0.7630  0.2370  0.2314
24834SOL    HW177394   6.384   0.199   4.369  1.2788  1.9040  0.7332
24834SOL    HW277395   6.436   0.254   4.237 -1.7544  0.3270 -1.2346
24835SOL     OW77396   3.144   2.109   2.426 -0.1208 -0.5630  0.3074
24835SOL    HW177397   3.155   2.027   2.475  0.7936  0.1021  1.2435
24835SOL    HW277398   3.233   2.139   2.408 -0.4407  0.4078  0.2731
24836SOL     OW77399   2.886   3.466   5.916 -0.2160 -0.2079  0.0306
24836SOL    HW177400   2.842   3.410   5.979 -1.9135  0.6013 -0.3833
24836SOL    HW277401   2.918   3.540   5.967  0.9521 -0.9317  0.3776
24837SOL     OW77402   4.902   0.902   3.725 -0.4195 -0.4539  0.0514
24837SOL    HW177403   4.953   0.983   3.733 -0.5138 -0.5012  1.3401
24837SOL    HW277404   4.823   0.918   3.776 -1.2014 -0.7927 -1.0081
24838SOL     OW77405   8.070   7.361   3.218 -0.1367 -0.5512 -0.2096
24838SOL    HW177406   8.099   7.274   3.192  0.1038  0.0512 -2.1026
24838SOL    HW277407   8.151   7.410   3.232 -0.1858 -1.1842  3.2706
24839SOL     OW77408   2.602   7.716   2.499 -0.2634 -0.3756  0.1442
24839SOL    HW177409   2.671   7.752   2.556 -1.2691  1.2024  0.4225
24839SOL    HW277410   2.553   7.656   2.555 -0.1365 -0.2322  0.4095
24840SOL     OW77411   7.933   1.893   6.484  0.4631  0.6152  0.3768
24840SOL    HW177412   7.883   1.901   6.403  2.1159 -0.0918 -0.7722
24840SOL    HW277413   7.893   1.820   6.531  1.2291 -0.8970 -1.1967
24841SOL     OW77414   6.735   1.002   2.565 -0.1013  0.2027  0.0927
24841SOL    HW177415   6.711   1.081   2.517  0.5495  0.4239  0.1300
24841SOL    HW277416   6.651   0.968   2.597 -0.6404 -0.2604 -1.6479
24842SOL     OW77417   2.088   7.545   3.152  0.1583  0.7255  0.1151
24842SOL    HW177418   2.111   7.556   3.060 -0.0092  1.7138  0.1846
24842SOL    HW277419   2.025   7.615   3.170  1.3803  1.5594  1.3860
24843SOL     OW77420   2.735   7.751   3.335  0.1892 -0.2153 -0.0161
24843SOL    HW177421   2.730   7.658   3.311  0.8342 -0.3034  0.1721
24843SOL    HW277422   2.821   7.761   3.375 -0.6045  0.0607  1.6988
24844SOL     OW77423   4.087   9.162   7.212 -0.1497  0.8029 -0.4162
24844SOL    HW177424   4.017   9.209   7.167  0.3495  0.3940 -1.6655
24844SOL    HW277425   4.165   9.180   7.160  0.1484 -1.0183 -0.6799
24845SOL     OW77426   4.892   0.763   2.657  0.7225 -0.1895  0.4805
24845SOL    HW177427   4.877   0.804   2.572  0.3421  0.8552  1.0231
24845SOL    HW277428   4.975   0.800   2.687  1.1639 -1.0223  0.3037
24846SOL     OW77429   0.853   5.687   4.086 -0.1181 -0.2952 -0.2282
24846SOL    HW177430   0.775   5.738   4.066 -1.3459 -1.9729  0.0000
24846SOL    HW277431   0.859   5.688   4.182  0.9641  0.9398 -0.2806
24847SOL     OW77432   6.951   4.795   8.928 -0.1078  0.0723  0.0953
24847SOL    HW177433   6.914   4.719   8.972 -1.3332  1.1238  0.9841
24847SOL    HW277434   6.875   4.851   8.909  0.2804 -0.4550 -3.7441
24848SOL     OW77435   8.297   3.215   6.055 -0.1677 -0.4027 -0.1763
24848SOL    HW177436   8.288   3.245   6.145 -2.7664 -1.5653  0.0423
24848SOL    HW277437   8.247   3.278   6.003  1.2223  0.1996 -0.8374
24849SOL     OW77438   0.636   5.004   1.531 -0.2227 -0.2268 -0.2120
24849SOL    HW177439   0.661   4.911   1.523  1.5329  0.1018  0.9627
24849SOL    HW277440   0.624   5.033   1.441 -0.0455 -1.4134 -0.6368
24850SOL     OW77441   7.648   9.149   8.609  0.3972  0.5592  0.1325
24850SOL    HW177442   7.601   9.232   8.607  1.7263  1.3237 -1.6208
24850SOL    HW277443   7.722   9.164   8.669  0.3700  0.4930  0.1833
24851SOL     OW77444   5.512   0.003   6.101  0.0722 -0.5617  0.6738
24851SOL    HW177445   5.571   0.044   6.164  1.3992 -0.4297 -0.5983
24851SOL    HW277446   5.431  -0.014   6.150  1.0705 -0.5012  2.3924
24852SOL     OW77447   6.883   4.565   6.156 -0.6897 -0.1859  0.2692
24852SOL    HW177448   6.970   4.528   6.169 -0.9025 -0.2947  1.5325
24852SOL    HW277449   6.899   4.659   6.145 -0.2809 -0.4210 -1.3486
24853SOL     OW77450   5.277   2.951   7.723 -0.6380 -0.2908 -0.0250
24853SOL    HW177451   5.261   3.037   7.685 -1.2773 -1.0046 -1.4780
24853SOL    HW277452   5.212   2.894   7.681 -1.2610 -1.2033  2.0446
24854SOL     OW77453   6.093   1.514   6.001 -0.1585  0.1030 -0.2512
24854SOL    HW177454   6.082   1.430   6.046  0.2442  0.4656  0.5563
24854SOL    HW277455   6.185   1.516   5.976 -0.5983 -0.5305 -2.0305
24855SOL     OW77456   0.880   7.193   8.860 -0.5686 -0.0107 -0.2211
24855SOL    HW177457   0.835   7.131   8.802 -0.7387  0.9780 -1.1722
24855SOL    HW277458   0.809   7.240   8.905 -0.4425 -0.2244  0.2108
24856SOL     OW77459   0.101   7.477   3.049 -0.3917  0.2632 -0.1585
24856SOL    HW177460   0.065   7.550   3.100 -0.3760 -1.1321  1.9980
24856SOL    HW277461   0.195   7.493   3.047 -0.3963  0.3620  0.2526
24857SOL     OW77462   4.260   1.690   6.657 -0.2370 -0.0215 -0.8737
24857SOL    HW177463   4.348   1.692   6.694 -0.3292  0.0878 -0.6569
24857SOL    HW277464   4.211   1.631   6.715  0.2095 -1.7025 -2.1530
24858SOL     OW77465   2.065   4.469   4.999 -0.1771  0.0339 -0.1834
24858SOL    HW177466   1.997   4.537   5.007  0.5244  0.7686 -0.3019
24858SOL    HW277467   2.018   4.391   4.969 -1.2018  0.1243  1.0880
24859SOL     OW77468   7.516   7.775   5.400 -0.0471  0.0894  0.3734
24859SOL    HW177469   7.534   7.714   5.471 -2.0728  0.5438  1.3417
24859SOL    HW277470   7.531   7.862   5.437  0.0339  0.2891 -0.1181
24860SOL     OW77471   7.610   2.638   7.128 -0.0278 -0.3830  0.1018
24860SOL    HW177472   7.644   2.552   7.151  0.3167 -0.7698 -1.6805
24860SOL    HW277473   7.579   2.628   7.038 -0.2274  1.2872 -0.0456
24861SOL     OW77474   2.528   7.860   2.803 -0.0890 -0.2505  0.2210
24861SOL    HW177475   2.582   7.862   2.724  0.8065  0.3822  0.8198
24861SOL    HW277476   2.568   7.926   2.860 -0.3662 -1.1063  1.4276
24862SOL     OW77477   4.573   2.606   6.709 -0.0977  0.1287 -0.1943
24862SOL    HW177478   4.628   2.530   6.725 -0.5593 -0.2493 -0.3940
24862SOL    HW277479   4.520   2.615   6.789  0.3089  0.5474  0.0366
24863SOL     OW77480   3.900   7.937   7.741 -0.4307  0.6045  0.1896
24863SOL    HW177481   3.813   7.965   7.712 -0.8326  1.5130  2.1170
24863SOL    HW277482   3.889   7.915   7.834  1.2546  0.0644  0.2953
24864SOL     OW77483   5.533   3.196   5.629  0.0181 -0.1107 -0.2733
24864SOL    HW177484   5.609   3.145   5.657  0.0437 -0.3050 -0.6902
24864SOL    HW277485   5.484   3.137   5.573 -0.0850  0.2425 -0.5586
24865SOL     OW77486   9.205   3.685   4.387  0.0443 -0.1494 -0.2057
24865SOL    HW177487   9.164   3.688   4.300 -2.8651  1.0821  1.0620
24865SOL    HW277488   9.186   3.597   4.419  0.0279 -0.1915 -0.3284
24866SOL     OW77489   4.321   2.616   0.875  0.0263  0.0766  0.0663
24866SOL    HW177490   4.377   2.663   0.937 -0.2159  0.7134 -0.1939
24866SOL    HW277491   4.372   2.539   0.851  0.5014  0.2963  0.3596
24867SOL     OW77492   5.669   7.537   1.324  0.1526 -0.1935 -0.5535
24867SOL    HW177493   5.763   7.539   1.345  0.0671  1.5724 -0.1772
24867SOL    HW277494   5.626   7.548   1.409 -0.3142  1.7493 -0.9928
24868SOL     OW77495   5.963   8.583   2.171  0.1390 -0.4869 -0.2286
24868SOL    HW177496   6.050   8.618   2.153  0.1723 -0.8881 -0.8843
24868SOL    HW277497   5.921   8.578   2.085 -0.0182 -1.6376 -0.1050
24869SOL     OW77498   7.944   0.917   5.164  0.2705  0.1270 -0.2880
24869SOL    HW177499   7.943   0.830   5.203 -1.5788  0.1791 -0.0965
24869SOL    HW277500   7.902   0.906   5.079  1.3396  0.5956 -0.8994
24870SOL     OW77501   6.062   1.098   8.917 -0.0760  0.5045 -0.2943
24870SOL    HW177502   6.047   1.192   8.905  0.7775  0.4968 -1.6001
24870SOL    HW277503   5.998   1.056   8.859  1.3590  0.3647 -1.8334
24871SOL     OW77504   5.556   4.292   2.412  0.4100 -0.2678 -0.2777
24871SOL    HW177505   5.522   4.262   2.496  1.0820  0.4856  0.2923
24871SOL    HW277506   5.482   4.286   2.352 -0.1770 -0.5037  0.4504
24872SOL     OW77507   5.888   3.912   9.196 -0.6613  0.5760 -0.3126
24872SOL    HW177508   5.895   4.006   9.213 -2.4723  0.7892 -0.5577
24872SOL    HW277509   5.866   3.873   9.280 -1.9915  0.6592 -0.6017
24873SOL     OW77510   3.766   1.715   6.552 -0.1621  0.1747  0.6267
24873SOL    HW177511   3.816   1.795   6.570 -0.6951  0.6604 -0.0239
24873SOL    HW277512   3.754   1.715   6.457 -0.4052 -0.5406  0.6536
24874SOL     OW77513   0.513   7.323   2.732  0.3695  0.4585 -0.1107
24874SOL    HW177514   0.441   7.331   2.669 -1.5703 -1.5988  1.6917
24874SOL    HW277515   0.544   7.233   2.721 -0.1151  0.0068  1.9089
24875SOL     OW77516   0.954   0.004   7.450  0.0832 -0.0914 -0.8926
24875SOL    HW177517   1.043  -0.013   7.420  0.5478  1.1846 -0.2671
24875SOL    HW277518   0.937  -0.064   7.515  0.1976 -0.9824 -1.7737
24876SOL     OW77519   1.089   1.368   6.710 -0.9128 -0.1644  0.3925
24876SOL    HW177520   1.129   1.333   6.631 -0.1836  0.1163  0.6302
24876SOL    HW277521   1.018   1.424   6.678 -1.2615 -0.8328 -0.0247
24877SOL     OW77522   3.248   6.582   6.304  0.1491 -0.8854 -0.2166
24877SOL    HW177523   3.335   6.558   6.336  0.2268 -3.3461 -2.0149
24877SOL    HW277524   3.198   6.500   6.307 -1.6081  0.1195 -0.7837
24878SOL     OW77525   9.203   5.492   6.056 -0.0369 -0.1018 -0.2468
24878SOL    HW177526   9.237   5.549   6.125  1.4848  0.9463 -1.7928
24878SOL    HW277527   9.130   5.447   6.097  0.3909  0.9754  1.8495
24879SOL     OW77528   3.235   9.243   2.081  0.2298 -0.5377 -0.4275
24879SOL    HW177529   3.269   9.157   2.106  2.3882  0.4122  0.1573
24879SOL    HW277530   3.219   9.287   2.164  1.2168  0.3473 -0.6819
24880SOL     OW77531   6.425   2.922   2.993  0.3033  0.3433 -0.5477
24880SOL    HW177532   6.509   2.963   2.970  0.7410 -0.3132 -0.1663
24880SOL    HW277533   6.361   2.964   2.936  0.2867  3.3154  1.4242
24881SOL     OW77534   7.597   4.443   8.449 -0.2582  0.2282 -0.1064
24881SOL    HW177535   7.646   4.372   8.490 -2.3071 -1.4112 -0.3705
24881SOL    HW277536   7.658   4.480   8.385  1.0884 -0.8046  0.5428
24882SOL     OW77537   5.741   3.761   2.678 -0.2907 -0.1261  0.1851
24882SOL    HW177538   5.779   3.714   2.752 -0.3279 -0.4564 -0.0023
24882SOL    HW277539   5.657   3.718   2.662 -1.5912  1.6899  1.6954
24883SOL     OW77540   3.680   2.309   1.618 -0.2477  0.6632 -0.2279
24883SOL    HW177541   3.718   2.310   1.530 -3.0832 -0.4855 -1.6022
24883SOL    HW277542   3.648   2.220   1.629  0.5745  0.6095  2.2840
24884SOL     OW77543   0.113   1.291   5.308 -0.0161 -0.3183 -0.0081
24884SOL    HW177544   0.048   1.249   5.252 -0.3195 -0.9146  0.7587
24884SOL    HW277545   0.116   1.382   5.279 -2.6732  0.2460  1.1976
24885SOL     OW77546   3.907   1.872   5.378 -0.2155 -0.0145  0.5841
24885SOL    HW177547   3.904   1.791   5.326 -0.8677 -1.7912  3.1891
24885SOL    HW277548   3.940   1.938   5.317  1.0325 -2.3687 -1.4984
24886SOL     OW77549   7.856   0.000   9.160 -0.3321  0.2235 -0.2019
24886SOL    HW177550   7.947  -0.004   9.192 -0.4451  0.4612  0.1553
24886SOL    HW277551   7.847   0.089   9.125 -0.8292  0.6675  1.0048
24887SOL     OW77552   2.626   3.801   8.113 -0.2163  0.6568  0.5977
24887SOL    HW177553   2.696   3.828   8.053 -1.0465 -0.4669 -0.9186
24887SOL    HW277554   2.545   3.821   8.066 -0.8980 -2.7472  0.0834
24888SOL     OW77555   0.365   0.121   6.588  0.3069 -0.0884 -0.0145
24888SOL    HW177556   0.411   0.111   6.504 -0.4535 -0.5825 -0.3781
24888SOL    HW277557   0.298   0.187   6.571  0.3938  0.0895  0.3182
24889SOL     OW77558   0.016   1.170   8.200  0.4743  0.1962  0.3799
24889SOL    HW177559   0.073   1.134   8.131 -1.5979 -3.1344  0.1833
24889SOL    HW277560   0.049   1.130   8.280 -0.7028 -0.7317  0.4323
24890SOL     OW77561   8.176   1.737   1.669  0.2280  0.1719  0.4938
24890SOL    HW177562   8.225   1.693   1.600 -1.1162 -0.9204  0.2003
24890SOL    HW277563   8.227   1.817   1.687  1.4223 -0.2943 -0.6516
24891SOL     OW77564   1.317   2.231   0.239 -0.4336  0.3863  0.0303
24891SOL    HW177565   1.304   2.302   0.301  0.2226  1.7091 -1.2709
24891SOL    HW277566   1.386   2.263   0.181  0.1266 -1.4753 -0.3908
24892SOL     OW77567   5.833   2.461   3.227  0.6266  0.0622  0.3787
24892SOL    HW177568   5.764   2.438   3.289  0.6926  0.0215  0.4374
24892SOL    HW277569   5.914   2.436   3.271  0.7793  1.4443  0.9114
24893SOL     OW77570   7.961   6.690   7.172 -0.3877 -0.1831  0.3650
24893SOL    HW177571   8.037   6.747   7.158  0.2748 -0.8046  1.3308
24893SOL    HW277572   7.886   6.745   7.151  0.3178  0.4130 -0.7298
24894SOL     OW77573   7.556   8.891   8.710 -0.7163  0.0208  0.1525
24894SOL    HW177574   7.601   8.971   8.682  0.3589 -0.5467  0.1913
24894SOL    HW277575   7.471   8.920   8.742 -0.6335  1.0624 -0.5336
24895SOL     OW77576   7.779   5.686   1.881 -0.1475  0.1229 -0.4843
24895SOL    HW177577   7.863   5.710   1.842  1.3894  2.1359  3.4869
24895SOL    HW277578   7.718   5.751   1.847  0.3998  0.0640 -1.6430
24896SOL     OW77579   5.608   6.009   5.655  0.4203 -0.0645 -0.0049
24896SOL    HW177580   5.629   5.949   5.583 -0.0387  0.9527 -1.0244
24896SOL    HW277581   5.512   6.008   5.660  0.1922  2.4823 -1.8093
24897SOL     OW77582   1.547   4.977   5.738  0.1164 -0.4877 -0.0084
24897SOL    HW177583   1.522   4.885   5.745  1.8783 -0.9438  1.2783
24897SOL    HW277584   1.477   5.025   5.781  0.2024 -1.4499  1.2589
24898SOL     OW77585   8.765   4.336   0.623  0.5091  0.6335  0.1096
24898SOL    HW177586   8.718   4.284   0.688  0.9855 -1.2748 -0.9787
24898SOL    HW277587   8.832   4.382   0.673  0.2590 -0.0403  1.1038
24899SOL     OW77588   1.270   3.356   7.338 -0.3962  0.0456 -0.5880
24899SOL    HW177589   1.339   3.407   7.380 -0.4745  0.6002 -1.1128
24899SOL    HW277590   1.223   3.316   7.410  1.8215 -2.1837 -0.2568
24900SOL     OW77591   9.009   1.384   5.757 -0.5858  0.5302 -0.2741
24900SOL    HW177592   9.066   1.459   5.742 -0.1091  0.0937 -0.6804
24900SOL    HW277593   9.035   1.320   5.690 -0.6906 -0.1604  0.3308
24901SOL     OW77594   0.961   8.115   1.856 -0.3764 -0.3343 -0.2329
24901SOL    HW177595   0.985   8.060   1.931 -1.5580  0.3393  0.6647
24901SOL    HW277596   1.044   8.132   1.812  0.7422  1.1738  2.2238
24902SOL     OW77597   0.926   5.723   2.573 -0.6848  0.3497 -0.1506
24902SOL    HW177598   0.979   5.801   2.560  1.6260 -1.0079  0.5632
24902SOL    HW277599   0.885   5.735   2.659  3.2566 -1.0058  2.1781
24903SOL     OW77600   8.800   1.269   8.498  0.0571 -0.1337  0.0127
24903SOL    HW177601   8.723   1.311   8.537 -0.7312 -0.7146 -0.8562
24903SOL    HW277602   8.831   1.333   8.433 -2.1627 -1.4397 -2.5352
24904SOL     OW77603   3.433   4.603   0.530  0.2733 -0.2655  0.7795
24904SOL    HW177604   3.384   4.623   0.450 -0.1886  0.7422  1.2917
24904SOL    HW277605   3.511   4.659   0.525  2.1856 -2.8561 -0.7038
24905SOL     OW77606   0.196   0.853   5.709 -0.1550  0.0798 -0.0092
24905SOL    HW177607   0.129   0.916   5.681 -1.4248 -0.9906  0.4934
24905SOL    HW277608   0.213   0.799   5.632  0.2814  0.4637 -0.1880
24906SOL     OW77609   2.936   4.666   1.788 -0.3504 -0.0078 -0.3347
24906SOL    HW177610   2.893   4.672   1.874  0.8633  0.1871  0.2747
24906SOL    HW277611   2.885   4.601   1.741 -0.5174 -0.7773  0.8609
24907SOL     OW77612   8.852   0.838   6.334 -0.4360 -0.2443 -0.0917
24907SOL    HW177613   8.943   0.864   6.328 -0.4736  0.4972  1.7974
24907SOL    HW277614   8.831   0.845   6.428 -3.3197  2.8871 -0.7709
24908SOL     OW77615   5.257   4.184   1.487  0.1249 -0.4586  0.0499
24908SOL    HW177616   5.215   4.119   1.544  0.7255 -0.5351  0.4226
24908SOL    HW277617   5.350   4.161   1.490 -0.0625 -2.0925 -3.0625
24909SOL     OW77618   5.993   8.806   0.861  0.7202  0.2403 -0.0188
24909SOL    HW177619   6.038   8.819   0.777 -1.4589  2.9472 -0.8974
24909SOL    HW277620   6.036   8.867   0.921  0.6830  0.0543  0.2011
24910SOL     OW77621   5.615   1.558   9.224  0.2576  0.0863  0.0141
24910SOL    HW177622   5.627   1.616   9.149 -1.4800 -1.8371 -1.8975
24910SOL    HW277623   5.529   1.583   9.260 -0.6689 -1.4066 -1.0361
24911SOL     OW77624   0.122   1.927   3.971  0.0511  0.1726 -0.0623
24911SOL    HW177625   0.072   1.907   3.892  2.8264  0.2382 -1.9731
24911SOL    HW277626   0.170   2.008   3.949 -1.0445  1.6901  2.6966
24912SOL     OW77627   3.658   6.619   5.473  0.0067  0.1376 -0.3922
24912SOL    HW177628   3.659   6.639   5.380  0.5529 -1.6542 -0.8045
24912SOL    HW277629   3.584   6.670   5.508 -1.0710 -0.2360 -2.0443
24913SOL     OW77630   8.155   0.914   9.122 -0.0984  0.0116 -0.3552
24913SOL    HW177631   8.140   0.829   9.081 -0.7004  0.6642 -1.5570
24913SOL    HW277632   8.217   0.958   9.064  2.0241 -0.4382  1.4696
24914SOL     OW77633   7.663   5.462   0.029 -0.0231  0.1759 -0.2294
24914SOL    HW177634   7.573   5.445   0.057  0.1184 -0.0810  0.0773
24914SOL    HW277635   7.683   5.393  -0.034  0.7613 -1.2380  1.4707
24915SOL     OW77636   2.848   1.415   4.683 -0.2712 -0.1225 -0.0395
24915SOL    HW177637   2.898   1.356   4.626  0.2961  0.3746 -0.0786
24915SOL    HW277638   2.912   1.445   4.748 -0.3837  0.8981 -0.3710
24916SOL     OW77639   1.015   7.804   9.104  0.2863  0.4602  0.5097
24916SOL    HW177640   0.960   7.794   9.027  0.0494  0.1480  0.7147
24916SOL    HW277641   1.065   7.884   9.089  1.7902 -0.6738 -0.9149
24917SOL     OW77642   1.617   1.034   5.823  0.1524 -0.2228 -0.0840
24917SOL    HW177643   1.643   0.946   5.850 -0.9034 -0.3129  0.7246
24917SOL    HW277644   1.672   1.093   5.876 -0.1133 -0.4093  0.4104
24918SOL     OW77645   3.843   0.472   5.194 -0.0707 -0.1443  0.2898
24918SOL    HW177646   3.767   0.413   5.194  0.0540 -0.3067  0.7648
24918SOL    HW277647   3.918   0.414   5.176 -0.0950  0.0707 -0.5576
24919SOL     OW77648   8.530   6.327   6.912  0.2740  0.3751 -0.5365
24919SOL    HW177649   8.456   6.265   6.911 -0.4916  1.2732 -1.2297
24919SOL    HW277650   8.607   6.272   6.904 -0.3868 -0.5024 -1.0720
24920SOL     OW77651   4.133   8.529   3.517 -0.2525  0.1455 -0.2817
24920SOL    HW177652   4.224   8.522   3.488  0.1068  1.1505  0.5554
24920SOL    HW277653   4.100   8.609   3.475 -0.4273  0.3564  0.2469
24921SOL     OW77654   4.772   7.000   0.433 -0.7911  0.2151  0.5355
24921SOL    HW177655   4.744   7.090   0.452 -0.0322  0.8222 -1.0244
24921SOL    HW277656   4.864   7.008   0.411 -1.5203 -0.2767 -3.3795
24922SOL     OW77657   8.266   6.631   1.012 -0.0185  0.5213 -0.0904
24922SOL    HW177658   8.239   6.639   0.921 -0.6576  1.0680  0.1312
24922SOL    HW277659   8.241   6.542   1.037 -2.4816  1.2426  0.3343
24923SOL     OW77660   8.688   2.283   3.336 -0.3334  0.7188 -0.1444
24923SOL    HW177661   8.764   2.339   3.352 -1.2602  1.7644  0.8425
24923SOL    HW277662   8.652   2.315   3.253  0.2269  0.2830 -0.5661
24924SOL     OW77663   6.080   0.219   8.202 -1.0559 -0.2260  0.2991
24924SOL    HW177664   6.019   0.170   8.147  0.3084  0.1404 -1.6735
24924SOL    HW277665   6.152   0.242   8.143  0.7141 -0.1278  2.3611
24925SOL     OW77666   4.521   7.167   3.853  0.1875  0.4614 -0.3589
24925SOL    HW177667   4.587   7.140   3.917  0.7636  1.4710 -0.5063
24925SOL    HW277668   4.550   7.128   3.771  1.6935  2.4308 -0.8315
24926SOL     OW77669   3.764   0.201   8.675  0.3467  0.5420  0.5422
24926SOL    HW177670   3.766   0.115   8.633  0.0598  1.4157 -1.3851
24926SOL    HW277671   3.673   0.212   8.701  0.3755  0.2700  0.7621
24927SOL     OW77672   4.268   1.794   8.147  0.0606  0.3339 -0.4224
24927SOL    HW177673   4.215   1.812   8.069 -1.0767 -0.6115  0.0973
24927SOL    HW277674   4.230   1.714   8.184  1.2460  0.1783  0.5301
24928SOL     OW77675   4.001   0.406   3.425  0.1769 -0.2932 -0.4496
24928SOL    HW177676   3.909   0.382   3.420  0.3828 -2.1062  2.3462
24928SOL    HW277677   4.007   0.464   3.501  1.3043  0.1513 -0.8532
24929SOL     OW77678   5.009   9.226   8.876 -0.3520  0.3897 -0.1497
24929SOL    HW177679   5.069   9.241   8.803  0.2671 -2.2975 -0.3207
24929SOL    HW277680   4.926   9.202   8.834 -0.2492 -0.2665  0.0041
24930SOL     OW77681   8.915   6.103   3.541  0.0362  0.2843 -0.0760
24930SOL    HW177682   8.879   6.162   3.475 -0.5006  0.0373 -0.0090
24930SOL    HW277683   9.010   6.111   3.531  0.1214 -2.7574 -3.6224
24931SOL     OW77684   4.704   6.375   1.401 -0.2349 -0.3943  0.0157
24931SOL    HW177685   4.631   6.435   1.416 -0.2896 -0.1775 -1.0483
24931SOL    HW277686   4.763   6.390   1.475 -0.5934  0.4550  0.1383
24932SOL     OW77687   9.178   7.833   8.499 -0.8998  0.3323  0.7331
24932SOL    HW177688   9.255   7.884   8.475 -1.2959  0.0807 -1.3216
24932SOL    HW277689   9.213   7.759   8.549  0.4037 -0.3920 -1.1121
24933SOL     OW77690   4.532   6.926   3.155 -0.3887 -0.0946 -0.6790
24933SOL    HW177691   4.563   6.841   3.186 -0.2541  0.4038  0.5986
24933SOL    HW277692   4.518   6.913   3.061  0.9772 -1.1306 -0.7811
24934SOL     OW77693   4.341   4.440   5.386  0.1680 -0.1312  0.2591
24934SOL    HW177694   4.276   4.509   5.399 -0.3965 -0.5983  0.0093
24934SOL    HW277695   4.390   4.467   5.309  0.5163  0.4069  0.6673
24935SOL     OW77696   5.347   3.212   5.848  0.0576  0.3413  0.1801
24935SOL    HW177697   5.414   3.204   5.781 -1.4922  1.0624 -1.5331
24935SOL    HW277698   5.326   3.305   5.851 -0.9840  0.1113  0.5503
24936SOL     OW77699   1.955   1.461   6.234  0.0890 -0.1574 -0.4966
24936SOL    HW177700   1.897   1.533   6.209 -1.1383 -1.5156 -1.7070
24936SOL    HW277701   2.038   1.480   6.191 -0.5323  0.0407 -1.6266
24937SOL     OW77702   1.298   3.960   5.374  0.5703  0.1753  0.1157
24937SOL    HW177703   1.246   4.035   5.402  0.3516 -0.0080  0.2004
24937SOL    HW277704   1.309   3.906   5.453 -0.9794 -0.8979 -0.3510
24938SOL     OW77705   7.695   1.618   7.258  0.7536  0.2599 -0.1930
24938SOL    HW177706   7.717   1.663   7.339  0.6448 -0.0139 -0.0080
24938SOL    HW277707   7.749   1.660   7.191 -2.1114  3.4496 -0.8198
24939SOL     OW77708   4.369   8.649   7.348  0.2115  0.0729 -0.3024
24939SOL    HW177709   4.392   8.595   7.273  0.0492  0.6834 -0.8063
24939SOL    HW277710   4.299   8.602   7.392  1.1143 -0.8758  0.1649
24940SOL     OW77711   3.368   1.265   0.106 -0.2012  0.2518  0.4668
24940SOL    HW177712   3.306   1.218   0.050 -0.9731  1.1145  0.5765
24940SOL    HW277713   3.421   1.316   0.046 -0.0529  0.0453  0.4216
24941SOL     OW77714   3.972   5.760   0.244  0.1873  0.5600 -0.0587
24941SOL    HW177715   4.040   5.773   0.178  1.2161  2.0180  1.2115
24941SOL    HW277716   4.002   5.811   0.320 -0.2373 -2.0929  2.0681
24942SOL     OW77717   3.714   7.911   2.460 -0.0424  0.2945 -0.1996
24942SOL    HW177718   3.692   7.999   2.492  0.9120  0.5719 -0.2936
24942SOL    HW277719   3.699   7.916   2.366  1.1628  0.7344 -0.3893
24943SOL     OW77720   1.236   1.638   1.991 -0.0194 -0.0956 -1.0706
24943SOL    HW177721   1.265   1.654   1.901  2.0996  0.8768 -0.2806
24943SOL    HW277722   1.228   1.725   2.030  1.3738 -0.5198  0.3031
24944SOL     OW77723   8.625   1.631   5.408  0.1793 -0.2242 -0.0786
24944SOL    HW177724   8.551   1.576   5.386 -0.5756  0.6685  0.1503
24944SOL    HW277725   8.685   1.574   5.455 -1.9695 -0.1905  2.9813
24945SOL     OW77726   4.471   2.680   1.117 -0.0179 -0.2027  0.0793
24945SOL    HW177727   4.539   2.695   1.183 -0.3205 -0.0157  0.3511
24945SOL    HW277728   4.404   2.629   1.164 -0.9214  1.1859  0.3452
24946SOL     OW77729   3.231   6.903   8.201  0.4825 -0.1836 -0.5013
24946SOL    HW177730   3.164   6.835   8.197 -0.1864  0.3252  1.3408
24946SOL    HW277731   3.297   6.868   8.260 -0.0118  0.8670  0.6961
24947SOL     OW77732   1.676   3.024   1.454 -0.2232  0.9946  0.8832
24947SOL    HW177733   1.583   3.023   1.432 -0.0882  0.2629  0.3248
24947SOL    HW277734   1.690   2.945   1.506  0.3960  0.2249 -0.4009
24948SOL     OW77735   8.524   0.667   2.554  0.5481  0.5889 -0.5834
24948SOL    HW177736   8.568   0.608   2.615 -0.1552  0.3573 -0.2826
24948SOL    HW277737   8.461   0.611   2.508  1.2516  0.6970 -1.7373
24949SOL     OW77738   3.356   9.252   8.918  0.7471  0.0526  0.3961
24949SOL    HW177739   3.268   9.280   8.945  0.8956 -0.7039  1.7514
24949SOL    HW277740   3.341   9.187   8.849  0.3561  1.9364 -1.4119
24950SOL     OW77741   0.126   7.393   0.659  0.6291  0.4488  0.4838
24950SOL    HW177742   0.083   7.370   0.742  1.0603 -2.5439 -0.0284
24950SOL    HW277743   0.208   7.434   0.685 -0.7495  2.8064  1.4612
24951SOL     OW77744   2.951   2.469   4.180  0.0025  0.0850 -0.4287
24951SOL    HW177745   2.982   2.494   4.093 -0.2830  0.7721 -0.3388
24951SOL    HW277746   2.872   2.417   4.163 -0.2626  0.5263 -0.5754
24952SOL     OW77747   5.039   8.154   2.372  0.8735 -0.2121 -0.0006
24952SOL    HW177748   5.105   8.087   2.353  1.7571  0.8622 -0.8242
24952SOL    HW277749   5.077   8.206   2.443  0.4940 -0.1730  0.1738
24953SOL     OW77750   6.772   2.892   2.630  0.0297  0.4881  0.0393
24953SOL    HW177751   6.836   2.890   2.701 -1.8875  0.2076  1.8596
24953SOL    HW277752   6.800   2.822   2.571  1.9677  1.0753  0.1991
24954SOL     OW77753   7.390   6.226   5.336 -0.2653 -0.1901 -0.2363
24954SOL    HW177754   7.421   6.145   5.377 -0.7748  0.4138  1.4444
24954SOL    HW277755   7.300   6.207   5.309  0.4838 -1.0067 -2.3994
24955SOL     OW77756   9.188   8.148   5.408  0.2296 -0.2212  0.0547
24955SOL    HW177757   9.217   8.238   5.394  0.6568 -0.6365 -2.2078
24955SOL    HW277758   9.121   8.154   5.476  0.4415  1.7632  0.1336
24956SOL     OW77759   2.613   7.977   8.116 -0.0989 -0.2345 -0.0869
24956SOL    HW177760   2.621   8.053   8.059  0.6531  1.0830  1.6953
24956SOL    HW277761   2.702   7.957   8.144 -0.5777  0.5394  2.2832
24957SOL     OW77762   4.690   8.471   6.321 -0.5973 -0.0066 -0.0704
24957SOL    HW177763   4.721   8.527   6.249 -0.4432  1.0646  0.8009
24957SOL    HW277764   4.689   8.383   6.284  0.3192  0.3964 -1.1251
24958SOL     OW77765   7.813   0.207   7.174  0.2407  0.6648 -0.6729
24958SOL    HW177766   7.886   0.197   7.113 -0.9346  0.7692 -2.1392
24958SOL    HW277767   7.763   0.126   7.164 -0.7802  1.3185 -0.9855
24959SOL     OW77768   2.372   3.816   5.576  0.1854  0.2779  0.6832
24959SOL    HW177769   2.280   3.803   5.552  0.1601  1.2752  0.1989
24959SOL    HW277770   2.370   3.886   5.641  0.6432  0.7140  0.2363
24960SOL     OW77771   8.038   5.833   3.638  0.1774 -0.6881 -0.0727
24960SOL    HW177772   8.035   5.894   3.712 -0.9651 -0.7378 -0.0567
24960SOL    HW277773   8.129   5.803   3.635  1.7432  3.4443 -2.0482
24961SOL     OW77774   0.186   3.263   5.558 -0.2133 -0.3717  0.2715
24961SOL    HW177775   0.254   3.330   5.565  0.2814 -0.8192 -0.1021
24961SOL    HW277776   0.149   3.276   5.471 -1.5502  0.7319  0.9716
24962SOL     OW77777   6.892   0.816   3.691  0.0944 -0.1480 -0.0981
24962SOL    HW177778   6.962   0.785   3.748 -1.0314 -3.5931 -0.3613
24962SOL    HW277779   6.815   0.821   3.747  0.3947  3.7224  0.2170
24963SOL     OW77780   9.134   4.930   2.429 -0.0516 -0.3382  0.2285
24963SOL    HW177781   9.072   4.934   2.356  0.3796  1.5632 -0.0930
24963SOL    HW277782   9.108   5.002   2.487  1.6908  0.3798  0.1845
24964SOL     OW77783   8.111   5.637   5.445  0.3781  0.6762 -0.3572
24964SOL    HW177784   8.122   5.591   5.528  2.1116  2.7135  0.6452
24964SOL    HW277785   8.135   5.572   5.378  0.2800 -0.5965  0.7940
24965SOL     OW77786   5.143   0.193   7.193 -0.4081  0.4120 -0.0267
24965SOL    HW177787   5.111   0.277   7.226 -1.8059 -0.2361  0.3155
24965SOL    HW277788   5.087   0.127   7.234 -0.6658 -0.5768 -1.8586
24966SOL     OW77789   7.014   5.001   3.114  0.1711 -0.0203  0.1453
24966SOL    HW177790   7.035   4.971   3.026 -0.9982  2.3722 -1.0243
24966SOL    HW277791   7.095   5.040   3.146 -0.2163  2.0027 -1.1931
24967SOL     OW77792   5.814   8.305   1.716  0.2031 -0.4375  0.0923
24967SOL    HW177793   5.891   8.349   1.752 -0.1042 -1.0419  1.5616
24967SOL    HW277794   5.751   8.303   1.789 -0.9437 -0.5662 -0.8703
24968SOL     OW77795   5.883   4.778   2.506  0.3516 -0.1749 -0.3172
24968SOL    HW177796   5.869   4.865   2.469 -0.6969 -0.0890  0.2346
24968SOL    HW277797   5.883   4.719   2.431 -0.6265  0.1227 -0.5662
24969SOL     OW77798   5.350   2.227   3.102  0.3092  0.1557  0.1699
24969SOL    HW177799   5.431   2.204   3.057  1.1678  0.8416  1.3418
24969SOL    HW277800   5.373   2.234   3.194 -1.4555 -1.3467  0.8009
24970SOL     OW77801   6.348   2.566   1.501  0.1559  0.0431  0.7873
24970SOL    HW177802   6.435   2.559   1.542  0.4269 -0.6974  0.1025
24970SOL    HW277803   6.335   2.482   1.458 -0.0685  0.8435 -0.7609
24971SOL     OW77804   7.135   5.580   6.401  0.3648  0.0845  0.4594
24971SOL    HW177805   7.048   5.584   6.362  0.8762 -0.6493 -0.8174
24971SOL    HW277806   7.160   5.488   6.396  0.9321  0.1577  1.4904
24972SOL     OW77807   0.819   9.050   4.245 -0.6398  0.0062  0.3309
24972SOL    HW177808   0.723   9.051   4.249 -0.6653 -0.0140 -0.2072
24972SOL    HW277809   0.843   8.959   4.266 -0.6361  0.4192  2.3152
24973SOL     OW77810   1.818   8.655   8.203  0.6659 -0.1831  0.1628
24973SOL    HW177811   1.797   8.739   8.163 -0.5213 -0.7930 -0.5327
24973SOL    HW277812   1.824   8.674   8.297 -2.6517  0.1561  0.4041
24974SOL     OW77813   2.648   7.348   3.830 -0.2857 -0.1583 -0.5716
24974SOL    HW177814   2.694   7.280   3.781 -0.8683 -1.8139  1.0966
24974SOL    HW277815   2.716   7.413   3.850  0.8398 -1.4404 -0.1090
24975SOL     OW77816   8.156   6.992   6.402  0.7077 -1.0104  0.3466
24975SOL    HW177817   8.094   6.923   6.425  0.8498 -1.5195 -0.7655
24975SOL    HW277818   8.148   7.056   6.473  1.1720 -2.5508  1.8650
24976SOL     OW77819   0.082   2.041   3.541  0.1250  0.6050 -0.2612
24976SOL    HW177820   0.087   2.105   3.612  0.0862 -0.3035  0.5919
24976SOL    HW277821  -0.005   2.054   3.503  0.3581  1.4729 -0.5210
24977SOL     OW77822   3.201   2.226   8.121  0.0051 -0.3528  0.2345
24977SOL    HW177823   3.187   2.281   8.044  0.8971  0.6972  0.7935
24977SOL    HW277824   3.138   2.154   8.111  0.0900 -0.2381 -1.4507
24978SOL     OW77825   4.850   3.886   5.408 -0.2963  0.0519  0.3523
24978SOL    HW177826   4.755   3.894   5.400 -0.2104  0.9091  0.0309
24978SOL    HW277827   4.871   3.929   5.491 -0.1738  0.0551  0.3204
24979SOL     OW77828   1.501   8.335   2.842 -0.1490  0.6391  0.4445
24979SOL    HW177829   1.540   8.387   2.772 -1.4985  0.2331 -0.6538
24979SOL    HW277830   1.471   8.255   2.798 -1.2369  0.4807  1.4328
24980SOL     OW77831   4.957   0.883   5.517  0.2420 -0.0630  0.8759
24980SOL    HW177832   4.948   0.958   5.576  0.5643  0.6311  0.0622
24980SOL    HW277833   5.004   0.917   5.442 -1.0263 -0.6822 -0.2405
24981SOL     OW77834   0.339   6.734   2.126  0.7055 -0.4971  0.0549
24981SOL    HW177835   0.384   6.650   2.134  1.0394 -0.3479 -0.1887
24981SOL    HW277836   0.396   6.785   2.068  1.1029  0.2985  1.1141
24982SOL     OW77837   2.039   2.658   8.611  0.0829  0.8005  0.1177
24982SOL    HW177838   2.030   2.593   8.681  0.7831 -0.5048 -0.9708
24982SOL    HW277839   1.950   2.694   8.600 -0.6781 -1.1130 -0.3333
24983SOL     OW77840   7.216   3.782   2.431  0.2732  0.0582  0.0558
24983SOL    HW177841   7.219   3.860   2.486 -0.2080  0.0361  0.1139
24983SOL    HW277842   7.243   3.812   2.344  1.7665 -0.0461  0.4487
24984SOL     OW77843   2.893   4.058   3.370  0.2578 -0.1477 -0.3990
24984SOL    HW177844   2.967   4.055   3.310 -1.1174  0.4257 -2.2017
24984SOL    HW277845   2.816   4.054   3.314 -1.1016  0.6784  1.3017
24985SOL     OW77846   1.481   1.017   1.522  0.2307  0.4954  0.5774
24985SOL    HW177847   1.571   1.005   1.551  0.0381 -1.3815  0.5515
24985SOL    HW277848   1.486   1.018   1.427  0.1055 -1.3291  0.5105
24986SOL     OW77849   2.612   7.888   5.233  0.4175 -0.2572 -0.0705
24986SOL    HW177850   2.542   7.918   5.290  0.1192  2.0314 -1.5132
24986SOL    HW277851   2.686   7.945   5.254  0.6664 -0.1803 -1.0923
24987SOL     OW77852   4.909   2.924   7.416 -0.1794  0.3550  0.0538
24987SOL    HW177853   4.936   2.921   7.508 -1.6572 -0.6093  0.5024
24987SOL    HW277854   4.852   3.000   7.411 -0.8615 -0.1397  0.1803
24988SOL     OW77855   0.785   7.379   2.556 -0.0731  0.0928 -0.1181
24988SOL    HW177856   0.712   7.389   2.617  0.7082  0.4150  0.8005
24988SOL    HW277857   0.754   7.317   2.490 -1.4747  0.8949 -0.2444
24989SOL     OW77858   5.411   0.998   1.740 -0.3508  0.4368 -0.0863
24989SOL    HW177859   5.418   0.938   1.814  0.7705 -0.6657 -1.0451
24989SOL    HW277860   5.317   1.000   1.719 -0.6419  0.5394  1.1672
24990SOL     OW77861   1.886   0.695   0.274  0.2642  0.7378  0.3206
24990SOL    HW177862   1.922   0.616   0.235  0.5652  0.3325  1.3748
24990SOL    HW277863   1.801   0.707   0.232 -0.7393 -1.3504  1.6218
24991SOL     OW77864   4.080   6.946   0.386  0.1190  0.3285 -0.3648
24991SOL    HW177865   4.013   6.877   0.382 -0.5080  0.7822  1.6618
24991SOL    HW277866   4.155   6.903   0.428  0.2312  0.5059 -0.3860
24992SOL     OW77867   0.035   7.612   2.784  0.1948  0.1174  0.5058
24992SOL    HW177868   0.107   7.648   2.835  1.0814 -0.6376 -0.1837
24992SOL    HW277869   0.049   7.518   2.785  0.7015  0.1205 -1.7742
24993SOL     OW77870   1.874   1.596   4.781 -0.0241  0.2059 -0.0533
24993SOL    HW177871   1.780   1.612   4.792  0.3193  1.9371  0.6556
24993SOL    HW277872   1.911   1.681   4.758  1.5564 -0.1437  0.9891
24994SOL     OW77873   9.039   1.296   4.720  0.1176  0.0249 -0.1281
24994SOL    HW177874   9.042   1.212   4.675  1.0070 -0.0317  0.0285
24994SOL    HW277875   9.003   1.276   4.806 -0.8431  0.0077 -0.5245
24995SOL     OW77876   4.096   7.375   6.990 -0.3315 -0.2110 -0.1470
24995SOL    HW177877   4.086   7.410   6.901 -1.3777  1.5065  0.6087
24995SOL    HW277878   4.044   7.295   6.990  0.6714 -0.9021 -1.4145
24996SOL     OW77879   5.557   3.688   7.894  0.3520 -0.1201  0.3943
24996SOL    HW177880   5.482   3.706   7.838 -0.1255 -0.4425  0.9167
24996SOL    HW277881   5.630   3.673   7.834  0.6244  2.6610 -0.1376
24997SOL     OW77882   4.267   2.924   3.498  1.2353 -0.1388  0.0898
24997SOL    HW177883   4.208   2.859   3.537 -0.4537  0.5381 -1.2213
24997SOL    HW277884   4.260   3.000   3.554  2.2446 -0.6240  0.9117
24998SOL     OW77885   4.611   4.509   8.357 -0.4185 -0.1753  0.3766
24998SOL    HW177886   4.529   4.558   8.349  0.7697  1.7552 -0.4731
24998SOL    HW277887   4.672   4.571   8.396  1.1887 -0.9012 -0.8818
24999SOL     OW77888   4.652   2.934   8.603 -0.0928 -0.3979  0.0841
24999SOL    HW177889   4.556   2.938   8.605 -0.0664  0.5183  0.0607
24999SOL    HW277890   4.679   2.976   8.685  0.3220  1.9357 -1.1762
25000SOL     OW77891   2.542   3.081   0.243 -0.1546  0.4093 -0.0932
25000SOL    HW177892   2.483   3.033   0.185 -0.4600  0.0691  0.4938
25000SOL    HW277893   2.628   3.075   0.200  0.0135 -1.4697  0.4125
25001SOL     OW77894   4.057   4.194   4.479  0.1209  0.0996 -0.0424
25001SOL    HW177895   3.969   4.155   4.484 -0.7011  1.9010  0.4459
25001SOL    HW277896   4.090   4.189   4.568 -1.2626  3.1704  0.7500
25002SOL     OW77897   7.934   8.077   7.327 -0.6631  0.8524  0.2346
25002SOL    HW177898   7.843   8.090   7.301 -1.4078  2.3231  3.1025
25002SOL    HW277899   7.935   7.991   7.370 -0.0212 -0.3572 -2.0227
25003SOL     OW77900   6.665   1.231   3.973 -0.0044 -0.0489 -0.0700
25003SOL    HW177901   6.617   1.169   3.918 -1.0627  1.1086 -0.5054
25003SOL    HW277902   6.597   1.291   4.005  0.9942  0.9015  0.3004
25004SOL     OW77903   7.888   8.472   5.228  0.0418 -0.0010  0.0785
25004SOL    HW177904   7.811   8.518   5.261 -2.3073 -2.1938 -1.8460
25004SOL    HW277905   7.875   8.468   5.133  2.6149 -0.4194 -0.3348
25005SOL     OW77906   5.344   5.499   0.283 -0.1447  0.3613  0.1161
25005SOL    HW177907   5.291   5.532   0.211 -0.3258 -1.2119 -0.4922
25005SOL    HW277908   5.295   5.425   0.318  0.1304  0.8371  1.6203
25006SOL     OW77909   8.467   7.436   1.083  0.1787  0.1881 -0.0499
25006SOL    HW177910   8.472   7.530   1.100  0.0754  0.2398 -0.3052
25006SOL    HW277911   8.557   7.405   1.097 -0.1349 -0.0081  1.9040
25007SOL     OW77912   8.014   2.774   7.308  0.6816 -0.2519  0.1443
25007SOL    HW177913   8.037   2.867   7.306  0.1444 -0.1241 -1.4475
25007SOL    HW277914   8.090   2.730   7.270 -0.2687 -0.1312 -2.0491
25008SOL     OW77915   6.008   4.709   7.345  0.1061  0.5485 -0.2162
25008SOL    HW177916   6.017   4.652   7.269  0.6727  0.8165 -0.3560
25008SOL    HW277917   6.058   4.788   7.322  2.1040 -0.2027  1.2678
25009SOL     OW77918   2.460   7.724   7.354  0.0552  0.0591  0.1880
25009SOL    HW177919   2.469   7.775   7.274  1.2296  1.5043  1.1727
25009SOL    HW277920   2.428   7.639   7.325 -1.7237  1.2426 -1.5665
25010SOL     OW77921   3.001   7.806   3.399  0.1107 -0.3047 -0.5063
25010SOL    HW177922   3.035   7.833   3.314  0.7246 -2.8828 -1.1428
25010SOL    HW277923   3.077   7.806   3.457 -0.2168  0.9616 -0.0388
25011SOL     OW77924   1.074   3.193   4.753  0.6432  0.4777 -0.4524
25011SOL    HW177925   1.092   3.108   4.793  1.8650  1.5809  1.5269
25011SOL    HW277926   1.075   3.254   4.827 -0.3334  2.1991 -1.7989
25012SOL     OW77927   2.827   0.154   3.172 -0.4334  0.7409  0.2144
25012SOL    HW177928   2.802   0.240   3.141  0.4534  0.9860  0.1296
25012SOL    HW277929   2.921   0.148   3.153 -0.4848 -0.2483  0.1937
25013SOL     OW77930   6.107   7.403   8.088  0.6479 -0.3178 -0.1603
25013SOL    HW177931   6.128   7.384   7.996  2.0366 -1.6353  0.3744
25013SOL    HW277932   6.052   7.330   8.116 -0.3373  0.4294 -0.1089
25014SOL     OW77933   8.763   2.234   5.137  0.0326 -0.0668 -0.4114
25014SOL    HW177934   8.744   2.196   5.223  0.5373 -0.6089 -0.5335
25014SOL    HW277935   8.691   2.295   5.121 -0.0742  0.0270  0.3887
25015SOL     OW77936   2.870   0.715   3.909 -0.1078 -0.2447 -0.6974
25015SOL    HW177937   2.850   0.707   3.815 -0.4500 -2.6457 -0.4741
25015SOL    HW277938   2.842   0.804   3.932 -0.1487  0.3518 -2.8252
25016SOL     OW77939   2.929   2.143   0.629  0.0090  0.5285  0.6697
25016SOL    HW177940   2.936   2.201   0.553  0.7839  0.0680  0.3793
25016SOL    HW277941   2.841   2.106   0.622  0.8216 -1.2841 -1.3362
25017SOL     OW77942   3.011   0.937   3.165  0.4129  0.1437  0.2129
25017SOL    HW177943   2.988   1.026   3.138  0.3343  0.1981  0.4612
25017SOL    HW277944   2.945   0.913   3.229  0.3506 -0.1496  0.0397
25018SOL     OW77945   4.575   0.624   6.290 -0.1456 -0.2365 -0.0716
25018SOL    HW177946   4.562   0.708   6.247 -2.0609 -0.5087 -0.1170
25018SOL    HW277947   4.664   0.598   6.266  0.0542  1.2149 -1.0199
25019SOL     OW77948   6.005   8.840   3.783 -0.0361 -0.6868  0.7949
25019SOL    HW177949   6.005   8.899   3.708  0.5984  1.4950  2.3988
25019SOL    HW277950   6.092   8.852   3.822 -1.0483 -0.0653  3.0540
25020SOL     OW77951   3.748   6.343   4.832  0.4345 -0.3647  0.0192
25020SOL    HW177952   3.729   6.433   4.804  3.4992  0.3206 -0.1677
25020SOL    HW277953   3.774   6.351   4.924 -1.2832 -1.4341  0.6649
25021SOL     OW77954   2.528   5.050   5.453  0.5303  0.0208 -0.2316
25021SOL    HW177955   2.598   5.072   5.513 -0.7909  2.0538  0.6859
25021SOL    HW277956   2.555   5.087   5.369  1.0198 -0.1503 -0.1508
25022SOL     OW77957   6.737   6.260   6.351 -0.0204  0.0414 -0.2530
25022SOL    HW177958   6.808   6.281   6.411  0.5610 -2.2700 -0.0674
25022SOL    HW277959   6.718   6.168   6.367 -1.4552 -0.0080 -1.9748
25023SOL     OW77960   8.215   7.189   7.592  0.5352  0.4917  0.3982
25023SOL    HW177961   8.297   7.144   7.615 -0.0099 -0.3719  0.7025
25023SOL    HW277962   8.189   7.234   7.672  0.7631  0.8562  0.2699
25024SOL     OW77963   6.110   8.457   8.486 -0.0362 -0.2016  0.0776
25024SOL    HW177964   6.188   8.489   8.440  0.4086 -0.3753  0.6919
25024SOL    HW277965   6.057   8.416   8.417 -0.2546  1.1552 -0.5840
25025SOL     OW77966   2.940   2.318   1.675  0.3221  0.1365 -0.1450
25025SOL    HW177967   2.872   2.261   1.638  0.7803 -0.4797 -0.0504
25025SOL    HW277968   2.899   2.358   1.752 -0.2607  0.5468 -0.6636
25026SOL     OW77969   8.253   3.158   2.677 -0.1227  0.8378  0.5463
25026SOL    HW177970   8.286   3.188   2.762  0.6111  0.7940  0.2817
25026SOL    HW277971   8.163   3.131   2.695  0.4093 -0.3805  1.5848
25027SOL     OW77972   7.716   5.002   3.581 -0.1682  0.2202  0.2091
25027SOL    HW177973   7.768   5.074   3.546 -0.4695 -0.6250 -2.1799
25027SOL    HW277974   7.765   4.973   3.658  0.7638  1.9654  0.3241
25028SOL     OW77975   8.586   2.621   3.148 -0.2375 -0.4933 -0.4063
25028SOL    HW177976   8.636   2.542   3.134 -1.3635 -1.2966 -0.0584
25028SOL    HW277977   8.497   2.599   3.119 -1.1133 -0.1276  1.7469
25029SOL     OW77978   7.967   4.424   5.189  0.1089  0.2969 -0.8762
25029SOL    HW177979   8.010   4.491   5.136 -0.7225  0.7757 -0.9647
25029SOL    HW277980   7.902   4.385   5.130 -0.1061  0.1108 -0.5216
25030SOL     OW77981   6.117   0.909   5.297 -0.6102  0.4250 -0.4225
25030SOL    HW177982   6.174   0.866   5.233  1.2725 -0.0328  1.4567
25030SOL    HW277983   6.054   0.841   5.323  1.9346 -1.1905  2.0389
25031SOL     OW77984   4.330   7.401   5.605 -0.0734 -0.3701  0.2045
25031SOL    HW177985   4.386   7.342   5.556 -0.3154  0.1698 -0.7382
25031SOL    HW277986   4.364   7.398   5.695  0.5584 -1.1320 -0.0558
25032SOL     OW77987   0.152   6.035   1.169 -0.6429  0.0570 -0.1527
25032SOL    HW177988   0.102   6.032   1.251  0.1470  1.0012  0.3920
25032SOL    HW277989   0.143   6.126   1.139 -1.5742 -0.4677 -1.5560
25033SOL     OW77990   4.083   8.184   0.312 -0.4022 -0.4522  0.0297
25033SOL    HW177991   4.046   8.175   0.400  0.7698  1.8994  0.8467
25033SOL    HW277992   4.110   8.095   0.288  0.8913 -0.9232  2.8264
25034SOL     OW77993   8.733   0.048   0.364 -0.7537 -0.2101 -0.5092
25034SOL    HW177994   8.824   0.076   0.352 -0.4278 -1.0810 -0.1295
25034SOL    HW277995   8.738  -0.046   0.377 -1.4625  0.0189  1.9036
25035SOL     OW77996   6.974   4.033   4.082 -0.0592 -0.1696  0.5166
25035SOL    HW177997   6.946   4.122   4.060  2.4137  0.6249  0.2773
25035SOL    HW277998   7.019   4.003   4.003  1.5205 -0.5679  1.5447
25036SOL     OW77999   0.051   8.428   8.019 -0.5402 -0.3948  0.2076
25036SOL    HW178000   0.089   8.516   8.022 -1.7073  0.1489  3.1372
25036SOL    HW278001  -0.041   8.442   7.995 -0.0122 -1.2481 -2.6362
25037SOL     OW78002   5.354   0.694   1.838 -0.5902  0.1931  0.4833
25037SOL    HW178003   5.280   0.663   1.786 -0.9216 -0.0342  1.0782
25037SOL    HW278004   5.315   0.750   1.905 -0.4845 -1.5055  2.0456
25038SOL     OW78005   3.932   2.916   6.710 -0.2087 -0.1168 -1.0913
25038SOL    HW178006   3.958   2.845   6.769 -1.0228  0.2313 -0.2748
25038SOL    HW278007   3.980   2.992   6.742  0.3216 -0.2030 -1.6831
25039SOL     OW78008   1.973   6.813   0.217 -0.3316  0.1265  0.3788
25039SOL    HW178009   1.986   6.836   0.309  1.9175 -2.3864  0.8082
25039SOL    HW278010   2.057   6.833   0.175 -1.5538  1.9751 -1.4043
25040SOL     OW78011   4.723   5.225   2.568  0.1224 -0.1711  0.5986
25040SOL    HW178012   4.802   5.221   2.513 -0.7460  2.3237 -1.0241
25040SOL    HW278013   4.651   5.229   2.506 -1.0444  0.7111  1.9556
25041SOL     OW78014   2.347   3.084   0.489 -0.1385 -0.0713 -0.3310
25041SOL    HW178015   2.386   3.095   0.575 -0.8869  0.9890 -0.0985
25041SOL    HW278016   2.376   2.998   0.459  0.7957 -0.0999  0.6231
25042SOL     OW78017   6.266   0.032   9.125 -0.1916  0.0387  0.2267
25042SOL    HW178018   6.271   0.110   9.070  0.0665 -0.3828 -0.3602
25042SOL    HW278019   6.333  -0.027   9.089  0.1897 -0.1302  1.1842
25043SOL     OW78020   0.972   1.619   1.856 -0.5082  0.7443 -0.1201
25043SOL    HW178021   1.050   1.591   1.904 -0.2030 -1.6682 -1.8932
25043SOL    HW278022   0.904   1.625   1.923  0.2333 -1.1512  0.8801
25044SOL     OW78023   1.433   7.738   2.124  0.1513  0.2375 -0.4321
25044SOL    HW178024   1.509   7.719   2.069 -0.6431 -1.2139 -1.0842
25044SOL    HW278025   1.419   7.657   2.174  0.0143  1.0530  0.9116
25045SOL     OW78026   8.539   3.455   0.899 -0.3454  0.2101 -0.7853
25045SOL    HW178027   8.600   3.521   0.932  1.5746 -1.4531 -0.9044
25045SOL    HW278028   8.456   3.476   0.943  0.6230  1.6811  0.4361
25046SOL     OW78029   1.988   1.508   3.300  0.2744 -0.0924 -0.6133
25046SOL    HW178030   2.023   1.529   3.387 -0.8667 -1.1586  0.1325
25046SOL    HW278031   1.981   1.593   3.256 -1.5051  0.8068  1.2499
25047SOL     OW78032   2.860   0.226   4.187 -0.5305 -0.2313 -0.3641
25047SOL    HW178033   2.909   0.217   4.105  0.5509 -0.0299  0.2363
25047SOL    HW278034   2.806   0.304   4.175  0.1779  0.2301 -0.6230
25048SOL     OW78035   4.192   8.084   6.303  0.0647  0.3206  0.2384
25048SOL    HW178036   4.142   8.021   6.355  0.3952 -0.0897  0.0645
25048SOL    HW278037   4.206   8.158   6.362 -1.0514  0.5989  0.1779
25049SOL     OW78038   4.003   6.034   4.581  0.3284  0.5518  0.2180
25049SOL    HW178039   3.974   5.999   4.497 -0.3767  1.2906  0.1278
25049SOL    HW278040   4.049   6.115   4.559  0.8905  0.3055  0.4874
25050SOL     OW78041   5.038   6.657   2.362 -0.7297  0.4730  0.2368
25050SOL    HW178042   5.084   6.725   2.314  1.6112  0.0795  1.7519
25050SOL    HW278043   5.043   6.685   2.454 -2.6769 -0.1135  0.5607
25051SOL     OW78044   6.613   8.499   8.837 -0.2232  0.4905 -0.5557
25051SOL    HW178045   6.545   8.454   8.787  0.0538  0.6712 -1.1073
25051SOL    HW278046   6.682   8.434   8.846  0.6907  1.1342 -2.3977
25052SOL     OW78047   3.268   3.900   6.960 -0.0150 -0.2808  0.0455
25052SOL    HW178048   3.180   3.872   6.934 -0.4531  0.5827  0.5480
25052SOL    HW278049   3.311   3.924   6.877 -1.4970  2.7486 -0.0167
25053SOL     OW78050   7.611   8.707   8.915  0.2951 -0.1466 -0.2102
25053SOL    HW178051   7.631   8.794   8.880 -0.6005  0.6238  1.1310
25053SOL    HW278052   7.599   8.721   9.008  1.1584 -1.9048  0.2052
25054SOL     OW78053   1.614   8.146   0.357 -0.1101  0.3704 -0.2466
25054SOL    HW178054   1.623   8.080   0.426  0.7273  1.4707  0.7440
25054SOL    HW278055   1.603   8.096   0.277 -0.5770 -0.9595  0.6080
25055SOL     OW78056   0.786   0.435   7.562 -0.3303 -0.2120 -0.0613
25055SOL    HW178057   0.809   0.464   7.474  1.6576  1.1850  0.8382
25055SOL    HW278058   0.791   0.340   7.559  1.2102 -0.1298 -1.0959
25056SOL     OW78059   8.532   3.397   1.972 -0.4665  0.4091  0.0485
25056SOL    HW178060   8.578   3.419   1.891  0.5798 -1.8734 -0.0650
25056SOL    HW278061   8.598   3.408   2.040 -0.7703  0.4091  0.3431
25057SOL     OW78062   5.145   7.613   3.041 -0.3255 -0.3713  0.0327
25057SOL    HW178063   5.175   7.580   3.125 -1.8812 -0.9493  0.3955
25057SOL    HW278064   5.176   7.703   3.038 -1.1995  0.0323  1.7499
25058SOL     OW78065   9.050   1.008   1.322 -0.5890 -0.4463 -0.2581
25058SOL    HW178066   9.059   0.935   1.261 -0.7322 -2.8749  2.4012
25058SOL    HW278067   8.963   0.997   1.361 -0.8643  1.5412 -0.2163
25059SOL     OW78068   6.731   2.937   6.163 -0.4240 -0.6820 -0.3147
25059SOL    HW178069   6.748   2.912   6.253  0.6537  1.0430 -0.0006
25059SOL    HW278070   6.815   2.926   6.118 -0.4723  0.2281 -0.6560
25060SOL     OW78071   1.485   2.706   1.715  0.1444 -0.4949  0.0988
25060SOL    HW178072   1.463   2.702   1.808  0.5577 -0.4689  0.2011
25060SOL    HW278073   1.515   2.617   1.694 -1.0569 -0.8202 -0.2978
25061SOL     OW78074   6.404   1.274   4.948 -0.6174  0.0759 -0.0085
25061SOL    HW178075   6.357   1.350   4.913 -0.2887  0.7633  0.9879
25061SOL    HW278076   6.494   1.287   4.921  0.0593  1.7029  2.7138
25062SOL     OW78077   6.062   0.124   1.549 -0.6631 -0.6340 -0.2709
25062SOL    HW178078   6.093   0.040   1.584 -0.2742 -0.0520  0.8181
25062SOL    HW278079   5.989   0.148   1.607 -0.2651  0.1526 -0.0824
25063SOL     OW78080   7.966   3.161   2.704  0.6017  0.0515  0.6428
25063SOL    HW178081   7.956   3.252   2.734 -0.1718 -0.7399  3.0757
25063SOL    HW278082   7.944   3.109   2.781 -0.5534 -2.2366 -1.1229
25064SOL     OW78083   3.811   3.450   8.950 -0.0246  0.2444 -0.3061
25064SOL    HW178084   3.729   3.405   8.930  0.2896  0.1128 -1.3181
25064SOL    HW278085   3.819   3.518   8.883 -1.1801  2.8010  1.9396
25065SOL     OW78086   9.199   7.425   8.876 -0.2843  0.5441  0.1293
25065SOL    HW178087   9.159   7.512   8.886  0.5192  1.0182 -0.6045
25065SOL    HW278088   9.243   7.409   8.959  1.7588  2.0186 -0.5915
25066SOL     OW78089   7.575   7.883   3.180 -0.1471  0.0216 -0.0146
25066SOL    HW178090   7.620   7.808   3.140  1.8383  1.8312 -1.3495
25066SOL    HW278091   7.626   7.902   3.258 -0.4210  0.2192  0.1156
25067SOL     OW78092   3.259   8.486   9.116 -0.5736  0.2065  0.0263
25067SOL    HW178093   3.350   8.461   9.102 -0.8288 -0.5090 -0.4134
25067SOL    HW278094   3.263   8.577   9.146  0.3628 -0.1971  1.2155
25068SOL     OW78095   5.875   8.753   4.792 -0.0439 -0.0285 -0.3541
25068SOL    HW178096   5.829   8.671   4.773  0.3332  0.0482 -1.7424
25068SOL    HW278097   5.884   8.755   4.887 -0.2352 -1.5116 -0.2869
25069SOL     OW78098   3.248   0.971   2.593 -0.3139  0.1443 -0.2104
25069SOL    HW178099   3.208   1.058   2.599 -0.1380  0.1162  2.9976
25069SOL    HW278100   3.175   0.911   2.609  0.2408 -0.0527  1.8480
25070SOL     OW78101   7.390   4.631   6.099  0.5101 -0.3455  0.1157
25070SOL    HW178102   7.425   4.646   6.012  1.2312 -0.1197  0.4347
25070SOL    HW278103   7.411   4.711   6.148  0.9950 -0.8642  0.7700
25071SOL     OW78104   5.248   8.906   7.888 -0.1520 -0.2871  0.4716
25071SOL    HW178105   5.269   8.826   7.841  0.6263  0.6297 -0.7935
25071SOL    HW278106   5.269   8.977   7.827 -1.8137  0.8657  1.1560
25072SOL     OW78107   0.874   3.819   6.058  0.2990 -0.0387 -0.1906
25072SOL    HW178108   0.954   3.845   6.011  0.6971 -1.9206 -0.6443
25072SOL    HW278109   0.825   3.768   5.994 -2.2629  2.6185 -0.5562
25073SOL     OW78110   7.788   3.858   1.414  0.2375 -0.0206  0.4867
25073SOL    HW178111   7.815   3.851   1.322 -0.1242  1.0708  0.2767
25073SOL    HW278112   7.871   3.871   1.461  0.4310 -0.6461  0.3339
25074SOL     OW78113   4.467   2.285   4.664 -0.3367  0.3199 -0.3402
25074SOL    HW178114   4.483   2.233   4.585 -1.6193 -0.9850  0.2104
25074SOL    HW278115   4.372   2.297   4.666 -0.2526  0.9410  0.6385
25075SOL     OW78116   1.521   4.420   3.397  0.1848  1.0171  0.1062
25075SOL    HW178117   1.510   4.473   3.476  0.9128  0.5471  0.5384
25075SOL    HW278118   1.444   4.363   3.396  0.2547  0.9070  0.5748
25076SOL     OW78119   0.166   4.807   0.847  0.6585  0.2796 -0.2873
25076SOL    HW178120   0.116   4.888   0.834 -0.4752 -0.4786 -0.7523
25076SOL    HW278121   0.248   4.837   0.885  0.0405  1.6071  0.0859
25077SOL     OW78122   3.386   2.322   8.651 -0.3967 -0.2547 -0.1198
25077SOL    HW178123   3.366   2.253   8.588  0.1604  0.9322 -1.6719
25077SOL    HW278124   3.469   2.295   8.692  0.6086  0.1583 -1.7918
25078SOL     OW78125   7.531   6.665   1.736  0.4102 -0.1122 -0.4884
25078SOL    HW178126   7.505   6.746   1.692  1.0794  0.6902  0.5532
25078SOL    HW278127   7.456   6.641   1.790  0.9430  0.9512  0.7628
25079SOL     OW78128   8.662   3.264   1.108 -0.0713  0.0410  0.6624
25079SOL    HW178129   8.616   3.338   1.068 -0.5300  0.3466  1.7352
25079SOL    HW278130   8.594   3.216   1.156  0.0154 -1.6550 -0.7780
25080SOL     OW78131   6.899   0.955   8.791 -0.7408 -0.7415 -0.4994
25080SOL    HW178132   6.930   1.026   8.847  0.6047 -0.6959 -1.2555
25080SOL    HW278133   6.818   0.924   8.833  0.5991 -1.2209  1.8831
25081SOL     OW78134   6.420   2.119   9.181 -0.1949 -0.3623  0.0260
25081SOL    HW178135   6.477   2.168   9.241 -0.0574 -1.6226  0.9647
25081SOL    HW278136   6.354   2.080   9.238 -0.6866 -0.7254 -0.7841
25082SOL     OW78137   8.099   3.112   1.827 -0.9408 -0.3663 -0.1956
25082SOL    HW178138   8.033   3.095   1.760 -1.0724 -1.5719  0.2085
25082SOL    HW278139   8.093   3.037   1.886  0.9259 -0.6306 -0.2626
25083SOL     OW78140   8.276   8.266   8.634 -0.3530  0.4550  0.5135
25083SOL    HW178141   8.215   8.205   8.592 -0.5954  1.4174 -0.5790
25083SOL    HW278142   8.236   8.285   8.719 -0.0610 -1.2048  1.0552
25084SOL     OW78143   4.299   0.509   1.333 -0.7063 -1.1059  0.7551
25084SOL    HW178144   4.277   0.507   1.240  0.9139 -0.8851  0.3397
25084SOL    HW278145   4.320   0.601   1.351 -0.6428 -1.2152  1.2505
25085SOL     OW78146   5.895   0.775   6.577  0.6373 -0.4350 -0.4847
25085SOL    HW178147   5.839   0.831   6.522  1.7967  1.5387  0.2429
25085SOL    HW278148   5.881   0.806   6.666 -0.0422 -2.5721  0.2255
25086SOL     OW78149   8.965   2.958   1.213  0.3179  0.1053  0.2167
25086SOL    HW178150   9.029   2.894   1.244  0.9354  0.9500  0.7308
25086SOL    HW278151   8.953   3.018   1.287 -3.8963 -2.0399  1.6099
25087SOL     OW78152   8.552   0.913   6.407 -0.3130  0.1444  0.2281
25087SOL    HW178153   8.635   0.926   6.360  0.1276  1.1989  1.2511
25087SOL    HW278154   8.503   0.851   6.352 -0.3743  2.2733 -2.3448
25088SOL     OW78155   8.411   7.153   7.783  0.1821  0.0084  0.1502
25088SOL    HW178156   8.362   7.232   7.802 -0.1413 -0.3768  0.9632
25088SOL    HW278157   8.500   7.183   7.763 -0.2289  0.6588 -0.7372
25089SOL     OW78158   2.326   0.895   1.799 -0.0534 -0.6118  0.3318
25089SOL    HW178159   2.332   0.834   1.873 -0.4316  0.5357  1.3496
25089SOL    HW278160   2.249   0.948   1.818  0.3475  0.2817 -0.4381
25090SOL     OW78161   7.766   4.958   4.145  0.2067  0.8098  0.3611
25090SOL    HW178162   7.824   4.921   4.079 -0.8377  0.2529 -0.2689
25090SOL    HW278163   7.825   4.996   4.210  1.2905 -0.3204  0.0802
25091SOL     OW78164   8.976   3.561   7.000 -0.1252  0.5338 -0.1566
25091SOL    HW178165   8.988   3.649   6.965 -1.3206  0.7235 -0.1155
25091SOL    HW278166   8.923   3.574   7.079 -0.1332 -0.1986 -0.0405
25092SOL     OW78167   3.291   1.932   3.720  0.3522 -0.2202 -0.7336
25092SOL    HW178168   3.298   2.023   3.750 -0.7703 -0.1781 -0.5395
25092SOL    HW278169   3.336   1.882   3.788 -0.0464  0.0954 -0.2230
25093SOL     OW78170   4.825   6.055   2.658  0.4878 -0.3862 -0.0668
25093SOL    HW178171   4.804   5.962   2.654  0.5577 -0.4146  0.2030
25093SOL    HW278172   4.832   6.074   2.751 -0.6323  0.1338 -0.0791
25094SOL     OW78173   6.594   8.914   5.924  0.1715  0.1787 -0.4537
25094SOL    HW178174   6.591   8.869   6.008 -0.8002  1.1599  0.0631
25094SOL    HW278175   6.683   8.949   5.919  0.3837 -0.2990 -0.0588
25095SOL     OW78176   4.034   5.653   1.533 -0.2074  0.4079  0.0350
25095SOL    HW178177   4.094   5.665   1.460  0.4159 -2.3389 -0.0077
25095SOL    HW278178   3.950   5.631   1.492 -0.0420 -0.4146  0.1344
25096SOL     OW78179   3.567   2.462   1.811  0.5571 -0.1101  0.2285
25096SOL    HW178180   3.516   2.416   1.877 -2.4820  0.1532 -1.7426
25096SOL    HW278181   3.590   2.395   1.747  0.9724  0.1374  0.1140
25097SOL     OW78182   5.219   8.918   2.126 -0.4395  0.1348 -0.6232
25097SOL    HW178183   5.197   8.838   2.174  0.2321 -1.3510 -2.6673
25097SOL    HW278184   5.143   8.975   2.140 -1.0244 -0.9065  0.7355
25098SOL     OW78185   6.077   3.270   7.741 -0.3952  0.0752  1.2928
25098SOL    HW178186   6.139   3.222   7.796 -0.5654 -0.6510  0.8815
25098SOL    HW278187   6.066   3.213   7.664 -2.3211 -0.2966  1.7936
25099SOL     OW78188   8.569   2.860   5.462 -0.3139 -0.5436 -0.3117
25099SOL    HW178189   8.635   2.792   5.473 -1.1739 -1.2599  0.5935
25099SOL    HW278190   8.613   2.928   5.411  0.6347 -1.6807 -1.0769
25100SOL     OW78191   3.813   6.218   5.564 -0.6426 -0.0619 -0.1091
25100SOL    HW178192   3.834   6.135   5.520  0.5028 -0.1556  0.5877
25100SOL    HW278193   3.737   6.196   5.618 -0.9740 -0.3937 -0.6942
25101SOL     OW78194   1.782   3.587   6.352  0.3204  0.3736 -0.0320
25101SOL    HW178195   1.702   3.535   6.340  0.8287 -0.3053 -0.5447
25101SOL    HW278196   1.790   3.596   6.447  1.3088 -2.2698  0.2347
25102SOL     OW78197   1.855   9.076   1.014  0.0745 -0.3155 -0.5100
25102SOL    HW178198   1.877   8.986   0.990 -0.1097 -0.9854  1.7020
25102SOL    HW278199   1.929   9.105   1.068  0.4357  1.1185 -1.7091
25103SOL     OW78200   6.723   8.598   1.231 -0.8890 -0.0685 -0.2925
25103SOL    HW178201   6.700   8.539   1.160  0.5197 -0.5026 -0.4363
25103SOL    HW278202   6.814   8.576   1.251 -0.8557  0.9339  0.7708
25104SOL     OW78203   6.821   0.329   2.123  0.0409  0.6040  0.2303
25104SOL    HW178204   6.867   0.257   2.165  0.6065  0.3570 -0.7901
25104SOL    HW278205   6.737   0.333   2.168 -0.0876 -0.8352  0.1649
25105SOL     OW78206   8.285   6.402   5.745  0.2339 -0.8048 -0.8244
25105SOL    HW178207   8.335   6.472   5.701 -0.2097  0.1805  0.1898
25105SOL    HW278208   8.215   6.381   5.684 -0.6739  0.9063 -0.4247
25106SOL     OW78209   7.993   7.725   4.342  0.2056 -0.2249  0.1447
25106SOL    HW178210   8.046   7.709   4.264 -1.7175  0.7744 -1.4765
25106SOL    HW278211   7.916   7.772   4.309 -1.2692 -0.8214  2.4689
25107SOL     OW78212   4.699   3.949   3.262  0.7000  0.4263  0.4715
25107SOL    HW178213   4.770   3.950   3.198  1.0070 -0.4721  0.7831
25107SOL    HW278214   4.624   3.916   3.214  0.7221  0.5066  0.3797
25108SOL     OW78215   7.998   1.010   2.605  0.1562 -0.3178  0.1511
25108SOL    HW178216   7.994   1.002   2.509  2.8754 -0.7878  0.0012
25108SOL    HW278217   8.029   0.925   2.635 -0.0866  0.0195  1.3996
25109SOL     OW78218   7.877   2.324   2.296  0.4976  0.4964  0.0624
25109SOL    HW178219   7.895   2.417   2.284 -1.3305  1.3795  3.0567
25109SOL    HW278220   7.781   2.319   2.304  0.4771 -1.7834 -0.7762
25110SOL     OW78221   8.949   1.387   7.324 -0.2109 -0.3495  0.3608
25110SOL    HW178222   8.882   1.356   7.263 -0.7236  0.1334  0.6598
25110SOL    HW278223   8.985   1.466   7.283 -0.4689 -0.0946  0.6163
25111SOL     OW78224   2.316   0.040   0.348  0.2582 -0.2005 -0.3661
25111SOL    HW178225   2.225   0.011   0.355  0.7689 -1.6078  1.2617
25111SOL    HW278226   2.364  -0.040   0.324  0.9366  0.8373 -2.8139
25112SOL     OW78227   8.436   4.940   3.103 -0.2590 -0.3090  0.0983
25112SOL    HW178228   8.418   4.948   3.196  1.6385 -2.2395  0.7220
25112SOL    HW278229   8.526   4.974   3.094 -0.9384  1.2358 -1.3246
25113SOL     OW78230   1.727   7.275   6.328 -0.4795 -0.8560  0.1131
25113SOL    HW178231   1.690   7.340   6.268  0.9619  0.4505  0.5785
25113SOL    HW278232   1.739   7.197   6.274 -0.5251 -0.1562 -0.9454
25114SOL     OW78233   5.205   4.974   6.679  0.3145 -0.1557 -0.1057
25114SOL    HW178234   5.252   4.897   6.647  1.3681  0.2083  0.5311
25114SOL    HW278235   5.218   5.041   6.611 -1.0926 -0.6807 -0.9433
25115SOL     OW78236   8.997   7.851   6.483 -0.2716 -0.1280 -0.6626
25115SOL    HW178237   8.996   7.894   6.569 -0.7067  0.0021 -0.7282
25115SOL    HW278238   9.048   7.908   6.427  0.2904 -0.3771 -0.4067
25116SOL     OW78239   7.794   0.871   4.919 -0.0962  0.2906 -0.0606
25116SOL    HW178240   7.831   0.841   4.836  0.1886 -0.2836  0.2711
25116SOL    HW278241   7.721   0.927   4.893 -0.9540 -1.0882 -0.6791
25117SOL     OW78242   5.976   8.943   6.595  0.3557  0.0315  0.5450
25117SOL    HW178243   6.003   8.868   6.542  0.3483 -0.2352  0.9109
25117SOL    HW278244   5.913   8.990   6.541 -1.3561 -1.4604  1.1598
25118SOL     OW78245   4.502   5.033   0.865  0.2784 -0.3588 -0.5097
25118SOL    HW178246   4.408   5.046   0.849  0.3879 -0.9233 -1.7036
25118SOL    HW278247   4.525   4.957   0.812  1.8856  1.0841 -2.0055
25119SOL     OW78248   8.411   7.931   7.736  0.7233 -0.4095  0.1311
25119SOL    HW178249   8.358   8.005   7.767  0.3054 -0.6346 -0.0373
25119SOL    HW278250   8.500   7.950   7.767  0.5358 -0.0496  0.4513
25120SOL     OW78251   1.491   4.031   2.014  0.0782 -0.0393 -0.0828
25120SOL    HW178252   1.505   3.979   1.934  0.1454  0.0623 -0.1373
25120SOL    HW278253   1.462   4.116   1.982 -1.3434 -0.4482  0.0457
25121SOL     OW78254   5.094   0.644   1.168 -0.0990  0.8306 -0.2664
25121SOL    HW178255   5.156   0.700   1.123 -0.8006  2.1169  0.3306
25121SOL    HW278256   5.021   0.635   1.106  0.3114 -0.0339 -0.6471
25122SOL     OW78257   8.799   4.561   7.839  0.4100 -0.2502  0.1656
25122SOL    HW178258   8.885   4.532   7.810  0.5454  0.2375  0.0707
25122SOL    HW278259   8.817   4.631   7.901  0.0821 -0.1757  0.1781
25123SOL     OW78260   2.756   1.614   3.026 -0.3267  0.9077 -0.1554
25123SOL    HW178261   2.674   1.569   3.043  0.7082 -0.9354  0.2323
25123SOL    HW278262   2.730   1.700   2.993 -2.3853  0.5039  0.2878
25124SOL     OW78263   4.156   3.280   5.267  0.6830  0.2242 -0.2567
25124SOL    HW178264   4.114   3.244   5.345  0.2054  0.0660 -0.5793
25124SOL    HW278265   4.242   3.308   5.297  1.3209 -1.7332 -0.0898
25125SOL     OW78266   6.721   0.848   2.237 -0.3611  0.0497  0.4023
25125SOL    HW178267   6.770   0.765   2.232  0.6690  0.5417  1.6092
25125SOL    HW278268   6.706   0.873   2.146  1.1207 -0.4493 -0.0102
25126SOL     OW78269   2.495   0.545   3.181 -0.3564  0.4288 -0.6295
25126SOL    HW178270   2.434   0.594   3.127  0.7449  1.0226 -1.3765
25126SOL    HW278271   2.515   0.603   3.254  1.2060  1.3063 -1.6865
25127SOL     OW78272   5.948   2.908   1.732 -0.2998 -0.4008  0.1540
25127SOL    HW178273   5.921   2.963   1.806 -1.3598 -0.4855 -0.1609
25127SOL    HW278274   6.030   2.869   1.761 -1.4735 -1.6823  1.9724
25128SOL     OW78275   2.363   2.501   8.192  0.3769 -0.5844  0.2704
25128SOL    HW178276   2.313   2.502   8.274  0.9555  0.3403  0.6273
25128SOL    HW278277   2.388   2.409   8.181 -2.5659 -1.3930 -0.6831
25129SOL     OW78278   6.302   8.791   4.319  0.5454  0.0879 -0.5121
25129SOL    HW178279   6.266   8.703   4.309  0.2922  0.3751 -2.4484
25129SOL    HW278280   6.383   8.790   4.267  1.1553  0.6774  0.3947
25130SOL     OW78281   8.240   4.859   5.865 -0.0376  0.4287  0.4581
25130SOL    HW178282   8.181   4.929   5.895 -0.7167 -0.5566  1.4884
25130SOL    HW278283   8.200   4.778   5.898  0.4789 -0.5086 -1.1106
25131SOL     OW78284   3.717   6.844   7.936 -0.1442  0.3004 -0.0379
25131SOL    HW178285   3.747   6.851   7.845  0.5614 -0.5339  0.1131
25131SOL    HW278286   3.794   6.868   7.988 -0.5027  0.6279  0.3401
25132SOL     OW78287   5.414   7.716   0.265 -0.2224  0.2950  0.3370
25132SOL    HW178288   5.458   7.736   0.348 -0.0343  1.6247 -0.0638
25132SOL    HW278289   5.365   7.795   0.244  1.4172  0.7837 -1.8908
25133SOL     OW78290   4.647   5.964   6.199 -0.0061  0.4214  0.1686
25133SOL    HW178291   4.595   6.021   6.255 -1.0036 -0.4237  0.1423
25133SOL    HW278292   4.651   5.881   6.246  0.9678  0.3490 -0.0317
25134SOL     OW78293   6.269   6.445   5.101 -0.0089 -0.0186  0.0830
25134SOL    HW178294   6.321   6.366   5.117 -0.7790 -0.7603 -0.9333
25134SOL    HW278295   6.180   6.422   5.129 -0.2634  0.4444 -0.3174
25135SOL     OW78296   2.207   6.704   4.748  0.3749  0.2500  0.2446
25135SOL    HW178297   2.248   6.644   4.686 -1.3797 -2.1438  1.2428
25135SOL    HW278298   2.134   6.741   4.699 -1.3922 -2.1108  0.8956
25136SOL     OW78299   1.407   0.750   2.789 -0.1809 -0.0339  0.3380
25136SOL    HW178300   1.444   0.737   2.702 -0.8599 -0.3535  0.0953
25136SOL    HW278301   1.313   0.748   2.776 -0.3144  1.2951  0.8725
25137SOL     OW78302   8.764   6.696   7.188  0.5496  0.0985  0.0659
25137SOL    HW178303   8.669   6.693   7.189  0.5721 -1.8802 -0.5396
25137SOL    HW278304   8.791   6.605   7.194  2.4037  0.5640 -0.5675
25138SOL     OW78305   3.435   4.047   1.032  0.8367  0.1876 -0.1022
25138SOL    HW178306   3.485   3.972   1.001 -0.1833 -0.1383 -0.9973
25138SOL    HW278307   3.495   4.092   1.091  2.2984 -0.0260 -1.3548
25139SOL     OW78308   8.476   2.310   9.041 -0.2618  0.7912 -0.3625
25139SOL    HW178309   8.413   2.254   8.996  2.0954 -0.8180 -1.9548
25139SOL    HW278310   8.549   2.251   9.062  1.6214  2.8947 -0.5946
25140SOL     OW78311   0.722   2.077   3.762  0.3053  0.2318 -0.2081
25140SOL    HW178312   0.684   2.000   3.720  1.2115 -0.4607  0.2058
25140SOL    HW278313   0.654   2.109   3.820  0.8879 -2.1047  1.9665
25141SOL     OW78314   1.721   4.939   4.717 -0.3658  0.0638 -0.3204
25141SOL    HW178315   1.718   4.844   4.709 -2.3397  0.0289  0.2676
25141SOL    HW278316   1.669   4.958   4.795  1.6784  1.5356  0.7956
25142SOL     OW78317   9.150   3.814   0.057  0.4881  0.1671  0.2735
25142SOL    HW178318   9.056   3.799   0.053  0.3274  1.2793 -0.5962
25142SOL    HW278319   9.183   3.745   0.114 -0.4986 -1.8048 -1.4358
25143SOL     OW78320   4.592   3.824   2.631  0.5309 -0.2132 -0.5835
25143SOL    HW178321   4.548   3.807   2.547  1.8413  1.4874 -1.6670
25143SOL    HW278322   4.684   3.806   2.613  0.6576 -1.3029  0.9653
25144SOL     OW78323   8.804   2.737   3.421 -0.1209 -0.4437  0.0666
25144SOL    HW178324   8.757   2.817   3.444 -0.0775 -0.0943 -1.0199
25144SOL    HW278325   8.857   2.718   3.498 -1.1426 -0.1865  0.8548
25145SOL     OW78326   3.390   6.717   5.540  0.0175 -0.5667 -0.5357
25145SOL    HW178327   3.347   6.757   5.615  0.2249 -0.6445 -0.3739
25145SOL    HW278328   3.340   6.747   5.464  0.6600  0.6590 -0.4884
25146SOL     OW78329   3.771   4.279   7.059 -0.6260 -0.5374  0.6293
25146SOL    HW178330   3.816   4.195   7.067  0.7233  0.0481 -0.3281
25146SOL    HW278331   3.781   4.320   7.146 -1.6282 -1.4837  1.2206
25147SOL     OW78332   1.813   9.234   7.546  0.4274  0.0970 -0.4590
25147SOL    HW178333   1.756   9.310   7.537  0.1869 -0.1151 -0.7333
25147SOL    HW278334   1.874   9.239   7.472 -1.1856 -1.3331 -1.9899
25148SOL     OW78335   0.561   3.462   4.287 -0.1663  0.5688 -0.1539
25148SOL    HW178336   0.605   3.545   4.268 -1.4925  1.3715  0.1761
25148SOL    HW278337   0.601   3.433   4.369  0.0149  1.1028 -0.0464
25149SOL     OW78338   7.908   8.558   0.596 -0.5191  0.2178  0.3945
25149SOL    HW178339   7.997   8.584   0.575 -0.0729 -1.1216  0.5048
25149SOL    HW278340   7.859   8.640   0.602  0.1110  0.8870 -2.2326
25150SOL     OW78341   0.179   1.804   0.169  0.1517 -0.2370 -0.3073
25150SOL    HW178342   0.102   1.774   0.121 -0.5391  1.6084 -0.4203
25150SOL    HW278343   0.222   1.723   0.198 -0.5001 -1.3534 -2.2876
25151SOL     OW78344   8.223   0.517   3.632 -0.3645 -0.5553 -0.2949
25151SOL    HW178345   8.282   0.586   3.662  0.0067 -1.2160  0.5672
25151SOL    HW278346   8.224   0.523   3.537  1.1567 -0.5885 -0.3106
25152SOL     OW78347   0.727   4.610   2.316  0.3311 -0.0747  0.4447
25152SOL    HW178348   0.658   4.672   2.340  0.6388  0.0001  1.1711
25152SOL    HW278349   0.697   4.572   2.233  0.1287  1.0274 -0.0118
25153SOL     OW78350   2.532   5.062   6.000 -1.0039 -0.8959  0.0119
25153SOL    HW178351   2.552   5.114   5.922 -1.3887  0.0220  0.5093
25153SOL    HW278352   2.596   5.092   6.065  0.9475 -3.3701 -0.6056
25154SOL     OW78353   3.540   9.033   2.249  0.0207 -0.1119 -0.6251
25154SOL    HW178354   3.556   8.957   2.305 -0.6178 -0.2727 -0.6561
25154SOL    HW278355   3.445   9.044   2.250  0.1013  0.6427 -0.6833
25155SOL     OW78356   7.622   6.428   2.227 -0.5921  0.1820  0.3119
25155SOL    HW178357   7.620   6.434   2.323 -0.0204 -0.0984  0.3496
25155SOL    HW278358   7.713   6.406   2.207 -1.1477 -1.9067 -0.1548
25156SOL     OW78359   6.307   0.978   0.159 -0.0278 -0.5463 -0.1873
25156SOL    HW178360   6.389   1.027   0.163  0.0685 -0.7021 -0.2540
25156SOL    HW278361   6.300   0.949   0.068 -0.1884 -0.4790 -0.1969
25157SOL     OW78362   0.809   1.359   8.200 -0.1517  0.2303 -0.0286
25157SOL    HW178363   0.877   1.417   8.235  0.4483  0.4343 -1.4422
25157SOL    HW278364   0.803   1.383   8.108  0.2414 -2.0602 -0.7163
25158SOL     OW78365   7.179   4.613   3.194  0.5369  1.1550  0.3419
25158SOL    HW178366   7.148   4.638   3.107  1.9765 -0.2203 -0.6197
25158SOL    HW278367   7.186   4.695   3.242  0.2019  1.9985 -1.0080
25159SOL     OW78368   2.500   2.037   1.384 -0.5866  0.4597  0.1171
25159SOL    HW178369   2.464   2.042   1.296  0.5696 -1.7160 -0.5342
25159SOL    HW278370   2.441   2.092   1.437 -2.6209  0.0277 -1.5664
25160SOL     OW78371   6.863   8.527   8.204  0.0874 -0.0630  0.3258
25160SOL    HW178372   6.822   8.443   8.226 -0.2599  0.1130  0.3496
25160SOL    HW278373   6.956   8.507   8.198  0.3087  0.0114  2.7060
25161SOL     OW78374   2.197   7.954   8.889 -0.4731  0.4314 -0.3849
25161SOL    HW178375   2.229   7.886   8.829  1.3446  2.4037 -1.7843
25161SOL    HW278376   2.199   7.912   8.975  3.8033 -0.4296 -0.6618
25162SOL     OW78377   6.778   0.786   7.974 -0.2064 -0.1391  0.4775
25162SOL    HW178378   6.813   0.869   7.941  0.0333 -0.5089 -0.2251
25162SOL    HW278379   6.741   0.744   7.896  1.0482 -1.3724  0.5056
25163SOL     OW78380   8.561   3.485   8.440 -0.1285  0.4123  0.5100
25163SOL    HW178381   8.653   3.497   8.416  0.4306 -2.3294  0.9124
25163SOL    HW278382   8.518   3.458   8.359 -0.3467  0.6850  0.5351
25164SOL     OW78383   7.566   1.408   9.156 -0.1222  0.0256  0.6247
25164SOL    HW178384   7.651   1.383   9.120  0.6438  2.6014  0.4580
25164SOL    HW278385   7.579   1.408   9.251 -0.7054 -1.9248  0.7547
25165SOL     OW78386   8.103   1.600   0.561 -0.0249  0.0713  0.2942
25165SOL    HW178387   8.158   1.673   0.590  0.7371 -0.3727  0.0167
25165SOL    HW278388   8.015   1.624   0.589  0.3900  0.5328  1.2819
25166SOL     OW78389   8.208   7.634   5.495 -0.1248 -0.4390 -0.3212
25166SOL    HW178390   8.150   7.650   5.421  0.9240  0.1340 -1.0458
25166SOL    HW278391   8.241   7.720   5.520  0.2390 -0.7249  0.2189
25167SOL     OW78392   7.764   0.758   3.620 -0.0173  0.3242 -0.1704
25167SOL    HW178393   7.799   0.763   3.709  0.3609 -0.4442 -0.2684
25167SOL    HW278394   7.678   0.718   3.629  0.6026 -1.0959 -0.2751
25168SOL     OW78395   8.335   5.700   4.748 -0.4608 -0.1183 -0.4562
25168SOL    HW178396   8.315   5.698   4.841  0.6868 -0.4416 -0.1990
25168SOL    HW278397   8.401   5.631   4.736  0.5561  0.9469 -1.2095
25169SOL     OW78398   6.780   5.085   5.330 -0.5120 -0.3552  0.0945
25169SOL    HW178399   6.704   5.069   5.386  1.0810 -1.3121  2.0934
25169SOL    HW278400   6.801   4.999   5.293 -0.4313 -0.0806 -0.5093
25170SOL     OW78401   2.948   3.036   2.633 -0.1944 -0.3426  0.2719
25170SOL    HW178402   2.877   3.051   2.571 -0.7408 -1.3566  0.6143
25170SOL    HW278403   2.988   3.122   2.646 -1.4620  0.2813  0.1809
25171SOL     OW78404   7.701   8.859   6.718  0.5550  0.5866 -0.4429
25171SOL    HW178405   7.696   8.937   6.772  1.9647 -0.6065  1.5655
25171SOL    HW278406   7.712   8.787   6.780 -2.4067 -1.5025 -2.0791
25172SOL     OW78407   5.504   2.336   5.333  0.2788 -0.7372 -0.2707
25172SOL    HW178408   5.446   2.271   5.375 -1.1986  0.2913 -0.6250
25172SOL    HW278409   5.447   2.412   5.319  1.3474 -0.2276 -2.0500
25173SOL     OW78410   1.469   1.137   3.912 -0.2787  0.0575  0.1389
25173SOL    HW178411   1.425   1.109   3.832  2.0285  0.6052 -1.4163
25173SOL    HW278412   1.442   1.073   3.978 -2.7231 -0.0582 -0.8714
25174SOL     OW78413   6.876   2.577   6.124  0.2050  0.3256 -0.0480
25174SOL    HW178414   6.814   2.588   6.196 -0.2609 -0.0976 -0.3729
25174SOL    HW278415   6.899   2.665   6.096  0.2197  0.4866  0.4761
25175SOL     OW78416   9.046   3.740   7.591  0.0295 -0.2788 -0.0031
25175SOL    HW178417   8.988   3.721   7.665  0.9517 -2.5052  0.2070
25175SOL    HW278418   9.011   3.821   7.553 -3.4403 -1.6962 -0.1365
25176SOL     OW78419   1.278   8.957   8.731 -0.6702  0.4259  0.7574
25176SOL    HW178420   1.371   8.950   8.751 -0.9767 -2.1630  1.5823
25176SOL    HW278421   1.241   8.872   8.756 -3.1037  1.0527 -0.4001
25177SOL     OW78422   5.567   0.249   3.932 -0.3394  0.1761  0.3602
25177SOL    HW178423   5.555   0.155   3.916  2.3363  0.0729 -1.6218
25177SOL    HW278424   5.482   0.288   3.909 -1.2920 -1.6523  0.5677
25178SOL     OW78425   1.935   4.600   0.929 -0.0215 -0.0191  0.1182
25178SOL    HW178426   1.959   4.532   0.991 -1.9828 -0.5240  0.3674
25178SOL    HW278427   1.871   4.654   0.975  0.7523  1.4216 -0.4291
25179SOL     OW78428   4.377   5.099   6.951  0.4661  0.3785 -0.7196
25179SOL    HW178429   4.439   5.088   7.024 -0.3872  0.7127  0.0700
25179SOL    HW278430   4.318   5.025   6.959  0.2996  0.4787 -1.0167
25180SOL     OW78431   3.189   1.036   2.102  0.4305  0.0645  0.5179
25180SOL    HW178432   3.256   1.008   2.040 -0.9541  2.0890 -2.0741
25180SOL    HW278433   3.107   1.005   2.064 -0.3762 -0.0888  2.2643
25181SOL     OW78434   1.823   2.327   5.359 -0.2466 -0.0685  0.0512
25181SOL    HW178435   1.769   2.251   5.339  1.3699 -0.8260 -1.7583
25181SOL    HW278436   1.773   2.401   5.325  0.5876 -0.9495 -3.4941
25182SOL     OW78437   0.397   5.745   5.304 -0.7307  0.4488  0.2219
25182SOL    HW178438   0.461   5.804   5.345 -0.6011  0.1924  0.3991
25182SOL    HW278439   0.335   5.725   5.374 -0.8944  0.5449  0.1029
25183SOL     OW78440   5.504   3.142   6.714 -0.1752  0.5539 -0.1519
25183SOL    HW178441   5.488   3.151   6.620  0.9530  1.3987 -0.2836
25183SOL    HW278442   5.447   3.070   6.742 -3.0043  2.3813 -0.8516
25184SOL     OW78443   3.459   1.590   1.085 -0.4141 -0.1621 -0.7832
25184SOL    HW178444   3.461   1.628   1.173 -1.0560 -0.2062 -0.7420
25184SOL    HW278445   3.442   1.664   1.027 -1.7234 -0.3740 -0.6973
25185SOL     OW78446   2.108   7.696   5.956  0.2503  0.3044 -0.1582
25185SOL    HW178447   2.047   7.643   6.008  0.2395 -0.0727 -0.5479
25185SOL    HW278448   2.091   7.669   5.865  1.7200 -0.5717 -0.1975
25186SOL     OW78449   8.928   3.970   8.854  1.0572  0.3264 -0.2406
25186SOL    HW178450   8.982   3.913   8.907  0.1138 -0.9660 -0.6259
25186SOL    HW278451   8.896   4.037   8.914 -0.2720 -1.2993  0.9279
25187SOL     OW78452   2.478   6.528   1.707  1.1198  0.5030  0.2169
25187SOL    HW178453   2.531   6.451   1.686 -2.0838 -1.5230 -1.1983
25187SOL    HW278454   2.453   6.516   1.799 -0.0167 -0.6644 -0.2138
25188SOL     OW78455   0.830   0.188   0.331 -0.0936  0.5703 -0.6223
25188SOL    HW178456   0.799   0.124   0.268 -0.1341  1.0241 -1.0702
25188SOL    HW278457   0.812   0.273   0.290 -2.3387  0.9673  0.9814
25189SOL     OW78458   3.203   6.261   5.738  0.0649  0.2712  0.1747
25189SOL    HW178459   3.187   6.351   5.710  0.5400  0.4153  0.3503
25189SOL    HW278460   3.185   6.262   5.832 -1.8542 -0.2903 -0.1361
25190SOL     OW78461   1.374   4.444   5.455  0.4454  0.3815 -0.2813
25190SOL    HW178462   1.316   4.477   5.386 -0.7201 -0.6340  0.1698
25190SOL    HW278463   1.432   4.518   5.474  0.2007  0.9799 -1.6984
25191SOL     OW78464   0.643   6.183   5.678  0.3982  0.4465 -0.3055
25191SOL    HW178465   0.562   6.228   5.653 -0.4148 -0.5871  0.3925
25191SOL    HW278466   0.622   6.090   5.672  1.1218  0.1645  1.1902
25192SOL     OW78467   8.650   1.436   2.365 -0.0764  0.2591  0.7364
25192SOL    HW178468   8.631   1.348   2.333 -0.8100  0.9885 -0.9514
25192SOL    HW278469   8.745   1.442   2.365 -0.0458 -0.0150 -0.6636
25193SOL     OW78470   5.343   8.032   8.549 -0.2718  0.0129  0.2502
25193SOL    HW178471   5.284   8.099   8.516 -0.2306 -0.3890 -0.6749
25193SOL    HW278472   5.431   8.062   8.524 -0.0822  0.5134  1.4502
25194SOL     OW78473   8.024   5.379   4.065 -0.4323 -0.0465  0.3195
25194SOL    HW178474   7.948   5.364   4.008  0.0246 -1.3602  0.0215
25194SOL    HW278475   8.060   5.463   4.034  0.3347 -1.1311 -1.9964
25195SOL     OW78476   3.726   8.582   1.725 -0.2730  0.0318 -0.1777
25195SOL    HW178477   3.643   8.564   1.681 -0.5385 -1.1418  0.7292
25195SOL    HW278478   3.705   8.647   1.792 -0.6648 -0.8717  0.6000
25196SOL     OW78479   3.637   5.870   1.000  0.3042  0.1903 -0.5957
25196SOL    HW178480   3.597   5.875   1.086 -0.3172 -1.1538 -0.7951
25196SOL    HW278481   3.630   5.960   0.966 -0.5569  0.4606  0.2457
25197SOL     OW78482   4.440   3.225   6.903 -0.0544  0.2756 -0.1907
25197SOL    HW178483   4.453   3.238   6.997 -0.3610  1.0230 -0.2447
25197SOL    HW278484   4.404   3.137   6.895  1.3114 -0.3582  0.2711
25198SOL     OW78485   2.108   2.533   3.397  0.2073 -0.0319 -0.0824
25198SOL    HW178486   2.027   2.580   3.418  0.5107  0.3520  0.2585
25198SOL    HW278487   2.096   2.446   3.435 -0.6412 -0.4754 -1.3162
25199SOL     OW78488   6.189   1.907   9.262 -0.0213 -0.1856  0.3603
25199SOL    HW178489   6.101   1.893   9.228 -0.2653  0.2562  0.7992
25199SOL    HW278490   6.193   2.001   9.281  0.2283 -0.3566  1.2060
25200SOL     OW78491   6.508   7.493   4.832  0.1044  0.2578 -0.1136
25200SOL    HW178492   6.505   7.414   4.778  1.2970  0.2470 -0.1824
25200SOL    HW278493   6.497   7.565   4.770  0.3803  0.2024 -0.2254
25201SOL     OW78494   3.551   5.506   0.153 -0.1373  0.2176 -0.2930
25201SOL    HW178495   3.599   5.574   0.201 -0.1380 -0.3906  0.6083
25201SOL    HW278496   3.460   5.532   0.158 -0.1514  0.0947  0.1693
25202SOL     OW78497   0.602   7.284   5.037  0.1921  0.0575  0.0565
25202SOL    HW178498   0.557   7.322   4.962 -1.0430  1.8872  1.6300
25202SOL    HW278499   0.692   7.271   5.007 -0.0694  1.4945 -1.4956
25203SOL     OW78500   5.183   2.355   6.984  0.0643  0.1342 -0.2068
25203SOL    HW178501   5.146   2.282   7.033 -2.2482  1.6641  0.5371
25203SOL    HW278502   5.144   2.348   6.897 -0.8506  0.8852  0.1167
25204SOL     OW78503   3.051   3.993   7.429  0.5334 -0.0909  0.3878
25204SOL    HW178504   3.125   3.994   7.367 -0.5842  0.2760 -1.0047
25204SOL    HW278505   3.007   3.910   7.412  0.8741 -0.5161  1.5382
25205SOL     OW78506   7.724   1.603   3.589 -0.5269  0.8519  0.5922
25205SOL    HW178507   7.792   1.535   3.590 -1.0539  0.2659  3.4233
25205SOL    HW278508   7.732   1.647   3.673 -1.3881  3.1579 -0.4668
25206SOL     OW78509   1.206   8.243   4.310  0.9464 -0.0021  0.3467
25206SOL    HW178510   1.176   8.214   4.396  1.3171  0.3359  0.5930
25206SOL    HW278511   1.280   8.186   4.289  0.3107 -0.6694 -0.1493
25207SOL     OW78512   8.548   5.789   3.192  0.1434 -0.0140 -0.5204
25207SOL    HW178513   8.570   5.725   3.261  0.2817  0.9382  0.3378
25207SOL    HW278514   8.480   5.844   3.230  0.8456  1.0850 -0.8047
25208SOL     OW78515   6.499   2.512   0.989 -0.4774  0.8292 -0.1184
25208SOL    HW178516   6.580   2.553   1.019 -0.4111  0.2329  0.5459
25208SOL    HW278517   6.433   2.541   1.052 -0.4138 -0.1286  0.4072
25209SOL     OW78518   7.783   9.207   4.948  0.0026  0.0106  0.0457
25209SOL    HW178519   7.805   9.298   4.968 -0.6847  0.2149 -0.1030
25209SOL    HW278520   7.800   9.198   4.855 -0.4074  0.1342 -0.0442
25210SOL     OW78521   5.539   2.626   9.086 -0.2138  0.1364 -0.3682
25210SOL    HW178522   5.558   2.532   9.083 -0.5970 -0.0423  1.5254
25210SOL    HW278523   5.561   2.651   9.176  0.2956  1.9664 -0.9624
25211SOL     OW78524   8.720   7.873   4.583  0.1633  0.0427 -0.4319
25211SOL    HW178525   8.723   7.846   4.491 -0.3810  1.3317 -0.8488
25211SOL    HW278526   8.647   7.825   4.620 -0.0904  0.0881 -0.8676
25212SOL     OW78527   0.911   6.768   1.235  0.8588  0.0059 -0.2725
25212SOL    HW178528   0.907   6.859   1.205  0.9821  0.4225  0.8995
25212SOL    HW278529   0.819   6.744   1.250  0.8787  0.2331  0.2342
25213SOL     OW78530   4.699   8.550   8.957 -0.2788  0.4630 -0.4693
25213SOL    HW178531   4.612   8.589   8.945 -0.8954 -0.0697  1.7968
25213SOL    HW278532   4.746   8.611   9.014  0.3348  0.0598 -0.5268
25214SOL     OW78533   0.807   4.730   0.903  0.4362 -0.0283 -0.4111
25214SOL    HW178534   0.769   4.724   0.990 -0.5783 -1.7762 -0.9147
25214SOL    HW278535   0.773   4.812   0.867 -0.1571  0.0778  0.3835
25215SOL     OW78536   8.698   8.777   8.752  0.1683  0.4220  0.1216
25215SOL    HW178537   8.780   8.821   8.731  0.4335  0.1822  0.6390
25215SOL    HW278538   8.724   8.705   8.809 -0.6517  1.7807  2.3353
25216SOL     OW78539   5.046   0.005   0.581 -0.0494 -0.1002 -0.0730
25216SOL    HW178540   5.020  -0.083   0.552 -1.1247 -0.4091  1.6878
25216SOL    HW278541   5.091  -0.010   0.665  0.6491  0.9608 -0.2413
25217SOL     OW78542   3.352   8.941   7.808 -0.0378  0.4120 -1.1643
25217SOL    HW178543   3.278   8.884   7.828  0.2709  0.5170  0.3488
25217SOL    HW278544   3.428   8.883   7.805  0.1488  0.6157 -0.4729
25218SOL     OW78545   9.122   6.711   5.710 -0.4987  0.6023  0.3026
25218SOL    HW178546   9.172   6.763   5.647 -1.1013 -0.2544 -0.9107
25218SOL    HW278547   9.161   6.732   5.795  0.1126  2.0283 -0.3105
25219SOL     OW78548   3.994   4.739   4.348 -0.8659  0.1965 -0.1443
25219SOL    HW178549   4.030   4.765   4.432 -0.7190 -0.9649  0.1763
25219SOL    HW278550   4.030   4.652   4.333 -0.4739  0.6032 -1.6713
25220SOL     OW78551   5.848   0.193   1.147 -0.3499 -0.1991  0.5110
25220SOL    HW178552   5.815   0.249   1.077  0.0192 -1.7646 -0.9993
25220SOL    HW278553   5.802   0.223   1.225 -1.3014  1.1696 -0.5243
25221SOL     OW78554   5.583   8.055   8.905  0.0674 -0.2060  0.0267
25221SOL    HW178555   5.650   8.070   8.838  0.6690 -0.7419  0.4996
25221SOL    HW278556   5.514   8.119   8.884  1.1963  1.1221  0.1740
25222SOL     OW78557   6.169   4.918   7.373  0.1105 -0.4468  0.7583
25222SOL    HW178558   6.248   4.883   7.415  1.7490  1.0056 -0.9661
25222SOL    HW278559   6.172   5.012   7.390 -2.4946 -0.5841  2.5444
25223SOL     OW78560   1.567   2.041   3.276 -0.0934 -0.0456 -0.2499
25223SOL    HW178561   1.567   2.008   3.366 -2.3900 -1.1364 -0.5961
25223SOL    HW278562   1.648   2.007   3.238  0.8568  0.3467  1.3476
25224SOL     OW78563   2.697   3.151   8.691  0.3107 -0.4103  0.5801
25224SOL    HW178564   2.702   3.215   8.620  1.0051 -0.4864  0.5516
25224SOL    HW278565   2.615   3.106   8.677  1.1279 -1.4795 -1.0830
25225SOL     OW78566   3.299   3.310   7.805 -0.2573 -0.1673  0.4598
25225SOL    HW178567   3.273   3.370   7.874 -3.0439 -0.5277 -0.1791
25225SOL    HW278568   3.385   3.342   7.777 -0.5508  1.9871  1.8059
25226SOL     OW78569   5.313   1.487   6.012 -0.8233 -0.6713 -0.7600
25226SOL    HW178570   5.358   1.403   6.003 -0.2716 -0.6308  1.1836
25226SOL    HW278571   5.240   1.469   6.071 -0.3017  0.3263  0.2317
25227SOL     OW78572   7.028   2.451   2.347  0.0371  0.1077 -0.2656
25227SOL    HW178573   7.083   2.455   2.269  0.7597  1.3292  0.2749
25227SOL    HW278574   7.071   2.386   2.403  1.1528  1.2540  0.2719
25228SOL     OW78575   6.680   6.241   5.120  0.2551 -0.4576 -0.1209
25228SOL    HW178576   6.607   6.244   5.059  0.1143  0.6136  0.0804
25228SOL    HW278577   6.728   6.161   5.097 -1.7675 -1.9967  0.6820
25229SOL     OW78578   0.599   9.010   1.778  0.2285 -0.1013  0.3667
25229SOL    HW178579   0.621   9.068   1.852  0.1720  0.6495 -0.1906
25229SOL    HW278580   0.682   8.970   1.753  0.6642  1.3020 -0.5411
25230SOL     OW78581   1.139   5.566   1.097  0.4752  0.5755 -0.0965
25230SOL    HW178582   1.173   5.655   1.091  0.4844  0.5596 -0.2941
25230SOL    HW278583   1.049   5.572   1.066  0.2660  0.6334  0.5129
25231SOL     OW78584   5.158   7.228   1.653 -0.1324  0.3392 -0.0426
25231SOL    HW178585   5.251   7.220   1.674 -0.2764 -1.0112  0.1320
25231SOL    HW278586   5.121   7.274   1.729  0.6207  2.3352 -0.8015
25232SOL     OW78587   5.487   3.336   2.577 -0.0400  0.4803  0.6951
25232SOL    HW178588   5.411   3.378   2.619 -2.0658 -2.7095  0.5411
25232SOL    HW278589   5.527   3.284   2.647 -0.7051 -1.2857 -0.1664
25233SOL     OW78590   6.201   5.981   6.551  0.3733  0.6188  0.4944
25233SOL    HW178591   6.228   5.898   6.513  1.4444  0.8228  0.7700
25233SOL    HW278592   6.227   5.975   6.643  0.8985  1.4334  0.4115
25234SOL     OW78593   5.440   6.191   6.984  0.3170 -0.2275 -0.5889
25234SOL    HW178594   5.446   6.230   7.071 -2.1482 -3.4589  1.2562
25234SOL    HW278595   5.384   6.251   6.934  0.8152  1.1021  0.4080
25235SOL     OW78596   8.769   3.952   4.004 -0.1636 -0.1072  0.0692
25235SOL    HW178597   8.787   4.033   4.052  1.0673  0.7941 -1.7698
25235SOL    HW278598   8.674   3.944   4.004 -0.2378  0.3802  1.7372
25236SOL     OW78599   5.373   8.671   2.060  0.7235  0.3966  0.1442
25236SOL    HW178600   5.344   8.761   2.073  0.8810  0.2947  1.3182
25236SOL    HW278601   5.308   8.618   2.107  1.8392  0.0601  1.3547
25237SOL     OW78602   3.454   2.519   0.612 -0.1258 -0.1569  0.1047
25237SOL    HW178603   3.503   2.577   0.669  1.5663 -1.2558 -0.1338
25237SOL    HW278604   3.463   2.557   0.525  0.3762 -0.3830  0.0542
25238SOL     OW78605   3.071   8.224   0.478 -0.1190 -0.6794 -0.3766
25238SOL    HW178606   3.039   8.138   0.504 -1.3837  0.0632  0.6321
25238SOL    HW278607   2.993   8.275   0.460  0.6153  0.2281 -1.1025
25239SOL     OW78608   3.260   4.986   5.853  0.0361  0.4972  0.4793
25239SOL    HW178609   3.301   4.900   5.858  0.0509  0.4804  0.0919
25239SOL    HW278610   3.256   5.006   5.760  0.6515  1.2076  0.5900
25240SOL     OW78611   2.755   8.117   7.060  0.2572  0.3164  0.6911
25240SOL    HW178612   2.832   8.098   7.006 -1.8076  0.0499 -2.3790
25240SOL    HW278613   2.771   8.070   7.141  1.6544 -2.9851 -1.3107
25241SOL     OW78614   6.759   1.799   8.266 -0.1271 -0.0385  0.0739
25241SOL    HW178615   6.824   1.794   8.196 -2.2524 -3.0176 -1.9429
25241SOL    HW278616   6.734   1.892   8.269  2.5142  0.7854 -0.5762
25242SOL     OW78617   3.589   8.249   1.750  0.0251 -0.9775 -0.3900
25242SOL    HW178618   3.589   8.344   1.749  0.4630 -0.9205  1.5366
25242SOL    HW278619   3.497   8.225   1.738 -0.1665 -0.2925 -0.3316
25243SOL     OW78620   7.386   7.450   3.496  0.0432 -0.3479 -0.1391
25243SOL    HW178621   7.365   7.538   3.467 -0.7979 -0.6561 -0.5149
25243SOL    HW278622   7.366   7.394   3.420  2.8716 -0.6460 -0.7812
25244SOL     OW78623   7.615   6.737   2.099 -0.0466 -0.3824  0.5201
25244SOL    HW178624   7.627   6.653   2.145  1.4963 -1.3969 -1.5612
25244SOL    HW278625   7.534   6.725   2.050 -0.2100 -0.3716  0.7834
25245SOL     OW78626   0.508   4.164   2.820  0.3926 -0.4686 -0.1555
25245SOL    HW178627   0.518   4.078   2.780 -0.2819 -0.8909  0.5748
25245SOL    HW278628   0.523   4.150   2.913 -0.1292  0.1261  0.0269
25246SOL     OW78629   7.258   6.248   0.974  0.0816 -0.1489 -0.0984
25246SOL    HW178630   7.263   6.153   0.986  0.7550 -0.4002 -1.9537
25246SOL    HW278631   7.338   6.270   0.926  0.1786  1.4511  0.7458
25247SOL     OW78632   5.732   5.996   1.231  0.2052  0.2819  0.5817
25247SOL    HW178633   5.784   5.916   1.220  0.3911  0.5218 -0.3524
25247SOL    HW278634   5.645   5.974   1.199  0.2999  0.4963  0.1688
25248SOL     OW78635   9.120   3.166   0.882  0.4105 -0.5690  0.1407
25248SOL    HW178636   9.033   3.183   0.846  0.0684 -1.9951  0.2206
25248SOL    HW278637   9.108   3.173   0.977  0.2377 -1.2994  0.1808
25249SOL     OW78638   3.420   1.103   7.458  0.3012 -0.4737 -0.0396
25249SOL    HW178639   3.365   1.142   7.526 -0.8160  0.1900 -1.2683
25249SOL    HW278640   3.509   1.125   7.483 -0.1434  0.5118  0.7429
25250SOL     OW78641   1.546   4.109   6.890  0.3050 -0.1352  0.3186
25250SOL    HW178642   1.598   4.088   6.812  2.3033  1.0228  1.2463
25250SOL    HW278643   1.578   4.048   6.957  0.4033  0.5301  0.8862
25251SOL     OW78644   0.510   7.163   4.529  0.1943  0.4265 -0.4228
25251SOL    HW178645   0.566   7.085   4.526 -0.0674  0.1684  0.6569
25251SOL    HW278646   0.545   7.221   4.463  0.5918 -0.4897 -1.0368
25252SOL     OW78647   4.460   4.867   7.544  0.1699  0.2901  0.3566
25252SOL    HW178648   4.497   4.785   7.511 -1.1428 -0.5138  0.7876
25252SOL    HW278649   4.536   4.919   7.570  1.0312 -1.8864  2.6606
25253SOL     OW78650   2.957   6.636   8.729  0.0100 -0.3050  0.2061
25253SOL    HW178651   2.933   6.654   8.638  0.7619 -0.1724  0.0284
25253SOL    HW278652   2.938   6.543   8.741 -0.2181 -0.2919 -0.0435
25254SOL     OW78653   8.504   3.429   6.424 -0.1967  0.2419  0.0724
25254SOL    HW178654   8.516   3.499   6.488 -1.7555 -0.2365  0.9216
25254SOL    HW278655   8.568   3.363   6.450 -0.8503  0.0234  1.2189
25255SOL     OW78656   6.366   5.820   6.206 -0.2796 -0.0151  0.7458
25255SOL    HW178657   6.272   5.830   6.218 -0.2042  2.6152 -0.1347
25255SOL    HW278658   6.405   5.880   6.270  0.4905  3.3690 -2.5422
25256SOL     OW78659   6.737   1.189   1.843  0.6270  0.1296 -0.3096
25256SOL    HW178660   6.732   1.261   1.905  1.3595 -1.2522  1.4446
25256SOL    HW278661   6.825   1.152   1.856 -0.0586 -1.6520 -0.4446
25257SOL     OW78662   5.049   8.140   0.775  0.1124 -0.2414 -0.0636
25257SOL    HW178663   5.117   8.166   0.837 -0.5761  0.2297  0.5007
25257SOL    HW278664   5.037   8.046   0.791 -0.4574 -0.0066  0.9050
25258SOL     OW78665   3.860   6.612   7.664 -0.1050 -0.0436 -0.4508
25258SOL    HW178666   3.802   6.632   7.738  1.0874 -0.3869  0.6030
25258SOL    HW278667   3.803   6.570   7.600 -1.2049  0.4309  0.1755
25259SOL     OW78668   3.103   4.663   6.188  0.3835 -0.3809  0.0562
25259SOL    HW178669   3.112   4.730   6.120 -0.4167  0.7399  1.0109
25259SOL    HW278670   3.022   4.616   6.164  1.8591 -2.2606 -1.6076
25260SOL     OW78671   0.656   3.093   2.559  0.3016 -0.2445 -0.3716
25260SOL    HW178672   0.562   3.081   2.551  0.3814 -1.1884  0.0596
25260SOL    HW278673   0.694   3.024   2.506  0.7627  0.4436 -0.9613
25261SOL     OW78674   8.657   2.576   1.467 -0.1398 -0.4761 -0.1428
25261SOL    HW178675   8.685   2.545   1.553  0.0357 -0.1727 -0.0899
25261SOL    HW278676   8.733   2.562   1.411  0.1621  0.4244  0.0190
25262SOL     OW78677   4.787   0.914   8.777  0.2666  0.2395  0.0810
25262SOL    HW178678   4.746   0.973   8.713 -0.6888 -1.1154 -0.5964
25262SOL    HW278679   4.717   0.854   8.802  1.0668 -0.2445  1.1991
25263SOL     OW78680   3.815   7.508   1.404 -0.4334 -0.1585  0.5226
25263SOL    HW178681   3.807   7.599   1.432  0.6401 -0.7402  2.9647
25263SOL    HW278682   3.882   7.509   1.336 -1.2257  0.9897 -0.2787
25264SOL     OW78683   0.548   8.689   4.153 -0.3339 -0.4763  0.0049
25264SOL    HW178684   0.544   8.596   4.178 -0.2538 -1.1361 -2.2158
25264SOL    HW278685   0.628   8.721   4.194  0.1596 -1.6688  0.0432
25265SOL     OW78686   8.176   6.253   6.147 -0.1801  0.5950  0.3482
25265SOL    HW178687   8.098   6.301   6.120  0.3208  0.9494 -0.5080
25265SOL    HW278688   8.209   6.213   6.067  0.7639  0.8113  0.6173
25266SOL     OW78689   0.744   1.504   7.941 -0.1016 -0.1808 -0.2018
25266SOL    HW178690   0.733   1.599   7.937 -2.3239 -0.3887 -0.3336
25266SOL    HW278691   0.837   1.489   7.926  0.6541  2.0739  1.7183
25267SOL     OW78692   2.475   1.620   3.472  0.2988  0.2220 -0.2176
25267SOL    HW178693   2.427   1.571   3.405  0.7571 -2.8313  1.5282
25267SOL    HW278694   2.566   1.616   3.444  0.0949  3.2198 -1.8131
25268SOL     OW78695   6.089   3.124   2.160 -0.1379  0.0420 -0.5369
25268SOL    HW178696   5.997   3.119   2.187 -0.6012  1.7810 -1.5831
25268SOL    HW278697   6.089   3.191   2.091  1.2332 -2.8909 -3.6207
25269SOL     OW78698   5.141   1.881   2.671  0.1357 -0.3469 -0.1012
25269SOL    HW178699   5.149   1.971   2.703  0.5920  0.2138 -1.7064
25269SOL    HW278700   5.190   1.829   2.735  2.3432  0.9295 -0.6611
25270SOL     OW78701   3.572   0.297   7.107  0.4227 -0.0676 -0.5122
25270SOL    HW178702   3.613   0.379   7.081 -0.5955  0.0819 -1.7176
25270SOL    HW278703   3.512   0.321   7.178  1.2496 -0.0386  0.1921
25271SOL     OW78704   6.357   0.381   3.309  0.6915  0.6814  0.0397
25271SOL    HW178705   6.280   0.437   3.316  1.5877  1.9875 -0.2732
25271SOL    HW278706   6.375   0.376   3.215  0.8253  0.1462  0.0897
25272SOL     OW78707   3.451   1.968   2.468 -0.6427 -0.0488  0.2873
25272SOL    HW178708   3.531   1.941   2.515 -1.9024 -1.2339  1.8758
25272SOL    HW278709   3.470   2.057   2.439  1.2677 -0.3041  0.6004
25273SOL     OW78710   1.827   4.964   1.523  0.3567  0.3905 -0.2169
25273SOL    HW178711   1.763   4.905   1.562 -0.5781  1.2054 -0.4668
25273SOL    HW278712   1.912   4.930   1.550 -0.1486 -1.1832 -0.5331
25274SOL     OW78713   2.018   7.949   3.294  0.1969 -0.6957  0.3896
25274SOL    HW178714   2.064   8.014   3.348 -0.8977 -1.0331  1.7906
25274SOL    HW278715   2.039   7.974   3.204 -1.2440  2.4542  0.7937
25275SOL     OW78716   2.271   9.009   3.547 -0.2021 -0.2267  0.6027
25275SOL    HW178717   2.258   9.067   3.472 -2.1546 -1.4481 -0.1124
25275SOL    HW278718   2.185   9.005   3.589  0.3649 -1.1017  1.7340
25276SOL     OW78719   5.205   4.727   0.982  0.0406 -0.3375  0.2323
25276SOL    HW178720   5.288   4.700   0.945 -0.4213  0.6875 -1.6896
25276SOL    HW278721   5.143   4.659   0.957 -0.2312  0.2560 -0.7582
25277SOL     OW78722   3.081   6.131   0.571 -0.2549 -0.3223 -0.4538
25277SOL    HW178723   3.031   6.093   0.499  0.2032 -0.3806 -0.7475
25277SOL    HW278724   3.165   6.086   0.569  0.2126  0.5250 -0.6618
25278SOL     OW78725   1.085   7.678   8.424  0.3072  0.1900  0.1965
25278SOL    HW178726   1.110   7.590   8.451  2.9127  0.5161 -0.8670
25278SOL    HW278727   1.041   7.715   8.500  0.0086 -1.6794  0.9830
25279SOL     OW78728   8.549   5.646   2.808 -0.1092 -0.2279 -0.4074
25279SOL    HW178729   8.586   5.713   2.866 -0.7806  1.6032 -1.9972
25279SOL    HW278730   8.490   5.596   2.865 -1.2789  1.9401  0.4120
25280SOL     OW78731   0.391   7.672   5.340 -0.2280  1.0102  0.1674
25280SOL    HW178732   0.298   7.663   5.323 -0.1130  0.2661 -0.1177
25280SOL    HW278733   0.431   7.685   5.254  0.2632 -1.9730 -0.1665
25281SOL     OW78734   4.996   5.946   4.773 -0.0235 -0.1588 -0.5060
25281SOL    HW178735   5.031   5.956   4.862  0.6234 -1.1250 -0.6262
25281SOL    HW278736   4.945   5.865   4.777 -0.3923  0.0502 -0.9034
25282SOL     OW78737   1.010   3.566   4.344  0.2273 -0.3449  0.0657
25282SOL    HW178738   1.006   3.573   4.440  0.6077  0.3498  0.0399
25282SOL    HW278739   1.048   3.479   4.328  0.1307 -0.4783  0.5418
25283SOL     OW78740   7.044   7.190   2.928  0.3087  0.0755  0.3717
25283SOL    HW178741   6.989   7.244   2.985 -0.5754  1.0461 -1.3001
25283SOL    HW278742   7.132   7.226   2.939  0.3584 -0.4335  1.8605
25284SOL     OW78743   0.494   7.050   8.867 -0.1314  0.3957  0.8049
25284SOL    HW178744   0.433   7.116   8.898  0.5680  0.6268  1.7238
25284SOL    HW278745   0.446   6.967   8.876 -0.5419  0.6363  0.8654
25285SOL     OW78746   7.281   8.862   5.532 -0.0240  0.4335  0.1507
25285SOL    HW178747   7.269   8.808   5.611 -0.9003 -1.8493 -1.4553
25285SOL    HW278748   7.372   8.848   5.507  0.1171  0.7830  0.4404
25286SOL     OW78749   8.682   8.463   1.664  0.1499  0.5671  0.6906
25286SOL    HW178750   8.605   8.481   1.717  1.0154  2.8723  1.2631
25286SOL    HW278751   8.752   8.447   1.728  0.9074  2.0756  0.2843
25287SOL     OW78752   7.470   2.338   6.706 -0.0502 -0.0866  0.1588
25287SOL    HW178753   7.393   2.388   6.680 -0.9665 -1.7941 -0.6105
25287SOL    HW278754   7.443   2.293   6.787  0.8771  0.8835  1.0394
25288SOL     OW78755   2.264   5.212   7.372  0.1692 -0.1136 -0.1682
25288SOL    HW178756   2.337   5.150   7.366  1.2384  1.1925 -1.5625
25288SOL    HW278757   2.190   5.166   7.333  0.7344 -0.7829 -0.4754
25289SOL     OW78758   3.821   7.417   2.394  0.1305 -0.1363 -0.2514
25289SOL    HW178759   3.761   7.486   2.366  2.9932  2.0032 -1.6248
25289SOL    HW278760   3.779   7.336   2.366 -2.4068  1.1631 -0.4646
25290SOL     OW78761   6.200   3.964   2.524 -0.6224 -0.1678 -0.0353
25290SOL    HW178762   6.236   3.888   2.569 -1.9447 -1.4704 -1.0707
25290SOL    HW278763   6.105   3.954   2.532 -0.8380  1.2121 -0.4839
25291SOL     OW78764   1.459   1.784   3.850  0.2319 -0.2814 -0.6049
25291SOL    HW178765   1.443   1.719   3.782  0.7059 -1.1931  0.1335
25291SOL    HW278766   1.551   1.772   3.874 -0.2333 -0.8353  1.0637
25292SOL     OW78767   6.847   2.659   7.918  0.1223 -0.1022  0.1028
25292SOL    HW178768   6.841   2.637   8.011  1.3366 -1.2797 -0.0627
25292SOL    HW278769   6.880   2.749   7.916  1.4766 -0.5458  0.8472
25293SOL     OW78770   8.233   4.799   0.731 -0.2237  0.0727 -0.1076
25293SOL    HW178771   8.191   4.801   0.817 -0.6944  0.4251 -0.3408
25293SOL    HW278772   8.189   4.727   0.685  0.4141 -0.4828  0.1340
25294SOL     OW78773   3.545   4.847   2.366  0.6774 -0.0667 -0.1505
25294SOL    HW178774   3.495   4.928   2.375  0.9132  0.4824 -2.8897
25294SOL    HW278775   3.609   4.851   2.437  0.9867  2.4245 -0.4672
25295SOL     OW78776   5.550   4.355   7.365 -0.7121 -0.7525  0.2322
25295SOL    HW178777   5.568   4.422   7.431  0.6226 -0.7509 -0.0941
25295SOL    HW278778   5.457   4.336   7.374 -1.2883  1.6405 -0.1112
25296SOL     OW78779   3.786   4.039   2.661 -0.0897 -0.1157 -0.1122
25296SOL    HW178780   3.842   4.060   2.736 -0.5217 -0.0070  0.1802
25296SOL    HW278781   3.707   4.001   2.700 -0.1928 -0.3320 -0.5291
25297SOL     OW78782   7.986   3.740   3.692 -0.2031  0.2355 -0.1132
25297SOL    HW178783   7.983   3.690   3.773 -0.6784  1.0013  0.3610
25297SOL    HW278784   7.904   3.719   3.648 -0.5928  0.8951  0.2815
25298SOL     OW78785   4.289   6.689   4.866  0.2419 -0.0391 -0.3636
25298SOL    HW178786   4.384   6.686   4.869  0.3149  1.3098 -0.7975
25298SOL    HW278787   4.268   6.728   4.781 -0.7069 -0.6309 -0.4185
25299SOL     OW78788   2.913   4.332   3.126  0.3747  0.8783  0.0677
25299SOL    HW178789   2.865   4.257   3.092  0.8054  0.1220  1.1054
25299SOL    HW278790   2.849   4.379   3.179  0.6376  0.1139  1.0856
25300SOL     OW78791   6.577   8.302   9.068 -0.1651 -0.4489  0.1410
25300SOL    HW178792   6.653   8.271   9.118  0.8326  1.5918 -0.0034
25300SOL    HW278793   6.614   8.346   8.992 -1.6031 -1.4225 -1.1954
25301SOL     OW78794   3.281   9.232   5.413  0.0967  0.1194 -0.2266
25301SOL    HW178795   3.285   9.297   5.483  1.0237 -0.9341  0.7285
25301SOL    HW278796   3.348   9.259   5.350 -0.5347  0.9011 -0.5742
25302SOL     OW78797   7.392   2.751   4.063 -0.3003 -0.2711 -0.5760
25302SOL    HW178798   7.331   2.763   3.991 -0.1922  0.2492 -0.5877
25302SOL    HW278799   7.388   2.658   4.083 -1.2763 -0.2036 -0.4149
25303SOL     OW78800   6.530   6.885   9.120 -0.2266 -0.5313  0.7495
25303SOL    HW178801   6.613   6.907   9.078  0.1856 -2.6219  0.3581
25303SOL    HW278802   6.506   6.965   9.167  1.7406  0.3075  0.4679
25304SOL     OW78803   2.351   7.447   0.133  0.5827  0.2510 -0.6510
25304SOL    HW178804   2.441   7.478   0.118  0.6934  2.3321  3.0577
25304SOL    HW278805   2.296   7.510   0.088  0.9313 -0.0223 -1.4808
25305SOL     OW78806   7.361   5.701   1.450  0.3311  0.0587  0.2017
25305SOL    HW178807   7.436   5.753   1.421  1.2308 -1.6931 -0.8176
25305SOL    HW278808   7.299   5.707   1.377  0.5294 -0.4298 -0.0147
25306SOL     OW78809   7.275   4.212   4.460  0.1398  0.0821 -0.0124
25306SOL    HW178810   7.367   4.232   4.479  0.5459 -0.7932 -0.8980
25306SOL    HW278811   7.279   4.154   4.384 -1.1847  0.4684 -0.4070
25307SOL     OW78812   7.034   3.955   8.897  0.0525 -0.3871  0.1431
25307SOL    HW178813   6.992   3.984   8.816 -2.3816 -3.1271  0.2736
25307SOL    HW278814   6.991   4.005   8.966  1.1718  0.9674 -0.1051
25308SOL     OW78815   5.306   2.288   8.446  0.2235 -0.0528  0.2254
25308SOL    HW178816   5.223   2.331   8.428  0.5616  1.0511  1.1802
25308SOL    HW278817   5.290   2.195   8.427 -1.0907  0.2006  0.0048
25309SOL     OW78818   2.905   6.293   4.408  0.2162 -0.1619  0.2962
25309SOL    HW178819   2.854   6.221   4.444  0.5431 -0.5399  0.0143
25309SOL    HW278820   2.889   6.366   4.467  1.1552 -0.9048  1.5067
25310SOL     OW78821   2.329   8.827   6.367  0.3515  0.3181  0.3741
25310SOL    HW178822   2.261   8.885   6.402  2.1178  1.1540  2.7079
25310SOL    HW278823   2.318   8.745   6.416  2.4355  1.2746  2.6253
25311SOL     OW78824   5.041   7.124   3.187  0.2421 -0.1564  0.1414
25311SOL    HW178825   4.947   7.134   3.171 -0.0027 -1.8383  0.3182
25311SOL    HW278826   5.072   7.074   3.112  0.4228 -2.0531  1.4235
25312SOL     OW78827   8.588   0.666   1.960 -0.4013  0.4905  0.5618
25312SOL    HW178828   8.661   0.652   1.901 -2.0430 -0.0251 -1.4465
25312SOL    HW278829   8.619   0.734   2.020  2.0883 -0.5126  0.5420
25313SOL     OW78830   0.999   6.087   2.811  0.6713 -0.5093 -0.3851
25313SOL    HW178831   1.017   6.170   2.766  0.2834  0.2829  0.8606
25313SOL    HW278832   0.915   6.058   2.776  0.2605  0.2168 -0.0222
25314SOL     OW78833   1.470   1.914   8.738 -0.2430  0.3001 -0.1291
25314SOL    HW178834   1.401   1.972   8.771 -0.4808  1.3050 -2.2509
25314SOL    HW278835   1.431   1.826   8.741 -0.6312  0.4939  1.1670
25315SOL     OW78836   1.547   6.145   6.258 -0.0599  0.1211 -0.4252
25315SOL    HW178837   1.531   6.053   6.278 -1.8709  0.3802 -0.5289
25315SOL    HW278838   1.527   6.191   6.340  0.0067  0.4886 -0.6141
25316SOL     OW78839   4.851   2.287   8.991 -0.0896  0.0746 -0.6386
25316SOL    HW178840   4.804   2.292   9.074  0.4892  0.3237 -0.3220
25316SOL    HW278841   4.918   2.354   8.997 -2.2123  2.6427 -2.7173
25317SOL     OW78842   9.250   7.886   0.733  0.0013 -0.0574 -0.2961
25317SOL    HW178843   9.298   7.896   0.815  0.3539  0.1143 -0.5215
25317SOL    HW278844   9.208   7.971   0.720  2.4614  1.0226 -1.8714
25318SOL     OW78845   1.800   6.261   0.573 -0.3877  0.2068 -0.9274
25318SOL    HW178846   1.711   6.298   0.579 -0.8300 -0.2586 -3.4356
25318SOL    HW278847   1.851   6.330   0.530  0.4657  0.3963  0.3361
25319SOL     OW78848   7.755   0.610   6.649  0.0276 -0.7419 -0.2571
25319SOL    HW178849   7.808   0.678   6.691 -2.2137  1.4863 -0.7705
25319SOL    HW278850   7.791   0.528   6.681  0.9361  0.7321  2.8878
25320SOL     OW78851   6.861   0.946   1.185 -0.3126 -0.2460 -0.3956
25320SOL    HW178852   6.879   0.859   1.222  0.2046  0.0434  0.0351
25320SOL    HW278853   6.904   1.007   1.245 -0.8511  0.3227 -0.5829
25321SOL     OW78854   6.577   2.420   8.740  0.1001 -0.3053  0.1393
25321SOL    HW178855   6.555   2.365   8.665 -1.0467  1.2325 -0.7286
25321SOL    HW278856   6.549   2.369   8.816 -1.5854 -0.6809 -0.6640
25322SOL     OW78857   2.535   4.674   0.495  0.1668  0.0296 -0.0916
25322SOL    HW178858   2.587   4.739   0.542 -0.0236  0.8802 -1.0207
25322SOL    HW278859   2.598   4.607   0.469  0.9240  1.2467 -1.5659
25323SOL     OW78860   3.229   7.418   8.536 -0.0135 -0.1716  0.0650
25323SOL    HW178861   3.307   7.470   8.512  0.9289 -0.8969  1.4324
25323SOL    HW278862   3.160   7.450   8.477  0.9870  1.3862 -0.3210
25324SOL     OW78863   3.096   7.510   3.386 -0.2589  0.3507 -0.1323
25324SOL    HW178864   3.150   7.557   3.322  2.7152 -2.8857 -0.3258
25324SOL    HW278865   3.034   7.460   3.333  1.3695 -1.3611 -0.4993
25325SOL     OW78866   2.130   4.045   2.442  0.5171  0.2141 -0.3574
25325SOL    HW178867   2.174   4.120   2.482  2.2137 -0.4735 -0.8720
25325SOL    HW278868   2.155   3.971   2.496 -0.4437 -0.1373 -0.3694
25326SOL     OW78869   5.701   3.788   0.767  0.0692  0.8620 -0.5667
25326SOL    HW178870   5.792   3.817   0.760  0.4939  0.0652  1.0388
25326SOL    HW278871   5.683   3.789   0.861 -0.5838 -1.8364 -0.5792
25327SOL     OW78872   8.368   3.961   4.509  0.6217 -0.5608  0.5546
25327SOL    HW178873   8.397   4.006   4.429  0.2233  2.5936  2.0432
25327SOL    HW278874   8.447   3.920   4.544  1.3233  0.1246 -0.1827
25328SOL     OW78875   8.084   1.873   0.013  0.0410 -0.0859 -0.2712
25328SOL    HW178876   8.052   1.963   0.016  0.6490  0.1666 -0.9386
25328SOL    HW278877   8.011   1.822  -0.020  0.0483  0.3452 -0.9639
25329SOL     OW78878   4.577   7.685   0.049 -0.1830 -0.0701 -0.0953
25329SOL    HW178879   4.551   7.713  -0.038  0.2328 -0.4816 -0.3524
25329SOL    HW278880   4.507   7.626   0.078 -1.1511  1.3114  0.5161
25330SOL     OW78881   6.597   3.843   7.830  0.8933 -0.0396 -0.3802
25330SOL    HW178882   6.583   3.750   7.814 -0.6052 -0.1859  1.4525
25330SOL    HW278883   6.647   3.846   7.911 -0.4151  0.7528  0.4255
25331SOL     OW78884   5.103   0.198   5.891  0.2026 -0.4519  0.0710
25331SOL    HW178885   5.102   0.109   5.926 -0.6481 -0.0583  1.1064
25331SOL    HW278886   5.179   0.240   5.931 -0.1844 -0.3086  0.6629
25332SOL     OW78887   1.893   6.748   2.167  0.0598 -0.6879  0.1060
25332SOL    HW178888   1.832   6.677   2.183  0.2475 -1.1059 -0.9785
25332SOL    HW278889   1.980   6.707   2.172  0.1910 -0.4159  0.0855
25333SOL     OW78890   0.097   3.317   2.506 -0.6683 -0.3163  0.4225
25333SOL    HW178891   0.069   3.402   2.539 -0.8606 -0.0324 -0.4210
25333SOL    HW278892   0.018   3.263   2.510 -1.2231  0.2923 -1.3434
25334SOL     OW78893   8.051   1.412   5.535 -0.1125 -0.3537 -0.5583
25334SOL    HW178894   8.131   1.369   5.566  0.7290  0.6017 -1.3622
25334SOL    HW278895   8.002   1.430   5.615  1.9054  1.8523  0.3261
25335SOL     OW78896   3.188   4.293   4.108  0.1451  0.3134 -0.0608
25335SOL    HW178897   3.155   4.329   4.025  1.1942  0.3736 -0.4670
25335SOL    HW278898   3.279   4.323   4.112  0.1738  0.1031  1.0017
25336SOL     OW78899   3.137   8.477   3.899 -0.2559  0.3170  0.1869
25336SOL    HW178900   3.158   8.485   3.805  1.1338 -2.3879  0.1590
25336SOL    HW278901   3.221   8.490   3.943 -0.1400 -1.9587  0.7517
25337SOL     OW78902   3.224   4.744   7.489 -0.0533  0.0891 -0.2996
25337SOL    HW178903   3.257   4.659   7.517 -1.9599  0.1139  2.5089
25337SOL    HW278904   3.168   4.725   7.414 -2.2103 -1.5784  1.5979
25338SOL     OW78905   3.258   8.894   1.320 -0.0883 -0.5091 -0.0091
25338SOL    HW178906   3.319   8.826   1.348  2.2000  0.6133 -1.8804
25338SOL    HW278907   3.207   8.914   1.399  1.8667 -1.6474  1.6576
25339SOL     OW78908   5.840   1.378   7.907  0.3251 -0.0499  0.4039
25339SOL    HW178909   5.871   1.316   7.973  1.2637  1.0452  1.0270
25339SOL    HW278910   5.917   1.397   7.854  1.0346  3.0647  2.2614
25340SOL     OW78911   5.862   2.283   8.522 -0.5452  0.5196 -0.5514
25340SOL    HW178912   5.855   2.284   8.426  1.5822 -0.6085 -0.7688
25340SOL    HW278913   5.921   2.355   8.542 -1.6786  1.3228  0.0345
25341SOL     OW78914   7.405   7.624   6.661  0.3171 -0.1801  0.0761
25341SOL    HW178915   7.472   7.577   6.612  0.2058 -0.4009  0.1336
25341SOL    HW278916   7.349   7.555   6.696  0.7749 -0.0714  1.0640
25342SOL     OW78917   1.382   8.802   3.831  0.2607 -0.3495  0.0256
25342SOL    HW178918   1.423   8.783   3.916 -0.5095 -0.2132  0.4349
25342SOL    HW278919   1.387   8.719   3.784  2.4085  0.0385 -0.5545
25343SOL     OW78920   8.383   3.226   8.237 -0.3503 -0.4884 -0.3504
25343SOL    HW178921   8.364   3.173   8.315 -0.4426 -0.4257 -0.3308
25343SOL    HW278922   8.308   3.212   8.180  0.1176 -1.2168 -0.7994
25344SOL     OW78923   4.797   6.134   6.056  0.2727 -0.1090  0.5000
25344SOL    HW178924   4.789   6.126   5.961 -1.4636  0.3577  0.5632
25344SOL    HW278925   4.750   6.058   6.090 -1.2468  0.9971  0.9728
25345SOL     OW78926   4.240   6.652   1.276  0.3734  0.4036 -0.0890
25345SOL    HW178927   4.254   6.732   1.326 -0.1105  1.6233 -1.7891
25345SOL    HW278928   4.316   6.646   1.217 -0.2678  0.3958 -0.9378
25346SOL     OW78929   0.220   3.403   7.859  0.2319  0.2124 -0.6634
25346SOL    HW178930   0.253   3.476   7.911  2.5666 -1.1527 -0.0863
25346SOL    HW278931   0.142   3.373   7.906  1.9081 -0.5800  1.7998
25347SOL     OW78932   7.081   3.290   4.382 -0.6672 -0.0080  0.0683
25347SOL    HW178933   7.093   3.232   4.307 -0.5714 -0.5739  0.5159
25347SOL    HW278934   7.090   3.233   4.459 -1.3365  0.4543  0.5026
25348SOL     OW78935   1.486   8.448   7.525 -0.1264 -0.2965  0.0034
25348SOL    HW178936   1.409   8.416   7.477 -0.6535 -0.1592  0.7394
25348SOL    HW278937   1.516   8.373   7.575 -0.8120  0.0882  1.0227
25349SOL     OW78938   9.136   8.602   1.582 -0.2309  0.6697 -0.1465
25349SOL    HW178939   9.143   8.680   1.637 -2.5266  1.4348 -0.8050
25349SOL    HW278940   9.043   8.580   1.584  0.2684 -1.8359 -0.3496
25350SOL     OW78941   5.134   5.965   2.563 -0.1581  0.2526  0.0108
25350SOL    HW178942   5.041   5.956   2.544  0.1199 -3.0448 -0.3213
25350SOL    HW278943   5.146   5.924   2.648  1.3249 -1.9402 -1.1564
25351SOL     OW78944   1.528   2.384   3.526  0.3606 -0.5718 -0.1936
25351SOL    HW178945   1.499   2.413   3.612  1.8501  1.5216 -0.3066
25351SOL    HW278946   1.448   2.374   3.475 -0.3926  1.2298  0.5617
25352SOL     OW78947   5.239   3.541   8.301  0.3567  0.0203  0.1757
25352SOL    HW178948   5.314   3.550   8.243 -0.1182  0.6487 -0.3573
25352SOL    HW278949   5.170   3.594   8.260  0.5455  2.0215  2.2242
25353SOL     OW78950   4.156   6.227   1.325  0.0988 -0.2775 -0.4523
25353SOL    HW178951   4.070   6.252   1.291  0.8357  0.9239 -1.5293
25353SOL    HW278952   4.141   6.144   1.370 -1.2884 -1.0466 -2.2101
25354SOL     OW78953   4.228   3.847   9.117  0.3119 -0.1122 -0.1012
25354SOL    HW178954   4.257   3.865   9.028 -0.0150 -1.1193 -0.4298
25354SOL    HW278955   4.154   3.906   9.131 -0.1686 -0.5176 -0.8144
25355SOL     OW78956   1.901   8.155   3.845  0.4810 -0.3974 -0.2728
25355SOL    HW178957   1.823   8.206   3.865  0.7799 -0.0341 -0.0147
25355SOL    HW278958   1.868   8.067   3.827  0.1061 -0.5430  0.9819
25356SOL     OW78959   2.104   3.631   2.117 -0.6142 -0.2240 -0.0104
25356SOL    HW178960   2.044   3.611   2.045 -0.0455  0.9260 -0.8368
25356SOL    HW278961   2.060   3.700   2.166 -1.2621 -1.4017  1.1197
25357SOL     OW78962   4.459   6.464   0.510 -0.0224 -0.1184 -0.1834
25357SOL    HW178963   4.545   6.497   0.485  0.7562 -0.3713  1.9648
25357SOL    HW278964   4.398   6.510   0.452  1.4254  1.2364 -0.7028
25358SOL     OW78965   3.893   0.049   2.978  0.0657 -0.2633  0.0204
25358SOL    HW178966   3.893  -0.029   2.922 -1.3425  0.2981 -0.8218
25358SOL    HW278967   3.909   0.122   2.918  0.8951  0.1583  0.7292
25359SOL     OW78968   8.059   1.304   1.798 -0.2409  0.1070 -0.1583
25359SOL    HW178969   8.069   1.399   1.806 -0.3772  0.1879 -0.8936
25359SOL    HW278970   8.084   1.285   1.708  0.3337 -0.6332  0.1485
25360SOL     OW78971   5.968   4.983   6.540 -0.0548  0.6030 -0.2629
25360SOL    HW178972   5.972   4.888   6.531  0.5461  0.7622 -2.0340
25360SOL    HW278973   5.981   4.999   6.634  0.9040 -1.0063 -0.0812
25361SOL     OW78974   2.724   6.823   5.172  0.0167 -0.3633  0.4381
25361SOL    HW178975   2.787   6.768   5.126  0.7402  1.4340 -0.8588
25361SOL    HW278976   2.693   6.884   5.104 -0.3459  1.1479  1.9065
25362SOL     OW78977   4.033   9.046   0.121  0.2747  0.0005 -0.2237
25362SOL    HW178978   4.036   9.061   0.215  1.3996  0.5837 -0.3362
25362SOL    HW278979   4.067   8.957   0.110  0.3183 -0.0009 -0.0825
25363SOL     OW78980   1.349   8.359   2.442 -0.0236  0.2602  1.0043
25363SOL    HW178981   1.300   8.410   2.377 -1.1642 -0.7049  1.0785
25363SOL    HW278982   1.407   8.303   2.391  0.7364  1.1214  0.9033
25364SOL     OW78983   7.008   8.084   6.085 -0.0637  0.4278  0.0587
25364SOL    HW178984   6.956   8.164   6.097  0.5379  0.9042 -0.4141
25364SOL    HW278985   7.075   8.109   6.022  0.3120 -0.3778  0.1293
25365SOL     OW78986   4.860   2.963   1.163  0.3854  0.4132 -0.5757
25365SOL    HW178987   4.791   2.935   1.104 -0.2528  2.5701 -0.9520
25365SOL    HW278988   4.814   2.985   1.244  0.7348  1.0231 -0.5361
25366SOL     OW78989   6.273   8.914   1.779  0.0766  0.4670 -0.0908
25366SOL    HW178990   6.192   8.887   1.736 -0.3719  0.2215  0.8881
25366SOL    HW278991   6.336   8.846   1.756  0.1988  0.9729 -1.3609
25367SOL     OW78992   8.601   8.359   0.283  0.1762  0.1912 -0.4497
25367SOL    HW178993   8.640   8.286   0.331  0.2980  0.7663  0.3371
25367SOL    HW278994   8.665   8.430   0.291 -1.0050  1.1598  0.8828
25368SOL     OW78995   3.093   3.286   1.895  0.1978  0.2814 -0.2986
25368SOL    HW178996   3.136   3.351   1.839 -0.6385  0.7535 -0.4044
25368SOL    HW278997   3.094   3.325   1.982  0.5228  0.0194 -0.1797
25369SOL     OW78998   0.472   0.089   8.532 -0.2156  0.2504  0.8549
25369SOL    HW178999   0.540   0.147   8.499 -0.0710 -0.8979 -1.0200
25369SOL    HW279000   0.390   0.127   8.502 -0.0575 -1.1311 -1.6470
25370SOL     OW79001   8.683   4.696   5.122  0.2343 -0.3575 -0.6321
25370SOL    HW179002   8.589   4.715   5.125  0.2570 -0.3629  0.4369
25370SOL    HW279003   8.721   4.771   5.077 -0.5154 -1.4059 -3.2349
25371SOL     OW79004   7.080   1.887   5.492 -0.5164 -0.8593  0.2835
25371SOL    HW179005   7.121   1.801   5.491 -1.0876 -1.1374 -0.4987
25371SOL    HW279006   7.153   1.948   5.479 -0.0439 -1.1776  1.3268
25372SOL     OW79007   6.845   9.149   6.630  0.0572 -0.7443  0.1104
25372SOL    HW179008   6.856   9.242   6.650 -3.1788  0.0283 -1.0367
25372SOL    HW279009   6.933   9.113   6.632  1.5583  2.5571 -0.3236
25373SOL     OW79010   6.777   1.499   3.266 -0.1415  0.6537 -0.1597
25373SOL    HW179011   6.726   1.509   3.346  1.9916  0.0073  1.3550
25373SOL    HW279012   6.818   1.584   3.253  1.6083  0.0272  0.9874
25374SOL     OW79013   0.691   6.741   0.231  0.6104 -0.0638  0.0907
25374SOL    HW179014   0.645   6.694   0.301 -0.3682  0.1291 -0.3998
25374SOL    HW279015   0.720   6.672   0.171  0.6368 -0.1586  0.2104
25375SOL     OW79016   4.012   8.198   7.438 -0.1913  0.3365 -0.2121
25375SOL    HW179017   4.027   8.259   7.510  1.4312 -0.8205  0.4901
25375SOL    HW279018   4.068   8.123   7.458 -1.1483 -0.8369 -1.7077
25376SOL     OW79019   3.090   4.790   3.376  0.3541  0.5646 -0.4070
25376SOL    HW179020   3.103   4.876   3.417 -1.3900  1.5126 -1.6884
25376SOL    HW279021   3.026   4.746   3.432 -0.6157  1.1215 -1.0377
25377SOL     OW79022   5.345   0.600   5.052 -0.1919 -0.1256  0.0448
25377SOL    HW179023   5.340   0.618   5.146  1.0844  1.9203 -0.2092
25377SOL    HW279024   5.435   0.623   5.028 -0.9352  0.9779 -1.9504
25378SOL     OW79025   9.122   1.588   3.475  0.2426  0.3884  0.4664
25378SOL    HW179026   9.187   1.656   3.488  0.1866  0.2595  1.4441
25378SOL    HW279027   9.039   1.629   3.497  0.1564  0.1401  0.6041
25379SOL     OW79028   4.891   6.817   6.916  0.0414 -0.1797  0.7340
25379SOL    HW179029   4.967   6.796   6.862 -0.3013  0.6497 -0.1001
25379SOL    HW279030   4.923   6.885   6.976  0.2996 -0.7750  1.2822
25380SOL     OW79031   7.327   1.953   0.525 -0.3344 -0.1159 -0.1643
25380SOL    HW179032   7.328   1.977   0.618  2.3486  1.8827 -0.5572
25380SOL    HW279033   7.260   2.009   0.487  1.4692  2.3785  0.0079
25381SOL     OW79034   4.526   3.257   3.096 -0.1701  0.3182 -0.3168
25381SOL    HW179035   4.451   3.267   3.038  1.1324 -0.9808 -2.3749
25381SOL    HW279036   4.501   3.188   3.157 -0.7773  0.1650 -0.7366
25382SOL     OW79037   6.650   3.938   2.250  0.3755  0.1675  0.2262
25382SOL    HW179038   6.557   3.958   2.253  0.3927  0.1954  0.8494
25382SOL    HW279039   6.659   3.860   2.306  1.1145  1.8384  2.6057
25383SOL     OW79040   8.730   6.517   3.416  0.3198  0.2021  0.3815
25383SOL    HW179041   8.720   6.583   3.347  1.3363  0.9618  0.9440
25383SOL    HW279042   8.676   6.550   3.488 -0.2838 -0.3013  0.1671
25384SOL     OW79043   8.394   8.625   0.645  0.1994  0.2219 -0.3740
25384SOL    HW179044   8.448   8.650   0.570  0.2940  0.9263 -0.0743
25384SOL    HW279045   8.325   8.690   0.649 -0.3837 -0.3821 -0.4388
25385SOL     OW79046   8.843   8.943   4.067 -0.3414  0.2238 -0.4363
25385SOL    HW179047   8.884   8.887   4.134 -0.3564 -0.7121 -1.1886
25385SOL    HW279048   8.771   8.986   4.113  0.5279  0.7093  0.5135
25386SOL     OW79049   2.177   3.055   1.981  0.2468 -0.4384 -0.5185
25386SOL    HW179050   2.188   3.048   1.886 -0.9560 -0.6046 -0.6701
25386SOL    HW279051   2.098   3.004   1.999 -0.6390  1.1550  0.2982
25387SOL     OW79052   9.114   8.985   3.859  0.2453 -0.4764  0.6391
25387SOL    HW179053   9.066   8.913   3.899 -0.5713 -0.1642  0.2275
25387SOL    HW279054   9.172   8.943   3.795 -0.8627 -0.7132 -0.2396
25388SOL     OW79055   0.249   3.817   1.264 -0.4154  0.5800 -0.3382
25388SOL    HW179056   0.263   3.741   1.320 -2.0701 -0.3141 -1.0562
25388SOL    HW279057   0.326   3.820   1.207 -0.0325 -0.1707  0.1248
25389SOL     OW79058   5.715   1.677   0.332  0.0969 -0.2570 -0.2949
25389SOL    HW179059   5.651   1.729   0.381 -0.3844  0.1558 -1.3413
25389SOL    HW279060   5.686   1.586   0.345  0.3045 -0.2023  0.6291
25390SOL     OW79061   4.246   6.372   9.063 -0.1012  0.4913  0.1458
25390SOL    HW179062   4.253   6.277   9.073  1.3235  0.3659 -1.4008
25390SOL    HW279063   4.156   6.387   9.035 -0.1308 -0.5177 -0.3651
25391SOL     OW79064   4.815   2.350   1.526 -0.2942 -0.3526  0.3008
25391SOL    HW179065   4.779   2.399   1.452 -0.5339  0.9276  1.2372
25391SOL    HW279066   4.778   2.392   1.604  0.1088 -1.5386  1.1669
25392SOL     OW79067   5.751   5.428   7.284  0.2946  0.0419  0.2469
25392SOL    HW179068   5.777   5.368   7.353  1.0566  0.5936  0.4544
25392SOL    HW279069   5.667   5.395   7.253 -0.5961  0.3907  2.1656
25393SOL     OW79070   6.454   6.035   3.180 -0.2615 -0.3985 -0.2834
25393SOL    HW179071   6.512   6.012   3.107  2.7082  0.0130  1.7647
25393SOL    HW279072   6.425   6.124   3.161  1.1365  0.0109 -0.5994
25394SOL     OW79073   7.374   7.257   0.027  0.2690 -0.4327  0.1445
25394SOL    HW179074   7.423   7.307  -0.038 -0.2723  2.4736  1.7943
25394SOL    HW279075   7.318   7.200  -0.024 -0.4424  2.0161 -2.0249
25395SOL     OW79076   5.183   9.112   9.152  0.1875 -0.2538 -0.4080
25395SOL    HW179077   5.187   9.020   9.127 -0.7256 -0.4215  0.0097
25395SOL    HW279078   5.093   9.125   9.182  1.0575  0.0404  2.3403
25396SOL     OW79079   3.032   3.853   5.169 -0.1159  0.4331  0.0096
25396SOL    HW179080   3.122   3.885   5.173 -0.1766  0.5003  1.5810
25396SOL    HW279081   2.981   3.923   5.210 -0.7492 -0.0210 -0.0022
25397SOL     OW79082   7.808   4.725   1.852  0.1310  0.2344  0.3565
25397SOL    HW179083   7.730   4.677   1.880 -0.3507 -0.3076 -1.7184
25397SOL    HW279084   7.818   4.795   1.916 -0.6476 -1.0946  2.0239
25398SOL     OW79085   7.696   8.345   1.629 -0.2933  0.6236  0.1771
25398SOL    HW179086   7.654   8.261   1.644  1.7046 -0.3737  0.5398
25398SOL    HW279087   7.670   8.369   1.540  0.6059 -1.3799 -0.7098
25399SOL     OW79088   3.107   2.372   5.165  0.1221  0.0085  0.6146
25399SOL    HW179089   3.088   2.463   5.144  2.8633  0.3926 -0.5824
25399SOL    HW279090   3.181   2.376   5.225 -0.2377 -1.4427  1.1997
25400SOL     OW79091   0.387   8.468   0.808  0.3061 -0.6002  0.9189
25400SOL    HW179092   0.318   8.453   0.873 -1.1067  2.7645  0.4165
25400SOL    HW279093   0.386   8.388   0.754 -3.4107 -0.6812  0.8117
25401NA      NA79094   4.719   1.989   1.820  0.4757  0.2454  0.5627
25402NA      NA79095   2.610   1.241   0.857  0.0315  0.0351  0.3322
25403NA      NA79096   6.975   7.025   3.808  0.0347  0.1819 -0.1528
25404NA      NA79097   1.762   4.705   2.299 -0.2816 -0.1833  0.3384
25405NA      NA79098   5.912   3.832   8.370 -0.4655 -0.2455 -0.0294
25406NA      NA79099   4.262   7.416   7.124  0.4917 -0.0994  0.2871
25407NA      NA79100   6.511   6.647   9.184 -0.7154 -0.5332 -0.5115
25408NA      NA79101   2.420   4.762   0.352 -0.1558 -0.2776  0.3624
25409NA      NA79102   1.083   7.978   4.972  0.2902  0.3920 -0.0872
25410NA      NA79103   5.499   0.329   5.645  0.1980 -0.1673 -0.2217
25411NA      NA79104   6.598   1.827   8.679  0.2947  0.0627 -0.0666
25412NA      NA79105   3.981   4.693   3.563  0.0488  0.7291 -0.2885
25413NA      NA79106   0.976   4.227   4.291 -0.4415  0.3750  0.1054
25414NA      NA79107   4.081   7.792   3.044  0.3091  0.1787 -0.4262
25415NA      NA79108   1.280   0.288   7.934  0.2102 -0.2983 -0.0832
25416NA      NA79109   0.330   0.013   5.282 -0.0331  0.7115  0.1825
25417NA      NA79110   1.958   2.410   6.092 -0.2749 -0.1090  0.0165
25418NA      NA79111   0.741   3.153   5.610 -0.1337 -0.0798 -0.0726
25419NA      NA79112   6.834   6.440   2.451  0.1011 -0.1416 -0.7567
25420NA      NA79113   6.834   1.913   5.507 -0.4426 -0.3882 -0.4380
25421NA      NA79114   8.371   0.144   3.160 -0.3071 -0.2910 -0.7703
25422NA      NA79115   3.186   1.383   0.863 -0.3636 -0.2929 -0.5129
25423NA      NA79116   4.119   5.520   1.666 -0.0874 -0.0293  0.3101
25424NA      NA79117   2.589   8.854   3.043  0.7621  0.1324  0.4646
25425NA      NA79118   6.136   1.720   1.508 -0.0805 -0.2487  0.0500
25426NA      NA79119   0.241   0.671   3.564  0.8101 -0.2089 -0.1171
25427NA      NA79120   4.466   7.710   5.826  0.3085 -0.0705 -0.0641
25428NA      NA79121   5.243   4.954   0.899 -0.3188  0.1675 -0.5323
25429NA      NA79122   4.750   7.703   0.192  0.1448 -0.0140 -0.1046
25430NA      NA79123   0.544   5.820   4.619 -0.2275  0.4260 -0.3190
25431NA      NA79124   6.125   1.154   0.511  0.2045 -0.3934 -0.2620
25432NA      NA79125   6.897   5.757   3.898 -0.0907  0.1434  0.1788
25433NA      NA79126   7.093   6.008   7.811 -0.2279 -0.0619 -0.2021
25434NA      NA79127   6.420   4.275   4.553 -0.0852 -0.2963 -0.2389
25435NA      NA79128   0.305   1.930   5.989  0.2766 -0.3654 -0.0481
25436NA      NA79129   1.387   9.127   4.725 -0.1608  0.3437 -0.0062
25437NA      NA79130   3.846   6.814   8.998  0.0522 -0.1640 -0.2203
25438NA      NA79131   6.817   7.058   6.351 -0.2482 -0.0770 -0.5692
25439NA      NA79132   1.839   7.745   5.090 -0.1117 -0.3538  0.1853
25440NA      NA79133   5.097   3.092   7.054  0.0037 -0.5518 -0.2956
25441NA      NA79134   7.235   6.621   4.511  0.7036 -0.1965  0.1318
25442NA      NA79135   1.727   3.499   9.150 -0.4655  0.0485  0.2799
25443NA      NA79136   1.195   4.300   0.094 -0.2725  0.1941  0.0413
25444NA      NA79137   2.090   4.867   5.398  0.1912  0.0253 -0.5849
25445NA      NA79138   6.480   8.288   5.405 -0.3935  0.0660  0.2633
25446NA      NA79139   0.691   1.181   3.874 -0.3640  0.1232  0.1077
25447NA      NA79140   4.258   6.331   2.478 -0.0399 -0.0217  0.1483
25448NA      NA79141   6.580   7.431   0.422  0.3181  0.1870  0.0689
25449NA      NA79142   3.162   5.135   7.820  0.2770 -0.4120  0.2101
25450NA      NA79143   6.896   2.398   3.844 -0.6917 -0.3151 -0.1645
25451NA      NA79144   0.989   4.324   2.119  0.1395  0.3341  0.1405
25452NA      NA79145   2.433   9.087   3.666  0.2420  0.0349  0.1367
25453NA      NA79146   8.163   6.087   4.451 -0.3707  0.2540 -0.1231
25454NA      NA79147   4.429   0.434   6.962  0.1055 -0.3455  0.1326
25455NA      NA79148   0.618   6.760   6.095 -0.3278 -0.2012  0.2940
25456NA      NA79149   4.366   2.683   2.653  0.0951  0.0995  0.1015
25457NA      NA79150   8.567   1.602   2.258 -0.0347  0.4284 -0.2417
25458NA      NA79151   3.236   0.440   5.363 -0.1962 -0.2242  0.2298
25459NA      NA79152   3.047   0.673   8.481 -0.1281  0.0806  0.1676
25460NA      NA79153   8.799   6.857   7.020 -0.0449  0.3937 -0.3847
25461NA      NA79154   4.801   3.032   8.458  0.1821 -0.0433 -0.2196
25462NA      NA79155   4.277   1.967   0.981  0.2241 -0.1043  0.4419
25463NA      NA79156   3.521   5.297   6.092 -0.1500 -0.0092  0.2055
25464NA      NA79157   7.212   3.854   6.917  0.8633 -0.0529  0.0220
25465NA      NA79158   4.681   3.140   4.698  0.1017 -0.3440 -0.3695
25466NA      NA79159   3.609   7.744   1.691  0.2969  0.1258  0.1154
25467NA      NA79160   3.861   1.682   2.971 -0.2809 -0.1413  0.0581
25468NA      NA79161   2.999   2.814   1.186 -0.0224  0.0673  0.0406
25469NA      NA79162   8.381   4.334   1.451 -0.1221 -0.9564  0.5371
25470NA      NA79163   0.628   0.527   0.627  0.3396 -0.0832  0.1940
25471NA      NA79164   7.297   1.500   2.075 -0.1829 -0.5689 -0.0776
25472NA      NA79165   3.732   7.277   7.476 -0.0451  0.0768 -0.3739
25473NA      NA79166   8.805   2.463   2.551 -0.6627 -0.1174  0.2998
25474NA      NA79167   2.773   7.203   8.140  0.2860  0.2305  0.1079
25475CL      CL79168   5.073   9.164   5.076  0.0114  0.2972  0.2084
25476CL      CL79169   8.545   1.441   6.395  0.1414 -0.0955 -0.3519
25477CL      CL79170   7.331   5.740   4.980 -0.1867  0.2901  0.0688
25478CL      CL79171   5.984   6.582   2.698 -0.0046 -0.2493 -0.5671
25479CL      CL79172   4.651   0.858   6.662 -0.1333  0.0901 -0.5133
25480CL      CL79173   0.651   2.372   5.527  0.0859 -0.4903 -0.2374
25481CL      CL79174   1.181   3.792   0.012  0.1268  0.4515 -0.3788
25482CL      CL79175   6.250   7.165   0.186 -0.1243 -0.3243 -0.0273
25483CL      CL79176   2.419   0.029   3.778 -0.0203 -0.2208 -0.2075
25484CL      CL79177   1.657   5.415   2.067 -0.0184  0.2929  0.2787
25485CL      CL79178   2.006   2.017   6.460  0.1820 -0.0965 -0.1973
25486CL      CL79179   8.575   2.193   2.144  0.0528  0.0297  0.2185
25487CL      CL79180   2.776   1.513   4.194  0.1048 -0.0570 -0.0465
25488CL      CL79181   8.671   4.148   2.461 -0.1795 -0.4819  0.0040
25489CL      CL79182   1.602   1.095   2.514 -0.6226  0.0921  0.1405
25490CL      CL79183   3.844   1.792   3.845 -0.6287  0.4286  0.4893
25491CL      CL79184   4.070   7.908   4.222 -0.3047 -0.4119 -0.5123
25492CL      CL79185   2.800   4.538   2.050  0.0922 -0.0007 -0.2076
25493CL      CL79186   2.277   8.348   5.383  0.4754  0.2073  0.0463
25494CL      CL79187   3.096   7.909   3.108  0.0159  0.2765  0.2269
25495CL      CL79188   9.124   1.589   2.132 -0.2660 -0.1274 -0.4344
25496CL      CL79189   1.197   8.314   4.705  0.2343  0.1324  0.1540
25497CL      CL79190   5.383   5.247   7.617  0.1913  0.0093  0.1125
25498CL      CL79191   8.690   3.913   1.072  0.1072 -0.0608  0.2376
25499CL      CL79192   7.763   2.439   3.821  0.0869 -0.1326 -0.1736
25500CL      CL79193   3.924   9.140   1.334  0.0174  0.6019  0.2773
25501CL      CL79194   1.635   0.741   8.860  0.0943  0.0284 -0.3515
25502CL      CL79195   9.108   0.345   6.553 -0.1388 -0.1559 -0.2955
25503CL      CL79196   0.375   3.081   5.188 -0.1282  0.1059  0.0624
25504CL      CL79197   7.245   2.853   1.541 -0.2804 -0.4741 -0.2750
25505CL      CL79198   8.596   7.630   2.272 -0.0846  0.2869 -0.4104
25506CL      CL79199   5.368   9.103   7.678 -0.4579 -0.0064 -0.3331
25507CL      CL79200   7.128   9.069   6.666 -0.1054  0.1209 -0.1189
25508CL      CL79201   6.199   7.203   4.322 -0.0970 -0.2677  0.2250
25509CL      CL79202   1.173   7.167   6.122 -0.0899  0.2451 -0.7539
25510CL      CL79203   7.109   6.667   3.296  0.2426  0.2014 -0.0514
25511CL      CL79204   1.872   8.966   8.478  0.1195  0.4392  0.1110
25512CL      CL79205   2.402   4.249   7.818 -0.1638 -0.3457  0.2613
25513CL      CL79206   7.271   5.347   8.343 -0.0955 -0.4200  0.1794
25514CL      CL79207   2.638   5.684   8.838  0.1760 -0.0610 -0.1659
25515CL      CL79208   3.393   2.797   3.078  0.2308  0.2748  0.1002
25516CL      CL79209   6.447   2.242   8.528 -0.1634 -0.1587  0.1203
25517CL      CL79210   7.044   2.596   0.792  0.2538  0.2002  0.0640
25518CL      CL79211   1.239   4.117   6.047 -0.3513  0.0824 -0.1194
25519CL      CL79212   5.593   1.754   8.965 -0.2873  0.0397 -0.3532
25520CL      CL79213   6.976   8.243   8.632  0.6320  0.0607  0.3362
25521CL      CL79214   3.993   3.470   6.529  0.2488  0.3521  0.2884
25522CL      CL79215   6.044   1.814   8.537  0.2699  0.2984  0.2087
25523CL      CL79216   2.952   7.234   6.983 -0.4089 -0.0390 -0.1531
25524CL      CL79217   5.430   6.142   7.732  0.1555 -0.2007 -0.1513
25525CL      CL79218   6.110   3.067   7.521 -0.0619  0.1993 -0.1415
25526CL      CL79219   1.110   0.071   5.747 -0.2132  0.2700 -0.2217
25527CL      CL79220   8.480   5.049   3.375  0.0225 -0.1242 -0.4442
25528CL      CL79221   3.054   4.608   0.174 -0.0798 -0.1787  0.1616
25529CL      CL79222   0.265   4.077   0.261 -0.2391  0.1952  0.2524
25530CL      CL79223   7.437   9.240   3.592 -0.0925  0.4510  0.1419
25531CL      CL79224   3.704   4.125   5.568 -0.1978  0.0629 -0.0344
25532CL      CL79225   3.596   9.147   0.143 -0.0706  0.0974 -0.0862
25533CL      CL79226   5.913   1.958   1.828  0.0290  0.0233 -0.5025
25534CL      CL79227   0.016   3.182   4.685  0.5972  0.1799  0.1917
25535CL      CL79228   5.731   6.810   8.689  0.1405  0.7173 -0.0246
25536CL      CL79229   0.536   5.295   5.327  0.1887  0.0889  0.2056
25537CL      CL79230   6.219   6.028   5.478 -0.0460  0.0972 -0.2813
25538CL      CL79231   4.217   7.575   7.833  0.1028 -0.1241 -0.1019
25539CL      CL79232   3.625   8.801   3.161  0.4560 -0.0220 -0.0134
25540CL      CL79233   2.841   9.260   7.429 -0.3010 -0.0891  0.5582
25541CL      CL79234   0.552   5.767   4.121 -0.0362  0.1213  0.0830
25542CL      CL79235   4.395   3.731   8.617 -0.0513  0.2691  0.1136
25543CL      CL79236   9.233   2.217   8.475  0.1832 -0.0330 -0.3342
25544CL      CL79237   8.314   7.474   4.740 -0.1479 -0.1015  0.1953
25545CL      CL79238   6.051   2.581   5.364  0.3505 -0.0182 -0.3152
25546CL      CL79239   4.156   5.237   2.390  0.3877  0.3336  0.2540
25547CL      CL79240   8.564   7.686   3.770  0.3891 -0.1409 -0.1097
25548CL      CL79241   5.127   1.071   4.466 -0.0318 -0.2519 -0.3842
   9.26417   9.26417   9.26417
